       N       E                     dE             d eps       ncg     rms          rms(c)
DAV:   1     0.129591951346E+05    0.12959E+05   -0.83217E+05  4448   0.144E+03
DAV:   2    -0.102895665796E+04   -0.13988E+05   -0.13385E+05  5064   0.331E+02
DAV:   3    -0.246926334507E+04   -0.14403E+04   -0.14254E+04  5408   0.113E+02
DAV:   4    -0.251221743467E+04   -0.42954E+02   -0.42736E+02  6680   0.284E+01
DAV:   5    -0.251300542794E+04   -0.78799E+00   -0.78624E+00  5640   0.327E+00    0.170E+02
RMM:   6    -0.148257242309E+04    0.10304E+04   -0.19317E+03  4408   0.385E+01    0.725E+01
RMM:   7    -0.165237027972E+04   -0.16980E+03   -0.28944E+02  5082   0.145E+01    0.517E+01
RMM:   8    -0.170929137626E+04   -0.56921E+02   -0.79935E+01  5261   0.850E+00    0.438E+01
RMM:   9    -0.177671518534E+04   -0.67424E+02   -0.63308E+01  5085   0.770E+00    0.317E+01
RMM:  10    -0.191147900044E+04   -0.13476E+03   -0.65108E+01  5364   0.765E+00    0.291E+01
RMM:  11    -0.197902307026E+04   -0.67544E+02   -0.28705E+01  5339   0.473E+00    0.192E+01
RMM:  12    -0.208438516207E+04   -0.10536E+03   -0.51841E+01  4703   0.550E+00    0.172E+01
RMM:  13    -0.221016294608E+04   -0.12578E+03   -0.10134E+02  4470   0.738E+00    0.140E+01
RMM:  14    -0.227481439292E+04   -0.64651E+02   -0.59121E+01  4712   0.560E+00    0.601E+00
RMM:  15    -0.229267746800E+04   -0.17863E+02   -0.19231E+01  4882   0.355E+00    0.471E+00
RMM:  16    -0.229879764482E+04   -0.61202E+01   -0.72167E+00  4918   0.163E+00    0.280E+00
RMM:  17    -0.230202093039E+04   -0.32233E+01   -0.25028E+00  4717   0.110E+00    0.201E+00
RMM:  18    -0.230297855495E+04   -0.95762E+00   -0.48950E-01  5131   0.531E-01    0.260E+00
RMM:  19    -0.230299416027E+04   -0.15605E-01   -0.78076E-02  5783   0.155E-01    0.221E+00
RMM:  20    -0.230326001006E+04   -0.26585E+00   -0.10041E-01  4457   0.174E-01    0.146E+00
RMM:  21    -0.230352912355E+04   -0.26911E+00   -0.83868E-02  4462   0.175E-01    0.109E+00
RMM:  22    -0.230361431490E+04   -0.85191E-01   -0.66365E-02  4643   0.175E-01    0.193E+00
RMM:  23    -0.230358599984E+04    0.28315E-01   -0.14646E-02  4901   0.903E-02    0.245E+00
RMM:  24    -0.230370689942E+04   -0.12090E+00   -0.48278E-02  4573   0.102E-01    0.107E+00
RMM:  25    -0.230373317174E+04   -0.26272E-01   -0.15022E-02  4503   0.796E-02    0.829E-01
RMM:  26    -0.230376130246E+04   -0.28131E-01   -0.14269E-02  4970   0.649E-02    0.129E+00
RMM:  27    -0.230379490487E+04   -0.33602E-01   -0.22794E-02  4709   0.735E-02    0.241E+00
RMM:  28    -0.230378611033E+04    0.87945E-02   -0.22040E-03  4251   0.335E-02    0.189E+00
RMM:  29    -0.230378970871E+04   -0.35984E-02   -0.75173E-04  4097   0.159E-02    0.211E+00
RMM:  30    -0.230378093464E+04    0.87741E-02   -0.10171E-02  4603   0.446E-02    0.114E+00
RMM:  31    -0.230377055218E+04    0.10382E-01   -0.26492E-02  4639   0.741E-02    0.966E-01
RMM:  32    -0.230375975151E+04    0.10801E-01   -0.10980E-02  4555   0.524E-02    0.138E+00
RMM:  33    -0.230373813365E+04    0.21618E-01   -0.14164E-02  5216   0.472E-02    0.214E+00
RMM:  34    -0.230371918357E+04    0.18950E-01   -0.52947E-03  4620   0.343E-02    0.262E+00
RMM:  35    -0.230376207423E+04   -0.42891E-01   -0.19460E-02  4889   0.510E-02    0.144E+00
RMM:  36    -0.230378177676E+04   -0.19703E-01   -0.15755E-02  4818   0.560E-02    0.884E-01
RMM:  37    -0.230379163380E+04   -0.98570E-02   -0.62478E-03  4526   0.380E-02    0.890E-01
RMM:  38    -0.230380018612E+04   -0.85523E-02   -0.36717E-03  4516   0.304E-02    0.117E+00
RMM:  39    -0.230382004296E+04   -0.19857E-01   -0.10366E-02  5130   0.430E-02    0.210E+00
RMM:  40    -0.230382904833E+04   -0.90054E-02   -0.35173E-03  4675   0.285E-02    0.227E+00
RMM:  41    -0.230382918935E+04   -0.14102E-03   -0.61779E-04  3327   0.868E-03    0.225E+00
RMM:  42    -0.230382948793E+04   -0.29858E-03   -0.46223E-05  2926   0.471E-03    0.226E+00
RMM:  43    -0.230382994843E+04   -0.46050E-03   -0.10797E-05  2884   0.245E-03    0.227E+00
RMM:  44    -0.230382824759E+04    0.17008E-02   -0.85888E-05  2811   0.407E-03    0.223E+00
RMM:  45    -0.230383034485E+04   -0.20973E-02   -0.44597E-04  3609   0.857E-03    0.235E+00
RMM:  46    -0.230384379185E+04   -0.13447E-01   -0.23215E-03  4310   0.185E-02    0.264E+00
RMM:  47    -0.230384947028E+04   -0.56784E-02   -0.67372E-04  3481   0.118E-02    0.265E+00
RMM:  48    -0.230385004029E+04   -0.57001E-03   -0.11918E-04  2932   0.482E-03    0.266E+00
RMM:  49    -0.230384583568E+04    0.42046E-02   -0.16531E-04  2814   0.539E-03    0.261E+00
RMM:  50    -0.230384259207E+04    0.32436E-02   -0.15094E-04  2946   0.527E-03    0.257E+00
RMM:  51    -0.230383267168E+04    0.99204E-02   -0.12956E-03  4259   0.138E-02    0.236E+00
RMM:  52    -0.230381266549E+04    0.20006E-01   -0.75120E-03  4899   0.338E-02    0.152E+00
RMM:  53    -0.230379015608E+04    0.22509E-01   -0.33762E-02  5202   0.718E-02    0.812E-01
RMM:  54    -0.230378773803E+04    0.24180E-02   -0.29577E-03  4222   0.316E-02    0.887E-01
RMM:  55    -0.230378770091E+04    0.37125E-04   -0.74633E-04  3460   0.779E-03    0.879E-01
RMM:  56    -0.230378482621E+04    0.28747E-02   -0.54844E-04  3651   0.106E-02    0.973E-01
RMM:  57    -0.230378143303E+04    0.33932E-02   -0.71352E-04  4053   0.107E-02    0.111E+00
RMM:  58    -0.230378681577E+04   -0.53827E-02   -0.11893E-03  4153   0.133E-02    0.907E-01
RMM:  59    -0.230379641562E+04   -0.95999E-02   -0.65670E-03  4955   0.315E-02    0.887E-01
RMM:  60    -0.230380498267E+04   -0.85670E-02   -0.48301E-03  4757   0.282E-02    0.134E+00
RMM:  61    -0.230380512117E+04   -0.13850E-03   -0.49834E-04  3181   0.117E-02    0.130E+00
RMM:  62    -0.230380641119E+04   -0.12900E-02   -0.21453E-04  3035   0.596E-03    0.139E+00
RMM:  63    -0.230380592698E+04    0.48422E-03   -0.15471E-05  2744   0.401E-03    0.135E+00
RMM:  64    -0.230380489266E+04    0.10343E-02   -0.58025E-05  2706   0.324E-03    0.130E+00
RMM:  65    -0.230380445028E+04    0.44238E-03   -0.31792E-05  2650   0.263E-03    0.129E+00
RMM:  66    -0.230379999926E+04    0.44510E-02   -0.11676E-03  4209   0.128E-02    0.104E+00
RMM:  67    -0.230379737996E+04    0.26193E-02   -0.71086E-04  3563   0.117E-02    0.967E-01
RMM:  68    -0.230379416652E+04    0.32134E-02   -0.14260E-03  4352   0.142E-02    0.902E-01
RMM:  69    -0.230378680313E+04    0.73634E-02   -0.52971E-03  4861   0.276E-02    0.105E+00
RMM:  70    -0.230378137212E+04    0.54310E-02   -0.27214E-03  4492   0.211E-02    0.128E+00
RMM:  71    -0.230377833346E+04    0.30387E-02   -0.91797E-04  4025   0.113E-02    0.140E+00
RMM:  72    -0.230378201794E+04   -0.36845E-02   -0.44634E-04  3285   0.882E-03    0.125E+00
RMM:  73    -0.230378900095E+04   -0.69830E-02   -0.31416E-03  4617   0.217E-02    0.982E-01
RMM:  74    -0.230380074124E+04   -0.11740E-01   -0.12063E-02  5031   0.430E-02    0.115E+00
RMM:  75    -0.230380557566E+04   -0.48344E-02   -0.36698E-03  4665   0.263E-02    0.135E+00
RMM:  76    -0.230382037360E+04   -0.14798E-01   -0.72669E-03  5268   0.312E-02    0.207E+00
RMM:  77    -0.230384501066E+04   -0.24637E-01   -0.10375E-02  5099   0.408E-02    0.256E+00
RMM:  78    -0.230384297586E+04    0.20348E-02   -0.91415E-04  3310   0.163E-02    0.247E+00
RMM:  79    -0.230384477609E+04   -0.18002E-02   -0.33196E-04  3051   0.618E-03    0.251E+00
RMM:  80    -0.230384657119E+04   -0.17951E-02   -0.60845E-05  2872   0.445E-03    0.252E+00
RMM:  81    -0.230384114842E+04    0.54228E-02   -0.27713E-04  2952   0.654E-03    0.245E+00
RMM:  82    -0.230383752871E+04    0.36197E-02   -0.22068E-04  2967   0.618E-03    0.240E+00
RMM:  83    -0.230383616874E+04    0.13600E-02   -0.74690E-05  2794   0.389E-03    0.239E+00
RMM:  84    -0.230384092687E+04   -0.47581E-02   -0.21138E-04  2829   0.572E-03    0.248E+00
RMM:  85    -0.230384087802E+04    0.48850E-04   -0.14870E-05  2593   0.284E-03    0.246E+00
RMM:  86    -0.230384518431E+04   -0.43063E-02   -0.18855E-04  3072   0.567E-03    0.255E+00
RMM:  87    -0.230384463900E+04    0.54531E-03   -0.13325E-05  2612   0.325E-03    0.253E+00
RMM:  88    -0.230384479612E+04   -0.15713E-03   -0.27766E-06  2178   0.109E-03    0.254E+00
RMM:  89    -0.230384460790E+04    0.18823E-03   -0.23107E-06  2154   0.110E-03    0.253E+00
RMM:  90    -0.230384453883E+04    0.69065E-04   -0.66004E-06  2335   0.128E-03    0.253E+00
RMM:  91    -0.230383669554E+04    0.78433E-02   -0.59920E-04  3560   0.917E-03    0.238E+00
RMM:  92    -0.230383423647E+04    0.24591E-02   -0.17499E-04  2899   0.660E-03    0.236E+00
RMM:  93    -0.230383602792E+04   -0.17915E-02   -0.24694E-05  2639   0.344E-03    0.241E+00
RMM:  94    -0.230383561574E+04    0.41218E-03   -0.41931E-06  2149   0.134E-03    0.239E+00
RMM:  95    -0.230383569090E+04   -0.75155E-04   -0.42107E-06  2269   0.136E-03    0.239E+00
RMM:  96    -0.230386468174E+04   -0.28991E-01   -0.11348E-02  4961   0.393E-02    0.243E+00
RMM:  97    -0.230386448855E+04    0.19319E-03   -0.72813E-04  3315   0.165E-02    0.240E+00
RMM:  98    -0.230386591040E+04   -0.14218E-02   -0.22828E-04  2975   0.499E-03    0.239E+00
RMM:  99    -0.230385618479E+04    0.97256E-02   -0.99812E-04  3788   0.122E-02    0.245E+00
RMM: 100    -0.230385131269E+04    0.48721E-02   -0.37836E-04  3281   0.876E-03    0.246E+00
RMM: 101    -0.230383396575E+04    0.17347E-01   -0.38810E-03  4739   0.232E-02    0.223E+00
RMM: 102    -0.230381651224E+04    0.17454E-01   -0.61340E-03  4806   0.316E-02    0.166E+00
RMM: 103    -0.230380638573E+04    0.10127E-01   -0.49355E-03  4979   0.278E-02    0.123E+00
RMM: 104    -0.230379788178E+04    0.85039E-02   -0.59731E-03  5093   0.291E-02    0.849E-01
RMM: 105    -0.230378881133E+04    0.90705E-02   -0.87474E-03  5107   0.368E-02    0.886E-01
RMM: 106    -0.230378645412E+04    0.23572E-02   -0.15932E-03  4479   0.184E-02    0.980E-01
RMM: 107    -0.230376137353E+04    0.25081E-01   -0.22211E-02  5240   0.550E-02    0.198E+00
RMM: 108    -0.230372183294E+04    0.39541E-01   -0.19143E-02  5070   0.582E-02    0.300E+00
RMM: 109    -0.230369283764E+04    0.28995E-01   -0.94403E-03  5256   0.379E-02    0.355E+00
RMM: 110    -0.230371398509E+04   -0.21147E-01   -0.18045E-03  4426   0.173E-02    0.316E+00
RMM: 111    -0.230372416241E+04   -0.10177E-01   -0.91101E-04  3854   0.128E-02    0.295E+00
RMM: 112    -0.230372350725E+04    0.65516E-03   -0.81208E-05  2836   0.504E-03    0.295E+00
RMM: 113    -0.230373141016E+04   -0.79029E-02   -0.55753E-04  3839   0.929E-03    0.276E+00
RMM: 114    -0.230372199429E+04    0.94159E-02   -0.55878E-04  3553   0.946E-03    0.296E+00
RMM: 115    -0.230372144827E+04    0.54602E-03   -0.27414E-05  2706   0.394E-03    0.297E+00
RMM: 116    -0.230363535365E+04    0.86095E-01   -0.32251E-02  5153   0.677E-02    0.444E+00
RMM: 117    -0.230368096174E+04   -0.45608E-01   -0.53524E-03  5038   0.305E-02    0.374E+00
RMM: 118    -0.230367084598E+04    0.10116E-01   -0.38029E-04  3178   0.111E-02    0.389E+00
RMM: 119    -0.230367153451E+04   -0.68853E-03   -0.24678E-05  2705   0.293E-03    0.388E+00
RMM: 120    -0.230367078644E+04    0.74807E-03   -0.56688E-06  2466   0.148E-03    0.390E+00
RMM: 121    -0.230364737470E+04    0.23412E-01   -0.20084E-03  4612   0.173E-02    0.428E+00
RMM: 122    -0.230369667791E+04   -0.49303E-01   -0.96060E-03  4852   0.346E-02    0.348E+00
RMM: 123    -0.230370762360E+04   -0.10946E-01   -0.16373E-03  4283   0.188E-02    0.325E+00
RMM: 124    -0.230368508775E+04    0.22536E-01   -0.16941E-03  4293   0.166E-02    0.365E+00
RMM: 125    -0.230368491331E+04    0.17444E-03   -0.66747E-05  2853   0.567E-03    0.365E+00
RMM: 126    -0.230372641013E+04   -0.41497E-01   -0.85343E-03  4976   0.358E-02    0.288E+00
RMM: 127    -0.230375356652E+04   -0.27156E-01   -0.90306E-03  4890   0.399E-02    0.219E+00
RMM: 128    -0.230376230012E+04   -0.87336E-02   -0.28057E-03  4852   0.202E-02    0.193E+00
RMM: 129    -0.230377549946E+04   -0.13199E-01   -0.44179E-03  4915   0.260E-02    0.146E+00
RMM: 130    -0.230378616612E+04   -0.10667E-01   -0.60903E-03  4913   0.317E-02    0.101E+00
RMM: 131    -0.230379299239E+04   -0.68263E-02   -0.54485E-03  5044   0.278E-02    0.845E-01
RMM: 132    -0.230380177724E+04   -0.87849E-02   -0.68576E-03  5085   0.323E-02    0.112E+00
RMM: 133    -0.230380647423E+04   -0.46970E-02   -0.23851E-03  4540   0.218E-02    0.135E+00
RMM: 134    -0.230380774590E+04   -0.12717E-02   -0.61429E-04  3359   0.907E-03    0.139E+00
RMM: 135    -0.230380778308E+04   -0.37183E-04   -0.44954E-05  2906   0.437E-03    0.139E+00
RMM: 136    -0.230380826830E+04   -0.48522E-03   -0.47071E-05  2892   0.369E-03    0.143E+00
RMM: 137    -0.230380670951E+04    0.15588E-02   -0.82370E-05  2822   0.442E-03    0.133E+00
RMM: 138    -0.230380305545E+04    0.36541E-02   -0.62781E-04  3868   0.976E-03    0.111E+00
RMM: 139    -0.230379959977E+04    0.34557E-02   -0.87874E-04  3826   0.121E-02    0.957E-01
RMM: 140    -0.230379642370E+04    0.31761E-02   -0.11602E-03  4126   0.130E-02    0.865E-01
RMM: 141    -0.230378086286E+04    0.15561E-01   -0.17073E-02  5128   0.501E-02    0.124E+00
RMM: 142    -0.230377853729E+04    0.23256E-02   -0.16617E-03  4069   0.220E-02    0.133E+00
RMM: 143    -0.230377807727E+04    0.46002E-03   -0.35989E-04  3150   0.557E-03    0.135E+00
RMM: 144    -0.230377855023E+04   -0.47296E-03   -0.23795E-05  2775   0.380E-03    0.133E+00
RMM: 145    -0.230377818091E+04    0.36932E-03   -0.84430E-06  2493   0.161E-03    0.134E+00
RMM: 146    -0.230378073189E+04   -0.25510E-02   -0.26042E-04  3106   0.653E-03    0.123E+00
RMM: 147    -0.230378276464E+04   -0.20328E-02   -0.22619E-04  2993   0.634E-03    0.114E+00
RMM: 148    -0.230378613685E+04   -0.33722E-02   -0.67947E-04  3589   0.103E-02    0.100E+00
RMM: 149    -0.230379034312E+04   -0.42063E-02   -0.13724E-03  4488   0.146E-02    0.868E-01
RMM: 150    -0.230379232347E+04   -0.19804E-02   -0.59454E-04  3515   0.103E-02    0.832E-01
RMM: 151    -0.230379481333E+04   -0.24899E-02   -0.74269E-04  4105   0.105E-02    0.839E-01
RMM: 152    -0.230379603458E+04   -0.12213E-02   -0.24332E-04  3053   0.734E-03    0.854E-01
RMM: 153    -0.230379656219E+04   -0.52761E-03   -0.67543E-05  2864   0.422E-03    0.865E-01
RMM: 154    -0.230379662272E+04   -0.60528E-04   -0.76434E-06  2655   0.268E-03    0.864E-01
RMM: 155    -0.230379650793E+04    0.11479E-03   -0.17944E-06  2370   0.135E-03    0.862E-01
RMM: 156    -0.230379707828E+04   -0.57035E-03   -0.27182E-05  2687   0.239E-03    0.880E-01
RMM: 157    -0.230379690116E+04    0.17712E-03   -0.26309E-06  2391   0.167E-03    0.870E-01
RMM: 158    -0.230379716090E+04   -0.25974E-03   -0.46616E-06  2041   0.114E-03    0.881E-01
RMM: 159    -0.230379725159E+04   -0.90687E-04   -0.19538E-06  2077   0.107E-03    0.881E-01
RMM: 160    -0.230379720690E+04    0.44694E-04   -0.21524E-07  1355   0.670E-04    0.879E-01
RMM: 161    -0.230379674710E+04    0.45980E-03   -0.16537E-05  2089   0.156E-03    0.865E-01
RMM: 162    -0.230379676374E+04   -0.16640E-04   -0.10421E-06  1269   0.884E-04    0.869E-01
RMM: 163    -0.230379700466E+04   -0.24091E-03   -0.38164E-06  1644   0.954E-04    0.876E-01
RMM: 164    -0.230379699866E+04    0.59963E-05   -0.37940E-07  1161   0.643E-04
   1 F= -.23245083E+04 E0= -.23244998E+04  d E =-.232451E+04  mag=     5.0072
       N       E                     dE             d eps       ncg     rms          rms(c)
DAV:   1    -0.230381723796E+04   -0.20233E-01   -0.37127E+00  4544   0.127E+00    0.813E-01
RMM:   2    -0.230389524854E+04   -0.78011E-01   -0.66179E-01  6472   0.345E-01    0.155E+00
RMM:   3    -0.230389460486E+04    0.64368E-03   -0.69771E-02  6003   0.132E-01    0.119E+00
RMM:   4    -0.230389847396E+04   -0.38691E-02   -0.79373E-03  4715   0.280E-02    0.153E+00
RMM:   5    -0.230390308635E+04   -0.46124E-02   -0.16209E-02  5303   0.469E-02    0.164E+00
RMM:   6    -0.230388657813E+04    0.16508E-01   -0.89776E-03  5508   0.387E-02    0.802E-01
RMM:   7    -0.230388164306E+04    0.49351E-02   -0.46583E-03  4883   0.268E-02    0.879E-01
RMM:   8    -0.230386882729E+04    0.12816E-01   -0.83436E-03  4529   0.385E-02    0.131E+00
RMM:   9    -0.230388584082E+04   -0.17014E-01   -0.18243E-02  4588   0.527E-02    0.690E-01
RMM:  10    -0.230388900944E+04   -0.31686E-02   -0.53741E-03  4577   0.359E-02    0.709E-01
RMM:  11    -0.230389328669E+04   -0.42773E-02   -0.49119E-03  5067   0.271E-02    0.105E+00
RMM:  12    -0.230389109876E+04    0.21879E-02   -0.62114E-04  3739   0.146E-02    0.788E-01
RMM:  13    -0.230388855084E+04    0.25479E-02   -0.19074E-03  4497   0.178E-02    0.679E-01
RMM:  14    -0.230388353844E+04    0.50124E-02   -0.51715E-03  4791   0.300E-02    0.666E-01
RMM:  15    -0.230387817773E+04    0.53607E-02   -0.40573E-03  4732   0.271E-02    0.904E-01
RMM:  16    -0.230387731257E+04    0.86516E-03   -0.48098E-04  3538   0.963E-03    0.950E-01
RMM:  17    -0.230387805834E+04   -0.74577E-03   -0.40931E-05  2841   0.415E-03    0.915E-01
RMM:  18    -0.230388325712E+04   -0.51988E-02   -0.27015E-03  4474   0.195E-02    0.703E-01
RMM:  19    -0.230388995441E+04   -0.66973E-02   -0.73415E-03  4895   0.343E-02    0.821E-01
RMM:  20    -0.230389446148E+04   -0.45071E-02   -0.37237E-03  4685   0.251E-02    0.109E+00
RMM:  21    -0.230389411237E+04    0.34910E-03   -0.32775E-04  3008   0.802E-03    0.102E+00
RMM:  22    -0.230389325878E+04    0.85360E-03   -0.55685E-05  2789   0.451E-03    0.970E-01
RMM:  23    -0.230388990679E+04    0.33520E-02   -0.12121E-03  4274   0.133E-02    0.743E-01
RMM:  24    -0.230388621649E+04    0.36903E-02   -0.23479E-03  4525   0.195E-02    0.637E-01
RMM:  25    -0.230388368849E+04    0.25280E-02   -0.17652E-03  4372   0.164E-02    0.677E-01
RMM:  26    -0.230388115962E+04    0.25289E-02   -0.13877E-03  4349   0.141E-02    0.778E-01
RMM:  27    -0.230387976172E+04    0.13979E-02   -0.42983E-04  3331   0.896E-03    0.849E-01
RMM:  28    -0.230388026707E+04   -0.50535E-03   -0.28837E-05  2812   0.404E-03    0.824E-01
RMM:  29    -0.230388126922E+04   -0.10022E-02   -0.12043E-04  2776   0.422E-03    0.772E-01
RMM:  30    -0.230388347957E+04   -0.22103E-02   -0.74599E-04  3838   0.103E-02    0.683E-01
RMM:  31    -0.230388646165E+04   -0.29821E-02   -0.18214E-03  4430   0.162E-02    0.654E-01
RMM:  32    -0.230388943475E+04   -0.29731E-02   -0.19118E-03  4482   0.170E-02    0.752E-01
RMM:  33    -0.230389204671E+04   -0.26120E-02   -0.12332E-03  4237   0.139E-02    0.895E-01
RMM:  34    -0.230389353515E+04   -0.14884E-02   -0.45704E-04  3325   0.907E-03    0.975E-01
RMM:  35    -0.230389359712E+04   -0.61971E-04   -0.45109E-05  2840   0.448E-03    0.965E-01
RMM:  36    -0.230389336007E+04    0.23705E-03   -0.68640E-06  2539   0.220E-03    0.951E-01
RMM:  37    -0.230389161340E+04    0.17467E-02   -0.27591E-04  3044   0.640E-03    0.828E-01
RMM:  38    -0.230388959290E+04    0.20205E-02   -0.56962E-04  3817   0.926E-03    0.722E-01
RMM:  39    -0.230388803184E+04    0.15611E-02   -0.56479E-04  3383   0.905E-03    0.667E-01
RMM:  40    -0.230388737389E+04    0.65795E-03   -0.17326E-04  2903   0.588E-03    0.657E-01
RMM:  41    -0.230388699424E+04    0.37965E-03   -0.62394E-05  2851   0.416E-03    0.651E-01
RMM:  42    -0.230388636946E+04    0.62478E-03   -0.83930E-05  2900   0.455E-03    0.641E-01
RMM:  43    -0.230388614945E+04    0.22002E-03   -0.22199E-05  2688   0.334E-03    0.642E-01
RMM:  44    -0.230388602965E+04    0.11980E-03   -0.93701E-06  2557   0.204E-03    0.642E-01
RMM:  45    -0.230388626691E+04   -0.23726E-03   -0.77166E-06  2366   0.181E-03    0.646E-01
RMM:  46    -0.230388639978E+04   -0.13287E-03   -0.44998E-06  1830   0.113E-03    0.646E-01
RMM:  47    -0.230388596618E+04    0.43360E-03   -0.30489E-05  2485   0.216E-03    0.640E-01
RMM:  48    -0.230388574060E+04    0.22557E-03   -0.14011E-05  2585   0.182E-03    0.642E-01
RMM:  49    -0.230388663901E+04   -0.89841E-03   -0.12382E-04  2721   0.409E-03    0.654E-01
RMM:  50    -0.230388694175E+04   -0.30274E-03   -0.32894E-05  2508   0.276E-03    0.653E-01
RMM:  51    -0.230388728997E+04   -0.34822E-03   -0.36605E-05  2696   0.269E-03    0.661E-01
RMM:  52    -0.230388662275E+04    0.66722E-03   -0.65314E-05  2660   0.357E-03    0.641E-01
RMM:  53    -0.230388606804E+04    0.55471E-03   -0.67961E-05  2756   0.342E-03    0.638E-01
RMM:  54    -0.230388486846E+04    0.11996E-02   -0.28599E-04  3117   0.642E-03    0.641E-01
RMM:  55    -0.230388382127E+04    0.10472E-02   -0.25333E-04  3049   0.642E-03    0.666E-01
RMM:  56    -0.230388376718E+04    0.54087E-04   -0.24468E-05  2685   0.335E-03    0.670E-01
RMM:  57    -0.230388380254E+04   -0.35365E-04   -0.25509E-06  2269   0.130E-03    0.670E-01
RMM:  58    -0.230388417086E+04   -0.36831E-03   -0.20598E-05  2458   0.197E-03    0.662E-01
RMM:  59    -0.230388422568E+04   -0.54823E-04   -0.26028E-06  1681   0.113E-03    0.659E-01
RMM:  60    -0.230388402599E+04    0.19969E-03   -0.44876E-06  1635   0.102E-03    0.663E-01
RMM:  61    -0.230388410370E+04   -0.77714E-04   -0.51709E-07  1071   0.687E-04    0.662E-01
RMM:  62    -0.230388488500E+04   -0.78130E-03   -0.10491E-04  2815   0.391E-03    0.650E-01
RMM:  63    -0.230388443774E+04    0.44726E-03   -0.26403E-05  2491   0.290E-03    0.652E-01
RMM:  64    -0.230388465655E+04   -0.21881E-03   -0.55895E-06  1820   0.133E-03    0.652E-01
RMM:  65    -0.230388531494E+04   -0.65839E-03   -0.80742E-05  2732   0.345E-03    0.645E-01
RMM:  66    -0.230388574692E+04   -0.43198E-03   -0.49107E-05  2796   0.291E-03    0.641E-01
RMM:  67    -0.230388431939E+04    0.14275E-02   -0.32454E-04  3086   0.655E-03    0.650E-01
RMM:  68    -0.230388442800E+04   -0.10861E-03   -0.12764E-05  2405   0.259E-03    0.656E-01
RMM:  69    -0.230388377434E+04    0.65366E-03   -0.80469E-05  2824   0.345E-03    0.668E-01
RMM:  70    -0.230388598052E+04   -0.22062E-02   -0.79268E-04  3584   0.108E-02    0.652E-01
RMM:  71    -0.230388955921E+04   -0.35787E-02   -0.22373E-03  4590   0.185E-02    0.767E-01
RMM:  72    -0.230389204310E+04   -0.24839E-02   -0.13067E-03  4048   0.149E-02    0.893E-01
RMM:  73    -0.230389238639E+04   -0.34329E-03   -0.20206E-04  2928   0.608E-03    0.890E-01
RMM:  74    -0.230389286872E+04   -0.48232E-03   -0.59353E-05  2825   0.395E-03    0.927E-01
RMM:  75    -0.230389354681E+04   -0.67809E-03   -0.50119E-05  2819   0.388E-03    0.969E-01
RMM:  76    -0.230389330257E+04    0.24424E-03   -0.65519E-06  2521   0.265E-03    0.943E-01
RMM:  77    -0.230394566559E+04   -0.52363E-01   -0.52088E-02  5264   0.843E-02    0.231E+00
RMM:  78    -0.230394680084E+04   -0.11353E-02   -0.54203E-03  4508   0.427E-02    0.211E+00
RMM:  79    -0.230394895049E+04   -0.21496E-02   -0.16424E-03  3969   0.113E-02    0.210E+00
RMM:  80    -0.230395368367E+04   -0.47332E-02   -0.56849E-04  3736   0.116E-02    0.200E+00
RMM:  81    -0.230393775593E+04    0.15928E-01   -0.38229E-03  4687   0.225E-02    0.219E+00
RMM:  82    -0.230396142771E+04   -0.23672E-01   -0.86347E-03  4970   0.319E-02    0.183E+00
RMM:  83    -0.230394967220E+04    0.11756E-01   -0.22245E-03  4769   0.176E-02    0.211E+00
RMM:  84    -0.230395698617E+04   -0.73140E-02   -0.73635E-04  3797   0.117E-02    0.196E+00
RMM:  85    -0.230395815951E+04   -0.11733E-02   -0.11559E-04  2839   0.527E-03    0.194E+00
RMM:  86    -0.230395792532E+04    0.23420E-03   -0.92518E-06  2628   0.201E-03    0.194E+00
RMM:  87    -0.230396576996E+04   -0.78446E-02   -0.14626E-03  4603   0.143E-02    0.169E+00
RMM:  88    -0.230396791972E+04   -0.21498E-02   -0.35829E-04  3366   0.928E-03    0.160E+00
RMM:  89    -0.230396622539E+04    0.16943E-02   -0.50494E-05  2798   0.439E-03    0.166E+00
RMM:  90    -0.230396589560E+04    0.32979E-03   -0.78276E-06  2603   0.201E-03    0.167E+00
RMM:  91    -0.230396530932E+04    0.58629E-03   -0.13841E-05  2632   0.224E-03    0.168E+00
RMM:  92    -0.230394975791E+04    0.15551E-01   -0.48336E-03  4817   0.253E-02    0.208E+00
RMM:  93    -0.230394732997E+04    0.24279E-02   -0.49898E-04  3259   0.117E-02    0.212E+00
RMM:  94    -0.230395081721E+04   -0.34872E-02   -0.13063E-04  2884   0.532E-03    0.206E+00
RMM:  95    -0.230395034016E+04    0.47705E-03   -0.83683E-06  2569   0.219E-03    0.207E+00
RMM:  96    -0.230394724334E+04    0.30968E-02   -0.15896E-04  2883   0.453E-03    0.211E+00
RMM:  97    -0.230394872151E+04   -0.14782E-02   -0.32058E-05  2597   0.304E-03    0.209E+00
RMM:  98    -0.230394699874E+04    0.17228E-02   -0.37915E-05  2606   0.280E-03    0.211E+00
RMM:  99    -0.230393694155E+04    0.10057E-01   -0.16244E-03  4479   0.148E-02    0.219E+00
RMM: 100    -0.230392995701E+04    0.69845E-02   -0.10123E-03  3973   0.136E-02    0.217E+00
RMM: 101    -0.230393942409E+04   -0.94671E-02   -0.10721E-03  4025   0.127E-02    0.219E+00
RMM: 102    -0.230390108313E+04    0.38341E-01   -0.34234E-02  5172   0.679E-02    0.972E-01
RMM: 103    -0.230391288694E+04   -0.11804E-01   -0.47265E-03  4613   0.355E-02    0.199E+00
RMM: 104    -0.230391127534E+04    0.16116E-02   -0.38400E-04  2937   0.110E-02    0.178E+00
RMM: 105    -0.230390335010E+04    0.79252E-02   -0.14127E-03  4369   0.144E-02    0.143E+00
RMM: 106    -0.230389869744E+04    0.46527E-02   -0.11506E-03  4099   0.144E-02    0.122E+00
RMM: 107    -0.230389008713E+04    0.86103E-02   -0.71802E-03  5096   0.317E-02    0.648E-01
RMM: 108    -0.230389074653E+04   -0.65940E-03   -0.48486E-04  3177   0.147E-02    0.818E-01
RMM: 109    -0.230388832999E+04    0.24165E-02   -0.94093E-04  3958   0.111E-02    0.641E-01
RMM: 110    -0.230388626492E+04    0.20651E-02   -0.87240E-04  3951   0.118E-02    0.609E-01
RMM: 111    -0.230388633588E+04   -0.70968E-04   -0.53598E-05  2824   0.481E-03    0.619E-01
RMM: 112    -0.230388338086E+04    0.29550E-02   -0.16199E-03  4505   0.147E-02    0.643E-01
RMM: 113    -0.230387899984E+04    0.43810E-02   -0.26298E-03  4578   0.205E-02    0.846E-01
RMM: 114    -0.230387474579E+04    0.42541E-02   -0.20342E-03  4567   0.171E-02    0.107E+00
RMM: 115    -0.230387323786E+04    0.15079E-02   -0.37788E-04  3188   0.809E-03    0.115E+00
RMM: 116    -0.230387321210E+04    0.25762E-04   -0.36578E-05  2755   0.364E-03    0.115E+00
RMM: 117    -0.230387275123E+04    0.46086E-03   -0.25364E-05  2706   0.287E-03    0.116E+00
RMM: 118    -0.230387346812E+04   -0.71688E-03   -0.24699E-05  2576   0.266E-03    0.112E+00
RMM: 119    -0.230387744178E+04   -0.39737E-02   -0.99388E-04  4181   0.118E-02    0.908E-01
RMM: 120    -0.230388024047E+04   -0.27987E-02   -0.89465E-04  3941   0.125E-02    0.755E-01
RMM: 121    -0.230388114962E+04   -0.90915E-03   -0.28862E-04  3144   0.687E-03    0.700E-01
RMM: 122    -0.230388842920E+04   -0.72796E-02   -0.73731E-03  4950   0.316E-02    0.688E-01
RMM: 123    -0.230389419436E+04   -0.57652E-02   -0.50715E-03  4758   0.301E-02    0.102E+00
RMM: 124    -0.230389726982E+04   -0.30755E-02   -0.20861E-03  4609   0.169E-02    0.118E+00
RMM: 125    -0.230389921432E+04   -0.19445E-02   -0.49557E-04  3338   0.898E-03    0.129E+00
RMM: 126    -0.230389989050E+04   -0.67617E-03   -0.86500E-05  2907   0.510E-03    0.132E+00
RMM: 127    -0.230389860070E+04    0.12898E-02   -0.59011E-05  2777   0.396E-03    0.123E+00
RMM: 128    -0.230389672675E+04    0.18739E-02   -0.20113E-04  2992   0.572E-03    0.112E+00
RMM: 129    -0.230389460777E+04    0.21190E-02   -0.36727E-04  3404   0.733E-03    0.987E-01
RMM: 130    -0.230389414802E+04    0.45975E-03   -0.75393E-05  2760   0.451E-03    0.984E-01
RMM: 131    -0.230389465887E+04   -0.51086E-03   -0.11839E-05  2550   0.228E-03    0.102E+00
RMM: 132    -0.230389477076E+04   -0.11189E-03   -0.24086E-06  1875   0.117E-03    0.102E+00
RMM: 133    -0.230389490305E+04   -0.13228E-03   -0.22470E-06  1691   0.928E-04    0.103E+00
RMM: 134    -0.230389455175E+04    0.35130E-03   -0.71863E-06  1604   0.116E-03    0.100E+00
RMM: 135    -0.230389400180E+04    0.54995E-03   -0.25846E-05  2425   0.208E-03    0.970E-01
RMM: 136    -0.230389439664E+04   -0.39485E-03   -0.85386E-06  2274   0.168E-03    0.101E+00
RMM: 137    -0.230389266926E+04    0.17274E-02   -0.22006E-04  3004   0.573E-03    0.872E-01
RMM: 138    -0.230389123219E+04    0.14371E-02   -0.26259E-04  3136   0.641E-03    0.796E-01
RMM: 139    -0.230389111913E+04    0.11307E-03   -0.33023E-05  2686   0.337E-03    0.804E-01
RMM: 140    -0.230389146872E+04   -0.34960E-03   -0.10725E-05  2373   0.188E-03    0.824E-01
RMM: 141    -0.230389185082E+04   -0.38209E-03   -0.18234E-05  2248   0.190E-03    0.844E-01
RMM: 142    -0.230389133855E+04    0.51226E-03   -0.19659E-05  2367   0.188E-03    0.803E-01
RMM: 143    -0.230389100903E+04    0.32952E-03   -0.18550E-05  2470   0.183E-03    0.789E-01
RMM: 144    -0.230389098721E+04    0.21828E-04   -0.21575E-06  1906   0.120E-03    0.791E-01
RMM: 145    -0.230389097937E+04    0.78396E-05   -0.46700E-07   949   0.637E-04
   2 F= -.23245988E+04 E0= -.23245878E+04  d E =-.905214E-01  mag=     4.8262
       N       E                     dE             d eps       ncg     rms          rms(c)
DAV:   1    -0.230390166234E+04   -0.10675E-01   -0.15361E+00  4496   0.812E-01    0.615E-01
RMM:   2    -0.230393490691E+04   -0.33245E-01   -0.26961E-01  6451   0.221E-01    0.120E+00
RMM:   3    -0.230393767886E+04   -0.27720E-02   -0.29518E-02  5532   0.874E-02    0.119E+00
RMM:   4    -0.230393151561E+04    0.61633E-02   -0.10379E-02  5334   0.414E-02    0.692E-01
RMM:   5    -0.230392983015E+04    0.16855E-02   -0.35159E-03  5570   0.252E-02    0.561E-01
RMM:   6    -0.230392948340E+04    0.34675E-03   -0.20786E-03  4778   0.192E-02    0.649E-01
RMM:   7    -0.230392751733E+04    0.19661E-02   -0.16632E-03  4953   0.176E-02    0.513E-01
RMM:   8    -0.230392623996E+04    0.12774E-02   -0.90716E-04  4185   0.149E-02    0.548E-01
RMM:   9    -0.230392447140E+04    0.17686E-02   -0.10370E-03  4416   0.147E-02    0.626E-01
RMM:  10    -0.230392311614E+04    0.13553E-02   -0.49015E-04  3833   0.117E-02    0.685E-01
RMM:  11    -0.230392411742E+04   -0.10013E-02   -0.10648E-04  2911   0.550E-03    0.650E-01
RMM:  12    -0.230392930770E+04   -0.51903E-02   -0.64698E-03  4738   0.319E-02    0.605E-01
RMM:  13    -0.230392851566E+04    0.79205E-03   -0.28487E-04  3174   0.123E-02    0.528E-01
RMM:  14    -0.230393010427E+04   -0.15886E-02   -0.81861E-04  4019   0.111E-02    0.628E-01
RMM:  15    -0.230393004618E+04    0.58100E-04   -0.59044E-05  2850   0.522E-03    0.599E-01
RMM:  16    -0.230393004508E+04    0.10961E-05   -0.12685E-05  2662   0.197E-03
   3 F= -.23246363E+04 E0= -.23246261E+04  d E =-.128026E+00  mag=     4.7418
       N       E                     dE             d eps       ncg     rms          rms(c)
DAV:   1    -0.230385598003E+04    0.74066E-01   -0.61371E+00  4448   0.162E+00    0.832E-01
RMM:   2    -0.230399608803E+04   -0.14011E+00   -0.10839E+00  6475   0.446E-01    0.228E+00
RMM:   3    -0.230396880469E+04    0.27283E-01   -0.12346E-01  6218   0.178E-01    0.502E-01
RMM:   4    -0.230396799965E+04    0.80504E-03   -0.15114E-02  5226   0.402E-02    0.328E-01
RMM:   5    -0.230396770401E+04    0.29564E-03   -0.26723E-03  5175   0.273E-02    0.400E-01
RMM:   6    -0.230396751527E+04    0.18873E-03   -0.48638E-04  4010   0.127E-02    0.347E-01
RMM:   7    -0.230396757171E+04   -0.56438E-04   -0.94279E-05  2958   0.522E-03    0.370E-01
RMM:   8    -0.230396645259E+04    0.11191E-02   -0.47192E-03  4843   0.276E-02    0.199E-01
RMM:   9    -0.230396585960E+04    0.59299E-03   -0.85465E-04  3968   0.163E-02    0.194E-01
RMM:  10    -0.230396502407E+04    0.83552E-03   -0.10109E-03  4210   0.130E-02    0.227E-01
RMM:  11    -0.230396536897E+04   -0.34490E-03   -0.84736E-05  2922   0.694E-03    0.213E-01
RMM:  12    -0.230396618681E+04   -0.81783E-03   -0.11543E-03  4292   0.145E-02    0.157E-01
RMM:  13    -0.230396750280E+04   -0.13160E-02   -0.36187E-03  4703   0.254E-02    0.294E-01
RMM:  14    -0.230396711458E+04    0.38823E-03   -0.19493E-04  3000   0.983E-03    0.197E-01
RMM:  15    -0.230396735736E+04   -0.24278E-03   -0.16149E-04  2989   0.545E-03    0.263E-01
RMM:  16    -0.230396716491E+04    0.19244E-03   -0.91174E-05  2949   0.526E-03    0.218E-01
RMM:  17    -0.230396657490E+04    0.59001E-03   -0.10503E-03  4333   0.132E-02    0.137E-01
RMM:  18    -0.230396638774E+04    0.18717E-03   -0.19474E-04  2980   0.808E-03    0.149E-01
RMM:  19    -0.230396629465E+04    0.93081E-04   -0.12185E-04  2935   0.454E-03    0.144E-01
RMM:  20    -0.230396618382E+04    0.11083E-03   -0.69811E-05  2896   0.445E-03    0.140E-01
RMM:  21    -0.230396599673E+04    0.18709E-03   -0.17714E-04  3118   0.573E-03    0.147E-01
RMM:  22    -0.230396582307E+04    0.17366E-03   -0.13434E-04  2969   0.538E-03    0.164E-01
RMM:  23    -0.230396586747E+04   -0.44401E-04   -0.89919E-06  2641   0.281E-03    0.162E-01
RMM:  24    -0.230396590943E+04   -0.41960E-04   -0.67202E-06  2302   0.141E-03    0.155E-01
RMM:  25    -0.230396625079E+04   -0.34136E-03   -0.42154E-04  3443   0.800E-03    0.132E-01
RMM:  26    -0.230396667006E+04   -0.41928E-03   -0.81103E-04  4141   0.114E-02    0.149E-01
RMM:  27    -0.230396675669E+04   -0.86629E-04   -0.14975E-04  2897   0.567E-03    0.147E-01
RMM:  28    -0.230396669044E+04    0.66250E-04   -0.15708E-05  2637   0.270E-03    0.137E-01
RMM:  29    -0.230396660473E+04    0.85714E-04   -0.28083E-05  2649   0.233E-03    0.130E-01
RMM:  30    -0.230396647318E+04    0.13155E-03   -0.81408E-05  2830   0.359E-03    0.121E-01
RMM:  31    -0.230396583011E+04    0.64307E-03   -0.20380E-03  4611   0.170E-02    0.154E-01
RMM:  32    -0.230396568702E+04    0.14309E-03   -0.19069E-04  2925   0.818E-03    0.176E-01
RMM:  33    -0.230396593047E+04   -0.24345E-03   -0.10932E-04  2823   0.484E-03    0.147E-01
RMM:  34    -0.230396592275E+04    0.77194E-05   -0.59674E-06  2473   0.226E-03
   4 F= -.23246700E+04 E0= -.23246649E+04  d E =-.161779E+00  mag=     4.8515
       N       E                     dE             d eps       ncg     rms          rms(c)
DAV:   1    -0.230398045183E+04   -0.14521E-01   -0.30576E+00  4464   0.158E+00    0.778E-01
RMM:   2    -0.230403352344E+04   -0.53072E-01   -0.46933E-01  6170   0.375E-01    0.129E+00
RMM:   3    -0.230402782580E+04    0.56976E-02   -0.47972E-02  6006   0.142E-01    0.766E-01
RMM:   4    -0.230402406398E+04    0.37618E-02   -0.62628E-03  5242   0.412E-02    0.243E-01
RMM:   5    -0.230402407827E+04   -0.14296E-04   -0.23045E-03  5412   0.291E-02    0.287E-01
RMM:   6    -0.230402317120E+04    0.90707E-03   -0.13109E-03  5274   0.201E-02    0.929E-02
RMM:   7    -0.230402307465E+04    0.96547E-04   -0.25488E-04  4355   0.137E-02    0.474E-02
RMM:   8    -0.230402304657E+04    0.28081E-04   -0.58415E-05  3248   0.630E-03    0.213E-02
RMM:   9    -0.230402303661E+04    0.99646E-05   -0.28881E-05  3046   0.501E-03
   5 F= -.23247266E+04 E0= -.23247222E+04  d E =-.565701E-01  mag=     4.8699
       N       E                     dE             d eps       ncg     rms          rms(c)
DAV:   1    -0.230400137697E+04    0.21670E-01   -0.29563E+00  4496   0.155E+00    0.770E-01
RMM:   2    -0.230405282310E+04   -0.51446E-01   -0.45842E-01  6191   0.372E-01    0.125E+00
RMM:   3    -0.230404745874E+04    0.53644E-02   -0.46277E-02  6011   0.138E-01    0.743E-01
RMM:   4    -0.230404401248E+04    0.34463E-02   -0.62828E-03  5261   0.407E-02    0.253E-01
RMM:   5    -0.230404398427E+04    0.28210E-04   -0.22469E-03  5345   0.283E-02    0.285E-01
RMM:   6    -0.230404302130E+04    0.96297E-03   -0.13742E-03  5101   0.210E-02    0.925E-02
RMM:   7    -0.230404292557E+04    0.95734E-04   -0.26162E-04  4319   0.147E-02    0.407E-02
RMM:   8    -0.230404290742E+04    0.18148E-04   -0.62620E-05  3442   0.610E-03    0.200E-02
RMM:   9    -0.230404291198E+04   -0.45607E-05   -0.29066E-05  3044   0.545E-03
   6 F= -.23247461E+04 E0= -.23247437E+04  d E =-.760697E-01  mag=     4.9218
       N       E                     dE             d eps       ncg     rms          rms(c)
DAV:   1    -0.230399954168E+04    0.43366E-01   -0.39434E+00  4488   0.148E+00    0.102E+00
RMM:   2    -0.230415993661E+04   -0.16039E+00   -0.11123E+00  6540   0.452E-01    0.307E+00
RMM:   3    -0.230409539180E+04    0.64545E-01   -0.10509E-01  6219   0.157E-01    0.424E-01
RMM:   4    -0.230409533293E+04    0.58867E-04   -0.15526E-02  5396   0.406E-02    0.376E-01
RMM:   5    -0.230409465746E+04    0.67547E-03   -0.20261E-03  5055   0.201E-02    0.272E-01
RMM:   6    -0.230409408163E+04    0.57584E-03   -0.12858E-03  5186   0.166E-02    0.235E-01
RMM:   7    -0.230409367132E+04    0.41031E-03   -0.74044E-04  4295   0.162E-02    0.393E-02
RMM:   8    -0.230409367104E+04    0.27820E-06   -0.98381E-05  2973   0.566E-03
   7 F= -.23247971E+04 E0= -.23247953E+04  d E =-.509913E-01  mag=     4.9467
       N       E                     dE             d eps       ncg     rms          rms(c)
DAV:   1    -0.230391679467E+04    0.17688E+00   -0.86072E+00  4448   0.219E+00    0.145E+00
RMM:   2    -0.230424435154E+04   -0.32756E+00   -0.24070E+00  6526   0.668E-01    0.406E+00
RMM:   3    -0.230412667502E+04    0.11768E+00   -0.22542E-01  6260   0.231E-01    0.600E-01
RMM:   4    -0.230412722292E+04   -0.54789E-03   -0.33856E-02  5701   0.594E-02    0.576E-01
RMM:   5    -0.230412511040E+04    0.21125E-02   -0.42616E-03  5383   0.284E-02    0.353E-01
RMM:   6    -0.230412411513E+04    0.99527E-03   -0.28067E-03  5284   0.235E-02    0.333E-01
RMM:   7    -0.230412322575E+04    0.88939E-03   -0.17781E-03  4799   0.247E-02    0.545E-02
RMM:   8    -0.230412322039E+04    0.53514E-05   -0.21862E-04  3404   0.761E-03    0.372E-02
RMM:   9    -0.230412321541E+04    0.49879E-05   -0.42075E-05  2920   0.568E-03
   8 F= -.23248270E+04 E0= -.23248258E+04  d E =-.808814E-01  mag=     4.9673
       N       E                     dE             d eps       ncg     rms          rms(c)
DAV:   1    -0.230408316220E+04    0.40058E-01   -0.26346E+00  4496   0.127E+00    0.686E-01
RMM:   2    -0.230416535152E+04   -0.82189E-01   -0.72014E-01  6480   0.371E-01    0.144E+00
RMM:   3    -0.230415427516E+04    0.11076E-01   -0.74697E-02  6170   0.142E-01    0.392E-01
RMM:   4    -0.230415374817E+04    0.52699E-03   -0.85628E-03  5109   0.326E-02    0.219E-01
RMM:   5    -0.230415322302E+04    0.52515E-03   -0.13651E-03  5286   0.202E-02    0.179E-01
RMM:   6    -0.230415317620E+04    0.46822E-04   -0.78271E-04  4562   0.149E-02    0.167E-01
RMM:   7    -0.230415292450E+04    0.25170E-03   -0.44132E-04  3901   0.113E-02    0.513E-02
RMM:   8    -0.230415290988E+04    0.14625E-04   -0.44910E-05  2918   0.568E-03    0.204E-02
RMM:   9    -0.230415291352E+04   -0.36475E-05   -0.13603E-05  2875   0.359E-03
   9 F= -.23248570E+04 E0= -.23248555E+04  d E =-.300087E-01  mag=     4.9660
       N       E                     dE             d eps       ncg     rms          rms(c)
DAV:   1    -0.230408368991E+04    0.69220E-01   -0.30077E+00  4464   0.135E+00    0.713E-01
RMM:   2    -0.230417460909E+04   -0.90919E-01   -0.81725E-01  6445   0.394E-01    0.139E+00
RMM:   3    -0.230416507041E+04    0.95387E-02   -0.85839E-02  6150   0.153E-01    0.399E-01
RMM:   4    -0.230416447582E+04    0.59459E-03   -0.96501E-03  5139   0.345E-02    0.212E-01
RMM:   5    -0.230416386023E+04    0.61559E-03   -0.13024E-03  5221   0.203E-02    0.168E-01
RMM:   6    -0.230416373660E+04    0.12363E-03   -0.10573E-03  4983   0.178E-02    0.131E-01
RMM:   7    -0.230416361178E+04    0.12482E-03   -0.23325E-04  3121   0.960E-03    0.557E-02
RMM:   8    -0.230416360021E+04    0.11573E-04   -0.36968E-05  2890   0.508E-03    0.207E-02
RMM:   9    -0.230416361286E+04   -0.12659E-04   -0.15641E-05  2890   0.362E-03    0.989E-03
RMM:  10    -0.230416362183E+04   -0.89629E-05   -0.60330E-06  2827   0.284E-03
  10 F= -.23248681E+04 E0= -.23248662E+04  d E =-.410885E-01  mag=     4.9570
       N       E                     dE             d eps       ncg     rms          rms(c)
DAV:   1    -0.230412877899E+04    0.34834E-01   -0.24241E+00  4464   0.139E+00    0.633E-01
RMM:   2    -0.230417881710E+04   -0.50038E-01   -0.50845E-01  6247   0.340E-01    0.608E-01
RMM:   3    -0.230418273864E+04   -0.39215E-02   -0.54476E-02  6053   0.136E-01    0.625E-01
RMM:   4    -0.230417992576E+04    0.28129E-02   -0.56751E-03  5811   0.345E-02    0.164E-01
RMM:   5    -0.230417985267E+04    0.73090E-04   -0.12313E-03  5104   0.186E-02    0.195E-01
RMM:   6    -0.230417958142E+04    0.27125E-03   -0.75159E-04  4885   0.149E-02    0.121E-01
RMM:   7    -0.230417945965E+04    0.12177E-03   -0.23629E-04  4480   0.104E-02    0.337E-02
RMM:   8    -0.230417945904E+04    0.60860E-06   -0.36703E-05  2919   0.652E-03
  11 F= -.23248837E+04 E0= -.23248817E+04  d E =-.156585E-01  mag=     4.9520
       N       E                     dE             d eps       ncg     rms          rms(c)
DAV:   1    -0.230417493016E+04    0.45295E-02   -0.26767E-01  4616   0.458E-01    0.211E-01
RMM:   2    -0.230418048040E+04   -0.55502E-02   -0.56158E-02  6274   0.114E-01    0.206E-01
RMM:   3    -0.230418085436E+04   -0.37396E-03   -0.58444E-03  5413   0.463E-02    0.202E-01
RMM:   4    -0.230418056110E+04    0.29326E-03   -0.62337E-04  3679   0.118E-02    0.543E-02
RMM:   5    -0.230418055133E+04    0.97728E-05   -0.13421E-04  3170   0.754E-03    0.645E-02
RMM:   6    -0.230418052049E+04    0.30836E-04   -0.84899E-05  2935   0.688E-03    0.394E-02
RMM:   7    -0.230418050677E+04    0.13717E-04   -0.29900E-05  2915   0.552E-03    0.116E-02
RMM:   8    -0.230418050691E+04   -0.13584E-06   -0.80136E-06  2829   0.418E-03
  12 F= -.23248847E+04 E0= -.23248826E+04  d E =-.166481E-01  mag=     4.9500
       N       E                     dE             d eps       ncg     rms          rms(c)
DAV:   1    -0.230415843551E+04    0.22071E-01   -0.16827E+00  4464   0.100E+00    0.466E-01
RMM:   2    -0.230419526470E+04   -0.36829E-01   -0.36041E-01  6370   0.258E-01    0.569E-01
RMM:   3    -0.230419658615E+04   -0.13215E-02   -0.39641E-02  6027   0.106E-01    0.421E-01
RMM:   4    -0.230419530041E+04    0.12857E-02   -0.42568E-03  5244   0.253E-02    0.131E-01
RMM:   5    -0.230419506902E+04    0.23139E-03   -0.45309E-04  4479   0.130E-02    0.935E-02
RMM:   6    -0.230419513684E+04   -0.67827E-04   -0.44583E-04  4378   0.112E-02    0.142E-01
RMM:   7    -0.230419498357E+04    0.15328E-03   -0.16083E-04  3024   0.846E-03    0.280E-02
RMM:   8    -0.230419498129E+04    0.22769E-05   -0.32262E-05  2909   0.511E-03
  13 F= -.23248985E+04 E0= -.23248961E+04  d E =-.138006E-01  mag=     4.9437
       N       E                     dE             d eps       ncg     rms          rms(c)
DAV:   1    -0.230410133854E+04    0.93645E-01   -0.46704E+00  4448   0.166E+00    0.780E-01
RMM:   2    -0.230420482095E+04   -0.10348E+00   -0.10053E+00  6388   0.429E-01    0.997E-01
RMM:   3    -0.230420795042E+04   -0.31295E-02   -0.11576E-01  6155   0.177E-01    0.724E-01
RMM:   4    -0.230420424757E+04    0.37028E-02   -0.11984E-02  5725   0.420E-02    0.237E-01
RMM:   5    -0.230420412442E+04    0.12315E-03   -0.16817E-03  5216   0.213E-02    0.298E-01
RMM:   6    -0.230420335330E+04    0.77112E-03   -0.10179E-03  5433   0.159E-02    0.118E-01
RMM:   7    -0.230420330083E+04    0.52467E-04   -0.47486E-04  4499   0.123E-02    0.531E-02
RMM:   8    -0.230420332046E+04   -0.19628E-04   -0.68687E-05  3017   0.813E-03    0.196E-02
RMM:   9    -0.230420333787E+04   -0.17410E-04   -0.21101E-05  2866   0.461E-03    0.110E-02
RMM:  10    -0.230420334659E+04   -0.87171E-05   -0.88908E-06  2873   0.335E-03
  14 F= -.23249058E+04 E0= -.23249022E+04  d E =-.210423E-01  mag=     4.9114
       N       E                     dE             d eps       ncg     rms          rms(c)
DAV:   1    -0.230420142457E+04    0.19133E-02   -0.39672E-01  4544   0.432E-01    0.222E-01
RMM:   2    -0.230421122375E+04   -0.97992E-02   -0.92690E-02  6472   0.116E-01    0.340E-01
RMM:   3    -0.230421107921E+04    0.14454E-03   -0.95016E-03  5296   0.460E-02    0.181E-01
RMM:   4    -0.230421088916E+04    0.19005E-03   -0.10362E-03  3071   0.110E-02    0.717E-02
RMM:   5    -0.230421087470E+04    0.14464E-04   -0.12625E-04  2894   0.573E-03    0.818E-02
RMM:   6    -0.230421081385E+04    0.60850E-04   -0.10343E-04  2921   0.556E-03    0.443E-02
RMM:   7    -0.230421080511E+04    0.87412E-05   -0.43413E-05  2908   0.471E-03
  15 F= -.23249128E+04 E0= -.23249083E+04  d E =-.708412E-02  mag=     4.8864
       N       E                     dE             d eps       ncg     rms          rms(c)
DAV:   1    -0.230414565731E+04    0.65157E-01   -0.35650E+00  4448   0.130E+00    0.689E-01
RMM:   2    -0.230423647458E+04   -0.90817E-01   -0.84343E-01  6521   0.354E-01    0.119E+00
RMM:   3    -0.230423258301E+04    0.38916E-02   -0.91654E-02  6135   0.142E-01    0.481E-01
RMM:   4    -0.230423194324E+04    0.63977E-03   -0.10051E-02  5259   0.330E-02    0.458E-01
RMM:   5    -0.230423172707E+04    0.21617E-03   -0.33808E-04  2990   0.929E-03    0.408E-01
RMM:   6    -0.230423163199E+04    0.95083E-04   -0.19453E-03  4570   0.185E-02    0.687E-01
RMM:   7    -0.230423151158E+04    0.12041E-03   -0.38745E-04  3602   0.110E-02    0.512E-01
RMM:   8    -0.230423040768E+04    0.11039E-02   -0.12716E-03  4193   0.151E-02    0.177E-01
RMM:   9    -0.230423056439E+04   -0.15671E-03   -0.58231E-04  3967   0.114E-02    0.143E-01
RMM:  10    -0.230423078861E+04   -0.22423E-03   -0.41408E-04  3670   0.100E-02    0.155E-01
RMM:  11    -0.230423080561E+04   -0.16994E-04   -0.37915E-04  3687   0.974E-03    0.169E-01
RMM:  12    -0.230423073561E+04    0.70002E-04   -0.11246E-04  2992   0.626E-03    0.179E-01
RMM:  13    -0.230423075353E+04   -0.17924E-04   -0.96930E-06  2794   0.342E-03    0.180E-01
RMM:  14    -0.230423082736E+04   -0.73833E-04   -0.54989E-05  2801   0.346E-03    0.169E-01
RMM:  15    -0.230423092953E+04   -0.10217E-03   -0.14611E-04  3009   0.519E-03    0.163E-01
RMM:  16    -0.230423078700E+04    0.14254E-03   -0.15856E-04  2979   0.598E-03    0.160E-01
RMM:  17    -0.230423067708E+04    0.10992E-03   -0.96497E-05  2863   0.487E-03    0.173E-01
RMM:  18    -0.230423101634E+04   -0.33926E-03   -0.44573E-04  3441   0.860E-03    0.172E-01
RMM:  19    -0.230423210753E+04   -0.10912E-02   -0.31642E-03  4576   0.228E-02    0.295E-01
RMM:  20    -0.230423067618E+04    0.14313E-02   -0.10379E-02  4804   0.393E-02    0.201E-01
RMM:  21    -0.230422696459E+04    0.37116E-02   -0.99881E-03  4819   0.434E-02    0.622E-01
RMM:  22    -0.230422984857E+04   -0.28840E-02   -0.32329E-03  4473   0.231E-02    0.300E-01
RMM:  23    -0.230423045124E+04   -0.60267E-03   -0.15517E-03  4126   0.181E-02    0.190E-01
RMM:  24    -0.230423094141E+04   -0.49017E-03   -0.14501E-03  4420   0.160E-02    0.151E-01
RMM:  25    -0.230423105370E+04   -0.11229E-03   -0.22588E-04  3064   0.797E-03    0.147E-01
RMM:  26    -0.230423127398E+04   -0.22028E-03   -0.23693E-04  3377   0.690E-03    0.163E-01
RMM:  27    -0.230423159764E+04   -0.32366E-03   -0.38940E-04  3471   0.908E-03    0.199E-01
RMM:  28    -0.230423199734E+04   -0.39969E-03   -0.46903E-04  3741   0.949E-03    0.251E-01
RMM:  29    -0.230423196852E+04    0.28816E-04   -0.33642E-05  2862   0.501E-03    0.234E-01
RMM:  30    -0.230423198750E+04   -0.18983E-04   -0.90986E-06  2660   0.185E-03    0.242E-01
RMM:  31    -0.230423201650E+04   -0.29000E-04   -0.37233E-06  2587   0.195E-03    0.245E-01
RMM:  32    -0.230423188010E+04    0.13641E-03   -0.25500E-05  2515   0.222E-03    0.219E-01
RMM:  33    -0.230423172924E+04    0.15086E-03   -0.54981E-05  2773   0.309E-03    0.199E-01
RMM:  34    -0.230423161994E+04    0.10930E-03   -0.43026E-05  2786   0.265E-03    0.188E-01
RMM:  35    -0.230423153155E+04    0.88382E-04   -0.33736E-05  2791   0.268E-03    0.181E-01
RMM:  36    -0.230423137622E+04    0.15533E-03   -0.92468E-05  2902   0.435E-03    0.168E-01
RMM:  37    -0.230423114637E+04    0.22985E-03   -0.25203E-04  3302   0.672E-03    0.157E-01
RMM:  38    -0.230423098418E+04    0.16219E-03   -0.17750E-04  2956   0.627E-03    0.160E-01
RMM:  39    -0.230423086373E+04    0.12046E-03   -0.10857E-04  2954   0.531E-03    0.164E-01
RMM:  40    -0.230423078865E+04    0.75075E-04   -0.43986E-05  2825   0.432E-03    0.167E-01
RMM:  41    -0.230423068840E+04    0.10025E-03   -0.54539E-05  2888   0.415E-03    0.172E-01
RMM:  42    -0.230423052919E+04    0.15922E-03   -0.10865E-04  2956   0.515E-03    0.184E-01
RMM:  43    -0.230423042686E+04    0.10233E-03   -0.60922E-05  2853   0.449E-03    0.195E-01
RMM:  44    -0.230423044506E+04   -0.18201E-04   -0.52163E-06  2587   0.247E-03    0.194E-01
RMM:  45    -0.230423044343E+04    0.16260E-05   -0.11182E-06  2230   0.119E-03
  16 F= -.23249314E+04 E0= -.23249263E+04  d E =-.256109E-01  mag=     4.9138
       N       E                     dE             d eps       ncg     rms          rms(c)
DAV:   1    -0.230391143860E+04    0.31901E+00   -0.14271E+01  4448   0.262E+00    0.152E+00
RMM:   2    -0.230429499054E+04   -0.38355E+00   -0.34611E+00  6532   0.754E-01    0.329E+00
RMM:   3    -0.230427304231E+04    0.21948E-01   -0.37844E-01  6128   0.284E-01    0.174E+00
RMM:   4    -0.230429003039E+04   -0.16988E-01   -0.47302E-02  5007   0.742E-02    0.309E+00
RMM:   5    -0.230430003446E+04   -0.10004E-01   -0.33283E-02  5306   0.695E-02    0.308E+00
RMM:   6    -0.230426538970E+04    0.34645E-01   -0.36066E-02  4910   0.775E-02    0.946E-01
RMM:   7    -0.230425519061E+04    0.10199E-01   -0.10956E-02  4957   0.530E-02    0.970E-01
RMM:   8    -0.230423227534E+04    0.22915E-01   -0.32345E-02  4806   0.772E-02    0.178E+00
RMM:   9    -0.230423926527E+04   -0.69899E-02   -0.17765E-03  4167   0.347E-02    0.155E+00
RMM:  10    -0.230424927350E+04   -0.10008E-01   -0.16203E-02  4755   0.551E-02    0.781E-01
RMM:  11    -0.230425563114E+04   -0.63576E-02   -0.10522E-02  4806   0.468E-02    0.543E-01
RMM:  12    -0.230426147509E+04   -0.58439E-02   -0.10663E-02  5103   0.457E-02    0.911E-01
RMM:  13    -0.230426401276E+04   -0.25377E-02   -0.44561E-03  4739   0.340E-02    0.108E+00
RMM:  14    -0.230426258054E+04    0.14322E-02   -0.39862E-04  3699   0.110E-02    0.902E-01
RMM:  15    -0.230425954916E+04    0.30314E-02   -0.33590E-03  4489   0.246E-02    0.677E-01
RMM:  16    -0.230425612402E+04    0.34251E-02   -0.54270E-03  4834   0.326E-02    0.601E-01
RMM:  17    -0.230425200840E+04    0.41156E-02   -0.63635E-03  4949   0.342E-02    0.760E-01
RMM:  18    -0.230424874604E+04    0.32624E-02   -0.29319E-03  4692   0.250E-02    0.950E-01
RMM:  19    -0.230425117808E+04   -0.24320E-02   -0.70899E-04  3848   0.117E-02    0.816E-01
RMM:  20    -0.230425684023E+04   -0.56621E-02   -0.90500E-03  4811   0.392E-02    0.645E-01
RMM:  21    -0.230426050614E+04   -0.36659E-02   -0.65710E-03  4767   0.372E-02    0.772E-01
RMM:  22    -0.230426201167E+04   -0.15055E-02   -0.19086E-03  4791   0.180E-02    0.841E-01
RMM:  23    -0.230426131680E+04    0.69487E-03   -0.97039E-05  2956   0.626E-03    0.772E-01
RMM:  24    -0.230425769606E+04    0.36207E-02   -0.35320E-03  4590   0.242E-02    0.557E-01
RMM:  25    -0.230425394426E+04    0.37518E-02   -0.54396E-03  4847   0.327E-02    0.608E-01
RMM:  26    -0.230425101631E+04    0.29279E-02   -0.34990E-03  4823   0.252E-02    0.764E-01
RMM:  27    -0.230425104521E+04   -0.28900E-04   -0.21411E-04  3191   0.798E-03    0.766E-01
RMM:  28    -0.230425098420E+04    0.61013E-04   -0.21795E-05  2841   0.343E-03    0.768E-01
RMM:  29    -0.230425113559E+04   -0.15139E-03   -0.86670E-06  2709   0.238E-03    0.754E-01
RMM:  30    -0.230425163827E+04   -0.50268E-03   -0.69611E-05  2829   0.376E-03    0.720E-01
RMM:  31    -0.230425406547E+04   -0.24272E-02   -0.17033E-03  4464   0.168E-02    0.593E-01
RMM:  32    -0.230425606722E+04   -0.20018E-02   -0.19209E-03  4403   0.197E-02    0.536E-01
RMM:  33    -0.230425856390E+04   -0.24967E-02   -0.28796E-03  5086   0.230E-02    0.569E-01
RMM:  34    -0.230426094993E+04   -0.23860E-02   -0.23208E-03  4727   0.214E-02    0.670E-01
RMM:  35    -0.230426048542E+04    0.46451E-03   -0.11755E-04  2959   0.758E-03    0.613E-01
RMM:  36    -0.230425986977E+04    0.61565E-03   -0.11435E-04  2892   0.529E-03    0.592E-01
RMM:  37    -0.230425778481E+04    0.20850E-02   -0.15932E-03  4426   0.162E-02    0.509E-01
RMM:  38    -0.230425283528E+04    0.49495E-02   -0.98687E-03  4914   0.417E-02    0.645E-01
RMM:  39    -0.230424952094E+04    0.33143E-02   -0.43052E-03  4744   0.308E-02    0.865E-01
RMM:  40    -0.230424884159E+04    0.67936E-03   -0.63563E-04  4230   0.101E-02    0.912E-01
RMM:  41    -0.230424896252E+04   -0.12093E-03   -0.26164E-05  2870   0.470E-03    0.904E-01
RMM:  42    -0.230424876364E+04    0.19888E-03   -0.12351E-05  2825   0.242E-03    0.918E-01
RMM:  43    -0.230424911351E+04   -0.34987E-03   -0.17038E-05  2711   0.252E-03    0.894E-01
RMM:  44    -0.230425042481E+04   -0.13113E-02   -0.30904E-04  3464   0.739E-03    0.809E-01
RMM:  45    -0.230425374920E+04   -0.33244E-02   -0.29291E-03  4636   0.223E-02    0.617E-01
RMM:  46    -0.230425589578E+04   -0.21466E-02   -0.24203E-03  4537   0.221E-02    0.545E-01
RMM:  47    -0.230425723468E+04   -0.13389E-02   -0.12971E-03  4713   0.151E-02    0.539E-01
RMM:  48    -0.230425864989E+04   -0.14152E-02   -0.96453E-04  4348   0.140E-02    0.571E-01
RMM:  49    -0.230425905510E+04   -0.40521E-03   -0.19899E-04  3154   0.806E-03    0.574E-01
RMM:  50    -0.230425887767E+04    0.17742E-03   -0.14828E-05  2837   0.378E-03    0.563E-01
RMM:  51    -0.230425850295E+04    0.37472E-03   -0.46912E-05  2720   0.321E-03    0.551E-01
RMM:  52    -0.230425860408E+04   -0.10112E-03   -0.36909E-06  2432   0.164E-03    0.559E-01
RMM:  53    -0.230425883980E+04   -0.23572E-03   -0.19343E-05  2630   0.199E-03    0.567E-01
RMM:  54    -0.230425745080E+04    0.13890E-02   -0.65192E-04  3911   0.106E-02    0.515E-01
RMM:  55    -0.230425524654E+04    0.22043E-02   -0.21376E-03  4713   0.200E-02    0.534E-01
RMM:  56    -0.230425141345E+04    0.38331E-02   -0.54051E-03  4914   0.311E-02    0.736E-01
RMM:  57    -0.230424782746E+04    0.35860E-02   -0.35953E-03  4793   0.270E-02    0.976E-01
RMM:  58    -0.230424534886E+04    0.24786E-02   -0.14400E-03  4629   0.163E-02    0.114E+00
RMM:  59    -0.230424635016E+04   -0.10013E-02   -0.94751E-05  2961   0.656E-03    0.107E+00
RMM:  60    -0.230424728122E+04   -0.93106E-03   -0.11224E-04  2903   0.512E-03    0.102E+00
RMM:  61    -0.230424967904E+04   -0.23978E-02   -0.90384E-04  4096   0.124E-02    0.867E-01
RMM:  62    -0.230425141663E+04   -0.17376E-02   -0.80431E-04  3849   0.124E-02    0.761E-01
RMM:  63    -0.230425282322E+04   -0.14066E-02   -0.71275E-04  4142   0.116E-02    0.680E-01
RMM:  64    -0.230425461881E+04   -0.17956E-02   -0.12096E-03  4404   0.153E-02    0.605E-01
RMM:  65    -0.230425612874E+04   -0.15099E-02   -0.11499E-03  4278   0.152E-02    0.577E-01
RMM:  66    -0.230425658138E+04   -0.45264E-03   -0.26672E-04  3245   0.811E-03    0.569E-01
RMM:  67    -0.230425699884E+04   -0.41746E-03   -0.10391E-04  3053   0.573E-03    0.573E-01
RMM:  68    -0.230425683092E+04    0.16792E-03   -0.11025E-05  2808   0.394E-03    0.565E-01
RMM:  69    -0.230425667352E+04    0.15740E-03   -0.10063E-05  2479   0.187E-03    0.563E-01
RMM:  70    -0.230425565816E+04    0.10154E-02   -0.36850E-04  3399   0.776E-03    0.557E-01
RMM:  71    -0.230425554282E+04    0.11534E-03   -0.39657E-05  2719   0.391E-03    0.566E-01
RMM:  72    -0.230425295613E+04    0.25867E-02   -0.25236E-03  4652   0.204E-02    0.667E-01
RMM:  73    -0.230425305853E+04   -0.10240E-03   -0.13468E-04  2966   0.901E-03    0.672E-01
RMM:  74    -0.230425341550E+04   -0.35697E-03   -0.37454E-05  2733   0.327E-03    0.651E-01
RMM:  75    -0.230425363569E+04   -0.22019E-03   -0.24253E-05  2607   0.266E-03    0.637E-01
RMM:  76    -0.230425384025E+04   -0.20456E-03   -0.25213E-05  2543   0.256E-03    0.625E-01
RMM:  77    -0.230425339040E+04    0.44984E-03   -0.48432E-05  2657   0.324E-03    0.641E-01
RMM:  78    -0.230425341939E+04   -0.28983E-04   -0.20292E-06  2127   0.149E-03    0.640E-01
RMM:  79    -0.230425351865E+04   -0.99259E-04   -0.26840E-06  1042   0.684E-04    0.635E-01
RMM:  80    -0.230425363373E+04   -0.11509E-03   -0.50719E-06  1772   0.114E-03    0.630E-01
RMM:  81    -0.230425364941E+04   -0.15674E-04   -0.45652E-07  1101   0.709E-04    0.630E-01
RMM:  82    -0.230425460168E+04   -0.95227E-03   -0.28461E-04  3287   0.692E-03    0.600E-01
RMM:  83    -0.230425427365E+04    0.32803E-03   -0.23174E-05  2690   0.360E-03    0.599E-01
RMM:  84    -0.230425428463E+04   -0.10978E-04   -0.12409E-06  2019   0.129E-03    0.601E-01
RMM:  85    -0.230425423174E+04    0.52886E-04   -0.90996E-07  1469   0.847E-04    0.601E-01
RMM:  86    -0.230425422197E+04    0.97695E-05   -0.17319E-07   900   0.594E-04
  17 F= -.23249530E+04 E0= -.23249478E+04  d E =-.472468E-01  mag=     5.0319
       N       E                     dE             d eps       ncg     rms          rms(c)
DAV:   1    -0.230277784979E+04    0.14764E+01   -0.57142E+01  4448   0.536E+00    0.329E+00
RMM:   2    -0.230448029031E+04   -0.17024E+01   -0.14794E+01  6543   0.164E+00    0.610E+00
RMM:   3    -0.230430322662E+04    0.17706E+00   -0.16128E+00  5767   0.597E-01    0.444E+00
RMM:   4    -0.230426284324E+04    0.40383E-01   -0.21872E-01  5853   0.155E-01    0.296E+00
RMM:   5    -0.230427307797E+04   -0.10235E-01   -0.63212E-02  5223   0.109E-01    0.341E+00
RMM:   6    -0.230412827498E+04    0.14480E+00   -0.13164E-01  4950   0.164E-01    0.128E+00
RMM:   7    -0.230414625452E+04   -0.17980E-01   -0.43982E-02  4799   0.121E-01    0.710E-01
RMM:   8    -0.230418085756E+04   -0.34603E-01   -0.14723E-02  5047   0.652E-02    0.852E-01
RMM:   9    -0.230422143691E+04   -0.40579E-01   -0.11158E-02  4709   0.530E-02    0.372E-01
RMM:  10    -0.230425474476E+04   -0.33308E-01   -0.65142E-03  4555   0.429E-02    0.211E-01
RMM:  11    -0.230427782661E+04   -0.23082E-01   -0.36580E-03  4578   0.339E-02    0.166E-01
RMM:  12    -0.230430054074E+04   -0.22714E-01   -0.32883E-03  4494   0.301E-02    0.121E-01
RMM:  13    -0.230431851025E+04   -0.17970E-01   -0.34314E-03  4455   0.325E-02    0.662E-02
RMM:  14    -0.230432575860E+04   -0.72484E-02   -0.17145E-03  4381   0.257E-02    0.484E-02
RMM:  15    -0.230432831528E+04   -0.25567E-02   -0.60596E-04  4417   0.148E-02    0.359E-02
RMM:  16    -0.230432953380E+04   -0.12185E-02   -0.20391E-04  3819   0.857E-03    0.248E-02
RMM:  17    -0.230433022745E+04   -0.69364E-03   -0.12623E-04  3667   0.720E-03    0.929E-03
RMM:  18    -0.230433034681E+04   -0.11936E-03   -0.24234E-05  3004   0.494E-03    0.644E-03
RMM:  19    -0.230433041608E+04   -0.69275E-04   -0.11715E-05  2854   0.322E-03    0.315E-03
RMM:  20    -0.230433045636E+04   -0.40273E-04   -0.71369E-06  2745   0.303E-03    0.250E-03
RMM:  21    -0.230433046430E+04   -0.79439E-05   -0.35694E-06  2446   0.234E-03
  18 F= -.23250253E+04 E0= -.23250212E+04  d E =-.119557E+00  mag=     3.0007
       N       E                     dE             d eps       ncg     rms          rms(c)
DAV:   1    -0.230336912111E+04    0.96134E+00   -0.38514E+01  4424   0.457E+00    0.200E+00
RMM:   2    -0.230431238483E+04   -0.94326E+00   -0.95869E+00  6544   0.129E+00    0.322E+00
RMM:   3    -0.230440232771E+04   -0.89943E-01   -0.10536E+00  6313   0.477E-01    0.223E+00
RMM:   4    -0.230437030765E+04    0.32020E-01   -0.10398E-01  6269   0.114E-01    0.114E+00
RMM:   5    -0.230436400814E+04    0.62995E-02   -0.16959E-02  5786   0.542E-02    0.772E-01
RMM:   6    -0.230436448455E+04   -0.47641E-03   -0.10490E-02  5949   0.388E-02    0.790E-01
RMM:   7    -0.230435994999E+04    0.45346E-02   -0.61142E-03  5806   0.324E-02    0.490E-01
RMM:   8    -0.230435867126E+04    0.12787E-02   -0.21895E-03  5467   0.208E-02    0.250E-01
RMM:   9    -0.230435843010E+04    0.24116E-03   -0.61750E-04  4615   0.132E-02    0.709E-02
RMM:  10    -0.230435842615E+04    0.39431E-05   -0.10539E-04  3123   0.773E-03    0.333E-02
RMM:  11    -0.230435842464E+04    0.15147E-05   -0.30245E-05  2889   0.468E-03
  19 F= -.23250565E+04 E0= -.23250507E+04  d E =-.150732E+00  mag=     3.0001
       N       E                     dE             d eps       ncg     rms          rms(c)
DAV:   1    -0.230412646622E+04    0.23196E+00   -0.96958E+00  4448   0.223E+00    0.104E+00
RMM:   2    -0.230437150868E+04   -0.24504E+00   -0.23387E+00  6522   0.642E-01    0.173E+00
RMM:   3    -0.230436593235E+04    0.55763E-02   -0.24790E-01  6099   0.236E-01    0.798E-01
RMM:   4    -0.230436384204E+04    0.20903E-02   -0.27016E-02  5950   0.529E-02    0.621E-01
RMM:   5    -0.230436208722E+04    0.17548E-02   -0.35183E-03  5383   0.230E-02    0.378E-01
RMM:   6    -0.230436038425E+04    0.17030E-02   -0.21724E-03  5271   0.201E-02    0.171E-01
RMM:   7    -0.230436012475E+04    0.25950E-03   -0.12118E-03  4784   0.187E-02    0.599E-02
RMM:   8    -0.230436011581E+04    0.89450E-05   -0.14715E-04  3360   0.912E-03    0.381E-02
RMM:   9    -0.230436011565E+04    0.15326E-06   -0.31196E-05  2948   0.501E-03
  20 F= -.23250565E+04 E0= -.23250514E+04  d E =-.150782E+00  mag=     3.0000
       N       E                     dE             d eps       ncg     rms          rms(c)
DAV:   1    -0.230429806794E+04    0.62048E-01   -0.26806E+00  4480   0.120E+00    0.501E-01
RMM:   2    -0.230436036008E+04   -0.62292E-01   -0.62996E-01  6496   0.319E-01    0.560E-01
RMM:   3    -0.230436586393E+04   -0.55039E-02   -0.65684E-02  5986   0.123E-01    0.599E-01
RMM:   4    -0.230436305691E+04    0.28070E-02   -0.67568E-03  5129   0.289E-02    0.175E-01
RMM:   5    -0.230436266564E+04    0.39126E-03   -0.95428E-04  4859   0.140E-02    0.158E-01
RMM:   6    -0.230436286017E+04   -0.19452E-03   -0.64599E-04  3634   0.119E-02    0.267E-01
RMM:   7    -0.230436247953E+04    0.38064E-03   -0.28598E-04  3723   0.903E-03    0.587E-02
RMM:   8    -0.230436246470E+04    0.14830E-04   -0.63490E-05  3019   0.552E-03    0.334E-02
RMM:   9    -0.230436246072E+04    0.39822E-05   -0.16240E-05  2859   0.357E-03
  21 F= -.23250597E+04 E0= -.23250544E+04  d E =-.153980E+00  mag=     3.0000
       N       E                     dE             d eps       ncg     rms          rms(c)
DAV:   1    -0.230435278855E+04    0.96761E-02   -0.89306E-01  4480   0.664E-01    0.291E-01
RMM:   2    -0.230437417626E+04   -0.21388E-01   -0.21642E-01  6468   0.187E-01    0.316E-01
RMM:   3    -0.230437560993E+04   -0.14337E-02   -0.20623E-02  5412   0.691E-02    0.306E-01
RMM:   4    -0.230437491972E+04    0.69022E-03   -0.22374E-03  3549   0.165E-02    0.109E-01
RMM:   5    -0.230437498682E+04   -0.67106E-04   -0.37472E-04  3396   0.864E-03    0.193E-01
RMM:   6    -0.230437472087E+04    0.26596E-03   -0.21623E-04  3201   0.774E-03    0.494E-02
RMM:   7    -0.230437469958E+04    0.21286E-04   -0.12628E-04  3389   0.609E-03    0.253E-02
RMM:   8    -0.230437469743E+04    0.21455E-05   -0.17510E-05  2913   0.446E-03
  22 F= -.23250717E+04 E0= -.23250668E+04  d E =-.119943E-01  mag=     3.0000
       N       E                     dE             d eps       ncg     rms          rms(c)
DAV:   1    -0.230419080937E+04    0.18389E+00   -0.80272E+00  4448   0.201E+00    0.891E-01
RMM:   2    -0.230438939962E+04   -0.19859E+00   -0.20042E+00  6518   0.588E-01    0.983E-01
RMM:   3    -0.230439844374E+04   -0.90441E-02   -0.20102E-01  6081   0.211E-01    0.739E-01
RMM:   4    -0.230439403310E+04    0.44106E-02   -0.20780E-02  5887   0.485E-02    0.325E-01
RMM:   5    -0.230439317697E+04    0.85613E-03   -0.26545E-03  5188   0.211E-02    0.340E-01
RMM:   6    -0.230439281019E+04    0.36678E-03   -0.18544E-03  5340   0.177E-02    0.304E-01
RMM:   7    -0.230439207041E+04    0.73978E-03   -0.10408E-03  4947   0.149E-02    0.691E-02
RMM:   8    -0.230439204975E+04    0.20658E-04   -0.18434E-04  3351   0.829E-03    0.395E-02
RMM:   9    -0.230439203983E+04    0.99193E-05   -0.31757E-05  2855   0.505E-03
  23 F= -.23250884E+04 E0= -.23250850E+04  d E =-.286476E-01  mag=     3.0000
       N       E                     dE             d eps       ncg     rms          rms(c)
DAV:   1    -0.230439946569E+04   -0.74159E-02   -0.18831E-01  4608   0.402E-01    0.189E-01
RMM:   2    -0.230440400219E+04   -0.45365E-02   -0.39393E-02  6297   0.995E-02    0.334E-01
RMM:   3    -0.230440326819E+04    0.73400E-03   -0.39215E-03  5061   0.379E-02    0.127E-01
RMM:   4    -0.230440318721E+04    0.80984E-04   -0.51352E-04  3556   0.107E-02    0.873E-02
RMM:   5    -0.230440314171E+04    0.45493E-04   -0.11513E-04  2988   0.714E-03    0.565E-02
RMM:   6    -0.230440310891E+04    0.32804E-04   -0.81029E-05  3371   0.631E-03    0.413E-02
RMM:   7    -0.230440309854E+04    0.10371E-04   -0.32070E-05  2896   0.572E-03    0.162E-02
RMM:   8    -0.230440309711E+04    0.14338E-05   -0.90373E-06  2834   0.331E-03
  24 F= -.23250997E+04 E0= -.23250964E+04  d E =-.113592E-01  mag=     3.0000
       N       E                     dE             d eps       ncg     rms          rms(c)
DAV:   1    -0.230439338626E+04    0.97123E-02   -0.16915E+00  4432   0.121E+00    0.574E-01
RMM:   2    -0.230443470159E+04   -0.41315E-01   -0.36066E-01  6255   0.304E-01    0.944E-01
RMM:   3    -0.230442798363E+04    0.67180E-02   -0.36809E-02  6047   0.110E-01    0.374E-01
RMM:   4    -0.230442693824E+04    0.10454E-02   -0.46084E-03  5231   0.298E-02    0.187E-01
RMM:   5    -0.230442692596E+04    0.12272E-04   -0.96139E-04  4852   0.181E-02    0.208E-01
RMM:   6    -0.230442660014E+04    0.32582E-03   -0.70006E-04  5007   0.146E-02    0.148E-01
RMM:   7    -0.230442643566E+04    0.16448E-03   -0.30257E-04  4335   0.122E-02    0.439E-02
RMM:   8    -0.230442642218E+04    0.13480E-04   -0.61914E-05  3014   0.581E-03    0.194E-02
RMM:   9    -0.230442642213E+04    0.47265E-07   -0.12398E-05  2858   0.425E-03
  25 F= -.23251240E+04 E0= -.23251209E+04  d E =-.355991E-01  mag=     3.0000
       N       E                     dE             d eps       ncg     rms          rms(c)
DAV:   1    -0.230429778015E+04    0.12864E+00   -0.67818E+00  4448   0.242E+00    0.117E+00
RMM:   2    -0.230446843821E+04   -0.17066E+00   -0.14802E+00  6283   0.624E-01    0.191E+00
RMM:   3    -0.230443441884E+04    0.34019E-01   -0.13904E-01  6101   0.219E-01    0.720E-01
RMM:   4    -0.230442987257E+04    0.45463E-02   -0.18373E-02  5525   0.606E-02    0.289E-01
RMM:   5    -0.230442890378E+04    0.96879E-03   -0.28269E-03  5293   0.331E-02    0.210E-01
RMM:   6    -0.230442871190E+04    0.19189E-03   -0.19509E-03  5304   0.262E-02    0.192E-01
RMM:   7    -0.230442851648E+04    0.19541E-03   -0.69509E-04  4678   0.193E-02    0.138E-01
RMM:   8    -0.230442836399E+04    0.15250E-03   -0.19539E-04  3839   0.784E-03    0.457E-02
RMM:   9    -0.230442836296E+04    0.10311E-05   -0.40485E-05  2901   0.579E-03
  26 F= -.23251278E+04 E0= -.23251253E+04  d E =-.394077E-01  mag=     3.0000
       N       E                     dE             d eps       ncg     rms          rms(c)
DAV:   1    -0.230441036702E+04    0.17997E-01   -0.13099E+00  4480   0.106E+00    0.491E-01
RMM:   2    -0.230443984962E+04   -0.29483E-01   -0.26413E-01  6256   0.260E-01    0.824E-01
RMM:   3    -0.230443628111E+04    0.35685E-02   -0.25963E-02  5965   0.958E-02    0.336E-01
RMM:   4    -0.230443560724E+04    0.67387E-03   -0.35195E-03  5293   0.271E-02    0.221E-01
RMM:   5    -0.230443528837E+04    0.31887E-03   -0.75293E-04  4558   0.159E-02    0.147E-01
RMM:   6    -0.230443502643E+04    0.26194E-03   -0.55531E-04  4724   0.137E-02    0.687E-02
RMM:   7    -0.230443498492E+04    0.41506E-04   -0.15960E-04  3662   0.114E-02    0.297E-02
RMM:   8    -0.230443497966E+04    0.52624E-05   -0.29049E-05  2897   0.452E-03
  27 F= -.23251336E+04 E0= -.23251308E+04  d E =-.451994E-01  mag=     3.0000
       N       E                     dE             d eps       ncg     rms          rms(c)
DAV:   1    -0.230443264347E+04    0.23415E-02   -0.74461E-01  4480   0.719E-01    0.366E-01
RMM:   2    -0.230445247477E+04   -0.19831E-01   -0.17756E-01  6427   0.195E-01    0.605E-01
RMM:   3    -0.230444972769E+04    0.27471E-02   -0.18355E-02  5904   0.728E-02    0.233E-01
RMM:   4    -0.230444928221E+04    0.44548E-03   -0.21868E-03  4622   0.185E-02    0.108E-01
RMM:   5    -0.230444918480E+04    0.97405E-04   -0.35491E-04  4083   0.104E-02    0.954E-02
RMM:   6    -0.230444923377E+04   -0.48965E-04   -0.36193E-04  3915   0.103E-02    0.133E-01
RMM:   7    -0.230444908039E+04    0.15338E-03   -0.14542E-04  3237   0.804E-03    0.270E-02
RMM:   8    -0.230444907693E+04    0.34540E-05   -0.27199E-05  2892   0.492E-03
  28 F= -.23251482E+04 E0= -.23251459E+04  d E =-.146133E-01  mag=     3.0000
       N       E                     dE             d eps       ncg     rms          rms(c)
DAV:   1    -0.230431581060E+04    0.13327E+00   -0.66878E+00  4448   0.216E+00    0.113E+00
RMM:   2    -0.230449853542E+04   -0.18272E+00   -0.16626E+00  6426   0.603E-01    0.175E+00
RMM:   3    -0.230447174344E+04    0.26792E-01   -0.16228E-01  6162   0.214E-01    0.711E-01
RMM:   4    -0.230446747592E+04    0.42675E-02   -0.19971E-02  5874   0.557E-02    0.353E-01
RMM:   5    -0.230446737768E+04    0.98243E-04   -0.40317E-03  5577   0.295E-02    0.416E-01
RMM:   6    -0.230446568082E+04    0.16969E-02   -0.31419E-03  5689   0.257E-02    0.178E-01
RMM:   7    -0.230446541551E+04    0.26531E-03   -0.97098E-04  5039   0.189E-02    0.737E-02
RMM:   8    -0.230446538602E+04    0.29489E-04   -0.15781E-04  3436   0.870E-03    0.293E-02
RMM:   9    -0.230446539325E+04   -0.72285E-05   -0.37357E-05  2916   0.544E-03
  29 F= -.23251661E+04 E0= -.23251651E+04  d E =-.325189E-01  mag=     3.0000
       N       E                     dE             d eps       ncg     rms          rms(c)
DAV:   1    -0.230445959642E+04    0.57896E-02   -0.10444E+00  4448   0.823E-01    0.432E-01
RMM:   2    -0.230447898481E+04   -0.19388E-01   -0.19656E-01  6395   0.204E-01    0.371E-01
RMM:   3    -0.230448027483E+04   -0.12900E-02   -0.23908E-02  6006   0.809E-02    0.383E-01
RMM:   4    -0.230447892197E+04    0.13529E-02   -0.27053E-03  5094   0.221E-02    0.147E-01
RMM:   5    -0.230447902090E+04   -0.98927E-04   -0.10816E-03  4692   0.151E-02    0.191E-01
RMM:   6    -0.230447867362E+04    0.34729E-03   -0.71574E-04  4551   0.127E-02    0.720E-02
RMM:   7    -0.230447863801E+04    0.35607E-04   -0.80231E-05  2962   0.612E-03    0.231E-02
RMM:   8    -0.230447863764E+04    0.37030E-06   -0.23939E-05  2907   0.377E-03
  30 F= -.23251796E+04 E0= -.23251792E+04  d E =-.134707E-01  mag=     3.0000
       N       E                     dE             d eps       ncg     rms          rms(c)
DAV:   1    -0.230440962077E+04    0.69017E-01   -0.46049E+00  4448   0.173E+00    0.850E-01
RMM:   2    -0.230449552449E+04   -0.85904E-01   -0.88049E-01  6384   0.434E-01    0.759E-01
RMM:   3    -0.230449906671E+04   -0.35422E-02   -0.10305E-01  6180   0.167E-01    0.675E-01
RMM:   4    -0.230449481337E+04    0.42533E-02   -0.11215E-02  5898   0.434E-02    0.276E-01
RMM:   5    -0.230449497308E+04   -0.15972E-03   -0.31170E-03  5523   0.252E-02    0.338E-01
RMM:   6    -0.230449367276E+04    0.13003E-02   -0.21998E-03  5658   0.220E-02    0.105E-01
RMM:   7    -0.230449360619E+04    0.66570E-04   -0.31440E-04  3745   0.102E-02    0.416E-02
RMM:   8    -0.230449359476E+04    0.11432E-04   -0.57150E-05  2960   0.575E-03    0.201E-02
RMM:   9    -0.230449359603E+04   -0.12725E-05   -0.16860E-05  2872   0.421E-03
  31 F= -.23251950E+04 E0= -.23251950E+04  d E =-.289133E-01  mag=     3.0000
       N       E                     dE             d eps       ncg     rms          rms(c)
DAV:   1    -0.230447771849E+04    0.15876E-01   -0.16957E+00  4464   0.115E+00    0.507E-01
RMM:   2    -0.230450986786E+04   -0.32149E-01   -0.32272E-01  6297   0.279E-01    0.505E-01
RMM:   3    -0.230451092560E+04   -0.10577E-02   -0.38045E-02  6053   0.110E-01    0.380E-01
RMM:   4    -0.230450935628E+04    0.15693E-02   -0.37730E-03  5587   0.279E-02    0.141E-01
RMM:   5    -0.230450927797E+04    0.78307E-04   -0.10396E-03  5009   0.168E-02    0.146E-01
RMM:   6    -0.230450907858E+04    0.19938E-03   -0.54454E-04  4445   0.122E-02    0.713E-02
RMM:   7    -0.230450903367E+04    0.44910E-04   -0.10300E-04  3195   0.773E-03    0.242E-02
RMM:   8    -0.230450903087E+04    0.28070E-05   -0.21934E-05  2907   0.500E-03
  32 F= -.23252105E+04 E0= -.23252105E+04  d E =-.154955E-01  mag=     3.0000
       N       E                     dE             d eps       ncg     rms          rms(c)
DAV:   1    -0.230448293759E+04    0.26096E-01   -0.16897E+00  4448   0.115E+00    0.493E-01
RMM:   2    -0.230451523868E+04   -0.32301E-01   -0.32420E-01  6312   0.281E-01    0.515E-01
RMM:   3    -0.230451602846E+04   -0.78978E-03   -0.37628E-02  6044   0.111E-01    0.358E-01
RMM:   4    -0.230451464020E+04    0.13883E-02   -0.37236E-03  5549   0.272E-02    0.132E-01
RMM:   5    -0.230451451728E+04    0.12291E-03   -0.88807E-04  4989   0.164E-02    0.128E-01
RMM:   6    -0.230451437993E+04    0.13735E-03   -0.46454E-04  4312   0.116E-02    0.726E-02
RMM:   7    -0.230451433087E+04    0.49059E-04   -0.10208E-04  3244   0.780E-03    0.234E-02
RMM:   8    -0.230451432765E+04    0.32285E-05   -0.22493E-05  2900   0.511E-03
  33 F= -.23252159E+04 E0= -.23252159E+04  d E =-.208515E-01  mag=     3.0000
       N       E                     dE             d eps       ncg     rms          rms(c)
DAV:   1    -0.230447243946E+04    0.41891E-01   -0.21218E+00  4448   0.126E+00    0.601E-01
RMM:   2    -0.230453510374E+04   -0.62664E-01   -0.56329E-01  6454   0.354E-01    0.102E+00
RMM:   3    -0.230452669317E+04    0.84106E-02   -0.57812E-02  6139   0.129E-01    0.283E-01
RMM:   4    -0.230452614910E+04    0.54408E-03   -0.62194E-03  5237   0.284E-02    0.145E-01
RMM:   5    -0.230452586864E+04    0.28046E-03   -0.57028E-04  4791   0.139E-02    0.106E-01
RMM:   6    -0.230452582816E+04    0.40481E-04   -0.58051E-04  4615   0.139E-02    0.875E-02
RMM:   7    -0.230452575821E+04    0.69950E-04   -0.18948E-04  3135   0.917E-03    0.365E-02
RMM:   8    -0.230452574375E+04    0.14461E-04   -0.26099E-05  2879   0.458E-03    0.138E-02
RMM:   9    -0.230452574332E+04    0.43273E-06   -0.10168E-05  2858   0.284E-03
  34 F= -.23252271E+04 E0= -.23252271E+04  d E =-.112481E-01  mag=     3.0000
       N       E                     dE             d eps       ncg     rms          rms(c)
DAV:   1    -0.230450966678E+04    0.16077E-01   -0.72553E-01  4528   0.739E-01    0.351E-01
RMM:   2    -0.230453104854E+04   -0.21382E-01   -0.19176E-01  6445   0.206E-01    0.603E-01
RMM:   3    -0.230452816308E+04    0.28855E-02   -0.19698E-02  5920   0.748E-02    0.164E-01
RMM:   4    -0.230452799047E+04    0.17261E-03   -0.21128E-03  4337   0.166E-02    0.839E-02
RMM:   5    -0.230452790574E+04    0.84732E-04   -0.18775E-04  3620   0.866E-03    0.680E-02
RMM:   6    -0.230452791080E+04   -0.50627E-05   -0.25243E-04  3596   0.960E-03    0.729E-02
RMM:   7    -0.230452785631E+04    0.54493E-04   -0.76991E-05  2903   0.670E-03    0.136E-02
RMM:   8    -0.230452785456E+04    0.17525E-05   -0.12502E-05  2863   0.365E-03
  35 F= -.23252291E+04 E0= -.23252291E+04  d E =-.132560E-01  mag=     3.0000
       N       E                     dE             d eps       ncg     rms          rms(c)
DAV:   1    -0.230451797244E+04    0.98839E-02   -0.74768E-01  4480   0.844E-01    0.362E-01
RMM:   2    -0.230453710277E+04   -0.19130E-01   -0.17400E-01  6369   0.219E-01    0.573E-01
RMM:   3    -0.230453466379E+04    0.24390E-02   -0.16241E-02  5939   0.753E-02    0.187E-01
RMM:   4    -0.230453434334E+04    0.32045E-03   -0.17798E-03  4631   0.180E-02    0.787E-02
RMM:   5    -0.230453425048E+04    0.92857E-04   -0.24699E-04  4612   0.123E-02    0.622E-02
RMM:   6    -0.230453425613E+04   -0.56518E-05   -0.18650E-04  3949   0.925E-03    0.641E-02
RMM:   7    -0.230453420958E+04    0.46545E-04   -0.51981E-05  2910   0.655E-03    0.102E-02
RMM:   8    -0.230453420781E+04    0.17729E-05   -0.91303E-06  2864   0.345E-03
  36 F= -.23252351E+04 E0= -.23252351E+04  d E =-.595075E-02  mag=     3.0000
       N       E                     dE             d eps       ncg     rms          rms(c)
DAV:   1    -0.230452730439E+04    0.69052E-02   -0.38844E-01  4528   0.609E-01    0.262E-01
RMM:   2    -0.230453732704E+04   -0.10023E-01   -0.90645E-02  6354   0.159E-01    0.422E-01
RMM:   3    -0.230453598448E+04    0.13426E-02   -0.84595E-03  5653   0.542E-02    0.136E-01
RMM:   4    -0.230453582114E+04    0.16334E-03   -0.93582E-04  4284   0.131E-02    0.580E-02
RMM:   5    -0.230453577552E+04    0.45620E-04   -0.13145E-04  4004   0.915E-03    0.506E-02
RMM:   6    -0.230453577080E+04    0.47226E-05   -0.10270E-04  3132   0.747E-03    0.480E-02
RMM:   7    -0.230453574602E+04    0.24779E-04   -0.33480E-05  2877   0.601E-03    0.763E-03
RMM:   8    -0.230453574514E+04    0.88158E-06   -0.70899E-06  2830   0.330E-03
  37 F= -.23252363E+04 E0= -.23252363E+04  d E =-.719630E-02  mag=     3.0000
       N       E                     dE             d eps       ncg     rms          rms(c)
DAV:   1    -0.230453100546E+04    0.47406E-02   -0.42085E-01  4480   0.610E-01    0.243E-01
RMM:   2    -0.230454114184E+04   -0.10136E-01   -0.96554E-02  6478   0.155E-01    0.356E-01
RMM:   3    -0.230454060359E+04    0.53824E-03   -0.94323E-03  5585   0.540E-02    0.144E-01
RMM:   4    -0.230454040129E+04    0.20230E-03   -0.98040E-04  3826   0.126E-02    0.568E-02
RMM:   5    -0.230454037349E+04    0.27801E-04   -0.11548E-04  3355   0.755E-03    0.585E-02
RMM:   6    -0.230454034333E+04    0.30158E-04   -0.10388E-04  3021   0.736E-03    0.369E-02
RMM:   7    -0.230454033165E+04    0.11683E-04   -0.41226E-05  2936   0.588E-03    0.793E-03
RMM:   8    -0.230454033137E+04    0.28157E-06   -0.70883E-06  2827   0.394E-03
  38 F= -.23252405E+04 E0= -.23252405E+04  d E =-.418817E-02  mag=     3.0000
       N       E                     dE             d eps       ncg     rms          rms(c)
DAV:   1    -0.230450120466E+04    0.39127E-01   -0.19673E+00  4448   0.132E+00    0.526E-01
RMM:   2    -0.230454838974E+04   -0.47185E-01   -0.44908E-01  6461   0.333E-01    0.782E-01
RMM:   3    -0.230454608811E+04    0.23016E-02   -0.44129E-02  6115   0.116E-01    0.324E-01
RMM:   4    -0.230454507120E+04    0.10169E-02   -0.45238E-03  5119   0.267E-02    0.122E-01
RMM:   5    -0.230454492709E+04    0.14411E-03   -0.55632E-04  5069   0.151E-02    0.122E-01
RMM:   6    -0.230454481910E+04    0.10799E-03   -0.46679E-04  4605   0.120E-02    0.850E-02
RMM:   7    -0.230454475361E+04    0.65497E-04   -0.14881E-04  3577   0.861E-03    0.173E-02
RMM:   8    -0.230454475043E+04    0.31746E-05   -0.19687E-05  2891   0.483E-03
  39 F= -.23252441E+04 E0= -.23252441E+04  d E =-.774067E-02  mag=     3.0000
       N       E                     dE             d eps       ncg     rms          rms(c)
DAV:   1    -0.230453769864E+04    0.70550E-02   -0.52055E-01  4480   0.661E-01    0.251E-01
RMM:   2    -0.230454826810E+04   -0.10569E-01   -0.11083E-01  6416   0.158E-01    0.199E-01
RMM:   3    -0.230454923484E+04   -0.96674E-03   -0.12583E-02  5645   0.595E-02    0.178E-01
RMM:   4    -0.230454891167E+04    0.32317E-03   -0.12376E-03  3986   0.146E-02    0.754E-02
RMM:   5    -0.230454888176E+04    0.29908E-04   -0.20312E-04  3295   0.897E-03    0.717E-02
RMM:   6    -0.230454883802E+04    0.43738E-04   -0.11570E-04  3029   0.741E-03    0.407E-02
RMM:   7    -0.230454882311E+04    0.14912E-04   -0.45196E-05  2945   0.625E-03    0.112E-02
RMM:   8    -0.230454882286E+04    0.24556E-06   -0.88969E-06  2845   0.454E-03
  40 F= -.23252478E+04 E0= -.23252478E+04  d E =-.369981E-02  mag=     3.0000
[...]
RMM:   2    -0.230460175186E+04   -0.43986E-03   -0.45864E-03  6341   0.445E-02    0.506E-02
RMM:   3    -0.230460177797E+04   -0.26108E-04   -0.48992E-04  3298   0.156E-02    0.410E-02
RMM:   4    -0.230460175820E+04    0.19765E-04   -0.44374E-05  2879   0.531E-03    0.168E-02
RMM:   5    -0.230460175461E+04    0.35910E-05   -0.15271E-05  2849   0.358E-03
  76 F= -.23252954E+04 E0= -.23252954E+04  d E =-.219652E-03  mag=     3.0000
       N       E                     dE             d eps       ncg     rms          rms(c)
DAV:   1    -0.230460109960E+04    0.65860E-03   -0.64554E-02  4480   0.276E-01    0.783E-02
RMM:   2    -0.230460191557E+04   -0.81597E-03   -0.86422E-03  6318   0.577E-02    0.514E-02
RMM:   3    -0.230460198653E+04   -0.70958E-04   -0.89284E-04  3585   0.208E-02    0.497E-02
RMM:   4    -0.230460196555E+04    0.20985E-04   -0.80931E-05  2945   0.614E-03    0.254E-02
RMM:   5    -0.230460195898E+04    0.65683E-05   -0.19457E-05  2842   0.407E-03
  77 F= -.23252956E+04 E0= -.23252956E+04  d E =-.224943E-03  mag=     3.0000
       N       E                     dE             d eps       ncg     rms          rms(c)
DAV:   1    -0.230460163563E+04    0.32992E-03   -0.24775E-02  4608   0.171E-01    0.530E-02
RMM:   2    -0.230460198611E+04   -0.35049E-03   -0.34007E-03  6288   0.366E-02    0.660E-02
RMM:   3    -0.230460197079E+04    0.15326E-04   -0.38739E-04  3104   0.135E-02    0.302E-02
RMM:   4    -0.230460196183E+04    0.89603E-05   -0.33168E-05  2894   0.447E-03
  78 F= -.23252956E+04 E0= -.23252956E+04  d E =-.240637E-03  mag=     3.0000
       N       E                     dE             d eps       ncg     rms          rms(c)
DAV:   1    -0.230460120684E+04    0.76395E-03   -0.62800E-02  4480   0.272E-01    0.826E-02
RMM:   2    -0.230460206284E+04   -0.85599E-03   -0.88832E-03  6253   0.569E-02    0.669E-02
RMM:   3    -0.230460211256E+04   -0.49726E-04   -0.93742E-04  3634   0.208E-02    0.560E-02
RMM:   4    -0.230460208076E+04    0.31806E-04   -0.84649E-05  2912   0.628E-03    0.205E-02
RMM:   5    -0.230460207393E+04    0.68224E-05   -0.23163E-05  2891   0.432E-03
  79 F= -.23252957E+04 E0= -.23252957E+04  d E =-.151436E-03  mag=     3.0000
       N       E                     dE             d eps       ncg     rms          rms(c)
DAV:   1    -0.230460201226E+04    0.68499E-04   -0.32170E-03  5216   0.621E-02    0.194E-02
RMM:   2    -0.230460205641E+04   -0.44152E-04   -0.47715E-04  4991   0.147E-02    0.108E-02
RMM:   3    -0.230460206107E+04   -0.46606E-05   -0.53487E-05  2833   0.624E-03
  80 F= -.23252957E+04 E0= -.23252957E+04  d E =-.147707E-03  mag=     3.0000
       N       E                     dE             d eps       ncg     rms          rms(c)
DAV:   1    -0.230460205851E+04   -0.20975E-05   -0.76197E-04  4432   0.300E-02    0.105E-02
RMM:   2    -0.230460206878E+04   -0.10272E-04   -0.10497E-04  3296   0.689E-03    0.966E-03
RMM:   3    -0.230460206907E+04   -0.28932E-06   -0.12007E-05  2403   0.401E-03
  81 F= -.23252957E+04 E0= -.23252957E+04  d E =-.151416E-03  mag=     3.0000
       N       E                     dE             d eps       ncg     rms          rms(c)
DAV:   1    -0.230460180671E+04    0.26207E-03   -0.28517E-02  4480   0.186E-01    0.578E-02
RMM:   2    -0.230460213068E+04   -0.32397E-03   -0.35164E-03  6031   0.379E-02    0.294E-02
RMM:   3    -0.230460215852E+04   -0.27849E-04   -0.36629E-04  3279   0.156E-02    0.320E-02
RMM:   4    -0.230460215064E+04    0.78844E-05   -0.35524E-05  2890   0.448E-03
  82 F= -.23252958E+04 E0= -.23252958E+04  d E =-.888559E-04  mag=     3.0000
       N       E                     dE             d eps       ncg     rms          rms(c)
DAV:   1    -0.230460214644E+04    0.12085E-04   -0.35940E-05  4192   0.719E-03    0.885E-03
RMM:   2    -0.230460215030E+04   -0.38590E-05   -0.12163E-05  2580   0.359E-03
  83 F= -.23252958E+04 E0= -.23252958E+04  d E =-.887724E-04  mag=     3.0000
       N       E                     dE             d eps       ncg     rms          rms(c)
DAV:   1    -0.230460197073E+04    0.17571E-03   -0.19829E-02  4480   0.153E-01    0.466E-02
RMM:   2    -0.230460218544E+04   -0.21472E-03   -0.23108E-03  6088   0.313E-02    0.248E-02
RMM:   3    -0.230460220461E+04   -0.19170E-04   -0.22507E-04  2979   0.120E-02    0.306E-02
RMM:   4    -0.230460219639E+04    0.82246E-05   -0.24614E-05  2873   0.387E-03
  84 F= -.23252959E+04 E0= -.23252959E+04  d E =-.652559E-04  mag=     3.0000
       N       E                     dE             d eps       ncg     rms          rms(c)
DAV:   1    -0.230460217292E+04    0.31692E-04   -0.15098E-03  5136   0.422E-02    0.163E-02
RMM:   2    -0.230460219580E+04   -0.22880E-04   -0.18831E-04  3690   0.907E-03    0.255E-02
RMM:   3    -0.230460218969E+04    0.61121E-05   -0.22820E-05  2775   0.501E-03
  85 F= -.23252959E+04 E0= -.23252959E+04  d E =-.639691E-04  mag=     3.0000
       N       E                     dE             d eps       ncg     rms          rms(c)
DAV:   1    -0.230460195970E+04    0.23611E-03   -0.20666E-02  4480   0.153E-01    0.431E-02
RMM:   2    -0.230460217892E+04   -0.21922E-03   -0.23458E-03  6172   0.321E-02    0.251E-02
RMM:   3    -0.230460219771E+04   -0.18791E-04   -0.23614E-04  2969   0.118E-02    0.310E-02
RMM:   4    -0.230460218935E+04    0.83580E-05   -0.25339E-05  2885   0.382E-03
  86 F= -.23252960E+04 E0= -.23252960E+04  d E =-.638241E-04  mag=     3.0000
       N       E                     dE             d eps       ncg     rms          rms(c)
DAV:   1    -0.230460217261E+04    0.25096E-04   -0.43865E-04  5064   0.226E-02    0.128E-02
RMM:   2    -0.230460218439E+04   -0.11773E-04   -0.67137E-05  3144   0.543E-03    0.266E-02
RMM:   3    -0.230460217618E+04    0.82107E-05   -0.11658E-05  2554   0.351E-03
  87 F= -.23252960E+04 E0= -.23252960E+04  d E =-.603354E-04  mag=     3.0000
       N       E                     dE             d eps       ncg     rms          rms(c)
DAV:   1    -0.230460195579E+04    0.22860E-03   -0.21392E-02  4464   0.155E-01    0.447E-02
RMM:   2    -0.230460217876E+04   -0.22298E-03   -0.23781E-03  6085   0.321E-02    0.252E-02
RMM:   3    -0.230460219588E+04   -0.17122E-04   -0.23102E-04  3046   0.124E-02    0.293E-02
RMM:   4    -0.230460218832E+04    0.75638E-05   -0.24516E-05  2886   0.383E-03
  88 F= -.23252960E+04 E0= -.23252960E+04  d E =-.527327E-04  mag=     3.0000
       N       E                     dE             d eps       ncg     rms          rms(c)
DAV:   1    -0.230460216866E+04    0.27228E-04   -0.89679E-04  5056   0.320E-02    0.152E-02
RMM:   2    -0.230460218897E+04   -0.20312E-04   -0.11832E-04  3400   0.717E-03    0.326E-02
RMM:   3    -0.230460217698E+04    0.11985E-04   -0.18484E-05  2671   0.441E-03    0.679E-03
RMM:   4    -0.230460217685E+04    0.13494E-06   -0.30707E-06  2404   0.143E-03
  89 F= -.23252960E+04 E0= -.23252960E+04  d E =-.497523E-04  mag=     3.0000
       N       E                     dE             d eps       ncg     rms          rms(c)
DAV:   1    -0.230460202493E+04    0.15206E-03   -0.17043E-02  4464   0.138E-01    0.393E-02
RMM:   2    -0.230460220397E+04   -0.17905E-03   -0.18955E-03  6123   0.285E-02    0.273E-02
RMM:   3    -0.230460221753E+04   -0.13554E-04   -0.18807E-04  2952   0.104E-02    0.295E-02
RMM:   4    -0.230460220891E+04    0.86230E-05   -0.19767E-05  2853   0.360E-03
  90 F= -.23252961E+04 E0= -.23252961E+04  d E =-.507770E-04  mag=     3.0000
       N       E                     dE             d eps       ncg     rms          rms(c)
DAV:   1    -0.230460218436E+04    0.33171E-04   -0.17772E-03  4672   0.448E-02    0.169E-02
RMM:   2    -0.230460221177E+04   -0.27412E-04   -0.20985E-04  3866   0.946E-03    0.305E-02
RMM:   3    -0.230460220255E+04    0.92213E-05   -0.25798E-05  2846   0.515E-03
  91 F= -.23252961E+04 E0= -.23252961E+04  d E =-.505341E-04  mag=     3.0000
       N       E                     dE             d eps       ncg     rms          rms(c)
DAV:   1    -0.230460204398E+04    0.16779E-03   -0.17687E-02  4472   0.142E-01    0.400E-02
RMM:   2    -0.230460222910E+04   -0.18512E-03   -0.19934E-03  6118   0.289E-02    0.207E-02
RMM:   3    -0.230460224394E+04   -0.14839E-04   -0.19430E-04  2955   0.105E-02    0.230E-02
RMM:   4    -0.230460224036E+04    0.35742E-05   -0.21129E-05  2891   0.335E-03
  92 F= -.23252961E+04 E0= -.23252961E+04  d E =-.572444E-04  mag=     3.0000
       N       E                     dE             d eps       ncg     rms          rms(c)
DAV:   1    -0.230460218567E+04    0.58269E-04   -0.42425E-03  4528   0.695E-02    0.202E-02
RMM:   2    -0.230460223099E+04   -0.45317E-04   -0.47824E-04  5258   0.141E-02    0.172E-02
RMM:   3    -0.230460223478E+04   -0.37963E-05   -0.55677E-05  2863   0.642E-03
  93 F= -.23252961E+04 E0= -.23252961E+04  d E =-.612420E-04  mag=     3.0000
       N       E                     dE             d eps       ncg     rms          rms(c)
DAV:   1    -0.230460202394E+04    0.20705E-03   -0.19882E-02  4464   0.152E-01    0.433E-02
RMM:   2    -0.230460225017E+04   -0.22623E-03   -0.23666E-03  6187   0.316E-02    0.326E-02
RMM:   3    -0.230460226680E+04   -0.16632E-04   -0.23962E-04  3011   0.113E-02    0.321E-02
RMM:   4    -0.230460225643E+04    0.10373E-04   -0.24499E-05  2891   0.393E-03    0.126E-02
RMM:   5    -0.230460225462E+04    0.18126E-05   -0.72081E-06  2801   0.249E-03
  94 F= -.23252962E+04 E0= -.23252962E+04  d E =-.484149E-04  mag=     3.0000
       N       E                     dE             d eps       ncg     rms          rms(c)
DAV:   1    -0.230460221820E+04    0.38226E-04   -0.21623E-03  4736   0.503E-02    0.167E-02
RMM:   2    -0.230460224695E+04   -0.28743E-04   -0.26738E-04  4124   0.111E-02    0.216E-02
RMM:   3    -0.230460224378E+04    0.31641E-05   -0.31101E-05  2840   0.566E-03
  95 F= -.23252962E+04 E0= -.23252962E+04  d E =-.471446E-04  mag=     3.0000
       N       E                     dE             d eps       ncg     rms          rms(c)
DAV:   1    -0.230460209695E+04    0.15000E-03   -0.15627E-02  4464   0.135E-01    0.388E-02
RMM:   2    -0.230460228044E+04   -0.18349E-03   -0.18792E-03  6154   0.281E-02    0.354E-02
RMM:   3    -0.230460228777E+04   -0.73217E-05   -0.18540E-04  2982   0.102E-02    0.291E-02
RMM:   4    -0.230460227884E+04    0.89263E-05   -0.19860E-05  2884   0.356E-03
  96 F= -.23252962E+04 E0= -.23252962E+04  d E =-.397899E-04  mag=     3.0000
       N       E                     dE             d eps       ncg     rms          rms(c)
DAV:   1    -0.230460225635E+04    0.31412E-04   -0.18455E-03  4752   0.465E-02    0.164E-02
RMM:   2    -0.230460228188E+04   -0.25528E-04   -0.22530E-04  3945   0.973E-03    0.251E-02
RMM:   3    -0.230460227695E+04    0.49336E-05   -0.29072E-05  2832   0.533E-03
  97 F= -.23252962E+04 E0= -.23252962E+04  d E =-.395502E-04  mag=     3.0000
       N       E                     dE             d eps       ncg     rms          rms(c)
DAV:   1    -0.230460224932E+04    0.32566E-04   -0.76527E-03  4464   0.954E-02    0.294E-02
RMM:   2    -0.230460232848E+04   -0.79168E-04   -0.84657E-04  5934   0.197E-02    0.200E-02
RMM:   3    -0.230460233504E+04   -0.65572E-05   -0.85733E-05  2892   0.771E-03
  98 F= -.23252963E+04 E0= -.23252963E+04  d E =-.525370E-04  mag=     3.0000
       N       E                     dE             d eps       ncg     rms          rms(c)
DAV:   1    -0.230460231246E+04    0.16027E-04   -0.23419E-03  4632   0.531E-02    0.185E-02
RMM:   2    -0.230460233582E+04   -0.23366E-04   -0.26900E-04  4260   0.112E-02    0.108E-02
RMM:   3    -0.230460233792E+04   -0.21007E-05   -0.30947E-05  2846   0.553E-03
  99 F= -.23252963E+04 E0= -.23252963E+04  d E =-.523154E-04  mag=     3.0000
       N       E                     dE             d eps       ncg     rms          rms(c)
DAV:   1    -0.230460230312E+04    0.32700E-04   -0.67273E-03  4480   0.886E-02    0.271E-02
RMM:   2    -0.230460237679E+04   -0.73665E-04   -0.74053E-04  5827   0.180E-02    0.285E-02
RMM:   3    -0.230460237676E+04    0.29861E-07   -0.77568E-05  2892   0.712E-03
 100 F= -.23252963E+04 E0= -.23252963E+04  d E =-.392055E-04  mag=     3.0000
       N       E                     dE             d eps       ncg     rms          rms(c)
DAV:   1    -0.230460236935E+04    0.74354E-05   -0.39677E-04  5168   0.219E-02    0.110E-02
RMM:   2    -0.230460237480E+04   -0.54514E-05   -0.51623E-05  2882   0.492E-03
 101 F= -.23252963E+04 E0= -.23252963E+04  d E =-.373275E-04  mag=     3.0000
       N       E                     dE             d eps       ncg     rms          rms(c)
DAV:   1    -0.230460233173E+04    0.37619E-04   -0.58551E-03  4480   0.837E-02    0.269E-02
RMM:   2    -0.230460238311E+04   -0.51375E-04   -0.56632E-04  5507   0.177E-02    0.147E-02
RMM:   3    -0.230460238717E+04   -0.40673E-05   -0.65327E-05  2860   0.775E-03
 102 F= -.23252963E+04 E0= -.23252963E+04  d E =-.350385E-04  mag=     3.0000
       N       E                     dE             d eps       ncg     rms          rms(c)
DAV:   1    -0.230460237586E+04    0.72489E-05   -0.39587E-04  5144   0.222E-02    0.109E-02
RMM:   2    -0.230460238041E+04   -0.45536E-05   -0.43999E-05  2866   0.504E-03
 103 F= -.23252963E+04 E0= -.23252963E+04  d E =-.342232E-04  mag=     3.0000
       N       E                     dE             d eps       ncg     rms          rms(c)
DAV:   1    -0.230460232219E+04    0.53666E-04   -0.51996E-03  4464   0.787E-02    0.244E-02
RMM:   2    -0.230460236932E+04   -0.47131E-04   -0.50546E-04  5368   0.169E-02    0.172E-02
RMM:   3    -0.230460237380E+04   -0.44733E-05   -0.57649E-05  2873   0.716E-03
 104 F= -.23252964E+04 E0= -.23252964E+04  d E =-.208169E-04  mag=     3.0000
       N       E                     dE             d eps       ncg     rms          rms(c)
DAV:   1    -0.230460236999E+04   -0.66795E-06   -0.15796E-05  4040   0.532E-03    0.732E-03
RMM:   2    -0.230460237113E+04   -0.11339E-05   -0.49377E-06  2331   0.222E-03
 105 F= -.23252964E+04 E0= -.23252964E+04  d E =-.180506E-04  mag=     3.0000
       N       E                     dE             d eps       ncg     rms          rms(c)
DAV:   1    -0.230460234146E+04    0.28533E-04   -0.55473E-03  4464   0.821E-02    0.254E-02
RMM:   2    -0.230460238499E+04   -0.43533E-04   -0.48789E-04  5532   0.166E-02    0.116E-02
RMM:   3    -0.230460238741E+04   -0.24169E-05   -0.50684E-05  2858   0.718E-03
 106 F= -.23252964E+04 E0= -.23252964E+04  d E =-.173177E-04  mag=     3.0000
       N       E                     dE             d eps       ncg     rms          rms(c)
DAV:   1    -0.230460238695E+04   -0.19605E-05   -0.88031E-06  3680   0.383E-03    0.828E-03
RMM:   2    -0.230460238988E+04   -0.29235E-05   -0.86686E-06  2332   0.242E-03
 107 F= -.23252964E+04 E0= -.23252964E+04  d E =-.197766E-04  mag=     3.0000
       N       E                     dE             d eps       ncg     rms          rms(c)
DAV:   1    -0.230460237264E+04    0.14313E-04   -0.47289E-03  4480   0.758E-02    0.235E-02
RMM:   2    -0.230460241304E+04   -0.40396E-04   -0.43951E-04  5537   0.155E-02    0.136E-02
RMM:   3    -0.230460241641E+04   -0.33707E-05   -0.43624E-05  2850   0.657E-03
 108 F= -.23252964E+04 E0= -.23252964E+04  d E =-.134447E-04  mag=     3.0000
       N       E                     dE             d eps       ncg     rms          rms(c)
DAV:   1    -0.230460241388E+04   -0.84880E-06   -0.11665E-05  3768   0.427E-03    0.703E-03
RMM:   2    -0.230460241543E+04   -0.15455E-05   -0.48491E-06  2282   0.192E-03
 109 F= -.23252964E+04 E0= -.23252964E+04  d E =-.123376E-04  mag=     3.0000
       N       E                     dE             d eps       ncg     rms          rms(c)
DAV:   1    -0.230460239019E+04    0.23691E-04   -0.45200E-03  4480   0.735E-02    0.231E-02
RMM:   2    -0.230460243373E+04   -0.43536E-04   -0.46684E-04  5572   0.153E-02    0.157E-02
RMM:   3    -0.230460243748E+04   -0.37466E-05   -0.48261E-05  2861   0.638E-03
 110 F= -.23252964E+04 E0= -.23252964E+04  d E =-.172437E-04  mag=     3.0000
       N       E                     dE             d eps       ncg     rms          rms(c)
DAV:   1    -0.230460243393E+04   -0.20111E-06   -0.14139E-05  3936   0.473E-03    0.631E-03
RMM:   2    -0.230460243440E+04   -0.47052E-06   -0.36068E-06  2266   0.199E-03
 111 F= -.23252964E+04 E0= -.23252964E+04  d E =-.140436E-04  mag=     3.0000
       N       E                     dE             d eps       ncg     rms          rms(c)
DAV:   1    -0.230460239602E+04    0.37912E-04   -0.38458E-03  4480   0.668E-02    0.208E-02
RMM:   2    -0.230460243476E+04   -0.38737E-04   -0.41920E-04  5433   0.142E-02    0.118E-02
RMM:   3    -0.230460243826E+04   -0.35017E-05   -0.43562E-05  2823   0.607E-03
 112 F= -.23252964E+04 E0= -.23252964E+04  d E =-.146943E-04  mag=     3.0000
       N       E                     dE             d eps       ncg     rms          rms(c)
DAV:   1    -0.230460243796E+04   -0.32023E-05   -0.68238E-05  5064   0.929E-03    0.707E-03
RMM:   2    -0.230460244022E+04   -0.22642E-05   -0.10218E-05  2376   0.232E-03
 113 F= -.23252964E+04 E0= -.23252964E+04  d E =-.153674E-04  mag=     3.0000
       N       E                     dE             d eps       ncg     rms          rms(c)
DAV:   1    -0.230460239753E+04    0.40425E-04   -0.38829E-03  4480   0.674E-02    0.218E-02
RMM:   2    -0.230460243606E+04   -0.38527E-04   -0.41521E-04  5243   0.145E-02    0.128E-02
RMM:   3    -0.230460244012E+04   -0.40574E-05   -0.44440E-05  2850   0.639E-03
 114 F= -.23252964E+04 E0= -.23252964E+04  d E =-.121203E-04  mag=     3.0000
       N       E                     dE             d eps       ncg     rms          rms(c)
DAV:   1    -0.230460243813E+04   -0.20703E-05   -0.22799E-05  4024   0.596E-03    0.622E-03
RMM:   2    -0.230460243919E+04   -0.10576E-05   -0.55632E-06  2269   0.281E-03
 115 F= -.23252964E+04 E0= -.23252964E+04  d E =-.105380E-04  mag=     3.0000
       N       E                     dE             d eps       ncg     rms          rms(c)
DAV:   1    -0.230460241154E+04    0.26590E-04   -0.35016E-03  4480   0.637E-02    0.194E-02
RMM:   2    -0.230460244484E+04   -0.33303E-04   -0.36365E-04  5118   0.136E-02    0.103E-02
RMM:   3    -0.230460244775E+04   -0.29009E-05   -0.38729E-05  2802   0.623E-03
 116 F= -.23252964E+04 E0= -.23252964E+04  d E =-.711074E-05  mag=     3.0000
       N       E                     dE             d eps       ncg     rms          rms(c)
DAV:   1    -0.230460244674E+04   -0.18928E-05   -0.97973E-05  4864   0.109E-02    0.719E-03
RMM:   2    -0.230460244954E+04   -0.28061E-05   -0.13134E-05  2398   0.262E-03
 117 F= -.23252964E+04 E0= -.23252964E+04  d E =-.913452E-05  mag=     3.0000
       N       E                     dE             d eps       ncg     rms          rms(c)
DAV:   1    -0.230460243387E+04    0.12871E-04   -0.26116E-03  4480   0.541E-02    0.158E-02
RMM:   2    -0.230460246023E+04   -0.26366E-04   -0.28644E-04  4356   0.119E-02    0.847E-03
RMM:   3    -0.230460246279E+04   -0.25592E-05   -0.30967E-05  2553   0.583E-03
 118 F= -.23252964E+04 E0= -.23252964E+04  d E =-.950677E-05  mag=     3.0000
       N       E                     dE             d eps       ncg     rms          rms(c)
DAV:   1    -0.230460246226E+04   -0.20300E-05   -0.68419E-05  5112   0.902E-03    0.536E-03
RMM:   2    -0.230460246351E+04   -0.12522E-05   -0.10200E-05  2382   0.238E-03
 119 F= -.23252964E+04 E0= -.23252964E+04  d E =-.963895E-05  mag=     3.0000
       N       E                     dE             d eps       ncg     rms          rms(c)
DAV:   1    -0.230460246292E+04   -0.65840E-06   -0.15793E-03  4424   0.421E-02    0.136E-02
RMM:   2    -0.230460247851E+04   -0.15590E-04   -0.17143E-04  3664   0.949E-03    0.691E-03
RMM:   3    -0.230460248010E+04   -0.15899E-05   -0.20606E-05  2483   0.547E-03
 120 F= -.23252965E+04 E0= -.23252965E+04  d E =-.149277E-04  mag=     3.0000
