       N       E                     dE             d eps       ncg     rms          rms(c)
DAV:   1     0.124658119240E+05    0.12466E+05   -0.82093E+05  4416   0.143E+03
DAV:   2    -0.110163655504E+04   -0.13567E+05   -0.13025E+05  5376   0.329E+02
DAV:   3    -0.247689121261E+04   -0.13753E+04   -0.13642E+04  5256   0.108E+02
DAV:   4    -0.251485600584E+04   -0.37965E+02   -0.37794E+02  6328   0.252E+01
DAV:   5    -0.251559551877E+04   -0.73951E+00   -0.73865E+00  5504   0.287E+00    0.170E+02
RMM:   6    -0.146266866936E+04    0.10529E+04   -0.19473E+03  4351   0.389E+01    0.726E+01
RMM:   7    -0.164234248858E+04   -0.17967E+03   -0.27506E+02  4889   0.138E+01    0.495E+01
RMM:   8    -0.169711699194E+04   -0.54775E+02   -0.52651E+01  4914   0.772E+00    0.381E+01
RMM:   9    -0.180081123590E+04   -0.10369E+03   -0.54197E+01  4741   0.731E+00    0.252E+01
RMM:  10    -0.196464821373E+04   -0.16384E+03   -0.67063E+01  4901   0.754E+00    0.166E+01
RMM:  11    -0.208762478577E+04   -0.12298E+03   -0.65953E+01  4582   0.620E+00    0.129E+01
RMM:  12    -0.224161745115E+04   -0.15399E+03   -0.14505E+02  4369   0.844E+00    0.706E+00
RMM:  13    -0.229545810054E+04   -0.53841E+02   -0.54824E+01  4577   0.533E+00    0.409E+00
RMM:  14    -0.230688319050E+04   -0.11425E+02   -0.14371E+01  4655   0.317E+00    0.681E+00
RMM:  15    -0.230731776316E+04   -0.43457E+00   -0.21183E+00  5241   0.114E+00    0.693E+00
RMM:  16    -0.230680371455E+04    0.51405E+00   -0.96304E-01  4705   0.377E-01    0.301E+00
RMM:  17    -0.230910443747E+04   -0.23007E+01   -0.14445E+00  4370   0.814E-01    0.217E+00
RMM:  18    -0.230911434902E+04   -0.99115E-02   -0.13032E+00  4387   0.714E-01    0.353E+00
RMM:  19    -0.230757168050E+04    0.15427E+01   -0.89392E-01  4513   0.493E-01    0.467E+00
RMM:  20    -0.230476950341E+04    0.28022E+01   -0.98102E-01  4610   0.439E-01    0.618E+00
RMM:  21    -0.230303977649E+04    0.17297E+01   -0.38727E-01  4841   0.265E-01    0.712E+00
RMM:  22    -0.230505924850E+04   -0.20195E+01   -0.17157E-01  4802   0.166E-01    0.610E+00
RMM:  23    -0.230886230942E+04   -0.38031E+01   -0.13838E+00  4775   0.423E-01    0.363E+00
RMM:  24    -0.231140464225E+04   -0.25423E+01   -0.27138E+00  4765   0.545E-01    0.611E-01
RMM:  25    -0.231158668491E+04   -0.18204E+00   -0.23079E-01  4783   0.253E-01    0.676E+00
RMM:  26    -0.231175596125E+04   -0.16928E+00   -0.64931E-01  5283   0.113E-01    0.689E+00
RMM:  27    -0.231169666137E+04    0.59300E-01   -0.99927E-02  4780   0.541E-02    0.697E+00
RMM:  28    -0.231162205656E+04    0.74605E-01   -0.63373E-02  3748   0.454E-02    0.689E+00
RMM:  29    -0.231164148157E+04   -0.19425E-01   -0.68121E-03  4313   0.204E-02    0.677E+00
RMM:  30    -0.231170921984E+04   -0.67738E-01   -0.41375E-02  4875   0.668E-02    0.611E+00
RMM:  31    -0.231156513123E+04    0.14409E+00   -0.12499E-01  4764   0.778E-02    0.609E+00
RMM:  32    -0.231154290654E+04    0.22225E-01   -0.77739E-02  4754   0.864E-02    0.543E+00
RMM:  33    -0.231180337134E+04   -0.26046E+00   -0.76055E-01  4913   0.305E-01    0.156E+00
RMM:  34    -0.231175897246E+04    0.44399E-01   -0.94832E-02  4930   0.165E-01    0.124E+00
RMM:  35    -0.231177750841E+04   -0.18536E-01   -0.24812E-02  5363   0.471E-02    0.128E+00
RMM:  36    -0.231160059168E+04    0.17692E+00   -0.11480E-01  4641   0.104E-01    0.127E+00
RMM:  37    -0.231145994903E+04    0.14064E+00   -0.96368E-02  4555   0.113E-01    0.131E+00
RMM:  38    -0.231142298768E+04    0.36961E-01   -0.15668E-02  4512   0.482E-02    0.133E+00
RMM:  39    -0.231118534918E+04    0.23764E+00   -0.17089E-01  4632   0.131E-01    0.171E+00
RMM:  40    -0.231086858940E+04    0.31676E+00   -0.21238E-01  4731   0.159E-01    0.209E+00
RMM:  41    -0.231072870484E+04    0.13988E+00   -0.62469E-02  4786   0.841E-02    0.226E+00
RMM:  42    -0.231034983903E+04    0.37887E+00   -0.20495E-01  4711   0.141E-01    0.276E+00
RMM:  43    -0.231032818448E+04    0.21655E-01   -0.13256E-02  4387   0.438E-02    0.279E+00
RMM:  44    -0.231030891749E+04    0.19267E-01   -0.20847E-03  4230   0.163E-02    0.275E+00
RMM:  45    -0.231026244228E+04    0.46475E-01   -0.40774E-03  4464   0.283E-02    0.253E+00
RMM:  46    -0.230992904166E+04    0.33340E+00   -0.83183E-02  4541   0.867E-02    0.264E+00
RMM:  47    -0.230980934888E+04    0.11969E+00   -0.12516E-02  4301   0.450E-02    0.266E+00
RMM:  48    -0.230988689744E+04   -0.77549E-01   -0.32280E-03  3570   0.196E-02    0.263E+00
RMM:  49    -0.230990311711E+04   -0.16220E-01   -0.58705E-03  4390   0.289E-02    0.278E+00
RMM:  50    -0.231050813271E+04   -0.60502E+00   -0.22185E-01  4556   0.142E-01    0.244E+00
RMM:  51    -0.231126976736E+04   -0.76163E+00   -0.61001E-01  4691   0.234E-01    0.176E+00
RMM:  52    -0.231145946420E+04   -0.18970E+00   -0.12683E-01  4696   0.123E-01    0.158E+00
RMM:  53    -0.231157559543E+04   -0.11613E+00   -0.74900E-02  4892   0.832E-02    0.127E+00
RMM:  54    -0.231151294428E+04    0.62651E-01   -0.11456E-02  4249   0.413E-02    0.135E+00
RMM:  55    -0.231149188678E+04    0.21057E-01   -0.42423E-03  3829   0.247E-02    0.138E+00
RMM:  56    -0.231158350253E+04   -0.91616E-01   -0.28778E-02  4249   0.495E-02    0.137E+00
RMM:  57    -0.231180616931E+04   -0.22267E+00   -0.24545E-01  4587   0.140E-01    0.105E+00
RMM:  58    -0.231169203629E+04    0.11413E+00   -0.64340E-02  4317   0.842E-02    0.114E+00
RMM:  59    -0.231162424025E+04    0.67796E-01   -0.20879E-02  4410   0.462E-02    0.138E+00
RMM:  60    -0.231197631228E+04   -0.35207E+00   -0.74442E-01  4498   0.188E-01    0.113E+00
RMM:  61    -0.231202182935E+04   -0.45517E-01   -0.12490E-01  4608   0.114E-01    0.922E-01
RMM:  62    -0.231202256110E+04   -0.73175E-03   -0.15989E-02  4888   0.359E-02    0.934E-01
RMM:  63    -0.231202187931E+04    0.68179E-03   -0.11671E-03  4335   0.105E-02    0.961E-01
RMM:  64    -0.231201966528E+04    0.22140E-02   -0.76172E-03  4558   0.319E-02    0.110E+00
RMM:  65    -0.231202938714E+04   -0.97219E-02   -0.74885E-03  4406   0.354E-02    0.967E-01
RMM:  66    -0.231206861924E+04   -0.39232E-01   -0.11443E-01  4728   0.121E-01    0.117E+00
RMM:  67    -0.231206536114E+04    0.32581E-02   -0.60720E-03  4309   0.542E-02    0.108E+00
RMM:  68    -0.231206501875E+04    0.34239E-03   -0.77238E-04  4302   0.866E-03    0.108E+00
RMM:  69    -0.231206498638E+04    0.32367E-04   -0.19613E-04  3047   0.725E-03    0.108E+00
RMM:  70    -0.231206536220E+04   -0.37582E-03   -0.24715E-04  3145   0.673E-03    0.109E+00
RMM:  71    -0.231206223945E+04    0.31227E-02   -0.57309E-04  3681   0.910E-03    0.100E+00
RMM:  72    -0.231206311053E+04   -0.87108E-03   -0.25180E-04  3125   0.738E-03    0.985E-01
RMM:  73    -0.231206645819E+04   -0.33477E-02   -0.21626E-03  4032   0.201E-02    0.986E-01
RMM:  74    -0.231206881780E+04   -0.23596E-02   -0.14647E-03  4351   0.171E-02    0.103E+00
RMM:  75    -0.231206847910E+04    0.33870E-03   -0.64209E-04  4050   0.111E-02    0.100E+00
RMM:  76    -0.231206593562E+04    0.25435E-02   -0.10588E-03  3930   0.134E-02    0.985E-01
RMM:  77    -0.231206135585E+04    0.45798E-02   -0.48283E-03  4375   0.246E-02    0.789E-01
RMM:  78    -0.231206081999E+04    0.53586E-03   -0.14593E-03  4038   0.195E-02    0.757E-01
RMM:  79    -0.231205958416E+04    0.12358E-02   -0.10084E-03  4270   0.126E-02    0.717E-01
RMM:  80    -0.231205795011E+04    0.16340E-02   -0.74827E-04  3927   0.124E-02    0.658E-01
RMM:  81    -0.231205234673E+04    0.56034E-02   -0.11725E-02  4529   0.408E-02    0.384E-01
RMM:  82    -0.231205197392E+04    0.37281E-03   -0.90217E-04  3978   0.236E-02    0.335E-01
RMM:  83    -0.231205154694E+04    0.42698E-03   -0.14341E-03  4257   0.159E-02    0.251E-01
RMM:  84    -0.231205261630E+04   -0.10694E-02   -0.11512E-03  4123   0.164E-02    0.218E-01
RMM:  85    -0.231205427927E+04   -0.16630E-02   -0.15730E-03  4194   0.163E-02    0.247E-01
RMM:  86    -0.231205557228E+04   -0.12930E-02   -0.34293E-03  4067   0.236E-02    0.190E-01
RMM:  87    -0.231205600207E+04   -0.42979E-03   -0.13295E-03  3857   0.159E-02    0.155E-01
RMM:  88    -0.231205627240E+04   -0.27033E-03   -0.54690E-04  3459   0.994E-03    0.145E-01
RMM:  89    -0.231205643968E+04   -0.16728E-03   -0.11684E-04  2893   0.591E-03    0.142E-01
RMM:  90    -0.231205665878E+04   -0.21910E-03   -0.23872E-04  3318   0.675E-03    0.150E-01
RMM:  91    -0.231205669229E+04   -0.33516E-04   -0.12453E-03  4003   0.135E-02    0.563E-02
RMM:  92    -0.231205675088E+04   -0.58593E-04   -0.10605E-04  2885   0.712E-03    0.473E-02
RMM:  93    -0.231205675996E+04   -0.90787E-05   -0.62972E-05  2778   0.365E-03
   1 F= -.23321472E+04 E0= -.23321472E+04  d E =-.233215E+04  mag=     0.0014
