       N       E                     dE             d eps       ncg     rms          rms(c)
DAV:   1     0.127056320383E+05    0.12706E+05   -0.82852E+05  4432   0.144E+03
DAV:   2    -0.107160070765E+04   -0.13777E+05   -0.13201E+05  5336   0.329E+02
DAV:   3    -0.247318556362E+04   -0.14016E+04   -0.13884E+04  5360   0.111E+02
DAV:   4    -0.251848750600E+04   -0.45302E+02   -0.45090E+02  6616   0.297E+01
DAV:   5    -0.251935304447E+04   -0.86554E+00   -0.86416E+00  5552   0.329E+00    0.171E+02
RMM:   6    -0.148572488301E+04    0.10336E+04   -0.19537E+03  4385   0.390E+01    0.752E+01
RMM:   7    -0.165664893510E+04   -0.17092E+03   -0.29208E+02  5043   0.139E+01    0.600E+01
RMM:   8    -0.168939737497E+04   -0.32748E+02   -0.86247E+01  5008   0.853E+00    0.419E+01
RMM:   9    -0.177924063176E+04   -0.89843E+02   -0.47863E+01  4580   0.733E+00    0.297E+01
RMM:  10    -0.192427972594E+04   -0.14504E+03   -0.56096E+01  4914   0.705E+00    0.239E+01
RMM:  11    -0.199817317103E+04   -0.73893E+02   -0.30681E+01  5144   0.456E+00    0.243E+01
RMM:  12    -0.207632801586E+04   -0.78155E+02   -0.34591E+01  4886   0.479E+00    0.135E+01
RMM:  13    -0.218970723446E+04   -0.11338E+03   -0.76893E+01  4421   0.667E+00    0.913E+00
RMM:  14    -0.227544255438E+04   -0.85735E+02   -0.75854E+01  4528   0.619E+00    0.517E+00
RMM:  15    -0.230152872486E+04   -0.26086E+02   -0.25614E+01  4621   0.401E+00    0.305E+00
RMM:  16    -0.230795274751E+04   -0.64240E+01   -0.76096E+00  5046   0.188E+00    0.405E+00
RMM:  17    -0.230806319386E+04   -0.11045E+00   -0.59414E-01  5601   0.639E-01    0.387E+00
RMM:  18    -0.230899836541E+04   -0.93517E+00   -0.41384E-01  4409   0.411E-01    0.326E+00
RMM:  19    -0.231108761518E+04   -0.20892E+01   -0.15769E+00  4384   0.717E-01    0.260E+00
RMM:  20    -0.231227114448E+04   -0.11835E+01   -0.60054E-01  4451   0.494E-01    0.108E+00
RMM:  21    -0.231257492906E+04   -0.30378E+00   -0.22486E-01  4627   0.268E-01    0.779E-01
RMM:  22    -0.231267016373E+04   -0.95235E-01   -0.62755E-02  4689   0.143E-01    0.400E-01
RMM:  23    -0.231275254491E+04   -0.82381E-01   -0.34394E-02  4414   0.106E-01    0.297E-01
RMM:  24    -0.231280288385E+04   -0.50339E-01   -0.21901E-02  4465   0.910E-02    0.304E-01
RMM:  25    -0.231281858978E+04   -0.15706E-01   -0.70080E-03  4724   0.574E-02    0.174E-01
RMM:  26    -0.231284056464E+04   -0.21975E-01   -0.89153E-03  4388   0.544E-02    0.117E-01
RMM:  27    -0.231285069960E+04   -0.10135E-01   -0.41444E-03  4515   0.450E-02    0.974E-02
RMM:  28    -0.231285564135E+04   -0.49417E-02   -0.26404E-03  4687   0.306E-02    0.922E-02
RMM:  29    -0.231285878255E+04   -0.31412E-02   -0.27674E-03  4236   0.298E-02    0.812E-02
RMM:  30    -0.231285962371E+04   -0.84115E-03   -0.12738E-03  4415   0.212E-02    0.815E-02
RMM:  31    -0.231285991997E+04   -0.29627E-03   -0.45822E-04  3837   0.121E-02    0.827E-02
RMM:  32    -0.231285942301E+04    0.49696E-03   -0.55288E-04  3614   0.120E-02    0.912E-02
RMM:  33    -0.231286107344E+04   -0.16504E-02   -0.79634E-03  4113   0.364E-02    0.793E-02
RMM:  34    -0.231286219673E+04   -0.11233E-02   -0.11166E-02  4315   0.473E-02    0.642E-02
RMM:  35    -0.231286248691E+04   -0.29017E-03   -0.17343E-03  4058   0.283E-02    0.544E-02
RMM:  36    -0.231286286987E+04   -0.38297E-03   -0.41737E-03  4194   0.273E-02    0.373E-02
RMM:  37    -0.231286294683E+04   -0.76956E-04   -0.60432E-04  3642   0.180E-02    0.282E-02
RMM:  38    -0.231286301663E+04   -0.69800E-04   -0.13235E-03  3924   0.153E-02    0.267E-02
RMM:  39    -0.231286303497E+04   -0.18339E-04   -0.13012E-04  3171   0.111E-02    0.136E-02
RMM:  40    -0.231286303707E+04   -0.20973E-05   -0.14621E-04  3077   0.531E-03    0.150E-02
RMM:  41    -0.231286304436E+04   -0.72927E-05   -0.11320E-05  2751   0.352E-03
   1 F= -.23334488E+04 E0= -.23334488E+04  d E =-.233345E+04  mag=     3.9999
       N       E                     dE             d eps       ncg     rms          rms(c)
DAV:   1    -0.231324896483E+04   -0.38593E+00   -0.53777E+01  4640   0.502E+00    0.196E+00
RMM:   2    -0.231369861512E+04   -0.44965E+00   -0.47387E+00  5954   0.104E+00    0.167E+00
RMM:   3    -0.231372793979E+04   -0.29325E-01   -0.57234E-01  5221   0.455E-01    0.168E+00
RMM:   4    -0.231371972104E+04    0.82188E-02   -0.63446E-02  5641   0.105E-01    0.135E+00
RMM:   5    -0.231370624311E+04    0.13478E-01   -0.19611E-02  5139   0.714E-02    0.439E-01
RMM:   6    -0.231370450878E+04    0.17343E-02   -0.97286E-03  4962   0.593E-02    0.164E-01
RMM:   7    -0.231370418620E+04    0.32258E-03   -0.18305E-03  5010   0.341E-02    0.922E-02
RMM:   8    -0.231370409152E+04    0.94681E-04   -0.61417E-04  4413   0.132E-02    0.530E-02
RMM:   9    -0.231370406506E+04    0.26467E-04   -0.13256E-04  3443   0.959E-03    0.338E-02
RMM:  10    -0.231370406194E+04    0.31138E-05   -0.11053E-04  3643   0.715E-03    0.229E-02
RMM:  11    -0.231370407009E+04   -0.81483E-05   -0.42309E-05  2947   0.582E-03
   2 F= -.23342938E+04 E0= -.23342938E+04  d E =-.844979E+00  mag=     3.9997
       N       E                     dE             d eps       ncg     rms          rms(c)
DAV:   1    -0.231349741944E+04    0.20664E+00   -0.60307E+01  4496   0.546E+00    0.195E+00
RMM:   2    -0.231402525648E+04   -0.52784E+00   -0.54778E+00  6030   0.125E+00    0.189E+00
RMM:   3    -0.231404992372E+04   -0.24667E-01   -0.58694E-01  5208   0.495E-01    0.138E+00
RMM:   4    -0.231405513668E+04   -0.52130E-02   -0.79361E-02  5611   0.115E-01    0.179E+00
RMM:   5    -0.231403633474E+04    0.18802E-01   -0.24041E-02  5451   0.755E-02    0.529E-01
RMM:   6    -0.231403299690E+04    0.33378E-02   -0.13919E-02  4787   0.670E-02    0.284E-01
RMM:   7    -0.231403254443E+04    0.45247E-03   -0.25224E-03  4869   0.439E-02    0.146E-01
RMM:   8    -0.231403249133E+04    0.53095E-04   -0.81485E-04  4614   0.166E-02    0.473E-02
RMM:   9    -0.231403250186E+04   -0.10527E-04   -0.14154E-04  4145   0.120E-02    0.480E-02
RMM:  10    -0.231403249307E+04    0.87845E-05   -0.11024E-04  3688   0.766E-03    0.180E-02
RMM:  11    -0.231403249491E+04   -0.18334E-05   -0.24882E-05  2977   0.562E-03
   3 F= -.23346256E+04 E0= -.23346212E+04  d E =-.117676E+01  mag=     3.8876
       N       E                     dE             d eps       ncg     rms          rms(c)
DAV:   1    -0.231361451509E+04    0.41798E+00   -0.74058E+01  4468   0.820E+00    0.378E+00
RMM:   2    -0.231443979246E+04   -0.82528E+00   -0.84538E+00  5775   0.188E+00    0.337E+00
RMM:   3    -0.231430007901E+04    0.13971E+00   -0.75670E-01  4837   0.645E-01    0.217E+00
RMM:   4    -0.231425056667E+04    0.49512E-01   -0.19877E-01  4685   0.229E-01    0.133E+00
RMM:   5    -0.231429912125E+04   -0.48555E-01   -0.10212E-01  4717   0.202E-01    0.751E-01
RMM:   6    -0.231434925374E+04   -0.50132E-01   -0.37437E-02  5086   0.110E-01    0.684E-01
RMM:   7    -0.231439284623E+04   -0.43592E-01   -0.22084E-02  4713   0.834E-02    0.362E-01
RMM:   8    -0.231444421944E+04   -0.51373E-01   -0.16871E-02  4479   0.640E-02    0.211E-01
RMM:   9    -0.231447946478E+04   -0.35245E-01   -0.91245E-03  4527   0.531E-02    0.151E-01
RMM:  10    -0.231450697403E+04   -0.27509E-01   -0.77662E-03  4417   0.479E-02    0.906E-02
RMM:  11    -0.231451701115E+04   -0.10037E-01   -0.27789E-03  4417   0.382E-02    0.563E-02
RMM:  12    -0.231452163385E+04   -0.46227E-02   -0.14914E-03  4222   0.231E-02    0.314E-02
RMM:  13    -0.231452315218E+04   -0.15183E-02   -0.38477E-04  4064   0.177E-02    0.170E-02
RMM:  14    -0.231452366929E+04   -0.51711E-03   -0.15170E-04  3803   0.799E-03    0.815E-03
RMM:  15    -0.231452382569E+04   -0.15640E-03   -0.32372E-05  3186   0.634E-03    0.429E-03
RMM:  16    -0.231452387785E+04   -0.52154E-04   -0.14443E-05  2924   0.353E-03    0.209E-03
RMM:  17    -0.231452388838E+04   -0.10536E-04   -0.48695E-06  2765   0.295E-03    0.122E-03
RMM:  18    -0.231452389110E+04   -0.27165E-05   -0.28658E-06  2634   0.199E-03
   4 F= -.23351187E+04 E0= -.23351187E+04  d E =-.493154E+00  mag=     2.0005
       N       E                     dE             d eps       ncg     rms          rms(c)
DAV:   1    -0.231452312730E+04    0.76108E-03   -0.52263E-01  5272   0.698E-01    0.252E-01
RMM:   2    -0.231452871651E+04   -0.55892E-02   -0.59410E-02  5812   0.157E-01    0.115E-01
RMM:   3    -0.231452883580E+04   -0.11929E-03   -0.46384E-03  4934   0.492E-02    0.896E-02
RMM:   4    -0.231452884177E+04   -0.59712E-05   -0.67141E-04  4091   0.138E-02    0.849E-02
RMM:   5    -0.231452876258E+04    0.79192E-04   -0.23521E-04  4062   0.107E-02    0.399E-02
RMM:   6    -0.231452874047E+04    0.22109E-04   -0.65907E-05  3556   0.705E-03    0.134E-02
RMM:   7    -0.231452873791E+04    0.25616E-05   -0.12718E-05  2837   0.467E-03
   5 F= -.23351237E+04 E0= -.23351237E+04  d E =-.498138E+00  mag=     2.0002
       N       E                     dE             d eps       ncg     rms          rms(c)
DAV:   1    -0.231445291583E+04    0.75825E-01   -0.26087E+01  4420   0.472E+00    0.175E+00
RMM:   2    -0.231480887179E+04   -0.35596E+00   -0.38338E+00  5996   0.110E+00    0.956E-01
RMM:   3    -0.231480944503E+04   -0.57323E-03   -0.27296E-01  5578   0.332E-01    0.628E-01
RMM:   4    -0.231481039044E+04   -0.94541E-03   -0.39790E-02  5528   0.849E-02    0.586E-01
RMM:   5    -0.231480747566E+04    0.29148E-02   -0.11060E-02  5559   0.586E-02    0.346E-01
RMM:   6    -0.231480591733E+04    0.15583E-02   -0.27392E-03  5082   0.353E-02    0.980E-02
RMM:   7    -0.231480573169E+04    0.18564E-03   -0.60304E-04  4849   0.196E-02    0.419E-02
RMM:   8    -0.231480569132E+04    0.40372E-04   -0.13089E-04  4010   0.900E-03    0.197E-02
RMM:   9    -0.231480567361E+04    0.17711E-04   -0.44848E-05  3270   0.666E-03    0.107E-02
RMM:  10    -0.231480566807E+04    0.55355E-05   -0.22769E-05  2977   0.504E-03
   6 F= -.23353999E+04 E0= -.23353999E+04  d E =-.276167E+00  mag=     2.0000
       N       E                     dE             d eps       ncg     rms          rms(c)
DAV:   1    -0.231478813594E+04    0.17538E-01   -0.27954E+00  4592   0.154E+00    0.571E-01
RMM:   2    -0.231482402427E+04   -0.35888E-01   -0.38859E-01  6100   0.359E-01    0.299E-01
RMM:   3    -0.231482470471E+04   -0.68044E-03   -0.30389E-02  5662   0.106E-01    0.194E-01
RMM:   4    -0.231482485917E+04   -0.15446E-03   -0.42914E-03  5097   0.278E-02    0.186E-01
RMM:   5    -0.231482459319E+04    0.26598E-03   -0.11435E-03  5010   0.199E-02    0.113E-01
RMM:   6    -0.231482442286E+04    0.17033E-03   -0.27938E-04  4375   0.121E-02    0.326E-02
RMM:   7    -0.231482440269E+04    0.20173E-04   -0.67011E-05  3424   0.718E-03    0.123E-02
RMM:   8    -0.231482439942E+04    0.32630E-05   -0.16566E-05  2868   0.412E-03
   7 F= -.23354184E+04 E0= -.23354184E+04  d E =-.294652E+00  mag=     2.0000
       N       E                     dE             d eps       ncg     rms          rms(c)
DAV:   1    -0.231480280330E+04    0.21599E-01   -0.81164E+00  4464   0.286E+00    0.101E+00
RMM:   2    -0.231490575886E+04   -0.10296E+00   -0.11097E+00  6094   0.662E-01    0.466E-01
RMM:   3    -0.231491221523E+04   -0.64564E-02   -0.10492E-01  5492   0.198E-01    0.508E-01
RMM:   4    -0.231491099208E+04    0.12231E-02   -0.12717E-02  5762   0.534E-02    0.294E-01
RMM:   5    -0.231490992446E+04    0.10676E-02   -0.25705E-03  4829   0.329E-02    0.136E-01
RMM:   6    -0.231490963722E+04    0.28724E-03   -0.11432E-03  5197   0.233E-02    0.639E-02
RMM:   7    -0.231490954089E+04    0.96329E-04   -0.24161E-04  4687   0.139E-02    0.260E-02
RMM:   8    -0.231490950642E+04    0.34467E-04   -0.50092E-05  3251   0.655E-03    0.144E-02
RMM:   9    -0.231490948782E+04    0.18602E-04   -0.42704E-05  3311   0.585E-03    0.687E-03
RMM:  10    -0.231490948332E+04    0.45028E-05   -0.13250E-05  2851   0.467E-03
   8 F= -.23355037E+04 E0= -.23355037E+04  d E =-.853116E-01  mag=     2.0000
       N       E                     dE             d eps       ncg     rms          rms(c)
DAV:   1    -0.231489361872E+04    0.15869E-01   -0.20380E+00  4568   0.143E+00    0.504E-01
RMM:   2    -0.231491940035E+04   -0.25782E-01   -0.27778E-01  6108   0.332E-01    0.227E-01
RMM:   3    -0.231492081176E+04   -0.14114E-02   -0.23665E-02  5484   0.953E-02    0.242E-01
RMM:   4    -0.231492057585E+04    0.23591E-03   -0.31129E-03  5213   0.265E-02    0.145E-01
RMM:   5    -0.231492027849E+04    0.29736E-03   -0.69267E-04  4753   0.181E-02    0.588E-02
RMM:   6    -0.231492022416E+04    0.54326E-04   -0.21309E-04  4417   0.122E-02    0.275E-02
RMM:   7    -0.231492020465E+04    0.19513E-04   -0.46910E-05  3253   0.656E-03    0.121E-02
RMM:   8    -0.231492019670E+04    0.79517E-05   -0.13628E-05  2847   0.458E-03
   9 F= -.23355144E+04 E0= -.23355144E+04  d E =-.960846E-01  mag=     2.0000
       N       E                     dE             d eps       ncg     rms          rms(c)
DAV:   1    -0.231491163040E+04    0.85742E-02   -0.55321E+00  4528   0.239E+00    0.772E-01
RMM:   2    -0.231498183200E+04   -0.70202E-01   -0.75035E-01  6176   0.520E-01    0.385E-01
RMM:   3    -0.231498523657E+04   -0.34046E-02   -0.67989E-02  5599   0.156E-01    0.250E-01
RMM:   4    -0.231498524640E+04   -0.98283E-05   -0.76307E-03  5575   0.383E-02    0.216E-01
RMM:   5    -0.231498491412E+04    0.33228E-03   -0.14005E-03  5055   0.223E-02    0.160E-01
RMM:   6    -0.231498457210E+04    0.34201E-03   -0.69155E-04  4745   0.180E-02    0.394E-02
RMM:   7    -0.231498455748E+04    0.14620E-04   -0.11000E-04  3926   0.108E-02    0.175E-02
RMM:   8    -0.231498454898E+04    0.85029E-05   -0.23545E-05  2969   0.444E-03
  10 F= -.23355791E+04 E0= -.23355791E+04  d E =-.646295E-01  mag=     2.0000
       N       E                     dE             d eps       ncg     rms          rms(c)
DAV:   1    -0.231477547534E+04    0.20908E+00   -0.19280E+01  4472   0.446E+00    0.144E+00
RMM:   2    -0.231502076181E+04   -0.24529E+00   -0.26248E+00  6132   0.954E-01    0.751E-01
RMM:   3    -0.231503536897E+04   -0.14607E-01   -0.27248E-01  5585   0.308E-01    0.549E-01
RMM:   4    -0.231503444504E+04    0.92393E-03   -0.27760E-02  5817   0.745E-02    0.413E-01
RMM:   5    -0.231503322870E+04    0.12163E-02   -0.51188E-03  5367   0.397E-02    0.309E-01
RMM:   6    -0.231503194293E+04    0.12858E-02   -0.26122E-03  4902   0.326E-02    0.950E-02
RMM:   7    -0.231503182280E+04    0.12013E-03   -0.68459E-04  4885   0.219E-02    0.387E-02
RMM:   8    -0.231503178002E+04    0.42785E-04   -0.10210E-04  3928   0.855E-03    0.218E-02
RMM:   9    -0.231503175764E+04    0.22375E-04   -0.75669E-05  3388   0.765E-03    0.975E-03
RMM:  10    -0.231503175426E+04    0.33845E-05   -0.21416E-05  2946   0.500E-03
  11 F= -.23356266E+04 E0= -.23356266E+04  d E =-.112129E+00  mag=     2.0000
       N       E                     dE             d eps       ncg     rms          rms(c)
DAV:   1    -0.231498462951E+04    0.47128E-01   -0.95036E+00  4468   0.311E+00    0.891E-01
RMM:   2    -0.231508936321E+04   -0.10473E+00   -0.11192E+00  6030   0.633E-01    0.506E-01
RMM:   3    -0.231509553866E+04   -0.61755E-02   -0.11558E-01  5573   0.208E-01    0.313E-01
RMM:   4    -0.231509502447E+04    0.51420E-03   -0.11226E-02  5106   0.497E-02    0.221E-01
RMM:   5    -0.231509500503E+04    0.19437E-04   -0.27249E-03  5007   0.362E-02    0.267E-01
RMM:   6    -0.231509421671E+04    0.78832E-03   -0.12284E-03  5207   0.227E-02    0.512E-02
RMM:   7    -0.231509417749E+04    0.39220E-04   -0.13107E-04  3928   0.118E-02    0.224E-02
RMM:   8    -0.231509415837E+04    0.19124E-04   -0.43779E-05  3191   0.547E-03    0.118E-02
RMM:   9    -0.231509415162E+04    0.67449E-05   -0.22020E-05  2946   0.473E-03
  12 F= -.23356881E+04 E0= -.23356881E+04  d E =-.615354E-01  mag=     2.0000
       N       E                     dE             d eps       ncg     rms          rms(c)
DAV:   1    -0.231502515736E+04    0.69001E-01   -0.76689E+00  4500   0.280E+00    0.797E-01
RMM:   2    -0.231510955029E+04   -0.84393E-01   -0.90106E-01  6031   0.572E-01    0.452E-01
RMM:   3    -0.231511444356E+04   -0.48933E-02   -0.91081E-02  5570   0.186E-01    0.283E-01
RMM:   4    -0.231511410654E+04    0.33702E-03   -0.91521E-03  5033   0.449E-02    0.221E-01
RMM:   5    -0.231511400824E+04    0.98301E-04   -0.21928E-03  5012   0.318E-02    0.236E-01
RMM:   6    -0.231511334495E+04    0.66329E-03   -0.10853E-03  5061   0.217E-02    0.388E-02
RMM:   7    -0.231511331599E+04    0.28958E-04   -0.10897E-04  3777   0.113E-02    0.202E-02
RMM:   8    -0.231511329911E+04    0.16876E-04   -0.39066E-05  3216   0.497E-03    0.104E-02
RMM:   9    -0.231511329417E+04    0.49463E-05   -0.17740E-05  2903   0.457E-03
  13 F= -.23357064E+04 E0= -.23357064E+04  d E =-.798143E-01  mag=     2.0000
       N       E                     dE             d eps       ncg     rms          rms(c)
DAV:   1    -0.231506529217E+04    0.48007E-01   -0.12450E+01  4504   0.363E+00    0.905E-01
RMM:   2    -0.231517576529E+04   -0.11047E+00   -0.11788E+00  5903   0.680E-01    0.471E-01
RMM:   3    -0.231518392254E+04   -0.81573E-02   -0.12738E-01  5338   0.230E-01    0.341E-01
RMM:   4    -0.231518371924E+04    0.20330E-03   -0.12468E-02  5318   0.537E-02    0.283E-01
RMM:   5    -0.231518325414E+04    0.46509E-03   -0.30068E-03  5158   0.335E-02    0.255E-01
RMM:   6    -0.231518264450E+04    0.60964E-03   -0.17541E-03  5260   0.261E-02    0.776E-02
RMM:   7    -0.231518257712E+04    0.67386E-04   -0.21712E-04  4207   0.134E-02    0.311E-02
RMM:   8    -0.231518255270E+04    0.24421E-04   -0.69100E-05  3099   0.619E-03    0.148E-02
RMM:   9    -0.231518254795E+04    0.47437E-05   -0.29872E-05  2928   0.486E-03
  14 F= -.23357746E+04 E0= -.23357746E+04  d E =-.682293E-01  mag=     2.0000
       N       E                     dE             d eps       ncg     rms          rms(c)
DAV:   1    -0.231488388271E+04    0.29867E+00   -0.37336E+01  4504   0.630E+00    0.158E+00
RMM:   2    -0.231521974801E+04   -0.33587E+00   -0.35893E+00  5933   0.119E+00    0.831E-01
RMM:   3    -0.231524502994E+04   -0.25282E-01   -0.40301E-01  5386   0.397E-01    0.620E-01
RMM:   4    -0.231524397472E+04    0.10552E-02   -0.39998E-02  5587   0.933E-02    0.454E-01
RMM:   5    -0.231524295677E+04    0.10180E-02   -0.90727E-03  5223   0.551E-02    0.492E-01
RMM:   6    -0.231524100510E+04    0.19517E-02   -0.58738E-03  5455   0.454E-02    0.211E-01
RMM:   7    -0.231524056255E+04    0.44255E-03   -0.10466E-03  5107   0.248E-02    0.645E-02
RMM:   8    -0.231524046257E+04    0.99984E-04   -0.23922E-04  4190   0.113E-02    0.315E-02
RMM:   9    -0.231524043999E+04    0.22577E-04   -0.12034E-04  3397   0.816E-03    0.125E-02
RMM:  10    -0.231524043344E+04    0.65538E-05   -0.27857E-05  3068   0.510E-03
  15 F= -.23358305E+04 E0= -.23358305E+04  d E =-.124087E+00  mag=     2.0000
       N       E                     dE             d eps       ncg     rms          rms(c)
DAV:   1    -0.231523871099E+04    0.17290E-02   -0.60617E+00  4480   0.252E+00    0.644E-01
RMM:   2    -0.231529296060E+04   -0.54250E-01   -0.57938E-01  6087   0.501E-01    0.335E-01
RMM:   3    -0.231529636197E+04   -0.34014E-02   -0.53461E-02  5479   0.151E-01    0.262E-01
RMM:   4    -0.231529660779E+04   -0.24583E-03   -0.57976E-03  5618   0.363E-02    0.267E-01
RMM:   5    -0.231529602342E+04    0.58437E-03   -0.18232E-03  5073   0.270E-02    0.134E-01
RMM:   6    -0.231529586136E+04    0.16206E-03   -0.59855E-04  4936   0.182E-02    0.373E-02
RMM:   7    -0.231529584657E+04    0.14797E-04   -0.68002E-05  3258   0.825E-03    0.201E-02
RMM:   8    -0.231529583920E+04    0.73703E-05   -0.25387E-05  2905   0.469E-03
  16 F= -.23358854E+04 E0= -.23358854E+04  d E =-.548772E-01  mag=     2.0000
       N       E                     dE             d eps       ncg     rms          rms(c)
DAV:   1    -0.231488275589E+04    0.41309E+00   -0.54406E+01  4440   0.757E+00    0.196E+00
RMM:   2    -0.231537895283E+04   -0.49620E+00   -0.53078E+00  6025   0.151E+00    0.111E+00
RMM:   3    -0.231541695563E+04   -0.38003E-01   -0.56525E-01  5552   0.470E-01    0.108E+00
RMM:   4    -0.231541259904E+04    0.43566E-02   -0.52115E-02  6058   0.112E-01    0.764E-01
RMM:   5    -0.231540824719E+04    0.43518E-02   -0.15818E-02  5044   0.729E-02    0.476E-01
RMM:   6    -0.231540603753E+04    0.22097E-02   -0.84875E-03  5229   0.577E-02    0.178E-01
RMM:   7    -0.231540566877E+04    0.36875E-03   -0.13753E-03  5177   0.319E-02    0.832E-02
RMM:   8    -0.231540550452E+04    0.16425E-03   -0.47702E-04  4658   0.142E-02    0.367E-02
RMM:   9    -0.231540548208E+04    0.22448E-04   -0.17380E-04  3863   0.966E-03    0.172E-02
RMM:  10    -0.231540547667E+04    0.54037E-05   -0.39667E-05  3269   0.598E-03
  17 F= -.23359931E+04 E0= -.23359931E+04  d E =-.162650E+00  mag=     2.0000
       N       E                     dE             d eps       ncg     rms          rms(c)
DAV:   1    -0.231319076728E+04    0.22147E+01   -0.21632E+02  4440   0.152E+01    0.400E+00
RMM:   2    -0.231530958499E+04   -0.21188E+01   -0.22465E+01  6009   0.310E+00    0.289E+00
RMM:   3    -0.231548690685E+04   -0.17732E+00   -0.22951E+00  5539   0.964E-01    0.369E+00
RMM:   4    -0.231538458259E+04    0.10232E+00   -0.20858E-01  6112   0.252E-01    0.141E+00
RMM:   5    -0.231536693444E+04    0.17648E-01   -0.76042E-02  4912   0.146E-01    0.815E-01
RMM:   6    -0.231536104885E+04    0.58856E-02   -0.36454E-02  5358   0.118E-01    0.395E-01
RMM:   7    -0.231535943223E+04    0.16166E-02   -0.81854E-03  5498   0.727E-02    0.226E-01
RMM:   8    -0.231535860243E+04    0.82981E-03   -0.18091E-03  5206   0.295E-02    0.837E-02
RMM:   9    -0.231535850495E+04    0.97474E-04   -0.64051E-04  4755   0.172E-02    0.398E-02
RMM:  10    -0.231535850603E+04   -0.10732E-05   -0.19781E-04  4592   0.108E-02    0.209E-02
RMM:  11    -0.231535853360E+04   -0.27574E-04   -0.44981E-05  3519   0.713E-03    0.124E-02
RMM:  12    -0.231535857429E+04   -0.40686E-04   -0.36065E-05  3251   0.534E-03    0.748E-03
RMM:  13    -0.231535861463E+04   -0.40344E-04   -0.22398E-05  3076   0.504E-03    0.426E-03
RMM:  14    -0.231535863847E+04   -0.23841E-04   -0.11435E-05  2810   0.423E-03    0.263E-03
RMM:  15    -0.231535865557E+04   -0.17096E-04   -0.76652E-06  2801   0.354E-03    0.203E-03
RMM:  16    -0.231535866333E+04   -0.77623E-05   -0.41865E-06  2756   0.273E-03
  18 F= -.23359411E+04 E0= -.23359411E+04  d E =-.110622E+00  mag=     2.0000
       N       E                     dE             d eps       ncg     rms          rms(c)
DAV:   1    -0.231454794005E+04    0.81072E+00   -0.90978E+01  4472   0.983E+00    0.249E+00
RMM:   2    -0.231539542003E+04   -0.84748E+00   -0.90587E+00  6069   0.205E+00    0.134E+00
RMM:   3    -0.231544245619E+04   -0.47036E-01   -0.85203E-01  5636   0.588E-01    0.110E+00
RMM:   4    -0.231544267916E+04   -0.22297E-03   -0.86290E-02  5735   0.149E-01    0.105E+00
RMM:   5    -0.231543461856E+04    0.80606E-02   -0.24281E-02  5117   0.914E-02    0.639E-01
RMM:   6    -0.231543178748E+04    0.28311E-02   -0.98518E-03  5150   0.647E-02    0.276E-01
RMM:   7    -0.231543070414E+04    0.10833E-02   -0.38007E-03  5382   0.471E-02    0.104E-01
RMM:   8    -0.231543047161E+04    0.23253E-03   -0.64635E-04  5014   0.164E-02    0.527E-02
RMM:   9    -0.231543040795E+04    0.63655E-04   -0.17538E-04  4034   0.108E-02    0.239E-02
RMM:  10    -0.231543038471E+04    0.23239E-04   -0.10133E-04  4057   0.779E-03    0.160E-02
RMM:  11    -0.231543038255E+04    0.21670E-05   -0.18894E-05  2935   0.575E-03
  19 F= -.23360164E+04 E0= -.23360164E+04  d E =-.185957E+00  mag=     2.0000
       N       E                     dE             d eps       ncg     rms          rms(c)
DAV:   1    -0.231542096631E+04    0.94184E-02   -0.45412E+00  4496   0.216E+00    0.551E-01
RMM:   2    -0.231546779767E+04   -0.46831E-01   -0.49664E-01  6200   0.457E-01    0.297E-01
RMM:   3    -0.231547088508E+04   -0.30874E-02   -0.43788E-02  5593   0.125E-01    0.275E-01
RMM:   4    -0.231547101365E+04   -0.12856E-03   -0.46257E-03  5393   0.299E-02    0.249E-01
RMM:   5    -0.231547050534E+04    0.50831E-03   -0.10666E-03  4729   0.200E-02    0.100E-01
RMM:   6    -0.231547042929E+04    0.76047E-04   -0.47508E-04  4745   0.168E-02    0.357E-02
RMM:   7    -0.231547042242E+04    0.68672E-05   -0.52473E-05  3058   0.647E-03
  20 F= -.23360558E+04 E0= -.23360558E+04  d E =-.394087E-01  mag=     2.0000
       N       E                     dE             d eps       ncg     rms          rms(c)
DAV:   1    -0.231512998490E+04    0.34044E+00   -0.40784E+01  4472   0.650E+00    0.166E+00
RMM:   2    -0.231555259708E+04   -0.42261E+00   -0.44937E+00  6174   0.136E+00    0.951E-01
RMM:   3    -0.231558681699E+04   -0.34220E-01   -0.46774E-01  5612   0.393E-01    0.957E-01
RMM:   4    -0.231558502576E+04    0.17912E-02   -0.42457E-02  6117   0.936E-02    0.782E-01
RMM:   5    -0.231558115985E+04    0.38659E-02   -0.10531E-02  5128   0.523E-02    0.408E-01
RMM:   6    -0.231557947593E+04    0.16839E-02   -0.58391E-03  5122   0.455E-02    0.158E-01
RMM:   7    -0.231557938617E+04    0.89764E-04   -0.93184E-04  5037   0.274E-02    0.666E-02
RMM:   8    -0.231557931734E+04    0.68825E-04   -0.21288E-04  3624   0.108E-02    0.310E-02
RMM:   9    -0.231557931687E+04    0.47169E-06   -0.11361E-04  3217   0.741E-03    0.125E-02
RMM:  10    -0.231557932072E+04   -0.38473E-05   -0.15820E-05  2880   0.430E-03
  21 F= -.23361626E+04 E0= -.23361626E+04  d E =-.146154E+00  mag=     2.0000
       N       E                     dE             d eps       ncg     rms          rms(c)
DAV:   1    -0.231386504648E+04    0.17143E+01   -0.16208E+02  4472   0.130E+01    0.336E+00
RMM:   2    -0.231563277923E+04   -0.17677E+01   -0.18836E+01  6119   0.270E+00    0.193E+00
RMM:   3    -0.231578790839E+04   -0.15513E+00   -0.19211E+00  5572   0.798E-01    0.246E+00
RMM:   4    -0.231575848511E+04    0.29423E-01   -0.15466E-01  6290   0.188E-01    0.159E+00
RMM:   5    -0.231574368767E+04    0.14797E-01   -0.40121E-02  5291   0.969E-02    0.840E-01
RMM:   6    -0.231573638463E+04    0.73030E-02   -0.23477E-02  5027   0.862E-02    0.405E-01
RMM:   7    -0.231573581059E+04    0.57404E-03   -0.78627E-03  5021   0.695E-02    0.210E-01
RMM:   8    -0.231573529693E+04    0.51366E-03   -0.12560E-03  5167   0.290E-02    0.883E-02
RMM:   9    -0.231573522001E+04    0.76920E-04   -0.51268E-04  4162   0.119E-02    0.345E-02
RMM:  10    -0.231573523738E+04   -0.17369E-04   -0.12909E-04  3457   0.798E-03    0.187E-02
RMM:  11    -0.231573525314E+04   -0.15767E-04   -0.19718E-05  2878   0.468E-03    0.881E-03
RMM:  12    -0.231573526461E+04   -0.11471E-04   -0.70585E-06  2828   0.326E-03    0.443E-03
RMM:  13    -0.231573527563E+04   -0.11013E-04   -0.47267E-06  2813   0.255E-03    0.306E-03
RMM:  14    -0.231573528410E+04   -0.84721E-05   -0.32803E-06  2796   0.227E-03
  22 F= -.23363130E+04 E0= -.23363130E+04  d E =-.296584E+00  mag=     2.0000
       N       E                     dE             d eps       ncg     rms          rms(c)
DAV:   1    -0.230699205405E+04    0.87432E+01   -0.63591E+02  4472   0.261E+01    0.727E+00
RMM:   2    -0.231682237740E+04   -0.98303E+01   -0.89169E+01  6164   0.579E+00    0.586E+00
RMM:   3    -0.231576246408E+04    0.10599E+01   -0.77560E+00  5533   0.170E+00    0.441E+00
RMM:   4    -0.231586665504E+04   -0.10419E+00   -0.63145E-01  6205   0.371E-01    0.455E+00
RMM:   5    -0.231577424548E+04    0.92410E-01   -0.15593E-01  5746   0.193E-01    0.251E+00
RMM:   6    -0.231571579147E+04    0.58454E-01   -0.13125E-01  4754   0.206E-01    0.111E+00
RMM:   7    -0.231570705892E+04    0.87326E-02   -0.75689E-02  5154   0.179E-01    0.789E-01
RMM:   8    -0.231570422571E+04    0.28332E-02   -0.10852E-02  5840   0.810E-02    0.443E-01
RMM:   9    -0.231570333665E+04    0.88906E-03   -0.25014E-03  5155   0.289E-02    0.210E-01
RMM:  10    -0.231570327616E+04    0.60483E-04   -0.68281E-04  4741   0.178E-02    0.839E-02
RMM:  11    -0.231570342467E+04   -0.14851E-03   -0.13730E-04  3518   0.882E-03    0.855E-02
RMM:  12    -0.231570351971E+04   -0.95041E-04   -0.65306E-05  2970   0.588E-03    0.711E-02
RMM:  13    -0.231570367850E+04   -0.15879E-03   -0.14431E-04  3571   0.726E-03    0.496E-02
RMM:  14    -0.231570377488E+04   -0.96376E-04   -0.13508E-04  3400   0.737E-03    0.246E-02
RMM:  15    -0.231570380279E+04   -0.27907E-04   -0.47154E-05  2872   0.529E-03    0.947E-03
RMM:  16    -0.231570381265E+04   -0.98656E-05   -0.16554E-05  2836   0.357E-03
  23 F= -.23362658E+04 E0= -.23362658E+04  d E =-.249406E+00  mag=     2.0000
       N       E                     dE             d eps       ncg     rms          rms(c)
DAV:   1    -0.231282442267E+04    0.28794E+01   -0.24052E+02  4432   0.160E+01    0.404E+00
RMM:   2    -0.231573354510E+04   -0.29091E+01   -0.30681E+01  6227   0.368E+00    0.254E+00
RMM:   3    -0.231580230448E+04   -0.68759E-01   -0.23460E+00  5605   0.942E-01    0.190E+00
RMM:   4    -0.231582480686E+04   -0.22502E-01   -0.24202E-01  5893   0.200E-01    0.224E+00
RMM:   5    -0.231579634985E+04    0.28457E-01   -0.49613E-02  5759   0.118E-01    0.121E+00
RMM:   6    -0.231578540729E+04    0.10943E-01   -0.31025E-02  4535   0.113E-01    0.510E-01
RMM:   7    -0.231578394223E+04    0.14651E-02   -0.11580E-02  4969   0.896E-02    0.266E-01
RMM:   8    -0.231578357610E+04    0.36613E-03   -0.14746E-03  5468   0.272E-02    0.116E-01
RMM:   9    -0.231578350136E+04    0.74745E-04   -0.36468E-04  4144   0.144E-02    0.531E-02
RMM:  10    -0.231578350933E+04   -0.79710E-05   -0.16953E-04  3815   0.850E-03    0.229E-02
RMM:  11    -0.231578352484E+04   -0.15509E-04   -0.42638E-05  3008   0.627E-03    0.150E-02
RMM:  12    -0.231578353420E+04   -0.93600E-05   -0.16644E-05  2862   0.429E-03
  24 F= -.23363558E+04 E0= -.23363558E+04  d E =-.339390E+00  mag=     2.0000
       N       E                     dE             d eps       ncg     rms          rms(c)
DAV:   1    -0.231556032470E+04    0.22320E+00   -0.28409E+01  4464   0.547E+00    0.162E+00
RMM:   2    -0.231593037692E+04   -0.37005E+00   -0.39298E+00  6061   0.122E+00    0.957E-01
RMM:   3    -0.231595716368E+04   -0.26787E-01   -0.36652E-01  5770   0.351E-01    0.106E+00
RMM:   4    -0.231595483678E+04    0.23269E-02   -0.38752E-02  5603   0.871E-02    0.726E-01
RMM:   5    -0.231595240214E+04    0.24346E-02   -0.97300E-03  5569   0.558E-02    0.518E-01
RMM:   6    -0.231594981055E+04    0.25916E-02   -0.39933E-03  5376   0.408E-02    0.141E-01
RMM:   7    -0.231594982565E+04   -0.15103E-04   -0.10410E-03  4810   0.261E-02    0.128E-01
RMM:   8    -0.231594971260E+04    0.11305E-03   -0.18688E-04  4104   0.116E-02    0.355E-02
RMM:   9    -0.231594969580E+04    0.16804E-04   -0.75335E-05  3360   0.759E-03    0.115E-02
RMM:  10    -0.231594969717E+04   -0.13650E-05   -0.19881E-05  2874   0.489E-03
  25 F= -.23365195E+04 E0= -.23365195E+04  d E =-.163652E+00  mag=     2.0000
       N       E                     dE             d eps       ncg     rms          rms(c)
DAV:   1    -0.231502865201E+04    0.92104E+00   -0.75125E+01  4440   0.889E+00    0.263E+00
RMM:   2    -0.231601041355E+04   -0.98176E+00   -0.10375E+01  5976   0.193E+00    0.178E+00
RMM:   3    -0.231609591138E+04   -0.85498E-01   -0.10305E+00  5593   0.668E-01    0.250E+00
RMM:   4    -0.231606494004E+04    0.30971E-01   -0.91611E-02  5750   0.150E-01    0.101E+00
RMM:   5    -0.231605996743E+04    0.49726E-02   -0.24596E-02  5555   0.900E-02    0.748E-01
RMM:   6    -0.231605433493E+04    0.56325E-02   -0.11185E-02  5478   0.656E-02    0.256E-01
RMM:   7    -0.231605406125E+04    0.27368E-03   -0.32429E-03  4808   0.446E-02    0.179E-01
RMM:   8    -0.231605386468E+04    0.19657E-03   -0.55210E-04  4789   0.217E-02    0.747E-02
RMM:   9    -0.231605380996E+04    0.54717E-04   -0.19285E-04  4111   0.108E-02    0.203E-02
RMM:  10    -0.231605381581E+04   -0.58462E-05   -0.49754E-05  3145   0.670E-03
  26 F= -.23366189E+04 E0= -.23366189E+04  d E =-.263096E+00  mag=     2.0000
       N       E                     dE             d eps       ncg     rms          rms(c)
DAV:   1    -0.231586331043E+04    0.19050E+00   -0.20397E+01  4456   0.446E+00    0.145E+00
RMM:   2    -0.231617730064E+04   -0.31399E+00   -0.33136E+00  6057   0.103E+00    0.111E+00
RMM:   3    -0.231620362091E+04   -0.26320E-01   -0.32034E-01  5824   0.315E-01    0.143E+00
RMM:   4    -0.231619219526E+04    0.11426E-01   -0.32583E-02  5696   0.853E-02    0.491E-01
RMM:   5    -0.231619029102E+04    0.19042E-02   -0.68506E-03  5222   0.477E-02    0.324E-01
RMM:   6    -0.231618967205E+04    0.61897E-03   -0.33759E-03  5638   0.360E-02    0.219E-01
RMM:   7    -0.231618926492E+04    0.40713E-03   -0.10001E-03  5128   0.235E-02    0.108E-01
RMM:   8    -0.231618915214E+04    0.11278E-03   -0.19401E-04  4031   0.885E-03    0.432E-02
RMM:   9    -0.231618910830E+04    0.43837E-04   -0.12166E-04  3794   0.820E-03    0.138E-02
RMM:  10    -0.231618910385E+04    0.44536E-05   -0.22261E-05  2909   0.517E-03
  27 F= -.23367530E+04 E0= -.23367530E+04  d E =-.134128E+00  mag=     2.0000
       N       E                     dE             d eps       ncg     rms          rms(c)
DAV:   1    -0.231575292610E+04    0.43618E+00   -0.31379E+01  4440   0.552E+00    0.181E+00
RMM:   2    -0.231624110586E+04   -0.48818E+00   -0.51589E+00  6011   0.127E+00    0.141E+00
RMM:   3    -0.231627813650E+04   -0.37031E-01   -0.50293E-01  5771   0.398E-01    0.168E+00
RMM:   4    -0.231626085739E+04    0.17279E-01   -0.49343E-02  5651   0.105E-01    0.570E-01
RMM:   5    -0.231625789608E+04    0.29613E-02   -0.99609E-03  5228   0.584E-02    0.359E-01
RMM:   6    -0.231625732694E+04    0.56914E-03   -0.49773E-03  5499   0.445E-02    0.297E-01
RMM:   7    -0.231625654989E+04    0.77704E-03   -0.14258E-03  5360   0.297E-02    0.112E-01
RMM:   8    -0.231625639482E+04    0.15508E-03   -0.28182E-04  4297   0.984E-03    0.534E-02
RMM:   9    -0.231625632095E+04    0.73866E-04   -0.18143E-04  4177   0.100E-02    0.156E-02
RMM:  10    -0.231625631423E+04    0.67248E-05   -0.32474E-05  3062   0.555E-03
  28 F= -.23368184E+04 E0= -.23368184E+04  d E =-.199454E+00  mag=     2.0000
       N       E                     dE             d eps       ncg     rms          rms(c)
DAV:   1    -0.231603959725E+04    0.21672E+00   -0.23411E+01  4408   0.468E+00    0.149E+00
RMM:   2    -0.231639412859E+04   -0.35453E+00   -0.37138E+00  5974   0.102E+00    0.138E+00
RMM:   3    -0.231641190092E+04   -0.17772E-01   -0.38847E-01  5796   0.338E-01    0.123E+00
RMM:   4    -0.231640225441E+04    0.96465E-02   -0.34663E-02  5521   0.877E-02    0.475E-01
RMM:   5    -0.231640027784E+04    0.19766E-02   -0.63769E-03  5406   0.489E-02    0.297E-01
RMM:   6    -0.231639926065E+04    0.10172E-02   -0.48885E-03  4870   0.431E-02    0.147E-01
RMM:   7    -0.231639906518E+04    0.19548E-03   -0.66080E-04  4986   0.267E-02    0.791E-02
RMM:   8    -0.231639901191E+04    0.53266E-04   -0.20377E-04  4329   0.855E-03    0.600E-02
RMM:   9    -0.231639896927E+04    0.42639E-04   -0.86811E-05  3030   0.785E-03    0.156E-02
RMM:  10    -0.231639896631E+04    0.29564E-05   -0.19912E-05  2886   0.437E-03
  29 F= -.23369600E+04 E0= -.23369600E+04  d E =-.141631E+00  mag=     2.0000
       N       E                     dE             d eps       ncg     rms          rms(c)
DAV:   1    -0.231623709303E+04    0.16188E+00   -0.12858E+01  4408   0.347E+00    0.110E+00
RMM:   2    -0.231642819833E+04   -0.19111E+00   -0.20315E+00  6002   0.774E-01    0.877E-01
RMM:   3    -0.231644023009E+04   -0.12032E-01   -0.21063E-01  5778   0.247E-01    0.820E-01
RMM:   4    -0.231643599331E+04    0.42368E-02   -0.18407E-02  5619   0.641E-02    0.354E-01
RMM:   5    -0.231643495046E+04    0.10429E-02   -0.36194E-03  5345   0.371E-02    0.228E-01
RMM:   6    -0.231643435481E+04    0.59565E-03   -0.25752E-03  4917   0.312E-02    0.108E-01
RMM:   7    -0.231643424953E+04    0.10528E-03   -0.37722E-04  4805   0.195E-02    0.649E-02
RMM:   8    -0.231643420994E+04    0.39590E-04   -0.11655E-04  3662   0.677E-03    0.408E-02
RMM:   9    -0.231643418764E+04    0.22295E-04   -0.53037E-05  2954   0.626E-03    0.962E-03
RMM:  10    -0.231643419003E+04   -0.23888E-05   -0.15183E-05  2870   0.406E-03
  30 F= -.23369942E+04 E0= -.23369942E+04  d E =-.175857E+00  mag=     2.0000
       N       E                     dE             d eps       ncg     rms          rms(c)
DAV:   1    -0.231645253295E+04   -0.18345E-01   -0.82678E+00  4436   0.301E+00    0.836E-01
RMM:   2    -0.231651705247E+04   -0.64520E-01   -0.71296E-01  5633   0.566E-01    0.440E-01
RMM:   3    -0.231652000281E+04   -0.29503E-02   -0.69476E-02  5101   0.221E-01    0.368E-01
RMM:   4    -0.231652002356E+04   -0.20749E-04   -0.80006E-03  5477   0.507E-02    0.386E-01
RMM:   5    -0.231651893321E+04    0.10903E-02   -0.36803E-03  5371   0.417E-02    0.189E-01
RMM:   6    -0.231651852157E+04    0.41164E-03   -0.78905E-04  5287   0.206E-02    0.622E-02
RMM:   7    -0.231651846505E+04    0.56521E-04   -0.16235E-04  3872   0.117E-02    0.454E-02
RMM:   8    -0.231651843191E+04    0.33142E-04   -0.61262E-05  3258   0.584E-03    0.132E-02
RMM:   9    -0.231651842213E+04    0.97748E-05   -0.15438E-05  2871   0.471E-03
  31 F= -.23370776E+04 E0= -.23370776E+04  d E =-.833282E-01  mag=     2.0000
       N       E                     dE             d eps       ncg     rms          rms(c)
DAV:   1    -0.231647749502E+04    0.40937E-01   -0.92093E+00  4408   0.317E+00    0.882E-01
RMM:   2    -0.231654984260E+04   -0.72348E-01   -0.80064E-01  5652   0.596E-01    0.465E-01
RMM:   3    -0.231655311531E+04   -0.32727E-02   -0.77460E-02  5152   0.231E-01    0.393E-01
RMM:   4    -0.231655314157E+04   -0.26261E-04   -0.90533E-03  5499   0.530E-02    0.410E-01
RMM:   5    -0.231655176560E+04    0.13760E-02   -0.42229E-03  5336   0.446E-02    0.179E-01
RMM:   6    -0.231655140182E+04    0.36378E-03   -0.73619E-04  5281   0.210E-02    0.640E-02
RMM:   7    -0.231655134145E+04    0.60372E-04   -0.19046E-04  3942   0.111E-02    0.481E-02
RMM:   8    -0.231655130127E+04    0.40174E-04   -0.66873E-05  3368   0.608E-03    0.144E-02
RMM:   9    -0.231655129181E+04    0.94568E-05   -0.19256E-05  2936   0.507E-03
  32 F= -.23371095E+04 E0= -.23371095E+04  d E =-.115228E+00  mag=     2.0000
       N       E                     dE             d eps       ncg     rms          rms(c)
DAV:   1    -0.231656962351E+04   -0.18322E-01   -0.71316E+00  4436   0.285E+00    0.718E-01
RMM:   2    -0.231661656899E+04   -0.46945E-01   -0.52543E-01  5631   0.510E-01    0.383E-01
RMM:   3    -0.231661884310E+04   -0.22741E-02   -0.48917E-02  4990   0.188E-01    0.417E-01
RMM:   4    -0.231661823971E+04    0.60340E-03   -0.52317E-03  5623   0.418E-02    0.315E-01
RMM:   5    -0.231661710772E+04    0.11320E-02   -0.28287E-03  5055   0.372E-02    0.930E-02
RMM:   6    -0.231661701268E+04    0.95038E-04   -0.55479E-04  4747   0.224E-02    0.407E-02
RMM:   7    -0.231661696955E+04    0.43130E-04   -0.10502E-04  3791   0.699E-03    0.238E-02
RMM:   8    -0.231661694982E+04    0.19734E-04   -0.27724E-05  2920   0.642E-03    0.107E-02
RMM:   9    -0.231661694143E+04    0.83872E-05   -0.18920E-05  2947   0.448E-03
  33 F= -.23371746E+04 E0= -.23371746E+04  d E =-.651161E-01  mag=     2.0000
       N       E                     dE             d eps       ncg     rms          rms(c)
DAV:   1    -0.231655247337E+04    0.64476E-01   -0.15054E+01  4408   0.413E+00    0.104E+00
RMM:   2    -0.231665169017E+04   -0.99217E-01   -0.11108E+00  5643   0.741E-01    0.563E-01
RMM:   3    -0.231665650959E+04   -0.48194E-02   -0.10441E-01  5022   0.268E-01    0.621E-01
RMM:   4    -0.231665495980E+04    0.15498E-02   -0.11050E-02  5679   0.606E-02    0.452E-01
RMM:   5    -0.231665271408E+04    0.22457E-02   -0.65050E-03  5145   0.551E-02    0.165E-01
RMM:   6    -0.231665231454E+04    0.39954E-03   -0.15210E-03  5072   0.326E-02    0.604E-02
RMM:   7    -0.231665219585E+04    0.11869E-03   -0.25416E-04  4191   0.100E-02    0.333E-02
RMM:   8    -0.231665213627E+04    0.59573E-04   -0.91397E-05  4028   0.937E-03    0.157E-02
RMM:   9    -0.231665211502E+04    0.21253E-04   -0.34983E-05  3302   0.540E-03    0.905E-03
RMM:  10    -0.231665210611E+04    0.89079E-05   -0.18737E-05  2883   0.529E-03
  34 F= -.23372090E+04 E0= -.23372090E+04  d E =-.995281E-01  mag=     2.0000
       N       E                     dE             d eps       ncg     rms          rms(c)
DAV:   1    -0.231666486281E+04   -0.12748E-01   -0.10195E+01  4408   0.339E+00    0.725E-01
RMM:   2    -0.231671741646E+04   -0.52554E-01   -0.56543E-01  5811   0.587E-01    0.526E-01
RMM:   3    -0.231671997028E+04   -0.25538E-02   -0.40963E-02  5207   0.176E-01    0.689E-01
RMM:   4    -0.231671656147E+04    0.34088E-02   -0.57059E-03  5481   0.473E-02    0.265E-01
RMM:   5    -0.231671595632E+04    0.60515E-03   -0.25633E-03  5036   0.355E-02    0.158E-01
RMM:   6    -0.231671559331E+04    0.36301E-03   -0.14626E-03  5212   0.292E-02    0.410E-02
RMM:   7    -0.231671556281E+04    0.30501E-04   -0.11667E-04  4224   0.117E-02    0.211E-02
RMM:   8    -0.231671555086E+04    0.11956E-04   -0.32786E-05  3057   0.486E-03    0.109E-02
RMM:   9    -0.231671554700E+04    0.38575E-05   -0.89845E-06  2837   0.370E-03
  35 F= -.23372726E+04 E0= -.23372726E+04  d E =-.636578E-01  mag=     2.0000
       N       E                     dE             d eps       ncg     rms          rms(c)
DAV:   1    -0.231661972612E+04    0.95825E-01   -0.27898E+01  4408   0.560E+00    0.120E+00
RMM:   2    -0.231676412653E+04   -0.14440E+00   -0.15566E+00  5754   0.962E-01    0.862E-01
RMM:   3    -0.231677092842E+04   -0.68019E-02   -0.11559E-01  5080   0.306E-01    0.110E+00
RMM:   4    -0.231676219323E+04    0.87352E-02   -0.15604E-02  5504   0.788E-02    0.456E-01
RMM:   5    -0.231676051905E+04    0.16742E-02   -0.68253E-03  5110   0.575E-02    0.281E-01
RMM:   6    -0.231675936339E+04    0.11557E-02   -0.42609E-03  4967   0.489E-02    0.759E-02
RMM:   7    -0.231675928076E+04    0.82629E-04   -0.37586E-04  4853   0.262E-02    0.356E-02
RMM:   8    -0.231675924631E+04    0.34454E-04   -0.10362E-04  4052   0.746E-03    0.193E-02
RMM:   9    -0.231675923498E+04    0.11328E-04   -0.21877E-05  2938   0.635E-03    0.789E-03
RMM:  10    -0.231675923432E+04    0.66543E-06   -0.13147E-05  2825   0.412E-03
  36 F= -.23373167E+04 E0= -.23373167E+04  d E =-.107764E+00  mag=     2.0000
       N       E                     dE             d eps       ncg     rms          rms(c)
DAV:   1    -0.231674018795E+04    0.19047E-01   -0.14238E+01  4408   0.404E+00    0.982E-01
RMM:   2    -0.231682768660E+04   -0.87499E-01   -0.94243E-01  5823   0.730E-01    0.693E-01
RMM:   3    -0.231683084386E+04   -0.31573E-02   -0.72317E-02  5102   0.224E-01    0.852E-01
RMM:   4    -0.231682550007E+04    0.53438E-02   -0.10464E-02  5742   0.600E-02    0.361E-01
RMM:   5    -0.231682429141E+04    0.12087E-02   -0.35211E-03  5095   0.392E-02    0.199E-01
RMM:   6    -0.231682377046E+04    0.52095E-03   -0.21956E-03  4970   0.362E-02    0.584E-02
RMM:   7    -0.231682372802E+04    0.42439E-04   -0.19995E-04  4709   0.187E-02    0.287E-02
RMM:   8    -0.231682371384E+04    0.14182E-04   -0.48392E-05  3243   0.542E-03    0.130E-02
RMM:   9    -0.231682370976E+04    0.40767E-05   -0.10857E-05  2853   0.389E-03
  37 F= -.23373824E+04 E0= -.23373824E+04  d E =-.656693E-01  mag=     2.0000
       N       E                     dE             d eps       ncg     rms          rms(c)
DAV:   1    -0.231678067367E+04    0.43040E-01   -0.10399E+01  4408   0.345E+00    0.838E-01
RMM:   2    -0.231684455286E+04   -0.63879E-01   -0.68623E-01  5815   0.618E-01    0.608E-01
RMM:   3    -0.231684661333E+04   -0.20605E-02   -0.51944E-02  5119   0.192E-01    0.722E-01
RMM:   4    -0.231684270655E+04    0.39068E-02   -0.76580E-03  5713   0.512E-02    0.304E-01
RMM:   5    -0.231684182246E+04    0.88408E-03   -0.25624E-03  5079   0.334E-02    0.170E-01
RMM:   6    -0.231684142594E+04    0.39652E-03   -0.16190E-03  4958   0.312E-02    0.497E-02
RMM:   7    -0.231684139204E+04    0.33900E-04   -0.15067E-04  4564   0.164E-02    0.239E-02
RMM:   8    -0.231684138047E+04    0.11573E-04   -0.38772E-05  3122   0.487E-03    0.116E-02
RMM:   9    -0.231684137728E+04    0.31861E-05   -0.92272E-06  2852   0.346E-03
  38 F= -.23374012E+04 E0= -.23374012E+04  d E =-.844068E-01  mag=     2.0000
       N       E                     dE             d eps       ncg     rms          rms(c)
DAV:   1    -0.231684810932E+04   -0.67288E-02   -0.69333E+00  4432   0.280E+00    0.689E-01
RMM:   2    -0.231687856631E+04   -0.30457E-01   -0.33411E-01  5816   0.495E-01    0.460E-01
RMM:   3    -0.231688021618E+04   -0.16499E-02   -0.25867E-02  5361   0.146E-01    0.628E-01
RMM:   4    -0.231687691036E+04    0.33058E-02   -0.42558E-03  5650   0.435E-02    0.207E-01
RMM:   5    -0.231687654337E+04    0.36699E-03   -0.18712E-03  4926   0.325E-02    0.133E-01
RMM:   6    -0.231687629090E+04    0.25247E-03   -0.92962E-04  5312   0.245E-02    0.373E-02
RMM:   7    -0.231687626943E+04    0.21463E-04   -0.10094E-04  3924   0.105E-02    0.191E-02
RMM:   8    -0.231687626521E+04    0.42275E-05   -0.24134E-05  2928   0.475E-03
  39 F= -.23374370E+04 E0= -.23374370E+04  d E =-.358347E-01  mag=     2.0000
       N       E                     dE             d eps       ncg     rms          rms(c)
DAV:   1    -0.231686686486E+04    0.94046E-02   -0.44828E+00  4464   0.226E+00    0.554E-01
RMM:   2    -0.231688643300E+04   -0.19568E-01   -0.21563E-01  5807   0.399E-01    0.360E-01
RMM:   3    -0.231688739899E+04   -0.96600E-03   -0.16413E-02  5363   0.118E-01    0.481E-01
RMM:   4    -0.231688543899E+04    0.19600E-02   -0.27140E-03  5689   0.349E-02    0.168E-01
RMM:   5    -0.231688518578E+04    0.25320E-03   -0.12168E-03  4924   0.261E-02    0.106E-01
RMM:   6    -0.231688502275E+04    0.16304E-03   -0.59099E-04  5245   0.198E-02    0.300E-02
RMM:   7    -0.231688500875E+04    0.14000E-04   -0.64457E-05  3417   0.821E-03    0.151E-02
RMM:   8    -0.231688500724E+04    0.15058E-05   -0.17577E-05  2865   0.435E-03
  40 F= -.23374465E+04 E0= -.23374465E+04  d E =-.453471E-01  mag=     2.0000
       N       E                     dE             d eps       ncg     rms          rms(c)
DAV:   1    -0.231690482369E+04   -0.19815E-01   -0.60549E+00  4408   0.260E+00    0.508E-01
RMM:   2    -0.231692450221E+04   -0.19679E-01   -0.21460E-01  5671   0.426E-01    0.338E-01
RMM:   3    -0.231692512347E+04   -0.62126E-03   -0.13218E-02  5328   0.126E-01    0.445E-01
RMM:   4    -0.231692344778E+04    0.16757E-02   -0.21835E-03  5635   0.343E-02    0.166E-01
RMM:   5    -0.231692309665E+04    0.35113E-03   -0.17129E-03  4656   0.333E-02    0.435E-02
RMM:   6    -0.231692310060E+04   -0.39483E-05   -0.14865E-04  4011   0.190E-02    0.220E-02
RMM:   7    -0.231692309446E+04    0.61399E-05   -0.26102E-05  2930   0.433E-03
  41 F= -.23374848E+04 E0= -.23374848E+04  d E =-.383029E-01  mag=     2.0000
       N       E                     dE             d eps       ncg     rms          rms(c)
DAV:   1    -0.231687105439E+04    0.52046E-01   -0.32948E+01  4408   0.607E+00    0.119E+00
RMM:   2    -0.231697598892E+04   -0.10493E+00   -0.11494E+00  5681   0.992E-01    0.764E-01
RMM:   3    -0.231697870757E+04   -0.27187E-02   -0.69608E-02  5286   0.282E-01    0.966E-01
RMM:   4    -0.231697059916E+04    0.81084E-02   -0.11687E-02  5800   0.789E-02    0.392E-01
RMM:   5    -0.231696871833E+04    0.18808E-02   -0.88919E-03  4650   0.745E-02    0.122E-01
RMM:   6    -0.231696865894E+04    0.59388E-04   -0.96189E-04  4679   0.430E-02    0.629E-02
RMM:   7    -0.231696859510E+04    0.63842E-04   -0.16320E-04  4267   0.100E-02    0.343E-02
RMM:   8    -0.231696857353E+04    0.21572E-04   -0.59692E-05  3469   0.816E-03    0.163E-02
RMM:   9    -0.231696856884E+04    0.46935E-05   -0.25023E-05  2987   0.562E-03
  42 F= -.23375309E+04 E0= -.23375309E+04  d E =-.843754E-01  mag=     2.0000
       N       E                     dE             d eps       ncg     rms          rms(c)
DAV:   1    -0.231694826690E+04    0.20307E-01   -0.11440E+01  4452   0.369E+00    0.940E-01
RMM:   2    -0.231700697546E+04   -0.58709E-01   -0.64634E-01  5735   0.655E-01    0.457E-01
RMM:   3    -0.231700721196E+04   -0.23650E-03   -0.45546E-02  5190   0.207E-01    0.436E-01
RMM:   4    -0.231700643268E+04    0.77928E-03   -0.66119E-03  5624   0.543E-02    0.371E-01
RMM:   5    -0.231700493131E+04    0.15014E-02   -0.39999E-03  5049   0.480E-02    0.129E-01
RMM:   6    -0.231700470822E+04    0.22309E-03   -0.94396E-04  5120   0.269E-02    0.438E-02
RMM:   7    -0.231700466661E+04    0.41608E-04   -0.13335E-04  3867   0.830E-03    0.244E-02
RMM:   8    -0.231700464737E+04    0.19240E-04   -0.37693E-05  3212   0.688E-03    0.109E-02
RMM:   9    -0.231700463986E+04    0.75101E-05   -0.21013E-05  3012   0.520E-03
  43 F= -.23375668E+04 E0= -.23375668E+04  d E =-.359618E-01  mag=     2.0000
       N       E                     dE             d eps       ncg     rms          rms(c)
DAV:   1    -0.231700411091E+04    0.53646E-03   -0.22986E-01  4896   0.524E-01    0.133E-01
RMM:   2    -0.231700528007E+04   -0.11692E-02   -0.12968E-02  5855   0.948E-02    0.655E-02
RMM:   3    -0.231700528851E+04   -0.84426E-05   -0.96185E-04  4811   0.312E-02    0.636E-02
RMM:   4    -0.231700526882E+04    0.19695E-04   -0.12854E-04  3145   0.844E-03    0.518E-02
RMM:   5    -0.231700523465E+04    0.34167E-04   -0.82526E-05  3802   0.802E-03    0.152E-02
RMM:   6    -0.231700523228E+04    0.23731E-05   -0.20061E-05  2876   0.603E-03
  44 F= -.23375674E+04 E0= -.23375674E+04  d E =-.365414E-01  mag=     2.0000
       N       E                     dE             d eps       ncg     rms          rms(c)
DAV:   1    -0.231696389125E+04    0.41343E-01   -0.82604E+00  4432   0.312E+00    0.716E-01
RMM:   2    -0.231702933330E+04   -0.65442E-01   -0.70379E-01  5882   0.588E-01    0.416E-01
RMM:   3    -0.231703085519E+04   -0.15219E-02   -0.54107E-02  5497   0.177E-01    0.276E-01
RMM:   4    -0.231703044117E+04    0.41402E-03   -0.60342E-03  5081   0.419E-02    0.222E-01
RMM:   5    -0.231703062399E+04   -0.18282E-03   -0.23479E-03  5408   0.323E-02    0.300E-01
RMM:   6    -0.231702974876E+04    0.87524E-03   -0.13811E-03  4938   0.247E-02    0.315E-02
RMM:   7    -0.231702973267E+04    0.16089E-04   -0.12277E-04  3762   0.135E-02    0.209E-02
RMM:   8    -0.231702972350E+04    0.91644E-05   -0.29178E-05  2929   0.428E-03
  45 F= -.23375915E+04 E0= -.23375915E+04  d E =-.240376E-01  mag=     2.0000
       N       E                     dE             d eps       ncg     rms          rms(c)
DAV:   1    -0.231697541523E+04    0.54317E-01   -0.78514E+00  4420   0.304E+00    0.699E-01
RMM:   2    -0.231703752356E+04   -0.62108E-01   -0.66803E-01  5895   0.575E-01    0.410E-01
RMM:   3    -0.231703891274E+04   -0.13892E-02   -0.50879E-02  5527   0.166E-01    0.277E-01
RMM:   4    -0.231703858588E+04    0.32687E-03   -0.58349E-03  5161   0.408E-02    0.246E-01
RMM:   5    -0.231703848353E+04    0.10235E-03   -0.20700E-03  5419   0.298E-02    0.261E-01
RMM:   6    -0.231703777870E+04    0.70483E-03   -0.14078E-03  4799   0.255E-02    0.310E-02
RMM:   7    -0.231703776081E+04    0.17892E-04   -0.12028E-04  3767   0.142E-02    0.211E-02
RMM:   8    -0.231703775126E+04    0.95445E-05   -0.32663E-05  3061   0.426E-03
  46 F= -.23375991E+04 E0= -.23375991E+04  d E =-.316507E-01  mag=     2.0000
       N       E                     dE             d eps       ncg     rms          rms(c)
DAV:   1    -0.231701834482E+04    0.19416E-01   -0.61526E+00  4432   0.271E+00    0.644E-01
RMM:   2    -0.231706106362E+04   -0.42719E-01   -0.45904E-01  5901   0.518E-01    0.369E-01
RMM:   3    -0.231706135196E+04   -0.28834E-03   -0.32272E-02  5598   0.138E-01    0.264E-01
RMM:   4    -0.231706122648E+04    0.12548E-03   -0.42274E-03  5285   0.365E-02    0.263E-01
RMM:   5    -0.231706079685E+04    0.42963E-03   -0.15880E-03  5441   0.265E-02    0.171E-01
RMM:   6    -0.231706048500E+04    0.31185E-03   -0.81364E-04  4896   0.222E-02    0.282E-02
RMM:   7    -0.231706047920E+04    0.57964E-05   -0.86027E-05  3379   0.114E-02
  47 F= -.23376213E+04 E0= -.23376213E+04  d E =-.222547E-01  mag=     2.0000
       N       E                     dE             d eps       ncg     rms          rms(c)
DAV:   1    -0.231703298500E+04    0.27500E-01   -0.50753E+00  4420   0.246E+00    0.588E-01
RMM:   2    -0.231706828882E+04   -0.35304E-01   -0.37941E-01  5907   0.475E-01    0.340E-01
RMM:   3    -0.231706857058E+04   -0.28176E-03   -0.26772E-02  5590   0.125E-01    0.245E-01
RMM:   4    -0.231706846490E+04    0.10568E-03   -0.35573E-03  5297   0.334E-02    0.243E-01
RMM:   5    -0.231706807167E+04    0.39323E-03   -0.13162E-03  5400   0.240E-02    0.152E-01
RMM:   6    -0.231706781677E+04    0.25490E-03   -0.69233E-04  4910   0.205E-02    0.263E-02
RMM:   7    -0.231706780946E+04    0.73148E-05   -0.74936E-05  3318   0.106E-02
  48 F= -.23376283E+04 E0= -.23376283E+04  d E =-.291877E-01  mag=     2.0000
       N       E                     dE             d eps       ncg     rms          rms(c)
DAV:   1    -0.231705782224E+04    0.99945E-02   -0.36777E+00  4432   0.212E+00    0.516E-01
RMM:   2    -0.231708455834E+04   -0.26736E-01   -0.28811E-01  5801   0.400E-01    0.306E-01
RMM:   3    -0.231708574219E+04   -0.11838E-02   -0.20884E-02  5544   0.109E-01    0.353E-01
RMM:   4    -0.231708482431E+04    0.91788E-03   -0.27424E-03  5532   0.308E-02    0.162E-01
RMM:   5    -0.231708454967E+04    0.27465E-03   -0.11467E-03  4888   0.248E-02    0.800E-02
RMM:   6    -0.231708448528E+04    0.64389E-04   -0.30051E-04  4552   0.162E-02    0.301E-02
RMM:   7    -0.231708447482E+04    0.10457E-04   -0.45266E-05  3126   0.584E-03    0.159E-02
RMM:   8    -0.231708447204E+04    0.27748E-05   -0.13485E-05  2883   0.418E-03
  49 F= -.23376449E+04 E0= -.23376449E+04  d E =-.166411E-01  mag=     2.0000
       N       E                     dE             d eps       ncg     rms          rms(c)
DAV:   1    -0.231706271491E+04    0.21760E-01   -0.37925E+00  4432   0.215E+00    0.523E-01
RMM:   2    -0.231709034302E+04   -0.27628E-01   -0.29805E-01  5795   0.406E-01    0.310E-01
RMM:   3    -0.231709143285E+04   -0.10898E-02   -0.21608E-02  5537   0.115E-01    0.346E-01
RMM:   4    -0.231709055319E+04    0.87966E-03   -0.27929E-03  5510   0.313E-02    0.166E-01
RMM:   5    -0.231709026466E+04    0.28853E-03   -0.11607E-03  4906   0.252E-02    0.849E-02
RMM:   6    -0.231709018575E+04    0.78916E-04   -0.33784E-04  4601   0.165E-02    0.311E-02
RMM:   7    -0.231709017395E+04    0.11794E-04   -0.49100E-05  3221   0.612E-03    0.169E-02
RMM:   8    -0.231709016967E+04    0.42791E-05   -0.14543E-05  2893   0.436E-03
  50 F= -.23376506E+04 E0= -.23376506E+04  d E =-.223289E-01  mag=     2.0000
       N       E                     dE             d eps       ncg     rms          rms(c)
DAV:   1    -0.231708487603E+04    0.52979E-02   -0.45158E+00  4432   0.233E+00    0.522E-01
RMM:   2    -0.231710735245E+04   -0.22476E-01   -0.24400E-01  5611   0.399E-01    0.314E-01
RMM:   3    -0.231710803916E+04   -0.68671E-03   -0.18475E-02  5296   0.125E-01    0.357E-01
RMM:   4    -0.231710696100E+04    0.10782E-02   -0.23048E-03  5462   0.330E-02    0.163E-01
RMM:   5    -0.231710661896E+04    0.34204E-03   -0.14753E-03  4880   0.301E-02    0.616E-02
RMM:   6    -0.231710660039E+04    0.18576E-04   -0.19626E-04  4417   0.163E-02    0.275E-02
RMM:   7    -0.231710659048E+04    0.99067E-05   -0.40170E-05  3038   0.463E-03
  51 F= -.23376669E+04 E0= -.23376669E+04  d E =-.162638E-01  mag=     2.0000
       N       E                     dE             d eps       ncg     rms          rms(c)
DAV:   1    -0.231709531393E+04    0.11286E-01   -0.34470E+00  4432   0.204E+00    0.459E-01
RMM:   2    -0.231711248211E+04   -0.17168E-01   -0.18678E-01  5627   0.349E-01    0.275E-01
RMM:   3    -0.231711300078E+04   -0.51867E-03   -0.14231E-02  5293   0.107E-01    0.311E-01
RMM:   4    -0.231711216752E+04    0.83325E-03   -0.17713E-03  5471   0.289E-02    0.142E-01
RMM:   5    -0.231711189734E+04    0.27018E-03   -0.11559E-03  4859   0.264E-02    0.523E-02
RMM:   6    -0.231711188017E+04    0.17170E-04   -0.15020E-04  4213   0.146E-02    0.239E-02
RMM:   7    -0.231711187124E+04    0.89337E-05   -0.32728E-05  2958   0.408E-03
  52 F= -.23376720E+04 E0= -.23376720E+04  d E =-.214090E-01  mag=     2.0000
       N       E                     dE             d eps       ncg     rms          rms(c)
DAV:   1    -0.231712066518E+04   -0.87850E-02   -0.52778E+00  4464   0.244E+00    0.520E-01
RMM:   2    -0.231713231260E+04   -0.11647E-01   -0.13292E-01  5016   0.367E-01    0.276E-01
RMM:   3    -0.231713150795E+04    0.80466E-03   -0.72427E-03  4830   0.128E-01    0.278E-01
RMM:   4    -0.231713104888E+04    0.45907E-03   -0.19201E-03  5368   0.340E-02    0.203E-01
RMM:   5    -0.231713064376E+04    0.40512E-03   -0.13380E-03  5043   0.307E-02    0.765E-02
RMM:   6    -0.231713055196E+04    0.91799E-04   -0.25435E-04  4542   0.169E-02    0.239E-02
RMM:   7    -0.231713054034E+04    0.11620E-04   -0.38656E-05  3082   0.477E-03    0.129E-02
RMM:   8    -0.231713053652E+04    0.38176E-05   -0.91092E-06  2842   0.394E-03
  53 F= -.23376901E+04 E0= -.23376901E+04  d E =-.181035E-01  mag=     2.0000
       N       E                     dE             d eps       ncg     rms          rms(c)
DAV:   1    -0.231712993307E+04    0.60727E-03   -0.32178E+00  4432   0.191E+00    0.404E-01
RMM:   2    -0.231713712074E+04   -0.71877E-02   -0.82291E-02  5010   0.286E-01    0.215E-01
RMM:   3    -0.231713653226E+04    0.58848E-03   -0.43769E-03  4805   0.992E-02    0.202E-01
RMM:   4    -0.231713633114E+04    0.20112E-03   -0.11935E-03  5258   0.266E-02    0.168E-01
RMM:   5    -0.231713605906E+04    0.27208E-03   -0.85349E-04  5165   0.243E-02    0.665E-02
RMM:   6    -0.231713598645E+04    0.72613E-04   -0.17021E-04  4290   0.130E-02    0.188E-02
RMM:   7    -0.231713597829E+04    0.81560E-05   -0.25881E-05  2940   0.411E-03
  54 F= -.23376951E+04 E0= -.23376951E+04  d E =-.231168E-01  mag=     2.0000
       N       E                     dE             d eps       ncg     rms          rms(c)
DAV:   1    -0.231714029730E+04   -0.43109E-02   -0.47182E+00  4420   0.232E+00    0.480E-01
RMM:   2    -0.231715430095E+04   -0.14004E-01   -0.16006E-01  5332   0.358E-01    0.264E-01
RMM:   3    -0.231715367371E+04    0.62724E-03   -0.10767E-02  4821   0.130E-01    0.190E-01
RMM:   4    -0.231715375829E+04   -0.84576E-04   -0.20264E-03  5127   0.338E-02    0.237E-01
RMM:   5    -0.231715328952E+04    0.46877E-03   -0.11781E-03  5180   0.269E-02    0.108E-01
RMM:   6    -0.231715318154E+04    0.10798E-03   -0.37914E-04  4767   0.148E-02    0.243E-02
RMM:   7    -0.231715316871E+04    0.12833E-04   -0.39398E-05  2994   0.861E-03    0.132E-02
RMM:   8    -0.231715316519E+04    0.35128E-05   -0.17049E-05  2867   0.392E-03
  55 F= -.23377119E+04 E0= -.23377119E+04  d E =-.168308E-01  mag=     2.0000
       N       E                     dE             d eps       ncg     rms          rms(c)
DAV:   1    -0.231714533983E+04    0.78289E-02   -0.61357E+00  4408   0.265E+00    0.548E-01
RMM:   2    -0.231716336045E+04   -0.18021E-01   -0.20691E-01  5331   0.407E-01    0.301E-01
RMM:   3    -0.231716251727E+04    0.84319E-03   -0.13975E-02  4844   0.145E-01    0.220E-01
RMM:   4    -0.231716260610E+04   -0.88830E-04   -0.26269E-03  5191   0.382E-02    0.273E-01
RMM:   5    -0.231716196886E+04    0.63724E-03   -0.15359E-03  5198   0.304E-02    0.121E-01
RMM:   6    -0.231716182402E+04    0.14484E-03   -0.50387E-04  4822   0.171E-02    0.275E-02
RMM:   7    -0.231716180544E+04    0.18578E-04   -0.55040E-05  3203   0.970E-03    0.151E-02
RMM:   8    -0.231716179922E+04    0.62196E-05   -0.22589E-05  2926   0.449E-03
  56 F= -.23377202E+04 E0= -.23377202E+04  d E =-.250795E-01  mag=     2.0000
       N       E                     dE             d eps       ncg     rms          rms(c)
DAV:   1    -0.231716174777E+04    0.57671E-04   -0.55940E+00  4452   0.253E+00    0.570E-01
RMM:   2    -0.231717960224E+04   -0.17854E-01   -0.19889E-01  5469   0.402E-01    0.308E-01
RMM:   3    -0.231717855207E+04    0.10502E-02   -0.11753E-02  4872   0.126E-01    0.232E-01
RMM:   4    -0.231717842049E+04    0.13157E-03   -0.24308E-03  5102   0.367E-02    0.252E-01
RMM:   5    -0.231717795671E+04    0.46378E-03   -0.14937E-03  5305   0.306E-02    0.137E-01
RMM:   6    -0.231717775203E+04    0.20468E-03   -0.53325E-04  4884   0.174E-02    0.267E-02
RMM:   7    -0.231717773966E+04    0.12373E-04   -0.68082E-05  3275   0.106E-02    0.150E-02
RMM:   8    -0.231717773650E+04    0.31574E-05   -0.21580E-05  2878   0.440E-03
  57 F= -.23377361E+04 E0= -.23377361E+04  d E =-.159297E-01  mag=     2.0000
       N       E                     dE             d eps       ncg     rms          rms(c)
DAV:   1    -0.231717558346E+04    0.21562E-02   -0.17051E+00  4528   0.139E+00    0.315E-01
RMM:   2    -0.231718101461E+04   -0.54312E-02   -0.60611E-02  5485   0.222E-01    0.171E-01
RMM:   3    -0.231718069716E+04    0.31746E-03   -0.36244E-03  4861   0.695E-02    0.132E-01
RMM:   4    -0.231718064712E+04    0.50035E-04   -0.74690E-04  5080   0.201E-02    0.140E-01
RMM:   5    -0.231718049673E+04    0.15039E-03   -0.46444E-04  4957   0.170E-02    0.737E-02
RMM:   6    -0.231718043262E+04    0.64112E-04   -0.17057E-04  4300   0.103E-02    0.150E-02
RMM:   7    -0.231718042822E+04    0.43901E-05   -0.22432E-05  2893   0.664E-03
  58 F= -.23377388E+04 E0= -.23377388E+04  d E =-.186232E-01  mag=     2.0000
       N       E                     dE             d eps       ncg     rms          rms(c)
DAV:   1    -0.231717187139E+04    0.85612E-02   -0.59725E+00  4440   0.259E+00    0.541E-01
RMM:   2    -0.231719664848E+04   -0.24777E-01   -0.26754E-01  5625   0.432E-01    0.333E-01
RMM:   3    -0.231719596183E+04    0.68665E-03   -0.16455E-02  4968   0.122E-01    0.245E-01
RMM:   4    -0.231719578898E+04    0.17285E-03   -0.27623E-03  5229   0.345E-02    0.250E-01
RMM:   5    -0.231719537915E+04    0.40982E-03   -0.15825E-03  5321   0.277E-02    0.144E-01
RMM:   6    -0.231719515843E+04    0.22073E-03   -0.56582E-04  4962   0.182E-02    0.274E-02
RMM:   7    -0.231719514983E+04    0.86016E-05   -0.63184E-05  3109   0.102E-02
  59 F= -.23377538E+04 E0= -.23377538E+04  d E =-.150253E-01  mag=     2.0000
       N       E                     dE             d eps       ncg     rms          rms(c)
DAV:   1    -0.231717495936E+04    0.20199E-01   -0.69478E+00  4440   0.279E+00    0.583E-01
RMM:   2    -0.231720404058E+04   -0.29081E-01   -0.31326E-01  5645   0.466E-01    0.362E-01
RMM:   3    -0.231720322662E+04    0.81396E-03   -0.19120E-02  4953   0.129E-01    0.265E-01
RMM:   4    -0.231720300018E+04    0.22644E-03   -0.31955E-03  5210   0.372E-02    0.266E-01
RMM:   5    -0.231720255005E+04    0.45013E-03   -0.18421E-03  5357   0.298E-02    0.159E-01
RMM:   6    -0.231720227564E+04    0.27441E-03   -0.68408E-04  5007   0.200E-02    0.298E-02
RMM:   7    -0.231720226435E+04    0.11286E-04   -0.73790E-05  3278   0.109E-02    0.171E-02
RMM:   8    -0.231720226196E+04    0.23936E-05   -0.19883E-05  2874   0.404E-03
  60 F= -.23377613E+04 E0= -.23377613E+04  d E =-.224788E-01  mag=     2.0000
       N       E                     dE             d eps       ncg     rms          rms(c)
DAV:   1    -0.231719589554E+04    0.63688E-02   -0.56269E+00  4440   0.249E+00    0.603E-01
RMM:   2    -0.231721643979E+04   -0.20544E-01   -0.23202E-01  5589   0.418E-01    0.320E-01
RMM:   3    -0.231721603419E+04    0.40560E-03   -0.16184E-02  5148   0.123E-01    0.264E-01
RMM:   4    -0.231721577973E+04    0.25446E-03   -0.29363E-03  5553   0.366E-02    0.257E-01
RMM:   5    -0.231721518582E+04    0.59391E-03   -0.16134E-03  5007   0.306E-02    0.110E-01
RMM:   6    -0.231721503394E+04    0.15188E-03   -0.54130E-04  4964   0.190E-02    0.323E-02
RMM:   7    -0.231721501534E+04    0.18604E-04   -0.70191E-05  3470   0.927E-03    0.176E-02
RMM:   8    -0.231721500706E+04    0.82766E-05   -0.23523E-05  2902   0.474E-03
  61 F= -.23377747E+04 E0= -.23377747E+04  d E =-.133643E-01  mag=     2.0000
       N       E                     dE             d eps       ncg     rms          rms(c)
DAV:   1    -0.231721436970E+04    0.64564E-03   -0.30551E-01  4704   0.581E-01    0.140E-01
RMM:   2    -0.231721550803E+04   -0.11383E-02   -0.12854E-02  5665   0.991E-02    0.770E-02
RMM:   3    -0.231721549100E+04    0.17034E-04   -0.86564E-04  4783   0.309E-02    0.700E-02
RMM:   4    -0.231721546120E+04    0.29791E-04   -0.15507E-04  3606   0.898E-03    0.566E-02
RMM:   5    -0.231721543103E+04    0.30171E-04   -0.92040E-05  3453   0.838E-03    0.262E-02
RMM:   6    -0.231721542099E+04    0.10045E-04   -0.35980E-05  2922   0.643E-03    0.753E-03
RMM:   7    -0.231721542053E+04    0.46304E-06   -0.73154E-06  2835   0.433E-03
  62 F= -.23377752E+04 E0= -.23377752E+04  d E =-.139222E-01  mag=     2.0000
       N       E                     dE             d eps       ncg     rms          rms(c)
DAV:   1    -0.231720803318E+04    0.73878E-02   -0.47669E+00  4440   0.230E+00    0.475E-01
RMM:   2    -0.231722817950E+04   -0.20146E-01   -0.22188E-01  5559   0.374E-01    0.262E-01
RMM:   3    -0.231722852401E+04   -0.34451E-03   -0.17119E-02  5076   0.116E-01    0.198E-01
RMM:   4    -0.231722863030E+04   -0.10629E-03   -0.25017E-03  5415   0.319E-02    0.233E-01
RMM:   5    -0.231722809412E+04    0.53618E-03   -0.13750E-03  4999   0.269E-02    0.642E-02
RMM:   6    -0.231722807082E+04    0.23296E-04   -0.17865E-04  4405   0.125E-02    0.218E-02
RMM:   7    -0.231722806673E+04    0.40908E-05   -0.19726E-05  2909   0.485E-03
  63 F= -.23377881E+04 E0= -.23377881E+04  d E =-.128752E-01  mag=     2.0000
       N       E                     dE             d eps       ncg     rms          rms(c)
DAV:   1    -0.231718112599E+04    0.46945E-01   -0.13105E+01  4440   0.381E+00    0.788E-01
RMM:   2    -0.231723668768E+04   -0.55562E-01   -0.61194E-01  5549   0.622E-01    0.433E-01
RMM:   3    -0.231723739325E+04   -0.70557E-03   -0.46186E-02  5065   0.192E-01    0.310E-01
RMM:   4    -0.231723785655E+04   -0.46329E-03   -0.71253E-03  5264   0.548E-02    0.399E-01
RMM:   5    -0.231723630480E+04    0.15517E-02   -0.36927E-03  5277   0.448E-02    0.109E-01
RMM:   6    -0.231723623348E+04    0.71327E-04   -0.47403E-04  4905   0.175E-02    0.350E-02
RMM:   7    -0.231723621871E+04    0.14770E-04   -0.52464E-05  3245   0.821E-03    0.228E-02
RMM:   8    -0.231723620851E+04    0.10196E-04   -0.29990E-05  3009   0.510E-03    0.123E-02
RMM:   9    -0.231723620624E+04    0.22699E-05   -0.11835E-05  2854   0.432E-03
  64 F= -.23377966E+04 E0= -.23377966E+04  d E =-.214037E-01  mag=     2.0000
       N       E                     dE             d eps       ncg     rms          rms(c)
DAV:   1    -0.231723105314E+04    0.51554E-02   -0.30029E+00  4464   0.184E+00    0.390E-01
RMM:   2    -0.231724778768E+04   -0.16735E-01   -0.18248E-01  5619   0.310E-01    0.213E-01
RMM:   3    -0.231724820578E+04   -0.41810E-03   -0.14047E-02  5121   0.926E-02    0.138E-01
RMM:   4    -0.231724802101E+04    0.18477E-03   -0.19635E-03  4504   0.285E-02    0.620E-02
RMM:   5    -0.231724804373E+04   -0.22728E-04   -0.26078E-04  4399   0.184E-02    0.528E-02
RMM:   6    -0.231724802491E+04    0.18826E-04   -0.73309E-05  2978   0.617E-03    0.330E-02
RMM:   7    -0.231724801585E+04    0.90538E-05   -0.16802E-05  2872   0.438E-03
  65 F= -.23378085E+04 E0= -.23378085E+04  d E =-.118518E-01  mag=     2.0000
       N       E                     dE             d eps       ncg     rms          rms(c)
DAV:   1    -0.231720050186E+04    0.47523E-01   -0.10538E+01  4440   0.345E+00    0.733E-01
RMM:   2    -0.231725950798E+04   -0.59006E-01   -0.64296E-01  5613   0.581E-01    0.401E-01
RMM:   3    -0.231726089549E+04   -0.13875E-02   -0.48239E-02  5131   0.183E-01    0.258E-01
RMM:   4    -0.231726025636E+04    0.63912E-03   -0.67785E-03  4466   0.536E-02    0.115E-01
RMM:   5    -0.231726026911E+04   -0.12750E-04   -0.89738E-04  4681   0.350E-02    0.759E-02
RMM:   6    -0.231726023889E+04    0.30222E-04   -0.21209E-04  4218   0.102E-02    0.525E-02
RMM:   7    -0.231726021466E+04    0.24231E-04   -0.55626E-05  2934   0.754E-03    0.248E-02
RMM:   8    -0.231726020655E+04    0.81128E-05   -0.23680E-05  2860   0.424E-03
  66 F= -.23378208E+04 E0= -.23378208E+04  d E =-.241372E-01  mag=     2.0000
       N       E                     dE             d eps       ncg     rms          rms(c)
DAV:   1    -0.231725105544E+04    0.91592E-02   -0.18399E+00  4464   0.144E+00    0.307E-01
RMM:   2    -0.231726131846E+04   -0.10263E-01   -0.11187E-01  5665   0.244E-01    0.169E-01
RMM:   3    -0.231726160307E+04   -0.28461E-03   -0.87057E-03  5121   0.734E-02    0.114E-01
RMM:   4    -0.231726162411E+04   -0.21046E-04   -0.12259E-03  4799   0.213E-02    0.129E-01
RMM:   5    -0.231726150034E+04    0.12377E-03   -0.48777E-04  4761   0.164E-02    0.645E-02
RMM:   6    -0.231726146439E+04    0.35947E-04   -0.65223E-05  3151   0.674E-03    0.166E-02
RMM:   7    -0.231726146284E+04    0.15571E-05   -0.15905E-05  2870   0.462E-03
  67 F= -.23378221E+04 E0= -.23378221E+04  d E =-.254392E-01  mag=     2.0000
       N       E                     dE             d eps       ncg     rms          rms(c)
DAV:   1    -0.231723000059E+04    0.31464E-01   -0.64706E+00  4440   0.271E+00    0.612E-01
RMM:   2    -0.231727490076E+04   -0.44900E-01   -0.48628E-01  5698   0.475E-01    0.339E-01
RMM:   3    -0.231727643985E+04   -0.15391E-02   -0.38000E-02  5298   0.147E-01    0.234E-01
RMM:   4    -0.231727659790E+04   -0.15805E-03   -0.49322E-03  5153   0.379E-02    0.253E-01
RMM:   5    -0.231727619085E+04    0.40705E-03   -0.17907E-03  5322   0.283E-02    0.163E-01
RMM:   6    -0.231727591225E+04    0.27861E-03   -0.66874E-04  5055   0.180E-02    0.338E-02
RMM:   7    -0.231727589807E+04    0.14179E-04   -0.61472E-05  3010   0.954E-03    0.165E-02
RMM:   8    -0.231727589593E+04    0.21383E-05   -0.16131E-05  2874   0.358E-03
  68 F= -.23378369E+04 E0= -.23378369E+04  d E =-.147964E-01  mag=     2.0000
       N       E                     dE             d eps       ncg     rms          rms(c)
DAV:   1    -0.231720750301E+04    0.68395E-01   -0.10762E+01  4440   0.349E+00    0.789E-01
RMM:   2    -0.231728233181E+04   -0.74829E-01   -0.81058E-01  5694   0.611E-01    0.442E-01
RMM:   3    -0.231728490030E+04   -0.25685E-02   -0.63501E-02  5303   0.190E-01    0.303E-01
RMM:   4    -0.231728487342E+04    0.26882E-04   -0.79900E-03  5132   0.485E-02    0.288E-01
RMM:   5    -0.231728466170E+04    0.21172E-03   -0.30692E-03  5325   0.371E-02    0.258E-01
RMM:   6    -0.231728393798E+04    0.72372E-03   -0.12303E-03  5268   0.236E-02    0.440E-02
RMM:   7    -0.231728392051E+04    0.17475E-04   -0.10424E-04  3494   0.118E-02    0.220E-02
RMM:   8    -0.231728391663E+04    0.38767E-05   -0.23475E-05  2889   0.427E-03
  69 F= -.23378454E+04 E0= -.23378454E+04  d E =-.233117E-01  mag=     2.0000
       N       E                     dE             d eps       ncg     rms          rms(c)
DAV:   1    -0.231723798087E+04    0.45940E-01   -0.82586E+00  4440   0.306E+00    0.715E-01
RMM:   2    -0.231730045770E+04   -0.62477E-01   -0.67534E-01  5740   0.549E-01    0.420E-01
RMM:   3    -0.231730274235E+04   -0.22847E-02   -0.54788E-02  5397   0.166E-01    0.310E-01
RMM:   4    -0.231730273609E+04    0.62654E-05   -0.67835E-03  5416   0.416E-02    0.299E-01
RMM:   5    -0.231730213487E+04    0.60122E-03   -0.21944E-03  5380   0.297E-02    0.181E-01
RMM:   6    -0.231730173003E+04    0.40484E-03   -0.10529E-03  5000   0.233E-02    0.344E-02
RMM:   7    -0.231730171955E+04    0.10483E-04   -0.96729E-05  3606   0.123E-02    0.184E-02
RMM:   8    -0.231730171518E+04    0.43655E-05   -0.16053E-05  2868   0.359E-03
  70 F= -.23378637E+04 E0= -.23378637E+04  d E =-.183156E-01  mag=     2.0000
       N       E                     dE             d eps       ncg     rms          rms(c)
DAV:   1    -0.231724992396E+04    0.51796E-01   -0.75344E+00  4440   0.292E+00    0.683E-01
RMM:   2    -0.231730680801E+04   -0.56884E-01   -0.61523E-01  5753   0.526E-01    0.401E-01
RMM:   3    -0.231730887135E+04   -0.20633E-02   -0.50027E-02  5406   0.157E-01    0.292E-01
RMM:   4    -0.231730887612E+04   -0.47756E-05   -0.61624E-03  5430   0.396E-02    0.284E-01
RMM:   5    -0.231730833597E+04    0.54015E-03   -0.19831E-03  5357   0.282E-02    0.174E-01
RMM:   6    -0.231730795643E+04    0.37954E-03   -0.95552E-04  5001   0.223E-02    0.326E-02
RMM:   7    -0.231730794520E+04    0.11231E-04   -0.89186E-05  3397   0.118E-02    0.176E-02
RMM:   8    -0.231730794001E+04    0.51866E-05   -0.16116E-05  2868   0.362E-03
  71 F= -.23378704E+04 E0= -.23378704E+04  d E =-.250609E-01  mag=     2.0000
       N       E                     dE             d eps       ncg     rms          rms(c)
DAV:   1    -0.231723672663E+04    0.71219E-01   -0.10282E+01  4408   0.342E+00    0.808E-01
RMM:   2    -0.231732137912E+04   -0.84652E-01   -0.91297E-01  5676   0.615E-01    0.477E-01
RMM:   3    -0.231732588692E+04   -0.45078E-02   -0.77536E-02  5306   0.203E-01    0.454E-01
RMM:   4    -0.231732496989E+04    0.91703E-03   -0.89718E-03  5669   0.481E-02    0.311E-01
RMM:   5    -0.231732418889E+04    0.78099E-03   -0.28685E-03  5053   0.361E-02    0.169E-01
RMM:   6    -0.231732380176E+04    0.38713E-03   -0.11782E-03  5468   0.249E-02    0.497E-02
RMM:   7    -0.231732377503E+04    0.26727E-04   -0.12667E-04  3959   0.110E-02    0.231E-02
RMM:   8    -0.231732376376E+04    0.11275E-04   -0.24070E-05  2906   0.459E-03    0.125E-02
RMM:   9    -0.231732375824E+04    0.55172E-05   -0.17318E-05  2893   0.406E-03
  72 F= -.23378869E+04 E0= -.23378869E+04  d E =-.164613E-01  mag=     2.0000
       N       E                     dE             d eps       ncg     rms          rms(c)
DAV:   1    -0.231730539688E+04    0.18367E-01   -0.24449E+00  4512   0.167E+00    0.394E-01
RMM:   2    -0.231732540468E+04   -0.20008E-01   -0.21614E-01  5699   0.301E-01    0.225E-01
RMM:   3    -0.231732636955E+04   -0.96488E-03   -0.17484E-02  5333   0.980E-02    0.211E-01
RMM:   4    -0.231732622820E+04    0.14136E-03   -0.21714E-03  5381   0.233E-02    0.157E-01
RMM:   5    -0.231732598865E+04    0.23954E-03   -0.66931E-04  4912   0.178E-02    0.706E-02
RMM:   6    -0.231732592034E+04    0.68308E-04   -0.24847E-04  4542   0.126E-02    0.230E-02
RMM:   7    -0.231732591211E+04    0.82351E-05   -0.29292E-05  2917   0.560E-03
  73 F= -.23378894E+04 E0= -.23378894E+04  d E =-.189399E-01  mag=     2.0000
       N       E                     dE             d eps       ncg     rms          rms(c)
DAV:   1    -0.231725127029E+04    0.74650E-01   -0.11392E+01  4440   0.360E+00    0.827E-01
RMM:   2    -0.231734054372E+04   -0.89273E-01   -0.96436E-01  5653   0.624E-01    0.507E-01
RMM:   3    -0.231734654725E+04   -0.60035E-02   -0.86884E-02  5227   0.219E-01    0.525E-01
RMM:   4    -0.231734494910E+04    0.15982E-02   -0.97442E-03  5651   0.507E-02    0.303E-01
RMM:   5    -0.231734394695E+04    0.10021E-02   -0.29040E-03  4898   0.378E-02    0.113E-01
RMM:   6    -0.231734391613E+04    0.30827E-04   -0.72850E-04  4889   0.235E-02    0.472E-02
RMM:   7    -0.231734389984E+04    0.16287E-04   -0.10294E-04  3653   0.867E-03    0.266E-02
RMM:   8    -0.231734388882E+04    0.11023E-04   -0.28176E-05  2864   0.553E-03    0.142E-02
RMM:   9    -0.231734388832E+04    0.50067E-06   -0.19817E-05  2908   0.375E-03
  74 F= -.23379080E+04 E0= -.23379080E+04  d E =-.186077E-01  mag=     2.0000
       N       E                     dE             d eps       ncg     rms          rms(c)
DAV:   1    -0.231729862117E+04    0.45268E-01   -0.61089E+00  4440   0.264E+00    0.602E-01
RMM:   2    -0.231734599288E+04   -0.47372E-01   -0.51244E-01  5625   0.453E-01    0.358E-01
RMM:   3    -0.231734903387E+04   -0.30410E-02   -0.44761E-02  5219   0.155E-01    0.368E-01
RMM:   4    -0.231734833473E+04    0.69914E-03   -0.51841E-03  5630   0.363E-02    0.225E-01
RMM:   5    -0.231734776371E+04    0.57102E-03   -0.15552E-03  4859   0.279E-02    0.777E-02
RMM:   6    -0.231734775340E+04    0.10310E-04   -0.33175E-04  4608   0.170E-02    0.310E-02
RMM:   7    -0.231734774769E+04    0.57089E-05   -0.47442E-05  3197   0.598E-03
  75 F= -.23379123E+04 E0= -.23379123E+04  d E =-.229390E-01  mag=     2.0000
       N       E                     dE             d eps       ncg     rms          rms(c)
DAV:   1    -0.231727536216E+04    0.72391E-01   -0.11874E+01  4440   0.365E+00    0.834E-01
RMM:   2    -0.231736107874E+04   -0.85717E-01   -0.92990E-01  5655   0.620E-01    0.477E-01
RMM:   3    -0.231736685088E+04   -0.57721E-02   -0.85918E-02  5124   0.207E-01    0.465E-01
RMM:   4    -0.231736602047E+04    0.83041E-03   -0.95515E-03  5672   0.498E-02    0.317E-01
RMM:   5    -0.231736498368E+04    0.10368E-02   -0.31664E-03  5044   0.377E-02    0.127E-01
RMM:   6    -0.231736491294E+04    0.70738E-04   -0.73525E-04  5002   0.223E-02    0.472E-02
RMM:   7    -0.231736488815E+04    0.24795E-04   -0.11360E-04  3643   0.831E-03    0.277E-02
RMM:   8    -0.231736487324E+04    0.14907E-04   -0.33278E-05  2881   0.553E-03    0.136E-02
RMM:   9    -0.231736487058E+04    0.26638E-05   -0.17187E-05  2882   0.359E-03
  76 F= -.23379297E+04 E0= -.23379297E+04  d E =-.174383E-01  mag=     2.0000
       N       E                     dE             d eps       ncg     rms          rms(c)
DAV:   1    -0.231732649765E+04    0.38376E-01   -0.55622E+00  4464   0.250E+00    0.566E-01
RMM:   2    -0.231736645182E+04   -0.39954E-01   -0.43395E-01  5633   0.423E-01    0.312E-01
RMM:   3    -0.231736899921E+04   -0.25474E-02   -0.38854E-02  5112   0.145E-01    0.285E-01
RMM:   4    -0.231736890753E+04    0.91678E-04   -0.44906E-03  5517   0.340E-02    0.231E-01
RMM:   5    -0.231736833764E+04    0.56989E-03   -0.14944E-03  5009   0.267E-02    0.827E-02
RMM:   6    -0.231736830664E+04    0.31009E-04   -0.29750E-04  4597   0.154E-02    0.273E-02
RMM:   7    -0.231736829883E+04    0.78026E-05   -0.41009E-05  3010   0.555E-03
  77 F= -.23379334E+04 E0= -.23379334E+04  d E =-.210826E-01  mag=     2.0000
       N       E                     dE             d eps       ncg     rms          rms(c)
DAV:   1    -0.231728916002E+04    0.79147E-01   -0.12604E+01  4440   0.374E+00    0.882E-01
RMM:   2    -0.231737769099E+04   -0.88531E-01   -0.96603E-01  5659   0.638E-01    0.470E-01
RMM:   3    -0.231738327170E+04   -0.55807E-02   -0.93581E-02  5198   0.212E-01    0.374E-01
RMM:   4    -0.231738353201E+04   -0.26031E-03   -0.98986E-03  5442   0.519E-02    0.365E-01
RMM:   5    -0.231738244369E+04    0.10883E-02   -0.38809E-03  5257   0.411E-02    0.187E-01
RMM:   6    -0.231738211214E+04    0.33155E-03   -0.10764E-03  5396   0.231E-02    0.575E-02
RMM:   7    -0.231738206179E+04    0.50346E-04   -0.15384E-04  3919   0.113E-02    0.293E-02
RMM:   8    -0.231738204345E+04    0.18346E-04   -0.43360E-05  3040   0.551E-03    0.136E-02
RMM:   9    -0.231738203854E+04    0.49035E-05   -0.18382E-05  2878   0.420E-03
  78 F= -.23379477E+04 E0= -.23379477E+04  d E =-.143300E-01  mag=     2.0000
       N       E                     dE             d eps       ncg     rms          rms(c)
DAV:   1    -0.231737892167E+04    0.31218E-02   -0.48000E-01  4688   0.730E-01    0.171E-01
[...]
DAV:   1    -0.231762135124E+04    0.71959E-03   -0.23452E-01  4464   0.539E-01    0.109E-01
RMM:   2    -0.231762233915E+04   -0.98791E-03   -0.10580E-02  5429   0.857E-02    0.571E-02
RMM:   3    -0.231762234620E+04   -0.70502E-05   -0.80362E-04  4744   0.345E-02    0.525E-02
RMM:   4    -0.231762232012E+04    0.26083E-04   -0.95740E-05  3078   0.757E-03    0.337E-02
RMM:   5    -0.231762230116E+04    0.18961E-04   -0.61432E-05  3546   0.756E-03    0.112E-02
RMM:   6    -0.231762229961E+04    0.15495E-05   -0.10939E-05  2857   0.508E-03
 171 F= -.23381902E+04 E0= -.23381902E+04  d E =-.112644E-02  mag=     2.0000
       N       E                     dE             d eps       ncg     rms          rms(c)
DAV:   1    -0.231762111854E+04    0.11826E-02   -0.69669E-01  4440   0.926E-01    0.189E-01
RMM:   2    -0.231762383937E+04   -0.27208E-02   -0.29199E-02  5256   0.144E-01    0.103E-01
RMM:   3    -0.231762383550E+04    0.38651E-05   -0.22288E-03  4765   0.600E-02    0.103E-01
RMM:   4    -0.231762372213E+04    0.11337E-03   -0.28356E-04  4587   0.126E-02    0.535E-02
RMM:   5    -0.231762366950E+04    0.52628E-04   -0.17660E-04  4426   0.120E-02    0.159E-02
RMM:   6    -0.231762366713E+04    0.23723E-05   -0.25622E-05  2880   0.737E-03
 172 F= -.23381913E+04 E0= -.23381913E+04  d E =-.110694E-02  mag=     2.0000
       N       E                     dE             d eps       ncg     rms          rms(c)
DAV:   1    -0.231762325581E+04    0.41369E-03   -0.16108E-01  4592   0.446E-01    0.918E-02
RMM:   2    -0.231762388625E+04   -0.63044E-03   -0.67928E-03  5455   0.704E-02    0.482E-02
RMM:   3    -0.231762388598E+04    0.26598E-06   -0.49787E-04  4455   0.279E-02    0.475E-02
RMM:   4    -0.231762386158E+04    0.24406E-04   -0.61191E-05  2925   0.646E-03    0.266E-02
RMM:   5    -0.231762384692E+04    0.14651E-04   -0.43580E-05  3285   0.648E-03    0.822E-03
RMM:   6    -0.231762384585E+04    0.10693E-05   -0.80633E-06  2841   0.476E-03
 173 F= -.23381914E+04 E0= -.23381914E+04  d E =-.116002E-02  mag=     2.0000
       N       E                     dE             d eps       ncg     rms          rms(c)
DAV:   1    -0.231762293595E+04    0.91097E-03   -0.66009E-01  4440   0.900E-01    0.182E-01
RMM:   2    -0.231762531505E+04   -0.23791E-02   -0.25576E-02  5256   0.138E-01    0.986E-02
RMM:   3    -0.231762528203E+04    0.33026E-04   -0.18555E-03  4789   0.558E-02    0.100E-01
RMM:   4    -0.231762517170E+04    0.11033E-03   -0.25166E-04  4525   0.122E-02    0.515E-02
RMM:   5    -0.231762512128E+04    0.50422E-04   -0.17443E-04  4402   0.121E-02    0.139E-02
RMM:   6    -0.231762511891E+04    0.23695E-05   -0.20225E-05  2870   0.731E-03
 174 F= -.23381925E+04 E0= -.23381925E+04  d E =-.111518E-02  mag=     2.0000
       N       E                     dE             d eps       ncg     rms          rms(c)
DAV:   1    -0.231762473836E+04    0.38292E-03   -0.15438E-01  4496   0.436E-01    0.886E-02
RMM:   2    -0.231762529526E+04   -0.55690E-03   -0.60119E-03  5361   0.677E-02    0.475E-02
RMM:   3    -0.231762528934E+04    0.59178E-05   -0.43090E-04  4359   0.274E-02    0.484E-02
RMM:   4    -0.231762526296E+04    0.26384E-04   -0.56799E-05  2910   0.636E-03    0.256E-02
RMM:   5    -0.231762524838E+04    0.14579E-04   -0.43420E-05  3325   0.652E-03    0.671E-03
RMM:   6    -0.231762524760E+04    0.78345E-06   -0.72139E-06  2835   0.480E-03
 175 F= -.23381925E+04 E0= -.23381925E+04  d E =-.116741E-02  mag=     2.0000
       N       E                     dE             d eps       ncg     rms          rms(c)
DAV:   1    -0.231762411749E+04    0.11309E-02   -0.73494E-01  4440   0.950E-01    0.192E-01
RMM:   2    -0.231762667965E+04   -0.25622E-02   -0.27518E-02  5181   0.145E-01    0.100E-01
RMM:   3    -0.231762662353E+04    0.56121E-04   -0.19366E-03  4736   0.585E-02    0.101E-01
RMM:   4    -0.231762651842E+04    0.10511E-03   -0.27214E-04  4675   0.128E-02    0.549E-02
RMM:   5    -0.231762646739E+04    0.51034E-04   -0.18549E-04  4439   0.124E-02    0.168E-02
RMM:   6    -0.231762646400E+04    0.33854E-05   -0.24704E-05  2889   0.758E-03
 176 F= -.23381936E+04 E0= -.23381936E+04  d E =-.103233E-02  mag=     2.0000
       N       E                     dE             d eps       ncg     rms          rms(c)
DAV:   1    -0.231762616349E+04    0.30390E-03   -0.12788E-01  4592   0.397E-01    0.811E-02
RMM:   2    -0.231762661122E+04   -0.44773E-03   -0.48191E-03  5359   0.614E-02    0.410E-02
RMM:   3    -0.231762660370E+04    0.75197E-05   -0.33766E-04  4247   0.256E-02    0.406E-02
RMM:   4    -0.231762658685E+04    0.16842E-04   -0.45641E-05  2905   0.581E-03    0.239E-02
RMM:   5    -0.231762657573E+04    0.11119E-04   -0.33008E-05  3117   0.585E-03    0.662E-03
RMM:   6    -0.231762657524E+04    0.49597E-06   -0.63661E-06  2832   0.442E-03
 177 F= -.23381936E+04 E0= -.23381936E+04  d E =-.106661E-02  mag=     2.0000
       N       E                     dE             d eps       ncg     rms          rms(c)
DAV:   1    -0.231762551877E+04    0.10570E-02   -0.75405E-01  4440   0.962E-01    0.197E-01
RMM:   2    -0.231762811707E+04   -0.25983E-02   -0.28088E-02  5183   0.147E-01    0.995E-02
RMM:   3    -0.231762803671E+04    0.80360E-04   -0.19217E-03  4762   0.583E-02    0.963E-02
RMM:   4    -0.231762794405E+04    0.92657E-04   -0.28155E-04  4694   0.130E-02    0.581E-02
RMM:   5    -0.231762788727E+04    0.56786E-04   -0.19909E-04  4506   0.127E-02    0.169E-02
RMM:   6    -0.231762788341E+04    0.38602E-05   -0.24985E-05  2891   0.755E-03
 178 F= -.23381947E+04 E0= -.23381947E+04  d E =-.103964E-02  mag=     2.0000
       N       E                     dE             d eps       ncg     rms          rms(c)
DAV:   1    -0.231762778047E+04    0.10679E-03   -0.57351E-02  4720   0.266E-01    0.557E-02
RMM:   2    -0.231762797949E+04   -0.19902E-03   -0.21663E-03  5548   0.418E-02    0.269E-02
RMM:   3    -0.231762797385E+04    0.56432E-05   -0.14507E-04  3708   0.164E-02    0.244E-02
RMM:   4    -0.231762796836E+04    0.54922E-05   -0.21366E-05  2852   0.437E-03
 179 F= -.23381947E+04 E0= -.23381947E+04  d E =-.105040E-02  mag=     2.0000
       N       E                     dE             d eps       ncg     rms          rms(c)
DAV:   1    -0.231762723577E+04    0.73808E-03   -0.67364E-01  4440   0.907E-01    0.187E-01
RMM:   2    -0.231762941580E+04   -0.21800E-02   -0.23704E-02  5223   0.138E-01    0.986E-02
RMM:   3    -0.231762935790E+04    0.57904E-04   -0.16678E-03  4801   0.550E-02    0.102E-01
RMM:   4    -0.231762924815E+04    0.10975E-03   -0.25988E-04  4604   0.125E-02    0.539E-02
RMM:   5    -0.231762919554E+04    0.52603E-04   -0.18380E-04  4488   0.124E-02    0.128E-02
RMM:   6    -0.231762919278E+04    0.27630E-05   -0.18162E-05  2874   0.734E-03
 180 F= -.23381956E+04 E0= -.23381956E+04  d E =-.899971E-03  mag=     2.0000
       N       E                     dE             d eps       ncg     rms          rms(c)
DAV:   1    -0.231762909177E+04    0.10378E-03   -0.52827E-02  4672   0.254E-01    0.532E-02
RMM:   2    -0.231762926552E+04   -0.17375E-03   -0.19061E-03  5414   0.397E-02    0.264E-02
RMM:   3    -0.231762925776E+04    0.77570E-05   -0.11741E-04  3611   0.153E-02    0.241E-02
RMM:   4    -0.231762925213E+04    0.56302E-05   -0.20131E-05  2849   0.435E-03
 181 F= -.23381955E+04 E0= -.23381955E+04  d E =-.868559E-03  mag=     2.0000
       N       E                     dE             d eps       ncg     rms          rms(c)
DAV:   1    -0.231762851224E+04    0.74552E-03   -0.68637E-01  4440   0.911E-01    0.179E-01
RMM:   2    -0.231763058454E+04   -0.20723E-02   -0.22516E-02  5205   0.137E-01    0.950E-02
RMM:   3    -0.231763051646E+04    0.68077E-04   -0.14788E-03  4767   0.551E-02    0.990E-02
RMM:   4    -0.231763041324E+04    0.10322E-03   -0.23534E-04  4599   0.122E-02    0.522E-02
RMM:   5    -0.231763036365E+04    0.49585E-04   -0.18178E-04  4438   0.123E-02    0.126E-02
RMM:   6    -0.231763036204E+04    0.16190E-05   -0.17453E-05  2869   0.756E-03
 182 F= -.23381964E+04 E0= -.23381964E+04  d E =-.833390E-03  mag=     2.0000
       N       E                     dE             d eps       ncg     rms          rms(c)
DAV:   1    -0.231763020595E+04    0.15771E-03   -0.10258E-01  4576   0.353E-01    0.698E-02
RMM:   2    -0.231763052076E+04   -0.31482E-03   -0.34333E-03  5282   0.539E-02    0.348E-02
RMM:   3    -0.231763050577E+04    0.14993E-04   -0.20310E-04  4004   0.203E-02    0.322E-02
RMM:   4    -0.231763049630E+04    0.94721E-05   -0.33074E-05  2869   0.523E-03
 183 F= -.23381964E+04 E0= -.23381964E+04  d E =-.861003E-03  mag=     2.0000
       N       E                     dE             d eps       ncg     rms          rms(c)
DAV:   1    -0.231762978514E+04    0.72064E-03   -0.76653E-01  4440   0.962E-01    0.200E-01
RMM:   2    -0.231763202572E+04   -0.22406E-02   -0.24701E-02  5171   0.146E-01    0.102E-01
RMM:   3    -0.231763192470E+04    0.10102E-03   -0.16018E-03  4767   0.572E-02    0.105E-01
RMM:   4    -0.231763180840E+04    0.11630E-03   -0.27547E-04  4627   0.131E-02    0.583E-02
RMM:   5    -0.231763174848E+04    0.59919E-04   -0.22673E-04  4728   0.133E-02    0.153E-02
RMM:   6    -0.231763174430E+04    0.41782E-05   -0.20997E-05  2882   0.711E-03
 184 F= -.23381974E+04 E0= -.23381974E+04  d E =-.101510E-02  mag=     2.0000
       N       E                     dE             d eps       ncg     rms          rms(c)
DAV:   1    -0.231763168857E+04    0.59910E-04   -0.29053E-02  4912   0.188E-01    0.402E-02
RMM:   2    -0.231763177559E+04   -0.87022E-04   -0.97521E-04  5485   0.297E-02    0.196E-02
RMM:   3    -0.231763176982E+04    0.57677E-05   -0.58790E-05  3119   0.108E-02
 185 F= -.23381974E+04 E0= -.23381974E+04  d E =-.995445E-03  mag=     2.0000
       N       E                     dE             d eps       ncg     rms          rms(c)
DAV:   1    -0.231763104763E+04    0.72796E-03   -0.65674E-01  4440   0.892E-01    0.183E-01
RMM:   2    -0.231763293853E+04   -0.18909E-02   -0.21018E-02  5160   0.134E-01    0.860E-02
RMM:   3    -0.231763276872E+04    0.16981E-03   -0.11139E-03  4704   0.476E-02    0.563E-02
RMM:   4    -0.231763274433E+04    0.24397E-04   -0.30885E-04  4581   0.146E-02    0.604E-02
RMM:   5    -0.231763271031E+04    0.34017E-04   -0.14376E-04  3962   0.118E-02    0.284E-02
RMM:   6    -0.231763269946E+04    0.10849E-04   -0.17317E-05  2855   0.416E-03    0.886E-03
RMM:   7    -0.231763269752E+04    0.19416E-05   -0.47527E-06  2823   0.319E-03
 186 F= -.23381981E+04 E0= -.23381981E+04  d E =-.738038E-03  mag=     2.0000
       N       E                     dE             d eps       ncg     rms          rms(c)
DAV:   1    -0.231763269847E+04    0.99106E-06   -0.12904E-04  5096   0.133E-02    0.424E-03
RMM:   2    -0.231763269874E+04   -0.26844E-06   -0.70864E-06  2702   0.325E-03
 187 F= -.23381981E+04 E0= -.23381981E+04  d E =-.736724E-03  mag=     2.0000
       N       E                     dE             d eps       ncg     rms          rms(c)
DAV:   1    -0.231763260214E+04    0.96324E-04   -0.39807E-01  4440   0.697E-01    0.170E-01
RMM:   2    -0.231763371334E+04   -0.11112E-02   -0.12789E-02  5130   0.107E-01    0.716E-02
RMM:   3    -0.231763359400E+04    0.11934E-03   -0.69539E-04  4696   0.391E-02    0.594E-02
RMM:   4    -0.231763356995E+04    0.24056E-04   -0.17604E-04  4314   0.106E-02    0.547E-02
RMM:   5    -0.231763352055E+04    0.49399E-04   -0.12364E-04  4234   0.106E-02    0.115E-02
RMM:   6    -0.231763351733E+04    0.32206E-05   -0.12551E-05  2852   0.585E-03
 188 F= -.23381988E+04 E0= -.23381988E+04  d E =-.683907E-03  mag=     2.0000
       N       E                     dE             d eps       ncg     rms          rms(c)
DAV:   1    -0.231763351143E+04    0.91193E-05   -0.10967E-03  5360   0.366E-02    0.959E-03
RMM:   2    -0.231763351431E+04   -0.28766E-05   -0.33844E-05  3192   0.696E-03
 189 F= -.23381988E+04 E0= -.23381988E+04  d E =-.687932E-03  mag=     2.0000
       N       E                     dE             d eps       ncg     rms          rms(c)
DAV:   1    -0.231763356712E+04   -0.55690E-04   -0.26058E-01  4440   0.563E-01    0.124E-01
RMM:   2    -0.231763425922E+04   -0.69210E-03   -0.78094E-03  5350   0.866E-02    0.518E-02
RMM:   3    -0.231763420907E+04    0.50156E-04   -0.50942E-04  4552   0.405E-02    0.323E-02
RMM:   4    -0.231763418608E+04    0.22985E-04   -0.15611E-04  4269   0.115E-02    0.129E-02
RMM:   5    -0.231763418593E+04    0.14712E-06   -0.16151E-05  2850   0.805E-03
 190 F= -.23381994E+04 E0= -.23381994E+04  d E =-.544591E-03  mag=     2.0000
       N       E                     dE             d eps       ncg     rms          rms(c)
DAV:   1    -0.231763419293E+04   -0.68474E-05   -0.13210E-02  4904   0.127E-01    0.291E-02
RMM:   2    -0.231763423078E+04   -0.37855E-04   -0.42356E-04  5290   0.200E-02    0.165E-02
RMM:   3    -0.231763422963E+04    0.11495E-05   -0.32667E-05  2856   0.811E-03
 191 F= -.23381994E+04 E0= -.23381994E+04  d E =-.559664E-03  mag=     2.0000
       N       E                     dE             d eps       ncg     rms          rms(c)
DAV:   1    -0.231763438253E+04   -0.15174E-03   -0.24048E-01  4440   0.542E-01    0.117E-01
RMM:   2    -0.231763503936E+04   -0.65683E-03   -0.74270E-03  5116   0.811E-02    0.534E-02
RMM:   3    -0.231763496746E+04    0.71895E-04   -0.37595E-04  4557   0.269E-02    0.400E-02
RMM:   4    -0.231763495888E+04    0.85795E-05   -0.89005E-05  3932   0.788E-03
 192 F= -.23382000E+04 E0= -.23382000E+04  d E =-.604367E-03  mag=     2.0000
       N       E                     dE             d eps       ncg     rms          rms(c)
DAV:   1    -0.231763487122E+04    0.96246E-04   -0.71620E-02  4528   0.296E-01    0.652E-02
RMM:   2    -0.231763507169E+04   -0.20047E-03   -0.21871E-03  5903   0.474E-02    0.460E-02
RMM:   3    -0.231763506687E+04    0.48219E-05   -0.19577E-04  3794   0.155E-02    0.482E-02
RMM:   4    -0.231763503731E+04    0.29559E-04   -0.29198E-05  2853   0.546E-03    0.163E-02
RMM:   5    -0.231763502876E+04    0.85457E-05   -0.30672E-05  3305   0.530E-03
 193 F= -.23382000E+04 E0= -.23382000E+04  d E =-.605218E-03  mag=     2.0000
       N       E                     dE             d eps       ncg     rms          rms(c)
DAV:   1    -0.231763516718E+04   -0.12988E-03   -0.14661E-01  4440   0.423E-01    0.793E-02
RMM:   2    -0.231763559236E+04   -0.42518E-03   -0.45990E-03  5600   0.655E-02    0.412E-02
RMM:   3    -0.231763558043E+04    0.11934E-04   -0.28756E-04  4244   0.245E-02    0.403E-02
RMM:   4    -0.231763556457E+04    0.15854E-04   -0.39966E-05  2900   0.610E-03    0.245E-02
RMM:   5    -0.231763555412E+04    0.10457E-04   -0.37309E-05  3333   0.626E-03    0.641E-03
RMM:   6    -0.231763555403E+04    0.87253E-07   -0.58298E-06  2827   0.471E-03
 194 F= -.23382004E+04 E0= -.23382004E+04  d E =-.447167E-03  mag=     2.0000
       N       E                     dE             d eps       ncg     rms          rms(c)
DAV:   1    -0.231763489329E+04    0.66083E-03   -0.39281E-01  4440   0.693E-01    0.129E-01
RMM:   2    -0.231763605391E+04   -0.11606E-02   -0.12554E-02  5072   0.103E-01    0.669E-02
RMM:   3    -0.231763597867E+04    0.75236E-04   -0.71503E-04  4641   0.394E-02    0.621E-02
RMM:   4    -0.231763594259E+04    0.36082E-04   -0.11554E-04  4029   0.898E-03    0.415E-02
RMM:   5    -0.231763591260E+04    0.29987E-04   -0.96514E-05  4064   0.951E-03    0.111E-02
RMM:   6    -0.231763591153E+04    0.10728E-05   -0.12573E-05  2859   0.620E-03
 195 F= -.23382007E+04 E0= -.23382007E+04  d E =-.677246E-03  mag=     2.0000
       N       E                     dE             d eps       ncg     rms          rms(c)
DAV:   1    -0.231763606125E+04   -0.14864E-03   -0.21658E-01  4440   0.516E-01    0.104E-01
RMM:   2    -0.231763672502E+04   -0.66377E-03   -0.72644E-03  5129   0.786E-02    0.511E-02
RMM:   3    -0.231763668732E+04    0.37692E-04   -0.43348E-04  4585   0.289E-02    0.482E-02
RMM:   4    -0.231763666511E+04    0.22214E-04   -0.69601E-05  3146   0.691E-03    0.319E-02
RMM:   5    -0.231763664726E+04    0.17847E-04   -0.54248E-05  3744   0.731E-03    0.822E-03
RMM:   6    -0.231763664665E+04    0.61331E-06   -0.79450E-06  2844   0.487E-03
 196 F= -.23382013E+04 E0= -.23382013E+04  d E =-.651466E-03  mag=     2.0000
       N       E                     dE             d eps       ncg     rms          rms(c)
DAV:   1    -0.231763636678E+04    0.28049E-03   -0.20430E-01  4464   0.501E-01    0.102E-01
RMM:   2    -0.231763698843E+04   -0.62166E-03   -0.68344E-03  5210   0.763E-02    0.501E-02
RMM:   3    -0.231763695229E+04    0.36139E-04   -0.38976E-04  4490   0.276E-02    0.474E-02
RMM:   4    -0.231763692967E+04    0.22619E-04   -0.68805E-05  3120   0.681E-03    0.312E-02
RMM:   5    -0.231763691041E+04    0.19263E-04   -0.52129E-05  3742   0.721E-03    0.870E-03
RMM:   6    -0.231763690931E+04    0.10981E-05   -0.86332E-06  2842   0.496E-03
 197 F= -.23382015E+04 E0= -.23382015E+04  d E =-.833153E-03  mag=     2.0000
       N       E                     dE             d eps       ncg     rms          rms(c)
DAV:   1    -0.231763705468E+04   -0.14427E-03   -0.19897E-01  4440   0.494E-01    0.988E-02
RMM:   2    -0.231763766839E+04   -0.61371E-03   -0.66728E-03  5226   0.756E-02    0.515E-02
RMM:   3    -0.231763764041E+04    0.27977E-04   -0.39892E-04  4504   0.275E-02    0.506E-02
RMM:   4    -0.231763761415E+04    0.26260E-04   -0.66230E-05  3058   0.671E-03    0.298E-02
RMM:   5    -0.231763759837E+04    0.15782E-04   -0.47286E-05  3504   0.701E-03    0.793E-03
RMM:   6    -0.231763759811E+04    0.25824E-06   -0.82948E-06  2848   0.488E-03
 198 F= -.23382021E+04 E0= -.23382021E+04  d E =-.603821E-03  mag=     2.0000
       N       E                     dE             d eps       ncg     rms          rms(c)
DAV:   1    -0.231763726117E+04    0.33720E-03   -0.21848E-01  4440   0.518E-01    0.104E-01
RMM:   2    -0.231763793751E+04   -0.67633E-03   -0.73658E-03  5230   0.791E-02    0.541E-02
RMM:   3    -0.231763790233E+04    0.35177E-04   -0.41380E-04  4546   0.274E-02    0.530E-02
RMM:   4    -0.231763787304E+04    0.29289E-04   -0.73513E-05  3147   0.697E-03    0.314E-02
RMM:   5    -0.231763785427E+04    0.18767E-04   -0.54175E-05  3792   0.731E-03    0.909E-03
RMM:   6    -0.231763785337E+04    0.90142E-06   -0.91615E-06  2851   0.505E-03
 199 F= -.23382023E+04 E0= -.23382023E+04  d E =-.770249E-03  mag=     2.0000
       N       E                     dE             d eps       ncg     rms          rms(c)
DAV:   1    -0.231763795135E+04   -0.97079E-04   -0.20820E-01  4464   0.504E-01    0.973E-02
RMM:   2    -0.231763857516E+04   -0.62381E-03   -0.67342E-03  5175   0.761E-02    0.522E-02
RMM:   3    -0.231763854603E+04    0.29132E-04   -0.39370E-04  4506   0.283E-02    0.532E-02
RMM:   4    -0.231763851548E+04    0.30549E-04   -0.63839E-05  3045   0.665E-03    0.284E-02
RMM:   5    -0.231763850073E+04    0.14752E-04   -0.47511E-05  3559   0.697E-03    0.849E-03
RMM:   6    -0.231763850046E+04    0.26452E-06   -0.88945E-06  2847   0.496E-03
 200 F= -.23382028E+04 E0= -.23382028E+04  d E =-.568789E-03  mag=     2.0000
       N       E                     dE             d eps       ncg     rms          rms(c)
DAV:   1    -0.231763792483E+04    0.57590E-03   -0.33429E-01  4440   0.639E-01    0.123E-01
RMM:   2    -0.231763892680E+04   -0.10020E-02   -0.10826E-02  5204   0.963E-02    0.669E-02
RMM:   3    -0.231763887675E+04    0.50055E-04   -0.60834E-04  4613   0.330E-02    0.683E-02
RMM:   4    -0.231763882503E+04    0.51717E-04   -0.10510E-04  3551   0.830E-03    0.359E-02
RMM:   5    -0.231763879935E+04    0.25679E-04   -0.79786E-05  4038   0.864E-03    0.112E-02
RMM:   6    -0.231763879786E+04    0.14892E-05   -0.13068E-05  2855   0.615E-03
 201 F= -.23382030E+04 E0= -.23382030E+04  d E =-.767318E-03  mag=     2.0000
