       N       E                     dE             d eps       ncg     rms          rms(c)
DAV:   1     0.129521167713E+05    0.12952E+05   -0.83201E+05  4440   0.144E+03
DAV:   2    -0.102996406077E+04   -0.13982E+05   -0.13371E+05  5088   0.331E+02
DAV:   3    -0.246794569852E+04   -0.14380E+04   -0.14232E+04  5376   0.113E+02
DAV:   4    -0.251161590711E+04   -0.43670E+02   -0.43440E+02  6688   0.288E+01
DAV:   5    -0.251239250906E+04   -0.77660E+00   -0.77499E+00  5728   0.331E+00    0.170E+02
RMM:   6    -0.148899507479E+04    0.10234E+04   -0.19240E+03  4413   0.385E+01    0.727E+01
RMM:   7    -0.165560581600E+04   -0.16661E+03   -0.28917E+02  4990   0.142E+01    0.514E+01
RMM:   8    -0.170748494750E+04   -0.51879E+02   -0.80491E+01  5239   0.822E+00    0.407E+01
RMM:   9    -0.177890953639E+04   -0.71425E+02   -0.53721E+01  4948   0.669E+00    0.343E+01
RMM:  10    -0.191742668080E+04   -0.13852E+03   -0.62278E+01  5150   0.752E+00    0.247E+01
RMM:  11    -0.202592100059E+04   -0.10849E+03   -0.48348E+01  4958   0.567E+00    0.161E+01
RMM:  12    -0.209229285889E+04   -0.66372E+02   -0.29817E+01  4882   0.417E+00    0.173E+01
RMM:  13    -0.215907992353E+04   -0.66787E+02   -0.33954E+01  4716   0.451E+00    0.121E+01
RMM:  14    -0.224766626030E+04   -0.88586E+02   -0.69316E+01  4465   0.613E+00    0.686E+00
RMM:  15    -0.228852392662E+04   -0.40858E+02   -0.36890E+01  4420   0.464E+00    0.835E+00
RMM:  16    -0.229239801724E+04   -0.38741E+01   -0.60945E+00  5070   0.226E+00    0.520E+00
RMM:  17    -0.229829256883E+04   -0.58946E+01   -0.45355E+00  4404   0.132E+00    0.429E+00
RMM:  18    -0.230016924286E+04   -0.18767E+01   -0.99148E-01  4571   0.803E-01    0.500E+00
RMM:  19    -0.230013019564E+04    0.39047E-01   -0.13094E-01  5333   0.294E-01    0.535E+00
RMM:  20    -0.230172389731E+04   -0.15937E+01   -0.60750E-01  4430   0.397E-01    0.294E+00
RMM:  21    -0.230242650471E+04   -0.70261E+00   -0.33398E-01  4540   0.335E-01    0.296E+00
RMM:  22    -0.230243533891E+04   -0.88342E-02   -0.36029E-02  4725   0.155E-01    0.284E+00
RMM:  23    -0.230253663212E+04   -0.10129E+00   -0.61278E-02  4608   0.111E-01    0.240E+00
RMM:  24    -0.230275251485E+04   -0.21588E+00   -0.14543E-01  4595   0.172E-01    0.169E+00
RMM:  25    -0.230311739965E+04   -0.36488E+00   -0.32962E-01  4550   0.249E-01    0.160E+00
RMM:  26    -0.230319898737E+04   -0.81588E-01   -0.66088E-02  4613   0.145E-01    0.897E-01
RMM:  27    -0.230329428161E+04   -0.95294E-01   -0.52515E-02  4492   0.117E-01    0.359E-01
RMM:  28    -0.230336151166E+04   -0.67230E-01   -0.18064E-02  4488   0.949E-02    0.337E-01
RMM:  29    -0.230340062821E+04   -0.39117E-01   -0.71166E-03  4615   0.498E-02    0.211E-01
RMM:  30    -0.230344579470E+04   -0.45166E-01   -0.93680E-03  4410   0.614E-02    0.179E-01
RMM:  31    -0.230346633816E+04   -0.20543E-01   -0.58639E-03  4613   0.484E-02    0.130E-01
RMM:  32    -0.230347415929E+04   -0.78211E-02   -0.23420E-03  4684   0.325E-02    0.754E-02
RMM:  33    -0.230347856817E+04   -0.44089E-02   -0.10120E-03  4240   0.182E-02    0.282E-02
RMM:  34    -0.230348072732E+04   -0.21592E-02   -0.44421E-04  4010   0.149E-02    0.263E-02
RMM:  35    -0.230348140619E+04   -0.67887E-03   -0.15990E-04  3879   0.856E-03    0.125E-02
RMM:  36    -0.230348165462E+04   -0.24842E-03   -0.50993E-05  3414   0.597E-03    0.681E-03
RMM:  37    -0.230348173147E+04   -0.76849E-04   -0.19410E-05  3026   0.400E-03    0.857E-03
RMM:  38    -0.230348176290E+04   -0.31430E-04   -0.82007E-06  2818   0.309E-03    0.317E-03
RMM:  39    -0.230348177221E+04   -0.93110E-05   -0.36536E-06  2651   0.235E-03
   1 F= -.23241984E+04 E0= -.23241983E+04  d E =-.232420E+04  mag=     5.0003
       N       E                     dE             d eps       ncg     rms          rms(c)
DAV:   1    -0.230345597792E+04    0.25785E-01   -0.71826E+01  4784   0.322E+00    0.248E+00
RMM:   2    -0.230390035152E+04   -0.44437E+00   -0.46447E+00  6124   0.799E-01    0.276E+00
RMM:   3    -0.230389250598E+04    0.78455E-02   -0.45301E-01  5699   0.282E-01    0.265E+00
RMM:   4    -0.230383805414E+04    0.54452E-01   -0.84321E-02  5576   0.106E-01    0.125E+00
RMM:   5    -0.230384581736E+04   -0.77632E-02   -0.45169E-02  5610   0.716E-02    0.186E+00
RMM:   6    -0.230382670783E+04    0.19110E-01   -0.57677E-02  5522   0.695E-02    0.598E-01
RMM:   7    -0.230382395814E+04    0.27497E-02   -0.39578E-03  4445   0.291E-02    0.203E-01
RMM:   8    -0.230382379797E+04    0.16017E-03   -0.12596E-03  4092   0.129E-02    0.752E-02
RMM:   9    -0.230382383555E+04   -0.37578E-04   -0.15785E-04  3342   0.854E-03    0.348E-02
RMM:  10    -0.230382388541E+04   -0.49858E-04   -0.48981E-05  2927   0.539E-03    0.186E-02
RMM:  11    -0.230382390637E+04   -0.20958E-04   -0.14407E-05  2876   0.373E-03    0.155E-02
RMM:  12    -0.230382392315E+04   -0.16778E-04   -0.83668E-06  2775   0.280E-03    0.148E-02
RMM:  13    -0.230382392331E+04   -0.16621E-06   -0.19968E-06  2557   0.218E-03
   2 F= -.23245415E+04 E0= -.23245382E+04  d E =-.343140E+00  mag=     5.0001
       N       E                     dE             d eps       ncg     rms          rms(c)
DAV:   1    -0.230391325627E+04   -0.89333E-01   -0.10849E+01  4648   0.135E+00    0.949E-01
RMM:   2    -0.230397346105E+04   -0.60205E-01   -0.65149E-01  6010   0.350E-01    0.978E-01
RMM:   3    -0.230397560734E+04   -0.21463E-02   -0.69761E-02  5625   0.112E-01    0.129E+00
RMM:   4    -0.230396634697E+04    0.92604E-02   -0.13400E-02  4951   0.399E-02    0.468E-01
RMM:   5    -0.230396582002E+04    0.52695E-03   -0.44828E-03  4716   0.234E-02    0.409E-01
RMM:   6    -0.230396456168E+04    0.12583E-02   -0.55259E-03  5094   0.237E-02    0.276E-01
RMM:   7    -0.230396403124E+04    0.53044E-03   -0.65953E-04  3161   0.133E-02    0.453E-02
RMM:   8    -0.230396401699E+04    0.14252E-04   -0.12673E-04  3004   0.522E-03    0.219E-02
RMM:   9    -0.230396401270E+04    0.42938E-05   -0.36356E-05  2863   0.413E-03
   3 F= -.23246811E+04 E0= -.23246801E+04  d E =-.482734E+00  mag=     5.0000
       N       E                     dE             d eps       ncg     rms          rms(c)
DAV:   1    -0.230396403282E+04   -0.15832E-04   -0.54746E-03  4776   0.308E-02    0.223E-02
RMM:   2    -0.230396406840E+04   -0.35579E-04   -0.30250E-04  3237   0.710E-03    0.351E-02
RMM:   3    -0.230396406179E+04    0.66139E-05   -0.33577E-05  2715   0.364E-03
   4 F= -.23246811E+04 E0= -.23246802E+04  d E =-.482790E+00  mag=     5.0000
       N       E                     dE             d eps       ncg     rms          rms(c)
DAV:   1    -0.230396116428E+04    0.29041E-02   -0.19589E+00  4568   0.904E-01    0.493E-01
RMM:   2    -0.230400458188E+04   -0.43418E-01   -0.43208E-01  6183   0.232E-01    0.719E-01
RMM:   3    -0.230400717100E+04   -0.25891E-02   -0.46958E-02  5487   0.902E-02    0.572E-01
RMM:   4    -0.230400523045E+04    0.19405E-02   -0.50901E-03  4131   0.226E-02    0.180E-01
RMM:   5    -0.230400509268E+04    0.13778E-03   -0.78624E-04  3317   0.112E-02    0.144E-01
RMM:   6    -0.230400495638E+04    0.13630E-03   -0.52162E-04  3272   0.913E-03    0.115E-01
RMM:   7    -0.230400485400E+04    0.10239E-03   -0.15126E-04  3012   0.747E-03    0.255E-02
RMM:   8    -0.230400485403E+04   -0.34721E-07   -0.40016E-05  2890   0.491E-03
   5 F= -.23247211E+04 E0= -.23247196E+04  d E =-.399472E-01  mag=     5.0000
       N       E                     dE             d eps       ncg     rms          rms(c)
DAV:   1    -0.230373970205E+04    0.26515E+00   -0.13424E+01  4504   0.236E+00    0.131E+00
RMM:   2    -0.230406106567E+04   -0.32136E+00   -0.30843E+00  6213   0.622E-01    0.252E+00
RMM:   3    -0.230405576782E+04    0.52979E-02   -0.32112E-01  5814   0.233E-01    0.113E+00
RMM:   4    -0.230404887133E+04    0.68965E-02   -0.35899E-02  5435   0.560E-02    0.473E-01
RMM:   5    -0.230404828230E+04    0.58903E-03   -0.56731E-03  4960   0.277E-02    0.501E-01
RMM:   6    -0.230404683021E+04    0.14521E-02   -0.32432E-03  4955   0.197E-02    0.275E-01
RMM:   7    -0.230404647924E+04    0.35098E-03   -0.10228E-03  4387   0.151E-02    0.129E-01
RMM:   8    -0.230404652677E+04   -0.47528E-04   -0.33806E-04  3276   0.101E-02    0.103E-01
RMM:   9    -0.230404658724E+04   -0.60478E-04   -0.78737E-05  2934   0.559E-03    0.111E-01
RMM:  10    -0.230404639810E+04    0.18914E-03   -0.31522E-04  3089   0.772E-03    0.821E-02
RMM:  11    -0.230404623433E+04    0.16377E-03   -0.77218E-04  3721   0.116E-02    0.407E-02
RMM:  12    -0.230404621763E+04    0.16701E-04   -0.20816E-04  2984   0.821E-03    0.494E-02
RMM:  13    -0.230404622015E+04   -0.25227E-05   -0.95274E-05  2913   0.485E-03
   6 F= -.23247601E+04 E0= -.23247559E+04  d E =-.789684E-01  mag=     5.0000
       N       E                     dE             d eps       ncg     rms          rms(c)
DAV:   1    -0.230401885446E+04    0.27363E-01   -0.19874E+00  4664   0.994E-01    0.899E-01
RMM:   2    -0.230410912759E+04   -0.90273E-01   -0.61290E-01  6304   0.292E-01    0.236E+00
RMM:   3    -0.230407718823E+04    0.31939E-01   -0.68676E-02  5823   0.106E-01    0.842E-01
RMM:   4    -0.230407645175E+04    0.73648E-03   -0.79973E-03  4758   0.302E-02    0.933E-01
RMM:   5    -0.230407650372E+04   -0.51967E-04   -0.56292E-04  2988   0.937E-03    0.934E-01
RMM:   6    -0.230407521741E+04    0.12863E-02   -0.34422E-04  3134   0.817E-03    0.721E-01
RMM:   7    -0.230407350151E+04    0.17159E-02   -0.11266E-03  3979   0.126E-02    0.437E-01
RMM:   8    -0.230407243800E+04    0.10635E-02   -0.23525E-03  4478   0.192E-02    0.348E-01
RMM:   9    -0.230407198693E+04    0.45107E-03   -0.88219E-04  3863   0.138E-02    0.399E-01
RMM:  10    -0.230407135423E+04    0.63269E-03   -0.13890E-03  4278   0.147E-02    0.477E-01
RMM:  11    -0.230407191595E+04   -0.56172E-03   -0.38287E-04  3194   0.922E-03    0.445E-01
RMM:  12    -0.230407252977E+04   -0.61382E-03   -0.16483E-03  4238   0.161E-02    0.362E-01
RMM:  13    -0.230407274496E+04   -0.21518E-03   -0.38694E-04  3138   0.939E-03    0.339E-01
RMM:  14    -0.230407261245E+04    0.13250E-03   -0.28953E-05  2808   0.379E-03    0.330E-01
RMM:  15    -0.230407315184E+04   -0.53939E-03   -0.10995E-03  3991   0.130E-02    0.342E-01
RMM:  16    -0.230407346854E+04   -0.31670E-03   -0.10519E-03  3787   0.135E-02    0.333E-01
RMM:  17    -0.230407342818E+04    0.40366E-04   -0.53353E-05  2832   0.475E-03    0.341E-01
RMM:  18    -0.230407365089E+04   -0.22271E-03   -0.15834E-03  4255   0.146E-02    0.262E-01
RMM:  19    -0.230407371020E+04   -0.59311E-04   -0.97977E-04  3726   0.124E-02    0.107E-01
RMM:  20    -0.230407384402E+04   -0.13382E-03   -0.81904E-04  3880   0.109E-02    0.507E-02
RMM:  21    -0.230407392166E+04   -0.77648E-04   -0.38984E-04  3235   0.846E-03    0.363E-02
RMM:  22    -0.230407395815E+04   -0.36482E-04   -0.11991E-04  2916   0.569E-03    0.519E-02
RMM:  23    -0.230407400588E+04   -0.47729E-04   -0.17899E-04  3030   0.610E-03    0.593E-02
RMM:  24    -0.230407403201E+04   -0.26135E-04   -0.19785E-04  3007   0.647E-03    0.310E-02
RMM:  25    -0.230407406029E+04   -0.28281E-04   -0.24767E-04  3130   0.674E-03    0.165E-02
RMM:  26    -0.230407406989E+04   -0.95938E-05   -0.97366E-05  2872   0.520E-03
   7 F= -.23247874E+04 E0= -.23247745E+04  d E =-.272903E-01  mag=     5.0000
       N       E                     dE             d eps       ncg     rms          rms(c)
DAV:   1    -0.230372015474E+04    0.35391E+00   -0.14017E+01  4472   0.261E+00    0.299E+00
RMM:   2    -0.230441643977E+04   -0.69629E+00   -0.43531E+00  6252   0.773E-01    0.802E+00
RMM:   3    -0.230416286272E+04    0.25358E+00   -0.56055E-01  5730   0.293E-01    0.258E+00
RMM:   4    -0.230415229020E+04    0.10573E-01   -0.65566E-02  5249   0.924E-02    0.188E+00
RMM:   5    -0.230414731644E+04    0.49738E-02   -0.32235E-02  5585   0.637E-02    0.178E+00
RMM:   6    -0.230412822424E+04    0.19092E-01   -0.28209E-02  5174   0.625E-02    0.696E-01
RMM:   7    -0.230412712484E+04    0.10994E-02   -0.45625E-03  4472   0.320E-02    0.366E-01
RMM:   8    -0.230412601260E+04    0.11122E-02   -0.22603E-03  4583   0.192E-02    0.228E-01
RMM:   9    -0.230412607345E+04   -0.60852E-04   -0.45823E-04  3816   0.116E-02    0.155E-01
RMM:  10    -0.230412600121E+04    0.72236E-04   -0.16901E-04  3200   0.674E-03    0.584E-02
RMM:  11    -0.230412600208E+04   -0.87250E-06   -0.63349E-05  2942   0.523E-03
   8 F= -.23248378E+04 E0= -.23248370E+04  d E =-.776605E-01  mag=     5.0000
       N       E                     dE             d eps       ncg     rms          rms(c)
DAV:   1    -0.230412823535E+04   -0.22341E-02   -0.19308E-01  5040   0.296E-01    0.182E-01
RMM:   2    -0.230413381531E+04   -0.55800E-02   -0.54865E-02  6322   0.866E-02    0.224E-01
RMM:   3    -0.230413385681E+04   -0.41493E-04   -0.59888E-03  3750   0.328E-02    0.981E-02
RMM:   4    -0.230413380228E+04    0.54524E-04   -0.60550E-04  3009   0.821E-03    0.504E-02
RMM:   5    -0.230413381063E+04   -0.83464E-05   -0.87611E-05  2897   0.434E-03
   9 F= -.23248455E+04 E0= -.23248449E+04  d E =-.768196E-02  mag=     5.0000
       N       E                     dE             d eps       ncg     rms          rms(c)
DAV:   1    -0.230410079194E+04    0.33010E-01   -0.17352E+00  4496   0.888E-01    0.524E-01
RMM:   2    -0.230414920350E+04   -0.48412E-01   -0.48692E-01  6473   0.253E-01    0.566E-01
RMM:   3    -0.230415142786E+04   -0.22244E-02   -0.53635E-02  5602   0.983E-02    0.311E-01
RMM:   4    -0.230415079872E+04    0.62915E-03   -0.52330E-03  3880   0.220E-02    0.141E-01
RMM:   5    -0.230415065274E+04    0.14598E-03   -0.64788E-04  3862   0.116E-02    0.144E-01
RMM:   6    -0.230415066106E+04   -0.83260E-05   -0.45849E-04  3160   0.951E-03    0.139E-01
RMM:   7    -0.230415051183E+04    0.14923E-03   -0.18436E-04  3134   0.742E-03    0.338E-02
RMM:   8    -0.230415050760E+04    0.42328E-05   -0.31951E-05  2844   0.426E-03
  10 F= -.23248618E+04 E0= -.23248615E+04  d E =-.239866E-01  mag=     5.0000
       N       E                     dE             d eps       ncg     rms          rms(c)
DAV:   1    -0.230395539236E+04    0.19512E+00   -0.69605E+00  4448   0.178E+00    0.102E+00
RMM:   2    -0.230414986724E+04   -0.19447E+00   -0.19542E+00  6467   0.509E-01    0.120E+00
RMM:   3    -0.230416021331E+04   -0.10346E-01   -0.21588E-01  5876   0.197E-01    0.687E-01
RMM:   4    -0.230415761367E+04    0.25996E-02   -0.22405E-02  5459   0.487E-02    0.438E-01
RMM:   5    -0.230415623476E+04    0.13789E-02   -0.29210E-03  4248   0.182E-02    0.259E-01
RMM:   6    -0.230415546410E+04    0.77066E-03   -0.16598E-03  4600   0.173E-02    0.120E-01
RMM:   7    -0.230415539936E+04    0.64739E-04   -0.74108E-04  4145   0.130E-02    0.623E-02
RMM:   8    -0.230415538463E+04    0.14727E-04   -0.10661E-04  2971   0.704E-03    0.268E-02
RMM:   9    -0.230415538354E+04    0.10939E-05   -0.28105E-05  2862   0.463E-03
  11 F= -.23248658E+04 E0= -.23248657E+04  d E =-.280301E-01  mag=     5.0000
       N       E                     dE             d eps       ncg     rms          rms(c)
DAV:   1    -0.230418356107E+04   -0.28176E-01   -0.37550E-01  4560   0.409E-01    0.242E-01
RMM:   2    -0.230419111090E+04   -0.75498E-02   -0.75519E-02  6339   0.114E-01    0.305E-01
RMM:   3    -0.230419077119E+04    0.33971E-03   -0.62763E-03  4685   0.365E-02    0.155E-01
RMM:   4    -0.230419062293E+04    0.14826E-03   -0.93134E-04  3161   0.110E-02    0.925E-02
RMM:   5    -0.230419058000E+04    0.42925E-04   -0.15038E-04  3019   0.558E-03    0.709E-02
RMM:   6    -0.230419053447E+04    0.45531E-04   -0.96564E-05  2948   0.529E-03    0.318E-02
RMM:   7    -0.230419053108E+04    0.33972E-05   -0.50375E-05  2893   0.502E-03
  12 F= -.23249009E+04 E0= -.23249009E+04  d E =-.351410E-01  mag=     5.0000
       N       E                     dE             d eps       ncg     rms          rms(c)
DAV:   1    -0.230419632274E+04   -0.57883E-02   -0.33623E+00  4472   0.123E+00    0.717E-01
RMM:   2    -0.230426406321E+04   -0.67740E-01   -0.68090E-01  6320   0.339E-01    0.897E-01
RMM:   3    -0.230426127253E+04    0.27907E-02   -0.54631E-02  5898   0.108E-01    0.460E-01
RMM:   4    -0.230425991706E+04    0.13555E-02   -0.81201E-03  4962   0.307E-02    0.252E-01
RMM:   5    -0.230425963142E+04    0.28564E-03   -0.13213E-03  4048   0.141E-02    0.215E-01
RMM:   6    -0.230425919491E+04    0.43650E-03   -0.82506E-04  4299   0.137E-02    0.895E-02
RMM:   7    -0.230425915535E+04    0.39560E-04   -0.39766E-04  3743   0.122E-02    0.465E-02
RMM:   8    -0.230425915994E+04   -0.45847E-05   -0.65117E-05  2938   0.557E-03
  13 F= -.23249695E+04 E0= -.23249694E+04  d E =-.103714E+00  mag=     5.0000
       N       E                     dE             d eps       ncg     rms          rms(c)
DAV:   1    -0.230399664166E+04    0.26251E+00   -0.13362E+01  4464   0.245E+00    0.140E+00
RMM:   2    -0.230426182812E+04   -0.26519E+00   -0.26762E+00  6289   0.663E-01    0.173E+00
RMM:   3    -0.230425741163E+04    0.44165E-02   -0.22494E-01  5940   0.213E-01    0.894E-01
RMM:   4    -0.230425315241E+04    0.42592E-02   -0.32846E-02  5568   0.594E-02    0.475E-01
RMM:   5    -0.230425256683E+04    0.58557E-03   -0.46413E-03  5117   0.264E-02    0.449E-01
RMM:   6    -0.230425152042E+04    0.10464E-02   -0.28116E-03  4869   0.240E-02    0.294E-01
RMM:   7    -0.230425218815E+04   -0.66772E-03   -0.19938E-03  4471   0.220E-02    0.310E-01
RMM:   8    -0.230425176101E+04    0.42714E-03   -0.24929E-04  3111   0.920E-03    0.289E-01
RMM:   9    -0.230424996946E+04    0.17916E-02   -0.55782E-03  4163   0.304E-02    0.224E-01
RMM:  10    -0.230424936630E+04    0.60316E-03   -0.37006E-03  3983   0.281E-02    0.229E-01
RMM:  11    -0.230424943208E+04   -0.65781E-04   -0.55772E-04  3229   0.117E-02    0.231E-01
RMM:  12    -0.230424945524E+04   -0.23161E-04   -0.41977E-04  3112   0.823E-03    0.205E-01
RMM:  13    -0.230424958765E+04   -0.13242E-03   -0.16956E-03  4014   0.179E-02    0.114E-01
RMM:  14    -0.230424968731E+04   -0.99652E-04   -0.27760E-04  3097   0.951E-03    0.381E-02
RMM:  15    -0.230424967161E+04    0.15695E-04   -0.11827E-04  2934   0.607E-03    0.348E-02
RMM:  16    -0.230424967681E+04   -0.51957E-05   -0.42703E-05  2883   0.491E-03
  14 F= -.23249598E+04 E0= -.23249595E+04  d E =-.939930E-01  mag=     5.0000
       N       E                     dE             d eps       ncg     rms          rms(c)
DAV:   1    -0.230420443758E+04    0.45234E-01   -0.37700E+00  4464   0.130E+00    0.758E-01
RMM:   2    -0.230428042003E+04   -0.75982E-01   -0.77025E-01  6260   0.367E-01    0.867E-01
RMM:   3    -0.230427914464E+04    0.12754E-02   -0.74866E-02  5882   0.128E-01    0.458E-01
RMM:   4    -0.230427795210E+04    0.11925E-02   -0.99320E-03  4935   0.313E-02    0.217E-01
RMM:   5    -0.230427781854E+04    0.13356E-03   -0.13061E-03  4211   0.146E-02    0.213E-01
RMM:   6    -0.230427743422E+04    0.38432E-03   -0.95038E-04  4257   0.141E-02    0.118E-01
RMM:   7    -0.230427731600E+04    0.11823E-03   -0.45661E-04  4060   0.125E-02    0.282E-02
RMM:   8    -0.230427731373E+04    0.22633E-05   -0.51813E-05  2918   0.549E-03
  15 F= -.23249876E+04 E0= -.23249875E+04  d E =-.121773E+00  mag=     5.0000
       N       E                     dE             d eps       ncg     rms          rms(c)
DAV:   1    -0.230427717010E+04    0.14589E-03   -0.10813E-02  5024   0.696E-02    0.433E-02
RMM:   2    -0.230427738859E+04   -0.21849E-03   -0.22093E-03  4509   0.200E-02    0.488E-02
RMM:   3    -0.230427738782E+04    0.76435E-06   -0.20910E-04  2878   0.786E-03    0.297E-02
RMM:   4    -0.230427738612E+04    0.17033E-05   -0.30418E-05  2845   0.259E-03
  16 F= -.23249877E+04 E0= -.23249875E+04  d E =-.121852E+00  mag=     5.0000
       N       E                     dE             d eps       ncg     rms          rms(c)
DAV:   1    -0.230428052917E+04   -0.31413E-02   -0.58238E-02  4520   0.172E-01    0.875E-02
RMM:   2    -0.230428186680E+04   -0.13376E-02   -0.14149E-02  6001   0.426E-02    0.528E-02
RMM:   3    -0.230428199999E+04   -0.13320E-03   -0.17577E-03  3083   0.204E-02    0.473E-02
RMM:   4    -0.230428200816E+04   -0.81630E-05   -0.17731E-04  2893   0.489E-03    0.426E-02
RMM:   5    -0.230428199300E+04    0.15156E-04   -0.32038E-05  2876   0.286E-03    0.264E-02
RMM:   6    -0.230428199801E+04   -0.50047E-05   -0.16476E-05  2803   0.274E-03
  17 F= -.23249924E+04 E0= -.23249923E+04  d E =-.476364E-02  mag=     5.0000
       N       E                     dE             d eps       ncg     rms          rms(c)
DAV:   1    -0.230428019458E+04    0.17984E-02   -0.52424E-01  4480   0.517E-01    0.264E-01
RMM:   2    -0.230429223377E+04   -0.12039E-01   -0.12816E-01  5857   0.126E-01    0.147E-01
RMM:   3    -0.230429330198E+04   -0.10682E-02   -0.15160E-02  4614   0.628E-02    0.944E-02
RMM:   4    -0.230429333078E+04   -0.28804E-04   -0.15048E-03  3775   0.127E-02    0.827E-02
RMM:   5    -0.230429330029E+04    0.30485E-04   -0.22972E-04  2910   0.838E-03    0.745E-02
RMM:   6    -0.230429326406E+04    0.36235E-04   -0.11519E-04  3061   0.620E-03    0.397E-02
RMM:   7    -0.230429326903E+04   -0.49679E-05   -0.34454E-05  2858   0.482E-03
  18 F= -.23250041E+04 E0= -.23250041E+04  d E =-.164889E-01  mag=     5.0000
       N       E                     dE             d eps       ncg     rms          rms(c)
DAV:   1    -0.230425178855E+04    0.41476E-01   -0.20920E+00  4464   0.103E+00    0.533E-01
RMM:   2    -0.230430016121E+04   -0.48373E-01   -0.51654E-01  5892   0.257E-01    0.299E-01
RMM:   3    -0.230430459013E+04   -0.44289E-02   -0.63735E-02  5255   0.122E-01    0.194E-01
RMM:   4    -0.230430475194E+04   -0.16181E-03   -0.59183E-03  4818   0.237E-02    0.173E-01
RMM:   5    -0.230430453951E+04    0.21243E-03   -0.89289E-04  3556   0.148E-02    0.136E-01
RMM:   6    -0.230430434727E+04    0.19223E-03   -0.53925E-04  4446   0.112E-02    0.720E-02
RMM:   7    -0.230430434900E+04   -0.17250E-05   -0.18742E-04  2934   0.935E-03    0.726E-02
RMM:   8    -0.230430431346E+04    0.35541E-04   -0.53472E-05  2911   0.468E-03    0.280E-02
RMM:   9    -0.230430431591E+04   -0.24561E-05   -0.25002E-05  2880   0.378E-03
  19 F= -.23250161E+04 E0= -.23250161E+04  d E =-.284387E-01  mag=     5.0000
       N       E                     dE             d eps       ncg     rms          rms(c)
DAV:   1    -0.230430063110E+04    0.36824E-02   -0.16149E-01  4720   0.287E-01    0.149E-01
RMM:   2    -0.230430434713E+04   -0.37160E-02   -0.39605E-02  6108   0.713E-02    0.831E-02
RMM:   3    -0.230430469603E+04   -0.34891E-03   -0.48388E-03  3574   0.327E-02    0.584E-02
RMM:   4    -0.230430471511E+04   -0.19076E-04   -0.46667E-04  2997   0.755E-03    0.564E-02
RMM:   5    -0.230430468955E+04    0.25558E-04   -0.80608E-05  2849   0.513E-03    0.384E-02
RMM:   6    -0.230430468783E+04    0.17231E-05   -0.49606E-05  2933   0.431E-03
  20 F= -.23250167E+04 E0= -.23250167E+04  d E =-.290595E-01  mag=     5.0000
       N       E                     dE             d eps       ncg     rms          rms(c)
DAV:   1    -0.230429944994E+04    0.52396E-02   -0.60701E-01  4480   0.699E-01    0.313E-01
RMM:   2    -0.230431167788E+04   -0.12228E-01   -0.12304E-01  5747   0.153E-01    0.315E-01
RMM:   3    -0.230431213407E+04   -0.45619E-03   -0.14543E-02  5205   0.734E-02    0.238E-01
RMM:   4    -0.230431154733E+04    0.58674E-03   -0.15109E-03  4555   0.165E-02    0.810E-02
RMM:   5    -0.230431143584E+04    0.11149E-03   -0.28257E-04  4043   0.108E-02    0.561E-02
RMM:   6    -0.230431144849E+04   -0.12649E-04   -0.19001E-04  3788   0.897E-03    0.651E-02
RMM:   7    -0.230431141261E+04    0.35878E-04   -0.65742E-05  2900   0.731E-03    0.267E-02
RMM:   8    -0.230431141528E+04   -0.26664E-05   -0.21377E-05  2869   0.393E-03
  21 F= -.23250237E+04 E0= -.23250237E+04  d E =-.701222E-02  mag=     5.0000
       N       E                     dE             d eps       ncg     rms          rms(c)
DAV:   1    -0.230430288317E+04    0.85294E-02   -0.52363E-01  4480   0.650E-01    0.291E-01
RMM:   2    -0.230431351379E+04   -0.10631E-01   -0.10696E-01  5826   0.144E-01    0.293E-01
RMM:   3    -0.230431390658E+04   -0.39279E-03   -0.12708E-02  5224   0.644E-02    0.223E-01
RMM:   4    -0.230431338604E+04    0.52055E-03   -0.13036E-03  4431   0.153E-02    0.754E-02
RMM:   5    -0.230431327957E+04    0.10647E-03   -0.23969E-04  3985   0.101E-02    0.499E-02
RMM:   6    -0.230431328670E+04   -0.71328E-05   -0.16839E-04  3707   0.875E-03    0.576E-02
RMM:   7    -0.230431325679E+04    0.29908E-04   -0.56102E-05  2892   0.703E-03    0.234E-02
RMM:   8    -0.230431325695E+04   -0.15146E-06   -0.17209E-05  2868   0.370E-03
  22 F= -.23250258E+04 E0= -.23250258E+04  d E =-.911067E-02  mag=     5.0000
       N       E                     dE             d eps       ncg     rms          rms(c)
DAV:   1    -0.230430654236E+04    0.67144E-02   -0.46314E-01  4480   0.573E-01    0.287E-01
RMM:   2    -0.230432012261E+04   -0.13580E-01   -0.11996E-01  6090   0.145E-01    0.495E-01
RMM:   3    -0.230431818762E+04    0.19350E-02   -0.13093E-02  5262   0.591E-02    0.149E-01
RMM:   4    -0.230431809068E+04    0.96936E-04   -0.14835E-03  3799   0.134E-02    0.806E-02
RMM:   5    -0.230431804382E+04    0.46862E-04   -0.15205E-04  3088   0.775E-03    0.803E-02
RMM:   6    -0.230431801926E+04    0.24564E-04   -0.14353E-04  3158   0.775E-03    0.633E-02
RMM:   7    -0.230431799397E+04    0.25285E-04   -0.11800E-04  3022   0.778E-03    0.328E-02
RMM:   8    -0.230431799651E+04   -0.25404E-05   -0.23786E-05  2866   0.503E-03
  23 F= -.23250305E+04 E0= -.23250304E+04  d E =-.463157E-02  mag=     5.0000
       N       E                     dE             d eps       ncg     rms          rms(c)
DAV:   1    -0.230430151565E+04    0.16478E-01   -0.75803E-01  4480   0.733E-01    0.369E-01
RMM:   2    -0.230432393742E+04   -0.22422E-01   -0.19723E-01  5976   0.186E-01    0.644E-01
RMM:   3    -0.230432057807E+04    0.33594E-02   -0.21455E-02  5386   0.755E-02    0.191E-01
RMM:   4    -0.230432041732E+04    0.16075E-03   -0.24499E-03  4349   0.169E-02    0.103E-01
RMM:   5    -0.230432033407E+04    0.83255E-04   -0.24604E-04  3510   0.966E-03    0.102E-01
RMM:   6    -0.230432029943E+04    0.34634E-04   -0.24267E-04  3641   0.915E-03    0.827E-02
RMM:   7    -0.230432024868E+04    0.50754E-04   -0.18910E-04  3237   0.920E-03    0.395E-02
RMM:   8    -0.230432025069E+04   -0.20092E-05   -0.36015E-05  2886   0.547E-03
  24 F= -.23250326E+04 E0= -.23250325E+04  d E =-.673404E-02  mag=     5.0000
       N       E                     dE             d eps       ncg     rms          rms(c)
DAV:   1    -0.230430852581E+04    0.11723E-01   -0.61774E-01  4480   0.656E-01    0.327E-01
RMM:   2    -0.230432820213E+04   -0.19676E-01   -0.16849E-01  6164   0.173E-01    0.631E-01
RMM:   3    -0.230432474989E+04    0.34522E-02   -0.16845E-02  5435   0.652E-02    0.157E-01
RMM:   4    -0.230432473811E+04    0.11780E-04   -0.20027E-03  3735   0.147E-02    0.103E-01
RMM:   5    -0.230432469891E+04    0.39204E-04   -0.18100E-04  3152   0.841E-03    0.961E-02
RMM:   6    -0.230432469670E+04    0.22083E-05   -0.26554E-04  3531   0.946E-03    0.835E-02
RMM:   7    -0.230432469081E+04    0.58847E-05   -0.15491E-04  2948   0.791E-03    0.611E-02
RMM:   8    -0.230432470584E+04   -0.15033E-04   -0.62500E-05  2885   0.543E-03    0.502E-02
RMM:   9    -0.230432475755E+04   -0.51706E-04   -0.24328E-04  3164   0.746E-03    0.367E-02
RMM:  10    -0.230432479144E+04   -0.33890E-04   -0.32812E-04  3177   0.869E-03    0.237E-02
RMM:  11    -0.230432479768E+04   -0.62431E-05   -0.14020E-04  2945   0.664E-03    0.112E-02
RMM:  12    -0.230432480057E+04   -0.28912E-05   -0.33269E-05  2814   0.419E-03
  25 F= -.23250368E+04 E0= -.23250368E+04  d E =-.424676E-02  mag=     5.0000
       N       E                     dE             d eps       ncg     rms          rms(c)
DAV:   1    -0.230431781056E+04    0.69871E-02   -0.33215E-01  4480   0.482E-01    0.238E-01
RMM:   2    -0.230432840704E+04   -0.10596E-01   -0.90430E-02  6100   0.127E-01    0.468E-01
RMM:   3    -0.230432650351E+04    0.19035E-02   -0.89314E-03  5022   0.473E-02    0.111E-01
RMM:   4    -0.230432648451E+04    0.19002E-04   -0.10616E-03  3158   0.110E-02    0.662E-02
RMM:   5    -0.230432645627E+04    0.28244E-04   -0.95782E-05  2951   0.619E-03    0.621E-02
RMM:   6    -0.230432644153E+04    0.14740E-04   -0.10465E-04  2968   0.662E-03    0.549E-02
RMM:   7    -0.230432642480E+04    0.16732E-04   -0.79797E-05  2908   0.614E-03    0.261E-02
RMM:   8    -0.230432642536E+04   -0.56549E-06   -0.16019E-05  2851   0.412E-03
  26 F= -.23250382E+04 E0= -.23250382E+04  d E =-.564602E-02  mag=     5.0000
       N       E                     dE             d eps       ncg     rms          rms(c)
DAV:   1    -0.230432463965E+04    0.17851E-02   -0.78792E-02  4640   0.235E-01    0.117E-01
RMM:   2    -0.230432718066E+04   -0.25410E-02   -0.21544E-02  6070   0.625E-02    0.232E-01
RMM:   3    -0.230432671156E+04    0.46911E-03   -0.21105E-03  3391   0.231E-02    0.562E-02
RMM:   4    -0.230432670974E+04    0.18214E-05   -0.25922E-04  2929   0.622E-03    0.368E-02
RMM:   5    -0.230432670376E+04    0.59790E-05   -0.26123E-05  2830   0.344E-03
  27 F= -.23250384E+04 E0= -.23250384E+04  d E =-.581384E-02  mag=     5.0000
       N       E                     dE             d eps       ncg     rms          rms(c)
DAV:   1    -0.230431306335E+04    0.13646E-01   -0.76119E-01  4464   0.760E-01    0.327E-01
RMM:   2    -0.230433226922E+04   -0.19206E-01   -0.17888E-01  6129   0.193E-01    0.486E-01
RMM:   3    -0.230433115402E+04    0.11152E-02   -0.17579E-02  5564   0.702E-02    0.210E-01
RMM:   4    -0.230433097385E+04    0.18018E-03   -0.20088E-03  4296   0.166E-02    0.131E-01
RMM:   5    -0.230433095736E+04    0.16488E-04   -0.24225E-04  3048   0.883E-03    0.131E-01
RMM:   6    -0.230433089986E+04    0.57495E-04   -0.25587E-04  3880   0.924E-03    0.909E-02
RMM:   7    -0.230433092718E+04   -0.27320E-04   -0.32050E-04  3505   0.107E-02    0.624E-02
RMM:   8    -0.230433095443E+04   -0.27252E-04   -0.15723E-04  3019   0.749E-03    0.434E-02
RMM:   9    -0.230433097381E+04   -0.19377E-04   -0.16798E-04  3029   0.722E-03    0.163E-02
RMM:  10    -0.230433097645E+04   -0.26426E-05   -0.38371E-05  2858   0.476E-03
  28 F= -.23250423E+04 E0= -.23250423E+04  d E =-.389860E-02  mag=     5.0000
       N       E                     dE             d eps       ncg     rms          rms(c)
DAV:   1    -0.230432374062E+04    0.72332E-02   -0.37173E-01  4464   0.531E-01    0.231E-01
RMM:   2    -0.230433328663E+04   -0.95460E-02   -0.87513E-02  6095   0.135E-01    0.366E-01
RMM:   3    -0.230433251005E+04    0.77658E-03   -0.86764E-03  5098   0.486E-02    0.139E-01
RMM:   4    -0.230433242900E+04    0.81048E-04   -0.99408E-04  3347   0.118E-02    0.807E-02
RMM:   5    -0.230433241732E+04    0.11678E-04   -0.11326E-04  2931   0.641E-03    0.821E-02
RMM:   6    -0.230433237905E+04    0.38271E-04   -0.10444E-04  3060   0.662E-03    0.518E-02
RMM:   7    -0.230433237879E+04    0.26354E-06   -0.12186E-04  3104   0.735E-03    0.310E-02
RMM:   8    -0.230433238198E+04   -0.31926E-05   -0.33035E-05  2881   0.515E-03
  29 F= -.23250434E+04 E0= -.23250434E+04  d E =-.503996E-02  mag=     5.0000
       N       E                     dE             d eps       ncg     rms          rms(c)
DAV:   1    -0.230432684437E+04    0.55344E-02   -0.41137E-01  4480   0.521E-01    0.223E-01
RMM:   2    -0.230433650152E+04   -0.96572E-02   -0.95405E-02  6298   0.131E-01    0.269E-01
RMM:   3    -0.230433677322E+04   -0.27170E-03   -0.95640E-03  4921   0.491E-02    0.161E-01
RMM:   4    -0.230433663734E+04    0.13588E-03   -0.11539E-03  3250   0.119E-02    0.925E-02
RMM:   5    -0.230433661892E+04    0.18424E-04   -0.12124E-04  2871   0.584E-03    0.865E-02
RMM:   6    -0.230433658269E+04    0.36225E-04   -0.10162E-04  2962   0.588E-03    0.561E-02
RMM:   7    -0.230433659073E+04   -0.80373E-05   -0.17545E-04  3268   0.720E-03    0.320E-02
RMM:   8    -0.230433659292E+04   -0.21948E-05   -0.37811E-05  2867   0.518E-03
  30 F= -.23250474E+04 E0= -.23250474E+04  d E =-.395626E-02  mag=     5.0000
       N       E                     dE             d eps       ncg     rms          rms(c)
DAV:   1    -0.230425769587E+04    0.78895E-01   -0.36985E+00  4448   0.157E+00    0.665E-01
RMM:   2    -0.230434429924E+04   -0.86603E-01   -0.85913E-01  6308   0.394E-01    0.799E-01
RMM:   3    -0.230434707607E+04   -0.27768E-02   -0.89163E-02  5939   0.148E-01    0.470E-01
RMM:   4    -0.230434570406E+04    0.13720E-02   -0.10237E-02  5406   0.342E-02    0.253E-01
RMM:   5    -0.230434551858E+04    0.18548E-03   -0.10887E-03  3876   0.146E-02    0.237E-01
RMM:   6    -0.230434512489E+04    0.39369E-03   -0.89818E-04  4554   0.150E-02    0.131E-01
RMM:   7    -0.230434510869E+04    0.16203E-04   -0.97048E-04  4639   0.166E-02    0.565E-02
RMM:   8    -0.230434510037E+04    0.83168E-05   -0.98453E-05  3041   0.750E-03
  31 F= -.23250551E+04 E0= -.23250551E+04  d E =-.116772E-01  mag=     5.0000
       N       E                     dE             d eps       ncg     rms          rms(c)
DAV:   1    -0.230398907093E+04    0.35604E+00   -0.14783E+01  4448   0.313E+00    0.132E+00
RMM:   2    -0.230433537746E+04   -0.34631E+00   -0.34603E+00  6409   0.795E-01    0.156E+00
RMM:   3    -0.230435061874E+04   -0.15241E-01   -0.37853E-01  6126   0.298E-01    0.943E-01
RMM:   4    -0.230434409603E+04    0.65227E-02   -0.40740E-02  5806   0.690E-02    0.466E-01
RMM:   5    -0.230434323826E+04    0.85777E-03   -0.43042E-03  5104   0.280E-02    0.424E-01
RMM:   6    -0.230434174250E+04    0.14958E-02   -0.31952E-03  5242   0.264E-02    0.228E-01
RMM:   7    -0.230434149221E+04    0.25029E-03   -0.24624E-03  5198   0.258E-02    0.793E-02
RMM:   8    -0.230434144497E+04    0.47238E-04   -0.24019E-04  4035   0.115E-02    0.518E-02
RMM:   9    -0.230434140084E+04    0.44131E-04   -0.15855E-04  3022   0.756E-03    0.184E-02
RMM:  10    -0.230434140109E+04   -0.24913E-06   -0.22923E-05  2891   0.421E-03
  32 F= -.23250497E+04 E0= -.23250497E+04  d E =-.631789E-02  mag=     5.0000
       N       E                     dE             d eps       ncg     rms          rms(c)
DAV:   1    -0.230417989091E+04    0.16151E+00   -0.70187E+00  4448   0.217E+00    0.902E-01
RMM:   2    -0.230434262255E+04   -0.16273E+00   -0.16395E+00  6363   0.555E-01    0.102E+00
RMM:   3    -0.230435230447E+04   -0.96819E-02   -0.18545E-01  5980   0.212E-01    0.711E-01
RMM:   4    -0.230434830950E+04    0.39950E-02   -0.20302E-02  5682   0.496E-02    0.324E-01
RMM:   5    -0.230434783040E+04    0.47910E-03   -0.22353E-03  4519   0.185E-02    0.270E-01
RMM:   6    -0.230434717097E+04    0.65943E-03   -0.12888E-03  4822   0.182E-02    0.146E-01
RMM:   7    -0.230434703409E+04    0.13688E-03   -0.11007E-03  4975   0.182E-02    0.587E-02
RMM:   8    -0.230434702409E+04    0.10002E-04   -0.14040E-04  3294   0.916E-03    0.386E-02
RMM:   9    -0.230434700778E+04    0.16302E-04   -0.52035E-05  2878   0.552E-03    0.132E-02
RMM:  10    -0.230434700787E+04   -0.85653E-07   -0.13537E-05  2887   0.317E-03
  33 F= -.23250565E+04 E0= -.23250565E+04  d E =-.130806E-01  mag=     5.0000
       N       E                     dE             d eps       ncg     rms          rms(c)
DAV:   1    -0.230433915109E+04    0.78567E-02   -0.49360E-01  4480   0.564E-01    0.237E-01
RMM:   2    -0.230435044638E+04   -0.11295E-01   -0.11478E-01  6344   0.139E-01    0.251E-01
RMM:   3    -0.230435116013E+04   -0.71375E-03   -0.11487E-02  5149   0.522E-02    0.174E-01
RMM:   4    -0.230435092454E+04    0.23559E-03   -0.14151E-03  3365   0.131E-02    0.837E-02
RMM:   5    -0.230435089079E+04    0.33751E-04   -0.14993E-04  2916   0.639E-03    0.732E-02
RMM:   6    -0.230435083964E+04    0.51153E-04   -0.95520E-05  2901   0.587E-03    0.346E-02
RMM:   7    -0.230435083126E+04    0.83782E-05   -0.71554E-05  3016   0.572E-03
  34 F= -.23250601E+04 E0= -.23250601E+04  d E =-.358253E-02  mag=     5.0000
       N       E                     dE             d eps       ncg     rms          rms(c)
DAV:   1    -0.230425187506E+04    0.98965E-01   -0.44408E+00  4448   0.169E+00    0.718E-01
RMM:   2    -0.230435471301E+04   -0.10284E+00   -0.10397E+00  6368   0.421E-01    0.798E-01
RMM:   3    -0.230436040620E+04   -0.56932E-02   -0.11158E-01  5990   0.163E-01    0.502E-01
RMM:   4    -0.230435860977E+04    0.17964E-02   -0.12958E-02  5585   0.379E-02    0.261E-01
RMM:   5    -0.230435826626E+04    0.34351E-03   -0.13629E-03  4091   0.156E-02    0.219E-01
RMM:   6    -0.230435780123E+04    0.46503E-03   -0.91171E-04  4575   0.150E-02    0.102E-01
RMM:   7    -0.230435773006E+04    0.71173E-04   -0.57192E-04  4568   0.134E-02    0.348E-02
RMM:   8    -0.230435771910E+04    0.10959E-04   -0.61332E-05  2957   0.680E-03    0.232E-02
RMM:   9    -0.230435771015E+04    0.89439E-05   -0.27799E-05  2854   0.479E-03
  35 F= -.23250662E+04 E0= -.23250662E+04  d E =-.970078E-02  mag=     5.0000
       N       E                     dE             d eps       ncg     rms          rms(c)
DAV:   1    -0.230434556481E+04    0.12154E-01   -0.54246E-01  4544   0.589E-01    0.249E-01
RMM:   2    -0.230435796872E+04   -0.12404E-01   -0.12651E-01  6313   0.145E-01    0.256E-01
RMM:   3    -0.230435881145E+04   -0.84273E-03   -0.12697E-02  5249   0.546E-02    0.182E-01
RMM:   4    -0.230435854864E+04    0.26280E-03   -0.15757E-03  3422   0.137E-02    0.877E-02
RMM:   5    -0.230435850860E+04    0.40049E-04   -0.16417E-04  2912   0.663E-03    0.739E-02
RMM:   6    -0.230435845487E+04    0.53727E-04   -0.10168E-04  2895   0.603E-03    0.357E-02
RMM:   7    -0.230435844476E+04    0.10112E-04   -0.75310E-05  3037   0.586E-03    0.113E-02
RMM:   8    -0.230435844390E+04    0.85650E-06   -0.10806E-05  2857   0.445E-03
  36 F= -.23250666E+04 E0= -.23250666E+04  d E =-.101560E-01  mag=     5.0000
       N       E                     dE             d eps       ncg     rms          rms(c)
DAV:   1    -0.230432711581E+04    0.31329E-01   -0.14479E+00  4432   0.926E-01    0.406E-01
RMM:   2    -0.230436301907E+04   -0.35903E-01   -0.36883E-01  6231   0.228E-01    0.384E-01
RMM:   3    -0.230436634891E+04   -0.33298E-02   -0.40882E-02  5635   0.942E-02    0.295E-01
RMM:   4    -0.230436567744E+04    0.67147E-03   -0.42975E-03  4522   0.211E-02    0.145E-01
RMM:   5    -0.230436554404E+04    0.13340E-03   -0.44019E-04  3059   0.944E-03    0.117E-01
RMM:   6    -0.230436542738E+04    0.11666E-03   -0.28667E-04  3132   0.874E-03    0.662E-02
RMM:   7    -0.230436538947E+04    0.37916E-04   -0.17056E-04  3447   0.776E-03    0.242E-02
RMM:   8    -0.230436538683E+04    0.26390E-05   -0.27413E-05  2881   0.571E-03
  37 F= -.23250732E+04 E0= -.23250732E+04  d E =-.655077E-02  mag=     5.0000
       N       E                     dE             d eps       ncg     rms          rms(c)
DAV:   1    -0.230409486172E+04    0.27053E+00   -0.10392E+01  4416   0.249E+00    0.110E+00
RMM:   2    -0.230436026175E+04   -0.26540E+00   -0.27076E+00  6303   0.630E-01    0.113E+00
RMM:   3    -0.230437985711E+04   -0.19595E-01   -0.31321E-01  5971   0.253E-01    0.732E-01
RMM:   4    -0.230437622107E+04    0.36360E-02   -0.31340E-02  5806   0.555E-02    0.417E-01
RMM:   5    -0.230437516903E+04    0.10520E-02   -0.30947E-03  4674   0.220E-02    0.325E-01
RMM:   6    -0.230437415952E+04    0.10095E-02   -0.21808E-03  5000   0.209E-02    0.169E-01
RMM:   7    -0.230437393408E+04    0.22544E-03   -0.11840E-03  4799   0.169E-02    0.758E-02
RMM:   8    -0.230437389419E+04    0.39885E-04   -0.23057E-04  3554   0.108E-02    0.424E-02
RMM:   9    -0.230437387904E+04    0.15150E-04   -0.63733E-05  2898   0.647E-03    0.138E-02
RMM:  10    -0.230437388044E+04   -0.14008E-05   -0.16784E-05  2880   0.419E-03
  38 F= -.23250805E+04 E0= -.23250805E+04  d E =-.138865E-01  mag=     5.0000
       N       E                     dE             d eps       ncg     rms          rms(c)
DAV:   1    -0.230430751651E+04    0.66363E-01   -0.27462E+00  4432   0.123E+00    0.555E-01
RMM:   2    -0.230437669329E+04   -0.69177E-01   -0.71805E-01  6325   0.302E-01    0.439E-01
RMM:   3    -0.230438421004E+04   -0.75168E-02   -0.82738E-02  5777   0.130E-01    0.352E-01
RMM:   4    -0.230438340399E+04    0.80605E-03   -0.85076E-03  5030   0.282E-02    0.204E-01
RMM:   5    -0.230438306819E+04    0.33580E-03   -0.72936E-04  3251   0.119E-02    0.140E-01
RMM:   6    -0.230438292521E+04    0.14298E-03   -0.55061E-04  3570   0.109E-02    0.104E-01
RMM:   7    -0.230438282958E+04    0.95634E-04   -0.30337E-04  3826   0.919E-03    0.420E-02
RMM:   8    -0.230438281594E+04    0.13632E-04   -0.62253E-05  2930   0.670E-03    0.212E-02
RMM:   9    -0.230438281225E+04    0.36950E-05   -0.18422E-05  2852   0.427E-03
  39 F= -.23250888E+04 E0= -.23250888E+04  d E =-.822642E-02  mag=     5.0000
       N       E                     dE             d eps       ncg     rms          rms(c)
DAV:   1    -0.230372287507E+04    0.65994E+00   -0.23820E+01  4432   0.364E+00    0.167E+00
RMM:   2    -0.230435438369E+04   -0.63151E+00   -0.65045E+00  6390   0.939E-01    0.150E+00
RMM:   3    -0.230440669931E+04   -0.52316E-01   -0.75113E-01  6014   0.384E-01    0.975E-01
RMM:   4    -0.230440116066E+04    0.55387E-02   -0.73865E-02  6083   0.807E-02    0.646E-01
RMM:   5    -0.230439835080E+04    0.28099E-02   -0.65157E-03  5056   0.309E-02    0.464E-01
RMM:   6    -0.230439634316E+04    0.20076E-02   -0.48757E-03  5383   0.284E-02    0.278E-01
RMM:   7    -0.230439565062E+04    0.69254E-03   -0.28003E-03  5006   0.231E-02    0.132E-01
RMM:   8    -0.230439552381E+04    0.12681E-03   -0.79301E-04  4461   0.172E-02    0.764E-02
RMM:   9    -0.230439546558E+04    0.58223E-04   -0.18323E-04  3396   0.877E-03    0.276E-02
RMM:  10    -0.230439546228E+04    0.33056E-05   -0.42651E-05  2894   0.599E-03
  40 F= -.23250991E+04 E0= -.23250991E+04  d E =-.185379E-01  mag=     5.0000
       N       E                     dE             d eps       ncg     rms          rms(c)
DAV:   1    -0.230434595381E+04    0.49512E-01   -0.20244E+00  4624   0.101E+00    0.473E-01
RMM:   2    -0.230439789539E+04   -0.51942E-01   -0.54324E-01  6439   0.253E-01    0.319E-01
RMM:   3    -0.230440366828E+04   -0.57729E-02   -0.60945E-02  5722   0.107E-01    0.240E-01
RMM:   4    -0.230440350068E+04    0.16759E-03   -0.62477E-03  4278   0.226E-02    0.173E-01
RMM:   5    -0.230440323660E+04    0.26408E-03   -0.48227E-04  2996   0.995E-03    0.108E-01
RMM:   6    -0.230440315790E+04    0.78705E-04   -0.40211E-04  3401   0.903E-03    0.942E-02
RMM:   7    -0.230440308719E+04    0.70709E-04   -0.21163E-04  3239   0.775E-03    0.371E-02
RMM:   8    -0.230440307673E+04    0.10462E-04   -0.42277E-05  2915   0.553E-03    0.176E-02
RMM:   9    -0.230440307377E+04    0.29577E-05   -0.13026E-05  2829   0.365E-03
  41 F= -.23251060E+04 E0= -.23251060E+04  d E =-.689537E-02  mag=     5.0000
       N       E                     dE             d eps       ncg     rms          rms(c)
DAV:   1    -0.230389136116E+04    0.51172E+00   -0.18183E+01  4432   0.305E+00    0.144E+00
RMM:   2    -0.230437598859E+04   -0.48463E+00   -0.50373E+00  6474   0.789E-01    0.112E+00
RMM:   3    -0.230442460161E+04   -0.48613E-01   -0.59873E-01  6020   0.331E-01    0.742E-01
RMM:   4    -0.230442251314E+04    0.20885E-02   -0.55785E-02  5962   0.670E-02    0.543E-01
RMM:   5    -0.230442033995E+04    0.21732E-02   -0.45944E-03  4647   0.255E-02    0.369E-01
RMM:   6    -0.230441918722E+04    0.11527E-02   -0.33878E-03  5186   0.229E-02    0.271E-01
RMM:   7    -0.230441857679E+04    0.61043E-03   -0.20788E-03  5022   0.192E-02    0.133E-01
RMM:   8    -0.230441843089E+04    0.14590E-03   -0.65547E-04  4236   0.143E-02    0.684E-02
RMM:   9    -0.230441838219E+04    0.48695E-04   -0.14426E-04  3062   0.783E-03    0.300E-02
RMM:  10    -0.230441837584E+04    0.63526E-05   -0.39509E-05  2865   0.510E-03
  42 F= -.23251189E+04 E0= -.23251189E+04  d E =-.198658E-01  mag=     5.0000
       N       E                     dE             d eps       ncg     rms          rms(c)
DAV:   1    -0.230223514999E+04    0.21832E+01   -0.73299E+01  4448   0.611E+00    0.301E+00
RMM:   2    -0.230456518252E+04   -0.23300E+01   -0.21387E+01  6530   0.165E+00    0.724E+00
RMM:   3    -0.230438715626E+04    0.17803E+00   -0.24590E+00  5881   0.675E-01    0.188E+00
RMM:   4    -0.230442064998E+04   -0.33494E-01   -0.26468E-01  5601   0.147E-01    0.108E+00
RMM:   5    -0.230441504725E+04    0.56027E-02   -0.26917E-02  5769   0.667E-02    0.110E+00
RMM:   6    -0.230440869510E+04    0.63521E-02   -0.12104E-02  5316   0.464E-02    0.681E-01
RMM:   7    -0.230440693149E+04    0.17636E-02   -0.78362E-03  5472   0.375E-02    0.479E-01
RMM:   8    -0.230440540888E+04    0.15226E-02   -0.56244E-03  5190   0.330E-02    0.151E-01
RMM:   9    -0.230440543274E+04   -0.23865E-04   -0.82645E-04  4410   0.195E-02    0.826E-02
RMM:  10    -0.230440545909E+04   -0.26351E-04   -0.18190E-04  3776   0.926E-03    0.373E-02
RMM:  11    -0.230440546890E+04   -0.98074E-05   -0.36477E-05  2980   0.585E-03
  43 F= -.23251007E+04 E0= -.23251007E+04  d E =-.159904E-02  mag=     4.9913
       N       E                     dE             d eps       ncg     rms          rms(c)
DAV:   1    -0.230303114367E+04    0.13743E+01   -0.46653E+01  4432   0.487E+00    0.232E+00
RMM:   2    -0.230432476404E+04   -0.12936E+01   -0.13389E+01  6497   0.127E+00    0.254E+00
RMM:   3    -0.230443538854E+04   -0.11062E+00   -0.14740E+00  5979   0.517E-01    0.182E+00
RMM:   4    -0.230443152042E+04    0.38681E-02   -0.14306E-01  6115   0.117E-01    0.119E+00
RMM:   5    -0.230442596831E+04    0.55521E-02   -0.20650E-02  5449   0.518E-02    0.686E-01
RMM:   6    -0.230442326393E+04    0.27044E-02   -0.81369E-03  4930   0.363E-02    0.459E-01
RMM:   7    -0.230442227467E+04    0.98926E-03   -0.50107E-03  5614   0.322E-02    0.348E-01
RMM:   8    -0.230442086061E+04    0.14141E-02   -0.34727E-03  5231   0.260E-02    0.153E-01
RMM:   9    -0.230442081030E+04    0.50314E-04   -0.44319E-04  4149   0.137E-02    0.764E-02
RMM:  10    -0.230442085388E+04   -0.43589E-04   -0.78083E-05  3135   0.661E-03    0.449E-02
RMM:  11    -0.230442087466E+04   -0.20776E-04   -0.26902E-05  2886   0.441E-03    0.293E-02
RMM:  12    -0.230442088712E+04   -0.12460E-04   -0.18870E-05  2866   0.355E-03    0.129E-02
RMM:  13    -0.230442089291E+04   -0.57945E-05   -0.90049E-06  2867   0.288E-03
  44 F= -.23251205E+04 E0= -.23251205E+04  d E =-.213785E-01  mag=     4.9985
       N       E                     dE             d eps       ncg     rms          rms(c)
DAV:   1    -0.230436861552E+04    0.52272E-01   -0.21788E+00  4432   0.105E+00    0.510E-01
RMM:   2    -0.230442642823E+04   -0.57813E-01   -0.60507E-01  6441   0.270E-01    0.339E-01
RMM:   3    -0.230443283398E+04   -0.64058E-02   -0.67020E-02  5861   0.112E-01    0.274E-01
RMM:   4    -0.230443241545E+04    0.41853E-03   -0.68951E-03  4598   0.245E-02    0.176E-01
RMM:   5    -0.230443215313E+04    0.26233E-03   -0.58356E-04  3100   0.106E-02    0.116E-01
RMM:   6    -0.230443206876E+04    0.84367E-04   -0.40847E-04  3431   0.956E-03    0.105E-01
RMM:   7    -0.230443196746E+04    0.10130E-03   -0.27257E-04  3751   0.904E-03    0.331E-02
RMM:   8    -0.230443195795E+04    0.95041E-05   -0.39630E-05  2923   0.578E-03
  45 F= -.23251308E+04 E0= -.23251308E+04  d E =-.103155E-01  mag=     4.9995
       N       E                     dE             d eps       ncg     rms          rms(c)
DAV:   1    -0.230386405224E+04    0.56792E+00   -0.19545E+01  4416   0.316E+00    0.157E+00
RMM:   2    -0.230440459889E+04   -0.54055E+00   -0.56153E+00  6487   0.842E-01    0.124E+00
RMM:   3    -0.230445896875E+04   -0.54370E-01   -0.67455E-01  6131   0.346E-01    0.870E-01
RMM:   4    -0.230445423653E+04    0.47322E-02   -0.61661E-02  5993   0.725E-02    0.550E-01
RMM:   5    -0.230445219861E+04    0.20379E-02   -0.57599E-03  4971   0.291E-02    0.395E-01
RMM:   6    -0.230445103697E+04    0.11616E-02   -0.34440E-03  5297   0.236E-02    0.308E-01
RMM:   7    -0.230445020240E+04    0.83457E-03   -0.24238E-03  5217   0.222E-02    0.131E-01
RMM:   8    -0.230445004550E+04    0.15690E-03   -0.72345E-04  4426   0.159E-02    0.683E-02
RMM:   9    -0.230444999309E+04    0.52411E-04   -0.16640E-04  3268   0.859E-03    0.318E-02
RMM:  10    -0.230444998736E+04    0.57319E-05   -0.43054E-05  2864   0.594E-03
  46 F= -.23251464E+04 E0= -.23251464E+04  d E =-.259469E-01  mag=     4.9999
       N       E                     dE             d eps       ncg     rms          rms(c)
DAV:   1    -0.230438525343E+04    0.64740E-01   -0.28618E+00  4480   0.117E+00    0.579E-01
RMM:   2    -0.230445859851E+04   -0.73345E-01   -0.76532E-01  6473   0.302E-01    0.417E-01
RMM:   3    -0.230446675857E+04   -0.81601E-02   -0.87760E-02  5971   0.129E-01    0.346E-01
RMM:   4    -0.230446597349E+04    0.78508E-03   -0.94992E-03  4876   0.291E-02    0.191E-01
RMM:   5    -0.230446571165E+04    0.26184E-03   -0.69822E-04  3214   0.109E-02    0.140E-01
RMM:   6    -0.230446557634E+04    0.13531E-03   -0.44260E-04  3208   0.957E-03    0.106E-01
RMM:   7    -0.230446546887E+04    0.10747E-03   -0.35596E-04  4067   0.931E-03    0.380E-02
RMM:   8    -0.230446545745E+04    0.11429E-04   -0.57156E-05  2910   0.647E-03    0.178E-02
RMM:   9    -0.230446545419E+04    0.32552E-05   -0.16320E-05  2844   0.365E-03
  47 F= -.23251607E+04 E0= -.23251607E+04  d E =-.142685E-01  mag=     5.0000
       N       E                     dE             d eps       ncg     rms          rms(c)
DAV:   1    -0.230374776932E+04    0.71769E+00   -0.25562E+01  4432   0.352E+00    0.179E+00
RMM:   2    -0.230445027085E+04   -0.70250E+00   -0.72202E+00  6506   0.951E-01    0.177E+00
RMM:   3    -0.230451264593E+04   -0.62375E-01   -0.86875E-01  6121   0.400E-01    0.119E+00
RMM:   4    -0.230450371019E+04    0.89357E-02   -0.85585E-02  6053   0.889E-02    0.638E-01
RMM:   5    -0.230450215614E+04    0.15541E-02   -0.76986E-03  5087   0.318E-02    0.476E-01
RMM:   6    -0.230450050509E+04    0.16511E-02   -0.36795E-03  5165   0.242E-02    0.335E-01
RMM:   7    -0.230449953017E+04    0.97492E-03   -0.29575E-03  5263   0.231E-02    0.181E-01
RMM:   8    -0.230449925149E+04    0.27868E-03   -0.13233E-03  4624   0.202E-02    0.851E-02
RMM:   9    -0.230449921689E+04    0.34592E-04   -0.21503E-04  3330   0.905E-03    0.369E-02
RMM:  10    -0.230449921111E+04    0.57846E-05   -0.50040E-05  2877   0.608E-03
  48 F= -.23251907E+04 E0= -.23251907E+04  d E =-.443487E-01  mag=     4.9993
       N       E                     dE             d eps       ncg     rms          rms(c)
DAV:   1    -0.230130081423E+04    0.31984E+01   -0.10213E+02  4440   0.711E+00    0.383E+00
RMM:   2    -0.230502419317E+04   -0.37234E+01   -0.31810E+01  6542   0.204E+00    0.822E+00
RMM:   3    -0.230447807243E+04    0.54612E+00   -0.36453E+00  5995   0.822E-01    0.222E+00
RMM:   4    -0.230451116548E+04   -0.33093E-01   -0.34959E-01  5631   0.167E-01    0.139E+00
RMM:   5    -0.230450868788E+04    0.24776E-02   -0.36902E-02  5576   0.765E-02    0.131E+00
RMM:   6    -0.230449849143E+04    0.10196E-01   -0.15814E-02  5307   0.547E-02    0.728E-01
RMM:   7    -0.230449626389E+04    0.22275E-02   -0.13805E-02  5294   0.525E-02    0.431E-01
RMM:   8    -0.230449519324E+04    0.10706E-02   -0.43832E-03  5488   0.319E-02    0.196E-01
RMM:   9    -0.230449511940E+04    0.73843E-04   -0.11924E-03  4601   0.213E-02    0.118E-01
RMM:  10    -0.230449519223E+04   -0.72832E-04   -0.27423E-04  4045   0.113E-02    0.583E-02
RMM:  11    -0.230449522134E+04   -0.29112E-04   -0.56842E-05  3078   0.632E-03    0.361E-02
RMM:  12    -0.230449525079E+04   -0.29448E-04   -0.24763E-05  2900   0.470E-03    0.198E-02
RMM:  13    -0.230449526675E+04   -0.15963E-04   -0.15290E-05  2877   0.404E-03    0.985E-03
RMM:  14    -0.230449527522E+04   -0.84654E-05   -0.95698E-06  2845   0.348E-03
  49 F= -.23251793E+04 E0= -.23251793E+04  d E =-.328736E-01  mag=     4.9981
       N       E                     dE             d eps       ncg     rms          rms(c)
DAV:   1    -0.230325451628E+04    0.12408E+01   -0.41464E+01  4416   0.452E+00    0.218E+00
RMM:   2    -0.230439308893E+04   -0.11386E+01   -0.11997E+01  6522   0.123E+00    0.154E+00
RMM:   3    -0.230451836701E+04   -0.12528E+00   -0.13892E+00  5865   0.501E-01    0.138E+00
RMM:   4    -0.230451755014E+04    0.81687E-03   -0.11802E-01  6136   0.935E-02    0.863E-01
RMM:   5    -0.230451429706E+04    0.32531E-02   -0.11137E-02  5062   0.378E-02    0.545E-01
RMM:   6    -0.230451140214E+04    0.28949E-02   -0.65113E-03  5191   0.346E-02    0.306E-01
RMM:   7    -0.230451038600E+04    0.10161E-02   -0.44039E-03  5173   0.334E-02    0.149E-01
RMM:   8    -0.230451044545E+04   -0.59449E-04   -0.91178E-04  4728   0.161E-02    0.142E-01
RMM:   9    -0.230451028732E+04    0.15813E-03   -0.38921E-04  3789   0.100E-02    0.774E-02
RMM:  10    -0.230451026347E+04    0.23852E-04   -0.69691E-05  2903   0.613E-03    0.340E-02
RMM:  11    -0.230451026656E+04   -0.30900E-05   -0.36322E-05  2901   0.410E-03
  50 F= -.23251991E+04 E0= -.23251991E+04  d E =-.526824E-01  mag=     4.9989
       N       E                     dE             d eps       ncg     rms          rms(c)
DAV:   1    -0.230442371257E+04    0.86551E-01   -0.36420E+00  4464   0.131E+00    0.651E-01
RMM:   2    -0.230451801051E+04   -0.94298E-01   -0.99012E-01  6493   0.346E-01    0.448E-01
RMM:   3    -0.230452890234E+04   -0.10892E-01   -0.11802E-01  6042   0.149E-01    0.351E-01
RMM:   4    -0.230452833895E+04    0.56339E-03   -0.12172E-02  5132   0.323E-02    0.214E-01
RMM:   5    -0.230452796849E+04    0.37047E-03   -0.85205E-04  3417   0.121E-02    0.148E-01
RMM:   6    -0.230452782704E+04    0.14145E-03   -0.54879E-04  3471   0.103E-02    0.127E-01
RMM:   7    -0.230452767584E+04    0.15120E-03   -0.41137E-04  4211   0.100E-02    0.537E-02
RMM:   8    -0.230452764985E+04    0.25991E-04   -0.90850E-05  2932   0.686E-03    0.211E-02
RMM:   9    -0.230452764446E+04    0.53901E-05   -0.21104E-05  2849   0.459E-03
  51 F= -.23252150E+04 E0= -.23252150E+04  d E =-.159347E-01  mag=     4.9997
       N       E                     dE             d eps       ncg     rms          rms(c)
DAV:   1    -0.230359073910E+04    0.93691E+00   -0.32662E+01  4448   0.393E+00    0.202E+00
RMM:   2    -0.230451733889E+04   -0.92660E+00   -0.93559E+00  6509   0.109E+00    0.371E+00
RMM:   3    -0.230455907252E+04   -0.41734E-01   -0.10970E+00  6016   0.456E-01    0.139E+00
RMM:   4    -0.230456628328E+04   -0.72108E-02   -0.12307E-01  5919   0.105E-01    0.982E-01
RMM:   5    -0.230456311682E+04    0.31665E-02   -0.14803E-02  5487   0.441E-02    0.656E-01
RMM:   6    -0.230456034186E+04    0.27750E-02   -0.50789E-03  4884   0.300E-02    0.365E-01
RMM:   7    -0.230455955030E+04    0.79156E-03   -0.38619E-03  5363   0.295E-02    0.220E-01
RMM:   8    -0.230455916266E+04    0.38764E-03   -0.17165E-03  5121   0.211E-02    0.129E-01
RMM:   9    -0.230455910951E+04    0.53145E-04   -0.28193E-04  3884   0.986E-03    0.579E-02
RMM:  10    -0.230455911608E+04   -0.65643E-05   -0.61174E-05  2965   0.675E-03
  52 F= -.23252421E+04 E0= -.23252421E+04  d E =-.430597E-01  mag=     4.9924
       N       E                     dE             d eps       ncg     rms          rms(c)
DAV:   1    -0.230443994200E+04    0.11917E+00   -0.42336E+00  4528   0.142E+00    0.705E-01
RMM:   2    -0.230455119459E+04   -0.11125E+00   -0.11725E+00  6500   0.378E-01    0.472E-01
RMM:   3    -0.230456368411E+04   -0.12490E-01   -0.13451E-01  6053   0.159E-01    0.357E-01
RMM:   4    -0.230456332170E+04    0.36241E-03   -0.13666E-02  5223   0.337E-02    0.223E-01
RMM:   5    -0.230456288779E+04    0.43391E-03   -0.94798E-04  3595   0.128E-02    0.142E-01
RMM:   6    -0.230456278531E+04    0.10248E-03   -0.64885E-04  4242   0.114E-02    0.139E-01
RMM:   7    -0.230456262993E+04    0.15538E-03   -0.42222E-04  3894   0.103E-02    0.708E-02
RMM:   8    -0.230456258824E+04    0.41695E-04   -0.12200E-04  2982   0.674E-03    0.238E-02
RMM:   9    -0.230456258090E+04    0.73363E-05   -0.24192E-05  2854   0.509E-03
  53 F= -.23252440E+04 E0= -.23252440E+04  d E =-.449588E-01  mag=     4.9976
       N       E                     dE             d eps       ncg     rms          rms(c)
DAV:   1    -0.230445874129E+04    0.10385E+00   -0.43540E+00  4464   0.142E+00    0.721E-01
RMM:   2    -0.230457225486E+04   -0.11351E+00   -0.11982E+00  6463   0.384E-01    0.487E-01
RMM:   3    -0.230458478850E+04   -0.12534E-01   -0.13964E-01  6001   0.165E-01    0.353E-01
RMM:   4    -0.230458470369E+04    0.84814E-04   -0.14400E-02  5177   0.345E-02    0.224E-01
RMM:   5    -0.230458424668E+04    0.45701E-03   -0.97405E-04  3652   0.132E-02    0.138E-01
RMM:   6    -0.230458407904E+04    0.16764E-03   -0.67067E-04  4579   0.119E-02    0.102E-01
RMM:   7    -0.230458405361E+04    0.25430E-04   -0.39815E-04  3428   0.105E-02    0.963E-02
RMM:   8    -0.230458396999E+04    0.83621E-04   -0.12770E-04  2910   0.655E-03    0.255E-02
RMM:   9    -0.230458396538E+04    0.46134E-05   -0.24629E-05  2856   0.453E-03
  54 F= -.23252640E+04 E0= -.23252639E+04  d E =-.199924E-01  mag=     4.9983
       N       E                     dE             d eps       ncg     rms          rms(c)
DAV:   1    -0.230343956694E+04    0.11444E+01   -0.38929E+01  4456   0.428E+00    0.225E+00
RMM:   2    -0.230452393296E+04   -0.10844E+01   -0.11334E+01  6498   0.122E+00    0.182E+00
RMM:   3    -0.230461836285E+04   -0.94430E-01   -0.13322E+00  6127   0.503E-01    0.113E+00
RMM:   4    -0.230461566405E+04    0.26988E-02   -0.13011E-01  6153   0.108E-01    0.707E-01
RMM:   5    -0.230461206053E+04    0.36035E-02   -0.87412E-03  5223   0.363E-02    0.443E-01
RMM:   6    -0.230461089172E+04    0.11688E-02   -0.56003E-03  5494   0.319E-02    0.376E-01
RMM:   7    -0.230461032032E+04    0.57139E-03   -0.34481E-03  5290   0.255E-02    0.281E-01
RMM:   8    -0.230460954108E+04    0.77924E-03   -0.19805E-03  5176   0.196E-02    0.118E-01
RMM:   9    -0.230460944322E+04    0.97860E-04   -0.26980E-04  3200   0.105E-02    0.528E-02
RMM:  10    -0.230460942162E+04    0.21597E-04   -0.79966E-05  2884   0.610E-03    0.182E-02
RMM:  11    -0.230460942203E+04   -0.40815E-06   -0.30574E-05  2890   0.426E-03
  55 F= -.23252853E+04 E0= -.23252846E+04  d E =-.412820E-01  mag=     4.9878
       N       E                     dE             d eps       ncg     rms          rms(c)
DAV:   1    -0.230435535760E+04    0.25406E+00   -0.99878E+00  4448   0.229E+00    0.113E+00
RMM:   2    -0.230460896419E+04   -0.25361E+00   -0.26377E+00  6395   0.616E-01    0.978E-01
RMM:   3    -0.230463144905E+04   -0.22485E-01   -0.29512E-01  6114   0.250E-01    0.715E-01
RMM:   4    -0.230463008454E+04    0.13645E-02   -0.31871E-02  5780   0.544E-02    0.346E-01
RMM:   5    -0.230462950967E+04    0.57487E-03   -0.28067E-03  5112   0.226E-02    0.317E-01
RMM:   6    -0.230462858738E+04    0.92229E-03   -0.19280E-03  5171   0.193E-02    0.177E-01
RMM:   7    -0.230462823838E+04    0.34900E-03   -0.10858E-03  4992   0.162E-02    0.959E-02
RMM:   8    -0.230462817371E+04    0.64670E-04   -0.24667E-04  3583   0.111E-02    0.419E-02
RMM:   9    -0.230462817058E+04    0.31292E-05   -0.49765E-05  2907   0.579E-03
  56 F= -.23253017E+04 E0= -.23252991E+04  d E =-.164188E-01  mag=     4.9487
       N       E                     dE             d eps       ncg     rms          rms(c)
DAV:   1    -0.230457313249E+04    0.55041E-01   -0.21184E+00  4592   0.106E+00    0.530E-01
RMM:   2    -0.230462685747E+04   -0.53725E-01   -0.55728E-01  6389   0.281E-01    0.487E-01
RMM:   3    -0.230463165491E+04   -0.47974E-02   -0.58908E-02  6005   0.113E-01    0.439E-01
RMM:   4    -0.230463103284E+04    0.62207E-03   -0.68755E-03  4769   0.255E-02    0.163E-01
RMM:   5    -0.230463103159E+04    0.12521E-05   -0.66997E-04  3865   0.119E-02    0.207E-01
RMM:   6    -0.230463070895E+04    0.32264E-03   -0.41328E-04  3865   0.104E-02    0.114E-01
RMM:   7    -0.230463056923E+04    0.13972E-03   -0.44418E-04  4477   0.109E-02    0.447E-02
RMM:   8    -0.230463057148E+04   -0.22508E-05   -0.67085E-05  2891   0.765E-03
  57 F= -.23253031E+04 E0= -.23252975E+04  d E =-.177365E-01  mag=     4.8738
       N       E                     dE             d eps       ncg     rms          rms(c)
DAV:   1    -0.230454788997E+04    0.82679E-01   -0.37729E+00  4416   0.149E+00    0.100E+00
RMM:   2    -0.230465706379E+04   -0.10917E+00   -0.10077E+00  6425   0.408E-01    0.147E+00
RMM:   3    -0.230465545745E+04    0.16063E-02   -0.10952E-01  6133   0.149E-01    0.185E+00
RMM:   4    -0.230465648273E+04   -0.10253E-02   -0.14184E-02  4429   0.311E-02    0.181E+00
RMM:   5    -0.230465146821E+04    0.50145E-02   -0.80426E-03  5283   0.329E-02    0.906E-01
RMM:   6    -0.230465029079E+04    0.11774E-02   -0.73187E-03  5531   0.327E-02    0.654E-01
RMM:   7    -0.230464733862E+04    0.29522E-02   -0.29880E-03  5019   0.259E-02    0.653E-01
RMM:   8    -0.230464806022E+04   -0.72160E-03   -0.60872E-03  4939   0.336E-02    0.677E-01
RMM:   9    -0.230464767776E+04    0.38246E-03   -0.54717E-04  3709   0.161E-02    0.556E-01
RMM:  10    -0.230464704768E+04    0.63008E-03   -0.97499E-03  4555   0.399E-02    0.485E-01
RMM:  11    -0.230464621183E+04    0.83585E-03   -0.54331E-03  4425   0.355E-02    0.502E-01
RMM:  12    -0.230464481033E+04    0.14015E-02   -0.54932E-03  5134   0.313E-02    0.465E-01
RMM:  13    -0.230464368420E+04    0.11261E-02   -0.17922E-03  4449   0.197E-02    0.516E-01
RMM:  14    -0.230464315031E+04    0.53389E-03   -0.48030E-04  3793   0.983E-03    0.541E-01
RMM:  15    -0.230464482588E+04   -0.16756E-02   -0.12562E-03  3991   0.146E-02    0.528E-01
RMM:  16    -0.230464658465E+04   -0.17588E-02   -0.20466E-03  4421   0.190E-02    0.593E-01
RMM:  17    -0.230464651164E+04    0.73012E-04   -0.10709E-04  2920   0.743E-03    0.565E-01
RMM:  18    -0.230464710817E+04   -0.59653E-03   -0.30080E-04  3383   0.680E-03    0.621E-01
RMM:  19    -0.230464678978E+04    0.31839E-03   -0.78468E-05  2884   0.527E-03    0.582E-01
RMM:  20    -0.230464523892E+04    0.15509E-02   -0.18627E-03  4294   0.170E-02    0.526E-01
RMM:  21    -0.230464460822E+04    0.63070E-03   -0.44956E-04  3421   0.108E-02    0.554E-01
RMM:  22    -0.230464415970E+04    0.44852E-03   -0.22728E-04  3270   0.647E-03    0.562E-01
RMM:  23    -0.230464376937E+04    0.39033E-03   -0.11367E-04  2969   0.579E-03    0.572E-01
RMM:  24    -0.230464335856E+04    0.41081E-03   -0.11604E-04  3059   0.523E-03    0.585E-01
RMM:  25    -0.230464317827E+04    0.18029E-03   -0.34411E-05  2818   0.382E-03    0.594E-01
RMM:  26    -0.230464339439E+04   -0.21611E-03   -0.17089E-05  2563   0.248E-03    0.586E-01
RMM:  27    -0.230464354003E+04   -0.14564E-03   -0.15320E-05  2392   0.187E-03    0.579E-01
RMM:  28    -0.230464388441E+04   -0.34439E-03   -0.68909E-05  2845   0.350E-03    0.566E-01
RMM:  29    -0.230464531336E+04   -0.14289E-02   -0.11645E-03  4228   0.132E-02    0.553E-01
RMM:  30    -0.230464609917E+04   -0.78582E-03   -0.58425E-04  3583   0.109E-02    0.557E-01
RMM:  31    -0.230464613907E+04   -0.39901E-04   -0.61135E-05  2888   0.452E-03    0.550E-01
RMM:  32    -0.230464617258E+04   -0.33506E-04   -0.90301E-06  2573   0.232E-03    0.554E-01
RMM:  33    -0.230464616342E+04    0.91585E-05   -0.11479E-06  2328   0.142E-03
  58 F= -.23253171E+04 E0= -.23253082E+04  d E =-.140842E-01  mag=     4.8358
       N       E                     dE             d eps       ncg     rms          rms(c)
DAV:   1    -0.230416244699E+04    0.48373E+00   -0.18792E+01  4416   0.334E+00    0.317E+00
RMM:   2    -0.230488832379E+04   -0.72588E+00   -0.56677E+00  6452   0.963E-01    0.567E+00
RMM:   3    -0.230473403563E+04    0.15429E+00   -0.60366E-01  5895   0.350E-01    0.311E+00
RMM:   4    -0.230471523636E+04    0.18799E-01   -0.94398E-02  4944   0.101E-01    0.254E+00
RMM:   5    -0.230478679288E+04   -0.71557E-01   -0.13950E-01  5306   0.147E-01    0.415E+00
RMM:   6    -0.230462704602E+04    0.15975E+00   -0.90845E-02  5775   0.137E-01    0.130E+00
RMM:   7    -0.230462727627E+04   -0.23025E-03   -0.42316E-02  4574   0.982E-02    0.685E-01
RMM:   8    -0.230464843417E+04   -0.21158E-01   -0.12806E-02  4671   0.609E-02    0.371E-01
RMM:   9    -0.230468983225E+04   -0.41398E-01   -0.79336E-03  4413   0.449E-02    0.247E-01
RMM:  10    -0.230473088564E+04   -0.41053E-01   -0.80537E-03  4423   0.483E-02    0.170E-01
RMM:  11    -0.230474658118E+04   -0.15696E-01   -0.26785E-03  4529   0.358E-02    0.106E-01
RMM:  12    -0.230475998626E+04   -0.13405E-01   -0.23247E-03  4318   0.259E-02    0.668E-02
RMM:  13    -0.230476701278E+04   -0.70265E-02   -0.15025E-03  4153   0.262E-02    0.382E-02
RMM:  14    -0.230476940909E+04   -0.23963E-02   -0.81440E-04  4384   0.166E-02    0.194E-02
RMM:  15    -0.230477010873E+04   -0.69964E-03   -0.17017E-04  3983   0.922E-03    0.861E-03
RMM:  16    -0.230477033739E+04   -0.22865E-03   -0.38954E-05  3222   0.526E-03    0.486E-03
RMM:  17    -0.230477042392E+04   -0.86530E-04   -0.15588E-05  2916   0.420E-03    0.249E-03
RMM:  18    -0.230477044560E+04   -0.21679E-04   -0.76319E-06  2788   0.320E-03    0.120E-03
RMM:  19    -0.230477044875E+04   -0.31566E-05   -0.33152E-06  2602   0.239E-03
  59 F= -.23254380E+04 E0= -.23254379E+04  d E =-.134918E+00  mag=     3.0005
       N       E                     dE             d eps       ncg     rms          rms(c)
DAV:   1    -0.230275568199E+04    0.20148E+01   -0.75975E+01  4448   0.671E+00    0.327E+00
RMM:   2    -0.230508775657E+04   -0.23321E+01   -0.21180E+01  6519   0.187E+00    0.777E+00
RMM:   3    -0.230477727106E+04    0.31049E+00   -0.22509E+00  6279   0.696E-01    0.236E+00
RMM:   4    -0.230480723480E+04   -0.29964E-01   -0.35474E-01  6327   0.198E-01    0.214E+00
RMM:   5    -0.230476179917E+04    0.45436E-01   -0.57130E-02  6222   0.977E-02    0.101E+00
RMM:   6    -0.230475236669E+04    0.94325E-02   -0.19162E-02  5123   0.603E-02    0.603E-01
RMM:   7    -0.230474869178E+04    0.36749E-02   -0.11808E-02  5246   0.620E-02    0.277E-01
RMM:   8    -0.230474906314E+04   -0.37135E-03   -0.23298E-03  5679   0.260E-02    0.176E-01
RMM:   9    -0.230474887279E+04    0.19034E-03   -0.34441E-04  4248   0.136E-02    0.954E-02
RMM:  10    -0.230474884578E+04    0.27018E-04   -0.20774E-04  3552   0.872E-03    0.369E-02
RMM:  11    -0.230474885898E+04   -0.13203E-04   -0.49279E-05  3045   0.562E-03    0.203E-02
RMM:  12    -0.230474887418E+04   -0.15196E-04   -0.18498E-05  2881   0.469E-03    0.109E-02
RMM:  13    -0.230474888550E+04   -0.11325E-04   -0.14572E-05  2866   0.402E-03    0.455E-03
RMM:  14    -0.230474889176E+04   -0.62564E-05   -0.70480E-06  2834   0.341E-03
  60 F= -.23254092E+04 E0= -.23254092E+04  d E =-.106161E+00  mag=     3.0000
       N       E                     dE             d eps       ncg     rms          rms(c)
DAV:   1    -0.230398824621E+04    0.76064E+00   -0.30668E+01  4448   0.427E+00    0.181E+00
RMM:   2    -0.230471881140E+04   -0.73057E+00   -0.77814E+00  6506   0.116E+00    0.125E+00
RMM:   3    -0.230481693016E+04   -0.98119E-01   -0.92668E-01  6241   0.452E-01    0.190E+00
RMM:   4    -0.230479409548E+04    0.22835E-01   -0.92497E-02  6371   0.101E-01    0.686E-01
RMM:   5    -0.230479138133E+04    0.27142E-02   -0.10496E-02  5610   0.395E-02    0.548E-01
RMM:   6    -0.230478942146E+04    0.19599E-02   -0.58302E-03  5569   0.323E-02    0.453E-01
RMM:   7    -0.230478711099E+04    0.23105E-02   -0.56592E-03  5422   0.350E-02    0.205E-01
RMM:   8    -0.230478684312E+04    0.26787E-03   -0.14281E-03  4825   0.260E-02    0.882E-02
RMM:   9    -0.230478673670E+04    0.10642E-03   -0.27583E-04  3821   0.106E-02    0.362E-02
RMM:  10    -0.230478671581E+04    0.20893E-04   -0.95155E-05  2935   0.767E-03    0.144E-02
RMM:  11    -0.230478671683E+04   -0.10196E-05   -0.25486E-05  2891   0.419E-03
  61 F= -.23254517E+04 E0= -.23254517E+04  d E =-.148609E+00  mag=     3.0000
       N       E                     dE             d eps       ncg     rms          rms(c)
DAV:   1    -0.230478642291E+04    0.29290E-03   -0.13334E-01  4648   0.265E-01    0.120E-01
RMM:   2    -0.230478972500E+04   -0.33021E-02   -0.33442E-02  6459   0.717E-02    0.152E-01
RMM:   3    -0.230478987392E+04   -0.14892E-03   -0.34909E-03  3785   0.273E-02    0.911E-02
RMM:   4    -0.230478984194E+04    0.31981E-04   -0.41305E-04  2977   0.777E-03    0.546E-02
RMM:   5    -0.230478982130E+04    0.20639E-04   -0.45692E-05  2840   0.354E-03    0.354E-02
RMM:   6    -0.230478980597E+04    0.15334E-04   -0.22155E-05  2769   0.273E-03    0.181E-02
RMM:   7    -0.230478980414E+04    0.18320E-05   -0.23420E-05  2876   0.292E-03
  62 F= -.23254545E+04 E0= -.23254545E+04  d E =-.285030E-02  mag=     3.0000
       N       E                     dE             d eps       ncg     rms          rms(c)
DAV:   1    -0.230476683700E+04    0.22969E-01   -0.12015E+00  4480   0.797E-01    0.365E-01
RMM:   2    -0.230479711667E+04   -0.30280E-01   -0.30395E-01  6570   0.216E-01    0.501E-01
RMM:   3    -0.230479788430E+04   -0.76762E-03   -0.31552E-02  6001   0.805E-02    0.255E-01
RMM:   4    -0.230479773185E+04    0.15244E-03   -0.38253E-03  4223   0.196E-02    0.172E-01
RMM:   5    -0.230479749827E+04    0.23359E-03   -0.41553E-04  3044   0.871E-03    0.104E-01
RMM:   6    -0.230479735907E+04    0.13919E-03   -0.19813E-04  3154   0.743E-03    0.541E-02
RMM:   7    -0.230479733491E+04    0.24160E-04   -0.19296E-04  3351   0.809E-03    0.160E-02
RMM:   8    -0.230479733348E+04    0.14305E-05   -0.17657E-05  2897   0.462E-03
  63 F= -.23254613E+04 E0= -.23254613E+04  d E =-.966593E-02  mag=     3.0000
       N       E                     dE             d eps       ncg     rms          rms(c)
DAV:   1    -0.230468206815E+04    0.11527E+00   -0.48057E+00  4448   0.159E+00    0.737E-01
RMM:   2    -0.230480540354E+04   -0.12334E+00   -0.12326E+00  6562   0.435E-01    0.105E+00
RMM:   3    -0.230480676131E+04   -0.13578E-02   -0.12606E-01  6277   0.161E-01    0.474E-01
RMM:   4    -0.230480645234E+04    0.30897E-03   -0.15264E-02  5630   0.385E-02    0.341E-01
RMM:   5    -0.230480551002E+04    0.94232E-03   -0.17223E-03  4201   0.157E-02    0.208E-01
RMM:   6    -0.230480494721E+04    0.56281E-03   -0.83808E-04  4479   0.136E-02    0.108E-01
RMM:   7    -0.230480485010E+04    0.97108E-04   -0.71882E-04  4274   0.150E-02    0.302E-02
RMM:   8    -0.230480484544E+04    0.46622E-05   -0.53896E-05  2920   0.551E-03
  64 F= -.23254674E+04 E0= -.23254674E+04  d E =-.157383E-01  mag=     3.0000
       N       E                     dE             d eps       ncg     rms          rms(c)
DAV:   1    -0.230481317808E+04   -0.83280E-02   -0.39610E-02  4752   0.195E-01    0.824E-02
RMM:   2    -0.230481379724E+04   -0.61916E-03   -0.67797E-03  6060   0.446E-02    0.533E-02
RMM:   3    -0.230481385588E+04   -0.58647E-04   -0.82419E-04  3436   0.199E-02    0.554E-02
RMM:   4    -0.230481383002E+04    0.25859E-04   -0.85673E-05  2887   0.571E-03    0.255E-02
RMM:   5    -0.230481382704E+04    0.29874E-05   -0.30653E-05  2871   0.430E-03
  65 F= -.23254765E+04 E0= -.23254765E+04  d E =-.908667E-02  mag=     3.0000
       N       E                     dE             d eps       ncg     rms          rms(c)
DAV:   1    -0.230483171896E+04   -0.17889E-01   -0.35253E-01  4480   0.583E-01    0.248E-01
RMM:   2    -0.230483739638E+04   -0.56774E-02   -0.59976E-02  5937   0.129E-01    0.215E-01
RMM:   3    -0.230483769873E+04   -0.30235E-03   -0.74667E-03  5591   0.605E-02    0.177E-01
RMM:   4    -0.230483735705E+04    0.34168E-03   -0.76106E-04  4595   0.151E-02    0.645E-02
RMM:   5    -0.230483727368E+04    0.83373E-04   -0.29071E-04  4396   0.124E-02    0.293E-02
RMM:   6    -0.230483726085E+04    0.12828E-04   -0.81243E-05  3913   0.777E-03    0.245E-02
RMM:   7    -0.230483726124E+04   -0.39538E-06   -0.26072E-05  2883   0.603E-03
  66 F= -.23255002E+04 E0= -.23255002E+04  d E =-.328365E-01  mag=     3.0000
       N       E                     dE             d eps       ncg     rms          rms(c)
DAV:   1    -0.230484590479E+04   -0.86439E-02   -0.14168E+00  4448   0.117E+00    0.495E-01
RMM:   2    -0.230486877478E+04   -0.22870E-01   -0.24223E-01  5888   0.257E-01    0.424E-01
RMM:   3    -0.230487003863E+04   -0.12638E-02   -0.29677E-02  5711   0.116E-01    0.360E-01
RMM:   4    -0.230486881255E+04    0.12261E-02   -0.32226E-03  5321   0.299E-02    0.164E-01
RMM:   5    -0.230486883302E+04   -0.20469E-04   -0.11309E-03  5047   0.204E-02    0.194E-01
RMM:   6    -0.230486833426E+04    0.49876E-03   -0.75402E-04  4994   0.161E-02    0.544E-02
RMM:   7    -0.230486827620E+04    0.58054E-04   -0.17247E-04  4304   0.109E-02    0.317E-02
RMM:   8    -0.230486825689E+04    0.19316E-04   -0.45042E-05  3190   0.588E-03    0.123E-02
RMM:   9    -0.230486824927E+04    0.76138E-05   -0.19224E-05  2907   0.491E-03
  67 F= -.23255319E+04 E0= -.23255319E+04  d E =-.644574E-01  mag=     3.0000
       N       E                     dE             d eps       ncg     rms          rms(c)
DAV:   1    -0.230477566228E+04    0.92595E-01   -0.56675E+00  4448   0.234E+00    0.993E-01
RMM:   2    -0.230486898977E+04   -0.93327E-01   -0.98529E-01  5918   0.521E-01    0.866E-01
RMM:   3    -0.230487243872E+04   -0.34490E-02   -0.11975E-01  5811   0.228E-01    0.668E-01
RMM:   4    -0.230486833743E+04    0.41013E-02   -0.12888E-02  5436   0.592E-02    0.342E-01
RMM:   5    -0.230486814673E+04    0.19070E-03   -0.42652E-03  5591   0.395E-02    0.369E-01
RMM:   6    -0.230486626713E+04    0.18796E-02   -0.29429E-03  5086   0.313E-02    0.101E-01
RMM:   7    -0.230486607042E+04    0.19671E-03   -0.64470E-04  4909   0.206E-02    0.655E-02
RMM:   8    -0.230486599785E+04    0.72570E-04   -0.17830E-04  4432   0.954E-03    0.262E-02
RMM:   9    -0.230486597066E+04    0.27189E-04   -0.54827E-05  3325   0.773E-03    0.115E-02
RMM:  10    -0.230486596498E+04    0.56773E-05   -0.35355E-05  3284   0.564E-03
  68 F= -.23255308E+04 E0= -.23255308E+04  d E =-.634430E-01  mag=     3.0000
       N       E                     dE             d eps       ncg     rms          rms(c)
DAV:   1    -0.230485425630E+04    0.11714E-01   -0.14907E+00  4592   0.120E+00    0.506E-01
RMM:   2    -0.230487763440E+04   -0.23378E-01   -0.25412E-01  5909   0.261E-01    0.369E-01
RMM:   3    -0.230488010850E+04   -0.24741E-02   -0.33873E-02  5701   0.121E-01    0.408E-01
RMM:   4    -0.230487852297E+04    0.15855E-02   -0.33641E-03  5505   0.301E-02    0.162E-01
RMM:   5    -0.230487852773E+04   -0.47609E-05   -0.12036E-03  5183   0.203E-02    0.187E-01
RMM:   6    -0.230487809730E+04    0.43043E-03   -0.82661E-04  5108   0.162E-02    0.700E-02
RMM:   7    -0.230487800940E+04    0.87903E-04   -0.20531E-04  4420   0.108E-02    0.244E-02
RMM:   8    -0.230487799251E+04    0.16884E-04   -0.34404E-05  3011   0.574E-03    0.113E-02
RMM:   9    -0.230487798319E+04    0.93202E-05   -0.22194E-05  2896   0.466E-03
  69 F= -.23255422E+04 E0= -.23255422E+04  d E =-.748092E-01  mag=     3.0000
       N       E                     dE             d eps       ncg     rms          rms(c)
DAV:   1    -0.230488212181E+04   -0.41293E-02   -0.14353E-01  4592   0.350E-01    0.139E-01
RMM:   2    -0.230488496073E+04   -0.28389E-02   -0.31104E-02  6164   0.831E-02    0.968E-02
RMM:   3    -0.230488522430E+04   -0.26357E-03   -0.39135E-03  4687   0.381E-02    0.925E-02
RMM:   4    -0.230488515787E+04    0.66433E-04   -0.33741E-04  3004   0.861E-03    0.490E-02
RMM:   5    -0.230488514063E+04    0.17238E-04   -0.89518E-05  2944   0.639E-03    0.464E-02
RMM:   6    -0.230488511998E+04    0.20649E-04   -0.68037E-05  2943   0.603E-03    0.306E-02
RMM:   7    -0.230488510824E+04    0.11744E-04   -0.36664E-05  2962   0.546E-03    0.110E-02
RMM:   8    -0.230488510599E+04    0.22447E-05   -0.79353E-06  2835   0.425E-03
  70 F= -.23255497E+04 E0= -.23255497E+04  d E =-.745437E-02  mag=     3.0000
       N       E                     dE             d eps       ncg     rms          rms(c)
DAV:   1    -0.230486847426E+04    0.16634E-01   -0.12933E+00  4432   0.105E+00    0.418E-01
RMM:   2    -0.230489446874E+04   -0.25994E-01   -0.28246E-01  5968   0.248E-01    0.306E-01
RMM:   3    -0.230489656551E+04   -0.20968E-02   -0.34952E-02  5654   0.115E-01    0.266E-01
RMM:   4    -0.230489602422E+04    0.54130E-03   -0.31243E-03  5400   0.238E-02    0.144E-01
RMM:   5    -0.230489590857E+04    0.11565E-03   -0.79008E-04  4863   0.155E-02    0.149E-01
RMM:   6    -0.230489565814E+04    0.25043E-03   -0.56642E-04  4742   0.129E-02    0.760E-02
RMM:   7    -0.230489558011E+04    0.78029E-04   -0.24801E-04  4502   0.104E-02    0.372E-02
RMM:   8    -0.230489555632E+04    0.23787E-04   -0.34926E-05  2956   0.621E-03    0.126E-02
RMM:   9    -0.230489554688E+04    0.94420E-05   -0.21106E-05  2894   0.456E-03
  71 F= -.23255611E+04 E0= -.23255611E+04  d E =-.188907E-01  mag=     3.0000
       N       E                     dE             d eps       ncg     rms          rms(c)
DAV:   1    -0.230489466982E+04    0.88650E-03   -0.46879E-02  5160   0.201E-01    0.794E-02
RMM:   2    -0.230489561728E+04   -0.94746E-03   -0.10282E-02  6232   0.491E-02    0.607E-02
RMM:   3    -0.230489569935E+04   -0.82075E-04   -0.13263E-03  3339   0.210E-02    0.538E-02
RMM:   4    -0.230489567572E+04    0.23627E-04   -0.11495E-04  2919   0.579E-03    0.284E-02
RMM:   5    -0.230489567068E+04    0.50437E-05   -0.30629E-05  2892   0.387E-03
  72 F= -.23255614E+04 E0= -.23255614E+04  d E =-.192037E-01  mag=     3.0000
       N       E                     dE             d eps       ncg     rms          rms(c)
DAV:   1    -0.230489751431E+04   -0.18386E-02   -0.92341E-02  4496   0.316E-01    0.943E-02
RMM:   2    -0.230489873388E+04   -0.12196E-02   -0.13278E-02  6175   0.642E-02    0.652E-02
RMM:   3    -0.230489883011E+04   -0.96237E-04   -0.13529E-03  3826   0.252E-02    0.616E-02
RMM:   4    -0.230489879643E+04    0.33680E-04   -0.14411E-04  2915   0.704E-03    0.312E-02
RMM:   5    -0.230489879468E+04    0.17483E-05   -0.46656E-05  2919   0.527E-03
  73 F= -.23255646E+04 E0= -.23255646E+04  d E =-.320134E-02  mag=     3.0000
       N       E                     dE             d eps       ncg     rms          rms(c)
DAV:   1    -0.230489329931E+04    0.54971E-02   -0.83049E-01  4432   0.948E-01    0.284E-01
RMM:   2    -0.230490429603E+04   -0.10997E-01   -0.12060E-01  6089   0.191E-01    0.192E-01
RMM:   3    -0.230490542712E+04   -0.11311E-02   -0.12080E-02  5648   0.790E-02    0.250E-01
RMM:   4    -0.230490489371E+04    0.53341E-03   -0.13991E-03  4938   0.185E-02    0.951E-02
RMM:   5    -0.230490489436E+04   -0.64916E-06   -0.37494E-04  4438   0.121E-02    0.114E-01
RMM:   6    -0.230490475071E+04    0.14365E-03   -0.30917E-04  4208   0.117E-02    0.298E-02
RMM:   7    -0.230490474384E+04    0.68677E-05   -0.45086E-05  3025   0.713E-03
  74 F= -.23255708E+04 E0= -.23255708E+04  d E =-.938037E-02  mag=     3.0000
       N       E                     dE             d eps       ncg     rms          rms(c)
DAV:   1    -0.230485506287E+04    0.49688E-01   -0.33310E+00  4432   0.190E+00    0.567E-01
RMM:   2    -0.230489838093E+04   -0.43318E-01   -0.47954E-01  5962   0.380E-01    0.311E-01
RMM:   3    -0.230490224054E+04   -0.38596E-02   -0.50842E-02  5594   0.166E-01    0.329E-01
[...]
 161 F= -.23256435E+04 E0= -.23256435E+04  d E =-.162990E-03  mag=     3.0000
       N       E                     dE             d eps       ncg     rms          rms(c)
DAV:   1    -0.230496144446E+04    0.86385E-04   -0.37142E-03  5008   0.634E-02    0.252E-02
RMM:   2    -0.230496151662E+04   -0.72153E-04   -0.59311E-04  4835   0.148E-02    0.412E-02
RMM:   3    -0.230496150147E+04    0.15147E-04   -0.73438E-05  2870   0.678E-03    0.144E-02
RMM:   4    -0.230496150054E+04    0.92911E-06   -0.10402E-05  2855   0.254E-03
 162 F= -.23256435E+04 E0= -.23256435E+04  d E =-.160947E-03  mag=     3.0000
       N       E                     dE             d eps       ncg     rms          rms(c)
DAV:   1    -0.230496093380E+04    0.56767E-03   -0.41080E-02  4464   0.212E-01    0.691E-02
RMM:   2    -0.230496149105E+04   -0.55725E-03   -0.59093E-03  6047   0.442E-02    0.433E-02
RMM:   3    -0.230496154009E+04   -0.49043E-04   -0.58341E-04  3275   0.174E-02    0.497E-02
RMM:   4    -0.230496151585E+04    0.24238E-04   -0.73778E-05  2922   0.563E-03    0.240E-02
RMM:   5    -0.230496151417E+04    0.16858E-05   -0.21831E-05  2876   0.347E-03
 163 F= -.23256436E+04 E0= -.23256436E+04  d E =-.127767E-03  mag=     3.0000
       N       E                     dE             d eps       ncg     rms          rms(c)
DAV:   1    -0.230496148885E+04    0.27002E-04   -0.42952E-04  5200   0.220E-02    0.116E-02
RMM:   2    -0.230496149960E+04   -0.10752E-04   -0.70585E-05  2937   0.536E-03    0.233E-02
RMM:   3    -0.230496149438E+04    0.52232E-05   -0.10646E-05  2503   0.345E-03
 164 F= -.23256436E+04 E0= -.23256436E+04  d E =-.119981E-03  mag=     3.0000
       N       E                     dE             d eps       ncg     rms          rms(c)
DAV:   1    -0.230496098953E+04    0.51007E-03   -0.37674E-02  4464   0.202E-01    0.668E-02
RMM:   2    -0.230496149792E+04   -0.50839E-03   -0.53325E-03  5984   0.420E-02    0.485E-02
RMM:   3    -0.230496153915E+04   -0.41225E-04   -0.52264E-04  3253   0.165E-02    0.531E-02
RMM:   4    -0.230496150859E+04    0.30560E-04   -0.68462E-05  2916   0.554E-03    0.217E-02
RMM:   5    -0.230496150826E+04    0.32765E-06   -0.20810E-05  2829   0.326E-03
 165 F= -.23256437E+04 E0= -.23256437E+04  d E =-.105309E-03  mag=     3.0000
       N       E                     dE             d eps       ncg     rms          rms(c)
DAV:   1    -0.230496149665E+04    0.11937E-04   -0.66408E-05  4880   0.883E-03    0.694E-03
RMM:   2    -0.230496149899E+04   -0.23364E-05   -0.12259E-05  2578   0.279E-03
 166 F= -.23256437E+04 E0= -.23256437E+04  d E =-.996610E-04  mag=     3.0000
       N       E                     dE             d eps       ncg     rms          rms(c)
DAV:   1    -0.230496101098E+04    0.48567E-03   -0.36042E-02  4464   0.198E-01    0.619E-02
RMM:   2    -0.230496149435E+04   -0.48338E-03   -0.51212E-03  6002   0.409E-02    0.389E-02
RMM:   3    -0.230496153688E+04   -0.42529E-04   -0.50444E-04  3254   0.169E-02    0.445E-02
RMM:   4    -0.230496151699E+04    0.19895E-04   -0.62628E-05  2902   0.511E-03    0.194E-02
RMM:   5    -0.230496151680E+04    0.18536E-06   -0.18088E-05  2851   0.319E-03
 167 F= -.23256438E+04 E0= -.23256438E+04  d E =-.108789E-03  mag=     3.0000
       N       E                     dE             d eps       ncg     rms          rms(c)
DAV:   1    -0.230496143319E+04    0.83798E-04   -0.35314E-03  4912   0.622E-02    0.210E-02
RMM:   2    -0.230496148345E+04   -0.50264E-04   -0.51105E-04  4641   0.138E-02    0.223E-02
RMM:   3    -0.230496148535E+04   -0.19010E-05   -0.62873E-05  2844   0.661E-03
 168 F= -.23256438E+04 E0= -.23256438E+04  d E =-.106332E-03  mag=     3.0000
       N       E                     dE             d eps       ncg     rms          rms(c)
DAV:   1    -0.230496101888E+04    0.46457E-03   -0.32411E-02  4448   0.186E-01    0.601E-02
RMM:   2    -0.230496146590E+04   -0.44702E-03   -0.45961E-03  6027   0.388E-02    0.499E-02
RMM:   3    -0.230496150283E+04   -0.36932E-04   -0.49269E-04  3125   0.155E-02    0.530E-02
RMM:   4    -0.230496147240E+04    0.30426E-04   -0.62070E-05  2919   0.523E-03    0.208E-02
RMM:   5    -0.230496147110E+04    0.13051E-05   -0.17522E-05  2859   0.287E-03
 169 F= -.23256439E+04 E0= -.23256439E+04  d E =-.934283E-04  mag=     3.0000
       N       E                     dE             d eps       ncg     rms          rms(c)
DAV:   1    -0.230496139298E+04    0.79427E-04   -0.28868E-03  5080   0.556E-02    0.186E-02
RMM:   2    -0.230496143285E+04   -0.39876E-04   -0.41301E-04  4174   0.122E-02    0.171E-02
RMM:   3    -0.230496143566E+04   -0.28116E-05   -0.52147E-05  2831   0.634E-03
 170 F= -.23256439E+04 E0= -.23256439E+04  d E =-.909556E-04  mag=     3.0000
       N       E                     dE             d eps       ncg     rms          rms(c)
DAV:   1    -0.230496104669E+04    0.38616E-03   -0.27146E-02  4448   0.167E-01    0.535E-02
RMM:   2    -0.230496142327E+04   -0.37658E-03   -0.39347E-03  6003   0.357E-02    0.375E-02
RMM:   3    -0.230496145686E+04   -0.33590E-04   -0.40575E-04  3041   0.143E-02    0.407E-02
RMM:   4    -0.230496144065E+04    0.16206E-04   -0.51817E-05  2915   0.461E-03    0.191E-02
RMM:   5    -0.230496143952E+04    0.11295E-05   -0.13073E-05  2846   0.262E-03
 171 F= -.23256440E+04 E0= -.23256440E+04  d E =-.931946E-04  mag=     3.0000
       N       E                     dE             d eps       ncg     rms          rms(c)
DAV:   1    -0.230496138597E+04    0.54684E-04   -0.18135E-03  4928   0.433E-02    0.161E-02
RMM:   2    -0.230496141431E+04   -0.28339E-04   -0.26766E-04  3549   0.979E-03    0.216E-02
RMM:   3    -0.230496141242E+04    0.18894E-05   -0.33885E-05  2813   0.567E-03
 172 F= -.23256440E+04 E0= -.23256440E+04  d E =-.896806E-04  mag=     3.0000
       N       E                     dE             d eps       ncg     rms          rms(c)
DAV:   1    -0.230496110105E+04    0.31325E-03   -0.23126E-02  4448   0.153E-01    0.506E-02
RMM:   2    -0.230496142730E+04   -0.32625E-03   -0.33714E-03  6018   0.329E-02    0.395E-02
RMM:   3    -0.230496145484E+04   -0.27542E-04   -0.34926E-04  2998   0.132E-02    0.421E-02
RMM:   4    -0.230496143598E+04    0.18862E-04   -0.44769E-05  2911   0.445E-03    0.175E-02
RMM:   5    -0.230496143534E+04    0.64535E-06   -0.12190E-05  2850   0.242E-03
 173 F= -.23256441E+04 E0= -.23256441E+04  d E =-.853881E-04  mag=     3.0000
       N       E                     dE             d eps       ncg     rms          rms(c)
DAV:   1    -0.230496134499E+04    0.90987E-04   -0.43923E-03  4648   0.669E-02    0.226E-02
RMM:   2    -0.230496140697E+04   -0.61973E-04   -0.63856E-04  4837   0.147E-02    0.206E-02
RMM:   3    -0.230496141092E+04   -0.39518E-05   -0.75772E-05  2848   0.690E-03
 174 F= -.23256441E+04 E0= -.23256441E+04  d E =-.886181E-04  mag=     3.0000
       N       E                     dE             d eps       ncg     rms          rms(c)
DAV:   1    -0.230496108542E+04    0.32155E-03   -0.23069E-02  4448   0.154E-01    0.510E-02
RMM:   2    -0.230496141433E+04   -0.32891E-03   -0.34444E-03  5984   0.332E-02    0.337E-02
RMM:   3    -0.230496144423E+04   -0.29901E-04   -0.35737E-04  2986   0.133E-02    0.368E-02
RMM:   4    -0.230496143150E+04    0.12729E-04   -0.46101E-05  2902   0.429E-03    0.182E-02
RMM:   5    -0.230496143024E+04    0.12605E-05   -0.11576E-05  2846   0.244E-03
 175 F= -.23256442E+04 E0= -.23256442E+04  d E =-.828526E-04  mag=     3.0000
       N       E                     dE             d eps       ncg     rms          rms(c)
DAV:   1    -0.230496132047E+04    0.11103E-03   -0.54064E-03  4560   0.746E-02    0.261E-02
RMM:   2    -0.230496140026E+04   -0.79783E-04   -0.80146E-04  5282   0.163E-02    0.273E-02
RMM:   3    -0.230496140210E+04   -0.18412E-05   -0.93639E-05  2862   0.723E-03
 176 F= -.23256442E+04 E0= -.23256442E+04  d E =-.858178E-04  mag=     3.0000
       N       E                     dE             d eps       ncg     rms          rms(c)
DAV:   1    -0.230496101973E+04    0.38053E-03   -0.24752E-02  4448   0.156E-01    0.521E-02
RMM:   2    -0.230496139716E+04   -0.37743E-03   -0.39182E-03  5989   0.342E-02    0.395E-02
RMM:   3    -0.230496143151E+04   -0.34348E-04   -0.40916E-04  2995   0.134E-02    0.433E-02
RMM:   4    -0.230496141272E+04    0.18787E-04   -0.53154E-05  2915   0.452E-03    0.191E-02
RMM:   5    -0.230496141156E+04    0.11601E-05   -0.12368E-05  2818   0.241E-03
 177 F= -.23256442E+04 E0= -.23256442E+04  d E =-.810106E-04  mag=     3.0000
       N       E                     dE             d eps       ncg     rms          rms(c)
DAV:   1    -0.230496130045E+04    0.11228E-03   -0.49071E-03  4640   0.697E-02    0.242E-02
RMM:   2    -0.230496137598E+04   -0.75533E-04   -0.76817E-04  5050   0.155E-02    0.245E-02
RMM:   3    -0.230496137942E+04   -0.34415E-05   -0.93108E-05  2861   0.701E-03
 178 F= -.23256443E+04 E0= -.23256443E+04  d E =-.811602E-04  mag=     3.0000
       N       E                     dE             d eps       ncg     rms          rms(c)
DAV:   1    -0.230496103864E+04    0.33734E-03   -0.21701E-02  4448   0.145E-01    0.494E-02
RMM:   2    -0.230496137586E+04   -0.33722E-03   -0.35544E-03  5992   0.323E-02    0.308E-02
RMM:   3    -0.230496140664E+04   -0.30783E-04   -0.37128E-04  2949   0.128E-02    0.333E-02
RMM:   4    -0.230496139773E+04    0.89076E-05   -0.46781E-05  2901   0.404E-03
 179 F= -.23256443E+04 E0= -.23256443E+04  d E =-.738913E-04  mag=     3.0000
       N       E                     dE             d eps       ncg     rms          rms(c)
DAV:   1    -0.230496131212E+04    0.94520E-04   -0.40286E-03  4840   0.624E-02    0.256E-02
RMM:   2    -0.230496138992E+04   -0.77795E-04   -0.67043E-04  4698   0.141E-02    0.424E-02
RMM:   3    -0.230496137743E+04    0.12484E-04   -0.78126E-05  2867   0.660E-03    0.158E-02
RMM:   4    -0.230496137538E+04    0.20507E-05   -0.10233E-05  2867   0.222E-03
 180 F= -.23256443E+04 E0= -.23256443E+04  d E =-.757650E-04  mag=     3.0000
       N       E                     dE             d eps       ncg     rms          rms(c)
DAV:   1    -0.230496118552E+04    0.19191E-03   -0.14580E-02  4448   0.121E-01    0.447E-02
RMM:   2    -0.230496141112E+04   -0.22560E-03   -0.22919E-03  5961   0.266E-02    0.406E-02
RMM:   3    -0.230496142286E+04   -0.11732E-04   -0.24967E-04  2935   0.111E-02    0.354E-02
RMM:   4    -0.230496140966E+04    0.13196E-04   -0.30198E-05  2887   0.377E-03    0.153E-02
RMM:   5    -0.230496140953E+04    0.13120E-06   -0.90993E-06  2778   0.218E-03
 181 F= -.23256444E+04 E0= -.23256444E+04  d E =-.833294E-04  mag=     3.0000
       N       E                     dE             d eps       ncg     rms          rms(c)
DAV:   1    -0.230496136319E+04    0.46469E-04   -0.18090E-03  4960   0.427E-02    0.157E-02
RMM:   2    -0.230496138965E+04   -0.26460E-04   -0.28744E-04  3678   0.989E-03    0.951E-03
RMM:   3    -0.230496139289E+04   -0.32402E-05   -0.37193E-05  2806   0.570E-03
 182 F= -.23256444E+04 E0= -.23256444E+04  d E =-.844202E-04  mag=     3.0000
       N       E                     dE             d eps       ncg     rms          rms(c)
DAV:   1    -0.230496115940E+04    0.23025E-03   -0.12701E-02  4448   0.113E-01    0.412E-02
RMM:   2    -0.230496135589E+04   -0.19649E-03   -0.20979E-03  5934   0.252E-02    0.223E-02
RMM:   3    -0.230496137610E+04   -0.20211E-04   -0.21607E-04  2905   0.104E-02    0.293E-02
RMM:   4    -0.230496136839E+04    0.77177E-05   -0.28148E-05  2882   0.335E-03
 183 F= -.23256445E+04 E0= -.23256445E+04  d E =-.555230E-04  mag=     3.0000
       N       E                     dE             d eps       ncg     rms          rms(c)
DAV:   1    -0.230496131783E+04    0.58269E-04   -0.14221E-03  5112   0.379E-02    0.169E-02
RMM:   2    -0.230496134458E+04   -0.26742E-04   -0.24163E-04  3314   0.869E-03    0.248E-02
RMM:   3    -0.230496134081E+04    0.37707E-05   -0.29923E-05  2722   0.522E-03
 184 F= -.23256445E+04 E0= -.23256445E+04  d E =-.551989E-04  mag=     3.0000
       N       E                     dE             d eps       ncg     rms          rms(c)
DAV:   1    -0.230496109774E+04    0.24684E-03   -0.12466E-02  4448   0.110E-01    0.393E-02
RMM:   2    -0.230496129769E+04   -0.19995E-03   -0.21368E-03  5908   0.246E-02    0.195E-02
RMM:   3    -0.230496131536E+04   -0.17669E-04   -0.23756E-04  2900   0.108E-02    0.202E-02
RMM:   4    -0.230496131476E+04    0.59861E-06   -0.29162E-05  2895   0.291E-03
 185 F= -.23256445E+04 E0= -.23256445E+04  d E =-.546629E-04  mag=     3.0000
       N       E                     dE             d eps       ncg     rms          rms(c)
DAV:   1    -0.230496129224E+04    0.23120E-04   -0.36253E-04  5096   0.189E-02    0.935E-03
RMM:   2    -0.230496130002E+04   -0.77802E-05   -0.66021E-05  2815   0.455E-03
 186 F= -.23256445E+04 E0= -.23256445E+04  d E =-.540987E-04  mag=     3.0000
       N       E                     dE             d eps       ncg     rms          rms(c)
DAV:   1    -0.230496110471E+04    0.18753E-03   -0.11633E-02  4448   0.105E-01    0.390E-02
RMM:   2    -0.230496129788E+04   -0.19317E-03   -0.20500E-03  5907   0.251E-02    0.227E-02
RMM:   3    -0.230496131770E+04   -0.19815E-04   -0.23336E-04  2905   0.108E-02    0.261E-02
RMM:   4    -0.230496131196E+04    0.57380E-05   -0.26493E-05  2876   0.318E-03
 187 F= -.23256446E+04 E0= -.23256446E+04  d E =-.438024E-04  mag=     3.0000
       N       E                     dE             d eps       ncg     rms          rms(c)
DAV:   1    -0.230496130674E+04    0.10959E-04   -0.97067E-05  5256   0.970E-03    0.123E-02
RMM:   2    -0.230496132226E+04   -0.15522E-04   -0.39341E-05  2784   0.311E-03    0.372E-02
RMM:   3    -0.230496130693E+04    0.15326E-04   -0.12049E-05  2326   0.243E-03    0.424E-03
RMM:   4    -0.230496130688E+04    0.57538E-07   -0.19291E-06  1203   0.878E-04
 188 F= -.23256446E+04 E0= -.23256446E+04  d E =-.416612E-04  mag=     3.0000
       N       E                     dE             d eps       ncg     rms          rms(c)
DAV:   1    -0.230496117065E+04    0.13628E-03   -0.84779E-03  4448   0.887E-02    0.335E-02
RMM:   2    -0.230496131458E+04   -0.14393E-03   -0.14810E-03  5814   0.203E-02    0.277E-02
RMM:   3    -0.230496132615E+04   -0.11569E-04   -0.15302E-04  2887   0.834E-03    0.291E-02
RMM:   4    -0.230496131677E+04    0.93836E-05   -0.19506E-05  2852   0.288E-03
 189 F= -.23256446E+04 E0= -.23256446E+04  d E =-.418743E-04  mag=     3.0000
       N       E                     dE             d eps       ncg     rms          rms(c)
DAV:   1    -0.230496130306E+04    0.23096E-04   -0.44567E-04  4968   0.203E-02    0.131E-02
RMM:   2    -0.230496131743E+04   -0.14371E-04   -0.88872E-05  2932   0.507E-03    0.276E-02
RMM:   3    -0.230496130981E+04    0.76195E-05   -0.12715E-05  2437   0.320E-03
 190 F= -.23256446E+04 E0= -.23256446E+04  d E =-.423243E-04  mag=     3.0000
       N       E                     dE             d eps       ncg     rms          rms(c)
DAV:   1    -0.230496114247E+04    0.17495E-03   -0.92096E-03  4448   0.922E-02    0.333E-02
RMM:   2    -0.230496129204E+04   -0.14957E-03   -0.16011E-03  5829   0.209E-02    0.159E-02
RMM:   3    -0.230496130315E+04   -0.11107E-04   -0.16926E-04  2881   0.901E-03    0.105E-02
RMM:   4    -0.230496130358E+04   -0.43036E-06   -0.19949E-05  2894   0.235E-03
 191 F= -.23256446E+04 E0= -.23256446E+04  d E =-.439843E-04  mag=     3.0000
       N       E                     dE             d eps       ncg     rms          rms(c)
DAV:   1    -0.230496128031E+04    0.22837E-04   -0.60241E-04  4928   0.237E-02    0.131E-02
RMM:   2    -0.230496129967E+04   -0.19361E-04   -0.11511E-04  2999   0.571E-03    0.300E-02
RMM:   3    -0.230496129008E+04    0.95942E-05   -0.17631E-05  2494   0.373E-03
 192 F= -.23256446E+04 E0= -.23256446E+04  d E =-.434450E-04  mag=     3.0000
       N       E                     dE             d eps       ncg     rms          rms(c)
DAV:   1    -0.230496117451E+04    0.12516E-03   -0.49651E-03  4448   0.642E-02    0.240E-02
RMM:   2    -0.230496126855E+04   -0.94039E-04   -0.96334E-04  4947   0.152E-02    0.219E-02
RMM:   3    -0.230496127442E+04   -0.58659E-05   -0.99281E-05  2855   0.675E-03
 193 F= -.23256447E+04 E0= -.23256447E+04  d E =-.331528E-04  mag=     3.0000
       N       E                     dE             d eps       ncg     rms          rms(c)
DAV:   1    -0.230496118505E+04    0.83506E-04   -0.27975E-03  4432   0.483E-02    0.190E-02
RMM:   2    -0.230496124003E+04   -0.54986E-04   -0.56391E-04  3991   0.118E-02    0.174E-02
RMM:   3    -0.230496124519E+04   -0.51598E-05   -0.70377E-05  2849   0.616E-03
 194 F= -.23256447E+04 E0= -.23256447E+04  d E =-.406664E-04  mag=     3.0000
       N       E                     dE             d eps       ncg     rms          rms(c)
DAV:   1    -0.230496118937E+04    0.50664E-04   -0.30391E-03  4448   0.531E-02    0.207E-02
RMM:   2    -0.230496124396E+04   -0.54588E-04   -0.55379E-04  4356   0.128E-02    0.189E-02
RMM:   3    -0.230496124821E+04   -0.42526E-05   -0.65229E-05  2827   0.673E-03
 195 F= -.23256447E+04 E0= -.23256447E+04  d E =-.370812E-04  mag=     3.0000
       N       E                     dE             d eps       ncg     rms          rms(c)
DAV:   1    -0.230496117270E+04    0.71258E-04   -0.28092E-03  4512   0.510E-02    0.218E-02
RMM:   2    -0.230496122495E+04   -0.52249E-04   -0.51525E-04  4136   0.123E-02    0.246E-02
RMM:   3    -0.230496122619E+04   -0.12391E-05   -0.65298E-05  2864   0.649E-03
 196 F= -.23256447E+04 E0= -.23256447E+04  d E =-.479258E-04  mag=     3.0000
       N       E                     dE             d eps       ncg     rms          rms(c)
DAV:   1    -0.230496113656E+04    0.88382E-04   -0.41274E-03  4448   0.607E-02    0.246E-02
RMM:   2    -0.230496121578E+04   -0.79211E-04   -0.80214E-04  4759   0.147E-02    0.236E-02
RMM:   3    -0.230496122023E+04   -0.44576E-05   -0.89814E-05  2858   0.692E-03
 197 F= -.23256448E+04 E0= -.23256448E+04  d E =-.288041E-04  mag=     3.0000
       N       E                     dE             d eps       ncg     rms          rms(c)
DAV:   1    -0.230496118126E+04    0.34517E-04   -0.10714E-03  4904   0.310E-02    0.158E-02
RMM:   2    -0.230496120859E+04   -0.27330E-04   -0.22533E-04  3172   0.780E-03    0.266E-02
RMM:   3    -0.230496120312E+04    0.54704E-05   -0.29931E-05  2685   0.478E-03
 198 F= -.23256448E+04 E0= -.23256448E+04  d E =-.294413E-04  mag=     3.0000
       N       E                     dE             d eps       ncg     rms          rms(c)
DAV:   1    -0.230496109786E+04    0.11073E-03   -0.44077E-03  4448   0.618E-02    0.247E-02
RMM:   2    -0.230496118808E+04   -0.90225E-04   -0.91661E-04  4909   0.152E-02    0.231E-02
RMM:   3    -0.230496119350E+04   -0.54205E-05   -0.98828E-05  2856   0.725E-03
 199 F= -.23256448E+04 E0= -.23256448E+04  d E =-.324254E-04  mag=     3.0000
       N       E                     dE             d eps       ncg     rms          rms(c)
DAV:   1    -0.230496115972E+04    0.28362E-04   -0.70904E-04  4664   0.249E-02    0.127E-02
RMM:   2    -0.230496117815E+04   -0.18424E-04   -0.16415E-04  3067   0.652E-03    0.188E-02
RMM:   3    -0.230496117613E+04    0.20140E-05   -0.21036E-05  2551   0.410E-03
 200 F= -.23256448E+04 E0= -.23256448E+04  d E =-.319351E-04  mag=     3.0000
       N       E                     dE             d eps       ncg     rms          rms(c)
DAV:   1    -0.230496106142E+04    0.11673E-03   -0.49673E-03  4448   0.670E-02    0.272E-02
RMM:   2    -0.230496115829E+04   -0.96873E-04   -0.10039E-03  5171   0.163E-02    0.213E-02
RMM:   3    -0.230496116712E+04   -0.88319E-05   -0.11101E-04  2862   0.785E-03    0.223E-02
RMM:   4    -0.230496116225E+04    0.48706E-05   -0.13903E-05  2844   0.245E-03
 201 F= -.23256448E+04 E0= -.23256448E+04  d E =-.280807E-04  mag=     3.0000
