       N       E                     dE             d eps       ncg     rms          rms(c)
DAV:   1     0.127201035427E+05    0.12720E+05   -0.84628E+05  4640   0.143E+03
DAV:   2    -0.121500000244E+04   -0.13935E+05   -0.13360E+05  5040   0.325E+02
DAV:   3    -0.249530051446E+04   -0.12803E+04   -0.12686E+04  5440   0.107E+02
DAV:   4    -0.252652947277E+04   -0.31229E+02   -0.31036E+02  5680   0.213E+01
DAV:   5    -0.252752965116E+04   -0.10002E+01   -0.99817E+00  5840   0.313E+00    0.170E+02
RMM:   6    -0.150236693178E+04    0.10252E+04   -0.19144E+03  4516   0.378E+01    0.724E+01
RMM:   7    -0.166359554429E+04   -0.16123E+03   -0.28893E+02  5124   0.149E+01    0.513E+01
RMM:   8    -0.172412357260E+04   -0.60528E+02   -0.85940E+01  5450   0.782E+00    0.436E+01
RMM:   9    -0.178862367060E+04   -0.64500E+02   -0.61401E+01  5186   0.727E+00    0.389E+01
RMM:  10    -0.186917586028E+04   -0.80552E+02   -0.53748E+01  5254   0.698E+00    0.321E+01
RMM:  11    -0.196956329575E+04   -0.10039E+03   -0.44534E+01  5289   0.609E+00    0.213E+01
RMM:  12    -0.205213390000E+04   -0.82571E+02   -0.33598E+01  5123   0.482E+00    0.166E+01
RMM:  13    -0.212570860749E+04   -0.73575E+02   -0.33529E+01  5061   0.439E+00    0.147E+01
RMM:  14    -0.221592969327E+04   -0.90221E+02   -0.64746E+01  4645   0.582E+00    0.121E+01
RMM:  15    -0.228039308173E+04   -0.64463E+02   -0.53313E+01  4944   0.537E+00    0.846E+00
RMM:  16    -0.230439524044E+04   -0.24002E+02   -0.22312E+01  4842   0.355E+00    0.613E+00
RMM:  17    -0.230980179883E+04   -0.54066E+01   -0.55483E+00  5334   0.165E+00    0.440E+00
RMM:  18    -0.231517025745E+04   -0.53685E+01   -0.33644E+00  4539   0.128E+00    0.228E+00
RMM:  19    -0.231717208694E+04   -0.20018E+01   -0.82423E-01  4778   0.747E-01    0.131E+00
RMM:  20    -0.231770781621E+04   -0.53573E+00   -0.30834E-01  4910   0.372E-01    0.547E-01
RMM:  21    -0.231783436888E+04   -0.12655E+00   -0.10172E-01  4823   0.245E-01    0.326E-01
RMM:  22    -0.231787994829E+04   -0.45579E-01   -0.29161E-02  4792   0.127E-01    0.239E-01
RMM:  23    -0.231790665615E+04   -0.26708E-01   -0.12187E-02  4694   0.804E-02    0.133E-01
RMM:  24    -0.231792655840E+04   -0.19902E-01   -0.57957E-03  4582   0.582E-02    0.930E-02
RMM:  25    -0.231794323242E+04   -0.16674E-01   -0.54170E-03  4513   0.526E-02    0.565E-02
RMM:  26    -0.231795008661E+04   -0.68542E-02   -0.24623E-03  4785   0.399E-02    0.391E-02
RMM:  27    -0.231795339747E+04   -0.33109E-02   -0.12118E-03  4506   0.223E-02    0.164E-02
RMM:  28    -0.231795444912E+04   -0.10516E-02   -0.31596E-04  4091   0.165E-02    0.112E-02
RMM:  29    -0.231795479820E+04   -0.34909E-03   -0.10754E-04  3755   0.720E-03    0.580E-03
RMM:  30    -0.231795499652E+04   -0.19831E-03   -0.42465E-05  3455   0.656E-03    0.325E-03
RMM:  31    -0.231795506691E+04   -0.70394E-04   -0.18116E-05  3079   0.383E-03    0.262E-03
RMM:  32    -0.231795510201E+04   -0.35100E-04   -0.89483E-06  2912   0.321E-03    0.124E-03
RMM:  33    -0.231795511034E+04   -0.83252E-05   -0.45870E-06  2629   0.247E-03
   1 F= -.23391710E+04 E0= -.23391710E+04  d E =-.175653E-10  mag=     5.0001
       N       E                     dE             d eps       ncg     rms          rms(c)
DAV:   1    -0.231794984150E+04    0.52605E-02   -0.19412E+00  4480   0.672E-01    0.252E-01
RMM:   2    -0.231795016488E+04   -0.32338E-03   -0.11925E-02  4249   0.453E-02    0.182E-01
RMM:   3    -0.231795010230E+04    0.62581E-04   -0.22892E-03  4864   0.267E-02    0.201E-01
RMM:   4    -0.231794953892E+04    0.56338E-03   -0.85415E-04  4155   0.144E-02    0.650E-02
RMM:   5    -0.231794954153E+04   -0.26154E-05   -0.24884E-04  3480   0.785E-03    0.607E-02
RMM:   6    -0.231794949686E+04    0.44675E-04   -0.66839E-05  2876   0.535E-03    0.147E-02
RMM:   7    -0.231794949838E+04   -0.15262E-05   -0.16337E-05  2656   0.257E-03
   2 F= -.23391651E+04 E0= -.23391651E+04  d E =-.397068E-10  mag=     5.0000
       N       E                     dE             d eps       ncg     rms          rms(c)
DAV:   1    -0.231794995129E+04   -0.45443E-03   -0.77108E+00  4480   0.134E+00    0.511E-01
RMM:   2    -0.231795115823E+04   -0.12069E-02   -0.48156E-02  4306   0.925E-02    0.358E-01
RMM:   3    -0.231795051464E+04    0.64359E-03   -0.84140E-03  5420   0.521E-02    0.411E-01
RMM:   4    -0.231794817607E+04    0.23386E-02   -0.35158E-03  5118   0.284E-02    0.125E-01
RMM:   5    -0.231794819821E+04   -0.22136E-04   -0.92150E-04  4440   0.139E-02    0.119E-01
RMM:   6    -0.231794802820E+04    0.17001E-03   -0.22706E-04  3303   0.872E-03    0.294E-02
RMM:   7    -0.231794803036E+04   -0.21649E-05   -0.45082E-05  3012   0.412E-03
   3 F= -.23391643E+04 E0= -.23391643E+04  d E =-.124767E-10  mag=     5.0000
       N       E                     dE             d eps       ncg     rms          rms(c)
DAV:   1    -0.231793065645E+04    0.17372E-01   -0.38425E+00  4480   0.918E-01    0.364E-01
RMM:   2    -0.231793122486E+04   -0.56841E-03   -0.25168E-02  4342   0.683E-02    0.323E-01
RMM:   3    -0.231793035764E+04    0.86722E-03   -0.45259E-03  4785   0.389E-02    0.278E-01
RMM:   4    -0.231792930760E+04    0.10500E-02   -0.17421E-03  4872   0.196E-02    0.736E-02
RMM:   5    -0.231792931085E+04   -0.32442E-05   -0.38079E-04  3854   0.987E-03    0.665E-02
RMM:   6    -0.231792925770E+04    0.53146E-04   -0.99599E-05  3075   0.634E-03    0.223E-02
RMM:   7    -0.231792925419E+04    0.35087E-05   -0.20681E-05  2847   0.346E-03
   4 F= -.23391448E+04 E0= -.23391448E+04  d E =-.183872E-10  mag=     5.0000
       N       E                     dE             d eps       ncg     rms          rms(c)
DAV:   1    -0.231796959128E+04   -0.40334E-01   -0.75825E+00  4480   0.123E+00    0.499E-01
RMM:   2    -0.231796989762E+04   -0.30634E-03   -0.48943E-02  4678   0.937E-02    0.403E-01
RMM:   3    -0.231796911759E+04    0.78003E-03   -0.89066E-03  4812   0.541E-02    0.426E-01
RMM:   4    -0.231796673557E+04    0.23820E-02   -0.31979E-03  5285   0.243E-02    0.702E-02
RMM:   5    -0.231796677378E+04   -0.38208E-04   -0.52317E-04  3642   0.112E-02    0.687E-02
RMM:   6    -0.231796671852E+04    0.55256E-04   -0.15109E-04  3200   0.736E-03    0.329E-02
RMM:   7    -0.231796670938E+04    0.91378E-05   -0.27236E-05  2992   0.366E-03
   5 F= -.23391831E+04 E0= -.23391831E+04  d E =-.155373E-10  mag=     5.0000
       N       E                     dE             d eps       ncg     rms          rms(c)
DAV:   1    -0.231792596632E+04    0.40752E-01   -0.39487E+00  4640   0.852E-01    0.346E-01
RMM:   2    -0.231792561303E+04    0.35329E-03   -0.23123E-02  4404   0.640E-02    0.226E-01
RMM:   3    -0.231792514810E+04    0.46493E-03   -0.36579E-03  5211   0.363E-02    0.234E-01
RMM:   4    -0.231792425090E+04    0.89720E-03   -0.13207E-03  4649   0.201E-02    0.690E-02
RMM:   5    -0.231792424444E+04    0.64572E-05   -0.30246E-04  3791   0.840E-03    0.582E-02
RMM:   6    -0.231792421394E+04    0.30507E-04   -0.84435E-05  3000   0.567E-03    0.277E-02
RMM:   7    -0.231792421073E+04    0.32039E-05   -0.19577E-05  2844   0.306E-03
   6 F= -.23391403E+04 E0= -.23391403E+04  d E =-.224121E-10  mag=     5.0000
       N       E                     dE             d eps       ncg     rms          rms(c)
DAV:   1    -0.231797739369E+04   -0.53180E-01   -0.77032E+00  4480   0.135E+00    0.517E-01
RMM:   2    -0.231798016960E+04   -0.27759E-02   -0.50327E-02  4545   0.979E-02    0.496E-01
RMM:   3    -0.231797755756E+04    0.26120E-02   -0.86956E-03  5298   0.528E-02    0.353E-01
RMM:   4    -0.231797584605E+04    0.17115E-02   -0.26914E-03  5206   0.271E-02    0.148E-01
RMM:   5    -0.231797590495E+04   -0.58899E-04   -0.13266E-03  4791   0.162E-02    0.149E-01
RMM:   6    -0.231797563249E+04    0.27246E-03   -0.34729E-04  3572   0.104E-02    0.371E-02
RMM:   7    -0.231797562903E+04    0.34625E-05   -0.66223E-05  3173   0.473E-03
   7 F= -.23391915E+04 E0= -.23391915E+04  d E =-.189170E-10  mag=     5.0000
       N       E                     dE             d eps       ncg     rms          rms(c)
DAV:   1    -0.231796284135E+04    0.12791E-01   -0.39309E+00  4480   0.977E-01    0.375E-01
RMM:   2    -0.231796500705E+04   -0.21657E-02   -0.24371E-02  4784   0.739E-02    0.386E-01
RMM:   3    -0.231796321392E+04    0.17931E-02   -0.43288E-03  5455   0.355E-02    0.222E-01
RMM:   4    -0.231796266541E+04    0.54851E-03   -0.13050E-03  4831   0.174E-02    0.130E-01
RMM:   5    -0.231796262657E+04    0.38842E-04   -0.68373E-04  3940   0.124E-02    0.971E-02
RMM:   6    -0.231796252047E+04    0.10609E-03   -0.11505E-04  3113   0.715E-03    0.213E-02
RMM:   7    -0.231796252619E+04   -0.57163E-05   -0.25643E-05  2970   0.344E-03
   8 F= -.23391784E+04 E0= -.23391784E+04  d E =-.150888E-10  mag=     5.0000
       N       E                     dE             d eps       ncg     rms          rms(c)
DAV:   1    -0.231794072856E+04    0.21792E-01   -0.74646E+00  4480   0.133E+00    0.511E-01
RMM:   2    -0.231794286789E+04   -0.21393E-02   -0.31263E-02  4794   0.900E-02    0.420E-01
RMM:   3    -0.231794182106E+04    0.10468E-02   -0.66599E-03  5721   0.448E-02    0.338E-01
RMM:   4    -0.231794043721E+04    0.13838E-02   -0.23409E-03  5342   0.240E-02    0.140E-01
RMM:   5    -0.231794051343E+04   -0.76221E-04   -0.90281E-04  4294   0.140E-02    0.135E-01
RMM:   6    -0.231794030362E+04    0.20981E-03   -0.21613E-04  3195   0.834E-03    0.290E-02
RMM:   7    -0.231794031798E+04   -0.14360E-04   -0.57173E-05  3030   0.451E-03    0.296E-02
RMM:   8    -0.231794031185E+04    0.61219E-05   -0.22950E-05  2834   0.336E-03
   9 F= -.23391563E+04 E0= -.23391563E+04  d E =-.261573E-10  mag=     5.0000
       N       E                     dE             d eps       ncg     rms          rms(c)
DAV:   1    -0.231789704646E+04    0.43272E-01   -0.37294E+00  4480   0.945E-01    0.392E-01
RMM:   2    -0.231789810592E+04   -0.10595E-02   -0.16458E-02  5041   0.622E-02    0.313E-01
RMM:   3    -0.231789757922E+04    0.52669E-03   -0.43349E-03  5290   0.385E-02    0.272E-01
RMM:   4    -0.231789668959E+04    0.88963E-03   -0.14184E-03  4564   0.199E-02    0.116E-01
RMM:   5    -0.231789669349E+04   -0.38981E-05   -0.60319E-04  3908   0.115E-02    0.993E-02
RMM:   6    -0.231789659170E+04    0.10179E-03   -0.14128E-04  3196   0.722E-03    0.228E-02
RMM:   7    -0.231789659090E+04    0.80277E-06   -0.24481E-05  2924   0.343E-03
  10 F= -.23391132E+04 E0= -.23391132E+04  d E =-.240661E-10  mag=     5.0000
       N       E                     dE             d eps       ncg     rms          rms(c)
DAV:   1    -0.231800764451E+04   -0.11105E+00   -0.77924E+00  4480   0.136E+00    0.635E-01
RMM:   2    -0.231800879898E+04   -0.11545E-02   -0.41471E-02  5004   0.100E-01    0.465E-01
RMM:   3    -0.231800848572E+04    0.31326E-03   -0.11224E-02  5041   0.696E-02    0.477E-01
RMM:   4    -0.231800580451E+04    0.26812E-02   -0.41348E-03  5189   0.344E-02    0.174E-01
RMM:   5    -0.231800579213E+04    0.12381E-04   -0.14335E-03  4910   0.173E-02    0.148E-01
RMM:   6    -0.231800558046E+04    0.21166E-03   -0.44961E-04  3573   0.105E-02    0.566E-02
RMM:   7    -0.231800554733E+04    0.33138E-04   -0.72674E-05  3088   0.495E-03    0.239E-02
RMM:   8    -0.231800555021E+04   -0.28813E-05   -0.30533E-05  2905   0.351E-03
  11 F= -.23392208E+04 E0= -.23392208E+04  d E =-.295527E-10  mag=     5.0000
       N       E                     dE             d eps       ncg     rms          rms(c)
DAV:   1    -0.231786725056E+04    0.13830E+00   -0.42712E+00  4480   0.111E+00    0.522E-01
RMM:   2    -0.231786766156E+04   -0.41100E-03   -0.32132E-02  5143   0.971E-02    0.379E-01
RMM:   3    -0.231786729783E+04    0.36373E-03   -0.65809E-03  4762   0.547E-02    0.374E-01
RMM:   4    -0.231786594897E+04    0.13489E-02   -0.33318E-03  5418   0.265E-02    0.183E-01
RMM:   5    -0.231786580152E+04    0.14745E-03   -0.11740E-03  4897   0.163E-02    0.107E-01
RMM:   6    -0.231786562710E+04    0.17442E-03   -0.23146E-04  3304   0.903E-03    0.317E-02
RMM:   7    -0.231786560925E+04    0.17845E-04   -0.38570E-05  3048   0.399E-03    0.163E-02
RMM:   8    -0.231786560931E+04   -0.60958E-07   -0.19593E-05  2693   0.279E-03
  12 F= -.23390810E+04 E0= -.23390810E+04  d E =-.732726E-11  mag=     5.0000
       N       E                     dE             d eps       ncg     rms          rms(c)
DAV:   1    -0.231800547828E+04   -0.13987E+00   -0.79097E+00  4480   0.156E+00    0.699E-01
RMM:   2    -0.231800971695E+04   -0.42387E-02   -0.71444E-02  5575   0.143E-01    0.692E-01
RMM:   3    -0.231800433518E+04    0.53818E-02   -0.13045E-02  5751   0.643E-02    0.403E-01
RMM:   4    -0.231800274395E+04    0.15912E-02   -0.54685E-03  5663   0.343E-02    0.222E-01
RMM:   5    -0.231800250846E+04    0.23549E-03   -0.17840E-03  5074   0.197E-02    0.149E-01
RMM:   6    -0.231800221895E+04    0.28951E-03   -0.37185E-04  3415   0.947E-03    0.460E-02
RMM:   7    -0.231800218928E+04    0.29674E-04   -0.69226E-05  3207   0.492E-03    0.228E-02
RMM:   8    -0.231800219371E+04   -0.44322E-05   -0.41718E-05  2982   0.383E-03
  13 F= -.23392187E+04 E0= -.23392187E+04  d E =-.321812E-10  mag=     5.0000
       N       E                     dE             d eps       ncg     rms          rms(c)
DAV:   1    -0.231794751985E+04    0.54669E-01   -0.24266E+00  4480   0.826E-01    0.427E-01
RMM:   2    -0.231794821091E+04   -0.69106E-03   -0.21403E-02  5270   0.789E-02    0.374E-01
RMM:   3    -0.231794691155E+04    0.12994E-02   -0.43876E-03  5526   0.367E-02    0.259E-01
RMM:   4    -0.231794623357E+04    0.67798E-03   -0.19299E-03  5212   0.209E-02    0.139E-01
RMM:   5    -0.231794613093E+04    0.10264E-03   -0.59725E-04  4405   0.119E-02    0.850E-02
RMM:   6    -0.231794603892E+04    0.92011E-04   -0.13422E-04  3026   0.631E-03    0.292E-02
RMM:   7    -0.231794602644E+04    0.12483E-04   -0.22765E-05  2791   0.316E-03    0.118E-02
RMM:   8    -0.231794602825E+04   -0.18132E-05   -0.15549E-05  2708   0.240E-03
  14 F= -.23391617E+04 E0= -.23391617E+04  d E =-.171001E-10  mag=     5.0000
       N       E                     dE             d eps       ncg     rms          rms(c)
DAV:   1    -0.231796178528E+04   -0.15759E-01   -0.11352E+00  4320   0.536E-01    0.363E-01
RMM:   2    -0.231796145206E+04    0.33322E-03   -0.52201E-03  4742   0.355E-02    0.225E-01
RMM:   3    -0.231796156563E+04   -0.11357E-03   -0.16905E-03  5038   0.228E-02    0.194E-01
RMM:   4    -0.231796141531E+04    0.15032E-03   -0.11298E-03  4806   0.187E-02    0.137E-01
RMM:   5    -0.231796113554E+04    0.27977E-03   -0.26698E-04  3665   0.926E-03    0.378E-02
RMM:   6    -0.231796112700E+04    0.85402E-05   -0.54878E-05  2799   0.441E-03
  15 F= -.23391773E+04 E0= -.23391773E+04  d E =-.204019E-10  mag=     5.0000
       N       E                     dE             d eps       ncg     rms          rms(c)
DAV:   1    -0.231796404853E+04   -0.29130E-02   -0.56683E-01  4320   0.376E-01    0.233E-01
RMM:   2    -0.231796411185E+04   -0.63316E-04   -0.21224E-03  3953   0.228E-02    0.143E-01
RMM:   3    -0.231796451428E+04   -0.40243E-03   -0.92285E-04  4470   0.145E-02    0.204E-01
RMM:   4    -0.231796403819E+04    0.47609E-03   -0.56609E-04  3547   0.108E-02    0.296E-02
RMM:   5    -0.231796404402E+04   -0.58321E-05   -0.74273E-05  2907   0.446E-03
  16 F= -.23391798E+04 E0= -.23391798E+04  d E =-.124124E-10  mag=     5.0000
       N       E                     dE             d eps       ncg     rms          rms(c)
DAV:   1    -0.231794076458E+04    0.23274E-01   -0.11321E+00  4800   0.530E-01    0.384E-01
RMM:   2    -0.231794015007E+04    0.61450E-03   -0.78065E-03  4401   0.439E-02    0.247E-01
RMM:   3    -0.231794054235E+04   -0.39228E-03   -0.26542E-03  5028   0.280E-02    0.290E-01
RMM:   4    -0.231793979675E+04    0.74560E-03   -0.13198E-03  4580   0.165E-02    0.129E-01
RMM:   5    -0.231793964110E+04    0.15565E-03   -0.32527E-04  3700   0.102E-02    0.402E-02
RMM:   6    -0.231793964414E+04   -0.30384E-05   -0.85415E-05  3023   0.555E-03
  17 F= -.23391558E+04 E0= -.23391558E+04  d E =-.202796E-10  mag=     5.0000
       N       E                     dE             d eps       ncg     rms          rms(c)
DAV:   1    -0.231798330103E+04   -0.43660E-01   -0.60722E-01  5120   0.405E-01    0.401E-01
RMM:   2    -0.231798145577E+04    0.18453E-02   -0.10804E-02  4903   0.509E-02    0.259E-01
RMM:   3    -0.231798084420E+04    0.61157E-03   -0.23258E-03  4767   0.287E-02    0.185E-01
RMM:   4    -0.231798080456E+04    0.39635E-04   -0.12875E-03  4935   0.185E-02    0.164E-01
RMM:   5    -0.231798038927E+04    0.41529E-03   -0.42689E-04  3988   0.118E-02    0.360E-02
RMM:   6    -0.231798040427E+04   -0.15004E-04   -0.10252E-04  3045   0.557E-03    0.495E-02
RMM:   7    -0.231798037475E+04    0.29520E-04   -0.31217E-05  2630   0.382E-03    0.831E-03
RMM:   8    -0.231798037467E+04    0.84852E-07   -0.71360E-06  2567   0.190E-03
  18 F= -.23391960E+04 E0= -.23391960E+04  d E =-.244887E-10  mag=     5.0000
       N       E                     dE             d eps       ncg     rms          rms(c)
DAV:   1    -0.231791960029E+04    0.60774E-01   -0.11734E+00  5200   0.551E-01    0.545E-01
RMM:   2    -0.231791661795E+04    0.29823E-02   -0.22072E-02  4967   0.709E-02    0.362E-01
RMM:   3    -0.231791533167E+04    0.12863E-02   -0.46925E-03  5373   0.400E-02    0.272E-01
RMM:   4    -0.231791499225E+04    0.33943E-03   -0.25143E-03  5414   0.243E-02    0.220E-01
RMM:   5    -0.231791436105E+04    0.63119E-03   -0.74251E-04  4380   0.148E-02    0.610E-02
RMM:   6    -0.231791439196E+04   -0.30909E-04   -0.24414E-04  3290   0.805E-03    0.733E-02
RMM:   7    -0.231791431838E+04    0.73584E-04   -0.58002E-05  2857   0.523E-03    0.110E-02
RMM:   8    -0.231791431798E+04    0.40127E-06   -0.10590E-05  2670   0.218E-03
  19 F= -.23391306E+04 E0= -.23391306E+04  d E =-.229058E-10  mag=     5.0000
