       N       E                     dE             d eps       ncg     rms          rms(c)
DAV:   1     0.126831732537E+05    0.12683E+05   -0.82899E+05  4440   0.144E+03
DAV:   2    -0.107358881777E+04   -0.13757E+05   -0.13178E+05  5312   0.329E+02
DAV:   3    -0.247234982690E+04   -0.13988E+04   -0.13858E+04  5352   0.111E+02
DAV:   4    -0.251845667151E+04   -0.46107E+02   -0.45885E+02  6640   0.300E+01
DAV:   5    -0.251938306490E+04   -0.92639E+00   -0.92496E+00  5576   0.332E+00    0.170E+02
RMM:   6    -0.147850715076E+04    0.10409E+04   -0.19486E+03  4388   0.388E+01    0.742E+01
RMM:   7    -0.165370948214E+04   -0.17520E+03   -0.30600E+02  5021   0.140E+01    0.557E+01
RMM:   8    -0.168296127732E+04   -0.29252E+02   -0.64835E+01  5112   0.775E+00    0.380E+01
RMM:   9    -0.181440328122E+04   -0.13144E+03   -0.67831E+01  4765   0.779E+00    0.345E+01
RMM:  10    -0.191030073911E+04   -0.95897E+02   -0.45635E+01  5050   0.651E+00    0.238E+01
RMM:  11    -0.202320009922E+04   -0.11290E+03   -0.47562E+01  4887   0.582E+00    0.188E+01
RMM:  12    -0.209422283550E+04   -0.71023E+02   -0.31766E+01  4780   0.441E+00    0.134E+01
RMM:  13    -0.222875094511E+04   -0.13453E+03   -0.11184E+02  4411   0.767E+00    0.141E+01
RMM:  14    -0.228041246993E+04   -0.51662E+02   -0.42906E+01  4444   0.483E+00    0.953E+00
RMM:  15    -0.230310656907E+04   -0.22694E+02   -0.22895E+01  4728   0.346E+00    0.508E+00
RMM:  16    -0.230813185307E+04   -0.50253E+01   -0.49805E+00  4779   0.180E+00    0.294E+00
RMM:  17    -0.231190257372E+04   -0.37707E+01   -0.26514E+00  4600   0.104E+00    0.172E+00
RMM:  18    -0.231386361931E+04   -0.19610E+01   -0.12609E+00  4595   0.793E-01    0.102E+00
RMM:  19    -0.231433293752E+04   -0.46932E+00   -0.31567E-01  4839   0.413E-01    0.734E-01
RMM:  20    -0.231443604336E+04   -0.10311E+00   -0.11418E-01  4711   0.227E-01    0.385E-01
RMM:  21    -0.231446428424E+04   -0.28241E-01   -0.20613E-02  4921   0.118E-01    0.238E-01
RMM:  22    -0.231448886073E+04   -0.24576E-01   -0.10593E-02  4427   0.706E-02    0.143E-01
RMM:  23    -0.231450343343E+04   -0.14573E-01   -0.55658E-03  4498   0.561E-02    0.104E-01
RMM:  24    -0.231450985439E+04   -0.64210E-02   -0.21693E-03  4735   0.374E-02    0.686E-02
RMM:  25    -0.231451681888E+04   -0.69645E-02   -0.23077E-03  4404   0.332E-02    0.400E-02
RMM:  26    -0.231451859041E+04   -0.17715E-02   -0.51182E-04  4097   0.225E-02    0.419E-02
RMM:  27    -0.231451966436E+04   -0.10740E-02   -0.31291E-04  3935   0.123E-02    0.217E-02
RMM:  28    -0.231452001911E+04   -0.35475E-03   -0.81769E-05  3668   0.104E-02    0.156E-02
RMM:  29    -0.231452028163E+04   -0.26251E-03   -0.64109E-05  3508   0.585E-03    0.784E-03
RMM:  30    -0.231452039663E+04   -0.11500E-03   -0.23368E-05  3087   0.551E-03    0.312E-03
RMM:  31    -0.231452044859E+04   -0.51961E-04   -0.14691E-05  2933   0.359E-03    0.172E-03
RMM:  32    -0.231452046157E+04   -0.12982E-04   -0.55528E-06  2759   0.327E-03    0.111E-03
RMM:  33    -0.231452046720E+04   -0.56295E-05   -0.31187E-06  2353   0.190E-03
   1 F= -.23350158E+04 E0= -.23350158E+04  d E =-.233502E+04  mag=     4.0000
       N       E                     dE             d eps       ncg     rms          rms(c)
DAV:   1    -0.231463318051E+04   -0.11272E+00   -0.44408E+01  4768   0.419E+00    0.292E+00
RMM:   2    -0.231560944532E+04   -0.97626E+00   -0.82239E+00  6193   0.120E+00    0.468E+00
RMM:   3    -0.231542624104E+04    0.18320E+00   -0.71318E-01  5409   0.409E-01    0.172E+00
RMM:   4    -0.231542287732E+04    0.33637E-02   -0.13742E-01  5448   0.121E-01    0.118E+00
RMM:   5    -0.231542710429E+04   -0.42270E-02   -0.41547E-02  4960   0.885E-02    0.111E+00
RMM:   6    -0.231542469734E+04    0.24070E-02   -0.71427E-02  5159   0.106E-01    0.556E-01
RMM:   7    -0.231542685628E+04   -0.21589E-02   -0.13571E-02  4812   0.711E-02    0.270E-01
RMM:   8    -0.231542837300E+04   -0.15167E-02   -0.45336E-03  4631   0.313E-02    0.113E-01
RMM:   9    -0.231542895422E+04   -0.58122E-03   -0.56723E-04  4196   0.176E-02    0.635E-02
RMM:  10    -0.231542944360E+04   -0.48938E-03   -0.20454E-04  3855   0.887E-03    0.389E-02
RMM:  11    -0.231542975135E+04   -0.30774E-03   -0.11653E-04  3567   0.783E-03    0.283E-02
RMM:  12    -0.231542989941E+04   -0.14806E-03   -0.42055E-05  3061   0.529E-03    0.210E-02
RMM:  13    -0.231543007167E+04   -0.17227E-03   -0.53091E-05  3210   0.558E-03    0.116E-02
RMM:  14    -0.231543015677E+04   -0.85093E-04   -0.25012E-05  2911   0.473E-03    0.930E-03
RMM:  15    -0.231543020074E+04   -0.43971E-04   -0.11266E-05  2840   0.380E-03    0.542E-03
RMM:  16    -0.231543022099E+04   -0.20257E-04   -0.64860E-06  2796   0.314E-03    0.324E-03
RMM:  17    -0.231543022961E+04   -0.86107E-05   -0.38299E-06  2576   0.247E-03
   2 F= -.23359210E+04 E0= -.23359210E+04  d E =-.905220E+00  mag=     4.0000
       N       E                     dE             d eps       ncg     rms          rms(c)
DAV:   1    -0.230636642718E+04    0.90638E+01   -0.39439E+02  4400   0.133E+01    0.836E+00
RMM:   2    -0.231835033552E+04   -0.11984E+02   -0.99355E+01  6249   0.436E+00    0.143E+01
RMM:   3    -0.231570879818E+04    0.26415E+01   -0.85604E+00  4912   0.162E+00    0.609E+00
RMM:   4    -0.231535268178E+04    0.35612E+00   -0.10917E+00  5105   0.410E-01    0.390E+00
RMM:   5    -0.231515875934E+04    0.19392E+00   -0.43715E-01  5350   0.294E-01    0.188E+00
RMM:   6    -0.231517607292E+04   -0.17314E-01   -0.27612E-01  5276   0.224E-01    0.125E+00
RMM:   7    -0.231521525449E+04   -0.39182E-01   -0.60028E-02  4965   0.135E-01    0.631E-01
RMM:   8    -0.231527048811E+04   -0.55234E-01   -0.32122E-02  4453   0.816E-02    0.391E-01
RMM:   9    -0.231531650008E+04   -0.46012E-01   -0.16585E-02  4495   0.709E-02    0.232E-01
RMM:  10    -0.231534576355E+04   -0.29263E-01   -0.99350E-03  4726   0.528E-02    0.156E-01
RMM:  11    -0.231536303889E+04   -0.17275E-01   -0.47551E-03  4523   0.408E-02    0.107E-01
RMM:  12    -0.231537161522E+04   -0.85763E-02   -0.25692E-03  4462   0.315E-02    0.736E-02
RMM:  13    -0.231537633165E+04   -0.47164E-02   -0.13144E-03  4327   0.244E-02    0.403E-02
RMM:  14    -0.231537818487E+04   -0.18532E-02   -0.44732E-04  4309   0.157E-02    0.238E-02
RMM:  15    -0.231537888395E+04   -0.69909E-03   -0.14035E-04  3845   0.879E-03    0.143E-02
RMM:  16    -0.231537924162E+04   -0.35767E-03   -0.59681E-05  3463   0.631E-03    0.749E-03
RMM:  17    -0.231537937158E+04   -0.12996E-03   -0.24150E-05  3054   0.488E-03    0.495E-03
RMM:  18    -0.231537940406E+04   -0.32478E-04   -0.83004E-06  2818   0.362E-03    0.277E-03
RMM:  19    -0.231537941902E+04   -0.14968E-04   -0.58176E-06  2746   0.273E-03    0.140E-03
RMM:  20    -0.231537942247E+04   -0.34485E-05   -0.31086E-06  2546   0.238E-03
   3 F= -.23358627E+04 E0= -.23358627E+04  d E =-.846848E+00  mag=     2.0008
       N       E                     dE             d eps       ncg     rms          rms(c)
DAV:   1    -0.231338087316E+04    0.19985E+01   -0.14523E+02  4412   0.808E+00    0.676E+00
RMM:   2    -0.231881641946E+04   -0.54355E+01   -0.36697E+01  6043   0.267E+00    0.134E+01
RMM:   3    -0.231602885000E+04    0.27876E+01   -0.34467E+00  5692   0.844E-01    0.434E+00
RMM:   4    -0.231593443185E+04    0.94418E-01   -0.85522E-01  6077   0.313E-01    0.249E+00
RMM:   5    -0.231591005662E+04    0.24375E-01   -0.13442E-01  5855   0.147E-01    0.244E+00
RMM:   6    -0.231588691015E+04    0.23146E-01   -0.73804E-02  5333   0.113E-01    0.139E+00
RMM:   7    -0.231593363935E+04   -0.46729E-01   -0.55557E-02  4512   0.955E-02    0.824E-01
RMM:   8    -0.231594571836E+04   -0.12079E-01   -0.45521E-02  4540   0.994E-02    0.522E-01
RMM:   9    -0.231594571101E+04    0.73523E-05   -0.16937E-02  4887   0.646E-02    0.364E-01
RMM:  10    -0.231595036756E+04   -0.46566E-02   -0.34741E-03  4483   0.331E-02    0.185E-01
RMM:  11    -0.231595329216E+04   -0.29246E-02   -0.13788E-03  4206   0.239E-02    0.733E-02
RMM:  12    -0.231595465568E+04   -0.13635E-02   -0.54341E-04  3975   0.149E-02    0.412E-02
RMM:  13    -0.231595525087E+04   -0.59519E-03   -0.18143E-04  3731   0.968E-03    0.246E-02
RMM:  14    -0.231595556057E+04   -0.30970E-03   -0.57840E-05  3350   0.587E-03    0.179E-02
RMM:  15    -0.231595579940E+04   -0.23884E-03   -0.36844E-05  3188   0.522E-03    0.121E-02
RMM:  16    -0.231595594956E+04   -0.15015E-03   -0.28543E-05  3130   0.477E-03    0.739E-03
RMM:  17    -0.231595600247E+04   -0.52915E-04   -0.11559E-05  2841   0.394E-03    0.505E-03
RMM:  18    -0.231595602563E+04   -0.23161E-04   -0.70808E-06  2783   0.302E-03    0.321E-03
RMM:  19    -0.231595603275E+04   -0.71123E-05   -0.35562E-06  2546   0.249E-03
   4 F= -.23364434E+04 E0= -.23364434E+04  d E =-.142757E+01  mag=     2.0007
       N       E                     dE             d eps       ncg     rms          rms(c)
DAV:   1    -0.231586743042E+04    0.88595E-01   -0.81644E+00  4512   0.193E+00    0.122E+00
RMM:   2    -0.231603463907E+04   -0.16721E+00   -0.14622E+00  6200   0.537E-01    0.184E+00
RMM:   3    -0.231601081446E+04    0.23825E-01   -0.13733E-01  5435   0.178E-01    0.835E-01
RMM:   4    -0.231600697588E+04    0.38386E-02   -0.18563E-02  4893   0.465E-02    0.449E-01
RMM:   5    -0.231600525473E+04    0.17212E-02   -0.65843E-03  5481   0.380E-02    0.299E-01
RMM:   6    -0.231600414815E+04    0.11066E-02   -0.16616E-03  5309   0.230E-02    0.829E-02
RMM:   7    -0.231600416160E+04   -0.13448E-04   -0.32249E-04  3707   0.101E-02    0.441E-02
RMM:   8    -0.231600416493E+04   -0.33319E-05   -0.90019E-05  3174   0.662E-03
   5 F= -.23364905E+04 E0= -.23364905E+04  d E =-.147471E+01  mag=     2.0002
       N       E                     dE             d eps       ncg     rms          rms(c)
DAV:   1    -0.231610489818E+04   -0.10074E+00   -0.30200E+01  4464   0.435E+00    0.290E+00
RMM:   2    -0.231662508830E+04   -0.52019E+00   -0.44056E+00  6096   0.109E+00    0.402E+00
RMM:   3    -0.231648136873E+04    0.14372E+00   -0.40821E-01  5532   0.345E-01    0.166E+00
RMM:   4    -0.231645327065E+04    0.28098E-01   -0.64348E-02  4628   0.108E-01    0.775E-01
RMM:   5    -0.231644682890E+04    0.64418E-02   -0.27393E-02  5550   0.924E-02    0.504E-01
RMM:   6    -0.231644390491E+04    0.29240E-02   -0.71437E-03  5926   0.461E-02    0.273E-01
RMM:   7    -0.231644361902E+04    0.28589E-03   -0.20623E-03  4644   0.228E-02    0.921E-02
RMM:   8    -0.231644371861E+04   -0.99591E-04   -0.53040E-04  4330   0.128E-02    0.419E-02
RMM:   9    -0.231644383610E+04   -0.11749E-03   -0.13823E-04  3950   0.925E-03    0.230E-02
RMM:  10    -0.231644392888E+04   -0.92782E-04   -0.62417E-05  3572   0.650E-03    0.156E-02
RMM:  11    -0.231644398751E+04   -0.58630E-04   -0.24531E-05  2980   0.549E-03    0.890E-03
RMM:  12    -0.231644402785E+04   -0.40341E-04   -0.20559E-05  2933   0.482E-03    0.570E-03
RMM:  13    -0.231644404198E+04   -0.14127E-04   -0.96657E-06  2815   0.428E-03    0.367E-03
RMM:  14    -0.231644404968E+04   -0.77051E-05   -0.59509E-06  2801   0.300E-03
   6 F= -.23369289E+04 E0= -.23369289E+04  d E =-.438393E+00  mag=     2.0000
       N       E                     dE             d eps       ncg     rms          rms(c)
DAV:   1    -0.231630328973E+04    0.14075E+00   -0.22581E+01  4464   0.367E+00    0.195E+00
RMM:   2    -0.231658002793E+04   -0.27674E+00   -0.27778E+00  6089   0.912E-01    0.154E+00
RMM:   3    -0.231656383471E+04    0.16193E-01   -0.22928E-01  5639   0.282E-01    0.912E-01
RMM:   4    -0.231655439359E+04    0.94411E-02   -0.39965E-02  4901   0.882E-02    0.390E-01
RMM:   5    -0.231655233451E+04    0.20591E-02   -0.10327E-02  5291   0.649E-02    0.177E-01
RMM:   6    -0.231655220155E+04    0.13296E-03   -0.21006E-03  5607   0.285E-02    0.103E-01
RMM:   7    -0.231655214303E+04    0.58522E-04   -0.62664E-04  4503   0.145E-02    0.551E-02
RMM:   8    -0.231655216257E+04   -0.19544E-04   -0.12802E-04  3875   0.835E-03    0.280E-02
RMM:   9    -0.231655221259E+04   -0.50013E-04   -0.77220E-05  3671   0.721E-03    0.150E-02
RMM:  10    -0.231655224752E+04   -0.34930E-04   -0.22040E-05  2926   0.556E-03    0.856E-03
RMM:  11    -0.231655227215E+04   -0.24631E-04   -0.14557E-05  2847   0.440E-03    0.560E-03
RMM:  12    -0.231655228771E+04   -0.15565E-04   -0.10396E-05  2816   0.384E-03    0.344E-03
RMM:  13    -0.231655229385E+04   -0.61369E-05   -0.60619E-06  2800   0.333E-03
   7 F= -.23370358E+04 E0= -.23370358E+04  d E =-.545235E+00  mag=     2.0000
       N       E                     dE             d eps       ncg     rms          rms(c)
DAV:   1    -0.231682771889E+04   -0.27543E+00   -0.24702E+01  4422   0.321E+00    0.145E+00
RMM:   2    -0.231699188649E+04   -0.16417E+00   -0.19160E+00  5864   0.742E-01    0.100E+00
RMM:   3    -0.231699505876E+04   -0.31723E-02   -0.17186E-01  5861   0.241E-01    0.797E-01
RMM:   4    -0.231698885101E+04    0.62078E-02   -0.29190E-02  5372   0.759E-02    0.426E-01
RMM:   5    -0.231698782842E+04    0.10226E-02   -0.95061E-03  5242   0.543E-02    0.233E-01
RMM:   6    -0.231698701593E+04    0.81249E-03   -0.20693E-03  5043   0.299E-02    0.769E-02
RMM:   7    -0.231698694388E+04    0.72047E-04   -0.37837E-04  4165   0.145E-02    0.340E-02
RMM:   8    -0.231698692655E+04    0.17332E-04   -0.87933E-05  3387   0.739E-03    0.162E-02
RMM:   9    -0.231698692014E+04    0.64133E-05   -0.25876E-05  2966   0.511E-03
   8 F= -.23374689E+04 E0= -.23374689E+04  d E =-.433174E+00  mag=     2.0000
       N       E                     dE             d eps       ncg     rms          rms(c)
DAV:   1    -0.231700728586E+04   -0.20359E-01   -0.69417E+00  4520   0.170E+00    0.766E-01
RMM:   2    -0.231705212939E+04   -0.44844E-01   -0.52740E-01  5899   0.389E-01    0.516E-01
RMM:   3    -0.231705378583E+04   -0.16564E-02   -0.50630E-02  5838   0.124E-01    0.421E-01
RMM:   4    -0.231705203985E+04    0.17460E-02   -0.82249E-03  5351   0.407E-02    0.253E-01
RMM:   5    -0.231705170171E+04    0.33814E-03   -0.30263E-03  5166   0.293E-02    0.138E-01
RMM:   6    -0.231705143013E+04    0.27158E-03   -0.63075E-04  4731   0.151E-02    0.436E-02
RMM:   7    -0.231705140167E+04    0.28455E-04   -0.10374E-04  3191   0.857E-03    0.192E-02
RMM:   8    -0.231705139728E+04    0.43935E-05   -0.33110E-05  2962   0.451E-03
   9 F= -.23375328E+04 E0= -.23375328E+04  d E =-.496994E+00  mag=     2.0000
       N       E                     dE             d eps       ncg     rms          rms(c)
DAV:   1    -0.231717815180E+04   -0.12675E+00   -0.12824E+01  4496   0.334E+00    0.154E+00
RMM:   2    -0.231731515451E+04   -0.13700E+00   -0.15933E+00  5961   0.689E-01    0.627E-01
RMM:   3    -0.231732556142E+04   -0.10407E-01   -0.19029E-01  5137   0.268E-01    0.673E-01
RMM:   4    -0.231732244561E+04    0.31158E-02   -0.22295E-02  5651   0.731E-02    0.367E-01
RMM:   5    -0.231732080047E+04    0.16451E-02   -0.56304E-03  4723   0.432E-02    0.203E-01
RMM:   6    -0.231732010776E+04    0.69271E-03   -0.16946E-03  5307   0.285E-02    0.896E-02
RMM:   7    -0.231731987657E+04    0.23118E-03   -0.47323E-04  4741   0.183E-02    0.362E-02
RMM:   8    -0.231731980257E+04    0.74008E-04   -0.11644E-04  4198   0.936E-03    0.189E-02
RMM:   9    -0.231731977067E+04    0.31899E-04   -0.53431E-05  3565   0.713E-03    0.104E-02
RMM:  10    -0.231731975817E+04    0.12501E-04   -0.32048E-05  3157   0.589E-03    0.597E-03
RMM:  11    -0.231731975646E+04    0.17099E-05   -0.12350E-05  2835   0.481E-03
  10 F= -.23378009E+04 E0= -.23378009E+04  d E =-.268175E+00  mag=     2.0000
       N       E                     dE             d eps       ncg     rms          rms(c)
DAV:   1    -0.231725520829E+04    0.64550E-01   -0.14810E+01  4480   0.360E+00    0.164E+00
RMM:   2    -0.231741266714E+04   -0.15746E+00   -0.18230E+00  5968   0.731E-01    0.717E-01
RMM:   3    -0.231742755315E+04   -0.14886E-01   -0.23090E-01  5167   0.292E-01    0.884E-01
RMM:   4    -0.231742047074E+04    0.70824E-02   -0.26030E-02  5783   0.786E-02    0.374E-01
RMM:   5    -0.231741890086E+04    0.15699E-02   -0.66444E-03  4805   0.465E-02    0.239E-01
RMM:   6    -0.231741792625E+04    0.97461E-03   -0.21136E-03  5385   0.311E-02    0.102E-01
RMM:   7    -0.231741762124E+04    0.30501E-03   -0.62757E-04  4850   0.204E-02    0.391E-02
RMM:   8    -0.231741752956E+04    0.91679E-04   -0.14259E-04  4267   0.102E-02    0.213E-02
RMM:   9    -0.231741748806E+04    0.41502E-04   -0.67134E-05  3756   0.791E-03    0.116E-02
RMM:  10    -0.231741747205E+04    0.16011E-04   -0.39794E-05  3360   0.625E-03    0.666E-03
RMM:  11    -0.231741747005E+04    0.19967E-05   -0.14177E-05  2860   0.522E-03
  11 F= -.23378985E+04 E0= -.23378985E+04  d E =-.365704E+00  mag=     2.0000
       N       E                     dE             d eps       ncg     rms          rms(c)
DAV:   1    -0.231744513956E+04   -0.27668E-01   -0.89121E+00  4464   0.192E+00    0.963E-01
RMM:   2    -0.231755598525E+04   -0.11085E+00   -0.12604E+00  6071   0.462E-01    0.550E-01
RMM:   3    -0.231756453186E+04   -0.85466E-02   -0.14024E-01  5723   0.176E-01    0.392E-01
RMM:   4    -0.231756521290E+04   -0.68104E-03   -0.17751E-02  5695   0.443E-02    0.378E-01
RMM:   5    -0.231756381099E+04    0.14019E-02   -0.35793E-03  5031   0.252E-02    0.198E-01
RMM:   6    -0.231756334452E+04    0.46648E-03   -0.10934E-03  5019   0.177E-02    0.586E-02
RMM:   7    -0.231756331093E+04    0.33591E-04   -0.21584E-04  3721   0.102E-02    0.225E-02
RMM:   8    -0.231756329732E+04    0.13605E-04   -0.42935E-05  3073   0.547E-03    0.137E-02
RMM:   9    -0.231756329072E+04    0.65997E-05   -0.19093E-05  2895   0.432E-03
  12 F= -.23380444E+04 E0= -.23380444E+04  d E =-.145933E+00  mag=     2.0000
       N       E                     dE             d eps       ncg     rms          rms(c)
DAV:   1    -0.231752716209E+04    0.36135E-01   -0.53014E+00  4448   0.147E+00    0.732E-01
RMM:   2    -0.231759271165E+04   -0.65550E-01   -0.74162E-01  6091   0.353E-01    0.406E-01
RMM:   3    -0.231759793971E+04   -0.52281E-02   -0.82644E-02  5669   0.131E-01    0.298E-01
RMM:   4    -0.231759845881E+04   -0.51910E-03   -0.10446E-02  5434   0.341E-02    0.293E-01
RMM:   5    -0.231759755542E+04    0.90339E-03   -0.20606E-03  4765   0.197E-02    0.137E-01
RMM:   6    -0.231759733292E+04    0.22250E-03   -0.59429E-04  4690   0.141E-02    0.441E-02
RMM:   7    -0.231759730988E+04    0.23037E-04   -0.12359E-04  3325   0.813E-03    0.173E-02
RMM:   8    -0.231759730102E+04    0.88573E-05   -0.27223E-05  2955   0.484E-03
  13 F= -.23380785E+04 E0= -.23380785E+04  d E =-.180064E+00  mag=     2.0000
       N       E                     dE             d eps       ncg     rms          rms(c)
DAV:   1    -0.231759375174E+04    0.35581E-02   -0.52867E+00  4448   0.188E+00    0.888E-01
RMM:   2    -0.231766493536E+04   -0.71184E-01   -0.79857E-01  6004   0.417E-01    0.381E-01
RMM:   3    -0.231766906414E+04   -0.41288E-02   -0.74305E-02  5200   0.168E-01    0.352E-01
RMM:   4    -0.231766939311E+04   -0.32898E-03   -0.10118E-02  5333   0.418E-02    0.285E-01
RMM:   5    -0.231766830363E+04    0.10895E-02   -0.18892E-03  4651   0.251E-02    0.999E-02
RMM:   6    -0.231766820720E+04    0.96428E-04   -0.54338E-04  4825   0.164E-02    0.521E-02
RMM:   7    -0.231766815557E+04    0.51626E-04   -0.14703E-04  4023   0.101E-02    0.226E-02
RMM:   8    -0.231766813610E+04    0.19473E-04   -0.31348E-05  2943   0.496E-03    0.121E-02
RMM:   9    -0.231766812695E+04    0.91558E-05   -0.19191E-05  2893   0.409E-03
  14 F= -.23381494E+04 E0= -.23381494E+04  d E =-.708905E-01  mag=     2.0000
       N       E                     dE             d eps       ncg     rms          rms(c)
DAV:   1    -0.231765641205E+04    0.11724E-01   -0.15098E+00  4496   0.101E+00    0.471E-01
RMM:   2    -0.231767683215E+04   -0.20420E-01   -0.22806E-01  6040   0.222E-01    0.206E-01
RMM:   3    -0.231767804271E+04   -0.12106E-02   -0.20320E-02  5163   0.870E-02    0.221E-01
RMM:   4    -0.231767791466E+04    0.12805E-03   -0.27652E-03  4639   0.223E-02    0.132E-01
RMM:   5    -0.231767765534E+04    0.25931E-03   -0.52930E-04  4320   0.141E-02    0.477E-02
RMM:   6    -0.231767762721E+04    0.28133E-04   -0.11779E-04  3811   0.959E-03    0.211E-02
RMM:   7    -0.231767761909E+04    0.81203E-05   -0.34671E-05  2998   0.566E-03
  15 F= -.23381589E+04 E0= -.23381589E+04  d E =-.804117E-01  mag=     2.0000
       N       E                     dE             d eps       ncg     rms          rms(c)
DAV:   1    -0.231768089265E+04   -0.32654E-02   -0.35880E+00  4432   0.160E+00    0.668E-01
RMM:   2    -0.231771900400E+04   -0.38111E-01   -0.42474E-01  6018   0.328E-01    0.260E-01
RMM:   3    -0.231772104501E+04   -0.20410E-02   -0.39515E-02  5230   0.119E-01    0.157E-01
RMM:   4    -0.231772097475E+04    0.70263E-04   -0.49516E-03  4937   0.337E-02    0.979E-02
RMM:   5    -0.231772085330E+04    0.12146E-03   -0.77187E-04  4582   0.228E-02    0.698E-02
RMM:   6    -0.231772080767E+04    0.45627E-04   -0.20302E-04  4379   0.106E-02    0.541E-02
RMM:   7    -0.231772076499E+04    0.42680E-04   -0.51148E-05  2950   0.639E-03    0.162E-02
RMM:   8    -0.231772075166E+04    0.13332E-04   -0.19042E-05  2869   0.386E-03    0.958E-03
RMM:   9    -0.231772074408E+04    0.75738E-05   -0.13509E-05  2846   0.372E-03
  16 F= -.23382014E+04 E0= -.23382014E+04  d E =-.424311E-01  mag=     2.0000
       N       E                     dE             d eps       ncg     rms          rms(c)
DAV:   1    -0.231770775153E+04    0.13000E-01   -0.20679E+00  4432   0.122E+00    0.506E-01
RMM:   2    -0.231772990073E+04   -0.22149E-01   -0.24716E-01  6015   0.252E-01    0.197E-01
RMM:   3    -0.231773104031E+04   -0.11396E-02   -0.22883E-02  5221   0.889E-02    0.120E-01
RMM:   4    -0.231773098237E+04    0.57940E-04   -0.28734E-03  4881   0.260E-02    0.847E-02
RMM:   5    -0.231773095884E+04    0.23530E-04   -0.55589E-04  4623   0.181E-02    0.884E-02
RMM:   6    -0.231773084990E+04    0.10895E-03   -0.14864E-04  4204   0.853E-03    0.265E-02
RMM:   7    -0.231773083215E+04    0.17751E-04   -0.27765E-05  2926   0.535E-03    0.109E-02
RMM:   8    -0.231773082231E+04    0.98363E-05   -0.15930E-05  2858   0.366E-03
  17 F= -.23382109E+04 E0= -.23382109E+04  d E =-.519780E-01  mag=     2.0000
       N       E                     dE             d eps       ncg     rms          rms(c)
DAV:   1    -0.231771373019E+04    0.17102E-01   -0.42824E+00  4432   0.150E+00    0.646E-01
RMM:   2    -0.231776605897E+04   -0.52329E-01   -0.56471E-01  6165   0.335E-01    0.318E-01
RMM:   3    -0.231776972299E+04   -0.36640E-02   -0.58920E-02  5720   0.117E-01    0.200E-01
RMM:   4    -0.231776983029E+04   -0.10731E-03   -0.63447E-03  5015   0.279E-02    0.152E-01
RMM:   5    -0.231776988208E+04   -0.51786E-04   -0.12419E-03  4490   0.179E-02    0.155E-01
RMM:   6    -0.231776961377E+04    0.26831E-03   -0.42146E-04  4497   0.120E-02    0.308E-02
RMM:   7    -0.231776960606E+04    0.77171E-05   -0.52110E-05  2912   0.659E-03
  18 F= -.23382484E+04 E0= -.23382484E+04  d E =-.374954E-01  mag=     2.0000
       N       E                     dE             d eps       ncg     rms          rms(c)
DAV:   1    -0.231774661523E+04    0.22999E-01   -0.25069E+00  4464   0.114E+00    0.493E-01
RMM:   2    -0.231777730496E+04   -0.30690E-01   -0.33091E-01  6151   0.255E-01    0.243E-01
RMM:   3    -0.231777937060E+04   -0.20656E-02   -0.33808E-02  5685   0.885E-02    0.157E-01
RMM:   4    -0.231777945746E+04   -0.86867E-04   -0.37169E-03  4761   0.216E-02    0.131E-01
RMM:   5    -0.231777941318E+04    0.44284E-04   -0.71749E-04  3861   0.137E-02    0.107E-01
RMM:   6    -0.231777928762E+04    0.12556E-03   -0.23936E-04  4111   0.993E-03    0.210E-02
RMM:   7    -0.231777928362E+04    0.40062E-05   -0.33391E-05  2898   0.611E-03
  19 F= -.23382571E+04 E0= -.23382571E+04  d E =-.462013E-01  mag=     2.0000
       N       E                     dE             d eps       ncg     rms          rms(c)
DAV:   1    -0.231772155745E+04    0.57730E-01   -0.48265E+00  4432   0.171E+00    0.766E-01
RMM:   2    -0.231780432436E+04   -0.82767E-01   -0.88685E-01  6211   0.396E-01    0.389E-01
RMM:   3    -0.231781061565E+04   -0.62913E-02   -0.81841E-02  5793   0.142E-01    0.480E-01
RMM:   4    -0.231780945609E+04    0.11596E-02   -0.10110E-02  5584   0.337E-02    0.205E-01
RMM:   5    -0.231780914429E+04    0.31180E-03   -0.16951E-03  4858   0.182E-02    0.127E-01
RMM:   6    -0.231780898123E+04    0.16306E-03   -0.55783E-04  4549   0.134E-02    0.572E-02
RMM:   7    -0.231780894462E+04    0.36609E-04   -0.13172E-04  3518   0.855E-03    0.203E-02
RMM:   8    -0.231780893920E+04    0.54229E-05   -0.23247E-05  2879   0.526E-03
  20 F= -.23382857E+04 E0= -.23382857E+04  d E =-.285334E-01  mag=     2.0000
       N       E                     dE             d eps       ncg     rms          rms(c)
DAV:   1    -0.231780346909E+04    0.54755E-02   -0.40070E-01  4640   0.492E-01    0.219E-01
RMM:   2    -0.231781031266E+04   -0.68436E-02   -0.73059E-02  6290   0.115E-01    0.114E-01
RMM:   3    -0.231781082516E+04   -0.51249E-03   -0.66027E-03  4818   0.415E-02    0.140E-01
RMM:   4    -0.231781071755E+04    0.10761E-03   -0.80543E-04  3090   0.106E-02    0.575E-02
RMM:   5    -0.231781068866E+04    0.28889E-04   -0.14368E-04  3103   0.659E-03    0.324E-02
RMM:   6    -0.231781067773E+04    0.10930E-04   -0.42083E-05  2907   0.598E-03    0.135E-02
RMM:   7    -0.231781067580E+04    0.19333E-05   -0.12275E-05  2849   0.402E-03
  21 F= -.23382871E+04 E0= -.23382871E+04  d E =-.299474E-01  mag=     2.0000
       N       E                     dE             d eps       ncg     rms          rms(c)
DAV:   1    -0.231781154154E+04   -0.86381E-03   -0.19308E+00  4432   0.126E+00    0.478E-01
RMM:   2    -0.231783081948E+04   -0.19278E-01   -0.21019E-01  6063   0.253E-01    0.268E-01
RMM:   3    -0.231783285725E+04   -0.20378E-02   -0.22539E-02  5569   0.898E-02    0.359E-01
RMM:   4    -0.231783165337E+04    0.12039E-02   -0.26669E-03  5387   0.240E-02    0.108E-01
RMM:   5    -0.231783156335E+04    0.90020E-04   -0.67472E-04  4530   0.157E-02    0.647E-02
RMM:   6    -0.231783150148E+04    0.61868E-04   -0.21977E-04  4299   0.107E-02    0.278E-02
RMM:   7    -0.231783148692E+04    0.14559E-04   -0.38988E-05  3058   0.668E-03    0.127E-02
RMM:   8    -0.231783148218E+04    0.47377E-05   -0.11091E-05  2856   0.376E-03
  22 F= -.23383075E+04 E0= -.23383075E+04  d E =-.204003E-01  mag=     2.0000
       N       E                     dE             d eps       ncg     rms          rms(c)
DAV:   1    -0.231781318468E+04    0.18302E-01   -0.26102E+00  4420   0.146E+00    0.554E-01
RMM:   2    -0.231783910612E+04   -0.25921E-01   -0.28261E-01  6059   0.294E-01    0.313E-01
RMM:   3    -0.231784184806E+04   -0.27419E-02   -0.30106E-02  5604   0.102E-01    0.418E-01
RMM:   4    -0.231784022022E+04    0.16278E-02   -0.35827E-03  5540   0.277E-02    0.126E-01
RMM:   5    -0.231784009319E+04    0.12703E-03   -0.92285E-04  4633   0.181E-02    0.781E-02
RMM:   6    -0.231783999638E+04    0.96811E-04   -0.31150E-04  4593   0.121E-02    0.326E-02
RMM:   7    -0.231783997439E+04    0.21989E-04   -0.53234E-05  3277   0.752E-03    0.150E-02
RMM:   8    -0.231783996669E+04    0.76976E-05   -0.15183E-05  2869   0.413E-03
  23 F= -.23383155E+04 E0= -.23383155E+04  d E =-.284175E-01  mag=     2.0000
       N       E                     dE             d eps       ncg     rms          rms(c)
DAV:   1    -0.231784887553E+04   -0.89011E-02   -0.78292E-01  4512   0.727E-01    0.254E-01
RMM:   2    -0.231785476250E+04   -0.58870E-02   -0.63709E-02  5994   0.143E-01    0.181E-01
RMM:   3    -0.231785523467E+04   -0.47216E-03   -0.64742E-03  5304   0.486E-02    0.191E-01
RMM:   4    -0.231785491372E+04    0.32094E-03   -0.83908E-04  4045   0.138E-02    0.712E-02
RMM:   5    -0.231785489638E+04    0.17344E-04   -0.23430E-04  3625   0.941E-03    0.426E-02
RMM:   6    -0.231785487406E+04    0.22316E-04   -0.89103E-05  3123   0.739E-03    0.149E-02
RMM:   7    -0.231785487188E+04    0.21805E-05   -0.13780E-05  2869   0.498E-03
  24 F= -.23383303E+04 E0= -.23383303E+04  d E =-.147822E-01  mag=     2.0000
       N       E                     dE             d eps       ncg     rms          rms(c)
DAV:   1    -0.231781922841E+04    0.35646E-01   -0.70281E+00  4408   0.219E+00    0.766E-01
RMM:   2    -0.231787261691E+04   -0.53389E-01   -0.57737E-01  5984   0.431E-01    0.558E-01
RMM:   3    -0.231787664015E+04   -0.40232E-02   -0.61216E-02  5780   0.146E-01    0.551E-01
RMM:   4    -0.231787405116E+04    0.25890E-02   -0.76115E-03  5608   0.392E-02    0.219E-01
RMM:   5    -0.231787385473E+04    0.19643E-03   -0.20458E-03  4992   0.250E-02    0.133E-01
RMM:   6    -0.231787363618E+04    0.21855E-03   -0.82528E-04  5031   0.170E-02    0.478E-02
RMM:   7    -0.231787360274E+04    0.33436E-04   -0.90199E-05  3413   0.916E-03    0.218E-02
RMM:   8    -0.231787359152E+04    0.11227E-04   -0.31539E-05  2943   0.436E-03    0.105E-02
RMM:   9    -0.231787358707E+04    0.44483E-05   -0.10985E-05  2856   0.352E-03
  25 F= -.23383487E+04 E0= -.23383487E+04  d E =-.331773E-01  mag=     2.0000
       N       E                     dE             d eps       ncg     rms          rms(c)
DAV:   1    -0.231786779173E+04    0.57998E-02   -0.15422E+00  4512   0.102E+00    0.401E-01
RMM:   2    -0.231788885747E+04   -0.21066E-01   -0.21713E-01  6103   0.215E-01    0.358E-01
RMM:   3    -0.231788973453E+04   -0.87707E-03   -0.22379E-02  5682   0.761E-02    0.263E-01
RMM:   4    -0.231788922775E+04    0.50678E-03   -0.25054E-03  4812   0.191E-02    0.107E-01
RMM:   5    -0.231788913573E+04    0.92020E-04   -0.45698E-04  4278   0.128E-02    0.547E-02
RMM:   6    -0.231788912317E+04    0.12555E-04   -0.15362E-04  3578   0.873E-03    0.310E-02
RMM:   7    -0.231788911066E+04    0.12515E-04   -0.30901E-05  2880   0.567E-03    0.116E-02
RMM:   8    -0.231788910887E+04    0.17822E-05   -0.92732E-06  2858   0.295E-03
  26 F= -.23383643E+04 E0= -.23383643E+04  d E =-.156549E-01  mag=     2.0000
       N       E                     dE             d eps       ncg     rms          rms(c)
DAV:   1    -0.231784454120E+04    0.44569E-01   -0.38905E+00  4408   0.162E+00    0.638E-01
RMM:   2    -0.231789792353E+04   -0.53382E-01   -0.54933E-01  6100   0.338E-01    0.581E-01
RMM:   3    -0.231790000686E+04   -0.20833E-02   -0.57209E-02  5800   0.119E-01    0.415E-01
RMM:   4    -0.231789878003E+04    0.12268E-02   -0.62940E-03  5216   0.298E-02    0.169E-01
RMM:   5    -0.231789853202E+04    0.24800E-03   -0.11542E-03  4897   0.196E-02    0.822E-02
RMM:   6    -0.231789852785E+04    0.41721E-05   -0.36656E-04  4590   0.121E-02    0.525E-02
RMM:   7    -0.231789849060E+04    0.37253E-04   -0.84373E-05  2988   0.686E-03    0.195E-02
RMM:   8    -0.231789848430E+04    0.63017E-05   -0.20987E-05  2873   0.381E-03
  27 F= -.23383740E+04 E0= -.23383740E+04  d E =-.252821E-01  mag=     2.0000
       N       E                     dE             d eps       ncg     rms          rms(c)
DAV:   1    -0.231788674955E+04    0.11741E-01   -0.20688E+00  4512   0.112E+00    0.459E-01
RMM:   2    -0.231791551628E+04   -0.28767E-01   -0.29582E-01  6030   0.231E-01    0.402E-01
RMM:   3    -0.231791705962E+04   -0.15433E-02   -0.33400E-02  5760   0.852E-02    0.286E-01
RMM:   4    -0.231791648486E+04    0.57475E-03   -0.35598E-03  4881   0.206E-02    0.131E-01
RMM:   5    -0.231791630629E+04    0.17857E-03   -0.74078E-04  4566   0.145E-02    0.650E-02
RMM:   6    -0.231791630412E+04    0.21702E-05   -0.24179E-04  4194   0.998E-03    0.432E-02
RMM:   7    -0.231791627810E+04    0.26030E-04   -0.55899E-05  2934   0.629E-03    0.166E-02
RMM:   8    -0.231791627276E+04    0.53334E-05   -0.16521E-05  2863   0.350E-03
  28 F= -.23383921E+04 E0= -.23383921E+04  d E =-.181080E-01  mag=     2.0000
       N       E                     dE             d eps       ncg     rms          rms(c)
DAV:   1    -0.231779120618E+04    0.12507E+00   -0.97608E+00  4408   0.244E+00    0.100E+00
RMM:   2    -0.231792927836E+04   -0.13807E+00   -0.14155E+00  6017   0.505E-01    0.916E-01
RMM:   3    -0.231793456157E+04   -0.52832E-02   -0.15909E-01  5880   0.186E-01    0.597E-01
RMM:   4    -0.231793223793E+04    0.23236E-02   -0.16722E-02  5361   0.438E-02    0.281E-01
RMM:   5    -0.231793127579E+04    0.96215E-03   -0.33353E-03  5230   0.299E-02    0.128E-01
RMM:   6    -0.231793127383E+04    0.19567E-05   -0.94152E-04  4938   0.185E-02    0.833E-02
RMM:   7    -0.231793119525E+04    0.78581E-04   -0.24674E-04  3638   0.978E-03    0.396E-02
RMM:   8    -0.231793116277E+04    0.32475E-04   -0.60237E-05  2911   0.576E-03    0.218E-02
RMM:   9    -0.231793115159E+04    0.11185E-04   -0.35713E-05  2851   0.449E-03    0.750E-03
RMM:  10    -0.231793115036E+04    0.12331E-05   -0.11900E-05  2848   0.377E-03
  29 F= -.23384077E+04 E0= -.23384077E+04  d E =-.337825E-01  mag=     2.0000
       N       E                     dE             d eps       ncg     rms          rms(c)
DAV:   1    -0.231790925013E+04    0.21901E-01   -0.31944E+00  4456   0.135E+00    0.544E-01
RMM:   2    -0.231794839042E+04   -0.39140E-01   -0.40795E-01  6003   0.270E-01    0.430E-01
RMM:   3    -0.231795090008E+04   -0.25097E-02   -0.46583E-02  5746   0.105E-01    0.331E-01
RMM:   4    -0.231795014207E+04    0.75801E-03   -0.52097E-03  5119   0.249E-02    0.166E-01
RMM:   5    -0.231794986173E+04    0.28034E-03   -0.11146E-03  4719   0.167E-02    0.823E-02
RMM:   6    -0.231794985022E+04    0.11511E-04   -0.42110E-04  4426   0.127E-02    0.477E-02
RMM:   7    -0.231794981734E+04    0.32880E-04   -0.69900E-05  2935   0.722E-03    0.170E-02
RMM:   8    -0.231794981273E+04    0.46069E-05   -0.22732E-05  2886   0.356E-03
  30 F= -.23384270E+04 E0= -.23384270E+04  d E =-.193057E-01  mag=     2.0000
       N       E                     dE             d eps       ncg     rms          rms(c)
DAV:   1    -0.231788600608E+04    0.63811E-01   -0.57227E+00  4432   0.181E+00    0.730E-01
RMM:   2    -0.231795682929E+04   -0.70823E-01   -0.73784E-01  6018   0.366E-01    0.587E-01
RMM:   3    -0.231796103890E+04   -0.42096E-02   -0.83911E-02  5809   0.139E-01    0.444E-01
RMM:   4    -0.231795969823E+04    0.13407E-02   -0.93747E-03  5359   0.333E-02    0.223E-01
RMM:   5    -0.231795917976E+04    0.51847E-03   -0.20303E-03  5063   0.219E-02    0.112E-01
RMM:   6    -0.231795914716E+04    0.32599E-04   -0.77356E-04  4842   0.164E-02    0.638E-02
RMM:   7    -0.231795908614E+04    0.61018E-04   -0.12432E-04  3210   0.883E-03    0.223E-02
RMM:   8    -0.231795907669E+04    0.94480E-05   -0.42169E-05  2915   0.436E-03
  31 F= -.23384372E+04 E0= -.23384372E+04  d E =-.294901E-01  mag=     2.0000
       N       E                     dE             d eps       ncg     rms          rms(c)
DAV:   1    -0.231794052340E+04    0.18563E-01   -0.40382E+00  4424   0.145E+00    0.594E-01
RMM:   2    -0.231798324882E+04   -0.42725E-01   -0.44148E-01  5977   0.297E-01    0.566E-01
RMM:   3    -0.231798316613E+04    0.82692E-04   -0.48051E-02  5847   0.106E-01    0.364E-01
RMM:   4    -0.231798236473E+04    0.80140E-03   -0.62691E-03  5069   0.276E-02    0.193E-01
RMM:   5    -0.231798203326E+04    0.33147E-03   -0.11913E-03  4606   0.159E-02    0.118E-01
RMM:   6    -0.231798193660E+04    0.96661E-04   -0.66097E-04  4639   0.154E-02    0.520E-02
RMM:   7    -0.231798190160E+04    0.34995E-04   -0.70746E-05  2925   0.807E-03    0.202E-02
RMM:   8    -0.231798189495E+04    0.66564E-05   -0.28166E-05  2850   0.382E-03
  32 F= -.23384612E+04 E0= -.23384612E+04  d E =-.239722E-01  mag=     2.0000
       N       E                     dE             d eps       ncg     rms          rms(c)
DAV:   1    -0.231790971465E+04    0.72187E-01   -0.80829E+00  4408   0.206E+00    0.847E-01
RMM:   2    -0.231799710281E+04   -0.87388E-01   -0.89474E-01  5973   0.426E-01    0.860E-01
RMM:   3    -0.231799550595E+04    0.15969E-02   -0.95855E-02  5903   0.151E-01    0.522E-01
RMM:   4    -0.231799387128E+04    0.16347E-02   -0.12709E-02  5385   0.393E-02    0.275E-01
RMM:   5    -0.231799319242E+04    0.67886E-03   -0.24274E-03  5000   0.218E-02    0.171E-01
RMM:   6    -0.231799297204E+04    0.22038E-03   -0.13813E-03  4982   0.213E-02    0.757E-02
RMM:   7    -0.231799289850E+04    0.73540E-04   -0.14560E-04  3481   0.106E-02    0.302E-02
RMM:   8    -0.231799288250E+04    0.15997E-04   -0.54532E-05  2872   0.459E-03    0.123E-02
RMM:   9    -0.231799288104E+04    0.14637E-05   -0.14762E-05  2863   0.298E-03
  33 F= -.23384739E+04 E0= -.23384739E+04  d E =-.366562E-01  mag=     2.0000
       N       E                     dE             d eps       ncg     rms          rms(c)
DAV:   1    -0.231792429453E+04    0.68588E-01   -0.71069E+00  4440   0.202E+00    0.842E-01
RMM:   2    -0.231801358325E+04   -0.89289E-01   -0.90904E-01  6096   0.428E-01    0.841E-01
RMM:   3    -0.231801298482E+04    0.59843E-03   -0.98854E-02  5892   0.155E-01    0.509E-01
RMM:   4    -0.231801110415E+04    0.18807E-02   -0.12588E-02  5479   0.403E-02    0.259E-01
RMM:   5    -0.231801037883E+04    0.72532E-03   -0.23443E-03  4980   0.218E-02    0.158E-01
RMM:   6    -0.231801014825E+04    0.23059E-03   -0.16080E-03  5003   0.225E-02    0.716E-02
RMM:   7    -0.231801006763E+04    0.80621E-04   -0.17084E-04  3928   0.120E-02    0.287E-02
RMM:   8    -0.231801004999E+04    0.17633E-04   -0.64099E-05  2928   0.460E-03    0.128E-02
RMM:   9    -0.231801004707E+04    0.29286E-05   -0.14644E-05  2862   0.312E-03
  34 F= -.23384931E+04 E0= -.23384931E+04  d E =-.192325E-01  mag=     2.0000
       N       E                     dE             d eps       ncg     rms          rms(c)
DAV:   1    -0.231800061503E+04    0.94350E-02   -0.84484E-01  4592   0.697E-01    0.286E-01
RMM:   2    -0.231801078522E+04   -0.10170E-01   -0.10452E-01  6115   0.146E-01    0.266E-01
RMM:   3    -0.231801099528E+04   -0.21007E-03   -0.11526E-02  5552   0.534E-02    0.177E-01
RMM:   4    -0.231801075946E+04    0.23582E-03   -0.14221E-03  3728   0.142E-02    0.884E-02
RMM:   5    -0.231801067578E+04    0.83679E-04   -0.28069E-04  3563   0.879E-03    0.530E-02
RMM:   6    -0.231801064947E+04    0.26317E-04   -0.18873E-04  3910   0.919E-03    0.237E-02
RMM:   7    -0.231801063983E+04    0.96376E-05   -0.20987E-05  2854   0.566E-03
  35 F= -.23384944E+04 E0= -.23384944E+04  d E =-.205510E-01  mag=     2.0000
       N       E                     dE             d eps       ncg     rms          rms(c)
DAV:   1    -0.231794958621E+04    0.61063E-01   -0.46178E+00  4408   0.158E+00    0.714E-01
RMM:   2    -0.231802707140E+04   -0.77485E-01   -0.76230E-01  6109   0.351E-01    0.878E-01
RMM:   3    -0.231802366027E+04    0.34111E-02   -0.84646E-02  5908   0.133E-01    0.366E-01
RMM:   4    -0.231802301778E+04    0.64249E-03   -0.10341E-02  5167   0.329E-02    0.200E-01
RMM:   5    -0.231802254393E+04    0.47384E-03   -0.12403E-03  4896   0.178E-02    0.141E-01
RMM:   6    -0.231802233443E+04    0.20951E-03   -0.13506E-03  4989   0.189E-02    0.667E-02
RMM:   7    -0.231802227610E+04    0.58328E-04   -0.16421E-04  3317   0.109E-02    0.265E-02
RMM:   8    -0.231802226235E+04    0.13748E-04   -0.32738E-05  2868   0.403E-03    0.129E-02
RMM:   9    -0.231802225830E+04    0.40469E-05   -0.17072E-05  2854   0.284E-03
  36 F= -.23385080E+04 E0= -.23385080E+04  d E =-.135780E-01  mag=     2.0000
       N       E                     dE             d eps       ncg     rms          rms(c)
DAV:   1    -0.231799844442E+04    0.23818E-01   -0.15959E+00  4464   0.930E-01    0.416E-01
RMM:   2    -0.231802448984E+04   -0.26045E-01   -0.25801E-01  6111   0.205E-01    0.488E-01
RMM:   3    -0.231802378600E+04    0.70384E-03   -0.28968E-02  5788   0.775E-02    0.216E-01
RMM:   4    -0.231802354077E+04    0.24523E-03   -0.34575E-03  4647   0.193E-02    0.116E-01
RMM:   5    -0.231802337834E+04    0.16243E-03   -0.42170E-04  4088   0.112E-02    0.805E-02
RMM:   6    -0.231802331044E+04    0.67901E-04   -0.44640E-04  4313   0.119E-02    0.379E-02
RMM:   7    -0.231802329077E+04    0.19674E-04   -0.54366E-05  2878   0.766E-03    0.147E-02
RMM:   8    -0.231802328617E+04    0.45953E-05   -0.13405E-05  2842   0.312E-03
  37 F= -.23385102E+04 E0= -.23385102E+04  d E =-.157701E-01  mag=     2.0000
       N       E                     dE             d eps       ncg     rms          rms(c)
DAV:   1    -0.231794034763E+04    0.82943E-01   -0.50103E+00  4408   0.156E+00    0.746E-01
RMM:   2    -0.231804107909E+04   -0.10073E+00   -0.97636E-01  6262   0.367E-01    0.102E+00
RMM:   3    -0.231803556477E+04    0.55143E-02   -0.10745E-01  5907   0.139E-01    0.370E-01
RMM:   4    -0.231803526831E+04    0.29647E-03   -0.12567E-02  5047   0.323E-02    0.214E-01
RMM:   5    -0.231803478885E+04    0.47945E-03   -0.11845E-03  4681   0.153E-02    0.165E-01
RMM:   6    -0.231803450623E+04    0.28262E-03   -0.15860E-03  4842   0.184E-02    0.784E-02
RMM:   7    -0.231803443878E+04    0.67453E-04   -0.24457E-04  3111   0.104E-02    0.313E-02
RMM:   8    -0.231803442291E+04    0.15861E-04   -0.30523E-05  2850   0.406E-03    0.155E-02
RMM:   9    -0.231803441827E+04    0.46483E-05   -0.21842E-05  2863   0.275E-03
  38 F= -.23385235E+04 E0= -.23385235E+04  d E =-.132922E-01  mag=     2.0000
       N       E                     dE             d eps       ncg     rms          rms(c)
DAV:   1    -0.231795469572E+04    0.79727E-01   -0.43591E+00  4408   0.145E+00    0.693E-01
RMM:   2    -0.231804168715E+04   -0.86991E-01   -0.84649E-01  6263   0.342E-01    0.933E-01
RMM:   3    -0.231803745806E+04    0.42291E-02   -0.93118E-02  5907   0.130E-01    0.347E-01
RMM:   4    -0.231803718035E+04    0.27771E-03   -0.10787E-02  4982   0.298E-02    0.199E-01
RMM:   5    -0.231803676551E+04    0.41484E-03   -0.10466E-03  4558   0.144E-02    0.153E-01
RMM:   6    -0.231803651358E+04    0.25193E-03   -0.13683E-03  4765   0.173E-02    0.721E-02
RMM:   7    -0.231803645649E+04    0.57084E-04   -0.20983E-04  3050   0.972E-03    0.290E-02
RMM:   8    -0.231803644254E+04    0.13954E-04   -0.27848E-05  2849   0.399E-03    0.145E-02
RMM:   9    -0.231803643795E+04    0.45865E-05   -0.19640E-05  2859   0.275E-03
  39 F= -.23385276E+04 E0= -.23385276E+04  d E =-.173519E-01  mag=     2.0000
       N       E                     dE             d eps       ncg     rms          rms(c)
DAV:   1    -0.231793803453E+04    0.98408E-01   -0.57792E+00  4408   0.171E+00    0.798E-01
RMM:   2    -0.231805100086E+04   -0.11297E+00   -0.11233E+00  6242   0.401E-01    0.973E-01
RMM:   3    -0.231804940768E+04    0.15932E-02   -0.12316E-01  5999   0.151E-01    0.428E-01
RMM:   4    -0.231804851645E+04    0.89123E-03   -0.13622E-02  5194   0.344E-02    0.232E-01
RMM:   5    -0.231804792629E+04    0.59016E-03   -0.14780E-03  4779   0.170E-02    0.174E-01
RMM:   6    -0.231804763320E+04    0.29309E-03   -0.17956E-03  5027   0.202E-02    0.734E-02
RMM:   7    -0.231804756651E+04    0.66688E-04   -0.21181E-04  3176   0.978E-03    0.306E-02
RMM:   8    -0.231804754828E+04    0.18232E-04   -0.44101E-05  2872   0.469E-03    0.158E-02
RMM:   9    -0.231804754328E+04    0.49992E-05   -0.22318E-05  2869   0.317E-03
  40 F= -.23385409E+04 E0= -.23385409E+04  d E =-.133232E-01  mag=     2.0000
       N       E                     dE             d eps       ncg     rms          rms(c)
DAV:   1    -0.231797752311E+04    0.70025E-01   -0.37781E+00  4420   0.139E+00    0.644E-01
RMM:   2    -0.231805100503E+04   -0.73482E-01   -0.73225E-01  6215   0.325E-01    0.772E-01
RMM:   3    -0.231805030441E+04    0.70062E-03   -0.79733E-02  5963   0.121E-01    0.343E-01
RMM:   4    -0.231804973168E+04    0.57273E-03   -0.88392E-03  4960   0.277E-02    0.186E-01
RMM:   5    -0.231804932819E+04    0.40349E-03   -0.95440E-04  4527   0.142E-02    0.136E-01
RMM:   6    -0.231804916108E+04    0.16711E-03   -0.10952E-03  4673   0.166E-02    0.578E-02
RMM:   7    -0.231804911643E+04    0.44656E-04   -0.12883E-04  2965   0.828E-03    0.244E-02
RMM:   8    -0.231804910532E+04    0.11104E-04   -0.29613E-05  2863   0.427E-03    0.127E-02
RMM:   9    -0.231804910222E+04    0.30991E-05   -0.14842E-05  2867   0.283E-03
  41 F= -.23385442E+04 E0= -.23385442E+04  d E =-.166842E-01  mag=     2.0000
       N       E                     dE             d eps       ncg     rms          rms(c)
DAV:   1    -0.231793976494E+04    0.10934E+00   -0.63448E+00  4408   0.196E+00    0.850E-01
RMM:   2    -0.231806123284E+04   -0.12147E+00   -0.12284E+00  6158   0.445E-01    0.100E+00
RMM:   3    -0.231806095651E+04    0.27633E-03   -0.13742E-01  5877   0.172E-01    0.484E-01
RMM:   4    -0.231805947023E+04    0.14863E-02   -0.14516E-02  5311   0.387E-02    0.241E-01
RMM:   5    -0.231805874548E+04    0.72475E-03   -0.18377E-03  4925   0.203E-02    0.173E-01
RMM:   6    -0.231805845600E+04    0.28948E-03   -0.18152E-03  5125   0.226E-02    0.746E-02
RMM:   7    -0.231805837930E+04    0.76702E-04   -0.19754E-04  3765   0.111E-02    0.316E-02
RMM:   8    -0.231805835426E+04    0.25041E-04   -0.57791E-05  2889   0.508E-03    0.147E-02
RMM:   9    -0.231805834843E+04    0.58275E-05   -0.25046E-05  2872   0.360E-03
  42 F= -.23385557E+04 E0= -.23385557E+04  d E =-.114153E-01  mag=     2.0000
       N       E                     dE             d eps       ncg     rms          rms(c)
DAV:   1    -0.231804801091E+04    0.10343E-01   -0.55853E-01  4560   0.582E-01    0.251E-01
RMM:   2    -0.231805855995E+04   -0.10549E-01   -0.10660E-01  6158   0.131E-01    0.290E-01
RMM:   3    -0.231805851943E+04    0.40518E-04   -0.11282E-02  5365   0.499E-02    0.134E-01
RMM:   4    -0.231805840748E+04    0.11194E-03   -0.12006E-03  3252   0.114E-02    0.696E-02
RMM:   5    -0.231805833795E+04    0.69534E-04   -0.17079E-04  3537   0.756E-03    0.437E-02
RMM:   6    -0.231805832479E+04    0.13163E-04   -0.10390E-04  2973   0.766E-03    0.197E-02
RMM:   7    -0.231805831803E+04    0.67559E-05   -0.17700E-05  2852   0.496E-03
  43 F= -.23385563E+04 E0= -.23385563E+04  d E =-.120249E-01  mag=     2.0000
       N       E                     dE             d eps       ncg     rms          rms(c)
DAV:   1    -0.231799877154E+04    0.59553E-01   -0.33566E+00  4440   0.150E+00    0.613E-01
RMM:   2    -0.231806636428E+04   -0.67593E-01   -0.69072E-01  6166   0.337E-01    0.733E-01
RMM:   3    -0.231806611874E+04    0.24555E-03   -0.70464E-02  5719   0.128E-01    0.357E-01
RMM:   4    -0.231806533155E+04    0.78719E-03   -0.77196E-03  5073   0.286E-02    0.172E-01
RMM:   5    -0.231806495658E+04    0.37498E-03   -0.97514E-04  4660   0.156E-02    0.118E-01
RMM:   6    -0.231806483497E+04    0.12161E-03   -0.82245E-04  4554   0.158E-02    0.532E-02
RMM:   7    -0.231806479675E+04    0.38220E-04   -0.10302E-04  3123   0.856E-03    0.216E-02
RMM:   8    -0.231806478677E+04    0.99745E-05   -0.26972E-05  2854   0.430E-03
  44 F= -.23385643E+04 E0= -.23385643E+04  d E =-.800514E-02  mag=     2.0000
       N       E                     dE             d eps       ncg     rms          rms(c)
DAV:   1    -0.231806002052E+04    0.47762E-02   -0.24303E-01  4664   0.403E-01    0.166E-01
RMM:   2    -0.231806494344E+04   -0.49229E-02   -0.49713E-02  6174   0.911E-02    0.206E-01
RMM:   3    -0.231806483172E+04    0.11172E-03   -0.47901E-03  4449   0.344E-02    0.873E-02
RMM:   4    -0.231806478909E+04    0.42627E-04   -0.54455E-04  3000   0.829E-03    0.456E-02
RMM:   5    -0.231806475902E+04    0.30066E-04   -0.75306E-05  2991   0.531E-03    0.294E-02
RMM:   6    -0.231806475374E+04    0.52852E-05   -0.47837E-05  2874   0.563E-03
  45 F= -.23385646E+04 E0= -.23385646E+04  d E =-.838118E-02  mag=     2.0000
       N       E                     dE             d eps       ncg     rms          rms(c)
DAV:   1    -0.231801958734E+04    0.45172E-01   -0.27554E+00  4408   0.139E+00    0.517E-01
RMM:   2    -0.231806899029E+04   -0.49403E-01   -0.52707E-01  6060   0.294E-01    0.458E-01
RMM:   3    -0.231807182407E+04   -0.28338E-02   -0.50915E-02  5726   0.107E-01    0.336E-01
RMM:   4    -0.231807101225E+04    0.81182E-03   -0.58186E-03  5200   0.254E-02    0.161E-01
RMM:   5    -0.231807062369E+04    0.38856E-03   -0.88997E-04  4552   0.153E-02    0.813E-02
RMM:   6    -0.231807060109E+04    0.22604E-04   -0.49488E-04  4436   0.134E-02    0.428E-02
RMM:   7    -0.231807057490E+04    0.26183E-04   -0.56525E-05  2913   0.767E-03    0.171E-02
RMM:   8    -0.231807056828E+04    0.66229E-05   -0.25949E-05  2875   0.368E-03
  46 F= -.23385717E+04 E0= -.23385717E+04  d E =-.701354E-02  mag=     2.0000
       N       E                     dE             d eps       ncg     rms          rms(c)
DAV:   1    -0.231805991917E+04    0.10656E-01   -0.58316E-01  4512   0.640E-01    0.237E-01
RMM:   2    -0.231807035392E+04   -0.10435E-01   -0.11096E-01  6124   0.136E-01    0.212E-01
RMM:   3    -0.231807090895E+04   -0.55502E-03   -0.10602E-02  5320   0.491E-02    0.148E-01
RMM:   4    -0.231807075376E+04    0.15519E-03   -0.12065E-03  3313   0.119E-02    0.735E-02
RMM:   5    -0.231807067123E+04    0.82524E-04   -0.19487E-04  3471   0.808E-03    0.351E-02
RMM:   6    -0.231807066723E+04    0.40043E-05   -0.84493E-05  3148   0.719E-03
  47 F= -.23385723E+04 E0= -.23385723E+04  d E =-.765138E-02  mag=     2.0000
       N       E                     dE             d eps       ncg     rms          rms(c)
DAV:   1    -0.231804315717E+04    0.27514E-01   -0.16368E+00  4416   0.107E+00    0.390E-01
RMM:   2    -0.231807456047E+04   -0.31403E-01   -0.33906E-01  6075   0.225E-01    0.288E-01
RMM:   3    -0.231807693785E+04   -0.23774E-02   -0.31612E-02  5621   0.861E-02    0.258E-01
RMM:   4    -0.231807654595E+04    0.39190E-03   -0.36929E-03  4182   0.192E-02    0.125E-01
RMM:   5    -0.231807632875E+04    0.21720E-03   -0.46049E-04  3861   0.106E-02    0.683E-02
RMM:   6    -0.231807630463E+04    0.24121E-04   -0.32216E-04  4059   0.106E-02    0.337E-02
RMM:   7    -0.231807629009E+04    0.14547E-04   -0.32756E-05  2872   0.634E-03    0.126E-02
RMM:   8    -0.231807628708E+04    0.30034E-05   -0.15268E-05  2857   0.299E-03
  48 F= -.23385787E+04 E0= -.23385787E+04  d E =-.639105E-02  mag=     2.0000
       N       E                     dE             d eps       ncg     rms          rms(c)
DAV:   1    -0.231780452192E+04    0.27177E+00   -0.13497E+01  4416   0.306E+00    0.112E+00
RMM:   2    -0.231806564626E+04   -0.26112E+00   -0.28235E+00  6163   0.658E-01    0.816E-01
RMM:   3    -0.231808879630E+04   -0.23150E-01   -0.29639E-01  5798   0.252E-01    0.783E-01
RMM:   4    -0.231808507839E+04    0.37179E-02   -0.31552E-02  5962   0.560E-02    0.366E-01
RMM:   5    -0.231808325865E+04    0.18197E-02   -0.36215E-03  4839   0.254E-02    0.222E-01
RMM:   6    -0.231808289091E+04    0.36774E-03   -0.34267E-03  5052   0.287E-02    0.129E-01
RMM:   7    -0.231808275740E+04    0.13351E-03   -0.52944E-04  4750   0.163E-02    0.702E-02
RMM:   8    -0.231808265940E+04    0.98000E-04   -0.16953E-04  2987   0.677E-03    0.308E-02
RMM:   9    -0.231808264356E+04    0.15842E-04   -0.82246E-05  2900   0.452E-03    0.111E-02
RMM:  10    -0.231808264240E+04    0.11613E-05   -0.14169E-05  2871   0.348E-03
  49 F= -.23385871E+04 E0= -.23385871E+04  d E =-.148171E-01  mag=     2.0000
       N       E                     dE             d eps       ncg     rms          rms(c)
DAV:   1    -0.231804195092E+04    0.40693E-01   -0.22859E+00  4488   0.125E+00    0.470E-01
RMM:   2    -0.231808666947E+04   -0.44719E-01   -0.48642E-01  6146   0.270E-01    0.301E-01
RMM:   3    -0.231809076246E+04   -0.40930E-02   -0.50457E-02  5584   0.114E-01    0.291E-01
RMM:   4    -0.231809042765E+04    0.33481E-03   -0.54996E-03  4644   0.229E-02    0.154E-01
RMM:   5    -0.231809010259E+04    0.32506E-03   -0.61413E-04  4125   0.121E-02    0.861E-02
RMM:   6    -0.231809004755E+04    0.55032E-04   -0.48497E-04  4303   0.126E-02    0.404E-02
RMM:   7    -0.231809002697E+04    0.20581E-04   -0.52913E-05  2931   0.748E-03    0.174E-02
RMM:   8    -0.231809002175E+04    0.52257E-05   -0.26198E-05  2838   0.383E-03
  50 F= -.23385952E+04 E0= -.23385952E+04  d E =-.812259E-02  mag=     2.0000
       N       E                     dE             d eps       ncg     rms          rms(c)
DAV:   1    -0.231799891436E+04    0.91113E-01   -0.44967E+00  4448   0.176E+00    0.662E-01
RMM:   2    -0.231808708165E+04   -0.88167E-01   -0.95986E-01  6132   0.381E-01    0.428E-01
RMM:   3    -0.231809553788E+04   -0.84562E-02   -0.10403E-01  5616   0.163E-01    0.422E-01
RMM:   4    -0.231809478759E+04    0.75028E-03   -0.10941E-02  5453   0.325E-02    0.217E-01
RMM:   5    -0.231809416056E+04    0.62703E-03   -0.12763E-03  4482   0.158E-02    0.126E-01
RMM:   6    -0.231809403228E+04    0.12829E-03   -0.10628E-03  4880   0.172E-02    0.623E-02
RMM:   7    -0.231809398942E+04    0.42857E-04   -0.12199E-04  3330   0.920E-03    0.323E-02
RMM:   8    -0.231809396849E+04    0.20930E-04   -0.54557E-05  2852   0.490E-03    0.148E-02
RMM:   9    -0.231809396462E+04    0.38697E-05   -0.18282E-05  2867   0.284E-03
  51 F= -.23386002E+04 E0= -.23386002E+04  d E =-.130496E-01  mag=     2.0000
       N       E                     dE             d eps       ncg     rms          rms(c)
DAV:   1    -0.231806511897E+04    0.28850E-01   -0.16455E+00  4512   0.105E+00    0.399E-01
RMM:   2    -0.231809726274E+04   -0.32144E-01   -0.35188E-01  6146   0.226E-01    0.212E-01
RMM:   3    -0.231810016041E+04   -0.28977E-02   -0.36905E-02  5575   0.890E-02    0.143E-01
RMM:   4    -0.231810035488E+04   -0.19447E-03   -0.38610E-03  4102   0.186E-02    0.131E-01
RMM:   5    -0.231810019856E+04    0.15632E-03   -0.39285E-04  3350   0.993E-03    0.882E-02
RMM:   6    -0.231810013492E+04    0.63646E-04   -0.31002E-04  4113   0.955E-03    0.378E-02
RMM:   7    -0.231810012362E+04    0.11293E-04   -0.63582E-05  2924   0.694E-03    0.205E-02
RMM:   8    -0.231810011505E+04    0.85699E-05   -0.18752E-05  2855   0.352E-03
  52 F= -.23386067E+04 E0= -.23386067E+04  d E =-.657194E-02  mag=     2.0000
       N       E                     dE             d eps       ncg     rms          rms(c)
DAV:   1    -0.231799686712E+04    0.10326E+00   -0.50043E+00  4448   0.183E+00    0.698E-01
RMM:   2    -0.231809490198E+04   -0.98035E-01   -0.10745E+00  6143   0.397E-01    0.376E-01
RMM:   3    -0.231810426526E+04   -0.93633E-02   -0.11902E-01  5723   0.156E-01    0.270E-01
RMM:   4    -0.231810473868E+04   -0.47342E-03   -0.11916E-02  5110   0.318E-02    0.225E-01
RMM:   5    -0.231810429383E+04    0.44485E-03   -0.12178E-03  4531   0.152E-02    0.166E-01
RMM:   6    -0.231810408592E+04    0.20791E-03   -0.10319E-03  4790   0.148E-02    0.939E-02
RMM:   7    -0.231810400073E+04    0.85190E-04   -0.32783E-04  3742   0.115E-02    0.397E-02
RMM:   8    -0.231810396751E+04    0.33217E-04   -0.61745E-05  2918   0.562E-03    0.172E-02
RMM:   9    -0.231810396430E+04    0.32166E-05   -0.24018E-05  2860   0.376E-03
  53 F= -.23386113E+04 E0= -.23386113E+04  d E =-.110950E-01  mag=     2.0000
       N       E                     dE             d eps       ncg     rms          rms(c)
DAV:   1    -0.231807265445E+04    0.31313E-01   -0.16966E+00  4512   0.107E+00    0.415E-01
RMM:   2    -0.231810625190E+04   -0.33597E-01   -0.36899E-01  6150   0.233E-01    0.213E-01
RMM:   3    -0.231810936151E+04   -0.31096E-02   -0.39576E-02  5682   0.918E-02    0.151E-01
RMM:   4    -0.231810960730E+04   -0.24579E-03   -0.40385E-03  3870   0.188E-02    0.140E-01
RMM:   5    -0.231810940728E+04    0.20002E-03   -0.36751E-04  3319   0.965E-03    0.879E-02
RMM:   6    -0.231810934468E+04    0.62599E-04   -0.33796E-04  4116   0.985E-03    0.405E-02
RMM:   7    -0.231810933126E+04    0.13422E-04   -0.93223E-05  2954   0.800E-03    0.203E-02
RMM:   8    -0.231810932254E+04    0.87244E-05   -0.18347E-05  2858   0.393E-03
  54 F= -.23386169E+04 E0= -.23386169E+04  d E =-.560289E-02  mag=     2.0000
       N       E                     dE             d eps       ncg     rms          rms(c)
DAV:   1    -0.231795834979E+04    0.15098E+00   -0.70858E+00  4448   0.220E+00    0.854E-01
RMM:   2    -0.231809992365E+04   -0.14157E+00   -0.15565E+00  6163   0.483E-01    0.446E-01
RMM:   3    -0.231811352452E+04   -0.13601E-01   -0.17588E-01  5833   0.184E-01    0.322E-01
RMM:   4    -0.231811422657E+04   -0.70205E-03   -0.17017E-02  5316   0.378E-02    0.254E-01
RMM:   5    -0.231811371156E+04    0.51501E-03   -0.15162E-03  4795   0.167E-02    0.211E-01
RMM:   6    -0.231811338213E+04    0.32943E-03   -0.15463E-03  5009   0.174E-02    0.117E-01
RMM:   7    -0.231811324094E+04    0.14119E-03   -0.62993E-04  4404   0.143E-02    0.459E-02
RMM:   8    -0.231811319424E+04    0.46696E-04   -0.84027E-05  2963   0.639E-03    0.235E-02
RMM:   9    -0.231811318423E+04    0.10013E-04   -0.36800E-05  2862   0.443E-03    0.992E-03
RMM:  10    -0.231811318296E+04    0.12634E-05   -0.11143E-05  2847   0.305E-03
  55 F= -.23386211E+04 E0= -.23386211E+04  d E =-.988905E-02  mag=     2.0000
       N       E                     dE             d eps       ncg     rms          rms(c)
DAV:   1    -0.231808404010E+04    0.29144E-01   -0.15461E+00  4528   0.105E+00    0.414E-01
RMM:   2    -0.231811425361E+04   -0.30214E-01   -0.33272E-01  6137   0.234E-01    0.208E-01
RMM:   3    -0.231811701366E+04   -0.27601E-02   -0.36623E-02  5670   0.936E-02    0.143E-01
RMM:   4    -0.231811723881E+04   -0.22514E-03   -0.36841E-03  4261   0.193E-02    0.139E-01
RMM:   5    -0.231811704096E+04    0.19784E-03   -0.38316E-04  3505   0.102E-02    0.843E-02
RMM:   6    -0.231811697311E+04    0.67856E-04   -0.32054E-04  4159   0.102E-02    0.336E-02
RMM:   7    -0.231811696250E+04    0.10611E-04   -0.71844E-05  2937   0.813E-03    0.188E-02
RMM:   8    -0.231811695440E+04    0.80926E-05   -0.16861E-05  2850   0.349E-03
  56 F= -.23386251E+04 E0= -.23386251E+04  d E =-.396043E-02  mag=     2.0000
       N       E                     dE             d eps       ncg     rms          rms(c)
DAV:   1    -0.231810939197E+04    0.75705E-02   -0.37135E-01  4640   0.517E-01    0.203E-01
RMM:   2    -0.231811666896E+04   -0.72770E-02   -0.80179E-02  6090   0.114E-01    0.102E-01
RMM:   3    -0.231811732538E+04   -0.65642E-03   -0.86360E-03  4878   0.453E-02    0.680E-02
RMM:   4    -0.231811738342E+04   -0.58042E-04   -0.87861E-04  3061   0.995E-03    0.701E-02
RMM:   5    -0.231811733155E+04    0.51870E-04   -0.91998E-05  2922   0.588E-03    0.393E-02
RMM:   6    -0.231811731485E+04    0.16702E-04   -0.80086E-05  3183   0.600E-03    0.121E-02
RMM:   7    -0.231811731411E+04    0.73831E-06   -0.12235E-05  2852   0.468E-03
  57 F= -.23386256E+04 E0= -.23386256E+04  d E =-.440557E-02  mag=     2.0000
       N       E                     dE             d eps       ncg     rms          rms(c)
DAV:   1    -0.231811112861E+04    0.61862E-02   -0.45748E-01  4448   0.606E-01    0.225E-01
RMM:   2    -0.231811893048E+04   -0.78019E-02   -0.85205E-02  6062   0.127E-01    0.124E-01
RMM:   3    -0.231811954805E+04   -0.61757E-03   -0.89259E-03  5214   0.507E-02    0.872E-02
RMM:   4    -0.231811954376E+04    0.42903E-05   -0.88433E-04  3276   0.111E-02    0.680E-02
RMM:   5    -0.231811949929E+04    0.44468E-04   -0.17676E-04  3223   0.820E-03    0.447E-02
RMM:   6    -0.231811948007E+04    0.19218E-04   -0.75705E-05  3159   0.673E-03    0.152E-02
RMM:   7    -0.231811947754E+04    0.25319E-05   -0.12370E-05  2839   0.506E-03
  58 F= -.23386278E+04 E0= -.23386278E+04  d E =-.220331E-02  mag=     2.0000
       N       E                     dE             d eps       ncg     rms          rms(c)
DAV:   1    -0.231811733501E+04    0.21451E-02   -0.13199E-01  4560   0.325E-01    0.121E-01
RMM:   2    -0.231811959665E+04   -0.22616E-02   -0.24711E-02  6077   0.689E-02    0.676E-02
RMM:   3    -0.231811977623E+04   -0.17959E-03   -0.25896E-03  3848   0.284E-02    0.485E-02
RMM:   4    -0.231811977371E+04    0.25221E-05   -0.25947E-04  2914   0.692E-03    0.364E-02
RMM:   5    -0.231811976147E+04    0.12242E-04   -0.53946E-05  2890   0.482E-03    0.242E-02
RMM:   6    -0.231811975633E+04    0.51387E-05   -0.23608E-05  2887   0.424E-03
  59 F= -.23386281E+04 E0= -.23386281E+04  d E =-.250167E-02  mag=     2.0000
       N       E                     dE             d eps       ncg     rms          rms(c)
DAV:   1    -0.231811671116E+04    0.30503E-02   -0.29683E-01  4432   0.529E-01    0.181E-01
RMM:   2    -0.231812085774E+04   -0.41466E-02   -0.45418E-02  5972   0.106E-01    0.823E-02
RMM:   3    -0.231812115787E+04   -0.30013E-03   -0.45553E-03  4884   0.396E-02    0.619E-02
RMM:   4    -0.231812119476E+04   -0.36892E-04   -0.50179E-04  3210   0.958E-03    0.673E-02
RMM:   5    -0.231812113894E+04    0.55823E-04   -0.92668E-05  3050   0.694E-03    0.244E-02
RMM:   6    -0.231812113504E+04    0.39026E-05   -0.45358E-05  3022   0.621E-03
  60 F= -.23386295E+04 E0= -.23386295E+04  d E =-.141600E-02  mag=     2.0000
       N       E                     dE             d eps       ncg     rms          rms(c)
DAV:   1    -0.231811917649E+04    0.19624E-02   -0.14329E-01  4480   0.368E-01    0.126E-01
RMM:   2    -0.231812119389E+04   -0.20174E-02   -0.22087E-02  6141   0.753E-02    0.575E-02
RMM:   3    -0.231812133528E+04   -0.14139E-03   -0.21887E-03  4133   0.280E-02    0.389E-02
RMM:   4    -0.231812135436E+04   -0.19077E-04   -0.24168E-04  2945   0.723E-03    0.464E-02
RMM:   5    -0.231812132906E+04    0.25300E-04   -0.44163E-05  2884   0.495E-03    0.179E-02
RMM:   6    -0.231812132599E+04    0.30752E-05   -0.21944E-05  2876   0.446E-03
  61 F= -.23386297E+04 E0= -.23386297E+04  d E =-.163245E-02  mag=     2.0000
       N       E                     dE             d eps       ncg     rms          rms(c)
DAV:   1    -0.231811818923E+04    0.31398E-02   -0.30745E-01  4432   0.541E-01    0.167E-01
RMM:   2    -0.231812232426E+04   -0.41350E-02   -0.44377E-02  6078   0.106E-01    0.770E-02
RMM:   3    -0.231812263363E+04   -0.30937E-03   -0.43336E-03  4648   0.380E-02    0.628E-02
RMM:   4    -0.231812266298E+04   -0.29352E-04   -0.46333E-04  2968   0.893E-03    0.567E-02
RMM:   5    -0.231812262316E+04    0.39819E-04   -0.72099E-05  2954   0.609E-03    0.221E-02
RMM:   6    -0.231812262096E+04    0.22031E-05   -0.27239E-05  2901   0.547E-03
  62 F= -.23386311E+04 E0= -.23386311E+04  d E =-.142440E-02  mag=     2.0000
       N       E                     dE             d eps       ncg     rms          rms(c)
DAV:   1    -0.231810730690E+04    0.15316E-01   -0.11059E+00  4408   0.103E+00    0.316E-01
RMM:   2    -0.231812218591E+04   -0.14879E-01   -0.15961E-01  6018   0.200E-01    0.146E-01
RMM:   3    -0.231812329641E+04   -0.11105E-02   -0.15646E-02  5401   0.697E-02    0.116E-01
RMM:   4    -0.231812340937E+04   -0.11296E-03   -0.16609E-03  3950   0.155E-02    0.108E-01
RMM:   5    -0.231812326554E+04    0.14383E-03   -0.26386E-04  3875   0.104E-02    0.426E-02
RMM:   6    -0.231812325454E+04    0.11000E-04   -0.93632E-05  3700   0.805E-03    0.163E-02
RMM:   7    -0.231812325164E+04    0.29005E-05   -0.12951E-05  2854   0.550E-03
  63 F= -.23386320E+04 E0= -.23386320E+04  d E =-.230262E-02  mag=     2.0000
       N       E                     dE             d eps       ncg     rms          rms(c)
DAV:   1    -0.231812188887E+04    0.13657E-02   -0.17671E-01  4560   0.409E-01    0.122E-01
RMM:   2    -0.231812411587E+04   -0.22270E-02   -0.23716E-02  6016   0.783E-02    0.568E-02
RMM:   3    -0.231812427322E+04   -0.15735E-03   -0.23663E-03  4042   0.285E-02    0.352E-02
RMM:   4    -0.231812428515E+04   -0.11928E-04   -0.23968E-04  2939   0.709E-03    0.297E-02
RMM:   5    -0.231812428348E+04    0.16738E-05   -0.35128E-05  2849   0.466E-03
  64 F= -.23386331E+04 E0= -.23386331E+04  d E =-.111911E-02  mag=     2.0000
       N       E                     dE             d eps       ncg     rms          rms(c)
DAV:   1    -0.231810429965E+04    0.19985E-01   -0.15865E+00  4408   0.123E+00    0.365E-01
RMM:   2    -0.231812416629E+04   -0.19867E-01   -0.21188E-01  6052   0.233E-01    0.171E-01
RMM:   3    -0.231812564953E+04   -0.14832E-02   -0.21859E-02  5404   0.833E-02    0.105E-01
RMM:   4    -0.231812571193E+04   -0.62402E-04   -0.21309E-03  4482   0.186E-02    0.684E-02
RMM:   5    -0.231812571614E+04   -0.42028E-05   -0.25734E-04  4085   0.123E-02    0.698E-02
RMM:   6    -0.231812566970E+04    0.46436E-04   -0.12402E-04  3005   0.773E-03    0.268E-02
RMM:   7    -0.231812566253E+04    0.71705E-05   -0.15059E-05  2851   0.463E-03
  65 F= -.23386347E+04 E0= -.23386347E+04  d E =-.276230E-02  mag=     2.0000
       N       E                     dE             d eps       ncg     rms          rms(c)
DAV:   1    -0.231812500889E+04    0.66081E-03   -0.14447E-01  4576   0.378E-01    0.125E-01
RMM:   2    -0.231812680799E+04   -0.17991E-02   -0.19339E-02  5941   0.736E-02    0.533E-02
RMM:   3    -0.231812692471E+04   -0.11672E-03   -0.19681E-03  4087   0.284E-02    0.325E-02
RMM:   4    -0.231812692944E+04   -0.47251E-05   -0.20491E-04  3085   0.740E-03    0.252E-02
RMM:   5    -0.231812692975E+04   -0.31629E-06   -0.35389E-05  2857   0.525E-03
  66 F= -.23386360E+04 E0= -.23386360E+04  d E =-.129095E-02  mag=     2.0000
       N       E                     dE             d eps       ncg     rms          rms(c)
DAV:   1    -0.231812093335E+04    0.59961E-02   -0.51078E-01  4408   0.711E-01    0.235E-01
RMM:   2    -0.231812727597E+04   -0.63426E-02   -0.68204E-02  6022   0.138E-01    0.101E-01
RMM:   3    -0.231812768694E+04   -0.41097E-03   -0.69243E-03  5090   0.507E-02    0.605E-02
RMM:   4    -0.231812768928E+04   -0.23499E-05   -0.71768E-04  4163   0.129E-02    0.371E-02
RMM:   5    -0.231812769442E+04   -0.51364E-05   -0.97918E-05  3319   0.874E-03
  67 F= -.23386368E+04 E0= -.23386368E+04  d E =-.210015E-02  mag=     2.0000
       N       E                     dE             d eps       ncg     rms          rms(c)
DAV:   1    -0.231812569678E+04    0.19925E-02   -0.20645E-01  4464   0.448E-01    0.141E-01
RMM:   2    -0.231812843139E+04   -0.27346E-02   -0.29138E-02  6041   0.866E-02    0.638E-02
RMM:   3    -0.231812862677E+04   -0.19538E-03   -0.28739E-03  4287   0.318E-02    0.398E-02
RMM:   4    -0.231812864210E+04   -0.15334E-04   -0.30138E-04  2985   0.785E-03    0.389E-02
RMM:   5    -0.231812863162E+04    0.10488E-04   -0.53271E-05  2876   0.554E-03    0.246E-02
RMM:   6    -0.231812862578E+04    0.58368E-05   -0.16783E-05  2869   0.437E-03
  68 F= -.23386379E+04 E0= -.23386379E+04  d E =-.103935E-02  mag=     2.0000
       N       E                     dE             d eps       ncg     rms          rms(c)
DAV:   1    -0.231810944889E+04    0.19183E-01   -0.13932E+00  4408   0.116E+00    0.362E-01
RMM:   2    -0.231812788148E+04   -0.18433E-01   -0.19658E-01  6037   0.223E-01    0.154E-01
RMM:   3    -0.231812925181E+04   -0.13703E-02   -0.19737E-02  5342   0.784E-02    0.102E-01
RMM:   4    -0.231812939857E+04   -0.14675E-03   -0.20419E-03  4429   0.181E-02    0.103E-01
RMM:   5    -0.231812930079E+04    0.97773E-04   -0.29654E-04  3587   0.111E-02    0.606E-02
RMM:   6    -0.231812926366E+04    0.37133E-04   -0.12115E-04  3903   0.842E-03    0.133E-02
RMM:   7    -0.231812926271E+04    0.94797E-06   -0.17156E-05  2869   0.585E-03
  69 F= -.23386388E+04 E0= -.23386388E+04  d E =-.195732E-02  mag=     2.0000
       N       E                     dE             d eps       ncg     rms          rms(c)
DAV:   1    -0.231812582644E+04    0.34372E-02   -0.31312E-01  4512   0.549E-01    0.171E-01
RMM:   2    -0.231813007810E+04   -0.42517E-02   -0.45435E-02  6006   0.106E-01    0.756E-02
RMM:   3    -0.231813037828E+04   -0.30018E-03   -0.43854E-03  4675   0.373E-02    0.453E-02
RMM:   4    -0.231813038957E+04   -0.11290E-04   -0.43224E-04  3257   0.905E-03    0.304E-02
RMM:   5    -0.231813039190E+04   -0.23302E-05   -0.67625E-05  2939   0.674E-03
  70 F= -.23386402E+04 E0= -.23386402E+04  d E =-.135810E-02  mag=     2.0000
       N       E                     dE             d eps       ncg     rms          rms(c)
DAV:   1    -0.231811461235E+04    0.15777E-01   -0.11006E+00  4440   0.103E+00    0.321E-01
RMM:   2    -0.231812954406E+04   -0.14932E-01   -0.15977E-01  6008   0.200E-01    0.141E-01
RMM:   3    -0.231813064930E+04   -0.11052E-02   -0.15796E-02  5373   0.724E-02    0.878E-02
RMM:   4    -0.231813073115E+04   -0.81853E-04   -0.16048E-03  4384   0.165E-02    0.781E-02
RMM:   5    -0.231813070220E+04    0.28954E-04   -0.21019E-04  3144   0.101E-02    0.620E-02
RMM:   6    -0.231813066287E+04    0.39323E-04   -0.97261E-05  3604   0.761E-03    0.144E-02
RMM:   7    -0.231813066130E+04    0.15748E-05   -0.16947E-05  2851   0.538E-03
  71 F= -.23386409E+04 E0= -.23386409E+04  d E =-.205928E-02  mag=     2.0000
       N       E                     dE             d eps       ncg     rms          rms(c)
DAV:   1    -0.231812449243E+04    0.61704E-02   -0.45909E-01  4464   0.656E-01    0.212E-01
RMM:   2    -0.231813144396E+04   -0.69515E-02   -0.74521E-02  6050   0.130E-01    0.944E-02
RMM:   3    -0.231813194245E+04   -0.49849E-03   -0.71625E-03  5106   0.448E-02    0.559E-02
RMM:   4    -0.231813196600E+04   -0.23553E-04   -0.70009E-04  3446   0.104E-02    0.384E-02
RMM:   5    -0.231813195710E+04    0.88961E-05   -0.80451E-05  2979   0.727E-03
  72 F= -.23386425E+04 E0= -.23386425E+04  d E =-.159815E-02  mag=     2.0000
       N       E                     dE             d eps       ncg     rms          rms(c)
DAV:   1    -0.231810017984E+04    0.31786E-01   -0.19708E+00  4440   0.136E+00    0.442E-01
RMM:   2    -0.231813005985E+04   -0.29880E-01   -0.32008E-01  6017   0.271E-01    0.209E-01
RMM:   3    -0.231813228643E+04   -0.22266E-02   -0.31754E-02  5651   0.964E-02    0.129E-01
RMM:   4    -0.231813240571E+04   -0.11927E-03   -0.31269E-03  4727   0.210E-02    0.123E-01
RMM:   5    -0.231813228801E+04    0.11770E-03   -0.53761E-04  4237   0.136E-02    0.814E-02
RMM:   6    -0.231813222020E+04    0.67807E-04   -0.17658E-04  4137   0.917E-03    0.204E-02
RMM:   7    -0.231813221561E+04    0.45876E-05   -0.26512E-05  2850   0.675E-03
  73 F= -.23386434E+04 E0= -.23386434E+04  d E =-.248603E-02  mag=     2.0000
       N       E                     dE             d eps       ncg     rms          rms(c)
DAV:   1    -0.231812036411E+04    0.11856E-01   -0.80290E-01  4512   0.851E-01    0.277E-01
RMM:   2    -0.231813260785E+04   -0.12244E-01   -0.13062E-01  6042   0.170E-01    0.130E-01
RMM:   3    -0.231813347741E+04   -0.86956E-03   -0.12481E-02  5401   0.588E-02    0.775E-02
RMM:   4    -0.231813352257E+04   -0.45162E-04   -0.12584E-03  3874   0.133E-02    0.678E-02
RMM:   5    -0.231813349872E+04    0.23852E-04   -0.21710E-04  3194   0.968E-03    0.550E-02
RMM:   6    -0.231813347297E+04    0.25754E-04   -0.66821E-05  3031   0.654E-03    0.210E-02
RMM:   7    -0.231813346644E+04    0.65312E-05   -0.17187E-05  2851   0.505E-03
  74 F= -.23386450E+04 E0= -.23386450E+04  d E =-.163997E-02  mag=     2.0000
       N       E                     dE             d eps       ncg     rms          rms(c)
DAV:   1    -0.231812614560E+04    0.73274E-02   -0.44838E-01  4496   0.637E-01    0.207E-01
RMM:   2    -0.231813299667E+04   -0.68511E-02   -0.73066E-02  6030   0.127E-01    0.967E-02
RMM:   3    -0.231813347990E+04   -0.48323E-03   -0.69400E-03  5117   0.441E-02    0.579E-02
RMM:   4    -0.231813350405E+04   -0.24156E-04   -0.70033E-04  3240   0.103E-02    0.501E-02
RMM:   5    -0.231813349000E+04    0.14049E-04   -0.12060E-04  2952   0.767E-03    0.401E-02
RMM:   6    -0.231813347684E+04    0.13164E-04   -0.38018E-05  2900   0.552E-03    0.169E-02
RMM:   7    -0.231813347265E+04    0.41912E-05   -0.10938E-05  2841   0.410E-03
  75 F= -.23386453E+04 E0= -.23386453E+04  d E =-.193788E-02  mag=     2.0000
       N       E                     dE             d eps       ncg     rms          rms(c)
DAV:   1    -0.231812996571E+04    0.35111E-02   -0.36738E-01  4448   0.584E-01    0.196E-01
RMM:   2    -0.231813474190E+04   -0.47762E-02   -0.50126E-02  5955   0.112E-01    0.110E-01
RMM:   3    -0.231813506195E+04   -0.32005E-03   -0.49444E-03  5143   0.419E-02    0.980E-02
RMM:   4    -0.231813497775E+04    0.84204E-04   -0.53391E-04  3366   0.106E-02    0.526E-02
RMM:   5    -0.231813494208E+04    0.35673E-04   -0.11011E-04  3501   0.833E-03    0.219E-02
RMM:   6    -0.231813493865E+04    0.34206E-05   -0.30471E-05  2891   0.606E-03
  76 F= -.23386469E+04 E0= -.23386469E+04  d E =-.161799E-02  mag=     2.0000
       N       E                     dE             d eps       ncg     rms          rms(c)
DAV:   1    -0.231813167777E+04    0.32643E-02   -0.25699E-01  4480   0.488E-01    0.164E-01
RMM:   2    -0.231813502809E+04   -0.33503E-02   -0.35167E-02  6028   0.950E-02    0.911E-02
RMM:   3    -0.231813524909E+04   -0.22099E-03   -0.34613E-03  4951   0.346E-02    0.811E-02
RMM:   4    -0.231813519314E+04    0.55941E-04   -0.37244E-04  3060   0.898E-03    0.446E-02
RMM:   5    -0.231813516707E+04    0.26074E-04   -0.77481E-05  3169   0.696E-03    0.188E-02
RMM:   6    -0.231813516399E+04    0.30839E-05   -0.21592E-05  2875   0.547E-03
  77 F= -.23386473E+04 E0= -.23386473E+04  d E =-.197015E-02  mag=     2.0000
       N       E                     dE             d eps       ncg     rms          rms(c)
DAV:   1    -0.231812949862E+04    0.56685E-02   -0.50070E-01  4464   0.676E-01    0.228E-01
RMM:   2    -0.231813616133E+04   -0.66627E-02   -0.70043E-02  6097   0.132E-01    0.110E-01
RMM:   3    -0.231813661418E+04   -0.45285E-03   -0.69235E-03  5317   0.483E-02    0.868E-02
RMM:   4    -0.231813658517E+04    0.29012E-04   -0.74588E-04  3484   0.117E-02    0.653E-02
RMM:   5    -0.231813653406E+04    0.51111E-04   -0.13808E-04  3409   0.877E-03    0.281E-02
RMM:   6    -0.231813652633E+04    0.77266E-05   -0.50679E-05  3083   0.662E-03
  78 F= -.23386487E+04 E0= -.23386487E+04  d E =-.142299E-02  mag=     2.0000
       N       E                     dE             d eps       ncg     rms          rms(c)
DAV:   1    -0.231813434315E+04    0.21909E-02   -0.16360E-01  4544   0.386E-01    0.131E-01
RMM:   2    -0.231813652580E+04   -0.21827E-02   -0.22962E-02  6226   0.771E-02    0.621E-02
RMM:   3    -0.231813667023E+04   -0.14443E-03   -0.22452E-03  4178   0.271E-02    0.466E-02
RMM:   4    -0.231813666649E+04    0.37366E-05   -0.24497E-04  2926   0.743E-03    0.383E-02
RMM:   5    -0.231813664848E+04    0.18007E-04   -0.47473E-05  2883   0.540E-03    0.165E-02
RMM:   6    -0.231813664550E+04    0.29781E-05   -0.17291E-05  2876   0.451E-03
  79 F= -.23386488E+04 E0= -.23386488E+04  d E =-.157667E-02  mag=     2.0000
       N       E                     dE             d eps       ncg     rms          rms(c)
DAV:   1    -0.231813030701E+04    0.63415E-02   -0.48610E-01  4464   0.664E-01    0.228E-01
RMM:   2    -0.231813728582E+04   -0.69788E-02   -0.73541E-02  6127   0.135E-01    0.998E-02
RMM:   3    -0.231813774225E+04   -0.45643E-03   -0.70769E-03  5242   0.475E-02    0.610E-02
RMM:   4    -0.231813776998E+04   -0.27723E-04   -0.72896E-04  3545   0.114E-02    0.613E-02
RMM:   5    -0.231813773759E+04    0.32381E-04   -0.13099E-04  2989   0.827E-03    0.360E-02
RMM:   6    -0.231813772249E+04    0.15102E-04   -0.38269E-05  2968   0.600E-03    0.742E-03
RMM:   7    -0.231813772218E+04    0.31188E-06   -0.80923E-06  2839   0.463E-03
  80 F= -.23386501E+04 E0= -.23386501E+04  d E =-.131334E-02  mag=     2.0000
       N       E                     dE             d eps       ncg     rms          rms(c)
DAV:   1    -0.231813531962E+04    0.24029E-02   -0.15919E-01  4512   0.380E-01    0.130E-01
RMM:   2    -0.231813761052E+04   -0.22909E-02   -0.24119E-02  6063   0.767E-02    0.568E-02
RMM:   3    -0.231813775658E+04   -0.14606E-03   -0.22934E-03  4005   0.267E-02    0.348E-02
RMM:   4    -0.231813776564E+04   -0.90556E-05   -0.23896E-04  2929   0.713E-03    0.348E-02
RMM:   5    -0.231813775485E+04    0.10789E-04   -0.43453E-05  2853   0.517E-03    0.200E-02
RMM:   6    -0.231813775037E+04    0.44758E-05   -0.13550E-05  2861   0.392E-03
  81 F= -.23386503E+04 E0= -.23386503E+04  d E =-.147731E-02  mag=     2.0000
       N       E                     dE             d eps       ncg     rms          rms(c)
DAV:   1    -0.231813181304E+04    0.59418E-02   -0.47078E-01  4464   0.652E-01    0.216E-01
RMM:   2    -0.231813840127E+04   -0.65882E-02   -0.69342E-02  6060   0.130E-01    0.103E-01
RMM:   3    -0.231813883329E+04   -0.43202E-03   -0.65897E-03  5224   0.441E-02    0.771E-02
RMM:   4    -0.231813882652E+04    0.67678E-05   -0.68486E-04  3256   0.108E-02    0.620E-02
RMM:   5    -0.231813878627E+04    0.40245E-04   -0.11851E-04  3145   0.794E-03    0.301E-02
RMM:   6    -0.231813877720E+04    0.90697E-05   -0.44429E-05  3024   0.634E-03
  82 F= -.23386517E+04 E0= -.23386517E+04  d E =-.136779E-02  mag=     2.0000
       N       E                     dE             d eps       ncg     rms          rms(c)
DAV:   1    -0.231813325415E+04    0.55321E-02   -0.36931E-01  4464   0.577E-01    0.192E-01
RMM:   2    -0.231813844496E+04   -0.51908E-02   -0.54684E-02  6170   0.117E-01    0.891E-02
RMM:   3    -0.231813878633E+04   -0.34137E-03   -0.51872E-03  5165   0.402E-02    0.633E-02
RMM:   4    -0.231813879265E+04   -0.63204E-05   -0.53819E-04  3104   0.979E-03    0.554E-02
RMM:   5    -0.231813876018E+04    0.32476E-04   -0.96401E-05  2995   0.706E-03    0.272E-02
RMM:   6    -0.231813875219E+04    0.79866E-05   -0.31397E-05  2921   0.567E-03
  83 F= -.23386520E+04 E0= -.23386520E+04  d E =-.164574E-02  mag=     2.0000
       N       E                     dE             d eps       ncg     rms          rms(c)
DAV:   1    -0.231813319023E+04    0.55699E-02   -0.41244E-01  4464   0.605E-01    0.199E-01
RMM:   2    -0.231813937787E+04   -0.61876E-02   -0.65092E-02  6202   0.123E-01    0.972E-02
RMM:   3    -0.231813979639E+04   -0.41852E-03   -0.60006E-03  5130   0.417E-02    0.726E-02
RMM:   4    -0.231813978725E+04    0.91427E-05   -0.63232E-04  3095   0.101E-02    0.553E-02
RMM:   5    -0.231813975328E+04    0.33963E-04   -0.94362E-05  2991   0.710E-03    0.259E-02
RMM:   6    -0.231813974829E+04    0.49921E-05   -0.37288E-05  2978   0.577E-03
  84 F= -.23386532E+04 E0= -.23386532E+04  d E =-.119137E-02  mag=     2.0000
       N       E                     dE             d eps       ncg     rms          rms(c)
DAV:   1    -0.231811891442E+04    0.20839E-01   -0.13326E+00  4440   0.109E+00    0.357E-01
RMM:   2    -0.231813891963E+04   -0.20005E-01   -0.21039E-01  6135   0.219E-01    0.177E-01
RMM:   3    -0.231814027600E+04   -0.13564E-02   -0.19443E-02  5690   0.731E-02    0.132E-01
RMM:   4    -0.231814023281E+04    0.43185E-04   -0.20284E-03  4291   0.170E-02    0.994E-02
RMM:   5    -0.231814012315E+04    0.10966E-03   -0.31006E-04  3927   0.114E-02    0.465E-02
RMM:   6    -0.231814010388E+04    0.19274E-04   -0.10963E-04  3658   0.832E-03    0.120E-02
RMM:   7    -0.231814010300E+04    0.87198E-06   -0.12771E-05  2865   0.544E-03
  85 F= -.23386539E+04 E0= -.23386539E+04  d E =-.189837E-02  mag=     2.0000
       N       E                     dE             d eps       ncg     rms          rms(c)
DAV:   1    -0.231813234024E+04    0.77636E-02   -0.55648E-01  4512   0.697E-01    0.237E-01
RMM:   2    -0.231814102155E+04   -0.86813E-02   -0.90588E-02  6126   0.142E-01    0.129E-01
RMM:   3    -0.231814159943E+04   -0.57788E-03   -0.82211E-03  5444   0.476E-02    0.107E-01
RMM:   4    -0.231814150847E+04    0.90958E-04   -0.87934E-04  3385   0.118E-02    0.612E-02
[...]
DAV:   1    -0.231816590220E+04    0.56833E-03   -0.25774E-01  4472   0.536E-01    0.135E-01
RMM:   2    -0.231816705464E+04   -0.11524E-02   -0.12721E-02  5721   0.893E-02    0.573E-02
RMM:   3    -0.231816702820E+04    0.26431E-04   -0.90674E-04  4544   0.308E-02    0.376E-02
RMM:   4    -0.231816701454E+04    0.13667E-04   -0.12501E-04  3592   0.863E-03    0.289E-02
RMM:   5    -0.231816701161E+04    0.29296E-05   -0.52419E-05  2962   0.698E-03
 166 F= -.23386929E+04 E0= -.23386929E+04  d E =-.685834E-03  mag=     2.0000
       N       E                     dE             d eps       ncg     rms          rms(c)
DAV:   1    -0.231816663026E+04    0.38427E-03   -0.78375E-02  4672   0.296E-01    0.748E-02
RMM:   2    -0.231816698046E+04   -0.35019E-03   -0.38684E-03  5913   0.506E-02    0.328E-02
RMM:   3    -0.231816697191E+04    0.85501E-05   -0.26996E-04  3755   0.180E-02    0.214E-02
RMM:   4    -0.231816696557E+04    0.63339E-05   -0.35642E-05  2932   0.511E-03
 167 F= -.23386930E+04 E0= -.23386930E+04  d E =-.717195E-03  mag=     2.0000
       N       E                     dE             d eps       ncg     rms          rms(c)
DAV:   1    -0.231816659907E+04    0.37283E-03   -0.17837E-01  4472   0.449E-01    0.112E-01
RMM:   2    -0.231816739212E+04   -0.79304E-03   -0.86289E-03  5822   0.736E-02    0.618E-02
RMM:   3    -0.231816742020E+04   -0.28088E-04   -0.74884E-04  4224   0.271E-02    0.754E-02
RMM:   4    -0.231816736089E+04    0.59316E-04   -0.10031E-04  3031   0.747E-03    0.268E-02
RMM:   5    -0.231816735203E+04    0.88550E-05   -0.38019E-05  3012   0.577E-03
 168 F= -.23386934E+04 E0= -.23386934E+04  d E =-.456070E-03  mag=     2.0000
       N       E                     dE             d eps       ncg     rms          rms(c)
DAV:   1    -0.231816690582E+04    0.45506E-03   -0.10118E-01  4528   0.338E-01    0.840E-02
RMM:   2    -0.231816734959E+04   -0.44376E-03   -0.49092E-03  6047   0.570E-02    0.358E-02
RMM:   3    -0.231816734586E+04    0.37302E-05   -0.36636E-04  3796   0.196E-02    0.246E-02
RMM:   4    -0.231816734384E+04    0.20198E-05   -0.48473E-05  2945   0.582E-03
 169 F= -.23386935E+04 E0= -.23386935E+04  d E =-.500698E-03  mag=     2.0000
       N       E                     dE             d eps       ncg     rms          rms(c)
DAV:   1    -0.231816662438E+04    0.72148E-03   -0.21720E-01  4472   0.498E-01    0.124E-01
RMM:   2    -0.231816767423E+04   -0.10499E-02   -0.11453E-02  5817   0.828E-02    0.707E-02
RMM:   3    -0.231816772456E+04   -0.50333E-04   -0.10207E-03  4370   0.298E-02    0.891E-02
RMM:   4    -0.231816763935E+04    0.85211E-04   -0.13157E-04  3154   0.815E-03    0.290E-02
RMM:   5    -0.231816762648E+04    0.12869E-04   -0.59770E-05  3545   0.682E-03    0.147E-02
RMM:   6    -0.231816762314E+04    0.33470E-05   -0.17205E-05  2871   0.566E-03
 170 F= -.23386939E+04 E0= -.23386939E+04  d E =-.408276E-03  mag=     2.0000
       N       E                     dE             d eps       ncg     rms          rms(c)
DAV:   1    -0.231816746923E+04    0.15726E-03   -0.23400E-02  4784   0.164E-01    0.411E-02
RMM:   2    -0.231816758454E+04   -0.11531E-03   -0.12682E-03  5852   0.284E-02    0.177E-02
RMM:   3    -0.231816758449E+04    0.43670E-07   -0.93507E-05  3023   0.105E-02
 171 F= -.23386939E+04 E0= -.23386939E+04  d E =-.412190E-03  mag=     2.0000
       N       E                     dE             d eps       ncg     rms          rms(c)
DAV:   1    -0.231816700175E+04    0.58279E-03   -0.16543E-01  4452   0.437E-01    0.118E-01
RMM:   2    -0.231816779958E+04   -0.79783E-03   -0.89298E-03  5690   0.742E-02    0.512E-02
RMM:   3    -0.231816778061E+04    0.18967E-04   -0.60688E-04  4231   0.241E-02    0.326E-02
RMM:   4    -0.231816777091E+04    0.97000E-05   -0.98572E-05  3539   0.775E-03
 172 F= -.23386942E+04 E0= -.23386942E+04  d E =-.367266E-03  mag=     2.0000
       N       E                     dE             d eps       ncg     rms          rms(c)
DAV:   1    -0.231816768198E+04    0.98633E-04   -0.92958E-03  5240   0.104E-01    0.375E-02
RMM:   2    -0.231816776641E+04   -0.84431E-04   -0.58816E-04  5482   0.204E-02    0.632E-02
RMM:   3    -0.231816771915E+04    0.47257E-04   -0.77579E-05  2886   0.743E-03    0.143E-02
RMM:   4    -0.231816771639E+04    0.27676E-05   -0.10402E-05  2861   0.328E-03
 173 F= -.23386942E+04 E0= -.23386942E+04  d E =-.356482E-03  mag=     2.0000
       N       E                     dE             d eps       ncg     rms          rms(c)
DAV:   1    -0.231816729529E+04    0.42387E-03   -0.11953E-01  4496   0.371E-01    0.987E-02
RMM:   2    -0.231816785378E+04   -0.55849E-03   -0.61993E-03  5664   0.626E-02    0.459E-02
RMM:   3    -0.231816786055E+04   -0.67678E-05   -0.48923E-04  3928   0.232E-02    0.495E-02
RMM:   4    -0.231816783941E+04    0.21138E-04   -0.67782E-05  2924   0.635E-03    0.268E-02
RMM:   5    -0.231816783030E+04    0.91131E-05   -0.28458E-05  2910   0.517E-03
 174 F= -.23386945E+04 E0= -.23386945E+04  d E =-.287746E-03  mag=     2.0000
       N       E                     dE             d eps       ncg     rms          rms(c)
DAV:   1    -0.231816776762E+04    0.71794E-04   -0.50772E-03  5032   0.767E-02    0.213E-02
RMM:   2    -0.231816779202E+04   -0.24399E-04   -0.27237E-04  4847   0.153E-02    0.105E-02
RMM:   3    -0.231816779224E+04   -0.22360E-06   -0.26091E-05  2852   0.607E-03
 175 F= -.23386945E+04 E0= -.23386945E+04  d E =-.286245E-03  mag=     2.0000
       N       E                     dE             d eps       ncg     rms          rms(c)
DAV:   1    -0.231816745721E+04    0.33481E-03   -0.10767E-01  4496   0.352E-01    0.958E-02
RMM:   2    -0.231816794891E+04   -0.49170E-03   -0.55614E-03  5663   0.596E-02    0.446E-02
RMM:   3    -0.231816793769E+04    0.11225E-04   -0.41126E-04  3860   0.197E-02    0.412E-02
RMM:   4    -0.231816792527E+04    0.12422E-04   -0.63439E-05  2922   0.632E-03    0.297E-02
RMM:   5    -0.231816791347E+04    0.11801E-04   -0.29995E-05  2902   0.514E-03    0.133E-02
RMM:   6    -0.231816791000E+04    0.34669E-05   -0.12067E-05  2845   0.468E-03
 176 F= -.23386948E+04 E0= -.23386948E+04  d E =-.252627E-03  mag=     2.0000
       N       E                     dE             d eps       ncg     rms          rms(c)
DAV:   1    -0.231816787701E+04    0.36457E-04   -0.20045E-03  5352   0.485E-02    0.136E-02
RMM:   2    -0.231816788623E+04   -0.92205E-05   -0.10545E-04  3701   0.971E-03    0.616E-03
RMM:   3    -0.231816788654E+04   -0.31402E-06   -0.11348E-05  2668   0.521E-03
 177 F= -.23386948E+04 E0= -.23386948E+04  d E =-.247926E-03  mag=     2.0000
       N       E                     dE             d eps       ncg     rms          rms(c)
DAV:   1    -0.231816764281E+04    0.24342E-03   -0.95081E-02  4490   0.329E-01    0.886E-02
RMM:   2    -0.231816804774E+04   -0.40493E-03   -0.45251E-03  5654   0.548E-02    0.408E-02
RMM:   3    -0.231816803946E+04    0.82729E-05   -0.33250E-04  3766   0.191E-02    0.398E-02
RMM:   4    -0.231816802743E+04    0.12037E-04   -0.52097E-05  2892   0.590E-03    0.259E-02
RMM:   5    -0.231816801889E+04    0.85331E-05   -0.23755E-05  2886   0.476E-03
 178 F= -.23386950E+04 E0= -.23386950E+04  d E =-.205268E-03  mag=     2.0000
       N       E                     dE             d eps       ncg     rms          rms(c)
DAV:   1    -0.231816799062E+04    0.36810E-04   -0.24811E-03  5248   0.535E-02    0.151E-02
RMM:   2    -0.231816800124E+04   -0.10624E-04   -0.12039E-04  3960   0.108E-02    0.722E-03
RMM:   3    -0.231816800158E+04   -0.33829E-06   -0.13834E-05  2762   0.546E-03
 179 F= -.23386950E+04 E0= -.23386950E+04  d E =-.200085E-03  mag=     2.0000
       N       E                     dE             d eps       ncg     rms          rms(c)
DAV:   1    -0.231816782077E+04    0.18047E-03   -0.89827E-02  4484   0.320E-01    0.887E-02
RMM:   2    -0.231816816274E+04   -0.34197E-03   -0.39259E-03  5737   0.534E-02    0.388E-02
RMM:   3    -0.231816814488E+04    0.17859E-04   -0.26564E-04  3798   0.178E-02    0.300E-02
RMM:   4    -0.231816814134E+04    0.35430E-05   -0.47547E-05  2935   0.596E-03
 180 F= -.23386951E+04 E0= -.23386951E+04  d E =-.194732E-03  mag=     2.0000
       N       E                     dE             d eps       ncg     rms          rms(c)
DAV:   1    -0.231816812755E+04    0.17338E-04   -0.22319E-04  5248   0.162E-02    0.141E-02
RMM:   2    -0.231816813273E+04   -0.51833E-05   -0.28577E-05  2879   0.413E-03
 181 F= -.23386951E+04 E0= -.23386951E+04  d E =-.188829E-03  mag=     2.0000
       N       E                     dE             d eps       ncg     rms          rms(c)
DAV:   1    -0.231816799357E+04    0.13398E-03   -0.73888E-02  4484   0.290E-01    0.789E-02
RMM:   2    -0.231816827566E+04   -0.28210E-03   -0.32091E-03  5779   0.487E-02    0.391E-02
RMM:   3    -0.231816827396E+04    0.16992E-05   -0.26564E-04  3812   0.191E-02    0.408E-02
RMM:   4    -0.231816825880E+04    0.15165E-04   -0.41875E-05  2876   0.550E-03    0.230E-02
RMM:   5    -0.231816825247E+04    0.63287E-05   -0.18591E-05  2878   0.427E-03
 182 F= -.23386953E+04 E0= -.23386953E+04  d E =-.174738E-03  mag=     2.0000
       N       E                     dE             d eps       ncg     rms          rms(c)
DAV:   1    -0.231816821793E+04    0.40867E-04   -0.46131E-03  4864   0.727E-02    0.200E-02
RMM:   2    -0.231816823601E+04   -0.18076E-04   -0.20609E-04  4616   0.145E-02    0.933E-03
RMM:   3    -0.231816823595E+04    0.60201E-07   -0.19096E-05  2851   0.577E-03
 183 F= -.23386953E+04 E0= -.23386953E+04  d E =-.172259E-03  mag=     2.0000
       N       E                     dE             d eps       ncg     rms          rms(c)
DAV:   1    -0.231816813746E+04    0.98548E-04   -0.53747E-02  4484   0.247E-01    0.638E-02
RMM:   2    -0.231816836390E+04   -0.22644E-03   -0.25451E-03  5785   0.410E-02    0.285E-02
RMM:   3    -0.231816835561E+04    0.82892E-05   -0.16405E-04  3337   0.132E-02    0.181E-02
RMM:   4    -0.231816835266E+04    0.29458E-05   -0.28989E-05  2910   0.489E-03
 184 F= -.23386955E+04 E0= -.23386955E+04  d E =-.178687E-03  mag=     2.0000
       N       E                     dE             d eps       ncg     rms          rms(c)
DAV:   1    -0.231816822562E+04    0.12999E-03   -0.25338E-02  4496   0.170E-01    0.454E-02
RMM:   2    -0.231816834503E+04   -0.11942E-03   -0.12175E-03  5785   0.291E-02    0.398E-02
RMM:   3    -0.231816833683E+04    0.82006E-05   -0.11585E-04  3090   0.109E-02    0.302E-02
RMM:   4    -0.231816832598E+04    0.10851E-04   -0.16285E-05  2850   0.395E-03    0.107E-02
RMM:   5    -0.231816832485E+04    0.11335E-05   -0.75864E-06  2840   0.276E-03
 185 F= -.23386955E+04 E0= -.23386955E+04  d E =-.193828E-03  mag=     2.0000
       N       E                     dE             d eps       ncg     rms          rms(c)
DAV:   1    -0.231816818133E+04    0.14465E-03   -0.64613E-02  4484   0.269E-01    0.681E-02
RMM:   2    -0.231816845153E+04   -0.27020E-03   -0.30113E-03  5776   0.450E-02    0.315E-02
RMM:   3    -0.231816845088E+04    0.65342E-06   -0.23155E-04  3585   0.166E-02    0.295E-02
RMM:   4    -0.231816844516E+04    0.57126E-05   -0.33105E-05  2875   0.493E-03
 186 F= -.23386957E+04 E0= -.23386957E+04  d E =-.203268E-03  mag=     2.0000
       N       E                     dE             d eps       ncg     rms          rms(c)
DAV:   1    -0.231816829884E+04    0.15203E-03   -0.26763E-02  4592   0.173E-01    0.448E-02
RMM:   2    -0.231816840847E+04   -0.10962E-03   -0.12429E-03  5824   0.289E-02    0.260E-02
RMM:   3    -0.231816841352E+04   -0.50519E-05   -0.12003E-04  3079   0.114E-02    0.316E-02
RMM:   4    -0.231816840236E+04    0.11159E-04   -0.18127E-05  2844   0.385E-03    0.117E-02
RMM:   5    -0.231816839947E+04    0.28856E-05   -0.11225E-05  2858   0.323E-03
 187 F= -.23386957E+04 E0= -.23386957E+04  d E =-.211445E-03  mag=     2.0000
       N       E                     dE             d eps       ncg     rms          rms(c)
DAV:   1    -0.231816814266E+04    0.25970E-03   -0.79054E-02  4472   0.296E-01    0.728E-02
RMM:   2    -0.231816848490E+04   -0.34224E-03   -0.37776E-03  5867   0.499E-02    0.352E-02
RMM:   3    -0.231816848445E+04    0.45585E-06   -0.29540E-04  3661   0.176E-02    0.320E-02
RMM:   4    -0.231816847829E+04    0.61534E-05   -0.40799E-05  2887   0.529E-03
 188 F= -.23386959E+04 E0= -.23386959E+04  d E =-.180796E-03  mag=     2.0000
       N       E                     dE             d eps       ncg     rms          rms(c)
DAV:   1    -0.231816835621E+04    0.12824E-03   -0.17628E-02  4640   0.140E-01    0.364E-02
RMM:   2    -0.231816843020E+04   -0.73990E-04   -0.83207E-04  5760   0.237E-02    0.234E-02
RMM:   3    -0.231816843377E+04   -0.35752E-05   -0.82399E-05  2964   0.938E-03
 189 F= -.23386959E+04 E0= -.23386959E+04  d E =-.185066E-03  mag=     2.0000
       N       E                     dE             d eps       ncg     rms          rms(c)
DAV:   1    -0.231816805444E+04    0.37575E-03   -0.89396E-02  4472   0.316E-01    0.820E-02
RMM:   2    -0.231816853171E+04   -0.47726E-03   -0.52685E-03  5909   0.548E-02    0.429E-02
RMM:   3    -0.231816853336E+04   -0.16577E-05   -0.41557E-04  3569   0.174E-02    0.379E-02
RMM:   4    -0.231816852519E+04    0.81726E-05   -0.58691E-05  2885   0.586E-03
 190 F= -.23386961E+04 E0= -.23386961E+04  d E =-.218549E-03  mag=     2.0000
       N       E                     dE             d eps       ncg     rms          rms(c)
DAV:   1    -0.231816832734E+04    0.20602E-03   -0.25203E-02  4560   0.168E-01    0.450E-02
RMM:   2    -0.231816846441E+04   -0.13707E-03   -0.14814E-03  5955   0.294E-02    0.347E-02
RMM:   3    -0.231816846760E+04   -0.31901E-05   -0.14736E-04  3019   0.107E-02    0.333E-02
RMM:   4    -0.231816845476E+04    0.12841E-04   -0.19588E-05  2856   0.396E-03    0.118E-02
RMM:   5    -0.231816845268E+04    0.20762E-05   -0.11002E-05  2856   0.315E-03
 191 F= -.23386961E+04 E0= -.23386961E+04  d E =-.214395E-03  mag=     2.0000
       N       E                     dE             d eps       ncg     rms          rms(c)
DAV:   1    -0.231816817757E+04    0.27718E-03   -0.68672E-02  4484   0.276E-01    0.687E-02
RMM:   2    -0.231816856271E+04   -0.38514E-03   -0.41694E-03  6035   0.484E-02    0.372E-02
RMM:   3    -0.231816857272E+04   -0.10006E-04   -0.34551E-04  3422   0.159E-02    0.397E-02
RMM:   4    -0.231816855915E+04    0.13566E-04   -0.42201E-05  2877   0.519E-03    0.194E-02
RMM:   5    -0.231816855516E+04    0.39862E-05   -0.15498E-05  2859   0.356E-03
 192 F= -.23386963E+04 E0= -.23386963E+04  d E =-.203747E-03  mag=     2.0000
       N       E                     dE             d eps       ncg     rms          rms(c)
DAV:   1    -0.231816791798E+04    0.64117E-03   -0.10384E-01  4472   0.340E-01    0.845E-02
RMM:   2    -0.231816849685E+04   -0.57887E-03   -0.62802E-03  6031   0.591E-02    0.452E-02
RMM:   3    -0.231816851407E+04   -0.17227E-04   -0.52556E-04  3654   0.200E-02    0.472E-02
RMM:   4    -0.231816849569E+04    0.18384E-04   -0.64228E-05  2894   0.608E-03    0.246E-02
RMM:   5    -0.231816848925E+04    0.64358E-05   -0.23614E-05  2883   0.434E-03
 193 F= -.23386964E+04 E0= -.23386964E+04  d E =-.262999E-03  mag=     2.0000
       N       E                     dE             d eps       ncg     rms          rms(c)
DAV:   1    -0.231816824588E+04    0.24981E-03   -0.79712E-02  4472   0.296E-01    0.721E-02
RMM:   2    -0.231816862464E+04   -0.37876E-03   -0.41276E-03  6024   0.509E-02    0.357E-02
RMM:   3    -0.231816863309E+04   -0.84560E-05   -0.33749E-04  3588   0.176E-02    0.367E-02
RMM:   4    -0.231816862298E+04    0.10116E-04   -0.42078E-05  2874   0.529E-03    0.212E-02
RMM:   5    -0.231816861893E+04    0.40480E-05   -0.16881E-05  2861   0.379E-03
 194 F= -.23386966E+04 E0= -.23386966E+04  d E =-.252520E-03  mag=     2.0000
       N       E                     dE             d eps       ncg     rms          rms(c)
DAV:   1    -0.231816767432E+04    0.94866E-03   -0.18648E-01  4472   0.453E-01    0.109E-01
RMM:   2    -0.231816855670E+04   -0.88238E-03   -0.96224E-03  5923   0.762E-02    0.548E-02
RMM:   3    -0.231816857857E+04   -0.21871E-04   -0.78142E-04  4076   0.272E-02    0.570E-02
RMM:   4    -0.231816855246E+04    0.26110E-04   -0.96319E-05  2994   0.732E-03    0.318E-02
RMM:   5    -0.231816854187E+04    0.10593E-04   -0.38286E-05  2963   0.560E-03    0.167E-02
RMM:   6    -0.231816853758E+04    0.42899E-05   -0.17874E-05  2863   0.517E-03
 195 F= -.23386967E+04 E0= -.23386967E+04  d E =-.359243E-03  mag=     2.0000
       N       E                     dE             d eps       ncg     rms          rms(c)
DAV:   1    -0.231816828315E+04    0.25872E-03   -0.88658E-02  4472   0.312E-01    0.727E-02
RMM:   2    -0.231816867351E+04   -0.39036E-03   -0.42676E-03  5929   0.519E-02    0.352E-02
RMM:   3    -0.231816868018E+04   -0.66712E-05   -0.33020E-04  3671   0.178E-02    0.358E-02
RMM:   4    -0.231816867127E+04    0.89107E-05   -0.42092E-05  2881   0.529E-03
 196 F= -.23386970E+04 E0= -.23386970E+04  d E =-.276711E-03  mag=     2.0000
       N       E                     dE             d eps       ncg     rms          rms(c)
DAV:   1    -0.231816790363E+04    0.77655E-03   -0.16536E-01  4472   0.425E-01    0.992E-02
RMM:   2    -0.231816861883E+04   -0.71520E-03   -0.78705E-03  5763   0.691E-02    0.534E-02
RMM:   3    -0.231816864467E+04   -0.25844E-04   -0.67627E-04  4064   0.265E-02    0.621E-02
RMM:   4    -0.231816860811E+04    0.36558E-04   -0.85258E-05  2965   0.705E-03    0.278E-02
RMM:   5    -0.231816859819E+04    0.99239E-05   -0.41176E-05  3185   0.587E-03
 197 F= -.23386971E+04 E0= -.23386971E+04  d E =-.399797E-03  mag=     2.0000
       N       E                     dE             d eps       ncg     rms          rms(c)
DAV:   1    -0.231816844678E+04    0.16133E-03   -0.72390E-02  4528   0.284E-01    0.748E-02
RMM:   2    -0.231816875514E+04   -0.30836E-03   -0.34399E-03  6000   0.495E-02    0.335E-02
RMM:   3    -0.231816875904E+04   -0.39008E-05   -0.28319E-04  3660   0.176E-02    0.354E-02
RMM:   4    -0.231816874896E+04    0.10083E-04   -0.37586E-05  2872   0.530E-03    0.204E-02
RMM:   5    -0.231816874435E+04    0.46037E-05   -0.17696E-05  2867   0.396E-03
 198 F= -.23386974E+04 E0= -.23386974E+04  d E =-.273849E-03  mag=     2.0000
       N       E                     dE             d eps       ncg     rms          rms(c)
DAV:   1    -0.231816847971E+04    0.26925E-03   -0.50805E-02  4472   0.238E-01    0.619E-02
RMM:   2    -0.231816869527E+04   -0.21556E-03   -0.24061E-03  5878   0.407E-02    0.274E-02
RMM:   3    -0.231816869728E+04   -0.20113E-05   -0.19453E-04  3520   0.156E-02    0.277E-02
RMM:   4    -0.231816869181E+04    0.54762E-05   -0.26266E-05  2867   0.459E-03
 199 F= -.23386975E+04 E0= -.23386975E+04  d E =-.328632E-03  mag=     2.0000
       N       E                     dE             d eps       ncg     rms          rms(c)
DAV:   1    -0.231816850696E+04    0.19032E-03   -0.65496E-02  4484   0.269E-01    0.674E-02
RMM:   2    -0.231816877407E+04   -0.26711E-03   -0.29798E-03  5700   0.441E-02    0.341E-02
RMM:   3    -0.231816878335E+04   -0.92761E-05   -0.26489E-04  3660   0.178E-02    0.408E-02
RMM:   4    -0.231816876722E+04    0.16123E-04   -0.36409E-05  2866   0.497E-03    0.176E-02
RMM:   5    -0.231816876260E+04    0.46208E-05   -0.19274E-05  2919   0.414E-03
 200 F= -.23386977E+04 E0= -.23386977E+04  d E =-.194113E-03  mag=     2.0000
       N       E                     dE             d eps       ncg     rms          rms(c)
DAV:   1    -0.231816859898E+04    0.16824E-03   -0.27001E-02  4608   0.173E-01    0.437E-02
RMM:   2    -0.231816871342E+04   -0.11443E-03   -0.12662E-03  5877   0.305E-02    0.203E-02
RMM:   3    -0.231816871276E+04    0.65540E-06   -0.98096E-05  3070   0.104E-02
 201 F= -.23386977E+04 E0= -.23386977E+04  d E =-.223541E-03  mag=     2.0000
