       N       E                     dE             d eps       ncg     rms          rms(c)
DAV:   1     0.126262453383E+05    0.12626E+05   -0.82773E+05  4448   0.144E+03
DAV:   2    -0.108207811094E+04   -0.13708E+05   -0.13132E+05  5304   0.329E+02
DAV:   3    -0.246959404744E+04   -0.13875E+04   -0.13748E+04  5336   0.110E+02
DAV:   4    -0.251378631950E+04   -0.44192E+02   -0.43972E+02  6648   0.293E+01
DAV:   5    -0.251465967388E+04   -0.87335E+00   -0.87197E+00  5592   0.326E+00    0.170E+02
RMM:   6    -0.148119658806E+04    0.10335E+04   -0.19426E+03  4374   0.389E+01    0.751E+01
RMM:   7    -0.167160346105E+04   -0.19041E+03   -0.30450E+02  5031   0.139E+01    0.619E+01
RMM:   8    -0.167936969222E+04   -0.77662E+01   -0.86526E+01  5221   0.835E+00    0.386E+01
RMM:   9    -0.179147856579E+04   -0.11211E+03   -0.47410E+01  4664   0.717E+00    0.321E+01
RMM:  10    -0.190691186424E+04   -0.11543E+03   -0.51150E+01  4997   0.681E+00    0.284E+01
RMM:  11    -0.200488120428E+04   -0.97969E+02   -0.44211E+01  5173   0.573E+00    0.172E+01
RMM:  12    -0.209087641896E+04   -0.85995E+02   -0.40449E+01  4704   0.497E+00    0.129E+01
RMM:  13    -0.221718906868E+04   -0.12631E+03   -0.10337E+02  4396   0.746E+00    0.798E+00
RMM:  14    -0.227873789326E+04   -0.61549E+02   -0.54101E+01  4435   0.531E+00    0.493E+00
RMM:  15    -0.229830811380E+04   -0.19570E+02   -0.20731E+01  4880   0.351E+00    0.280E+00
RMM:  16    -0.230413329729E+04   -0.58252E+01   -0.62200E+00  4880   0.166E+00    0.177E+00
RMM:  17    -0.230589935317E+04   -0.17661E+01   -0.18846E+00  4825   0.897E-01    0.978E-01
RMM:  18    -0.230651043198E+04   -0.61108E+00   -0.53337E-01  4751   0.488E-01    0.637E-01
RMM:  19    -0.230668923013E+04   -0.17880E+00   -0.15793E-01  4728   0.255E-01    0.352E-01
RMM:  20    -0.230672937805E+04   -0.40148E-01   -0.31379E-02  4651   0.150E-01    0.193E-01
RMM:  21    -0.230674824463E+04   -0.18867E-01   -0.96213E-03  4537   0.780E-02    0.103E-01
RMM:  22    -0.230676093595E+04   -0.12691E-01   -0.46771E-03  4398   0.591E-02    0.745E-02
RMM:  23    -0.230676951875E+04   -0.85828E-02   -0.30924E-03  4416   0.456E-02    0.445E-02
RMM:  24    -0.230677348702E+04   -0.39683E-02   -0.13850E-03  4528   0.339E-02    0.425E-02
RMM:  25    -0.230677566263E+04   -0.21756E-02   -0.79730E-04  4099   0.219E-02    0.270E-02
RMM:  26    -0.230677654360E+04   -0.88097E-03   -0.31556E-04  3966   0.165E-02    0.180E-02
RMM:  27    -0.230677683189E+04   -0.28829E-03   -0.10961E-04  3664   0.918E-03    0.112E-02
RMM:  28    -0.230677702540E+04   -0.19351E-03   -0.52658E-05  3477   0.749E-03    0.518E-03
RMM:  29    -0.230677713557E+04   -0.11017E-03   -0.32100E-05  3251   0.520E-03    0.294E-03
RMM:  30    -0.230677716997E+04   -0.34401E-04   -0.10810E-05  2850   0.391E-03    0.307E-03
RMM:  31    -0.230677718400E+04   -0.14032E-04   -0.53531E-06  2609   0.258E-03    0.920E-04
RMM:  32    -0.230677718915E+04   -0.51555E-05   -0.25078E-06  2372   0.194E-03
   1 F= -.23271674E+04 E0= -.23271674E+04  d E =-.232717E+04  mag=     5.9999
       N       E                     dE             d eps       ncg     rms          rms(c)
DAV:   1    -0.230765470720E+04   -0.87752E+00   -0.70362E+01  4696   0.398E+00    0.245E+00
RMM:   2    -0.230816225635E+04   -0.50755E+00   -0.51061E+00  6054   0.858E-01    0.419E+00
RMM:   3    -0.230814879074E+04    0.13466E-01   -0.54956E-01  4762   0.349E-01    0.356E+00
RMM:   4    -0.230813283646E+04    0.15954E-01   -0.94367E-02  4916   0.979E-02    0.329E+00
RMM:   5    -0.230810111979E+04    0.31717E-01   -0.10212E-01  4435   0.129E-01    0.277E+00
RMM:   6    -0.230794310526E+04    0.15801E+00   -0.25734E-01  4746   0.210E-01    0.913E-01
RMM:   7    -0.230802127052E+04   -0.78165E-01   -0.49825E-02  4849   0.114E-01    0.903E-01
RMM:   8    -0.230808388033E+04   -0.62610E-01   -0.31606E-02  4587   0.775E-02    0.678E-01
RMM:   9    -0.230811494149E+04   -0.31061E-01   -0.17239E-02  4524   0.622E-02    0.289E-01
RMM:  10    -0.230817531535E+04   -0.60374E-01   -0.14935E-02  4416   0.620E-02    0.240E-01
RMM:  11    -0.230820617707E+04   -0.30862E-01   -0.88960E-03  4407   0.523E-02    0.173E-01
RMM:  12    -0.230822397494E+04   -0.17798E-01   -0.75136E-03  4470   0.470E-02    0.118E-01
RMM:  13    -0.230822950388E+04   -0.55289E-02   -0.24932E-03  4338   0.343E-02    0.957E-02
RMM:  14    -0.230823180663E+04   -0.23027E-02   -0.10981E-03  4359   0.191E-02    0.881E-02
RMM:  15    -0.230823271434E+04   -0.90771E-03   -0.57082E-04  3893   0.148E-02    0.813E-02
RMM:  16    -0.230823302207E+04   -0.30773E-03   -0.41199E-04  3682   0.108E-02    0.749E-02
RMM:  17    -0.230823300208E+04    0.19992E-04   -0.16615E-03  3777   0.184E-02    0.714E-02
RMM:  18    -0.230823306586E+04   -0.63779E-04   -0.10850E-03  3564   0.160E-02    0.618E-02
RMM:  19    -0.230823364463E+04   -0.57877E-03   -0.63091E-04  3468   0.115E-02    0.426E-02
RMM:  20    -0.230823419059E+04   -0.54596E-03   -0.18232E-03  3661   0.195E-02    0.509E-02
RMM:  21    -0.230823432652E+04   -0.13593E-03   -0.29983E-04  3183   0.990E-03    0.370E-02
RMM:  22    -0.230823445286E+04   -0.12633E-03   -0.84021E-04  3379   0.105E-02    0.488E-02
RMM:  23    -0.230823445645E+04   -0.35931E-05   -0.10314E-04  2874   0.593E-03    0.203E-02
RMM:  24    -0.230823452605E+04   -0.69596E-04   -0.81433E-04  3308   0.116E-02    0.563E-02
RMM:  25    -0.230823455513E+04   -0.29082E-04   -0.16745E-04  2831   0.606E-03    0.424E-02
RMM:  26    -0.230823461290E+04   -0.57775E-04   -0.99521E-05  2817   0.472E-03    0.210E-02
RMM:  27    -0.230823463577E+04   -0.22865E-04   -0.17786E-04  2832   0.545E-03    0.292E-02
RMM:  28    -0.230823465484E+04   -0.19074E-04   -0.61156E-05  2666   0.368E-03    0.193E-02
RMM:  29    -0.230823467471E+04   -0.19870E-04   -0.59988E-05  2688   0.319E-03    0.837E-03
RMM:  30    -0.230823468769E+04   -0.12977E-04   -0.16302E-04  2864   0.490E-03    0.157E-02
RMM:  31    -0.230823469449E+04   -0.68020E-05   -0.27695E-05  2473   0.278E-03
   2 F= -.23286234E+04 E0= -.23286234E+04  d E =-.145595E+01  mag=     4.0009
       N       E                     dE             d eps       ncg     rms          rms(c)
DAV:   1    -0.229732585286E+04    0.10909E+02   -0.59140E+02  4552   0.120E+01    0.911E+00
RMM:   2    -0.230215498657E+04   -0.48291E+01   -0.68745E+01  5965   0.388E+00    0.984E+00
RMM:   3    -0.230143728077E+04    0.71771E+00   -0.55857E+00  5527   0.113E+00    0.727E+00
RMM:   4    -0.230094889877E+04    0.48838E+00   -0.13010E+00  5206   0.424E-01    0.261E+00
RMM:   5    -0.230094764039E+04    0.12584E-02   -0.28819E-01  4848   0.278E-01    0.136E+00
RMM:   6    -0.230093218169E+04    0.15459E-01   -0.77386E-02  5038   0.131E-01    0.707E-01
RMM:   7    -0.230092900642E+04    0.31753E-02   -0.21803E-02  5064   0.875E-02    0.389E-01
RMM:   8    -0.230092861579E+04    0.39063E-03   -0.64661E-03  4951   0.398E-02    0.216E-01
RMM:   9    -0.230092922313E+04   -0.60734E-03   -0.18004E-03  4804   0.289E-02    0.173E-01
RMM:  10    -0.230092951534E+04   -0.29221E-03   -0.74944E-04  4421   0.162E-02    0.140E-01
RMM:  11    -0.230092997564E+04   -0.46030E-03   -0.71899E-04  4189   0.151E-02    0.140E-01
RMM:  12    -0.230093029128E+04   -0.31564E-03   -0.34445E-04  3892   0.105E-02    0.141E-01
RMM:  13    -0.230093035162E+04   -0.60340E-04   -0.72118E-05  2856   0.588E-03    0.140E-01
RMM:  14    -0.230093150752E+04   -0.11559E-02   -0.19787E-03  3746   0.151E-02    0.167E-01
RMM:  15    -0.230093014768E+04    0.13598E-02   -0.21794E-03  3600   0.166E-02    0.137E-01
RMM:  16    -0.230092729697E+04    0.28507E-02   -0.99592E-03  3986   0.312E-02    0.211E-01
RMM:  17    -0.230092848740E+04   -0.11904E-02   -0.14339E-03  3450   0.159E-02    0.179E-01
RMM:  18    -0.230092818463E+04    0.30277E-03   -0.94297E-05  2822   0.501E-03    0.193E-01
RMM:  19    -0.230092996945E+04   -0.17848E-02   -0.49333E-03  3896   0.233E-02    0.182E-01
RMM:  20    -0.230093135810E+04   -0.13886E-02   -0.29138E-02  4192   0.528E-02    0.417E-01
RMM:  21    -0.230093179280E+04   -0.43470E-03   -0.21607E-03  3518   0.210E-02    0.389E-01
RMM:  22    -0.230093290078E+04   -0.11080E-02   -0.44148E-04  3046   0.751E-03    0.281E-01
RMM:  23    -0.230093422061E+04   -0.13198E-02   -0.20333E-03  3506   0.143E-02    0.258E-01
RMM:  24    -0.230093496211E+04   -0.74151E-03   -0.42391E-04  2884   0.775E-03    0.180E-01
RMM:  25    -0.230093513703E+04   -0.17492E-03   -0.60462E-04  3041   0.784E-03    0.224E-01
RMM:  26    -0.230093612191E+04   -0.98488E-03   -0.59147E-04  3025   0.806E-03    0.149E-01
RMM:  27    -0.230093690981E+04   -0.78790E-03   -0.19505E-03  3473   0.138E-02    0.175E-01
RMM:  28    -0.230093776557E+04   -0.85577E-03   -0.12498E-03  3254   0.119E-02    0.132E-01
RMM:  29    -0.230093872826E+04   -0.96269E-03   -0.36734E-03  3697   0.189E-02    0.167E-01
RMM:  30    -0.230093913691E+04   -0.40864E-03   -0.67820E-04  3021   0.106E-02    0.731E-02
RMM:  31    -0.230093971447E+04   -0.57756E-03   -0.88866E-04  3193   0.933E-03    0.784E-02
RMM:  32    -0.230094027035E+04   -0.55589E-03   -0.93402E-04  3142   0.995E-03    0.697E-02
RMM:  33    -0.230094104176E+04   -0.77141E-03   -0.26196E-03  3598   0.161E-02    0.957E-02
RMM:  34    -0.230094134981E+04   -0.30805E-03   -0.66083E-04  2989   0.983E-03    0.674E-02
RMM:  35    -0.230094149632E+04   -0.14650E-03   -0.34746E-04  2813   0.597E-03    0.774E-02
RMM:  36    -0.230094150584E+04   -0.95270E-05   -0.38030E-05  2637   0.355E-03
   3 F= -.23213309E+04 E0= -.23213309E+04  d E =0.583652E+01  mag=     4.0000
       N       E                     dE             d eps       ncg     rms          rms(c)
DAV:   1    -0.230609764891E+04   -0.51562E+01   -0.49172E+02  4472   0.123E+01    0.895E+00
RMM:   2    -0.230968344771E+04   -0.35858E+01   -0.53347E+01  5994   0.299E+00    0.821E+00
RMM:   3    -0.230872652355E+04    0.95692E+00   -0.48612E+00  5215   0.100E+00    0.507E+00
RMM:   4    -0.230873416391E+04   -0.76404E-02   -0.99156E-01  5471   0.360E-01    0.405E+00
RMM:   5    -0.230864043447E+04    0.93729E-01   -0.38308E-01  5913   0.240E-01    0.254E+00
RMM:   6    -0.230857276935E+04    0.67665E-01   -0.13667E-01  4863   0.149E-01    0.956E-01
RMM:   7    -0.230856908940E+04    0.36799E-02   -0.32073E-02  4984   0.862E-02    0.348E-01
RMM:   8    -0.230857038284E+04   -0.12934E-02   -0.62406E-03  4714   0.428E-02    0.210E-01
RMM:   9    -0.230857172041E+04   -0.13376E-02   -0.17158E-03  4486   0.293E-02    0.871E-02
RMM:  10    -0.230857342290E+04   -0.17025E-02   -0.77065E-04  4365   0.153E-02    0.464E-02
RMM:  11    -0.230857465931E+04   -0.12364E-02   -0.36304E-04  3994   0.131E-02    0.339E-02
RMM:  12    -0.230857530460E+04   -0.64529E-03   -0.18337E-04  3831   0.870E-03    0.268E-02
RMM:  13    -0.230857575152E+04   -0.44692E-03   -0.16879E-04  3703   0.871E-03    0.200E-02
RMM:  14    -0.230857586509E+04   -0.11357E-03   -0.51110E-05  3189   0.657E-03    0.167E-02
RMM:  15    -0.230857593854E+04   -0.73450E-04   -0.29111E-05  2972   0.469E-03    0.152E-02
RMM:  16    -0.230857598369E+04   -0.45150E-04   -0.20811E-05  2855   0.445E-03    0.138E-02
RMM:  17    -0.230857599865E+04   -0.14962E-04   -0.10795E-05  2819   0.332E-03    0.135E-02
RMM:  18    -0.230857601120E+04   -0.12552E-04   -0.22841E-05  2703   0.309E-03    0.130E-02
RMM:  19    -0.230857601553E+04   -0.43309E-05   -0.26733E-05  2689   0.310E-03
   4 F= -.23289644E+04 E0= -.23289644E+04  d E =-.179693E+01  mag=     3.9940
       N       E                     dE             d eps       ncg     rms          rms(c)
DAV:   1    -0.230855212731E+04    0.23884E-01   -0.39699E+01  4448   0.316E+00    0.201E+00
RMM:   2    -0.230877850075E+04   -0.22637E+00   -0.30429E+00  6090   0.694E-01    0.188E+00
RMM:   3    -0.230875030495E+04    0.28196E-01   -0.23819E-01  5608   0.229E-01    0.145E+00
RMM:   4    -0.230872937460E+04    0.20930E-01   -0.47833E-02  5306   0.795E-02    0.597E-01
RMM:   5    -0.230872415286E+04    0.52217E-02   -0.27741E-02  4977   0.623E-02    0.240E-01
RMM:   6    -0.230872324079E+04    0.91207E-03   -0.23364E-03  4860   0.372E-02    0.137E-01
RMM:   7    -0.230872329196E+04   -0.51170E-04   -0.74278E-04  4107   0.126E-02    0.106E-01
RMM:   8    -0.230872336194E+04   -0.69988E-04   -0.20367E-04  3609   0.109E-02    0.893E-02
RMM:   9    -0.230872354188E+04   -0.17993E-03   -0.33925E-04  3775   0.996E-03    0.806E-02
RMM:  10    -0.230872368437E+04   -0.14249E-03   -0.21714E-04  3175   0.897E-03    0.756E-02
RMM:  11    -0.230872398965E+04   -0.30528E-03   -0.82503E-04  3776   0.119E-02    0.681E-02
RMM:  12    -0.230872422200E+04   -0.23235E-03   -0.79320E-04  3482   0.125E-02    0.611E-02
RMM:  13    -0.230872439379E+04   -0.17179E-03   -0.68456E-04  3179   0.956E-03    0.518E-02
RMM:  14    -0.230872463948E+04   -0.24568E-03   -0.18077E-03  3522   0.148E-02    0.481E-02
RMM:  15    -0.230872472722E+04   -0.87740E-04   -0.38405E-04  3018   0.907E-03    0.310E-02
RMM:  16    -0.230872482513E+04   -0.97908E-04   -0.98528E-04  3283   0.109E-02    0.444E-02
RMM:  17    -0.230872488627E+04   -0.61146E-04   -0.14905E-04  2869   0.650E-03    0.150E-02
RMM:  18    -0.230872492066E+04   -0.34386E-04   -0.71919E-04  3158   0.961E-03    0.501E-02
RMM:  19    -0.230872494565E+04   -0.24997E-04   -0.86234E-05  2786   0.480E-03    0.385E-02
RMM:  20    -0.230872496744E+04   -0.21788E-04   -0.17809E-05  2629   0.257E-03    0.199E-02
RMM:  21    -0.230872498091E+04   -0.13471E-04   -0.18447E-04  2868   0.505E-03    0.332E-02
RMM:  22    -0.230872498711E+04   -0.61946E-05   -0.31320E-05  2566   0.293E-03
   5 F= -.23291129E+04 E0= -.23291129E+04  d E =-.194545E+01  mag=     3.9999
       N       E                     dE             d eps       ncg     rms          rms(c)
DAV:   1    -0.230875768103E+04   -0.32700E-01   -0.64333E+00  4464   0.130E+00    0.837E-01
RMM:   2    -0.230878824874E+04   -0.30568E-01   -0.47033E-01  6018   0.262E-01    0.693E-01
RMM:   3    -0.230878799854E+04    0.25019E-03   -0.55122E-02  5623   0.108E-01    0.615E-01
RMM:   4    -0.230878429057E+04    0.37080E-02   -0.87809E-03  5360   0.340E-02    0.273E-01
RMM:   5    -0.230878325152E+04    0.10391E-02   -0.31844E-03  4528   0.237E-02    0.102E-01
RMM:   6    -0.230878313325E+04    0.11827E-03   -0.61149E-04  3978   0.154E-02    0.376E-02
RMM:   7    -0.230878312997E+04    0.32757E-05   -0.11041E-04  3326   0.637E-03    0.217E-02
RMM:   8    -0.230878312972E+04    0.24906E-06   -0.20078E-05  2869   0.453E-03
   6 F= -.23291712E+04 E0= -.23291712E+04  d E =-.200372E+01  mag=     4.0000
       N       E                     dE             d eps       ncg     rms          rms(c)
DAV:   1    -0.230877830695E+04    0.48230E-02   -0.65762E+01  4408   0.470E+00    0.242E+00
RMM:   2    -0.230956422387E+04   -0.78592E+00   -0.78333E+00  6131   0.121E+00    0.248E+00
RMM:   3    -0.230951185555E+04    0.52368E-01   -0.66121E-01  5293   0.425E-01    0.137E+00
RMM:   4    -0.230950085088E+04    0.11005E-01   -0.79454E-02  5329   0.910E-02    0.696E-01
RMM:   5    -0.230949459418E+04    0.62567E-02   -0.24948E-02  5181   0.724E-02    0.327E-01
RMM:   6    -0.230949380073E+04    0.79345E-03   -0.38162E-03  5194   0.387E-02    0.133E-01
RMM:   7    -0.230949383948E+04   -0.38749E-04   -0.77718E-04  4241   0.146E-02    0.834E-02
RMM:   8    -0.230949389560E+04   -0.56123E-04   -0.22354E-04  3474   0.888E-03    0.558E-02
RMM:   9    -0.230949396893E+04   -0.73326E-04   -0.80473E-05  3219   0.627E-03    0.458E-02
RMM:  10    -0.230949404265E+04   -0.73724E-04   -0.74458E-05  2982   0.611E-03    0.402E-02
RMM:  11    -0.230949410532E+04   -0.62671E-04   -0.84439E-05  2919   0.596E-03    0.355E-02
RMM:  12    -0.230949418123E+04   -0.75907E-04   -0.22862E-04  3353   0.744E-03    0.296E-02
RMM:  13    -0.230949423245E+04   -0.51220E-04   -0.33732E-04  3201   0.804E-03    0.229E-02
RMM:  14    -0.230949425964E+04   -0.27192E-04   -0.18182E-04  2860   0.648E-03    0.167E-02
RMM:  15    -0.230949428896E+04   -0.29317E-04   -0.12149E-04  2844   0.486E-03    0.106E-02
RMM:  16    -0.230949430436E+04   -0.15401E-04   -0.11823E-04  2822   0.467E-03    0.755E-03
RMM:  17    -0.230949431232E+04   -0.79647E-05   -0.55725E-05  2746   0.370E-03
   7 F= -.23298816E+04 E0= -.23298816E+04  d E =-.710398E+00  mag=     4.0000
       N       E                     dE             d eps       ncg     rms          rms(c)
DAV:   1    -0.230948685600E+04    0.74484E-02   -0.34564E+00  4496   0.108E+00    0.509E-01
RMM:   2    -0.230952098013E+04   -0.34124E-01   -0.35561E-01  6055   0.260E-01    0.357E-01
RMM:   3    -0.230952394994E+04   -0.29698E-02   -0.48718E-02  5195   0.128E-01    0.306E-01
RMM:   4    -0.230952357894E+04    0.37100E-03   -0.44891E-03  4780   0.228E-02    0.168E-01
RMM:   5    -0.230952325281E+04    0.32613E-03   -0.11666E-03  4839   0.168E-02    0.572E-02
RMM:   6    -0.230952325463E+04   -0.18173E-05   -0.16723E-04  3170   0.955E-03    0.263E-02
RMM:   7    -0.230952325222E+04    0.24147E-05   -0.33109E-05  2884   0.444E-03
   8 F= -.23299104E+04 E0= -.23299104E+04  d E =-.739199E+00  mag=     4.0000
       N       E                     dE             d eps       ncg     rms          rms(c)
DAV:   1    -0.230960228889E+04   -0.79034E-01   -0.12237E+01  4432   0.206E+00    0.109E+00
RMM:   2    -0.230969234726E+04   -0.90058E-01   -0.11540E+00  6098   0.485E-01    0.656E-01
RMM:   3    -0.230969841158E+04   -0.60643E-02   -0.11372E-01  5611   0.156E-01    0.733E-01
RMM:   4    -0.230969381645E+04    0.45951E-02   -0.13955E-02  5607   0.465E-02    0.304E-01
RMM:   5    -0.230969298557E+04    0.83088E-03   -0.38519E-03  4546   0.273E-02    0.146E-01
RMM:   6    -0.230969283866E+04    0.14692E-03   -0.74413E-04  3995   0.201E-02    0.403E-02
RMM:   7    -0.230969284723E+04   -0.85676E-05   -0.14755E-04  3375   0.668E-03    0.199E-02
RMM:   8    -0.230969284471E+04    0.25113E-05   -0.19871E-05  2887   0.488E-03
   9 F= -.23300798E+04 E0= -.23300798E+04  d E =-.169443E+00  mag=     4.0000
       N       E                     dE             d eps       ncg     rms          rms(c)
DAV:   1    -0.230969387262E+04   -0.10254E-02   -0.28814E-01  4728   0.309E-01    0.165E-01
RMM:   2    -0.230969592090E+04   -0.20483E-02   -0.25865E-02  6195   0.735E-02    0.109E-01
RMM:   3    -0.230969604907E+04   -0.12817E-03   -0.26076E-03  3577   0.233E-02    0.113E-01
RMM:   4    -0.230969594487E+04    0.10420E-03   -0.34109E-04  3013   0.823E-03    0.445E-02
RMM:   5    -0.230969592745E+04    0.17416E-04   -0.10769E-04  3007   0.562E-03    0.206E-02
RMM:   6    -0.230969592583E+04    0.16218E-05   -0.17656E-05  2835   0.474E-03
  10 F= -.23300829E+04 E0= -.23300829E+04  d E =-.172512E+00  mag=     4.0000
       N       E                     dE             d eps       ncg     rms          rms(c)
DAV:   1    -0.230964099997E+04    0.54927E-01   -0.12187E+01  4416   0.209E+00    0.105E+00
RMM:   2    -0.230981569422E+04   -0.17469E+00   -0.18479E+00  6233   0.496E-01    0.727E-01
RMM:   3    -0.230983431636E+04   -0.18622E-01   -0.22236E-01  5742   0.197E-01    0.888E-01
RMM:   4    -0.230982833567E+04    0.59807E-02   -0.19857E-02  5570   0.454E-02    0.306E-01
RMM:   5    -0.230982746925E+04    0.86642E-03   -0.42196E-03  4645   0.229E-02    0.160E-01
RMM:   6    -0.230982731107E+04    0.15818E-03   -0.11442E-03  4344   0.165E-02    0.678E-02
RMM:   7    -0.230982729716E+04    0.13915E-04   -0.16381E-04  3160   0.910E-03    0.277E-02
RMM:   8    -0.230982730185E+04   -0.46897E-05   -0.38586E-05  2931   0.469E-03
  11 F= -.23302147E+04 E0= -.23302147E+04  d E =-.131777E+00  mag=     4.0000
       N       E                     dE             d eps       ncg     rms          rms(c)
DAV:   1    -0.230978277466E+04    0.44522E-01   -0.44055E+00  4432   0.123E+00    0.624E-01
RMM:   2    -0.230984512491E+04   -0.62350E-01   -0.65204E-01  6214   0.287E-01    0.488E-01
RMM:   3    -0.230985042933E+04   -0.53044E-02   -0.73643E-02  5548   0.111E-01    0.519E-01
RMM:   4    -0.230984845095E+04    0.19784E-02   -0.70098E-03  4899   0.266E-02    0.180E-01
RMM:   5    -0.230984813169E+04    0.31927E-03   -0.15299E-03  4371   0.148E-02    0.907E-02
RMM:   6    -0.230984810478E+04    0.26903E-04   -0.33786E-04  3573   0.103E-02    0.420E-02
RMM:   7    -0.230984810957E+04   -0.47851E-05   -0.59609E-05  2871   0.578E-03
  12 F= -.23302358E+04 E0= -.23302358E+04  d E =-.152868E+00  mag=     4.0000
       N       E                     dE             d eps       ncg     rms          rms(c)
DAV:   1    -0.230990419204E+04   -0.56087E-01   -0.71309E+00  4408   0.162E+00    0.685E-01
RMM:   2    -0.230994063346E+04   -0.36441E-01   -0.43007E-01  6019   0.315E-01    0.353E-01
RMM:   3    -0.230994390673E+04   -0.32733E-02   -0.44915E-02  5279   0.115E-01    0.358E-01
RMM:   4    -0.230994360957E+04    0.29716E-03   -0.60379E-03  5140   0.298E-02    0.217E-01
RMM:   5    -0.230994323411E+04    0.37546E-03   -0.10976E-03  4365   0.183E-02    0.833E-02
RMM:   6    -0.230994326763E+04   -0.33527E-04   -0.24173E-04  3937   0.115E-02    0.467E-02
RMM:   7    -0.230994328501E+04   -0.17382E-04   -0.52110E-05  2987   0.559E-03    0.416E-02
RMM:   8    -0.230994330469E+04   -0.19672E-04   -0.27236E-05  2838   0.421E-03    0.385E-02
RMM:   9    -0.230994334531E+04   -0.40620E-04   -0.76452E-05  2857   0.465E-03    0.354E-02
RMM:  10    -0.230994338932E+04   -0.44018E-04   -0.11470E-04  2854   0.520E-03    0.293E-02
RMM:  11    -0.230994347112E+04   -0.81797E-04   -0.53485E-04  3363   0.871E-03    0.195E-02
RMM:  12    -0.230994349014E+04   -0.19016E-04   -0.17047E-04  2849   0.639E-03    0.139E-02
RMM:  13    -0.230994350117E+04   -0.11036E-04   -0.77338E-05  2758   0.364E-03    0.905E-03
RMM:  14    -0.230994350989E+04   -0.87117E-05   -0.48538E-05  2742   0.327E-03
  13 F= -.23303319E+04 E0= -.23303319E+04  d E =-.961014E-01  mag=     4.0000
       N       E                     dE             d eps       ncg     rms          rms(c)
DAV:   1    -0.230993375992E+04    0.97412E-02   -0.92497E+00  4400   0.188E+00    0.785E-01
RMM:   2    -0.230997987526E+04   -0.46115E-01   -0.54934E-01  6000   0.360E-01    0.402E-01
RMM:   3    -0.230998457238E+04   -0.46971E-02   -0.62002E-02  5319   0.136E-01    0.414E-01
RMM:   4    -0.230998401092E+04    0.56146E-03   -0.80502E-03  5327   0.341E-02    0.239E-01
RMM:   5    -0.230998354884E+04    0.46208E-03   -0.14163E-03  4473   0.206E-02    0.830E-02
RMM:   6    -0.230998356297E+04   -0.14136E-04   -0.26599E-04  4078   0.123E-02    0.432E-02
RMM:   7    -0.230998357261E+04   -0.96329E-05   -0.58391E-05  3115   0.584E-03
  14 F= -.23303728E+04 E0= -.23303728E+04  d E =-.137042E+00  mag=     4.0000
       N       E                     dE             d eps       ncg     rms          rms(c)
DAV:   1    -0.230998941518E+04   -0.58522E-02   -0.41078E+00  4448   0.154E+00    0.647E-01
RMM:   2    -0.231001246735E+04   -0.23052E-01   -0.26080E-01  5817   0.294E-01    0.362E-01
RMM:   3    -0.231001351018E+04   -0.10428E-02   -0.26676E-02  5202   0.109E-01    0.373E-01
RMM:   4    -0.231001216503E+04    0.13452E-02   -0.38942E-03  5327   0.335E-02    0.172E-01
RMM:   5    -0.231001179462E+04    0.37041E-03   -0.18248E-03  4966   0.260E-02    0.615E-02
RMM:   6    -0.231001177600E+04    0.18616E-04   -0.20795E-04  4429   0.133E-02    0.362E-02
RMM:   7    -0.231001177206E+04    0.39390E-05   -0.52508E-05  3236   0.529E-03
  15 F= -.23304008E+04 E0= -.23304008E+04  d E =-.279895E-01  mag=     4.0000
       N       E                     dE             d eps       ncg     rms          rms(c)
DAV:   1    -0.231001177771E+04   -0.17078E-05   -0.30763E-03  5176   0.428E-02    0.321E-02
RMM:   2    -0.231001180229E+04   -0.24580E-04   -0.20964E-04  3835   0.992E-03    0.288E-02
RMM:   3    -0.231001180676E+04   -0.44742E-05   -0.27352E-05  2835   0.547E-03
  16 F= -.23304008E+04 E0= -.23304008E+04  d E =-.280298E-01  mag=     4.0000
       N       E                     dE             d eps       ncg     rms          rms(c)
DAV:   1    -0.231001200987E+04   -0.20758E-03   -0.29325E+00  4416   0.111E+00    0.480E-01
RMM:   2    -0.231003441753E+04   -0.22408E-01   -0.23793E-01  5862   0.213E-01    0.316E-01
RMM:   3    -0.231003617050E+04   -0.17530E-02   -0.25879E-02  5450   0.887E-02    0.282E-01
RMM:   4    -0.231003556973E+04    0.60077E-03   -0.33832E-03  4733   0.212E-02    0.134E-01
RMM:   5    -0.231003539199E+04    0.17774E-03   -0.71829E-04  4190   0.139E-02    0.603E-02
RMM:   6    -0.231003539846E+04   -0.64668E-05   -0.15689E-04  3382   0.893E-03    0.424E-02
RMM:   7    -0.231003540554E+04   -0.70825E-05   -0.35790E-05  2867   0.527E-03
  17 F= -.23304242E+04 E0= -.23304242E+04  d E =-.233544E-01  mag=     4.0000
       N       E                     dE             d eps       ncg     rms          rms(c)
DAV:   1    -0.231003311778E+04    0.22807E-02   -0.65895E-01  4448   0.527E-01    0.232E-01
RMM:   2    -0.231003818794E+04   -0.50702E-02   -0.53606E-02  5890   0.101E-01    0.159E-01
RMM:   3    -0.231003855571E+04   -0.36777E-03   -0.56804E-03  4821   0.410E-02    0.137E-01
RMM:   4    -0.231003842894E+04    0.12677E-03   -0.74656E-04  3318   0.105E-02    0.695E-02
RMM:   5    -0.231003840228E+04    0.26665E-04   -0.15291E-04  3154   0.749E-03    0.401E-02
RMM:   6    -0.231003841727E+04   -0.14994E-04   -0.51034E-05  2893   0.558E-03    0.349E-02
RMM:   7    -0.231003842658E+04   -0.93086E-05   -0.19236E-05  2821   0.382E-03
  18 F= -.23304271E+04 E0= -.23304271E+04  d E =-.262588E-01  mag=     4.0000
       N       E                     dE             d eps       ncg     rms          rms(c)
DAV:   1    -0.231003290120E+04    0.55161E-02   -0.26499E+00  4440   0.126E+00    0.525E-01
RMM:   2    -0.231005461336E+04   -0.21712E-01   -0.23548E-01  5859   0.243E-01    0.267E-01
RMM:   3    -0.231005636975E+04   -0.17564E-02   -0.24611E-02  5399   0.965E-02    0.225E-01
RMM:   4    -0.231005614530E+04    0.22445E-03   -0.31831E-03  4979   0.243E-02    0.150E-01
RMM:   5    -0.231005596484E+04    0.18046E-03   -0.69050E-04  4700   0.165E-02    0.721E-02
RMM:   6    -0.231005594852E+04    0.16324E-04   -0.20154E-04  4223   0.982E-03    0.418E-02
RMM:   7    -0.231005595065E+04   -0.21322E-05   -0.38853E-05  2877   0.670E-03
  19 F= -.23304447E+04 E0= -.23304447E+04  d E =-.176267E-01  mag=     4.0000
       N       E                     dE             d eps       ncg     rms          rms(c)
DAV:   1    -0.231005508303E+04    0.86549E-03   -0.20036E-01  4688   0.347E-01    0.147E-01
RMM:   2    -0.231005675780E+04   -0.16748E-02   -0.17961E-02  5875   0.681E-02    0.839E-02
RMM:   3    -0.231005689563E+04   -0.13782E-03   -0.18661E-03  3974   0.249E-02    0.747E-02
RMM:   4    -0.231005687211E+04    0.23514E-04   -0.24843E-04  2971   0.757E-03    0.488E-02
RMM:   5    -0.231005686770E+04    0.44097E-05   -0.61525E-05  2910   0.571E-03
  20 F= -.23304457E+04 E0= -.23304457E+04  d E =-.185726E-01  mag=     4.0000
       N       E                     dE             d eps       ncg     rms          rms(c)
DAV:   1    -0.231004711398E+04    0.97581E-02   -0.16463E+00  4408   0.101E+00    0.423E-01
RMM:   2    -0.231006911333E+04   -0.21999E-01   -0.23284E-01  6131   0.215E-01    0.199E-01
RMM:   3    -0.231007101280E+04   -0.18995E-02   -0.23339E-02  5375   0.782E-02    0.120E-01
RMM:   4    -0.231007119174E+04   -0.17894E-03   -0.25532E-03  4308   0.183E-02    0.110E-01
RMM:   5    -0.231007113283E+04    0.58906E-04   -0.33426E-04  3312   0.106E-02    0.895E-02
RMM:   6    -0.231007109910E+04    0.33730E-04   -0.16620E-04  3671   0.828E-03    0.363E-02
RMM:   7    -0.231007110214E+04   -0.30373E-05   -0.36454E-05  2865   0.577E-03
  21 F= -.23304603E+04 E0= -.23304603E+04  d E =-.146919E-01  mag=     4.0000
       N       E                     dE             d eps       ncg     rms          rms(c)
DAV:   1    -0.230996674158E+04    0.10436E+00   -0.81154E+00  4400   0.225E+00    0.944E-01
RMM:   2    -0.231007566607E+04   -0.10892E+00   -0.11535E+00  6074   0.479E-01    0.462E-01
RMM:   3    -0.231008472579E+04   -0.90597E-02   -0.11614E-01  5519   0.171E-01    0.261E-01
RMM:   4    -0.231008526755E+04   -0.54176E-03   -0.11701E-02  4835   0.386E-02    0.175E-01
RMM:   5    -0.231008575100E+04   -0.48345E-03   -0.18497E-03  5013   0.235E-02    0.289E-01
RMM:   6    -0.231008497695E+04    0.77405E-03   -0.85728E-04  4645   0.158E-02    0.640E-02
RMM:   7    -0.231008496968E+04    0.72651E-05   -0.24227E-04  3248   0.908E-03    0.359E-02
RMM:   8    -0.231008496941E+04    0.27215E-06   -0.33631E-05  2873   0.478E-03
  22 F= -.23304752E+04 E0= -.23304752E+04  d E =-.295664E-01  mag=     4.0000
       N       E                     dE             d eps       ncg     rms          rms(c)
DAV:   1    -0.231008160214E+04    0.33675E-02   -0.97406E-01  4416   0.760E-01    0.310E-01
RMM:   2    -0.231009435627E+04   -0.12754E-01   -0.13383E-01  6143   0.161E-01    0.157E-01
RMM:   3    -0.231009539581E+04   -0.10395E-02   -0.13064E-02  5215   0.596E-02    0.996E-02
RMM:   4    -0.231009551712E+04   -0.12132E-03   -0.15600E-03  3670   0.139E-02    0.105E-01
RMM:   5    -0.231009542709E+04    0.90031E-04   -0.21947E-04  3092   0.857E-03    0.583E-02
RMM:   6    -0.231009542013E+04    0.69574E-05   -0.10056E-04  3087   0.692E-03    0.272E-02
RMM:   7    -0.231009542151E+04   -0.13745E-05   -0.22904E-05  2852   0.509E-03
  23 F= -.23304860E+04 E0= -.23304860E+04  d E =-.107970E-01  mag=     4.0000
       N       E                     dE             d eps       ncg     rms          rms(c)
DAV:   1    -0.231003374350E+04    0.61677E-01   -0.49989E+00  4400   0.172E+00    0.706E-01
RMM:   2    -0.231009905273E+04   -0.65309E-01   -0.68674E-01  6066   0.361E-01    0.363E-01
RMM:   3    -0.231010430406E+04   -0.52513E-02   -0.67557E-02  5438   0.131E-01    0.206E-01
RMM:   4    -0.231010455741E+04   -0.25335E-03   -0.71497E-03  4736   0.296E-02    0.140E-01
RMM:   5    -0.231010478050E+04   -0.22310E-03   -0.11551E-03  4707   0.180E-02    0.215E-01
RMM:   6    -0.231010436469E+04    0.41581E-03   -0.53577E-04  4331   0.124E-02    0.402E-02
RMM:   7    -0.231010435411E+04    0.10580E-04   -0.11594E-04  2948   0.706E-03    0.198E-02
RMM:   8    -0.231010435128E+04    0.28342E-05   -0.19027E-05  2870   0.357E-03
  24 F= -.23304957E+04 E0= -.23304957E+04  d E =-.205112E-01  mag=     4.0000
       N       E                     dE             d eps       ncg     rms          rms(c)
DAV:   1    -0.231010271327E+04    0.16408E-02   -0.54532E-01  4528   0.567E-01    0.234E-01
RMM:   2    -0.231010976910E+04   -0.70558E-02   -0.72395E-02  6065   0.116E-01    0.126E-01
RMM:   3    -0.231011037493E+04   -0.60583E-03   -0.73433E-03  4922   0.458E-02    0.725E-02
RMM:   4    -0.231011038498E+04   -0.10050E-04   -0.79065E-04  3411   0.106E-02    0.483E-02
RMM:   5    -0.231011037388E+04    0.11102E-04   -0.10934E-04  3084   0.738E-03    0.314E-02
RMM:   6    -0.231011037702E+04   -0.31426E-05   -0.41858E-05  2880   0.549E-03
  25 F= -.23305018E+04 E0= -.23305018E+04  d E =-.608652E-02  mag=     4.0000
       N       E                     dE             d eps       ncg     rms          rms(c)
DAV:   1    -0.231004901861E+04    0.61355E-01   -0.48886E+00  4400   0.170E+00    0.701E-01
RMM:   2    -0.231011213229E+04   -0.63114E-01   -0.64872E-01  6062   0.346E-01    0.380E-01
RMM:   3    -0.231011812518E+04   -0.59929E-02   -0.71002E-02  5462   0.131E-01    0.221E-01
RMM:   4    -0.231011822623E+04   -0.10105E-03   -0.71155E-03  4723   0.298E-02    0.159E-01
RMM:   5    -0.231011827583E+04   -0.49601E-04   -0.13041E-03  4666   0.200E-02    0.177E-01
RMM:   6    -0.231011799241E+04    0.28342E-03   -0.46594E-04  4574   0.122E-02    0.465E-02
RMM:   7    -0.231011798618E+04    0.62274E-05   -0.67192E-05  2895   0.715E-03
  26 F= -.23305096E+04 E0= -.23305096E+04  d E =-.138709E-01  mag=     4.0000
       N       E                     dE             d eps       ncg     rms          rms(c)
DAV:   1    -0.231011629089E+04    0.17015E-02   -0.50367E-01  4528   0.501E-01    0.219E-01
RMM:   2    -0.231012308537E+04   -0.67945E-02   -0.69309E-02  6008   0.101E-01    0.137E-01
RMM:   3    -0.231012367691E+04   -0.59154E-03   -0.66499E-03  4483   0.411E-02    0.882E-02
RMM:   4    -0.231012368270E+04   -0.57868E-05   -0.78305E-04  3135   0.957E-03    0.705E-02
RMM:   5    -0.231012365250E+04    0.30194E-04   -0.13915E-04  2917   0.682E-03    0.458E-02
RMM:   6    -0.231012365163E+04    0.87271E-06   -0.68389E-05  3001   0.561E-03
  27 F= -.23305153E+04 E0= -.23305153E+04  d E =-.571100E-02  mag=     4.0000
       N       E                     dE             d eps       ncg     rms          rms(c)
DAV:   1    -0.231007343695E+04    0.50216E-01   -0.38674E+00  4400   0.139E+00    0.597E-01
RMM:   2    -0.231012522212E+04   -0.51785E-01   -0.52924E-01  6009   0.278E-01    0.354E-01
RMM:   3    -0.231013010207E+04   -0.48799E-02   -0.54569E-02  5507   0.115E-01    0.219E-01
RMM:   4    -0.231013014936E+04   -0.47292E-04   -0.59333E-03  4838   0.241E-02    0.184E-01
RMM:   5    -0.231012997496E+04    0.17440E-03   -0.10351E-03  4197   0.158E-02    0.136E-01
RMM:   6    -0.231012984184E+04    0.13312E-03   -0.51423E-04  4576   0.116E-02    0.649E-02
RMM:   7    -0.231012983324E+04    0.86039E-05   -0.76280E-05  2897   0.743E-03
  28 F= -.23305216E+04 E0= -.23305216E+04  d E =-.120181E-01  mag=     4.0000
       N       E                     dE             d eps       ncg     rms          rms(c)
DAV:   1    -0.231012200375E+04    0.78381E-02   -0.93380E-01  4456   0.667E-01    0.295E-01
RMM:   2    -0.231013480577E+04   -0.12802E-01   -0.13001E-01  5953   0.134E-01    0.193E-01
RMM:   3    -0.231013595544E+04   -0.11497E-02   -0.12564E-02  5160   0.574E-02    0.134E-01
RMM:   4    -0.231013594057E+04    0.14869E-04   -0.14742E-03  3422   0.129E-02    0.103E-01
RMM:   5    -0.231013586907E+04    0.71502E-04   -0.28673E-04  3364   0.931E-03    0.623E-02
RMM:   6    -0.231013587121E+04   -0.21444E-05   -0.11352E-04  3069   0.731E-03    0.410E-02
RMM:   7    -0.231013587835E+04   -0.71443E-05   -0.30881E-05  2856   0.528E-03
  29 F= -.23305279E+04 E0= -.23305279E+04  d E =-.630865E-02  mag=     4.0000
       N       E                     dE             d eps       ncg     rms          rms(c)
DAV:   1    -0.231010748189E+04    0.28389E-01   -0.22160E+00  4400   0.103E+00    0.452E-01
RMM:   2    -0.231013777545E+04   -0.30294E-01   -0.30787E-01  5957   0.208E-01    0.294E-01
RMM:   3    -0.231014066521E+04   -0.28898E-02   -0.31331E-02  5388   0.913E-02    0.210E-01
RMM:   4    -0.231014058525E+04    0.79964E-04   -0.35154E-03  4559   0.196E-02    0.153E-01
RMM:   5    -0.231014039410E+04    0.19115E-03   -0.64025E-04  4113   0.132E-02    0.878E-02
RMM:   6    -0.231014036376E+04    0.30332E-04   -0.24376E-04  3863   0.961E-03    0.461E-02
RMM:   7    -0.231014036883E+04   -0.50670E-05   -0.46213E-05  2869   0.635E-03
  30 F= -.23305328E+04 E0= -.23305328E+04  d E =-.112077E-01  mag=     4.0000
       N       E                     dE             d eps       ncg     rms          rms(c)
DAV:   1    -0.231013609383E+04    0.42699E-02   -0.30275E-01  4592   0.380E-01    0.170E-01
RMM:   2    -0.231014028018E+04   -0.41863E-02   -0.42465E-02  5996   0.775E-02    0.113E-01
RMM:   3    -0.231014064347E+04   -0.36329E-03   -0.39660E-03  3969   0.324E-02    0.778E-02
RMM:   4    -0.231014064351E+04   -0.44543E-07   -0.47650E-04  3001   0.812E-03    0.611E-02
RMM:   5    -0.231014062748E+04    0.16035E-04   -0.99265E-05  2919   0.598E-03    0.413E-02
RMM:   6    -0.231014063537E+04   -0.78959E-05   -0.49385E-05  2871   0.505E-03
  31 F= -.23305332E+04 E0= -.23305332E+04  d E =-.116258E-01  mag=     4.0000
       N       E                     dE             d eps       ncg     rms          rms(c)
DAV:   1    -0.231013177729E+04    0.88502E-02   -0.84280E-01  4424   0.703E-01    0.310E-01
RMM:   2    -0.231014449707E+04   -0.12720E-01   -0.13173E-01  5836   0.143E-01    0.178E-01
RMM:   3    -0.231014545907E+04   -0.96201E-03   -0.10949E-02  5201   0.593E-02    0.116E-01
RMM:   4    -0.231014546589E+04   -0.68202E-05   -0.14336E-03  4173   0.142E-02    0.106E-01
RMM:   5    -0.231014537432E+04    0.91578E-04   -0.30266E-04  3867   0.106E-02    0.609E-02
RMM:   6    -0.231014535871E+04    0.15610E-04   -0.11282E-04  3635   0.763E-03    0.312E-02
RMM:   7    -0.231014536432E+04   -0.56136E-05   -0.21342E-05  2846   0.557E-03
  32 F= -.23305385E+04 E0= -.23305385E+04  d E =-.526630E-02  mag=     4.0000
       N       E                     dE             d eps       ncg     rms          rms(c)
DAV:   1    -0.231013345538E+04    0.11903E-01   -0.81130E-01  4432   0.689E-01    0.303E-01
RMM:   2    -0.231014572185E+04   -0.12266E-01   -0.12691E-01  5859   0.141E-01    0.177E-01
RMM:   3    -0.231014661667E+04   -0.89482E-03   -0.10449E-02  5250   0.586E-02    0.116E-01
RMM:   4    -0.231014660853E+04    0.81366E-05   -0.13668E-03  4166   0.140E-02    0.101E-01
RMM:   5    -0.231014652075E+04    0.87787E-04   -0.30175E-04  3940   0.107E-02    0.598E-02
RMM:   6    -0.231014650101E+04    0.19736E-04   -0.11087E-04  3646   0.758E-03    0.314E-02
RMM:   7    -0.231014650406E+04   -0.30494E-05   -0.21677E-05  2845   0.560E-03
  33 F= -.23305402E+04 E0= -.23305402E+04  d E =-.693196E-02  mag=     4.0000
       N       E                     dE             d eps       ncg     rms          rms(c)
DAV:   1    -0.231012857104E+04    0.17930E-01   -0.11581E+00  4400   0.738E-01    0.354E-01
RMM:   2    -0.231014940965E+04   -0.20839E-01   -0.21389E-01  5989   0.159E-01    0.209E-01
RMM:   3    -0.231015114858E+04   -0.17389E-02   -0.18012E-02  5313   0.679E-02    0.124E-01
RMM:   4    -0.231015119771E+04   -0.49133E-04   -0.22013E-03  3897   0.143E-02    0.110E-01
RMM:   5    -0.231015113264E+04    0.65072E-04   -0.33297E-04  3248   0.957E-03    0.827E-02
RMM:   6    -0.231015109376E+04    0.38878E-04   -0.15990E-04  3305   0.766E-03    0.371E-02
RMM:   7    -0.231015110072E+04   -0.69550E-05   -0.29798E-05  2867   0.538E-03
  34 F= -.23305455E+04 E0= -.23305455E+04  d E =-.530145E-02  mag=     4.0000
       N       E                     dE             d eps       ncg     rms          rms(c)
DAV:   1    -0.231011951341E+04    0.31580E-01   -0.17242E+00  4400   0.902E-01    0.432E-01
RMM:   2    -0.231015045664E+04   -0.30943E-01   -0.31767E-01  6008   0.194E-01    0.255E-01
RMM:   3    -0.231015310910E+04   -0.26525E-02   -0.27707E-02  5433   0.805E-02    0.151E-01
RMM:   4    -0.231015315736E+04   -0.48261E-04   -0.32633E-03  4308   0.172E-02    0.124E-01
RMM:   5    -0.231015309834E+04    0.59018E-04   -0.48588E-04  3568   0.114E-02    0.107E-01
RMM:   6    -0.231015302529E+04    0.73050E-04   -0.24188E-04  3689   0.876E-03    0.483E-02
RMM:   7    -0.231015302878E+04   -0.34916E-05   -0.47877E-05  2877   0.593E-03
  35 F= -.23305483E+04 E0= -.23305483E+04  d E =-.808439E-02  mag=     4.0000
       N       E                     dE             d eps       ncg     rms          rms(c)
DAV:   1    -0.231012979444E+04    0.23231E-01   -0.14402E+00  4424   0.815E-01    0.393E-01
RMM:   2    -0.231015627707E+04   -0.26483E-01   -0.27072E-01  6045   0.174E-01    0.235E-01
RMM:   3    -0.231015851584E+04   -0.22388E-02   -0.23331E-02  5354   0.720E-02    0.139E-01
RMM:   4    -0.231015857910E+04   -0.63259E-04   -0.27995E-03  3849   0.155E-02    0.122E-01
RMM:   5    -0.231015849931E+04    0.79790E-04   -0.40682E-04  3288   0.981E-03    0.975E-02
RMM:   6    -0.231015843515E+04    0.64156E-04   -0.21099E-04  3389   0.836E-03    0.367E-02
RMM:   7    -0.231015844444E+04   -0.92874E-05   -0.35622E-05  2867   0.544E-03
  36 F= -.23305544E+04 E0= -.23305544E+04  d E =-.609833E-02  mag=     4.0000
       N       E                     dE             d eps       ncg     rms          rms(c)
DAV:   1    -0.231010117398E+04    0.57261E-01   -0.29876E+00  4400   0.117E+00    0.566E-01
RMM:   2    -0.231015594671E+04   -0.54773E-01   -0.56002E-01  6058   0.251E-01    0.341E-01
RMM:   3    -0.231016095338E+04   -0.50067E-02   -0.52265E-02  5469   0.106E-01    0.210E-01
RMM:   4    -0.231016106202E+04   -0.10864E-03   -0.59168E-03  4653   0.221E-02    0.177E-01
RMM:   5    -0.231016087228E+04    0.18974E-03   -0.81300E-04  3920   0.132E-02    0.138E-01
RMM:   6    -0.231016071240E+04    0.15988E-03   -0.46749E-04  4198   0.111E-02    0.473E-02
RMM:   7    -0.231016071796E+04   -0.55639E-05   -0.68746E-05  2911   0.704E-03
  37 F= -.23305576E+04 E0= -.23305576E+04  d E =-.935253E-02  mag=     4.0000
       N       E                     dE             d eps       ncg     rms          rms(c)
DAV:   1    -0.231015382186E+04    0.68905E-02   -0.47565E-01  4528   0.458E-01    0.228E-01
RMM:   2    -0.231016292361E+04   -0.91018E-02   -0.93067E-02  6191   0.981E-02    0.135E-01
RMM:   3    -0.231016366438E+04   -0.74077E-03   -0.74937E-03  4287   0.397E-02    0.766E-02
RMM:   4    -0.231016367864E+04   -0.14259E-04   -0.91427E-04  3007   0.899E-03    0.554E-02
RMM:   5    -0.231016366062E+04    0.18018E-04   -0.11885E-04  2981   0.578E-03    0.299E-02
RMM:   6    -0.231016366995E+04   -0.93313E-05   -0.27639E-05  2853   0.478E-03
  38 F= -.23305610E+04 E0= -.23305610E+04  d E =-.333538E-02  mag=     4.0000
       N       E                     dE             d eps       ncg     rms          rms(c)
DAV:   1    -0.231008052133E+04    0.83139E-01   -0.42650E+00  4400   0.137E+00    0.677E-01
RMM:   2    -0.231016190005E+04   -0.81379E-01   -0.83192E-01  6159   0.294E-01    0.411E-01
RMM:   3    -0.231016985766E+04   -0.79576E-02   -0.83496E-02  5508   0.123E-01    0.253E-01
RMM:   4    -0.231016990318E+04   -0.45526E-04   -0.87386E-03  4612   0.251E-02    0.180E-01
RMM:   5    -0.231016967643E+04    0.22675E-03   -0.10453E-03  4137   0.145E-02    0.151E-01
RMM:   6    -0.231016958328E+04    0.93159E-04   -0.65435E-04  4014   0.115E-02    0.913E-02
RMM:   7    -0.231016952583E+04    0.57446E-04   -0.15056E-04  2952   0.755E-03    0.400E-02
RMM:   8    -0.231016952765E+04   -0.18223E-05   -0.43760E-05  2857   0.493E-03
  39 F= -.23305680E+04 E0= -.23305680E+04  d E =-.103436E-01  mag=     4.0000
       N       E                     dE             d eps       ncg     rms          rms(c)
DAV:   1    -0.230980478177E+04    0.36474E+00   -0.17053E+01  4408   0.274E+00    0.136E+00
RMM:   2    -0.231013492980E+04   -0.33015E+00   -0.33839E+00  6250   0.602E-01    0.835E-01
RMM:   3    -0.231017001931E+04   -0.35090E-01   -0.37359E-01  5693   0.247E-01    0.556E-01
RMM:   4    -0.231016978068E+04    0.23863E-03   -0.35798E-02  5430   0.500E-02    0.386E-01
RMM:   5    -0.231016877668E+04    0.10040E-02   -0.43891E-03  4899   0.270E-02    0.334E-01
RMM:   6    -0.231016812786E+04    0.64882E-03   -0.32962E-03  5287   0.231E-02    0.187E-01
RMM:   7    -0.231016787276E+04    0.25511E-03   -0.75627E-04  4241   0.142E-02    0.763E-02
RMM:   8    -0.231016783538E+04    0.37379E-04   -0.16261E-04  3025   0.782E-03    0.441E-02
RMM:   9    -0.231016785275E+04   -0.17375E-04   -0.71316E-05  2858   0.508E-03    0.325E-02
RMM:  10    -0.231016788167E+04   -0.28916E-04   -0.39456E-05  2864   0.390E-03    0.267E-02
RMM:  11    -0.231016791253E+04   -0.30864E-04   -0.49508E-05  2844   0.407E-03    0.229E-02
RMM:  12    -0.231016793199E+04   -0.19458E-04   -0.43527E-05  2827   0.386E-03    0.210E-02
RMM:  13    -0.231016796145E+04   -0.29461E-04   -0.19076E-04  2925   0.546E-03    0.162E-02
RMM:  14    -0.231016797185E+04   -0.10398E-04   -0.27056E-04  2947   0.636E-03    0.111E-02
RMM:  15    -0.231016798144E+04   -0.95864E-05   -0.46301E-05  2735   0.395E-03
  40 F= -.23305687E+04 E0= -.23305687E+04  d E =-.111011E-01  mag=     4.0000
       N       E                     dE             d eps       ncg     rms          rms(c)
DAV:   1    -0.231009494899E+04    0.73023E-01   -0.36391E+00  4408   0.126E+00    0.636E-01
RMM:   2    -0.231016405472E+04   -0.69106E-01   -0.70716E-01  6194   0.272E-01    0.404E-01
RMM:   3    -0.231017131075E+04   -0.72560E-02   -0.77882E-02  5574   0.117E-01    0.245E-01
RMM:   4    -0.231017136453E+04   -0.53781E-04   -0.75035E-03  4489   0.241E-02    0.166E-01
RMM:   5    -0.231017103970E+04    0.32483E-03   -0.71449E-04  3989   0.124E-02    0.933E-02
RMM:   6    -0.231017112377E+04   -0.84071E-04   -0.53495E-04  4018   0.114E-02    0.125E-01
RMM:   7    -0.231017098372E+04    0.14005E-03   -0.19712E-04  2909   0.774E-03    0.237E-02
RMM:   8    -0.231017098327E+04    0.45061E-06   -0.42676E-05  2879   0.402E-03
  41 F= -.23305707E+04 E0= -.23305707E+04  d E =-.130389E-01  mag=     4.0000
       N       E                     dE             d eps       ncg     rms          rms(c)
DAV:   1    -0.231015448005E+04    0.16504E-01   -0.99588E-01  4448   0.708E-01    0.343E-01
RMM:   2    -0.231017384991E+04   -0.19370E-01   -0.19837E-01  5956   0.152E-01    0.199E-01
RMM:   3    -0.231017545056E+04   -0.16006E-02   -0.16991E-02  5247   0.663E-02    0.116E-01
RMM:   4    -0.231017547486E+04   -0.24303E-04   -0.20130E-03  3930   0.140E-02    0.996E-02
RMM:   5    -0.231017540094E+04    0.73923E-04   -0.29226E-04  3187   0.950E-03    0.738E-02
RMM:   6    -0.231017534982E+04    0.51120E-04   -0.15777E-04  3634   0.794E-03    0.205E-02
RMM:   7    -0.231017534664E+04    0.31779E-05   -0.18686E-05  2859   0.529E-03
  42 F= -.23305756E+04 E0= -.23305756E+04  d E =-.494084E-02  mag=     4.0000
       N       E                     dE             d eps       ncg     rms          rms(c)
DAV:   1    -0.231010456748E+04    0.70782E-01   -0.34594E+00  4408   0.132E+00    0.642E-01
RMM:   2    -0.231017168578E+04   -0.67118E-01   -0.68891E-01  5976   0.286E-01    0.376E-01
RMM:   3    -0.231017806485E+04   -0.63791E-02   -0.68214E-02  5506   0.125E-01    0.232E-01
RMM:   4    -0.231017807515E+04   -0.10298E-04   -0.72178E-03  4938   0.255E-02    0.176E-01
RMM:   5    -0.231017788281E+04    0.19233E-03   -0.10250E-03  4438   0.164E-02    0.151E-01
RMM:   6    -0.231017768623E+04    0.19659E-03   -0.60530E-04  4647   0.125E-02    0.585E-02
RMM:   7    -0.231017765559E+04    0.30632E-04   -0.93034E-05  2983   0.831E-03    0.237E-02
RMM:   8    -0.231017764827E+04    0.73259E-05   -0.28828E-05  2869   0.466E-03
  43 F= -.23305790E+04 E0= -.23305790E+04  d E =-.831517E-02  mag=     4.0000
       N       E                     dE             d eps       ncg     rms          rms(c)
DAV:   1    -0.231016096440E+04    0.16691E-01   -0.91741E-01  4464   0.679E-01    0.333E-01
RMM:   2    -0.231017926468E+04   -0.18300E-01   -0.18894E-01  6068   0.149E-01    0.192E-01
RMM:   3    -0.231018075267E+04   -0.14880E-02   -0.16022E-02  5382   0.633E-02    0.117E-01
RMM:   4    -0.231018079340E+04   -0.40726E-04   -0.19472E-03  3599   0.138E-02    0.104E-01
RMM:   5    -0.231018069278E+04    0.10062E-03   -0.29197E-04  3284   0.925E-03    0.651E-02
RMM:   6    -0.231018065715E+04    0.35626E-04   -0.14624E-04  3573   0.785E-03    0.160E-02
RMM:   7    -0.231018065704E+04    0.11454E-06   -0.16349E-05  2841   0.532E-03
  44 F= -.23305825E+04 E0= -.23305825E+04  d E =-.356278E-02  mag=     4.0000
       N       E                     dE             d eps       ncg     rms          rms(c)
DAV:   1    -0.231016535413E+04    0.15303E-01   -0.73269E-01  4440   0.606E-01    0.298E-01
RMM:   2    -0.231018000801E+04   -0.14654E-01   -0.15122E-01  5949   0.132E-01    0.172E-01
RMM:   3    -0.231018117120E+04   -0.11632E-02   -0.12551E-02  5185   0.573E-02    0.105E-01
RMM:   4    -0.231018120356E+04   -0.32362E-04   -0.15495E-03  3410   0.124E-02    0.932E-02
RMM:   5    -0.231018111957E+04    0.83992E-04   -0.23926E-04  3158   0.846E-03    0.575E-02
RMM:   6    -0.231018109222E+04    0.27345E-04   -0.11714E-04  3333   0.721E-03    0.152E-02
RMM:   7    -0.231018109204E+04    0.18359E-06   -0.14688E-05  2840   0.520E-03
  45 F= -.23305835E+04 E0= -.23305835E+04  d E =-.448993E-02  mag=     4.0000
       N       E                     dE             d eps       ncg     rms          rms(c)
DAV:   1    -0.231016363279E+04    0.17459E-01   -0.91260E-01  4416   0.677E-01    0.330E-01
RMM:   2    -0.231018222398E+04   -0.18591E-01   -0.19375E-01  5946   0.149E-01    0.190E-01
RMM:   3    -0.231018373795E+04   -0.15140E-02   -0.16483E-02  5139   0.696E-02    0.108E-01
RMM:   4    -0.231018376098E+04   -0.23027E-04   -0.19381E-03  3652   0.133E-02    0.809E-02
RMM:   5    -0.231018368996E+04    0.71020E-04   -0.27571E-04  3289   0.927E-03    0.551E-02
RMM:   6    -0.231018368197E+04    0.79853E-05   -0.12163E-04  3062   0.716E-03    0.406E-02
RMM:   7    -0.231018366643E+04    0.15540E-04   -0.30063E-05  2851   0.527E-03    0.131E-02
RMM:   8    -0.231018366625E+04    0.18379E-06   -0.92492E-06  2833   0.295E-03
  46 F= -.23305865E+04 E0= -.23305865E+04  d E =-.306667E-02  mag=     4.0000
       N       E                     dE             d eps       ncg     rms          rms(c)
DAV:   1    -0.231017581710E+04    0.78493E-02   -0.36908E-01  4528   0.431E-01    0.210E-01
RMM:   2    -0.231018334732E+04   -0.75302E-02   -0.78379E-02  5956   0.946E-02    0.121E-01
RMM:   3    -0.231018394151E+04   -0.59418E-03   -0.64814E-03  4198   0.423E-02    0.675E-02
RMM:   4    -0.231018395146E+04   -0.99583E-05   -0.77606E-04  3086   0.892E-03    0.514E-02
RMM:   5    -0.231018392539E+04    0.26077E-04   -0.12161E-04  2932   0.629E-03    0.363E-02
RMM:   6    -0.231018392227E+04    0.31210E-05   -0.50806E-05  2891   0.532E-03
  47 F= -.23305871E+04 E0= -.23305871E+04  d E =-.363109E-02  mag=     4.0000
       N       E                     dE             d eps       ncg     rms          rms(c)
DAV:   1    -0.231016805979E+04    0.15866E-01   -0.82682E-01  4448   0.688E-01    0.318E-01
RMM:   2    -0.231018513083E+04   -0.17071E-01   -0.17913E-01  5841   0.151E-01    0.183E-01
RMM:   3    -0.231018647532E+04   -0.13445E-02   -0.14993E-02  5178   0.676E-02    0.107E-01
RMM:   4    -0.231018650941E+04   -0.34091E-04   -0.17829E-03  3825   0.138E-02    0.889E-02
RMM:   5    -0.231018643948E+04    0.69930E-04   -0.25467E-04  3302   0.937E-03    0.632E-02
RMM:   6    -0.231018641304E+04    0.26440E-04   -0.14579E-04  3672   0.778E-03    0.270E-02
RMM:   7    -0.231018641118E+04    0.18611E-05   -0.19540E-05  2839   0.550E-03
  48 F= -.23305900E+04 E0= -.23305900E+04  d E =-.287584E-02  mag=     4.0000
       N       E                     dE             d eps       ncg     rms          rms(c)
DAV:   1    -0.231017942136E+04    0.69917E-02   -0.32470E-01  4544   0.431E-01    0.200E-01
RMM:   2    -0.231018614169E+04   -0.67203E-02   -0.70373E-02  5925   0.955E-02    0.118E-01
RMM:   3    -0.231018665942E+04   -0.51773E-03   -0.57671E-03  4627   0.419E-02    0.708E-02
RMM:   4    -0.231018667065E+04   -0.11227E-04   -0.69807E-04  3035   0.899E-03    0.575E-02
RMM:   5    -0.231018664449E+04    0.26158E-04   -0.10422E-04  2907   0.627E-03    0.419E-02
RMM:   6    -0.231018663950E+04    0.49915E-05   -0.67736E-05  2931   0.579E-03
  49 F= -.23305904E+04 E0= -.23305904E+04  d E =-.333991E-02  mag=     4.0000
       N       E                     dE             d eps       ncg     rms          rms(c)
DAV:   1    -0.231017875635E+04    0.78881E-02   -0.43963E-01  4416   0.544E-01    0.238E-01
RMM:   2    -0.231018730671E+04   -0.85504E-02   -0.89967E-02  5966   0.117E-01    0.132E-01
RMM:   3    -0.231018797572E+04   -0.66902E-03   -0.78256E-03  5108   0.485E-02    0.778E-02
RMM:   4    -0.231018799243E+04   -0.16706E-04   -0.89092E-04  3271   0.107E-02    0.641E-02
RMM:   5    -0.231018796433E+04    0.28100E-04   -0.14555E-04  3054   0.751E-03    0.474E-02
RMM:   6    -0.231018795754E+04    0.67852E-05   -0.72625E-05  2984   0.634E-03
  50 F= -.23305920E+04 E0= -.23305920E+04  d E =-.152260E-02  mag=     4.0000
       N       E                     dE             d eps       ncg     rms          rms(c)
DAV:   1    -0.231018514072E+04    0.28236E-02   -0.13744E-01  4568   0.304E-01    0.135E-01
RMM:   2    -0.231018782774E+04   -0.26870E-02   -0.28328E-02  6198   0.670E-02    0.741E-02
RMM:   3    -0.231018804503E+04   -0.21729E-03   -0.24739E-03  3662   0.266E-02    0.457E-02
RMM:   4    -0.231018805391E+04   -0.88820E-05   -0.28247E-04  2933   0.674E-03    0.391E-02
RMM:   5    -0.231018805011E+04    0.38001E-05   -0.49661E-05  2866   0.472E-03
  51 F= -.23305922E+04 E0= -.23305922E+04  d E =-.172668E-02  mag=     4.0000
       N       E                     dE             d eps       ncg     rms          rms(c)
DAV:   1    -0.231017777952E+04    0.10274E-01   -0.51213E-01  4408   0.575E-01    0.250E-01
RMM:   2    -0.231018814145E+04   -0.10362E-01   -0.10833E-01  6068   0.126E-01    0.147E-01
RMM:   3    -0.231018898047E+04   -0.83902E-03   -0.10136E-02  5101   0.553E-02    0.830E-02
RMM:   4    -0.231018899455E+04   -0.14084E-04   -0.10727E-03  3263   0.110E-02    0.617E-02
RMM:   5    -0.231018894568E+04    0.48873E-04   -0.16046E-04  3187   0.812E-03    0.340E-02
RMM:   6    -0.231018895205E+04   -0.63698E-05   -0.70928E-05  2991   0.641E-03
  52 F= -.23305932E+04 E0= -.23305932E+04  d E =-.105904E-02  mag=     4.0000
       N       E                     dE             d eps       ncg     rms          rms(c)
DAV:   1    -0.231018894400E+04    0.16767E-05   -0.53732E-05  3912   0.876E-03    0.187E-02
RMM:   2    -0.231018894807E+04   -0.40708E-05   -0.16440E-05  2778   0.388E-03
  53 F= -.23305932E+04 E0= -.23305932E+04  d E =-.105432E-02  mag=     4.0000
       N       E                     dE             d eps       ncg     rms          rms(c)
DAV:   1    -0.231018002284E+04    0.89212E-02   -0.47897E-01  4448   0.580E-01    0.247E-01
RMM:   2    -0.231018952515E+04   -0.95023E-02   -0.98175E-02  5932   0.122E-01    0.167E-01
RMM:   3    -0.231019021515E+04   -0.69000E-03   -0.89936E-03  5064   0.540E-02    0.107E-01
RMM:   4    -0.231019016945E+04    0.45701E-04   -0.10060E-03  3221   0.110E-02    0.645E-02
RMM:   5    -0.231019012025E+04    0.49192E-04   -0.10913E-04  2952   0.683E-03    0.385E-02
RMM:   6    -0.231019011418E+04    0.60719E-05   -0.89799E-05  3323   0.660E-03
  54 F= -.23305944E+04 E0= -.23305944E+04  d E =-.122871E-02  mag=     4.0000
       N       E                     dE             d eps       ncg     rms          rms(c)
DAV:   1    -0.231018504511E+04    0.50751E-02   -0.24895E-01  4448   0.418E-01    0.179E-01
RMM:   2    -0.231018999195E+04   -0.49468E-02   -0.51315E-02  6090   0.894E-02    0.121E-01
RMM:   3    -0.231019036544E+04   -0.37349E-03   -0.47718E-03  4509   0.391E-02    0.795E-02
RMM:   4    -0.231019033945E+04    0.25990E-04   -0.53411E-04  2997   0.852E-03    0.481E-02
RMM:   5    -0.231019031458E+04    0.24874E-04   -0.58587E-05  2879   0.516E-03    0.291E-02
RMM:   6    -0.231019031271E+04    0.18627E-05   -0.45253E-05  2901   0.506E-03
  55 F= -.23305947E+04 E0= -.23305947E+04  d E =-.146689E-02  mag=     4.0000
       N       E                     dE             d eps       ncg     rms          rms(c)
DAV:   1    -0.231018382501E+04    0.64896E-02   -0.36823E-01  4432   0.513E-01    0.212E-01
RMM:   2    -0.231019112315E+04   -0.72981E-02   -0.74535E-02  6166   0.107E-01    0.170E-01
RMM:   3    -0.231019156582E+04   -0.44267E-03   -0.69653E-03  4931   0.466E-02    0.967E-02
RMM:   4    -0.231019152431E+04    0.41506E-04   -0.76192E-04  3086   0.982E-03    0.534E-02
RMM:   5    -0.231019148741E+04    0.36906E-04   -0.71325E-05  2901   0.598E-03    0.316E-02
RMM:   6    -0.231019148470E+04    0.27039E-05   -0.64664E-05  3005   0.598E-03
  56 F= -.23305958E+04 E0= -.23305958E+04  d E =-.116441E-02  mag=     4.0000
       N       E                     dE             d eps       ncg     rms          rms(c)
DAV:   1    -0.231017550138E+04    0.15986E-01   -0.79716E-01  4432   0.754E-01    0.313E-01
RMM:   2    -0.231019134029E+04   -0.15839E-01   -0.16135E-01  5960   0.157E-01    0.260E-01
RMM:   3    -0.231019224686E+04   -0.90657E-03   -0.15284E-02  5321   0.708E-02    0.142E-01
RMM:   4    -0.231019215789E+04    0.88963E-04   -0.16573E-03  3663   0.139E-02    0.764E-02
RMM:   5    -0.231019207400E+04    0.83895E-04   -0.15080E-04  3201   0.814E-03    0.435E-02
RMM:   6    -0.231019206242E+04    0.11579E-04   -0.13392E-04  3700   0.798E-03    0.248E-02
RMM:   7    -0.231019206011E+04    0.23066E-05   -0.24820E-05  2843   0.587E-03
  57 F= -.23305964E+04 E0= -.23305964E+04  d E =-.171404E-02  mag=     4.0000
       N       E                     dE             d eps       ncg     rms          rms(c)
DAV:   1    -0.231018453766E+04    0.75248E-02   -0.39676E-01  4456   0.516E-01    0.221E-01
RMM:   2    -0.231019281705E+04   -0.82794E-02   -0.83815E-02  6121   0.111E-01    0.205E-01
RMM:   3    -0.231019315996E+04   -0.34292E-03   -0.78799E-03  4954   0.440E-02    0.972E-02
RMM:   4    -0.231019313327E+04    0.26693E-04   -0.85671E-04  3061   0.931E-03    0.535E-02
RMM:   5    -0.231019308815E+04    0.45122E-04   -0.68495E-05  2891   0.550E-03    0.329E-02
RMM:   6    -0.231019307964E+04    0.85040E-05   -0.86971E-05  2965   0.617E-03
  58 F= -.23305974E+04 E0= -.23305974E+04  d E =-.102448E-02  mag=     4.0000
       N       E                     dE             d eps       ncg     rms          rms(c)
DAV:   1    -0.231017282722E+04    0.20261E-01   -0.96036E-01  4432   0.803E-01    0.344E-01
RMM:   2    -0.231019286025E+04   -0.20033E-01   -0.20284E-01  5957   0.172E-01    0.318E-01
RMM:   3    -0.231019367944E+04   -0.81919E-03   -0.19119E-02  5402   0.696E-02    0.151E-01
RMM:   4    -0.231019360808E+04    0.71360E-04   -0.20703E-03  3697   0.139E-02    0.819E-02
RMM:   5    -0.231019349823E+04    0.10985E-03   -0.16442E-04  3168   0.791E-03    0.493E-02
RMM:   6    -0.231019347448E+04    0.23750E-04   -0.19613E-04  3609   0.895E-03    0.134E-02
RMM:   7    -0.231019347430E+04    0.17826E-06   -0.18972E-05  2872   0.534E-03
  59 F= -.23305978E+04 E0= -.23305978E+04  d E =-.140900E-02  mag=     4.0000
       N       E                     dE             d eps       ncg     rms          rms(c)
DAV:   1    -0.231018744602E+04    0.60285E-02   -0.30536E-01  4464   0.436E-01    0.195E-01
RMM:   2    -0.231019425991E+04   -0.68139E-02   -0.68397E-02  6165   0.966E-02    0.199E-01
RMM:   3    -0.231019446253E+04   -0.20263E-03   -0.65446E-03  4561   0.389E-02    0.835E-02
RMM:   4    -0.231019445113E+04    0.11406E-04   -0.70972E-04  3007   0.837E-03    0.465E-02
RMM:   5    -0.231019441693E+04    0.34195E-04   -0.52175E-05  2877   0.460E-03    0.316E-02
RMM:   6    -0.231019441029E+04    0.66389E-05   -0.82055E-05  2871   0.551E-03
  60 F= -.23305987E+04 E0= -.23305987E+04  d E =-.944822E-03  mag=     4.0000
       N       E                     dE             d eps       ncg     rms          rms(c)
DAV:   1    -0.231013312931E+04    0.61288E-01   -0.27381E+00  4432   0.131E+00    0.587E-01
RMM:   2    -0.231019444741E+04   -0.61318E-01   -0.61624E-01  6056   0.291E-01    0.594E-01
RMM:   3    -0.231019624621E+04   -0.17988E-02   -0.61618E-02  5567   0.117E-01    0.248E-01
RMM:   4    -0.231019615389E+04    0.92322E-04   -0.63886E-03  4591   0.231E-02    0.138E-01
RMM:   5    -0.231019586522E+04    0.28867E-03   -0.46540E-04  3971   0.121E-02    0.989E-02
RMM:   6    -0.231019580745E+04    0.57776E-04   -0.80191E-04  4181   0.152E-02    0.633E-02
RMM:   7    -0.231019576299E+04    0.44454E-04   -0.73232E-05  2906   0.751E-03    0.159E-02
RMM:   8    -0.231019576016E+04    0.28356E-05   -0.12514E-05  2865   0.292E-03
  61 F= -.23306001E+04 E0= -.23306001E+04  d E =-.227922E-02  mag=     4.0000
       N       E                     dE             d eps       ncg     rms          rms(c)
DAV:   1    -0.231019285609E+04    0.29069E-02   -0.18157E-01  4536   0.361E-01    0.167E-01
RMM:   2    -0.231019672063E+04   -0.38645E-02   -0.38869E-02  5995   0.813E-02    0.158E-01
RMM:   3    -0.231019680811E+04   -0.87482E-04   -0.37728E-03  4437   0.329E-02    0.734E-02
RMM:   4    -0.231019678136E+04    0.26747E-04   -0.41185E-04  2969   0.790E-03    0.367E-02
RMM:   5    -0.231019675695E+04    0.24415E-04   -0.44939E-05  2907   0.528E-03    0.214E-02
RMM:   6    -0.231019675353E+04    0.34159E-05   -0.40961E-05  2857   0.568E-03
  62 F= -.23306011E+04 E0= -.23306011E+04  d E =-.982270E-03  mag=     4.0000
       N       E                     dE             d eps       ncg     rms          rms(c)
DAV:   1    -0.231019277128E+04    0.39857E-02   -0.19702E-01  4456   0.376E-01    0.173E-01
RMM:   2    -0.231019693634E+04   -0.41651E-02   -0.42210E-02  5935   0.843E-02    0.157E-01
RMM:   3    -0.231019706697E+04   -0.13062E-03   -0.40517E-03  4587   0.372E-02    0.777E-02
RMM:   4    -0.231019703434E+04    0.32623E-04   -0.44154E-04  3015   0.818E-03    0.382E-02
RMM:   5    -0.231019700830E+04    0.26043E-04   -0.47681E-05  2909   0.547E-03    0.209E-02
RMM:   6    -0.231019700413E+04    0.41714E-05   -0.38301E-05  2883   0.562E-03
  63 F= -.23306013E+04 E0= -.23306013E+04  d E =-.121738E-02  mag=     4.0000
       N       E                     dE             d eps       ncg     rms          rms(c)
DAV:   1    -0.231019321518E+04    0.37931E-02   -0.18930E-01  4480   0.334E-01    0.168E-01
RMM:   2    -0.231019761551E+04   -0.44003E-02   -0.43890E-02  6342   0.792E-02    0.172E-01
RMM:   3    -0.231019770764E+04   -0.92136E-04   -0.41423E-03  4151   0.303E-02    0.713E-02
RMM:   4    -0.231019769240E+04    0.15246E-04   -0.46287E-04  3008   0.745E-03    0.377E-02
RMM:   5    -0.231019767046E+04    0.21935E-04   -0.33183E-05  2853   0.421E-03    0.242E-02
RMM:   6    -0.231019766562E+04    0.48437E-05   -0.47960E-05  2854   0.472E-03
  64 F= -.23306020E+04 E0= -.23306020E+04  d E =-.653512E-03  mag=     4.0000
       N       E                     dE             d eps       ncg     rms          rms(c)
DAV:   1    -0.231018804599E+04    0.96245E-02   -0.41929E-01  4432   0.497E-01    0.249E-01
RMM:   2    -0.231019778329E+04   -0.97373E-02   -0.97226E-02  6269   0.116E-01    0.250E-01
RMM:   3    -0.231019801478E+04   -0.23149E-03   -0.91081E-03  5167   0.437E-02    0.106E-01
RMM:   4    -0.231019797976E+04    0.35024E-04   -0.10154E-03  3084   0.995E-03    0.561E-02
RMM:   5    -0.231019793024E+04    0.49518E-04   -0.71024E-05  2909   0.576E-03    0.357E-02
RMM:   6    -0.231019791901E+04    0.11234E-04   -0.10695E-04  2954   0.674E-03    0.113E-02
RMM:   7    -0.231019791826E+04    0.75273E-06   -0.11051E-05  2858   0.424E-03
  65 F= -.23306022E+04 E0= -.23306022E+04  d E =-.887795E-03  mag=     4.0000
       N       E                     dE             d eps       ncg     rms          rms(c)
DAV:   1    -0.231019591031E+04    0.20087E-02   -0.11363E-01  4504   0.265E-01    0.131E-01
RMM:   2    -0.231019857602E+04   -0.26657E-02   -0.26338E-02  6217   0.617E-02    0.141E-01
RMM:   3    -0.231019860274E+04   -0.26719E-04   -0.25185E-03  3528   0.242E-02    0.542E-02
RMM:   4    -0.231019859507E+04    0.76671E-05   -0.27766E-04  2916   0.614E-03    0.284E-02
RMM:   5    -0.231019858266E+04    0.12410E-04   -0.20336E-05  2843   0.329E-03    0.202E-02
RMM:   6    -0.231019857979E+04    0.28659E-05   -0.33010E-05  2835   0.384E-03
  66 F= -.23306028E+04 E0= -.23306028E+04  d E =-.658411E-03  mag=     4.0000
       N       E                     dE             d eps       ncg     rms          rms(c)
DAV:   1    -0.231017554456E+04    0.23038E-01   -0.10201E+00  4400   0.793E-01    0.390E-01
RMM:   2    -0.231019934204E+04   -0.23797E-01   -0.23606E-01  6085   0.183E-01    0.404E-01
RMM:   3    -0.231019971800E+04   -0.37596E-03   -0.22468E-02  5483   0.711E-02    0.164E-01
RMM:   4    -0.231019963501E+04    0.82997E-04   -0.24685E-03  3986   0.149E-02    0.842E-02
RMM:   5    -0.231019951911E+04    0.11590E-03   -0.16329E-04  3284   0.834E-03    0.580E-02
RMM:   6    -0.231019949072E+04    0.28385E-04   -0.29119E-04  3887   0.104E-02    0.273E-02
RMM:   7    -0.231019948299E+04    0.77301E-05   -0.23482E-05  2854   0.580E-03
  67 F= -.23306037E+04 E0= -.23306037E+04  d E =-.154136E-02  mag=     4.0000
       N       E                     dE             d eps       ncg     rms          rms(c)
DAV:   1    -0.231019876893E+04    0.72179E-03   -0.62975E-02  4640   0.216E-01    0.102E-01
RMM:   2    -0.231020011934E+04   -0.13504E-02   -0.13314E-02  5987   0.492E-02    0.115E-01
RMM:   3    -0.231020009267E+04    0.26668E-04   -0.12914E-03  3343   0.205E-02    0.439E-02
RMM:   4    -0.231020008446E+04    0.82060E-05   -0.14582E-04  2895   0.557E-03    0.231E-02
RMM:   5    -0.231020007765E+04    0.68105E-05   -0.19883E-05  2859   0.387E-03
  68 F= -.23306043E+04 E0= -.23306043E+04  d E =-.597067E-03  mag=     4.0000
       N       E                     dE             d eps       ncg     rms          rms(c)
DAV:   1    -0.231019842779E+04    0.16567E-02   -0.90797E-02  4432   0.259E-01    0.122E-01
RMM:   2    -0.231020036872E+04   -0.19409E-02   -0.19155E-02  6181   0.605E-02    0.135E-01
RMM:   3    -0.231020033836E+04    0.30358E-04   -0.17944E-03  3641   0.222E-02    0.534E-02
RMM:   4    -0.231020032048E+04    0.17875E-04   -0.20125E-04  2910   0.652E-03    0.279E-02
RMM:   5    -0.231020030900E+04    0.11479E-04   -0.29962E-05  2887   0.479E-03    0.173E-02
RMM:   6    -0.231020030771E+04    0.12993E-05   -0.18717E-05  2839   0.466E-03
  69 F= -.23306046E+04 E0= -.23306046E+04  d E =-.828951E-03  mag=     4.0000
       N       E                     dE             d eps       ncg     rms          rms(c)
DAV:   1    -0.231019980607E+04    0.50294E-03   -0.43938E-02  4448   0.185E-01    0.820E-02
RMM:   2    -0.231020061556E+04   -0.80949E-03   -0.80954E-03  6102   0.401E-02    0.853E-02
RMM:   3    -0.231020060749E+04    0.80685E-05   -0.73816E-04  3076   0.149E-02    0.380E-02
RMM:   4    -0.231020059758E+04    0.99164E-05   -0.85226E-05  2897   0.453E-03
  70 F= -.23306049E+04 E0= -.23306049E+04  d E =-.301220E-03  mag=     4.0000
       N       E                     dE             d eps       ncg     rms          rms(c)
DAV:   1    -0.231020025503E+04    0.35246E-03   -0.21325E-02  4640   0.129E-01    0.545E-02
RMM:   2    -0.231020063311E+04   -0.37808E-03   -0.38612E-03  5914   0.272E-02    0.500E-02
RMM:   3    -0.231020064123E+04   -0.81268E-05   -0.34084E-04  2927   0.114E-02    0.281E-02
RMM:   4    -0.231020063534E+04    0.58926E-05   -0.42217E-05  2880   0.335E-03
  71 F= -.23306049E+04 E0= -.23306049E+04  d E =-.346727E-03  mag=     4.0000
       N       E                     dE             d eps       ncg     rms          rms(c)
DAV:   1    -0.231020009460E+04    0.54663E-03   -0.51773E-02  4416   0.213E-01    0.821E-02
RMM:   2    -0.231020095305E+04   -0.85844E-03   -0.85147E-03  5932   0.420E-02    0.833E-02
RMM:   3    -0.231020094981E+04    0.32392E-05   -0.74665E-04  3213   0.169E-02    0.379E-02
RMM:   4    -0.231020093991E+04    0.99027E-05   -0.83176E-05  2888   0.467E-03
  72 F= -.23306052E+04 E0= -.23306052E+04  d E =-.325460E-03  mag=     4.0000
       N       E                     dE             d eps       ncg     rms          rms(c)
DAV:   1    -0.231019847532E+04    0.24745E-02   -0.15888E-01  4400   0.373E-01    0.144E-01
RMM:   2    -0.231020109929E+04   -0.26240E-02   -0.26108E-02  5778   0.730E-02    0.143E-01
RMM:   3    -0.231020109608E+04    0.32072E-05   -0.22931E-03  4152   0.311E-02    0.665E-02
RMM:   4    -0.231020106399E+04    0.32084E-04   -0.26080E-04  2983   0.739E-03    0.337E-02
RMM:   5    -0.231020104369E+04    0.20304E-04   -0.42901E-05  2907   0.563E-03    0.179E-02
RMM:   6    -0.231020104174E+04    0.19495E-05   -0.27526E-05  2838   0.545E-03
  73 F= -.23306054E+04 E0= -.23306054E+04  d E =-.462794E-03  mag=     4.0000
       N       E                     dE             d eps       ncg     rms          rms(c)
DAV:   1    -0.231020075380E+04    0.28989E-03   -0.29461E-02  4576   0.155E-01    0.592E-02
RMM:   2    -0.231020125226E+04   -0.49846E-03   -0.49139E-03  5928   0.318E-02    0.626E-02
RMM:   3    -0.231020125397E+04   -0.17061E-05   -0.44858E-04  2922   0.114E-02    0.264E-02
RMM:   4    -0.231020125116E+04    0.28092E-05   -0.44801E-05  2868   0.367E-03
  74 F= -.23306056E+04 E0= -.23306056E+04  d E =-.226197E-03  mag=     4.0000
       N       E                     dE             d eps       ncg     rms          rms(c)
DAV:   1    -0.231019758040E+04    0.36736E-02   -0.23997E-01  4400   0.442E-01    0.164E-01
RMM:   2    -0.231020159714E+04   -0.40167E-02   -0.39438E-02  5965   0.851E-02    0.176E-01
RMM:   3    -0.231020159553E+04    0.16143E-05   -0.34661E-03  4303   0.320E-02    0.728E-02
RMM:   4    -0.231020157105E+04    0.24478E-04   -0.38604E-04  2967   0.784E-03    0.400E-02
RMM:   5    -0.231020154666E+04    0.24391E-04   -0.48615E-05  2939   0.546E-03    0.233E-02
RMM:   6    -0.231020154404E+04    0.26173E-05   -0.37914E-05  2851   0.550E-03
  75 F= -.23306059E+04 E0= -.23306059E+04  d E =-.565819E-03  mag=     4.0000
       N       E                     dE             d eps       ncg     rms          rms(c)
DAV:   1    -0.231018496380E+04    0.16583E-01   -0.96211E-01  4400   0.885E-01    0.334E-01
RMM:   2    -0.231020115664E+04   -0.16193E-01   -0.15884E-01  5710   0.172E-01    0.359E-01
RMM:   3    -0.231020106841E+04    0.88236E-04   -0.14017E-02  5113   0.679E-02    0.143E-01
RMM:   4    -0.231020098412E+04    0.84290E-04   -0.15731E-03  4215   0.142E-02    0.753E-02
RMM:   5    -0.231020089444E+04    0.89672E-04   -0.15460E-04  3539   0.937E-03    0.469E-02
RMM:   6    -0.231020087874E+04    0.15708E-04   -0.15776E-04  3826   0.933E-03    0.155E-02
RMM:   7    -0.231020087789E+04    0.84579E-06   -0.14807E-05  2860   0.536E-03
  76 F= -.23306054E+04 E0= -.23306054E+04  d E =0.113330E-04  mag=     4.0000
       N       E                     dE             d eps       ncg     rms          rms(c)
DAV:   1    -0.231019271037E+04    0.81684E-02   -0.53627E-01  4400   0.661E-01    0.247E-01
RMM:   2    -0.231020163146E+04   -0.89211E-02   -0.87623E-02  5843   0.127E-01    0.264E-01
RMM:   3    -0.231020165901E+04   -0.27546E-04   -0.81387E-03  5023   0.506E-02    0.109E-01
RMM:   4    -0.231020160072E+04    0.58287E-04   -0.86648E-04  3327   0.109E-02    0.561E-02
RMM:   5    -0.231020154675E+04    0.53977E-04   -0.90316E-05  3095   0.715E-03    0.336E-02
RMM:   6    -0.231020153651E+04    0.10238E-04   -0.87991E-05  3167   0.745E-03    0.880E-03
RMM:   7    -0.231020153605E+04    0.45534E-06   -0.11169E-05  2856   0.478E-03
  77 F= -.23306059E+04 E0= -.23306059E+04  d E =-.580967E-03  mag=     4.0000
       N       E                     dE             d eps       ncg     rms          rms(c)
DAV:   1    -0.231020104982E+04    0.48668E-03   -0.48006E-02  4416   0.194E-01    0.780E-02
RMM:   2    -0.231020187293E+04   -0.82311E-03   -0.79674E-03  5812   0.383E-02    0.867E-02
RMM:   3    -0.231020186271E+04    0.10221E-04   -0.71691E-04  3041   0.148E-02    0.333E-02
RMM:   4    -0.231020185633E+04    0.63773E-05   -0.78124E-05  2876   0.411E-03
  78 F= -.23306063E+04 E0= -.23306063E+04  d E =-.334329E-03  mag=     4.0000
       N       E                     dE             d eps       ncg     rms          rms(c)
DAV:   1    -0.231019500957E+04    0.68531E-02   -0.43012E-01  4400   0.580E-01    0.228E-01
RMM:   2    -0.231020234310E+04   -0.73335E-02   -0.71739E-02  5919   0.114E-01    0.234E-01
RMM:   3    -0.231020239065E+04   -0.47551E-04   -0.63175E-03  4882   0.430E-02    0.103E-01
RMM:   4    -0.231020233011E+04    0.60547E-04   -0.71607E-04  3245   0.993E-03    0.535E-02
RMM:   5    -0.231020228311E+04    0.46993E-04   -0.75554E-05  3019   0.690E-03    0.296E-02
RMM:   6    -0.231020227625E+04    0.68662E-05   -0.74698E-05  3048   0.702E-03
  79 F= -.23306067E+04 E0= -.23306067E+04  d E =-.795278E-03  mag=     4.0000
       N       E                     dE             d eps       ncg     rms          rms(c)
DAV:   1    -0.231020107645E+04    0.12067E-02   -0.67840E-02  4472   0.231E-01    0.938E-02
RMM:   2    -0.231020225354E+04   -0.11771E-02   -0.11531E-02  6198   0.481E-02    0.977E-02
RMM:   3    -0.231020225648E+04   -0.29435E-05   -0.10469E-03  3191   0.164E-02    0.420E-02
RMM:   4    -0.231020224836E+04    0.81234E-05   -0.11782E-04  2881   0.510E-03    0.204E-02
RMM:   5    -0.231020224221E+04    0.61482E-05   -0.11388E-05  2837   0.297E-03
  80 F= -.23306067E+04 E0= -.23306067E+04  d E =-.777160E-03  mag=     4.0000
       N       E                     dE             d eps       ncg     rms          rms(c)
DAV:   1    -0.231020004733E+04    0.22010E-02   -0.14948E-01  4400   0.332E-01    0.138E-01
RMM:   2    -0.231020271326E+04   -0.26659E-02   -0.25968E-02  6149   0.672E-02    0.140E-01
RMM:   3    -0.231020274415E+04   -0.30892E-04   -0.23472E-03  3752   0.240E-02    0.612E-02
RMM:   4    -0.231020272512E+04    0.19032E-04   -0.25904E-04  2910   0.670E-03    0.304E-02
RMM:   5    -0.231020271123E+04    0.13891E-04   -0.24884E-05  2843   0.416E-03    0.175E-02
RMM:   6    -0.231020270864E+04    0.25863E-05   -0.24931E-05  2844   0.422E-03
  81 F= -.23306072E+04 E0= -.23306072E+04  d E =-.474268E-03  mag=     4.0000
       N       E                     dE             d eps       ncg     rms          rms(c)
DAV:   1    -0.231018420659E+04    0.18505E-01   -0.10556E+00  4400   0.881E-01    0.367E-01
RMM:   2    -0.231020308913E+04   -0.18883E-01   -0.18334E-01  5931   0.177E-01    0.381E-01
RMM:   3    -0.231020322561E+04   -0.13648E-03   -0.16516E-02  5343   0.671E-02    0.162E-01
RMM:   4    -0.231020306650E+04    0.15911E-03   -0.16704E-03  4268   0.150E-02    0.810E-02
RMM:   5    -0.231020296437E+04    0.10213E-03   -0.15870E-04  3421   0.946E-03    0.454E-02
RMM:   6    -0.231020294555E+04    0.18822E-04   -0.17420E-04  3944   0.960E-03    0.138E-02
RMM:   7    -0.231020294468E+04    0.86593E-06   -0.21219E-05  2864   0.594E-03
  82 F= -.23306075E+04 E0= -.23306075E+04  d E =-.730455E-03  mag=     4.0000
       N       E                     dE             d eps       ncg     rms          rms(c)
DAV:   1    -0.231019752208E+04    0.54235E-02   -0.31660E-01  4400   0.458E-01    0.201E-01
RMM:   2    -0.231020346950E+04   -0.59474E-02   -0.57959E-02  6085   0.952E-02    0.207E-01
RMM:   3    -0.231020353837E+04   -0.68870E-04   -0.52489E-03  4694   0.353E-02    0.881E-02
RMM:   4    -0.231020349893E+04    0.39442E-04   -0.52220E-04  2970   0.842E-03    0.456E-02
RMM:   5    -0.231020346762E+04    0.31309E-04   -0.55047E-05  2921   0.543E-03    0.256E-02
RMM:   6    -0.231020346246E+04    0.51554E-05   -0.50717E-05  2907   0.549E-03
  83 F= -.23306080E+04 E0= -.23306080E+04  d E =-.500213E-03  mag=     4.0000
       N       E                     dE             d eps       ncg     rms          rms(c)
DAV:   1    -0.231019996695E+04    0.35007E-02   -0.18922E-01  4416   0.354E-01    0.158E-01
RMM:   2    -0.231020354311E+04   -0.35762E-02   -0.34702E-02  6083   0.740E-02    0.170E-01
RMM:   3    -0.231020356076E+04   -0.17653E-04   -0.32937E-03  4102   0.294E-02    0.677E-02
RMM:   4    -0.231020353907E+04    0.21688E-04   -0.32087E-04  2953   0.704E-03    0.348E-02
RMM:   5    -0.231020352174E+04    0.17332E-04   -0.32436E-05  2876   0.425E-03    0.200E-02
RMM:   6    -0.231020351859E+04    0.31535E-05   -0.30135E-05  2859   0.439E-03
  84 F= -.23306080E+04 E0= -.23306080E+04  d E =-.542505E-03  mag=     4.0000
       N       E                     dE             d eps       ncg     rms          rms(c)
DAV:   1    -0.231019872838E+04    0.47934E-02   -0.28323E-01  4400   0.433E-01    0.204E-01
RMM:   2    -0.231020424938E+04   -0.55210E-02   -0.53748E-02  6145   0.935E-02    0.219E-01
RMM:   3    -0.231020421932E+04    0.30068E-04   -0.47884E-03  4723   0.348E-02    0.889E-02
RMM:   4    -0.231020417916E+04    0.40158E-04   -0.53573E-04  3054   0.865E-03    0.440E-02
RMM:   5    -0.231020414865E+04    0.30505E-04   -0.49264E-05  2912   0.581E-03    0.258E-02
RMM:   6    -0.231020414345E+04    0.51996E-05   -0.49687E-05  2869   0.606E-03
  85 F= -.23306086E+04 E0= -.23306086E+04  d E =-.567920E-03  mag=     4.0000
       N       E                     dE             d eps       ncg     rms          rms(c)
DAV:   1    -0.231020239274E+04    0.17559E-02   -0.94044E-02  4448   0.249E-01    0.118E-01
RMM:   2    -0.231020423417E+04   -0.18414E-02   -0.17986E-02  6189   0.552E-02    0.125E-01
RMM:   3    -0.231020423167E+04    0.25003E-05   -0.16290E-03  3491   0.202E-02    0.521E-02
RMM:   4    -0.231020421874E+04    0.12931E-04   -0.18146E-04  2896   0.579E-03    0.257E-02
RMM:   5    -0.231020420871E+04    0.10035E-04   -0.17730E-05  2840   0.370E-03    0.149E-02
RMM:   6    -0.231020420687E+04    0.18387E-05   -0.16703E-05  2833   0.372E-03
  86 F= -.23306086E+04 E0= -.23306086E+04  d E =-.598058E-03  mag=     4.0000
       N       E                     dE             d eps       ncg     rms          rms(c)
DAV:   1    -0.231020073318E+04    0.34755E-02   -0.19970E-01  4400   0.357E-01    0.171E-01
RMM:   2    -0.231020484351E+04   -0.41103E-02   -0.39937E-02  6182   0.788E-02    0.193E-01
RMM:   3    -0.231020478267E+04    0.60842E-04   -0.35033E-03  4245   0.287E-02    0.715E-02
RMM:   4    -0.231020476182E+04    0.20854E-04   -0.39578E-04  2949   0.746E-03    0.368E-02
RMM:   5    -0.231020474062E+04    0.21196E-04   -0.36806E-05  2883   0.481E-03    0.234E-02
RMM:   6    -0.231020473687E+04    0.37448E-05   -0.39576E-05  2841   0.519E-03
  87 F= -.23306091E+04 E0= -.23306091E+04  d E =-.467037E-03  mag=     4.0000
       N       E                     dE             d eps       ncg     rms          rms(c)
DAV:   1    -0.231019976775E+04    0.49729E-02   -0.25618E-01  4400   0.405E-01    0.194E-01
RMM:   2    -0.231020503801E+04   -0.52703E-02   -0.51263E-02  6114   0.892E-02    0.217E-01
RMM:   3    -0.231020496805E+04    0.69967E-04   -0.45254E-03  4560   0.331E-02    0.812E-02
RMM:   4    -0.231020494268E+04    0.25368E-04   -0.51157E-04  2979   0.810E-03    0.418E-02
RMM:   5    -0.231020491536E+04    0.27315E-04   -0.45979E-05  2904   0.525E-03    0.267E-02
RMM:   6    -0.231020491024E+04    0.51272E-05   -0.51398E-05  2857   0.572E-03
  88 F= -.23306092E+04 E0= -.23306092E+04  d E =-.568170E-03  mag=     4.0000
       N       E                     dE             d eps       ncg     rms          rms(c)
DAV:   1    -0.231020152833E+04    0.33870E-02   -0.19136E-01  4416   0.351E-01    0.165E-01
RMM:   2    -0.231020553290E+04   -0.40046E-02   -0.38885E-02  6225   0.781E-02    0.190E-01
RMM:   3    -0.231020546967E+04    0.63238E-04   -0.34965E-03  4201   0.291E-02    0.675E-02
RMM:   4    -0.231020546041E+04    0.92529E-05   -0.40199E-04  2943   0.722E-03    0.357E-02
RMM:   5    -0.231020544154E+04    0.18877E-04   -0.36676E-05  2886   0.452E-03    0.262E-02
RMM:   6    -0.231020543778E+04    0.37522E-05   -0.46999E-05  2853   0.498E-03
  89 F= -.23306096E+04 E0= -.23306096E+04  d E =-.470166E-03  mag=     4.0000
       N       E                     dE             d eps       ncg     rms          rms(c)
DAV:   1    -0.231020082172E+04    0.46198E-02   -0.23483E-01  4400   0.389E-01    0.184E-01
RMM:   2    -0.231020574408E+04   -0.49224E-02   -0.47732E-02  6240   0.863E-02    0.212E-01
RMM:   3    -0.231020565810E+04    0.85980E-04   -0.42811E-03  4406   0.311E-02    0.745E-02
RMM:   4    -0.231020564758E+04    0.10515E-04   -0.49789E-04  2950   0.774E-03    0.395E-02
RMM:   5    -0.231020562412E+04    0.23461E-04   -0.46242E-05  2897   0.493E-03    0.305E-02
RMM:   6    -0.231020561873E+04    0.53885E-05   -0.60038E-05  2861   0.551E-03
  90 F= -.23306098E+04 E0= -.23306098E+04  d E =-.587149E-03  mag=     4.0000
       N       E                     dE             d eps       ncg     rms          rms(c)
[...]
 155 F= -.23306137E+04 E0= -.23306137E+04  d E =-.289443E-04  mag=     4.0000
       N       E                     dE             d eps       ncg     rms          rms(c)
DAV:   1    -0.231020829132E+04    0.53523E-04   -0.23692E-03  4440   0.470E-02    0.204E-02
RMM:   2    -0.231020831770E+04   -0.26387E-04   -0.27229E-04  3513   0.104E-02    0.174E-02
RMM:   3    -0.231020831811E+04   -0.40256E-06   -0.30685E-05  2820   0.535E-03
 156 F= -.23306137E+04 E0= -.23306137E+04  d E =-.288187E-04  mag=     4.0000
       N       E                     dE             d eps       ncg     rms          rms(c)
DAV:   1    -0.231020828977E+04    0.27932E-04   -0.26464E-03  4392   0.481E-02    0.190E-02
RMM:   2    -0.231020832205E+04   -0.32276E-04   -0.32420E-04  3609   0.106E-02    0.160E-02
RMM:   3    -0.231020832331E+04   -0.12575E-05   -0.34796E-05  2776   0.544E-03
 157 F= -.23306137E+04 E0= -.23306137E+04  d E =-.207943E-04  mag=     4.0000
       N       E                     dE             d eps       ncg     rms          rms(c)
DAV:   1    -0.231020823549E+04    0.86562E-04   -0.62688E-03  4408   0.740E-02    0.283E-02
RMM:   2    -0.231020831171E+04   -0.76222E-04   -0.76499E-04  4751   0.155E-02    0.248E-02
RMM:   3    -0.231020831320E+04   -0.14909E-05   -0.75825E-05  2839   0.665E-03
 158 F= -.23306137E+04 E0= -.23306137E+04  d E =-.346207E-04  mag=     4.0000
       N       E                     dE             d eps       ncg     rms          rms(c)
DAV:   1    -0.231020829631E+04    0.15395E-04   -0.28439E-03  4416   0.521E-02    0.222E-02
RMM:   2    -0.231020832736E+04   -0.31045E-04   -0.31878E-04  3850   0.112E-02    0.168E-02
RMM:   3    -0.231020832854E+04   -0.11806E-05   -0.34129E-05  2798   0.569E-03
 159 F= -.23306137E+04 E0= -.23306137E+04  d E =-.321529E-04  mag=     4.0000
       N       E                     dE             d eps       ncg     rms          rms(c)
DAV:   1    -0.231020827394E+04    0.53419E-04   -0.41087E-03  4408   0.625E-02    0.263E-02
RMM:   2    -0.231020831703E+04   -0.43094E-04   -0.45484E-04  4301   0.132E-02    0.186E-02
RMM:   3    -0.231020831877E+04   -0.17400E-05   -0.47277E-05  2836   0.631E-03
 160 F= -.23306137E+04 E0= -.23306137E+04  d E =-.426722E-04  mag=     4.0000
       N       E                     dE             d eps       ncg     rms          rms(c)
DAV:   1    -0.231020826830E+04    0.48732E-04   -0.38944E-03  4416   0.590E-02    0.243E-02
RMM:   2    -0.231020831360E+04   -0.45299E-04   -0.46820E-04  4182   0.126E-02    0.180E-02
RMM:   3    -0.231020831575E+04   -0.21533E-05   -0.48799E-05  2831   0.616E-03
 161 F= -.23306138E+04 E0= -.23306138E+04  d E =-.210769E-04  mag=     4.0000
       N       E                     dE             d eps       ncg     rms          rms(c)
DAV:   1    -0.231020829749E+04    0.16114E-04   -0.67263E-04  4696   0.246E-02    0.126E-02
RMM:   2    -0.231020830487E+04   -0.73868E-05   -0.82959E-05  2909   0.556E-03
 162 F= -.23306137E+04 E0= -.23306137E+04  d E =-.203053E-04  mag=     4.0000
       N       E                     dE             d eps       ncg     rms          rms(c)
DAV:   1    -0.231020826761E+04    0.29878E-04   -0.43138E-03  4400   0.637E-02    0.270E-02
RMM:   2    -0.231020831937E+04   -0.51760E-04   -0.50392E-04  4304   0.143E-02    0.290E-02
RMM:   3    -0.231020831624E+04    0.31293E-05   -0.51982E-05  2836   0.688E-03
 163 F= -.23306138E+04 E0= -.23306138E+04  d E =-.380995E-04  mag=     4.0000
       N       E                     dE             d eps       ncg     rms          rms(c)
DAV:   1    -0.231020828454E+04    0.34826E-04   -0.15194E-03  4576   0.377E-02    0.180E-02
RMM:   2    -0.231020830011E+04   -0.15570E-04   -0.16918E-04  3198   0.842E-03    0.138E-02
RMM:   3    -0.231020830062E+04   -0.51197E-06   -0.20154E-05  2800   0.459E-03
 164 F= -.23306138E+04 E0= -.23306138E+04  d E =-.385459E-04  mag=     4.0000
       N       E                     dE             d eps       ncg     rms          rms(c)
DAV:   1    -0.231020824059E+04    0.59518E-04   -0.55034E-03  4408   0.706E-02    0.277E-02
RMM:   2    -0.231020830391E+04   -0.63317E-04   -0.64492E-04  4652   0.148E-02    0.224E-02
RMM:   3    -0.231020830560E+04   -0.16839E-05   -0.64009E-05  2835   0.691E-03
 165 F= -.23306138E+04 E0= -.23306138E+04  d E =-.297440E-04  mag=     4.0000
       N       E                     dE             d eps       ncg     rms          rms(c)
DAV:   1    -0.231020826315E+04    0.40758E-04   -0.23491E-03  4544   0.461E-02    0.202E-02
RMM:   2    -0.231020828966E+04   -0.26508E-04   -0.27836E-04  3474   0.982E-03    0.160E-02
RMM:   3    -0.231020829052E+04   -0.85904E-06   -0.30733E-05  2820   0.501E-03
 166 F= -.23306138E+04 E0= -.23306138E+04  d E =-.309380E-04  mag=     4.0000
       N       E                     dE             d eps       ncg     rms          rms(c)
DAV:   1    -0.231020825905E+04    0.30607E-04   -0.40867E-03  4392   0.598E-02    0.237E-02
RMM:   2    -0.231020830852E+04   -0.49462E-04   -0.49697E-04  4113   0.128E-02    0.205E-02
RMM:   3    -0.231020830966E+04   -0.11480E-05   -0.49921E-05  2813   0.615E-03
 167 F= -.23306139E+04 E0= -.23306139E+04  d E =-.338093E-04  mag=     4.0000
       N       E                     dE             d eps       ncg     rms          rms(c)
DAV:   1    -0.231020823117E+04    0.77345E-04   -0.62277E-03  4408   0.736E-02    0.298E-02
RMM:   2    -0.231020830682E+04   -0.75649E-04   -0.76296E-04  4790   0.155E-02    0.271E-02
RMM:   3    -0.231020830683E+04   -0.87894E-08   -0.73800E-05  2837   0.638E-03
 168 F= -.23306139E+04 E0= -.23306139E+04  d E =-.490912E-04  mag=     4.0000
       N       E                     dE             d eps       ncg     rms          rms(c)
DAV:   1    -0.231020825985E+04    0.46971E-04   -0.51953E-03  4408   0.694E-02    0.292E-02
RMM:   2    -0.231020832067E+04   -0.60823E-04   -0.61288E-04  4664   0.147E-02    0.250E-02
RMM:   3    -0.231020832078E+04   -0.10605E-06   -0.62761E-05  2841   0.653E-03
 169 F= -.23306139E+04 E0= -.23306139E+04  d E =-.381780E-04  mag=     4.0000
       N       E                     dE             d eps       ncg     rms          rms(c)
DAV:   1    -0.231020826403E+04    0.56647E-04   -0.35793E-03  4480   0.575E-02    0.255E-02
RMM:   2    -0.231020830460E+04   -0.40574E-04   -0.42129E-04  4071   0.123E-02    0.208E-02
RMM:   3    -0.231020830510E+04   -0.49931E-06   -0.44099E-05  2838   0.583E-03
 170 F= -.23306139E+04 E0= -.23306139E+04  d E =-.427166E-04  mag=     4.0000
       N       E                     dE             d eps       ncg     rms          rms(c)
DAV:   1    -0.231020823906E+04    0.65534E-04   -0.56082E-03  4408   0.701E-02    0.287E-02
RMM:   2    -0.231020830887E+04   -0.69800E-04   -0.69912E-04  4736   0.151E-02    0.254E-02
RMM:   3    -0.231020830926E+04   -0.39795E-06   -0.70092E-05  2837   0.646E-03
 171 F= -.23306139E+04 E0= -.23306139E+04  d E =-.308258E-04  mag=     4.0000
       N       E                     dE             d eps       ncg     rms          rms(c)
DAV:   1    -0.231020828939E+04    0.19473E-04   -0.81202E-04  4680   0.267E-02    0.143E-02
RMM:   2    -0.231020829901E+04   -0.96139E-05   -0.10370E-04  2978   0.603E-03    0.115E-02
RMM:   3    -0.231020829929E+04   -0.28877E-06   -0.12695E-05  2615   0.357E-03
 172 F= -.23306139E+04 E0= -.23306139E+04  d E =-.310963E-04  mag=     4.0000
       N       E                     dE             d eps       ncg     rms          rms(c)
DAV:   1    -0.231020827339E+04    0.25614E-04   -0.47127E-03  4408   0.676E-02    0.270E-02
RMM:   2    -0.231020832341E+04   -0.50020E-04   -0.51029E-04  4605   0.139E-02    0.216E-02
RMM:   3    -0.231020832397E+04   -0.55700E-06   -0.49512E-05  2833   0.703E-03
 173 F= -.23306140E+04 E0= -.23306140E+04  d E =-.408978E-04  mag=     4.0000
       N       E                     dE             d eps       ncg     rms          rms(c)
DAV:   1    -0.231020829931E+04    0.24099E-04   -0.16708E-03  4504   0.402E-02    0.186E-02
RMM:   2    -0.231020831598E+04   -0.16664E-04   -0.18234E-04  3272   0.860E-03    0.137E-02
RMM:   3    -0.231020831648E+04   -0.50606E-06   -0.20697E-05  2811   0.444E-03
 174 F= -.23306140E+04 E0= -.23306140E+04  d E =-.431582E-04  mag=     4.0000
       N       E                     dE             d eps       ncg     rms          rms(c)
DAV:   1    -0.231020828589E+04    0.30085E-04   -0.40707E-03  4408   0.619E-02    0.245E-02
RMM:   2    -0.231020832911E+04   -0.43220E-04   -0.44258E-04  4312   0.132E-02    0.196E-02
RMM:   3    -0.231020833010E+04   -0.98973E-06   -0.44698E-05  2828   0.647E-03
 175 F= -.23306140E+04 E0= -.23306140E+04  d E =-.287650E-04  mag=     4.0000
       N       E                     dE             d eps       ncg     rms          rms(c)
DAV:   1    -0.231020831150E+04    0.17617E-04   -0.11281E-03  4680   0.326E-02    0.152E-02
RMM:   2    -0.231020832283E+04   -0.11331E-04   -0.12358E-04  3061   0.712E-03    0.114E-02
RMM:   3    -0.231020832331E+04   -0.47812E-06   -0.14368E-05  2702   0.392E-03
 176 F= -.23306140E+04 E0= -.23306140E+04  d E =-.300049E-04  mag=     4.0000
       N       E                     dE             d eps       ncg     rms          rms(c)
DAV:   1    -0.231020829690E+04    0.25930E-04   -0.37882E-03  4416   0.586E-02    0.229E-02
RMM:   2    -0.231020834019E+04   -0.43291E-04   -0.43960E-04  4171   0.126E-02    0.196E-02
RMM:   3    -0.231020834094E+04   -0.74977E-06   -0.43930E-05  2813   0.646E-03
 177 F= -.23306140E+04 E0= -.23306140E+04  d E =-.299962E-04  mag=     4.0000
       N       E                     dE             d eps       ncg     rms          rms(c)
DAV:   1    -0.231020831332E+04    0.26871E-04   -0.20227E-03  4384   0.427E-02    0.187E-02
RMM:   2    -0.231020833596E+04   -0.22646E-04   -0.23590E-04  3371   0.937E-03    0.161E-02
RMM:   3    -0.231020833619E+04   -0.22404E-06   -0.26342E-05  2804   0.479E-03
 178 F= -.23306140E+04 E0= -.23306140E+04  d E =-.343298E-04  mag=     4.0000
       N       E                     dE             d eps       ncg     rms          rms(c)
DAV:   1    -0.231020830872E+04    0.27246E-04   -0.39454E-03  4392   0.595E-02    0.241E-02
RMM:   2    -0.231020835542E+04   -0.46696E-04   -0.46959E-04  4269   0.131E-02    0.226E-02
RMM:   3    -0.231020835488E+04    0.53590E-06   -0.46375E-05  2824   0.628E-03
 179 F= -.23306141E+04 E0= -.23306141E+04  d E =-.308038E-04  mag=     4.0000
       N       E                     dE             d eps       ncg     rms          rms(c)
DAV:   1    -0.231020833760E+04    0.17815E-04   -0.11584E-03  4632   0.322E-02    0.154E-02
RMM:   2    -0.231020835096E+04   -0.13362E-04   -0.14019E-04  3063   0.728E-03    0.138E-02
RMM:   3    -0.231020835086E+04    0.10479E-06   -0.16051E-05  2682   0.399E-03
 180 F= -.23306141E+04 E0= -.23306141E+04  d E =-.333870E-04  mag=     4.0000
       N       E                     dE             d eps       ncg     rms          rms(c)
DAV:   1    -0.231020831871E+04    0.32253E-04   -0.39853E-03  4408   0.605E-02    0.247E-02
RMM:   2    -0.231020836465E+04   -0.45937E-04   -0.46209E-04  4362   0.131E-02    0.229E-02
RMM:   3    -0.231020836385E+04    0.79651E-06   -0.45413E-05  2824   0.665E-03
 181 F= -.23306141E+04 E0= -.23306141E+04  d E =-.345598E-04  mag=     4.0000
       N       E                     dE             d eps       ncg     rms          rms(c)
DAV:   1    -0.231020833036E+04    0.34287E-04   -0.19273E-03  4504   0.420E-02    0.194E-02
RMM:   2    -0.231020835178E+04   -0.21425E-04   -0.22402E-04  3402   0.929E-03    0.168E-02
RMM:   3    -0.231020835162E+04    0.16400E-06   -0.24921E-05  2815   0.472E-03
 182 F= -.23306141E+04 E0= -.23306141E+04  d E =-.374171E-04  mag=     4.0000
       N       E                     dE             d eps       ncg     rms          rms(c)
DAV:   1    -0.231020830449E+04    0.47297E-04   -0.42879E-03  4392   0.611E-02    0.245E-02
RMM:   2    -0.231020835635E+04   -0.51864E-04   -0.51519E-04  4286   0.133E-02    0.246E-02
RMM:   3    -0.231020835490E+04    0.14492E-05   -0.50263E-05  2829   0.616E-03
 183 F= -.23306141E+04 E0= -.23306141E+04  d E =-.268008E-04  mag=     4.0000
       N       E                     dE             d eps       ncg     rms          rms(c)
DAV:   1    -0.231020830889E+04    0.47459E-04   -0.28524E-03  4400   0.498E-02    0.215E-02
RMM:   2    -0.231020834306E+04   -0.34164E-04   -0.34424E-04  3680   0.110E-02    0.216E-02
RMM:   3    -0.231020834171E+04    0.13472E-05   -0.35602E-05  2823   0.533E-03
 184 F= -.23306142E+04 E0= -.23306142E+04  d E =-.328361E-04  mag=     4.0000
       N       E                     dE             d eps       ncg     rms          rms(c)
DAV:   1    -0.231020831028E+04    0.32774E-04   -0.55274E-03  4408   0.715E-02    0.290E-02
RMM:   2    -0.231020837266E+04   -0.62380E-04   -0.62188E-04  4805   0.155E-02    0.283E-02
RMM:   3    -0.231020836999E+04    0.26773E-05   -0.58823E-05  2836   0.654E-03
 185 F= -.23306142E+04 E0= -.23306142E+04  d E =-.448599E-04  mag=     4.0000
       N       E                     dE             d eps       ncg     rms          rms(c)
DAV:   1    -0.231020834860E+04    0.24060E-04   -0.14213E-03  4632   0.362E-02    0.177E-02
RMM:   2    -0.231020836368E+04   -0.15076E-04   -0.16110E-04  3158   0.795E-03    0.155E-02
RMM:   3    -0.231020836337E+04    0.31096E-06   -0.18813E-05  2793   0.424E-03
 186 F= -.23306142E+04 E0= -.23306142E+04  d E =-.467490E-04  mag=     4.0000
       N       E                     dE             d eps       ncg     rms          rms(c)
DAV:   1    -0.231020832445E+04    0.39232E-04   -0.54805E-03  4408   0.714E-02    0.287E-02
RMM:   2    -0.231020838425E+04   -0.59803E-04   -0.60092E-04  4843   0.151E-02    0.268E-02
RMM:   3    -0.231020838245E+04    0.17984E-05   -0.57602E-05  2839   0.700E-03
 187 F= -.23306142E+04 E0= -.23306142E+04  d E =-.323768E-04  mag=     4.0000
       N       E                     dE             d eps       ncg     rms          rms(c)
DAV:   1    -0.231020837268E+04    0.11573E-04   -0.41021E-04  4728   0.196E-02    0.119E-02
RMM:   2    -0.231020837655E+04   -0.38700E-05   -0.47822E-05  2822   0.450E-03
 188 F= -.23306142E+04 E0= -.23306142E+04  d E =-.301703E-04  mag=     4.0000
       N       E                     dE             d eps       ncg     rms          rms(c)
DAV:   1    -0.231020833214E+04    0.40535E-04   -0.55515E-03  4408   0.709E-02    0.306E-02
RMM:   2    -0.231020840144E+04   -0.69296E-04   -0.64477E-04  4687   0.156E-02    0.407E-02
RMM:   3    -0.231020838920E+04    0.12236E-04   -0.56247E-05  2849   0.688E-03    0.145E-02
RMM:   4    -0.231020838729E+04    0.19139E-05   -0.78087E-06  2816   0.235E-03
 189 F= -.23306143E+04 E0= -.23306143E+04  d E =-.322402E-04  mag=     4.0000
       N       E                     dE             d eps       ncg     rms          rms(c)
DAV:   1    -0.231020836669E+04    0.22515E-04   -0.11091E-03  4568   0.317E-02    0.122E-02
RMM:   2    -0.231020837734E+04   -0.10654E-04   -0.11648E-04  3040   0.691E-03    0.763E-03
RMM:   3    -0.231020837816E+04   -0.82134E-06   -0.12950E-05  2690   0.405E-03
 190 F= -.23306143E+04 E0= -.23306143E+04  d E =-.329738E-04  mag=     4.0000
       N       E                     dE             d eps       ncg     rms          rms(c)
DAV:   1    -0.231020833884E+04    0.38497E-04   -0.46599E-03  4408   0.645E-02    0.246E-02
RMM:   2    -0.231020839060E+04   -0.51757E-04   -0.52752E-04  4496   0.135E-02    0.213E-02
RMM:   3    -0.231020839091E+04   -0.30651E-06   -0.50058E-05  2829   0.663E-03
 191 F= -.23306143E+04 E0= -.23306143E+04  d E =-.355856E-04  mag=     4.0000
       N       E                     dE             d eps       ncg     rms          rms(c)
DAV:   1    -0.231020833901E+04    0.51592E-04   -0.35414E-03  4408   0.561E-02    0.237E-02
RMM:   2    -0.231020837861E+04   -0.39597E-04   -0.40594E-04  4034   0.119E-02    0.221E-02
RMM:   3    -0.231020837755E+04    0.10550E-05   -0.40847E-05  2833   0.551E-03
 192 F= -.23306143E+04 E0= -.23306143E+04  d E =-.422423E-04  mag=     4.0000
       N       E                     dE             d eps       ncg     rms          rms(c)
DAV:   1    -0.231020833985E+04    0.38757E-04   -0.60120E-03  4408   0.755E-02    0.297E-02
RMM:   2    -0.231020840554E+04   -0.65696E-04   -0.65525E-04  4894   0.158E-02    0.286E-02
RMM:   3    -0.231020840266E+04    0.28871E-05   -0.61771E-05  2839   0.644E-03
 193 F= -.23306143E+04 E0= -.23306143E+04  d E =-.435445E-04  mag=     4.0000
       N       E                     dE             d eps       ncg     rms          rms(c)
DAV:   1    -0.231020834348E+04    0.62059E-04   -0.48309E-03  4416   0.676E-02    0.282E-02
RMM:   2    -0.231020839488E+04   -0.51391E-04   -0.52662E-04  4568   0.140E-02    0.261E-02
RMM:   3    -0.231020839283E+04    0.20509E-05   -0.51653E-05  2840   0.619E-03
 194 F= -.23306144E+04 E0= -.23306144E+04  d E =-.503098E-04  mag=     4.0000
       N       E                     dE             d eps       ncg     rms          rms(c)
DAV:   1    -0.231020834519E+04    0.49688E-04   -0.58830E-03  4416   0.729E-02    0.291E-02
RMM:   2    -0.231020841304E+04   -0.67851E-04   -0.67408E-04  4857   0.153E-02    0.293E-02
RMM:   3    -0.231020840996E+04    0.30737E-05   -0.63031E-05  2838   0.615E-03
 195 F= -.23306144E+04 E0= -.23306144E+04  d E =-.317942E-04  mag=     4.0000
       N       E                     dE             d eps       ncg     rms          rms(c)
DAV:   1    -0.231020838998E+04    0.23054E-04   -0.13968E-03  4680   0.355E-02    0.171E-02
RMM:   2    -0.231020840567E+04   -0.15683E-04   -0.16165E-04  3136   0.773E-03    0.166E-02
RMM:   3    -0.231020840490E+04    0.76347E-06   -0.18607E-05  2755   0.411E-03
 196 F= -.23306144E+04 E0= -.23306144E+04  d E =-.339298E-04  mag=     4.0000
       N       E                     dE             d eps       ncg     rms          rms(c)
DAV:   1    -0.231020838770E+04    0.17973E-04   -0.45947E-03  4408   0.674E-02    0.274E-02
RMM:   2    -0.231020843388E+04   -0.46190E-04   -0.46694E-04  4634   0.141E-02    0.247E-02
RMM:   3    -0.231020843224E+04    0.16462E-05   -0.45882E-05  2835   0.694E-03
 197 F= -.23306144E+04 E0= -.23306144E+04  d E =-.431462E-04  mag=     4.0000
       N       E                     dE             d eps       ncg     rms          rms(c)
DAV:   1    -0.231020840490E+04    0.28988E-04   -0.19792E-03  4568   0.442E-02    0.204E-02
RMM:   2    -0.231020842309E+04   -0.18191E-04   -0.19980E-04  3485   0.941E-03    0.160E-02
RMM:   3    -0.231020842315E+04   -0.64276E-07   -0.22590E-05  2833   0.473E-03
 198 F= -.23306144E+04 E0= -.23306144E+04  d E =-.445345E-04  mag=     4.0000
       N       E                     dE             d eps       ncg     rms          rms(c)
DAV:   1    -0.231020836212E+04    0.60966E-04   -0.55118E-03  4408   0.727E-02    0.282E-02
RMM:   2    -0.231020841884E+04   -0.56716E-04   -0.57746E-04  4824   0.152E-02    0.244E-02
RMM:   3    -0.231020841819E+04    0.64763E-06   -0.55129E-05  2837   0.639E-03
 199 F= -.23306145E+04 E0= -.23306145E+04  d E =-.252397E-04  mag=     4.0000
       N       E                     dE             d eps       ncg     rms          rms(c)
DAV:   1    -0.231020840677E+04    0.12073E-04   -0.24836E-04  5032   0.156E-02    0.104E-02
RMM:   2    -0.231020840874E+04   -0.19697E-05   -0.28913E-05  2591   0.359E-03
 200 F= -.23306145E+04 E0= -.23306145E+04  d E =-.223068E-04  mag=     4.0000
       N       E                     dE             d eps       ncg     rms          rms(c)
DAV:   1    -0.231020836743E+04    0.39337E-04   -0.53548E-03  4400   0.734E-02    0.299E-02
RMM:   2    -0.231020842341E+04   -0.55982E-04   -0.52795E-04  4669   0.154E-02    0.355E-02
RMM:   3    -0.231020841467E+04    0.87376E-05   -0.53041E-05  2849   0.713E-03
 201 F= -.23306145E+04 E0= -.23306145E+04  d E =-.358335E-04  mag=     4.0000
