       N       E                     dE             d eps       ncg     rms          rms(c)
DAV:   1     0.125195939663E+05    0.12520E+05   -0.81736E+05  4376   0.143E+03
DAV:   2    -0.106773619910E+04   -0.13587E+05   -0.13032E+05  5312   0.329E+02
DAV:   3    -0.246578642627E+04   -0.13981E+04   -0.13869E+04  5256   0.109E+02
DAV:   4    -0.250390281328E+04   -0.38116E+02   -0.37937E+02  6248   0.250E+01
DAV:   5    -0.250469325059E+04   -0.79044E+00   -0.78939E+00  5512   0.298E+00    0.170E+02
RMM:   6    -0.145861530949E+04    0.10461E+04   -0.19308E+03  4336   0.389E+01    0.724E+01
RMM:   7    -0.162851267357E+04   -0.16990E+03   -0.26222E+02  4853   0.137E+01    0.493E+01
RMM:   8    -0.168642678556E+04   -0.57914E+02   -0.45572E+01  4666   0.748E+00    0.363E+01
RMM:   9    -0.182044891649E+04   -0.13402E+03   -0.65646E+01  4627   0.833E+00    0.238E+01
RMM:  10    -0.196620810541E+04   -0.14576E+03   -0.58878E+01  4640   0.719E+00    0.175E+01
RMM:  11    -0.206319923104E+04   -0.96991E+02   -0.46259E+01  4515   0.525E+00    0.133E+01
RMM:  12    -0.223613647299E+04   -0.17294E+03   -0.16922E+02  4338   0.895E+00    0.766E+00
RMM:  13    -0.228406092087E+04   -0.47924E+02   -0.49329E+01  4465   0.526E+00    0.570E+00
RMM:  14    -0.229416004041E+04   -0.10099E+02   -0.14020E+01  4656   0.299E+00    0.335E+00
RMM:  15    -0.229857021817E+04   -0.44102E+01   -0.48641E+00  4739   0.164E+00    0.198E+00
RMM:  16    -0.229909758752E+04   -0.52737E+00   -0.75357E-01  4937   0.821E-01    0.829E-01
RMM:  17    -0.229955826651E+04   -0.46068E+00   -0.17271E-01  4979   0.314E-01    0.513E-01
RMM:  18    -0.229967150378E+04   -0.11324E+00   -0.56050E-02  4608   0.233E-01    0.254E-01
RMM:  19    -0.229969766608E+04   -0.26162E-01   -0.18197E-02  4812   0.116E-01    0.153E-01
RMM:  20    -0.229971858493E+04   -0.20919E-01   -0.84043E-03  4347   0.834E-02    0.952E-02
RMM:  21    -0.229972857708E+04   -0.99922E-02   -0.35976E-03  4558   0.518E-02    0.714E-02
RMM:  22    -0.229973656588E+04   -0.79888E-02   -0.26718E-03  4402   0.405E-02    0.443E-02
RMM:  23    -0.229974000588E+04   -0.34400E-02   -0.96856E-04  4193   0.277E-02    0.305E-02
RMM:  24    -0.229974240476E+04   -0.23989E-02   -0.66780E-04  4031   0.180E-02    0.180E-02
RMM:  25    -0.229974353582E+04   -0.11311E-02   -0.30189E-04  3908   0.152E-02    0.117E-02
RMM:  26    -0.229974387224E+04   -0.33642E-03   -0.10139E-04  3647   0.810E-03    0.757E-03
RMM:  27    -0.229974402090E+04   -0.14866E-03   -0.27247E-05  3113   0.578E-03    0.611E-03
RMM:  28    -0.229974413559E+04   -0.11469E-03   -0.20281E-05  3001   0.385E-03    0.329E-03
RMM:  29    -0.229974420870E+04   -0.73110E-04   -0.16009E-05  2931   0.363E-03    0.205E-03
RMM:  30    -0.229974421789E+04   -0.91964E-05   -0.47711E-06  2686   0.300E-03
   1 F= -.23196902E+04 E0= -.23196902E+04  d E =-.231969E+04  mag=     1.0001
       N       E                     dE             d eps       ncg     rms          rms(c)
DAV:   1    -0.229972161535E+04    0.22593E-01   -0.42424E+00  5128   0.124E+00    0.711E-01
RMM:   2    -0.229982021692E+04   -0.98602E-01   -0.10308E+00  5864   0.320E-01    0.466E-01
RMM:   3    -0.229982618921E+04   -0.59723E-02   -0.78375E-02  5291   0.134E-01    0.322E-01
RMM:   4    -0.229982610996E+04    0.79245E-04   -0.11192E-02  5031   0.315E-02    0.220E-01
RMM:   5    -0.229982561719E+04    0.49278E-03   -0.18000E-03  4758   0.213E-02    0.883E-02
RMM:   6    -0.229982556494E+04    0.52251E-04   -0.26136E-04  3947   0.111E-02    0.492E-02
RMM:   7    -0.229982552255E+04    0.42389E-04   -0.92151E-05  3093   0.672E-03    0.200E-02
RMM:   8    -0.229982551953E+04    0.30186E-05   -0.36493E-05  2838   0.430E-03
   2 F= -.23197716E+04 E0= -.23197716E+04  d E =-.814418E-01  mag=     1.0000
       N       E                     dE             d eps       ncg     rms          rms(c)
DAV:   1    -0.229973564118E+04    0.89881E-01   -0.51118E+00  4624   0.136E+00    0.776E-01
RMM:   2    -0.229985329026E+04   -0.11765E+00   -0.12345E+00  5900   0.353E-01    0.512E-01
RMM:   3    -0.229985975644E+04   -0.64662E-02   -0.88023E-02  5400   0.133E-01    0.348E-01
RMM:   4    -0.229985957272E+04    0.18372E-03   -0.13239E-02  5007   0.344E-02    0.227E-01
RMM:   5    -0.229985905325E+04    0.51947E-03   -0.20634E-03  4867   0.233E-02    0.854E-02
RMM:   6    -0.229985898013E+04    0.73120E-04   -0.26920E-04  4071   0.106E-02    0.458E-02
RMM:   7    -0.229985893573E+04    0.44395E-04   -0.91571E-05  3133   0.668E-03    0.184E-02
RMM:   8    -0.229985893169E+04    0.40414E-05   -0.36943E-05  2837   0.438E-03
   3 F= -.23198054E+04 E0= -.23198054E+04  d E =-.115195E+00  mag=     1.0000
       N       E                     dE             d eps       ncg     rms          rms(c)
DAV:   1    -0.229984276431E+04    0.16171E-01   -0.29964E+00  4528   0.175E+00    0.801E-01
RMM:   2    -0.229986804781E+04   -0.25284E-01   -0.30205E-01  5120   0.335E-01    0.328E-01
RMM:   3    -0.229986777872E+04    0.26909E-03   -0.26966E-02  4599   0.170E-01    0.197E-01
RMM:   4    -0.229986728355E+04    0.49517E-03   -0.58968E-03  4520   0.504E-02    0.110E-01
RMM:   5    -0.229986706285E+04    0.22070E-03   -0.86284E-04  4564   0.392E-02    0.427E-02
RMM:   6    -0.229986700608E+04    0.56767E-04   -0.19129E-04  4261   0.896E-03    0.264E-02
RMM:   7    -0.229986697461E+04    0.31475E-04   -0.50623E-05  3529   0.918E-03    0.124E-02
RMM:   8    -0.229986696548E+04    0.91259E-05   -0.27498E-05  3100   0.502E-03
   4 F= -.23198139E+04 E0= -.23198139E+04  d E =-.854886E-02  mag=     1.0000
       N       E                     dE             d eps       ncg     rms          rms(c)
DAV:   1    -0.229986807137E+04   -0.10968E-02   -0.39303E-01  4624   0.637E-01    0.291E-01
RMM:   2    -0.229987146601E+04   -0.33946E-02   -0.40382E-02  5380   0.124E-01    0.119E-01
RMM:   3    -0.229987143375E+04    0.32262E-04   -0.35231E-03  4659   0.626E-02    0.710E-02
RMM:   4    -0.229987136064E+04    0.73108E-04   -0.72388E-04  4567   0.181E-02    0.314E-02
RMM:   5    -0.229987134614E+04    0.14502E-04   -0.66297E-05  3746   0.124E-02    0.158E-02
RMM:   6    -0.229987134079E+04    0.53566E-05   -0.18510E-05  2878   0.360E-03
   5 F= -.23198181E+04 E0= -.23198181E+04  d E =-.127411E-01  mag=     1.0000
       N       E                     dE             d eps       ncg     rms          rms(c)
DAV:   1    -0.229987292834E+04   -0.15822E-02   -0.35824E-01  4496   0.541E-01    0.214E-01
RMM:   2    -0.229987795520E+04   -0.50269E-02   -0.55757E-02  5711   0.112E-01    0.122E-01
RMM:   3    -0.229987826100E+04   -0.30580E-03   -0.52714E-03  4899   0.443E-02    0.779E-02
RMM:   4    -0.229987826299E+04   -0.19910E-05   -0.61128E-04  4156   0.121E-02    0.500E-02
RMM:   5    -0.229987824261E+04    0.20381E-04   -0.97796E-05  3434   0.967E-03    0.229E-02
RMM:   6    -0.229987824012E+04    0.24916E-05   -0.28347E-05  2824   0.477E-03
   6 F= -.23198251E+04 E0= -.23198251E+04  d E =-.700025E-02  mag=     1.0000
       N       E                     dE             d eps       ncg     rms          rms(c)
DAV:   1    -0.229986711475E+04    0.11128E-01   -0.10233E+00  4432   0.914E-01    0.363E-01
RMM:   2    -0.229988165267E+04   -0.14538E-01   -0.16111E-01  5644   0.188E-01    0.209E-01
RMM:   3    -0.229988258887E+04   -0.93620E-03   -0.15778E-02  5090   0.775E-02    0.135E-01
RMM:   4    -0.229988260590E+04   -0.17033E-04   -0.17883E-03  4616   0.198E-02    0.923E-02
RMM:   5    -0.229988253367E+04    0.72232E-04   -0.34345E-04  4342   0.154E-02    0.424E-02
RMM:   6    -0.229988252543E+04    0.82387E-05   -0.78541E-05  3433   0.663E-03
   7 F= -.23198296E+04 E0= -.23198296E+04  d E =-.114589E-01  mag=     1.0000
       N       E                     dE             d eps       ncg     rms          rms(c)
DAV:   1    -0.229988454287E+04   -0.20092E-02   -0.15509E-01  4576   0.342E-01    0.128E-01
RMM:   2    -0.229988638053E+04   -0.18377E-02   -0.20363E-02  6032   0.658E-02    0.707E-02
RMM:   3    -0.229988650628E+04   -0.12575E-03   -0.20823E-03  3883   0.225E-02    0.449E-02
RMM:   4    -0.229988651603E+04   -0.97510E-05   -0.22932E-04  2903   0.619E-03    0.288E-02
RMM:   5    -0.229988651409E+04    0.19362E-05   -0.32147E-05  2824   0.482E-03
   8 F= -.23198335E+04 E0= -.23198335E+04  d E =-.390280E-02  mag=     1.0000
       N       E                     dE             d eps       ncg     rms          rms(c)
DAV:   1    -0.229987707528E+04    0.94408E-02   -0.13895E+00  4416   0.102E+00    0.382E-01
RMM:   2    -0.229989375770E+04   -0.16682E-01   -0.18393E-01  5814   0.195E-01    0.215E-01
RMM:   3    -0.229989498309E+04   -0.12254E-02   -0.19649E-02  5307   0.723E-02    0.136E-01
RMM:   4    -0.229989505777E+04   -0.74673E-04   -0.20798E-03  4452   0.165E-02    0.917E-02
RMM:   5    -0.229989502068E+04    0.37088E-04   -0.31919E-04  4144   0.128E-02    0.415E-02
RMM:   6    -0.229989501794E+04    0.27400E-05   -0.66929E-05  2960   0.610E-03
   9 F= -.23198417E+04 E0= -.23198417E+04  d E =-.121442E-01  mag=     1.0000
       N       E                     dE             d eps       ncg     rms          rms(c)
DAV:   1    -0.229982447345E+04    0.70547E-01   -0.55632E+00  4400   0.205E+00    0.764E-01
RMM:   2    -0.229989093934E+04   -0.66466E-01   -0.73256E-01  5669   0.383E-01    0.440E-01
RMM:   3    -0.229989608066E+04   -0.51413E-02   -0.81251E-02  5252   0.156E-01    0.281E-01
RMM:   4    -0.229989622052E+04   -0.13987E-03   -0.82091E-03  4977   0.337E-02    0.194E-01
RMM:   5    -0.229989603330E+04    0.18723E-03   -0.12769E-03  4729   0.236E-02    0.955E-02
RMM:   6    -0.229989601996E+04    0.13334E-04   -0.27333E-04  4273   0.118E-02    0.454E-02
RMM:   7    -0.229989602413E+04   -0.41649E-05   -0.65028E-05  3021   0.727E-03
  10 F= -.23198422E+04 E0= -.23198422E+04  d E =-.126058E-01  mag=     1.0000
       N       E                     dE             d eps       ncg     rms          rms(c)
DAV:   1    -0.229988220411E+04    0.13816E-01   -0.12323E+00  4400   0.966E-01    0.363E-01
RMM:   2    -0.229989735539E+04   -0.15151E-01   -0.16646E-01  5803   0.189E-01    0.208E-01
RMM:   3    -0.229989821941E+04   -0.86403E-03   -0.16896E-02  5289   0.667E-02    0.131E-01
RMM:   4    -0.229989824805E+04   -0.28640E-04   -0.19410E-03  4248   0.159E-02    0.778E-02
RMM:   5    -0.229989822863E+04    0.19422E-04   -0.20438E-04  3907   0.116E-02    0.364E-02
RMM:   6    -0.229989822521E+04    0.34163E-05   -0.55339E-05  2932   0.640E-03
  11 F= -.23198446E+04 E0= -.23198446E+04  d E =-.150662E-01  mag=     1.0000
       N       E                     dE             d eps       ncg     rms          rms(c)
DAV:   1    -0.229989918527E+04   -0.95664E-03   -0.33298E-01  4432   0.550E-01    0.208E-01
RMM:   2    -0.229990211205E+04   -0.29268E-02   -0.32775E-02  5557   0.996E-02    0.998E-02
RMM:   3    -0.229990225848E+04   -0.14643E-03   -0.34246E-03  4851   0.440E-02    0.627E-02
RMM:   4    -0.229990223854E+04    0.19942E-04   -0.38970E-04  4193   0.118E-02    0.388E-02
RMM:   5    -0.229990222552E+04    0.13018E-04   -0.78414E-05  3536   0.965E-03    0.178E-02
RMM:   6    -0.229990222297E+04    0.25540E-05   -0.18989E-05  2821   0.463E-03
  12 F= -.23198484E+04 E0= -.23198484E+04  d E =-.379963E-02  mag=     1.0000
       N       E                     dE             d eps       ncg     rms          rms(c)
DAV:   1    -0.229990103588E+04    0.11896E-02   -0.25823E-01  4416   0.485E-01    0.185E-01
RMM:   2    -0.229990332685E+04   -0.22910E-02   -0.25672E-02  5605   0.890E-02    0.889E-02
RMM:   3    -0.229990344121E+04   -0.11436E-03   -0.27079E-03  4788   0.359E-02    0.563E-02
RMM:   4    -0.229990342721E+04    0.14004E-04   -0.31266E-04  4085   0.105E-02    0.346E-02
RMM:   5    -0.229990341751E+04    0.96966E-05   -0.57794E-05  3250   0.823E-03
  13 F= -.23198494E+04 E0= -.23198494E+04  d E =-.481970E-02  mag=     1.0000
       N       E                     dE             d eps       ncg     rms          rms(c)
DAV:   1    -0.229990362814E+04   -0.20093E-03   -0.15276E-01  4480   0.343E-01    0.124E-01
RMM:   2    -0.229990550960E+04   -0.18815E-02   -0.20030E-02  5713   0.658E-02    0.658E-02
RMM:   3    -0.229990564226E+04   -0.13266E-03   -0.19354E-03  4182   0.296E-02    0.467E-02
RMM:   4    -0.229990565085E+04   -0.85959E-05   -0.25241E-04  3206   0.729E-03    0.329E-02
RMM:   5    -0.229990564253E+04    0.83264E-05   -0.40244E-05  2853   0.546E-03
  14 F= -.23198517E+04 E0= -.23198517E+04  d E =-.225641E-02  mag=     1.0000
       N       E                     dE             d eps       ncg     rms          rms(c)
DAV:   1    -0.229990033232E+04    0.53185E-02   -0.50894E-01  4400   0.626E-01    0.226E-01
RMM:   2    -0.229990673975E+04   -0.64074E-02   -0.68110E-02  5577   0.118E-01    0.120E-01
RMM:   3    -0.229990711042E+04   -0.37067E-03   -0.57855E-03  4819   0.527E-02    0.812E-02
RMM:   4    -0.229990711075E+04   -0.33331E-06   -0.72910E-04  4191   0.127E-02    0.498E-02
RMM:   5    -0.229990709878E+04    0.11969E-04   -0.10287E-04  3402   0.995E-03    0.212E-02
RMM:   6    -0.229990709658E+04    0.22042E-05   -0.25728E-05  2812   0.449E-03
  15 F= -.23198532E+04 E0= -.23198532E+04  d E =-.376797E-02  mag=     1.0000
       N       E                     dE             d eps       ncg     rms          rms(c)
DAV:   1    -0.229990667901E+04    0.41977E-03   -0.18853E-01  4400   0.378E-01    0.128E-01
RMM:   2    -0.229990894885E+04   -0.22698E-02   -0.23988E-02  5864   0.713E-02    0.710E-02
RMM:   3    -0.229990906301E+04   -0.11416E-03   -0.18217E-03  4165   0.253E-02    0.494E-02
RMM:   4    -0.229990906570E+04   -0.26934E-05   -0.24011E-04  3178   0.731E-03    0.323E-02
RMM:   5    -0.229990906341E+04    0.22871E-05   -0.42647E-05  2849   0.574E-03
  16 F= -.23198552E+04 E0= -.23198552E+04  d E =-.201590E-02  mag=     1.0000
       N       E                     dE             d eps       ncg     rms          rms(c)
DAV:   1    -0.229989399715E+04    0.15069E-01   -0.13453E+00  4384   0.101E+00    0.342E-01
RMM:   2    -0.229991017185E+04   -0.16175E-01   -0.17085E-01  5646   0.187E-01    0.195E-01
RMM:   3    -0.229991099766E+04   -0.82580E-03   -0.13174E-02  5102   0.704E-02    0.133E-01
RMM:   4    -0.229991103679E+04   -0.39134E-04   -0.17485E-03  4551   0.180E-02    0.962E-02
RMM:   5    -0.229991097411E+04    0.62677E-04   -0.42858E-04  4393   0.147E-02    0.431E-02
RMM:   6    -0.229991096419E+04    0.99193E-05   -0.67958E-05  3035   0.652E-03
  17 F= -.23198573E+04 E0= -.23198573E+04  d E =-.404741E-02  mag=     1.0000
       N       E                     dE             d eps       ncg     rms          rms(c)
DAV:   1    -0.229991018755E+04    0.78656E-03   -0.21060E-01  4432   0.386E-01    0.133E-01
RMM:   2    -0.229991279454E+04   -0.26070E-02   -0.27623E-02  5936   0.733E-02    0.770E-02
RMM:   3    -0.229991294973E+04   -0.15519E-03   -0.23313E-03  4092   0.250E-02    0.518E-02
RMM:   4    -0.229991295586E+04   -0.61275E-05   -0.27234E-04  2942   0.687E-03    0.360E-02
RMM:   5    -0.229991295136E+04    0.45015E-05   -0.57600E-05  2940   0.576E-03
  18 F= -.23198592E+04 E0= -.23198592E+04  d E =-.196412E-02  mag=     1.0000
       N       E                     dE             d eps       ncg     rms          rms(c)
DAV:   1    -0.229989087889E+04    0.22077E-01   -0.18887E+00  4368   0.116E+00    0.398E-01
RMM:   2    -0.229991412325E+04   -0.23244E-01   -0.24577E-01  5792   0.218E-01    0.241E-01
RMM:   3    -0.229991585092E+04   -0.17277E-02   -0.24688E-02  5205   0.778E-02    0.160E-01
RMM:   4    -0.229991590252E+04   -0.51592E-04   -0.24408E-03  4675   0.186E-02    0.119E-01
RMM:   5    -0.229991581758E+04    0.84941E-04   -0.59968E-04  4455   0.149E-02    0.519E-02
RMM:   6    -0.229991580915E+04    0.84238E-05   -0.96923E-05  3210   0.798E-03
  19 F= -.23198620E+04 E0= -.23198620E+04  d E =-.475627E-02  mag=     1.0000
       N       E                     dE             d eps       ncg     rms          rms(c)
DAV:   1    -0.229991482439E+04    0.99319E-03   -0.22247E-01  4512   0.423E-01    0.159E-01
RMM:   2    -0.229991793126E+04   -0.31069E-02   -0.33274E-02  5925   0.868E-02    0.838E-02
RMM:   3    -0.229991808693E+04   -0.15566E-03   -0.26657E-03  4696   0.308E-02    0.539E-02
RMM:   4    -0.229991808490E+04    0.20303E-05   -0.34512E-04  3629   0.875E-03    0.335E-02
RMM:   5    -0.229991807735E+04    0.75507E-05   -0.51113E-05  2922   0.696E-03
  20 F= -.23198642E+04 E0= -.23198642E+04  d E =-.216859E-02  mag=     1.0000
       N       E                     dE             d eps       ncg     rms          rms(c)
DAV:   1    -0.229991485048E+04    0.32344E-02   -0.27625E-01  4432   0.472E-01    0.178E-01
RMM:   2    -0.229991872685E+04   -0.38764E-02   -0.41421E-02  5887   0.970E-02    0.948E-02
RMM:   3    -0.229991894697E+04   -0.22011E-03   -0.35673E-03  4795   0.355E-02    0.611E-02
RMM:   4    -0.229991894258E+04    0.43884E-05   -0.44317E-04  3896   0.995E-03    0.367E-02
RMM:   5    -0.229991893305E+04    0.95288E-05   -0.57408E-05  2992   0.751E-03
  21 F= -.23198649E+04 E0= -.23198649E+04  d E =-.291168E-02  mag=     1.0000
       N       E                     dE             d eps       ncg     rms          rms(c)
DAV:   1    -0.229991796340E+04    0.97917E-03   -0.19487E-01  4400   0.424E-01    0.151E-01
RMM:   2    -0.229992024038E+04   -0.22770E-02   -0.24706E-02  5839   0.829E-02    0.712E-02
RMM:   3    -0.229992033923E+04   -0.98850E-04   -0.18533E-03  4669   0.288E-02    0.478E-02
RMM:   4    -0.229992033618E+04    0.30535E-05   -0.26402E-04  3524   0.867E-03    0.285E-02
RMM:   5    -0.229992033348E+04    0.27030E-05   -0.35039E-05  2852   0.628E-03
  22 F= -.23198663E+04 E0= -.23198663E+04  d E =-.141817E-02  mag=     1.0000
       N       E                     dE             d eps       ncg     rms          rms(c)
DAV:   1    -0.229991677741E+04    0.35588E-02   -0.33889E-01  4416   0.558E-01    0.198E-01
RMM:   2    -0.229992074490E+04   -0.39675E-02   -0.42894E-02  5784   0.107E-01    0.947E-02
RMM:   3    -0.229992089286E+04   -0.14796E-03   -0.30212E-03  4900   0.370E-02    0.623E-02
RMM:   4    -0.229992088391E+04    0.89409E-05   -0.43092E-04  4017   0.109E-02    0.359E-02
RMM:   5    -0.229992087485E+04    0.90666E-05   -0.53679E-05  3130   0.798E-03
  23 F= -.23198669E+04 E0= -.23198669E+04  d E =-.198129E-02  mag=     1.0000
       N       E                     dE             d eps       ncg     rms          rms(c)
DAV:   1    -0.229992067434E+04    0.20958E-03   -0.12543E-01  4432   0.328E-01    0.104E-01
RMM:   2    -0.229992197264E+04   -0.12983E-02   -0.14035E-02  5900   0.632E-02    0.553E-02
RMM:   3    -0.229992205160E+04   -0.78963E-04   -0.12503E-03  3997   0.213E-02    0.376E-02
RMM:   4    -0.229992205349E+04   -0.18856E-05   -0.14433E-04  2878   0.600E-03    0.215E-02
RMM:   5    -0.229992205240E+04    0.10835E-05   -0.18081E-05  2803   0.428E-03
  24 F= -.23198682E+04 E0= -.23198682E+04  d E =-.127160E-02  mag=     1.0000
       N       E                     dE             d eps       ncg     rms          rms(c)
DAV:   1    -0.229991105904E+04    0.10994E-01   -0.11309E+00  4400   0.985E-01    0.307E-01
RMM:   2    -0.229992296750E+04   -0.11908E-01   -0.12773E-01  5767   0.188E-01    0.167E-01
RMM:   3    -0.229992352251E+04   -0.55501E-03   -0.96962E-03  5194   0.593E-02    0.113E-01
RMM:   4    -0.229992352392E+04   -0.14102E-05   -0.12517E-03  4337   0.167E-02    0.635E-02
RMM:   5    -0.229992350000E+04    0.23916E-04   -0.17154E-04  3984   0.119E-02    0.193E-02
RMM:   6    -0.229992349981E+04    0.19904E-06   -0.23383E-05  2815   0.483E-03
  25 F= -.23198699E+04 E0= -.23198699E+04  d E =-.299931E-02  mag=     1.0000
       N       E                     dE             d eps       ncg     rms          rms(c)
DAV:   1    -0.229992290049E+04    0.59951E-03   -0.19573E-01  4480   0.435E-01    0.154E-01
RMM:   2    -0.229992483017E+04   -0.19297E-02   -0.20995E-02  5763   0.869E-02    0.721E-02
RMM:   3    -0.229992490302E+04   -0.72855E-04   -0.17548E-03  4733   0.291E-02    0.460E-02
RMM:   4    -0.229992489413E+04    0.88913E-05   -0.23588E-04  3837   0.936E-03    0.223E-02
RMM:   5    -0.229992489213E+04    0.20056E-05   -0.23447E-05  2813   0.617E-03
  26 F= -.23198713E+04 E0= -.23198713E+04  d E =-.142088E-02  mag=     1.0000
       N       E                     dE             d eps       ncg     rms          rms(c)
DAV:   1    -0.229992400200E+04    0.89213E-03   -0.11047E-01  4432   0.327E-01    0.116E-01
RMM:   2    -0.229992509860E+04   -0.10966E-02   -0.11921E-02  5766   0.657E-02    0.558E-02
RMM:   3    -0.229992513531E+04   -0.36713E-04   -0.96710E-04  4145   0.224E-02    0.354E-02
RMM:   4    -0.229992512859E+04    0.67250E-05   -0.12431E-04  3309   0.712E-03    0.175E-02
RMM:   5    -0.229992512627E+04    0.23175E-05   -0.16343E-05  2798   0.547E-03
  27 F= -.23198716E+04 E0= -.23198716E+04  d E =-.167554E-02  mag=     1.0000
       N       E                     dE             d eps       ncg     rms          rms(c)
DAV:   1    -0.229992444281E+04    0.68577E-03   -0.17065E-01  4400   0.406E-01    0.136E-01
RMM:   2    -0.229992615700E+04   -0.17142E-02   -0.18480E-02  5795   0.794E-02    0.638E-02
RMM:   3    -0.229992622549E+04   -0.68492E-04   -0.15269E-03  4432   0.247E-02    0.425E-02
RMM:   4    -0.229992621708E+04    0.84157E-05   -0.21498E-04  3381   0.808E-03    0.221E-02
RMM:   5    -0.229992621427E+04    0.28045E-05   -0.31854E-05  2830   0.560E-03
  28 F= -.23198727E+04 E0= -.23198727E+04  d E =-.107727E-02  mag=     1.0000
       N       E                     dE             d eps       ncg     rms          rms(c)
DAV:   1    -0.229992311637E+04    0.31007E-02   -0.34932E-01  4368   0.580E-01    0.194E-01
RMM:   2    -0.229992662958E+04   -0.35132E-02   -0.37876E-02  5755   0.112E-01    0.918E-02
RMM:   3    -0.229992673717E+04   -0.10759E-03   -0.28475E-03  4883   0.344E-02    0.595E-02
RMM:   4    -0.229992671537E+04    0.21799E-04   -0.41112E-04  4044   0.110E-02    0.282E-02
RMM:   5    -0.229992670905E+04    0.63152E-05   -0.43820E-05  2918   0.719E-03
  29 F= -.23198731E+04 E0= -.23198731E+04  d E =-.155386E-02  mag=     1.0000
       N       E                     dE             d eps       ncg     rms          rms(c)
DAV:   1    -0.229992677979E+04   -0.64424E-04   -0.10653E-01  4464   0.312E-01    0.103E-01
RMM:   2    -0.229992770905E+04   -0.92926E-03   -0.10024E-02  5780   0.606E-02    0.508E-02
RMM:   3    -0.229992771713E+04   -0.80782E-05   -0.64295E-04  3850   0.190E-02    0.318E-02
RMM:   4    -0.229992770995E+04    0.71833E-05   -0.95044E-05  2879   0.579E-03
  30 F= -.23198742E+04 E0= -.23198742E+04  d E =-.105000E-02  mag=     1.0000
       N       E                     dE             d eps       ncg     rms          rms(c)
DAV:   1    -0.229992085093E+04    0.68662E-02   -0.95954E-01  4360   0.936E-01    0.307E-01
RMM:   2    -0.229992911506E+04   -0.82641E-02   -0.89007E-02  5726   0.177E-01    0.150E-01
RMM:   3    -0.229992923245E+04   -0.11739E-03   -0.57445E-03  5127   0.527E-02    0.945E-02
RMM:   4    -0.229992916199E+04    0.70456E-04   -0.89313E-04  4369   0.155E-02    0.447E-02
RMM:   5    -0.229992914036E+04    0.21630E-04   -0.12215E-04  3810   0.117E-02    0.124E-02
RMM:   6    -0.229992914093E+04   -0.56643E-06   -0.20708E-05  2854   0.435E-03
  31 F= -.23198758E+04 E0= -.23198758E+04  d E =-.262651E-02  mag=     1.0000
       N       E                     dE             d eps       ncg     rms          rms(c)
DAV:   1    -0.229992857689E+04    0.56347E-03   -0.23041E-01  4400   0.444E-01    0.158E-01
RMM:   2    -0.229993077157E+04   -0.21947E-02   -0.23484E-02  5782   0.882E-02    0.774E-02
RMM:   3    -0.229993082822E+04   -0.56647E-04   -0.17694E-03  4529   0.285E-02    0.483E-02
RMM:   4    -0.229993081394E+04    0.14271E-04   -0.25068E-04  3539   0.862E-03    0.235E-02
RMM:   5    -0.229993080855E+04    0.53907E-05   -0.34985E-05  2897   0.646E-03
  32 F= -.23198775E+04 E0= -.23198775E+04  d E =-.177665E-02  mag=     1.0000
       N       E                     dE             d eps       ncg     rms          rms(c)
DAV:   1    -0.229991952753E+04    0.11286E-01   -0.12750E+00  4360   0.104E+00    0.371E-01
RMM:   2    -0.229993174839E+04   -0.12221E-01   -0.13091E-01  5715   0.205E-01    0.184E-01
RMM:   3    -0.229993199481E+04   -0.24642E-03   -0.92853E-03  5233   0.632E-02    0.112E-01
RMM:   4    -0.229993190586E+04    0.88948E-04   -0.12401E-03  4550   0.179E-02    0.591E-02
RMM:   5    -0.229993186723E+04    0.38629E-04   -0.23686E-04  4279   0.137E-02    0.162E-02
RMM:   6    -0.229993186431E+04    0.29159E-05   -0.28371E-05  2836   0.502E-03
  33 F= -.23198788E+04 E0= -.23198788E+04  d E =-.308805E-02  mag=     1.0000
       N       E                     dE             d eps       ncg     rms          rms(c)
DAV:   1    -0.229993123683E+04    0.63040E-03   -0.11151E-01  4608   0.290E-01    0.101E-01
RMM:   2    -0.229993259921E+04   -0.13624E-02   -0.14357E-02  6036   0.590E-02    0.546E-02
RMM:   3    -0.229993266052E+04   -0.61312E-04   -0.11141E-03  3551   0.178E-02    0.354E-02
RMM:   4    -0.229993265844E+04    0.20856E-05   -0.14989E-04  2824   0.549E-03    0.180E-02
RMM:   5    -0.229993265754E+04    0.89909E-06   -0.17786E-05  2812   0.367E-03
  34 F= -.23198797E+04 E0= -.23198797E+04  d E =-.857692E-03  mag=     1.0000
       N       E                     dE             d eps       ncg     rms          rms(c)
DAV:   1    -0.229992171877E+04    0.10940E-01   -0.10009E+00  4360   0.868E-01    0.302E-01
RMM:   2    -0.229993399784E+04   -0.12279E-01   -0.12958E-01  5923   0.174E-01    0.164E-01
RMM:   3    -0.229993449727E+04   -0.49942E-03   -0.95225E-03  5226   0.494E-02    0.102E-01
RMM:   4    -0.229993446845E+04    0.28816E-04   -0.11866E-03  4136   0.134E-02    0.543E-02
RMM:   5    -0.229993444303E+04    0.25417E-04   -0.16849E-04  3574   0.100E-02    0.142E-02
RMM:   6    -0.229993444439E+04   -0.13535E-05   -0.22636E-05  2822   0.462E-03
  35 F= -.23198817E+04 E0= -.23198817E+04  d E =-.283802E-02  mag=     1.0000
       N       E                     dE             d eps       ncg     rms          rms(c)
DAV:   1    -0.229988445210E+04    0.49991E-01   -0.40081E+00  4360   0.174E+00    0.605E-01
RMM:   2    -0.229993359388E+04   -0.49142E-01   -0.51846E-01  5924   0.344E-01    0.338E-01
RMM:   3    -0.229993578274E+04   -0.21889E-02   -0.40668E-02  5423   0.988E-02    0.208E-01
RMM:   4    -0.229993567090E+04    0.11184E-03   -0.45108E-03  4652   0.258E-02    0.125E-01
RMM:   5    -0.229993552512E+04    0.14579E-03   -0.92239E-04  4912   0.198E-02    0.321E-02
RMM:   6    -0.229993552350E+04    0.16205E-05   -0.82627E-05  2997   0.701E-03
  36 F= -.23198832E+04 E0= -.23198832E+04  d E =-.430494E-02  mag=     1.0000
       N       E                     dE             d eps       ncg     rms          rms(c)
DAV:   1    -0.229993323090E+04    0.22942E-02   -0.36502E-01  4400   0.522E-01    0.192E-01
RMM:   2    -0.229993795447E+04   -0.47236E-02   -0.50000E-02  5948   0.106E-01    0.997E-02
RMM:   3    -0.229993818008E+04   -0.22562E-03   -0.39211E-03  4752   0.320E-02    0.640E-02
RMM:   4    -0.229993817016E+04    0.99170E-05   -0.48804E-04  3545   0.926E-03    0.327E-02
RMM:   5    -0.229993816764E+04    0.25277E-05   -0.55264E-05  2934   0.622E-03
  37 F= -.23198859E+04 E0= -.23198859E+04  d E =-.270154E-02  mag=     1.0000
       N       E                     dE             d eps       ncg     rms          rms(c)
DAV:   1    -0.229989868882E+04    0.39481E-01   -0.32752E+00  4360   0.157E+00    0.573E-01
RMM:   2    -0.229994146344E+04   -0.42775E-01   -0.45233E-01  5897   0.313E-01    0.305E-01
RMM:   3    -0.229994335627E+04   -0.18928E-02   -0.34117E-02  5374   0.947E-02    0.188E-01
RMM:   4    -0.229994326975E+04    0.86520E-04   -0.40016E-03  4687   0.245E-02    0.114E-01
RMM:   5    -0.229994313846E+04    0.13129E-03   -0.80227E-04  4872   0.192E-02    0.311E-02
RMM:   6    -0.229994313407E+04    0.43902E-05   -0.74920E-05  3057   0.666E-03
  38 F= -.23198910E+04 E0= -.23198910E+04  d E =-.784406E-02  mag=     1.0000
       N       E                     dE             d eps       ncg     rms          rms(c)
DAV:   1    -0.229975955276E+04    0.18359E+00   -0.13123E+01  4360   0.314E+00    0.115E+00
RMM:   2    -0.229993222693E+04   -0.17267E+00   -0.18233E+00  5886   0.610E-01    0.638E-01
RMM:   3    -0.229994085735E+04   -0.86304E-02   -0.14861E-01  5363   0.193E-01    0.419E-01
RMM:   4    -0.229994026384E+04    0.59351E-03   -0.17413E-02  5180   0.492E-02    0.270E-01
RMM:   5    -0.229993934292E+04    0.92092E-03   -0.32898E-03  5014   0.343E-02    0.930E-02
RMM:   6    -0.229993934598E+04   -0.30613E-05   -0.42221E-04  4541   0.171E-02    0.392E-02
RMM:   7    -0.229993934266E+04    0.33183E-05   -0.79010E-05  3190   0.831E-03
  39 F= -.23198876E+04 E0= -.23198876E+04  d E =-.442238E-02  mag=     1.0000
       N       E                     dE             d eps       ncg     rms          rms(c)
DAV:   1    -0.229986009544E+04    0.79251E-01   -0.61486E+00  4360   0.214E+00    0.793E-01
RMM:   2    -0.229993980118E+04   -0.79706E-01   -0.84662E-01  5985   0.455E-01    0.420E-01
RMM:   3    -0.229994431088E+04   -0.45097E-02   -0.79830E-02  5495   0.129E-01    0.290E-01
RMM:   4    -0.229994433819E+04   -0.27303E-04   -0.10452E-02  5006   0.356E-02    0.175E-01
RMM:   5    -0.229994400925E+04    0.32894E-03   -0.13607E-03  4886   0.203E-02    0.106E-01
RMM:   6    -0.229994388118E+04    0.12807E-03   -0.48724E-04  4499   0.142E-02    0.382E-02
RMM:   7    -0.229994388364E+04   -0.24534E-05   -0.10658E-04  3056   0.745E-03    0.217E-02
RMM:   8    -0.229994388114E+04    0.25008E-05   -0.12064E-05  2798   0.363E-03
  40 F= -.23198919E+04 E0= -.23198919E+04  d E =-.870517E-02  mag=     1.0000
       N       E                     dE             d eps       ncg     rms          rms(c)
DAV:   1    -0.229993486875E+04    0.90149E-02   -0.92559E-01  4360   0.807E-01    0.309E-01
RMM:   2    -0.229994689454E+04   -0.12026E-01   -0.12735E-01  5901   0.166E-01    0.162E-01
RMM:   3    -0.229994745635E+04   -0.56181E-03   -0.10192E-02  5267   0.486E-02    0.101E-01
RMM:   4    -0.229994741913E+04    0.37211E-04   -0.12618E-03  4148   0.141E-02    0.508E-02
RMM:   5    -0.229994739187E+04    0.27266E-04   -0.14097E-04  3600   0.100E-02    0.175E-02
RMM:   6    -0.229994739075E+04    0.11232E-05   -0.30302E-05  2852   0.515E-03
  41 F= -.23198955E+04 E0= -.23198955E+04  d E =-.360272E-02  mag=     1.0000
       N       E                     dE             d eps       ncg     rms          rms(c)
DAV:   1    -0.229991285398E+04    0.34538E-01   -0.26847E+00  4360   0.137E+00    0.528E-01
RMM:   2    -0.229994804764E+04   -0.35194E-01   -0.37261E-01  5935   0.281E-01    0.278E-01
RMM:   3    -0.229994964540E+04   -0.15978E-02   -0.28673E-02  5468   0.819E-02    0.171E-01
RMM:   4    -0.229994956339E+04    0.82010E-04   -0.35592E-03  4519   0.226E-02    0.920E-02
RMM:   5    -0.229994946628E+04    0.97110E-04   -0.50477E-04  4594   0.168E-02    0.233E-02
RMM:   6    -0.229994946282E+04    0.34559E-05   -0.54414E-05  3068   0.575E-03
  42 F= -.23198977E+04 E0= -.23198977E+04  d E =-.583536E-02  mag=     1.0000
       N       E                     dE             d eps       ncg     rms          rms(c)
DAV:   1    -0.229994385974E+04    0.56065E-02   -0.64918E-01  4396   0.671E-01    0.271E-01
RMM:   2    -0.229995161752E+04   -0.77578E-02   -0.82523E-02  5897   0.141E-01    0.137E-01
RMM:   3    -0.229995197972E+04   -0.36220E-03   -0.70158E-03  5188   0.426E-02    0.865E-02
RMM:   4    -0.229995196061E+04    0.19112E-04   -0.86069E-04  4060   0.130E-02    0.429E-02
RMM:   5    -0.229995195613E+04    0.44818E-05   -0.97206E-05  3247   0.844E-03
  43 F= -.23199004E+04 E0= -.23199004E+04  d E =-.266238E-02  mag=     1.0000
       N       E                     dE             d eps       ncg     rms          rms(c)
DAV:   1    -0.229994178923E+04    0.10171E-01   -0.88243E-01  4360   0.782E-01    0.317E-01
RMM:   2    -0.229995229601E+04   -0.10507E-01   -0.11193E-01  5916   0.162E-01    0.161E-01
RMM:   3    -0.229995273539E+04   -0.43939E-03   -0.89102E-03  5279   0.522E-02    0.991E-02
RMM:   4    -0.229995271334E+04    0.22054E-04   -0.11565E-03  4289   0.145E-02    0.488E-02
RMM:   5    -0.229995269671E+04    0.16632E-04   -0.12099E-04  3579   0.104E-02    0.148E-02
RMM:   6    -0.229995269716E+04   -0.45492E-06   -0.21392E-05  2832   0.471E-03
  44 F= -.23199013E+04 E0= -.23199013E+04  d E =-.359944E-02  mag=     1.0000
       N       E                     dE             d eps       ncg     rms          rms(c)
DAV:   1    -0.229994611719E+04    0.65795E-02   -0.68784E-01  4364   0.704E-01    0.280E-01
RMM:   2    -0.229995479265E+04   -0.86755E-02   -0.92144E-02  5956   0.149E-01    0.142E-01
RMM:   3    -0.229995512469E+04   -0.33204E-03   -0.70097E-03  5248   0.443E-02    0.886E-02
RMM:   4    -0.229995509650E+04    0.28182E-04   -0.95299E-04  4205   0.136E-02    0.423E-02
RMM:   5    -0.229995508276E+04    0.13745E-04   -0.90856E-05  3231   0.917E-03    0.154E-02
RMM:   6    -0.229995508281E+04   -0.47032E-07   -0.20777E-05  2832   0.468E-03
  45 F= -.23199038E+04 E0= -.23199038E+04  d E =-.247867E-02  mag=     1.0000
       N       E                     dE             d eps       ncg     rms          rms(c)
DAV:   1    -0.229994721175E+04    0.78710E-02   -0.65435E-01  4392   0.686E-01    0.273E-01
RMM:   2    -0.229995544406E+04   -0.82323E-02   -0.87453E-02  5969   0.144E-01    0.138E-01
RMM:   3    -0.229995575713E+04   -0.31306E-03   -0.66757E-03  5243   0.439E-02    0.865E-02
RMM:   4    -0.229995572970E+04    0.27433E-04   -0.90815E-04  4179   0.132E-02    0.414E-02
RMM:   5    -0.229995571599E+04    0.13708E-04   -0.86806E-05  3217   0.909E-03    0.152E-02
RMM:   6    -0.229995571593E+04    0.58892E-07   -0.20422E-05  2830   0.461E-03
  46 F= -.23199045E+04 E0= -.23199045E+04  d E =-.320246E-02  mag=     1.0000
       N       E                     dE             d eps       ncg     rms          rms(c)
DAV:   1    -0.229994776036E+04    0.79556E-02   -0.89253E-01  4360   0.849E-01    0.321E-01
RMM:   2    -0.229995798799E+04   -0.10228E-01   -0.10927E-01  5861   0.173E-01    0.158E-01
RMM:   3    -0.229995828841E+04   -0.30042E-03   -0.82640E-03  5327   0.539E-02    0.962E-02
RMM:   4    -0.229995822260E+04    0.65809E-04   -0.10744E-03  4398   0.153E-02    0.473E-02
RMM:   5    -0.229995819546E+04    0.27142E-04   -0.15903E-04  4004   0.116E-02    0.142E-02
RMM:   6    -0.229995819329E+04    0.21647E-05   -0.25934E-05  2825   0.442E-03
  47 F= -.23199069E+04 E0= -.23199069E+04  d E =-.238458E-02  mag=     1.0000
       N       E                     dE             d eps       ncg     rms          rms(c)
DAV:   1    -0.229995760255E+04    0.59291E-03   -0.61113E-02  4784   0.222E-01    0.840E-02
RMM:   2    -0.229995829922E+04   -0.69667E-03   -0.74567E-03  5992   0.467E-02    0.415E-02
RMM:   3    -0.229995831945E+04   -0.20233E-04   -0.57796E-04  3373   0.149E-02    0.260E-02
RMM:   4    -0.229995831334E+04    0.61156E-05   -0.82713E-05  2822   0.494E-03
  48 F= -.23199070E+04 E0= -.23199070E+04  d E =-.248029E-02  mag=     1.0000
       N       E                     dE             d eps       ncg     rms          rms(c)
DAV:   1    -0.229995560359E+04    0.27159E-02   -0.49625E-01  4360   0.656E-01    0.225E-01
RMM:   2    -0.229996024589E+04   -0.46423E-02   -0.49683E-02  5878   0.128E-01    0.113E-01
RMM:   3    -0.229996034539E+04   -0.99506E-04   -0.35876E-03  5065   0.380E-02    0.692E-02
RMM:   4    -0.229996031233E+04    0.33058E-04   -0.51989E-04  4126   0.121E-02    0.322E-02
RMM:   5    -0.229996030132E+04    0.11015E-04   -0.62671E-05  3159   0.876E-03    0.995E-03
RMM:   6    -0.229996030158E+04   -0.25873E-06   -0.13010E-05  2812   0.432E-03
  49 F= -.23199089E+04 E0= -.23199089E+04  d E =-.193840E-02  mag=     1.0000
       N       E                     dE             d eps       ncg     rms          rms(c)
DAV:   1    -0.229995826300E+04    0.20383E-02   -0.25734E-01  4400   0.473E-01    0.162E-01
RMM:   2    -0.229996069009E+04   -0.24271E-02   -0.25965E-02  5906   0.936E-02    0.812E-02
RMM:   3    -0.229996074148E+04   -0.51393E-04   -0.19061E-03  4703   0.285E-02    0.504E-02
RMM:   4    -0.229996072314E+04    0.18340E-04   -0.27638E-04  3823   0.924E-03    0.235E-02
RMM:   5    -0.229996071698E+04    0.61636E-05   -0.33486E-05  2896   0.661E-03
  50 F= -.23199093E+04 E0= -.23199093E+04  d E =-.231739E-02  mag=     1.0000
       N       E                     dE             d eps       ncg     rms          rms(c)
DAV:   1    -0.229995689282E+04    0.38303E-02   -0.59655E-01  4360   0.747E-01    0.251E-01
RMM:   2    -0.229996214918E+04   -0.52564E-02   -0.56784E-02  5792   0.144E-01    0.118E-01
RMM:   3    -0.229996224770E+04   -0.98524E-04   -0.40854E-03  5122   0.420E-02    0.743E-02
RMM:   4    -0.229996220313E+04    0.44575E-04   -0.61280E-04  4359   0.143E-02    0.332E-02
RMM:   5    -0.229996219349E+04    0.96363E-05   -0.65046E-05  3313   0.909E-03
  51 F= -.23199108E+04 E0= -.23199108E+04  d E =-.154345E-02  mag=     1.0000
       N       E                     dE             d eps       ncg     rms          rms(c)
DAV:   1    -0.229996102403E+04    0.11791E-02   -0.12613E-01  4560   0.344E-01    0.116E-01
RMM:   2    -0.229996213494E+04   -0.11109E-02   -0.12042E-02  5796   0.661E-02    0.557E-02
RMM:   3    -0.229996214775E+04   -0.12809E-04   -0.81894E-04  4126   0.215E-02    0.349E-02
RMM:   4    -0.229996213654E+04    0.11215E-04   -0.12653E-04  3287   0.710E-03    0.162E-02
RMM:   5    -0.229996213255E+04    0.39809E-05   -0.17835E-05  2809   0.541E-03
  52 F= -.23199108E+04 E0= -.23199108E+04  d E =-.151237E-02  mag=     1.0000
       N       E                     dE             d eps       ncg     rms          rms(c)
DAV:   1    -0.229996198878E+04    0.14775E-03   -0.27109E-02  4560   0.159E-01    0.528E-02
RMM:   2    -0.229996221549E+04   -0.22671E-03   -0.24625E-03  5860   0.308E-02    0.246E-02
RMM:   3    -0.229996222083E+04   -0.53359E-05   -0.18964E-04  2908   0.105E-02    0.155E-02
RMM:   4    -0.229996221948E+04    0.13478E-05   -0.29122E-05  2804   0.366E-03
  53 F= -.23199109E+04 E0= -.23199109E+04  d E =-.158566E-02  mag=     1.0000
       N       E                     dE             d eps       ncg     rms          rms(c)
DAV:   1    -0.229995780810E+04    0.44127E-02   -0.56592E-01  4360   0.730E-01    0.235E-01
RMM:   2    -0.229996346140E+04   -0.56533E-02   -0.60563E-02  5803   0.140E-01    0.111E-01
RMM:   3    -0.229996362167E+04   -0.16027E-03   -0.42828E-03  5130   0.400E-02    0.704E-02
RMM:   4    -0.229996359076E+04    0.30912E-04   -0.59444E-04  4153   0.130E-02    0.332E-02
RMM:   5    -0.229996358567E+04    0.50954E-05   -0.62785E-05  3104   0.855E-03
  54 F= -.23199123E+04 E0= -.23199123E+04  d E =-.140919E-02  mag=     1.0000
       N       E                     dE             d eps       ncg     rms          rms(c)
DAV:   1    -0.229995907061E+04    0.45202E-02   -0.43463E-01  4368   0.640E-01    0.207E-01
RMM:   2    -0.229996344677E+04   -0.43762E-02   -0.46847E-02  5793   0.122E-01    0.988E-02
RMM:   3    -0.229996355291E+04   -0.10613E-03   -0.31325E-03  5045   0.348E-02    0.622E-02
RMM:   4    -0.229996352979E+04    0.23111E-04   -0.46095E-04  4057   0.114E-02    0.287E-02
RMM:   5    -0.229996352272E+04    0.70777E-05   -0.43208E-05  2980   0.772E-03
  55 F= -.23199123E+04 E0= -.23199123E+04  d E =-.138099E-02  mag=     1.0000
       N       E                     dE             d eps       ncg     rms          rms(c)
DAV:   1    -0.229996290637E+04    0.62343E-03   -0.80846E-02  4416   0.275E-01    0.876E-02
RMM:   2    -0.229996366609E+04   -0.75972E-03   -0.81849E-03  5962   0.526E-02    0.413E-02
RMM:   3    -0.229996370005E+04   -0.33956E-04   -0.72571E-04  3692   0.179E-02    0.278E-02
RMM:   4    -0.229996369822E+04    0.18334E-05   -0.93723E-05  2814   0.546E-03
  56 F= -.23199124E+04 E0= -.23199124E+04  d E =-.154197E-02  mag=     1.0000
       N       E                     dE             d eps       ncg     rms          rms(c)
DAV:   1    -0.229995906507E+04    0.46350E-02   -0.63400E-01  4360   0.780E-01    0.245E-01
RMM:   2    -0.229996508749E+04   -0.60224E-02   -0.64523E-02  5846   0.147E-01    0.113E-01
RMM:   3    -0.229996523788E+04   -0.15039E-03   -0.43264E-03  5163   0.433E-02    0.711E-02
RMM:   4    -0.229996520381E+04    0.34075E-04   -0.61753E-04  4223   0.132E-02    0.334E-02
RMM:   5    -0.229996519564E+04    0.81619E-05   -0.62658E-05  3200   0.903E-03
  57 F= -.23199139E+04 E0= -.23199139E+04  d E =-.148337E-02  mag=     1.0000
       N       E                     dE             d eps       ncg     rms          rms(c)
DAV:   1    -0.229996323489E+04    0.19689E-02   -0.21324E-01  4400   0.453E-01    0.144E-01
RMM:   2    -0.229996527812E+04   -0.20432E-02   -0.21874E-02  5824   0.853E-02    0.672E-02
RMM:   3    -0.229996533746E+04   -0.59339E-04   -0.15529E-03  4569   0.272E-02    0.432E-02
RMM:   4    -0.229996532704E+04    0.10425E-04   -0.22205E-04  3515   0.828E-03    0.208E-02
RMM:   5    -0.229996532484E+04    0.21956E-05   -0.27470E-05  2815   0.581E-03
  58 F= -.23199140E+04 E0= -.23199140E+04  d E =-.160353E-02  mag=     1.0000
       N       E                     dE             d eps       ncg     rms          rms(c)
DAV:   1    -0.229996123100E+04    0.40960E-02   -0.75868E-01  4360   0.870E-01    0.269E-01
RMM:   2    -0.229996655002E+04   -0.53190E-02   -0.57570E-02  5756   0.157E-01    0.122E-01
RMM:   3    -0.229996656170E+04   -0.11677E-04   -0.36327E-03  5105   0.469E-02    0.754E-02
RMM:   4    -0.229996651042E+04    0.51276E-04   -0.60911E-04  4454   0.151E-02    0.333E-02
RMM:   5    -0.229996650019E+04    0.10229E-04   -0.74224E-05  3481   0.102E-02    0.108E-02
RMM:   6    -0.229996649982E+04    0.37499E-06   -0.13852E-05  2810   0.424E-03
  59 F= -.23199152E+04 E0= -.23199152E+04  d E =-.121831E-02  mag=     1.0000
       N       E                     dE             d eps       ncg     rms          rms(c)
DAV:   1    -0.229996644672E+04    0.53479E-04   -0.73694E-03  5296   0.861E-02    0.269E-02
RMM:   2    -0.229996649899E+04   -0.52278E-04   -0.55989E-04  5486   0.167E-02    0.124E-02
RMM:   3    -0.229996649988E+04   -0.88976E-06   -0.44666E-05  2805   0.620E-03
  60 F= -.23199152E+04 E0= -.23199152E+04  d E =-.122261E-02  mag=     1.0000
       N       E                     dE             d eps       ncg     rms          rms(c)
DAV:   1    -0.229996564106E+04    0.85793E-03   -0.30290E-01  4368   0.559E-01    0.174E-01
RMM:   2    -0.229996748444E+04   -0.18434E-02   -0.20176E-02  5673   0.101E-01    0.838E-02
RMM:   3    -0.229996745805E+04    0.26389E-04   -0.13669E-03  4699   0.296E-02    0.510E-02
RMM:   4    -0.229996742903E+04    0.29022E-04   -0.22857E-04  4072   0.103E-02    0.259E-02
RMM:   5    -0.229996741867E+04    0.10367E-04   -0.49872E-05  3058   0.810E-03    0.806E-03
RMM:   6    -0.229996741752E+04    0.11491E-05   -0.94037E-06  2803   0.423E-03
  61 F= -.23199162E+04 E0= -.23199162E+04  d E =-.916092E-03  mag=     1.0000
       N       E                     dE             d eps       ncg     rms          rms(c)
DAV:   1    -0.229996738709E+04    0.31580E-04   -0.62928E-03  5160   0.809E-02    0.253E-02
RMM:   2    -0.229996742622E+04   -0.39131E-04   -0.42718E-04  5408   0.155E-02    0.121E-02
RMM:   3    -0.229996742539E+04    0.82405E-06   -0.28401E-05  2802   0.583E-03
  62 F= -.23199162E+04 E0= -.23199162E+04  d E =-.923755E-03  mag=     1.0000
       N       E                     dE             d eps       ncg     rms          rms(c)
DAV:   1    -0.229996666920E+04    0.75702E-03   -0.24342E-01  4368   0.515E-01    0.160E-01
RMM:   2    -0.229996816303E+04   -0.14938E-02   -0.16408E-02  5657   0.904E-02    0.718E-02
RMM:   3    -0.229996814660E+04    0.16435E-04   -0.11326E-03  4591   0.273E-02    0.437E-02
RMM:   4    -0.229996812529E+04    0.21309E-04   -0.19109E-04  4036   0.981E-03    0.198E-02
RMM:   5    -0.229996812161E+04    0.36837E-05   -0.28914E-05  2833   0.722E-03
  63 F= -.23199168E+04 E0= -.23199168E+04  d E =-.640189E-03  mag=     1.0000
       N       E                     dE             d eps       ncg     rms          rms(c)
DAV:   1    -0.229996802406E+04    0.10123E-03   -0.14552E-02  4984   0.126E-01    0.397E-02
RMM:   2    -0.229996811611E+04   -0.92055E-04   -0.99838E-04  5700   0.238E-02    0.177E-02
RMM:   3    -0.229996811630E+04   -0.19511E-06   -0.77664E-05  2839   0.897E-03
  64 F= -.23199168E+04 E0= -.23199168E+04  d E =-.621034E-03  mag=     1.0000
       N       E                     dE             d eps       ncg     rms          rms(c)
DAV:   1    -0.229996746754E+04    0.64857E-03   -0.20904E-01  4368   0.476E-01    0.126E-01
RMM:   2    -0.229996865814E+04   -0.11906E-02   -0.12955E-02  5635   0.807E-02    0.621E-02
RMM:   3    -0.229996864638E+04    0.11761E-04   -0.84215E-04  4300   0.245E-02    0.392E-02
RMM:   4    -0.229996862899E+04    0.17386E-04   -0.14390E-04  3785   0.838E-03    0.175E-02
RMM:   5    -0.229996862508E+04    0.39117E-05   -0.23039E-05  2829   0.633E-03
  65 F= -.23199173E+04 E0= -.23199173E+04  d E =-.510113E-03  mag=     1.0000
       N       E                     dE             d eps       ncg     rms          rms(c)
DAV:   1    -0.229996812622E+04    0.50277E-03   -0.95670E-02  4400   0.322E-01    0.852E-02
RMM:   2    -0.229996867331E+04   -0.54709E-03   -0.59266E-03  5673   0.555E-02    0.408E-02
RMM:   3    -0.229996867495E+04   -0.16330E-05   -0.43504E-04  3814   0.194E-02    0.266E-02
RMM:   4    -0.229996866729E+04    0.76599E-05   -0.67896E-05  2914   0.600E-03
  66 F= -.23199173E+04 E0= -.23199173E+04  d E =-.553198E-03  mag=     1.0000
       N       E                     dE             d eps       ncg     rms          rms(c)
DAV:   1    -0.229996837753E+04    0.29742E-03   -0.19427E-01  4360   0.456E-01    0.128E-01
RMM:   2    -0.229996939869E+04   -0.10212E-02   -0.11181E-02  5709   0.783E-02    0.592E-02
RMM:   3    -0.229996939624E+04    0.24433E-05   -0.84446E-04  4454   0.280E-02    0.379E-02
RMM:   4    -0.229996938178E+04    0.14465E-04   -0.13624E-04  3771   0.882E-03    0.165E-02
RMM:   5    -0.229996938043E+04    0.13468E-05   -0.21502E-05  2833   0.617E-03
  67 F= -.23199181E+04 E0= -.23199181E+04  d E =-.708051E-03  mag=     1.0000
       N       E                     dE             d eps       ncg     rms          rms(c)
DAV:   1    -0.229996906152E+04    0.32026E-03   -0.80429E-02  4400   0.293E-01    0.827E-02
RMM:   2    -0.229996949029E+04   -0.42877E-03   -0.46890E-03  5663   0.509E-02    0.388E-02
RMM:   3    -0.229996948341E+04    0.68848E-05   -0.30449E-04  3670   0.174E-02    0.243E-02
RMM:   4    -0.229996947709E+04    0.63148E-05   -0.50346E-05  2892   0.562E-03
  68 F= -.23199181E+04 E0= -.23199181E+04  d E =-.801388E-03  mag=     1.0000
       N       E                     dE             d eps       ncg     rms          rms(c)
DAV:   1    -0.229996939338E+04    0.90029E-04   -0.10986E-01  4376   0.343E-01    0.978E-02
RMM:   2    -0.229997000756E+04   -0.61418E-03   -0.67382E-03  5689   0.597E-02    0.466E-02
RMM:   3    -0.229997000163E+04    0.59285E-05   -0.49048E-04  4103   0.224E-02    0.295E-02
RMM:   4    -0.229996999296E+04    0.86676E-05   -0.80799E-05  3315   0.699E-03
  69 F= -.23199186E+04 E0= -.23199186E+04  d E =-.479279E-03  mag=     1.0000
       N       E                     dE             d eps       ncg     rms          rms(c)
DAV:   1    -0.229996987630E+04    0.12533E-03   -0.31763E-02  4560   0.185E-01    0.532E-02
RMM:   2    -0.229997005783E+04   -0.18153E-03   -0.19828E-03  5877   0.339E-02    0.258E-02
RMM:   3    -0.229997005671E+04    0.11162E-05   -0.14855E-04  3120   0.113E-02    0.165E-02
RMM:   4    -0.229997005404E+04    0.26764E-05   -0.24831E-05  2805   0.410E-03
  70 F= -.23199187E+04 E0= -.23199187E+04  d E =-.520573E-03  mag=     1.0000
       N       E                     dE             d eps       ncg     rms          rms(c)
DAV:   1    -0.229996987919E+04    0.17753E-03   -0.11192E-01  4360   0.355E-01    0.101E-01
RMM:   2    -0.229997047048E+04   -0.59129E-03   -0.65700E-03  5718   0.611E-02    0.442E-02
RMM:   3    -0.229997046623E+04    0.42456E-05   -0.49807E-04  4060   0.225E-02    0.287E-02
RMM:   4    -0.229997045542E+04    0.10810E-04   -0.84562E-05  3409   0.730E-03    0.133E-02
RMM:   5    -0.229997045440E+04    0.10220E-05   -0.16630E-05  2804   0.542E-03
  71 F= -.23199190E+04 E0= -.23199190E+04  d E =-.369419E-03  mag=     1.0000
       N       E                     dE             d eps       ncg     rms          rms(c)
DAV:   1    -0.229997040899E+04    0.46434E-04   -0.12502E-02  4800   0.119E-01    0.343E-02
RMM:   2    -0.229997047613E+04   -0.67141E-04   -0.74678E-04  5543   0.208E-02    0.153E-02
RMM:   3    -0.229997047439E+04    0.17373E-05   -0.47712E-05  2850   0.848E-03
  72 F= -.23199190E+04 E0= -.23199190E+04  d E =-.378975E-03  mag=     1.0000
       N       E                     dE             d eps       ncg     rms          rms(c)
DAV:   1    -0.229997029301E+04    0.18312E-03   -0.11494E-01  4384   0.362E-01    0.987E-02
RMM:   2    -0.229997086898E+04   -0.57597E-03   -0.63783E-03  5609   0.609E-02    0.455E-02
RMM:   3    -0.229997085699E+04    0.11983E-04   -0.42414E-04  3912   0.193E-02    0.286E-02
RMM:   4    -0.229997084563E+04    0.11365E-04   -0.84755E-05  3582   0.741E-03    0.110E-02
RMM:   5    -0.229997084468E+04    0.94582E-06   -0.11468E-05  2795   0.534E-03
  73 F= -.23199194E+04 E0= -.23199194E+04  d E =-.328725E-03  mag=     1.0000
       N       E                     dE             d eps       ncg     rms          rms(c)
DAV:   1    -0.229997080791E+04    0.37717E-04   -0.10895E-02  4816   0.112E-01    0.306E-02
RMM:   2    -0.229997086402E+04   -0.56109E-04   -0.61552E-04  5516   0.195E-02    0.139E-02
RMM:   3    -0.229997086345E+04    0.57141E-06   -0.46579E-05  2811   0.804E-03
  74 F= -.23199194E+04 E0= -.23199194E+04  d E =-.334615E-03  mag=     1.0000
       N       E                     dE             d eps       ncg     rms          rms(c)
DAV:   1    -0.229997069289E+04    0.17113E-03   -0.12722E-01  4360   0.378E-01    0.101E-01
RMM:   2    -0.229997128847E+04   -0.59558E-03   -0.65980E-03  5589   0.638E-02    0.485E-02
RMM:   3    -0.229997126981E+04    0.18661E-04   -0.42463E-04  3953   0.204E-02    0.301E-02
RMM:   4    -0.229997125769E+04    0.12120E-04   -0.78475E-05  3501   0.726E-03    0.147E-02
RMM:   5    -0.229997125427E+04    0.34177E-05   -0.19496E-05  2817   0.584E-03
  75 F= -.23199197E+04 E0= -.23199197E+04  d E =-.301395E-03  mag=     1.0000
       N       E                     dE             d eps       ncg     rms          rms(c)
DAV:   1    -0.229997124625E+04    0.11443E-04   -0.42462E-03  5160   0.696E-02    0.189E-02
RMM:   2    -0.229997126722E+04   -0.20973E-04   -0.23032E-04  5139   0.129E-02    0.888E-03
RMM:   3    -0.229997126684E+04    0.38240E-06   -0.17700E-05  2767   0.547E-03
  76 F= -.23199197E+04 E0= -.23199197E+04  d E =-.297432E-03  mag=     1.0000
       N       E                     dE             d eps       ncg     rms          rms(c)
DAV:   1    -0.229997112041E+04    0.14681E-03   -0.11965E-01  4368   0.365E-01    0.963E-02
RMM:   2    -0.229997163483E+04   -0.51442E-03   -0.57205E-03  5587   0.611E-02    0.455E-02
RMM:   3    -0.229997161418E+04    0.20654E-04   -0.35214E-04  3874   0.193E-02    0.285E-02
RMM:   4    -0.229997160231E+04    0.11864E-04   -0.69041E-05  3475   0.708E-03    0.126E-02
RMM:   5    -0.229997160033E+04    0.19798E-05   -0.14906E-05  2803   0.551E-03
  77 F= -.23199200E+04 E0= -.23199200E+04  d E =-.271046E-03  mag=     1.0000
       N       E                     dE             d eps       ncg     rms          rms(c)
DAV:   1    -0.229997159090E+04    0.11415E-04   -0.40524E-03  5000   0.676E-02    0.182E-02
RMM:   2    -0.229997160945E+04   -0.18555E-04   -0.20353E-04  5021   0.123E-02    0.843E-03
RMM:   3    -0.229997160899E+04    0.46243E-06   -0.15425E-05  2784   0.534E-03
  78 F= -.23199199E+04 E0= -.23199199E+04  d E =-.268084E-03  mag=     1.0000
       N       E                     dE             d eps       ncg     rms          rms(c)
DAV:   1    -0.229997134871E+04    0.26074E-03   -0.12354E-01  4368   0.373E-01    0.972E-02
RMM:   2    -0.229997191375E+04   -0.56504E-03   -0.62222E-03  5603   0.619E-02    0.446E-02
RMM:   3    -0.229997189698E+04    0.16773E-04   -0.38436E-04  3891   0.195E-02    0.282E-02
RMM:   4    -0.229997188535E+04    0.11630E-04   -0.78470E-05  3597   0.739E-03    0.107E-02
RMM:   5    -0.229997188445E+04    0.89726E-06   -0.11099E-05  2801   0.527E-03
  79 F= -.23199202E+04 E0= -.23199202E+04  d E =-.269948E-03  mag=     1.0000
       N       E                     dE             d eps       ncg     rms          rms(c)
DAV:   1    -0.229997186276E+04    0.22585E-04   -0.47023E-03  4992   0.732E-02    0.193E-02
RMM:   2    -0.229997188516E+04   -0.22400E-04   -0.24272E-04  5157   0.129E-02    0.878E-03
RMM:   3    -0.229997188491E+04    0.25018E-06   -0.18939E-05  2784   0.575E-03
  80 F= -.23199202E+04 E0= -.23199202E+04  d E =-.269316E-03  mag=     1.0000
       N       E                     dE             d eps       ncg     rms          rms(c)
DAV:   1    -0.229997151860E+04    0.36657E-03   -0.12725E-01  4364   0.381E-01    0.103E-01
RMM:   2    -0.229997216765E+04   -0.64905E-03   -0.71334E-03  5609   0.637E-02    0.447E-02
RMM:   3    -0.229997215719E+04    0.10457E-04   -0.46704E-04  3976   0.206E-02    0.282E-02
RMM:   4    -0.229997214572E+04    0.11476E-04   -0.89536E-05  3641   0.751E-03    0.107E-02
RMM:   5    -0.229997214484E+04    0.87335E-06   -0.10645E-05  2802   0.529E-03
  81 F= -.23199205E+04 E0= -.23199205E+04  d E =-.247574E-03  mag=     1.0000
       N       E                     dE             d eps       ncg     rms          rms(c)
DAV:   1    -0.229997213634E+04    0.93797E-05   -0.13930E-03  5336   0.403E-02    0.112E-02
RMM:   2    -0.229997214378E+04   -0.74405E-05   -0.81122E-05  3465   0.748E-03
  82 F= -.23199205E+04 E0= -.23199205E+04  d E =-.245161E-03  mag=     1.0000
       N       E                     dE             d eps       ncg     rms          rms(c)
DAV:   1    -0.229997191046E+04    0.22588E-03   -0.99730E-02  4364   0.335E-01    0.918E-02
RMM:   2    -0.229997244113E+04   -0.53067E-03   -0.58157E-03  5897   0.587E-02    0.418E-02
RMM:   3    -0.229997243694E+04    0.41845E-05   -0.43305E-04  4051   0.209E-02    0.264E-02
RMM:   4    -0.229997242813E+04    0.88106E-05   -0.67072E-05  3206   0.678E-03
  83 F= -.23199207E+04 E0= -.23199207E+04  d E =-.217697E-03  mag=     1.0000
       N       E                     dE             d eps       ncg     rms          rms(c)
DAV:   1    -0.229997242247E+04    0.14469E-04   -0.21450E-03  5312   0.496E-02    0.146E-02
RMM:   2    -0.229997243415E+04   -0.11675E-04   -0.12891E-04  4164   0.966E-03    0.715E-03
RMM:   3    -0.229997243475E+04   -0.59586E-06   -0.14423E-05  2653   0.460E-03
  84 F= -.23199207E+04 E0= -.23199207E+04  d E =-.214190E-03  mag=     1.0000
       N       E                     dE             d eps       ncg     rms          rms(c)
DAV:   1    -0.229997231418E+04    0.11997E-03   -0.83555E-02  4364   0.303E-01    0.818E-02
RMM:   2    -0.229997270841E+04   -0.39423E-03   -0.43185E-03  5631   0.507E-02    0.378E-02
RMM:   3    -0.229997269514E+04    0.13272E-04   -0.23856E-04  3648   0.167E-02    0.236E-02
RMM:   4    -0.229997268795E+04    0.71907E-05   -0.49676E-05  3134   0.611E-03
  85 F= -.23199209E+04 E0= -.23199209E+04  d E =-.209157E-03  mag=     1.0000
       N       E                     dE             d eps       ncg     rms          rms(c)
DAV:   1    -0.229997265901E+04    0.36128E-04   -0.98505E-03  4656   0.104E-01    0.289E-02
RMM:   2    -0.229997270626E+04   -0.47248E-04   -0.51726E-04  5575   0.187E-02    0.137E-02
RMM:   3    -0.229997270547E+04    0.79286E-06   -0.38375E-05  2806   0.662E-03
  86 F= -.23199209E+04 E0= -.23199209E+04  d E =-.211301E-03  mag=     1.0000
       N       E                     dE             d eps       ncg     rms          rms(c)
DAV:   1    -0.229997263035E+04    0.75911E-04   -0.84762E-02  4364   0.304E-01    0.805E-02
RMM:   2    -0.229997298070E+04   -0.35035E-03   -0.38413E-03  5645   0.511E-02    0.374E-02
RMM:   3    -0.229997296897E+04    0.11733E-04   -0.25514E-04  3630   0.158E-02    0.234E-02
RMM:   4    -0.229997296099E+04    0.79787E-05   -0.53146E-05  3231   0.618E-03
  87 F= -.23199211E+04 E0= -.23199211E+04  d E =-.245408E-03  mag=     1.0000
       N       E                     dE             d eps       ncg     rms          rms(c)
DAV:   1    -0.229997288971E+04    0.79256E-04   -0.21776E-02  4400   0.154E-01    0.411E-02
RMM:   2    -0.229997298315E+04   -0.93437E-04   -0.10155E-03  5820   0.269E-02    0.187E-02
RMM:   3    -0.229997297967E+04    0.34754E-05   -0.64566E-05  2925   0.850E-03
  88 F= -.23199211E+04 E0= -.23199211E+04  d E =-.258904E-03  mag=     1.0000
       N       E                     dE             d eps       ncg     rms          rms(c)
DAV:   1    -0.229997288346E+04    0.99684E-04   -0.78440E-02  4364   0.294E-01    0.775E-02
RMM:   2    -0.229997323120E+04   -0.34774E-03   -0.38029E-03  5705   0.489E-02    0.356E-02
RMM:   3    -0.229997321802E+04    0.13189E-04   -0.21032E-04  3581   0.150E-02    0.222E-02
RMM:   4    -0.229997321147E+04    0.65427E-05   -0.47582E-05  3106   0.600E-03
  89 F= -.23199214E+04 E0= -.23199214E+04  d E =-.236224E-03  mag=     1.0000
       N       E                     dE             d eps       ncg     rms          rms(c)
DAV:   1    -0.229997306386E+04    0.15415E-03   -0.39614E-02  4368   0.209E-01    0.551E-02
RMM:   2    -0.229997324307E+04   -0.17921E-03   -0.19442E-03  5789   0.353E-02    0.250E-02
RMM:   3    -0.229997323738E+04    0.56924E-05   -0.11694E-04  3280   0.122E-02    0.156E-02
RMM:   4    -0.229997323424E+04    0.31365E-05   -0.20382E-05  2808   0.420E-03
  90 F= -.23199214E+04 E0= -.23199214E+04  d E =-.262107E-03  mag=     1.0000
       N       E                     dE             d eps       ncg     rms          rms(c)
DAV:   1    -0.229997299618E+04    0.24120E-03   -0.98885E-02  4360   0.329E-01    0.876E-02
RMM:   2    -0.229997350082E+04   -0.50464E-03   -0.54933E-03  5781   0.555E-02    0.399E-02
RMM:   3    -0.229997349204E+04    0.87758E-05   -0.33366E-04  3841   0.188E-02    0.250E-02
RMM:   4    -0.229997348417E+04    0.78733E-05   -0.64910E-05  3304   0.654E-03
  91 F= -.23199217E+04 E0= -.23199217E+04  d E =-.243907E-03  mag=     1.0000
       N       E                     dE             d eps       ncg     rms          rms(c)
DAV:   1    -0.229997342764E+04    0.64406E-04   -0.12287E-02  4720   0.116E-01    0.317E-02
RMM:   2    -0.229997349311E+04   -0.65479E-04   -0.70962E-04  5712   0.216E-02    0.147E-02
RMM:   3    -0.229997349276E+04    0.35371E-06   -0.51450E-05  2831   0.719E-03
  92 F= -.23199217E+04 E0= -.23199217E+04  d E =-.250331E-03  mag=     1.0000
       N       E                     dE             d eps       ncg     rms          rms(c)
DAV:   1    -0.229997320420E+04    0.28892E-03   -0.10041E-01  4360   0.330E-01    0.902E-02
RMM:   2    -0.229997376030E+04   -0.55610E-03   -0.60379E-03  5703   0.565E-02    0.424E-02
RMM:   3    -0.229997374752E+04    0.12776E-04   -0.32714E-04  3710   0.169E-02    0.265E-02
RMM:   4    -0.229997373987E+04    0.76531E-05   -0.68439E-05  3269   0.670E-03
  93 F= -.23199219E+04 E0= -.23199219E+04  d E =-.242687E-03  mag=     1.0000
       N       E                     dE             d eps       ncg     rms          rms(c)
DAV:   1    -0.229997368548E+04    0.62036E-04   -0.10153E-02  4792   0.105E-01    0.292E-02
RMM:   2    -0.229997374228E+04   -0.56800E-04   -0.61583E-04  5594   0.194E-02    0.141E-02
RMM:   3    -0.229997374208E+04    0.20249E-06   -0.44135E-05  2809   0.677E-03
  94 F= -.23199219E+04 E0= -.23199219E+04  d E =-.243418E-03  mag=     1.0000
       N       E                     dE             d eps       ncg     rms          rms(c)
DAV:   1    -0.229997334649E+04    0.39580E-03   -0.11155E-01  4360   0.344E-01    0.925E-02
RMM:   2    -0.229997399847E+04   -0.65199E-03   -0.70044E-03  5700   0.597E-02    0.446E-02
RMM:   3    -0.229997399612E+04    0.23466E-05   -0.44766E-04  3786   0.179E-02    0.283E-02
RMM:   4    -0.229997398729E+04    0.88316E-05   -0.85869E-05  3446   0.695E-03
  95 F= -.23199221E+04 E0= -.23199221E+04  d E =-.221767E-03  mag=     1.0000
       N       E                     dE             d eps       ncg     rms          rms(c)
DAV:   1    -0.229997393547E+04    0.60657E-04   -0.10053E-02  4720   0.104E-01    0.285E-02
RMM:   2    -0.229997399534E+04   -0.59872E-04   -0.63797E-04  5577   0.195E-02    0.138E-02
RMM:   3    -0.229997399670E+04   -0.13617E-05   -0.53152E-05  2818   0.673E-03
  96 F= -.23199221E+04 E0= -.23199221E+04  d E =-.223963E-03  mag=     1.0000
       N       E                     dE             d eps       ncg     rms          rms(c)
DAV:   1    -0.229997352079E+04    0.47454E-03   -0.11634E-01  4360   0.353E-01    0.985E-02
RMM:   2    -0.229997422497E+04   -0.70417E-03   -0.76391E-03  5705   0.611E-02    0.480E-02
RMM:   3    -0.229997421403E+04    0.10940E-04   -0.44617E-04  3804   0.185E-02    0.300E-02
RMM:   4    -0.229997420485E+04    0.91773E-05   -0.83719E-05  3331   0.706E-03
  97 F= -.23199223E+04 E0= -.23199223E+04  d E =-.217228E-03  mag=     1.0000
       N       E                     dE             d eps       ncg     rms          rms(c)
DAV:   1    -0.229997419556E+04    0.18469E-04   -0.45180E-04  5192   0.230E-02    0.846E-03
RMM:   2    -0.229997419836E+04   -0.28006E-05   -0.35560E-05  2841   0.489E-03
  98 F= -.23199223E+04 E0= -.23199223E+04  d E =-.211330E-03  mag=     1.0000
       N       E                     dE             d eps       ncg     rms          rms(c)
DAV:   1    -0.229997387961E+04    0.31595E-03   -0.78358E-02  4364   0.291E-01    0.856E-02
RMM:   2    -0.229997433436E+04   -0.45475E-03   -0.49572E-03  5758   0.516E-02    0.392E-02
RMM:   3    -0.229997433468E+04   -0.31643E-06   -0.37922E-04  3812   0.189E-02    0.246E-02
RMM:   4    -0.229997432832E+04    0.63540E-05   -0.64823E-05  3176   0.620E-03
  99 F= -.23199225E+04 E0= -.23199225E+04  d E =-.187789E-03  mag=     1.0000
       N       E                     dE             d eps       ncg     rms          rms(c)
DAV:   1    -0.229997430598E+04    0.28700E-04   -0.19276E-03  5304   0.461E-02    0.149E-02
RMM:   2    -0.229997431734E+04   -0.11365E-04   -0.12565E-04  3956   0.914E-03    0.774E-03
RMM:   3    -0.229997431821E+04   -0.86974E-06   -0.15761E-05  2607   0.472E-03
 100 F= -.23199225E+04 E0= -.23199225E+04  d E =-.186960E-03  mag=     1.0000
       N       E                     dE             d eps       ncg     rms          rms(c)
DAV:   1    -0.229997418413E+04    0.13321E-03   -0.59054E-02  4364   0.249E-01    0.755E-02
RMM:   2    -0.229997449709E+04   -0.31296E-03   -0.34592E-03  5690   0.431E-02    0.350E-02
RMM:   3    -0.229997448596E+04    0.11126E-04   -0.19793E-04  3388   0.133E-02    0.213E-02
RMM:   4    -0.229997447973E+04    0.62261E-05   -0.44458E-05  3010   0.555E-03
 101 F= -.23199227E+04 E0= -.23199227E+04  d E =-.158915E-03  mag=     1.0000
       N       E                     dE             d eps       ncg     rms          rms(c)
DAV:   1    -0.229997447211E+04    0.13846E-04   -0.96893E-04  5208   0.324E-02    0.107E-02
RMM:   2    -0.229997447703E+04   -0.49122E-05   -0.57765E-05  3179   0.645E-03
 102 F= -.23199227E+04 E0= -.23199227E+04  d E =-.155849E-03  mag=     1.0000
       N       E                     dE             d eps       ncg     rms          rms(c)
DAV:   1    -0.229997439335E+04    0.78763E-04   -0.58093E-02  4364   0.243E-01    0.745E-02
RMM:   2    -0.229997470326E+04   -0.30991E-03   -0.33979E-03  5928   0.449E-02    0.354E-02
RMM:   3    -0.229997469535E+04    0.79132E-05   -0.21342E-04  3495   0.142E-02    0.215E-02
RMM:   4    -0.229997469023E+04    0.51203E-05   -0.38097E-05  2839   0.512E-03
 103 F= -.23199228E+04 E0= -.23199228E+04  d E =-.149796E-03  mag=     1.0000
       N       E                     dE             d eps       ncg     rms          rms(c)
DAV:   1    -0.229997469030E+04    0.50510E-05   -0.12233E-03  5200   0.357E-02    0.117E-02
RMM:   2    -0.229997469643E+04   -0.61371E-05   -0.70408E-05  3293   0.701E-03
 104 F= -.23199228E+04 E0= -.23199228E+04  d E =-.146462E-03  mag=     1.0000
       N       E                     dE             d eps       ncg     rms          rms(c)
DAV:   1    -0.229997454579E+04    0.14451E-03   -0.53674E-02  4364   0.233E-01    0.735E-02
RMM:   2    -0.229997488716E+04   -0.34137E-03   -0.37112E-03  6001   0.436E-02    0.348E-02
RMM:   3    -0.229997488513E+04    0.20275E-05   -0.25518E-04  3425   0.140E-02    0.213E-02
RMM:   4    -0.229997488143E+04    0.37032E-05   -0.40462E-05  2830   0.501E-03
 105 F= -.23199230E+04 E0= -.23199230E+04  d E =-.134714E-03  mag=     1.0000
       N       E                     dE             d eps       ncg     rms          rms(c)
DAV:   1    -0.229997487371E+04    0.11420E-04   -0.25618E-03  5016   0.512E-02    0.166E-02
RMM:   2    -0.229997488964E+04   -0.15930E-04   -0.17543E-04  4182   0.101E-02    0.839E-03
RMM:   3    -0.229997489006E+04   -0.41863E-06   -0.15804E-05  2750   0.490E-03
 106 F= -.23199230E+04 E0= -.23199230E+04  d E =-.132017E-03  mag=     1.0000
       N       E                     dE             d eps       ncg     rms          rms(c)
DAV:   1    -0.229997456915E+04    0.32049E-03   -0.54901E-02  4364   0.233E-01    0.720E-02
RMM:   2    -0.229997501908E+04   -0.44993E-03   -0.48235E-03  5773   0.428E-02    0.355E-02
RMM:   3    -0.229997502623E+04   -0.71523E-05   -0.33502E-04  3298   0.133E-02    0.226E-02
RMM:   4    -0.229997502241E+04    0.38170E-05   -0.56960E-05  2875   0.517E-03
 107 F= -.23199231E+04 E0= -.23199231E+04  d E =-.162592E-03  mag=     1.0000
       N       E                     dE             d eps       ncg     rms          rms(c)
DAV:   1    -0.229997496815E+04    0.58079E-04   -0.56775E-03  4760   0.751E-02    0.238E-02
RMM:   2    -0.229997501346E+04   -0.45307E-04   -0.48953E-04  5369   0.148E-02    0.126E-02
RMM:   3    -0.229997501676E+04   -0.32979E-05   -0.59704E-05  2793   0.596E-03
 108 F= -.23199231E+04 E0= -.23199231E+04  d E =-.166687E-03  mag=     1.0000
       N       E                     dE             d eps       ncg     rms          rms(c)
DAV:   1    -0.229997466344E+04    0.35001E-03   -0.59789E-02  4364   0.245E-01    0.810E-02
RMM:   2    -0.229997515274E+04   -0.48929E-03   -0.52825E-03  5754   0.444E-02    0.394E-02
RMM:   3    -0.229997515520E+04   -0.24598E-05   -0.35714E-04  3320   0.137E-02    0.244E-02
RMM:   4    -0.229997515099E+04    0.42133E-05   -0.60493E-05  2869   0.558E-03
 109 F= -.23199233E+04 E0= -.23199233E+04  d E =-.150043E-03  mag=     1.0000
       N       E                     dE             d eps       ncg     rms          rms(c)
DAV:   1    -0.229997513006E+04    0.25141E-04   -0.15620E-03  5264   0.400E-02    0.142E-02
RMM:   2    -0.229997514294E+04   -0.12878E-04   -0.14244E-04  3784   0.817E-03    0.766E-03
RMM:   3    -0.229997514357E+04   -0.63462E-06   -0.15690E-05  2607   0.446E-03
 110 F= -.23199233E+04 E0= -.23199233E+04  d E =-.145230E-03  mag=     1.0000
       N       E                     dE             d eps       ncg     rms          rms(c)
DAV:   1    -0.229997484322E+04    0.29971E-03   -0.59314E-02  4364   0.238E-01    0.739E-02
RMM:   2    -0.229997531559E+04   -0.47237E-03   -0.50597E-03  5735   0.439E-02    0.366E-02
RMM:   3    -0.229997532019E+04   -0.45994E-05   -0.33395E-04  3342   0.136E-02    0.230E-02
RMM:   4    -0.229997531550E+04    0.46888E-05   -0.57758E-05  2874   0.529E-03
 111 F= -.23199234E+04 E0= -.23199234E+04  d E =-.124972E-03  mag=     1.0000
       N       E                     dE             d eps       ncg     rms          rms(c)
DAV:   1    -0.229997531074E+04    0.94483E-05   -0.12036E-03  5112   0.343E-02    0.117E-02
RMM:   2    -0.229997532032E+04   -0.95825E-05   -0.10380E-04  3356   0.714E-03    0.622E-03
RMM:   3    -0.229997532108E+04   -0.75424E-06   -0.13737E-05  2505   0.430E-03
 112 F= -.23199234E+04 E0= -.23199234E+04  d E =-.123634E-03  mag=     1.0000
       N       E                     dE             d eps       ncg     rms          rms(c)
DAV:   1    -0.229997523244E+04    0.87886E-04   -0.45200E-02  4364   0.209E-01    0.675E-02
RMM:   2    -0.229997553893E+04   -0.30649E-03   -0.33547E-03  5703   0.380E-02    0.327E-02
RMM:   3    -0.229997553432E+04    0.46089E-05   -0.19970E-04  3186   0.122E-02    0.202E-02
RMM:   4    -0.229997553074E+04    0.35782E-05   -0.40497E-05  2836   0.504E-03
 113 F= -.23199235E+04 E0= -.23199235E+04  d E =-.151438E-03  mag=     1.0000
       N       E                     dE             d eps       ncg     rms          rms(c)
DAV:   1    -0.229997552370E+04    0.10626E-04   -0.29174E-03  4992   0.535E-02    0.180E-02
RMM:   2    -0.229997554345E+04   -0.19756E-04   -0.22005E-04  4584   0.106E-02    0.917E-03
RMM:   3    -0.229997554363E+04   -0.17812E-06   -0.17613E-05  2767   0.483E-03
 114 F= -.23199235E+04 E0= -.23199235E+04  d E =-.149139E-03  mag=     1.0000
       N       E                     dE             d eps       ncg     rms          rms(c)
DAV:   1    -0.229997549605E+04    0.47405E-04   -0.30276E-02  4364   0.174E-01    0.554E-02
RMM:   2    -0.229997567941E+04   -0.18336E-03   -0.20059E-03  5721   0.315E-02    0.258E-02
RMM:   3    -0.229997567754E+04    0.18730E-05   -0.13112E-04  2992   0.975E-03    0.158E-02
RMM:   4    -0.229997567516E+04    0.23794E-05   -0.29068E-05  2820   0.416E-03
 115 F= -.23199237E+04 E0= -.23199237E+04  d E =-.124629E-03  mag=     1.0000
       N       E                     dE             d eps       ncg     rms          rms(c)
DAV:   1    -0.229997565276E+04    0.24782E-04   -0.57712E-03  4496   0.760E-02    0.243E-02
RMM:   2    -0.229997568779E+04   -0.35038E-04   -0.38314E-04  5305   0.146E-02    0.113E-02
RMM:   3    -0.229997568844E+04   -0.64490E-06   -0.33636E-05  2796   0.579E-03
 116 F= -.23199237E+04 E0= -.23199237E+04  d E =-.134811E-03  mag=     1.0000
       N       E                     dE             d eps       ncg     rms          rms(c)
DAV:   1    -0.229997560253E+04    0.85266E-04   -0.31710E-02  4364   0.181E-01    0.610E-02
RMM:   2    -0.229997579185E+04   -0.18932E-03   -0.21117E-03  5684   0.321E-02    0.281E-02
RMM:   3    -0.229997578878E+04    0.30653E-05   -0.15717E-04  3004   0.100E-02    0.172E-02
RMM:   4    -0.229997578605E+04    0.27310E-05   -0.30192E-05  2806   0.465E-03
 117 F= -.23199238E+04 E0= -.23199238E+04  d E =-.119378E-03  mag=     1.0000
       N       E                     dE             d eps       ncg     rms          rms(c)
DAV:   1    -0.229997577865E+04    0.10135E-04   -0.33792E-04  5096   0.193E-02    0.739E-03
RMM:   2    -0.229997578085E+04   -0.22023E-05   -0.27192E-05  2650   0.422E-03
 118 F= -.23199238E+04 E0= -.23199238E+04  d E =-.116544E-03  mag=     1.0000
       N       E                     dE             d eps       ncg     rms          rms(c)
DAV:   1    -0.229997578271E+04   -0.40668E-05   -0.15080E-04  4400   0.126E-02    0.374E-03
RMM:   2    -0.229997578348E+04   -0.77009E-06   -0.90302E-06  2320   0.241E-03
 119 F= -.23199238E+04 E0= -.23199238E+04  d E =-.117693E-03  mag=     1.0000
       N       E                     dE             d eps       ncg     rms          rms(c)
DAV:   1    -0.229997572305E+04    0.59662E-04   -0.22181E-02  4360   0.152E-01    0.500E-02
RMM:   2    -0.229997587542E+04   -0.15237E-03   -0.16816E-03  5603   0.272E-02    0.227E-02
RMM:   3    -0.229997587381E+04    0.16101E-05   -0.10614E-04  3144   0.119E-02    0.138E-02
RMM:   4    -0.229997587156E+04    0.22557E-05   -0.24729E-05  2810   0.405E-03
 120 F= -.23199239E+04 E0= -.23199239E+04  d E =-.778625E-04  mag=     1.0000
       N       E                     dE             d eps       ncg     rms          rms(c)
DAV:   1    -0.229997587139E+04    0.24283E-05   -0.43908E-06  3448   0.346E-03    0.279E-03
RMM:   2    -0.229997587125E+04    0.13578E-06   -0.12844E-06  2250   0.142E-03
 121 F= -.23199239E+04 E0= -.23199239E+04  d E =-.775975E-04  mag=     1.0000
       N       E                     dE             d eps       ncg     rms          rms(c)
DAV:   1    -0.229997582148E+04    0.49903E-04   -0.20212E-02  4368   0.144E-01    0.472E-02
RMM:   2    -0.229997597459E+04   -0.15311E-03   -0.16774E-03  5681   0.262E-02    0.220E-02
RMM:   3    -0.229997597343E+04    0.11595E-05   -0.95680E-05  2918   0.904E-03
 122 F= -.23199240E+04 E0= -.23199240E+04  d E =-.788695E-04  mag=     1.0000
       N       E                     dE             d eps       ncg     rms          rms(c)
DAV:   1    -0.229997597141E+04    0.31830E-05   -0.41700E-04  5152   0.209E-02    0.923E-03
RMM:   2    -0.229997597485E+04   -0.34476E-05   -0.43015E-05  2745   0.461E-03
 123 F= -.23199240E+04 E0= -.23199240E+04  d E =-.767197E-04  mag=     1.0000
       N       E                     dE             d eps       ncg     rms          rms(c)
DAV:   1    -0.229997587521E+04    0.96199E-04   -0.22154E-02  4364   0.149E-01    0.463E-02
RMM:   2    -0.229997605219E+04   -0.17698E-03   -0.19102E-03  5815   0.274E-02    0.233E-02
RMM:   3    -0.229997605468E+04   -0.24965E-05   -0.13409E-04  2941   0.103E-02    0.145E-02
RMM:   4    -0.229997605311E+04    0.15685E-05   -0.23256E-05  2807   0.367E-03
 124 F= -.23199240E+04 E0= -.23199240E+04  d E =-.800423E-04  mag=     1.0000
       N       E                     dE             d eps       ncg     rms          rms(c)
DAV:   1    -0.229997603093E+04    0.23752E-04   -0.26243E-03  4816   0.516E-02    0.163E-02
RMM:   2    -0.229997605222E+04   -0.21286E-04   -0.23163E-04  4266   0.103E-02    0.818E-03
RMM:   3    -0.229997605284E+04   -0.62314E-06   -0.18014E-05  2766   0.475E-03
 125 F= -.23199240E+04 E0= -.23199240E+04  d E =-.803623E-04  mag=     1.0000
       N       E                     dE             d eps       ncg     rms          rms(c)
DAV:   1    -0.229997601122E+04    0.40996E-04   -0.14795E-02  4368   0.123E-01    0.363E-02
RMM:   2    -0.229997612643E+04   -0.11521E-03   -0.12410E-03  5694   0.223E-02    0.178E-02
RMM:   3    -0.229997612728E+04   -0.84614E-06   -0.77335E-05  2802   0.707E-03
 126 F= -.23199241E+04 E0= -.23199241E+04  d E =-.746195E-04  mag=     1.0000
       N       E                     dE             d eps       ncg     rms          rms(c)
DAV:   1    -0.229997602790E+04    0.98535E-04   -0.14454E-02  4368   0.122E-01    0.364E-02
RMM:   2    -0.229997614343E+04   -0.11553E-03   -0.12518E-03  5690   0.223E-02    0.185E-02
RMM:   3    -0.229997614376E+04   -0.32970E-06   -0.74806E-05  2807   0.718E-03
 127 F= -.23199241E+04 E0= -.23199241E+04  d E =-.911650E-04  mag=     1.0000
       N       E                     dE             d eps       ncg     rms          rms(c)
DAV:   1    -0.229997611934E+04    0.24086E-04   -0.16719E-02  4364   0.132E-01    0.394E-02
RMM:   2    -0.229997624329E+04   -0.12395E-03   -0.13462E-03  5702   0.238E-02    0.193E-02
RMM:   3    -0.229997624335E+04   -0.60856E-07   -0.82880E-05  2817   0.783E-03
 128 F= -.23199242E+04 E0= -.23199242E+04  d E =-.870487E-04  mag=     1.0000
       N       E                     dE             d eps       ncg     rms          rms(c)
DAV:   1    -0.229997619883E+04    0.44457E-04   -0.91397E-03  4464   0.976E-02    0.300E-02
RMM:   2    -0.229997626544E+04   -0.66609E-04   -0.73529E-04  5596   0.182E-02    0.158E-02
RMM:   3    -0.229997626627E+04   -0.82818E-06   -0.59199E-05  2799   0.646E-03
 129 F= -.23199242E+04 E0= -.23199242E+04  d E =-.100553E-03  mag=     1.0000
       N       E                     dE             d eps       ncg     rms          rms(c)
DAV:   1    -0.229997625410E+04    0.11340E-04   -0.15411E-02  4368   0.128E-01    0.413E-02
RMM:   2    -0.229997635054E+04   -0.96440E-04   -0.10667E-03  5612   0.224E-02    0.203E-02
RMM:   3    -0.229997635086E+04   -0.32398E-06   -0.91089E-05  2838   0.834E-03
 130 F= -.23199243E+04 E0= -.23199243E+04  d E =-.847417E-04  mag=     1.0000
       N       E                     dE             d eps       ncg     rms          rms(c)
DAV:   1    -0.229997632451E+04    0.26032E-04   -0.53964E-03  4480   0.759E-02    0.266E-02
RMM:   2    -0.229997635778E+04   -0.33274E-04   -0.38428E-04  5298   0.142E-02    0.143E-02
RMM:   3    -0.229997635756E+04    0.22208E-06   -0.33238E-05  2794   0.563E-03
 131 F= -.23199243E+04 E0= -.23199243E+04  d E =-.914679E-04  mag=     1.0000
       N       E                     dE             d eps       ncg     rms          rms(c)
DAV:   1    -0.229997635513E+04    0.26538E-05   -0.13364E-02  4368   0.120E-01    0.390E-02
RMM:   2    -0.229997642533E+04   -0.70198E-04   -0.79149E-04  5534   0.204E-02    0.180E-02
RMM:   3    -0.229997642418E+04    0.11427E-05   -0.63753E-05  2826   0.792E-03
 132 F= -.23199244E+04 E0= -.23199244E+04  d E =-.663171E-04  mag=     1.0000
       N       E                     dE             d eps       ncg     rms          rms(c)
DAV:   1    -0.229997641339E+04    0.11934E-04   -0.22779E-03  4952   0.496E-02    0.182E-02
RMM:   2    -0.229997642465E+04   -0.11258E-04   -0.14274E-04  3874   0.918E-03    0.994E-03
RMM:   3    -0.229997642437E+04    0.28302E-06   -0.13556E-05  2760   0.461E-03
 133 F= -.23199244E+04 E0= -.23199244E+04  d E =-.663453E-04  mag=     1.0000
       N       E                     dE             d eps       ncg     rms          rms(c)
DAV:   1    -0.229997642778E+04   -0.31336E-05   -0.13710E-02  4368   0.120E-01    0.370E-02
RMM:   2    -0.229997650391E+04   -0.76122E-04   -0.84698E-04  5546   0.206E-02    0.174E-02
RMM:   3    -0.229997650321E+04    0.69659E-06   -0.63357E-05  2818   0.804E-03
 134 F= -.23199244E+04 E0= -.23199244E+04  d E =-.691187E-04  mag=     1.0000
       N       E                     dE             d eps       ncg     rms          rms(c)
DAV:   1    -0.229997648496E+04    0.18949E-04   -0.50598E-03  4536   0.732E-02    0.236E-02
RMM:   2    -0.229997651344E+04   -0.28487E-04   -0.32828E-04  5104   0.132E-02    0.122E-02
RMM:   3    -0.229997651298E+04    0.46570E-06   -0.25309E-05  2793   0.525E-03
 135 F= -.23199245E+04 E0= -.23199245E+04  d E =-.728710E-04  mag=     1.0000
       N       E                     dE             d eps       ncg     rms          rms(c)
DAV:   1    -0.229997648483E+04    0.28610E-04   -0.16183E-02  4364   0.129E-01    0.405E-02
RMM:   2    -0.229997659270E+04   -0.10787E-03   -0.11846E-03  5556   0.225E-02    0.200E-02
RMM:   3    -0.229997659316E+04   -0.45788E-06   -0.90492E-05  2836   0.819E-03
 136 F= -.23199245E+04 E0= -.23199245E+04  d E =-.711366E-04  mag=     1.0000
       N       E                     dE             d eps       ncg     rms          rms(c)
DAV:   1    -0.229997658160E+04    0.11099E-04   -0.24355E-03  4896   0.504E-02    0.183E-02
RMM:   2    -0.229997659725E+04   -0.15648E-04   -0.18762E-04  4055   0.955E-03    0.108E-02
RMM:   3    -0.229997659726E+04   -0.89349E-08   -0.18207E-05  2766   0.453E-03
 137 F= -.23199245E+04 E0= -.23199245E+04  d E =-.716165E-04  mag=     1.0000
       N       E                     dE             d eps       ncg     rms          rms(c)
DAV:   1    -0.229997652672E+04    0.70526E-04   -0.17619E-02  4368   0.136E-01    0.445E-02
RMM:   2    -0.229997665632E+04   -0.12959E-03   -0.14276E-03  5642   0.242E-02    0.213E-02
RMM:   3    -0.229997665702E+04   -0.70169E-06   -0.10708E-04  2872   0.939E-03    0.135E-02
RMM:   4    -0.229997665577E+04    0.12486E-05   -0.19872E-05  2801   0.346E-03
 138 F= -.23199246E+04 E0= -.23199246E+04  d E =-.714363E-04  mag=     1.0000
       N       E                     dE             d eps       ncg     rms          rms(c)
DAV:   1    -0.229997664608E+04    0.10934E-04   -0.73655E-04  5048   0.281E-02    0.954E-03
RMM:   2    -0.229997665161E+04   -0.55268E-05   -0.63029E-05  2996   0.584E-03
 139 F= -.23199246E+04 E0= -.23199246E+04  d E =-.699840E-04  mag=     1.0000
       N       E                     dE             d eps       ncg     rms          rms(c)
DAV:   1    -0.229997657898E+04    0.67106E-04   -0.14955E-02  4368   0.124E-01    0.413E-02
RMM:   2    -0.229997669539E+04   -0.11641E-03   -0.12781E-03  5762   0.249E-02    0.206E-02
RMM:   3    -0.229997669776E+04   -0.23676E-05   -0.11666E-04  2850   0.921E-03    0.138E-02
RMM:   4    -0.229997669663E+04    0.11213E-05   -0.16058E-05  2794   0.325E-03
 140 F= -.23199247E+04 E0= -.23199247E+04  d E =-.628979E-04  mag=     1.0000
       N       E                     dE             d eps       ncg     rms          rms(c)
DAV:   1    -0.229997668963E+04    0.81221E-05   -0.32008E-04  5040   0.185E-02    0.675E-03
RMM:   2    -0.229997669206E+04   -0.24287E-05   -0.29577E-05  2576   0.407E-03
 141 F= -.23199247E+04 E0= -.23199247E+04  d E =-.610694E-04  mag=     1.0000
       N       E                     dE             d eps       ncg     rms          rms(c)
DAV:   1    -0.229997667238E+04    0.17258E-04   -0.11852E-02  4368   0.111E-01    0.392E-02
RMM:   2    -0.229997675588E+04   -0.83501E-04   -0.93728E-04  5658   0.220E-02    0.181E-02
RMM:   3    -0.229997675638E+04   -0.49846E-06   -0.82392E-05  2823   0.880E-03
 142 F= -.23199247E+04 E0= -.23199247E+04  d E =-.596251E-04  mag=     1.0000
       N       E                     dE             d eps       ncg     rms          rms(c)
DAV:   1    -0.229997675380E+04    0.20739E-05   -0.33321E-04  5176   0.189E-02    0.102E-02
RMM:   2    -0.229997675565E+04   -0.18500E-05   -0.33412E-05  2652   0.412E-03
 143 F= -.23199247E+04 E0= -.23199247E+04  d E =-.580744E-04  mag=     1.0000
       N       E                     dE             d eps       ncg     rms          rms(c)
DAV:   1    -0.229997676119E+04   -0.73860E-05   -0.94985E-03  4368   0.990E-02    0.342E-02
RMM:   2    -0.229997682366E+04   -0.62472E-04   -0.69939E-04  5551   0.191E-02    0.168E-02
RMM:   3    -0.229997682391E+04   -0.24485E-06   -0.63006E-05  2810   0.798E-03
 144 F= -.23199248E+04 E0= -.23199248E+04  d E =-.494800E-04  mag=     1.0000
       N       E                     dE             d eps       ncg     rms          rms(c)
DAV:   1    -0.229997682403E+04   -0.36537E-06   -0.15912E-04  5056   0.131E-02    0.654E-03
RMM:   2    -0.229997682503E+04   -0.99897E-06   -0.15979E-05  2459   0.304E-03
 145 F= -.23199248E+04 E0= -.23199248E+04  d E =-.479985E-04  mag=     1.0000
       N       E                     dE             d eps       ncg     rms          rms(c)
DAV:   1    -0.229997682358E+04    0.44252E-06   -0.86653E-03  4368   0.943E-02    0.333E-02
RMM:   2    -0.229997688055E+04   -0.56961E-04   -0.63952E-04  5468   0.176E-02    0.153E-02
RMM:   3    -0.229997688025E+04    0.29987E-06   -0.49813E-05  2803   0.771E-03
 146 F= -.23199248E+04 E0= -.23199248E+04  d E =-.445433E-04  mag=     1.0000
       N       E                     dE             d eps       ncg     rms          rms(c)
DAV:   1    -0.229997687900E+04    0.15435E-05   -0.42843E-04  5112   0.211E-02    0.849E-03
RMM:   2    -0.229997688200E+04   -0.30010E-05   -0.36769E-05  2651   0.438E-03
 147 F= -.23199248E+04 E0= -.23199248E+04  d E =-.437947E-04  mag=     1.0000
       N       E                     dE             d eps       ncg     rms          rms(c)
DAV:   1    -0.229997686954E+04    0.94666E-05   -0.83083E-03  4368   0.900E-02    0.313E-02
RMM:   2    -0.229997693082E+04   -0.61285E-04   -0.67154E-04  5469   0.176E-02    0.157E-02
RMM:   3    -0.229997693219E+04   -0.13702E-05   -0.58816E-05  2799   0.699E-03
 148 F= -.23199249E+04 E0= -.23199249E+04  d E =-.476476E-04  mag=     1.0000
       N       E                     dE             d eps       ncg     rms          rms(c)
DAV:   1    -0.229997692811E+04    0.27125E-05   -0.96429E-04  4904   0.307E-02    0.128E-02
RMM:   2    -0.229997693498E+04   -0.68747E-05   -0.83939E-05  3092   0.619E-03
 149 F= -.23199249E+04 E0= -.23199249E+04  d E =-.495378E-04  mag=     1.0000
       N       E                     dE             d eps       ncg     rms          rms(c)
DAV:   1    -0.229997692353E+04    0.45745E-05   -0.85981E-03  4368   0.908E-02    0.332E-02
RMM:   2    -0.229997699063E+04   -0.67095E-04   -0.74273E-04  5493   0.186E-02    0.173E-02
RMM:   3    -0.229997699160E+04   -0.96728E-06   -0.64295E-05  2804   0.716E-03
 150 F= -.23199249E+04 E0= -.23199249E+04  d E =-.530370E-04  mag=     1.0000
