       N       E                     dE             d eps       ncg     rms          rms(c)
DAV:   1     0.131216238309E+05    0.13122E+05   -0.84375E+05  4536   0.145E+03
DAV:   2    -0.101135891156E+04   -0.14133E+05   -0.13501E+05  4928   0.331E+02
DAV:   3    -0.248557001883E+04   -0.14742E+04   -0.14554E+04  5512   0.115E+02
DAV:   4    -0.253275423124E+04   -0.47184E+02   -0.46928E+02  6752   0.300E+01
DAV:   5    -0.253358591543E+04   -0.83168E+00   -0.82995E+00  6240   0.349E+00    0.170E+02
RMM:   6    -0.149762920900E+04    0.10360E+04   -0.19614E+03  4472   0.384E+01    0.729E+01
RMM:   7    -0.166719864636E+04   -0.16957E+03   -0.29994E+02  5121   0.143E+01    0.516E+01
RMM:   8    -0.171536955539E+04   -0.48171E+02   -0.76175E+01  5197   0.850E+00    0.407E+01
RMM:   9    -0.180675243643E+04   -0.91383E+02   -0.60380E+01  5064   0.740E+00    0.325E+01
RMM:  10    -0.193712640238E+04   -0.13037E+03   -0.55727E+01  5356   0.718E+00    0.217E+01
RMM:  11    -0.203255356903E+04   -0.95427E+02   -0.39085E+01  5173   0.517E+00    0.214E+01
RMM:  12    -0.209289601920E+04   -0.60342E+02   -0.23468E+01  5046   0.387E+00    0.149E+01
RMM:  13    -0.216450167886E+04   -0.71606E+02   -0.32455E+01  4759   0.457E+00    0.143E+01
RMM:  14    -0.226401449663E+04   -0.99513E+02   -0.80324E+01  4515   0.652E+00    0.844E+00
RMM:  15    -0.230628583208E+04   -0.42271E+02   -0.38469E+01  4813   0.475E+00    0.475E+00
RMM:  16    -0.232064037763E+04   -0.14355E+02   -0.16667E+01  4822   0.286E+00    0.270E+00
RMM:  17    -0.232524280950E+04   -0.46024E+01   -0.51693E+00  5144   0.143E+00    0.175E+00
RMM:  18    -0.232685663111E+04   -0.16138E+01   -0.18174E+00  4822   0.811E-01    0.112E+00
RMM:  19    -0.232735181038E+04   -0.49518E+00   -0.54886E-01  4857   0.460E-01    0.641E-01
RMM:  20    -0.232750277349E+04   -0.15096E+00   -0.15191E-01  4801   0.233E-01    0.363E-01
RMM:  21    -0.232754675782E+04   -0.43984E-01   -0.34097E-02  4813   0.134E-01    0.200E-01
RMM:  22    -0.232757860545E+04   -0.31848E-01   -0.15405E-02  4511   0.914E-02    0.151E-01
RMM:  23    -0.232759249183E+04   -0.13886E-01   -0.47086E-03  4693   0.622E-02    0.836E-02
RMM:  24    -0.232760468129E+04   -0.12189E-01   -0.38960E-03  4480   0.439E-02    0.557E-02
RMM:  25    -0.232761066190E+04   -0.59806E-02   -0.17719E-03  4547   0.349E-02    0.343E-02
RMM:  26    -0.232761381861E+04   -0.31567E-02   -0.11451E-03  4502   0.233E-02    0.172E-02
RMM:  27    -0.232761471411E+04   -0.89551E-03   -0.30933E-04  4067   0.168E-02    0.111E-02
RMM:  28    -0.232761506479E+04   -0.35068E-03   -0.12120E-04  3705   0.769E-03    0.545E-03
RMM:  29    -0.232761522184E+04   -0.15705E-03   -0.35551E-05  3271   0.657E-03    0.401E-03
RMM:  30    -0.232761529938E+04   -0.77537E-04   -0.20425E-05  3079   0.363E-03    0.207E-03
RMM:  31    -0.232761533140E+04   -0.32022E-04   -0.81032E-06  2853   0.320E-03    0.125E-03
RMM:  32    -0.232761533927E+04   -0.78676E-05   -0.41309E-06  2468   0.231E-03
   1 F= -.23490623E+04 E0= -.23490623E+04  d E =-.234906E+04  mag=     4.9998
       N       E                     dE             d eps       ncg     rms          rms(c)
DAV:   1    -0.232760429523E+04    0.11036E-01   -0.12594E+00  5428   0.117E+00    0.442E-01
RMM:   2    -0.232762560115E+04   -0.21306E-01   -0.23170E-01  6006   0.254E-01    0.278E-01
RMM:   3    -0.232762777768E+04   -0.21765E-02   -0.25762E-02  5762   0.119E-01    0.361E-01
RMM:   4    -0.232762631420E+04    0.14635E-02   -0.25221E-03  5478   0.266E-02    0.113E-01
RMM:   5    -0.232762610190E+04    0.21230E-03   -0.87489E-04  5103   0.182E-02    0.792E-02
RMM:   6    -0.232762605431E+04    0.47599E-04   -0.36416E-04  4886   0.134E-02    0.648E-02
RMM:   7    -0.232762599347E+04    0.60833E-04   -0.80149E-05  3284   0.674E-03    0.244E-02
RMM:   8    -0.232762598713E+04    0.63416E-05   -0.25813E-05  2918   0.524E-03
   2 F= -.23490728E+04 E0= -.23490728E+04  d E =-.105718E-01  mag=     4.9999
       N       E                     dE             d eps       ncg     rms          rms(c)
DAV:   1    -0.232762555887E+04    0.43460E-03   -0.36146E-02  5200   0.199E-01    0.760E-02
RMM:   2    -0.232762617786E+04   -0.61899E-03   -0.68016E-03  6136   0.442E-02    0.507E-02
RMM:   3    -0.232762624301E+04   -0.65150E-04   -0.77763E-04  3324   0.201E-02    0.652E-02
RMM:   4    -0.232762619481E+04    0.48204E-04   -0.75226E-05  2924   0.572E-03    0.203E-02
RMM:   5    -0.232762618953E+04    0.52748E-05   -0.30390E-05  2955   0.403E-03
   3 F= -.23490730E+04 E0= -.23490730E+04  d E =-.107604E-01  mag=     4.9999
       N       E                     dE             d eps       ncg     rms          rms(c)
DAV:   1    -0.232761309604E+04    0.13099E-01   -0.98335E-01  4736   0.102E+00    0.338E-01
RMM:   2    -0.232763079568E+04   -0.17700E-01   -0.18992E-01  6108   0.217E-01    0.219E-01
RMM:   3    -0.232763261249E+04   -0.18168E-02   -0.21332E-02  5682   0.105E-01    0.274E-01
RMM:   4    -0.232763184551E+04    0.76698E-03   -0.19262E-03  4784   0.208E-02    0.913E-02
RMM:   5    -0.232763169697E+04    0.14853E-03   -0.44958E-04  4533   0.125E-02    0.636E-02
RMM:   6    -0.232763166030E+04    0.36673E-04   -0.25547E-04  4234   0.113E-02    0.443E-02
RMM:   7    -0.232763162595E+04    0.34347E-04   -0.54784E-05  3165   0.658E-03    0.121E-02
RMM:   8    -0.232763162364E+04    0.23101E-05   -0.13031E-05  2918   0.468E-03
   4 F= -.23490781E+04 E0= -.23490781E+04  d E =-.504557E-02  mag=     4.9999
       N       E                     dE             d eps       ncg     rms          rms(c)
DAV:   1    -0.232763102156E+04    0.60439E-03   -0.43018E-02  5000   0.213E-01    0.717E-02
RMM:   2    -0.232763179956E+04   -0.77800E-03   -0.84216E-03  6329   0.466E-02    0.478E-02
RMM:   3    -0.232763188324E+04   -0.83687E-04   -0.98108E-04  3270   0.211E-02    0.600E-02
RMM:   4    -0.232763184530E+04    0.37945E-04   -0.87242E-05  2933   0.553E-03    0.196E-02
RMM:   5    -0.232763183808E+04    0.72222E-05   -0.22168E-05  2964   0.323E-03
   5 F= -.23490782E+04 E0= -.23490782E+04  d E =-.517873E-02  mag=     4.9999
       N       E                     dE             d eps       ncg     rms          rms(c)
DAV:   1    -0.232763009285E+04    0.17524E-02   -0.36923E-01  4640   0.646E-01    0.161E-01
RMM:   2    -0.232763430767E+04   -0.42148E-02   -0.44939E-02  5960   0.120E-01    0.873E-02
RMM:   3    -0.232763461204E+04   -0.30437E-03   -0.45506E-03  4916   0.539E-02    0.593E-02
RMM:   4    -0.232763462074E+04   -0.87048E-05   -0.47806E-04  3754   0.117E-02    0.604E-02
RMM:   5    -0.232763457963E+04    0.41112E-04   -0.12209E-04  3331   0.895E-03    0.304E-02
RMM:   6    -0.232763457375E+04    0.58837E-05   -0.45274E-05  3055   0.652E-03
   6 F= -.23490806E+04 E0= -.23490806E+04  d E =-.242170E-02  mag=     4.9999
       N       E                     dE             d eps       ncg     rms          rms(c)
DAV:   1    -0.232762881420E+04    0.57654E-02   -0.57352E-01  4608   0.804E-01    0.203E-01
RMM:   2    -0.232763538240E+04   -0.65682E-02   -0.70251E-02  5955   0.150E-01    0.109E-01
RMM:   3    -0.232763586964E+04   -0.48723E-03   -0.71271E-03  5200   0.649E-02    0.812E-02
RMM:   4    -0.232763588738E+04   -0.17746E-04   -0.76624E-04  4014   0.141E-02    0.818E-02
RMM:   5    -0.232763579737E+04    0.90007E-04   -0.18920E-04  3890   0.103E-02    0.365E-02
RMM:   6    -0.232763579097E+04    0.64077E-05   -0.72276E-05  3411   0.752E-03
   7 F= -.23490815E+04 E0= -.23490815E+04  d E =-.324867E-02  mag=     4.9999
       N       E                     dE             d eps       ncg     rms          rms(c)
DAV:   1    -0.232763526579E+04    0.53158E-03   -0.16605E-01  4656   0.426E-01    0.101E-01
RMM:   2    -0.232763724467E+04   -0.19789E-02   -0.20818E-02  6206   0.794E-02    0.662E-02
RMM:   3    -0.232763742779E+04   -0.18312E-03   -0.22429E-03  3834   0.315E-02    0.650E-02
RMM:   4    -0.232763739071E+04    0.37086E-04   -0.22607E-04  2998   0.795E-03    0.335E-02
RMM:   5    -0.232763737510E+04    0.15604E-04   -0.36150E-05  2956   0.483E-03    0.183E-02
RMM:   6    -0.232763737550E+04   -0.39862E-06   -0.23834E-05  2928   0.462E-03
   8 F= -.23490829E+04 E0= -.23490829E+04  d E =-.140431E-02  mag=     5.0000
       N       E                     dE             d eps       ncg     rms          rms(c)
DAV:   1    -0.232762173622E+04    0.15639E-01   -0.14998E+00  4560   0.128E+00    0.298E-01
RMM:   2    -0.232763934844E+04   -0.17612E-01   -0.18524E-01  5871   0.230E-01    0.187E-01
RMM:   3    -0.232764092208E+04   -0.15736E-02   -0.19950E-02  5284   0.107E-01    0.180E-01
RMM:   4    -0.232764064259E+04    0.27949E-03   -0.20112E-03  4685   0.204E-02    0.988E-02
RMM:   5    -0.232764050446E+04    0.13813E-03   -0.30258E-04  4248   0.124E-02    0.600E-02
RMM:   6    -0.232764050326E+04    0.12091E-05   -0.20607E-04  3957   0.100E-02    0.618E-02
RMM:   7    -0.232764046393E+04    0.39329E-04   -0.68547E-05  3086   0.737E-03    0.133E-02
RMM:   8    -0.232764046262E+04    0.13036E-05   -0.11208E-05  2919   0.438E-03
   9 F= -.23490854E+04 E0= -.23490854E+04  d E =-.395236E-02  mag=     5.0000
       N       E                     dE             d eps       ncg     rms          rms(c)
DAV:   1    -0.232756350123E+04    0.76963E-01   -0.60093E+00  4560   0.256E+00    0.597E-01
RMM:   2    -0.232763436479E+04   -0.70864E-01   -0.74572E-01  5892   0.463E-01    0.373E-01
RMM:   3    -0.232764082139E+04   -0.64566E-02   -0.81124E-02  5362   0.214E-01    0.368E-01
RMM:   4    -0.232763962671E+04    0.11947E-02   -0.80664E-03  5764   0.407E-02    0.196E-01
RMM:   5    -0.232763914581E+04    0.48090E-03   -0.12347E-03  4948   0.221E-02    0.140E-01
RMM:   6    -0.232763905341E+04    0.92403E-04   -0.84273E-04  5060   0.177E-02    0.120E-01
RMM:   7    -0.232763890455E+04    0.14886E-03   -0.27602E-04  4491   0.123E-02    0.287E-02
RMM:   8    -0.232763889679E+04    0.77540E-05   -0.41787E-05  3065   0.628E-03
  10 F= -.23490828E+04 E0= -.23490828E+04  d E =-.131773E-02  mag=     5.0000
       N       E                     dE             d eps       ncg     rms          rms(c)
DAV:   1    -0.232760091822E+04    0.37986E-01   -0.32209E+00  4560   0.187E+00    0.439E-01
RMM:   2    -0.232763922455E+04   -0.38306E-01   -0.39846E-01  5871   0.338E-01    0.324E-01
RMM:   3    -0.232764224640E+04   -0.30219E-02   -0.43525E-02  5376   0.153E-01    0.280E-01
RMM:   4    -0.232764145211E+04    0.79429E-03   -0.42883E-03  5278   0.303E-02    0.144E-01
RMM:   5    -0.232764113787E+04    0.31424E-03   -0.64964E-04  4817   0.171E-02    0.741E-02
RMM:   6    -0.232764107994E+04    0.57926E-04   -0.45230E-04  4734   0.147E-02    0.401E-02
RMM:   7    -0.232764106809E+04    0.11852E-04   -0.78296E-05  3169   0.950E-03    0.284E-02
RMM:   8    -0.232764106042E+04    0.76676E-05   -0.17939E-05  2922   0.357E-03
  11 F= -.23490857E+04 E0= -.23490857E+04  d E =-.426234E-02  mag=     5.0000
       N       E                     dE             d eps       ncg     rms          rms(c)
DAV:   1    -0.232763811172E+04    0.29564E-02   -0.36014E-01  4576   0.619E-01    0.167E-01
RMM:   2    -0.232764317130E+04   -0.50596E-02   -0.52439E-02  5989   0.119E-01    0.133E-01
RMM:   3    -0.232764358145E+04   -0.41015E-03   -0.58502E-03  5055   0.521E-02    0.120E-01
RMM:   4    -0.232764341616E+04    0.16529E-03   -0.57389E-04  3488   0.118E-02    0.515E-02
RMM:   5    -0.232764336383E+04    0.52329E-04   -0.11580E-04  3699   0.826E-03    0.233E-02
RMM:   6    -0.232764335538E+04    0.84496E-05   -0.49437E-05  3344   0.691E-03
  12 F= -.23490878E+04 E0= -.23490877E+04  d E =-.202633E-02  mag=     5.0000
       N       E                     dE             d eps       ncg     rms          rms(c)
DAV:   1    -0.232763748313E+04    0.58807E-02   -0.46656E-01  4576   0.705E-01    0.192E-01
RMM:   2    -0.232764409114E+04   -0.66080E-02   -0.68506E-02  5985   0.136E-01    0.158E-01
RMM:   3    -0.232764460303E+04   -0.51190E-03   -0.76222E-03  5282   0.581E-02    0.138E-01
RMM:   4    -0.232764438667E+04    0.21636E-03   -0.75843E-04  3772   0.132E-02    0.590E-02
RMM:   5    -0.232764433137E+04    0.55305E-04   -0.15300E-04  3821   0.901E-03    0.358E-02
RMM:   6    -0.232764432435E+04    0.70128E-05   -0.93176E-05  3346   0.794E-03
  13 F= -.23490884E+04 E0= -.23490884E+04  d E =-.269199E-02  mag=     5.0000
       N       E                     dE             d eps       ncg     rms          rms(c)
DAV:   1    -0.232764203200E+04    0.22994E-02   -0.17745E-01  4672   0.418E-01    0.138E-01
RMM:   2    -0.232764540640E+04   -0.33744E-02   -0.34636E-02  6402   0.933E-02    0.125E-01
RMM:   3    -0.232764560635E+04   -0.19996E-03   -0.37178E-03  4608   0.374E-02    0.938E-02
RMM:   4    -0.232764551071E+04    0.95641E-04   -0.37974E-04  3032   0.963E-03    0.425E-02
RMM:   5    -0.232764549480E+04    0.15909E-04   -0.66095E-05  2979   0.590E-03    0.359E-02
RMM:   6    -0.232764547971E+04    0.15098E-04   -0.57686E-05  2950   0.615E-03    0.197E-02
RMM:   7    -0.232764547783E+04    0.18738E-05   -0.20555E-05  2944   0.489E-03
  14 F= -.23490894E+04 E0= -.23490894E+04  d E =-.990899E-03  mag=     5.0000
       N       E                     dE             d eps       ncg     rms          rms(c)
DAV:   1    -0.232764281137E+04    0.26683E-02   -0.16014E-01  4560   0.396E-01    0.131E-01
RMM:   2    -0.232764586338E+04   -0.30520E-02   -0.31155E-02  6319   0.875E-02    0.122E-01
RMM:   3    -0.232764602768E+04   -0.16430E-03   -0.33401E-03  4334   0.364E-02    0.882E-02
RMM:   4    -0.232764594134E+04    0.86335E-04   -0.33926E-04  3012   0.935E-03    0.396E-02
RMM:   5    -0.232764592627E+04    0.15073E-04   -0.60265E-05  2967   0.577E-03    0.327E-02
RMM:   6    -0.232764591403E+04    0.12239E-04   -0.50496E-05  2944   0.593E-03    0.190E-02
RMM:   7    -0.232764591156E+04    0.24724E-05   -0.17659E-05  2935   0.462E-03
  15 F= -.23490897E+04 E0= -.23490897E+04  d E =-.127114E-02  mag=     5.0000
       N       E                     dE             d eps       ncg     rms          rms(c)
DAV:   1    -0.232764350363E+04    0.24104E-02   -0.17638E-01  4560   0.404E-01    0.135E-01
RMM:   2    -0.232764726813E+04   -0.37645E-02   -0.38319E-02  6466   0.933E-02    0.136E-01
RMM:   3    -0.232764743619E+04   -0.16806E-03   -0.38947E-03  4397   0.367E-02    0.860E-02
RMM:   4    -0.232764736371E+04    0.72483E-04   -0.40972E-04  3010   0.936E-03    0.437E-02
RMM:   5    -0.232764734763E+04    0.16077E-04   -0.51257E-05  2951   0.492E-03    0.360E-02
RMM:   6    -0.232764733146E+04    0.16166E-04   -0.51001E-05  2929   0.521E-03    0.202E-02
RMM:   7    -0.232764733009E+04    0.13755E-05   -0.22352E-05  2943   0.431E-03
  16 F= -.23490909E+04 E0= -.23490909E+04  d E =-.117997E-02  mag=     5.0000
       N       E                     dE             d eps       ncg     rms          rms(c)
DAV:   1    -0.232762360100E+04    0.23730E-01   -0.11719E+00  4528   0.104E+00    0.346E-01
RMM:   2    -0.232764856141E+04   -0.24960E-01   -0.25415E-01  6407   0.238E-01    0.343E-01
RMM:   3    -0.232764978549E+04   -0.12241E-02   -0.25904E-02  6007   0.946E-02    0.227E-01
RMM:   4    -0.232764925849E+04    0.52699E-03   -0.27111E-03  4640   0.213E-02    0.112E-01
RMM:   5    -0.232764915338E+04    0.10512E-03   -0.33028E-04  3456   0.103E-02    0.937E-02
RMM:   6    -0.232764904137E+04    0.11200E-03   -0.32960E-04  4090   0.114E-02    0.521E-02
RMM:   7    -0.232764902956E+04    0.11814E-04   -0.13524E-04  3133   0.870E-03    0.381E-02
RMM:   8    -0.232764901318E+04    0.16382E-04   -0.29226E-05  2909   0.550E-03    0.122E-02
RMM:   9    -0.232764901002E+04    0.31629E-05   -0.72195E-06  2886   0.306E-03
  17 F= -.23490919E+04 E0= -.23490919E+04  d E =-.224708E-02  mag=     5.0000
       N       E                     dE             d eps       ncg     rms          rms(c)
DAV:   1    -0.232764723500E+04    0.17782E-02   -0.12710E-01  4624   0.343E-01    0.113E-01
RMM:   2    -0.232764999564E+04   -0.27606E-02   -0.27939E-02  6452   0.790E-02    0.115E-01
RMM:   3    -0.232765011509E+04   -0.11945E-03   -0.28659E-03  3920   0.313E-02    0.698E-02
RMM:   4    -0.232765006496E+04    0.50129E-04   -0.29468E-04  3001   0.804E-03    0.364E-02
RMM:   5    -0.232765005287E+04    0.12096E-04   -0.31721E-05  2941   0.380E-03    0.289E-02
RMM:   6    -0.232765004138E+04    0.11488E-04   -0.34677E-05  2916   0.405E-03    0.161E-02
RMM:   7    -0.232765004013E+04    0.12517E-05   -0.15322E-05  2922   0.336E-03
  18 F= -.23490928E+04 E0= -.23490928E+04  d E =-.852016E-03  mag=     5.0000
       N       E                     dE             d eps       ncg     rms          rms(c)
DAV:   1    -0.232762680976E+04    0.23232E-01   -0.11402E+00  4528   0.103E+00    0.336E-01
RMM:   2    -0.232765137687E+04   -0.24567E-01   -0.25033E-01  6465   0.234E-01    0.327E-01
RMM:   3    -0.232765267802E+04   -0.13012E-02   -0.25612E-02  5957   0.919E-02    0.217E-01
RMM:   4    -0.232765218163E+04    0.49639E-03   -0.26050E-03  4216   0.202E-02    0.108E-01
RMM:   5    -0.232765207401E+04    0.10762E-03   -0.27769E-04  3236   0.941E-03    0.858E-02
RMM:   6    -0.232765197575E+04    0.98269E-04   -0.29688E-04  3936   0.106E-02    0.499E-02
RMM:   7    -0.232765195938E+04    0.16368E-04   -0.12281E-04  3124   0.803E-03    0.316E-02
RMM:   8    -0.232765194991E+04    0.94716E-05   -0.23096E-05  2905   0.529E-03
  19 F= -.23490942E+04 E0= -.23490942E+04  d E =-.223033E-02  mag=     5.0000
       N       E                     dE             d eps       ncg     rms          rms(c)
DAV:   1    -0.232764781699E+04    0.41424E-02   -0.20145E-01  4560   0.432E-01    0.144E-01
RMM:   2    -0.232765220496E+04   -0.43880E-02   -0.44550E-02  6371   0.987E-02    0.146E-01
RMM:   3    -0.232765239687E+04   -0.19192E-03   -0.45763E-03  4365   0.376E-02    0.905E-02
RMM:   4    -0.232765231187E+04    0.84999E-04   -0.46931E-04  3010   0.939E-03    0.455E-02
RMM:   5    -0.232765229398E+04    0.17891E-04   -0.52239E-05  2953   0.472E-03    0.369E-02
RMM:   6    -0.232765227591E+04    0.18071E-04   -0.52418E-05  2936   0.496E-03    0.204E-02
RMM:   7    -0.232765227418E+04    0.17311E-05   -0.23476E-05  2950   0.416E-03
  20 F= -.23490943E+04 E0= -.23490943E+04  d E =-.233247E-02  mag=     5.0000
       N       E                     dE             d eps       ncg     rms          rms(c)
DAV:   1    -0.232764787008E+04    0.44058E-02   -0.27702E-01  4528   0.505E-01    0.173E-01
RMM:   2    -0.232765380805E+04   -0.59380E-02   -0.60610E-02  6462   0.118E-01    0.156E-01
RMM:   3    -0.232765415995E+04   -0.35190E-03   -0.63334E-03  4997   0.463E-02    0.110E-01
RMM:   4    -0.232765401957E+04    0.14038E-03   -0.63158E-04  3061   0.110E-02    0.532E-02
RMM:   5    -0.232765398962E+04    0.29946E-04   -0.76575E-05  2985   0.617E-03    0.393E-02
RMM:   6    -0.232765397515E+04    0.14468E-04   -0.80209E-05  2993   0.654E-03    0.282E-02
RMM:   7    -0.232765396845E+04    0.67060E-05   -0.31283E-05  2958   0.528E-03
  21 F= -.23490957E+04 E0= -.23490957E+04  d E =-.140611E-02  mag=     5.0000
       N       E                     dE             d eps       ncg     rms          rms(c)
DAV:   1    -0.232763186526E+04    0.22110E-01   -0.10724E+00  4528   0.994E-01    0.340E-01
RMM:   2    -0.232765488616E+04   -0.23021E-01   -0.23457E-01  6471   0.232E-01    0.307E-01
RMM:   3    -0.232765625680E+04   -0.13706E-02   -0.24635E-02  5921   0.922E-02    0.218E-01
RMM:   4    -0.232765568592E+04    0.57088E-03   -0.24462E-03  4573   0.206E-02    0.104E-01
RMM:   5    -0.232765556684E+04    0.11908E-03   -0.29813E-04  3744   0.105E-02    0.757E-02
RMM:   6    -0.232765551341E+04    0.53425E-04   -0.29612E-04  3965   0.109E-02    0.557E-02
RMM:   7    -0.232765548173E+04    0.31687E-04   -0.10324E-04  3162   0.775E-03    0.239E-02
RMM:   8    -0.232765547694E+04    0.47841E-05   -0.21890E-05  2913   0.536E-03
  22 F= -.23490966E+04 E0= -.23490966E+04  d E =-.235030E-02  mag=     5.0000
       N       E                     dE             d eps       ncg     rms          rms(c)
DAV:   1    -0.232765111635E+04    0.43654E-02   -0.26849E-01  4560   0.488E-01    0.170E-01
RMM:   2    -0.232765709003E+04   -0.59737E-02   -0.60045E-02  6437   0.113E-01    0.170E-01
RMM:   3    -0.232765734622E+04   -0.25619E-03   -0.63465E-03  4784   0.439E-02    0.105E-01
RMM:   4    -0.232765722148E+04    0.12474E-03   -0.63617E-04  3033   0.105E-02    0.504E-02
RMM:   5    -0.232765719751E+04    0.23967E-04   -0.60979E-05  2964   0.534E-03    0.414E-02
RMM:   6    -0.232765718065E+04    0.16861E-04   -0.61964E-05  2949   0.537E-03    0.296E-02
RMM:   7    -0.232765717597E+04    0.46850E-05   -0.37571E-05  2974   0.487E-03
  23 F= -.23490979E+04 E0= -.23490979E+04  d E =-.125308E-02  mag=     5.0000
       N       E                     dE             d eps       ncg     rms          rms(c)
DAV:   1    -0.232760592216E+04    0.51258E-01   -0.24134E+00  4516   0.146E+00    0.504E-01
RMM:   2    -0.232765926342E+04   -0.53341E-01   -0.53871E-01  6520   0.342E-01    0.484E-01
RMM:   3    -0.232766210112E+04   -0.28377E-02   -0.57288E-02  6108   0.132E-01    0.322E-01
RMM:   4    -0.232766087497E+04    0.12262E-02   -0.56762E-03  5214   0.293E-02    0.150E-01
RMM:   5    -0.232766062950E+04    0.24547E-03   -0.54784E-04  4251   0.129E-02    0.117E-01
RMM:   6    -0.232766052071E+04    0.10880E-03   -0.55854E-04  4287   0.128E-02    0.978E-02
RMM:   7    -0.232766043819E+04    0.82520E-04   -0.30672E-04  4117   0.110E-02    0.357E-02
RMM:   8    -0.232766042427E+04    0.13916E-04   -0.50123E-05  2966   0.598E-03    0.223E-02
RMM:   9    -0.232766041919E+04    0.50762E-05   -0.14693E-05  2897   0.346E-03
  24 F= -.23490998E+04 E0= -.23490998E+04  d E =-.316243E-02  mag=     5.0000
       N       E                     dE             d eps       ncg     rms          rms(c)
DAV:   1    -0.232765377794E+04    0.66463E-02   -0.40715E-01  4528   0.610E-01    0.217E-01
RMM:   2    -0.232766297181E+04   -0.91939E-02   -0.92110E-02  6434   0.145E-01    0.214E-01
RMM:   3    -0.232766333347E+04   -0.36166E-03   -0.95837E-03  5503   0.558E-02    0.136E-01
RMM:   4    -0.232766312278E+04    0.21069E-03   -0.97836E-04  3186   0.131E-02    0.638E-02
RMM:   5    -0.232766308497E+04    0.37809E-04   -0.10301E-04  2995   0.714E-03    0.548E-02
RMM:   6    -0.232766305775E+04    0.27216E-04   -0.10804E-04  2973   0.724E-03    0.377E-02
RMM:   7    -0.232766304777E+04    0.99833E-05   -0.51494E-05  2993   0.636E-03
  25 F= -.23491018E+04 E0= -.23491018E+04  d E =-.199985E-02  mag=     5.0000
       N       E                     dE             d eps       ncg     rms          rms(c)
DAV:   1    -0.232764185641E+04    0.21201E-01   -0.10174E+00  4528   0.965E-01    0.344E-01
RMM:   2    -0.232766478914E+04   -0.22933E-01   -0.23079E-01  6445   0.230E-01    0.332E-01
RMM:   3    -0.232766580531E+04   -0.10162E-02   -0.24090E-02  5896   0.911E-02    0.220E-01
RMM:   4    -0.232766524945E+04    0.55586E-03   -0.24594E-03  4534   0.206E-02    0.101E-01
RMM:   5    -0.232766515212E+04    0.97328E-04   -0.26154E-04  3498   0.102E-02    0.860E-02
RMM:   6    -0.232766508862E+04    0.63496E-04   -0.26278E-04  3572   0.100E-02    0.614E-02
RMM:   7    -0.232766505492E+04    0.33708E-04   -0.11813E-04  3387   0.842E-03    0.188E-02
RMM:   8    -0.232766505160E+04    0.33144E-05   -0.21001E-05  2939   0.556E-03
  26 F= -.23491028E+04 E0= -.23491028E+04  d E =-.300803E-02  mag=     5.0000
       N       E                     dE             d eps       ncg     rms          rms(c)
DAV:   1    -0.232765700697E+04    0.80479E-02   -0.43086E-01  4560   0.613E-01    0.222E-01
RMM:   2    -0.232766690581E+04   -0.98988E-02   -0.99137E-02  6458   0.146E-01    0.223E-01
RMM:   3    -0.232766729447E+04   -0.38867E-03   -0.10346E-02  5452   0.553E-02    0.138E-01
RMM:   4    -0.232766708139E+04    0.21308E-03   -0.10473E-03  3134   0.129E-02    0.634E-02
RMM:   5    -0.232766704505E+04    0.36339E-04   -0.93058E-05  2969   0.636E-03    0.546E-02
RMM:   6    -0.232766701766E+04    0.27397E-04   -0.95313E-05  2953   0.634E-03    0.371E-02
RMM:   7    -0.232766700752E+04    0.10143E-04   -0.55415E-05  3006   0.592E-03    0.120E-02
RMM:   8    -0.232766700633E+04    0.11823E-05   -0.97118E-06  2920   0.407E-03
  27 F= -.23491042E+04 E0= -.23491042E+04  d E =-.143147E-02  mag=     5.0000
       N       E                     dE             d eps       ncg     rms          rms(c)
DAV:   1    -0.232761469784E+04    0.52310E-01   -0.23639E+00  4516   0.144E+00    0.517E-01
RMM:   2    -0.232766894647E+04   -0.54249E-01   -0.54372E-01  6471   0.341E-01    0.514E-01
RMM:   3    -0.232767125397E+04   -0.23075E-02   -0.57112E-02  6079   0.130E-01    0.326E-01
RMM:   4    -0.232767004556E+04    0.12084E-02   -0.57355E-03  5194   0.292E-02    0.148E-01
RMM:   5    -0.232766982133E+04    0.22423E-03   -0.49259E-04  4029   0.123E-02    0.122E-01
RMM:   6    -0.232766970311E+04    0.11821E-03   -0.52720E-04  4210   0.123E-02    0.941E-02
RMM:   7    -0.232766962055E+04    0.82565E-04   -0.29384E-04  4097   0.109E-02    0.257E-02
RMM:   8    -0.232766961203E+04    0.85219E-05   -0.36822E-05  2988   0.579E-03
  28 F= -.23491056E+04 E0= -.23491056E+04  d E =-.281129E-02  mag=     5.0000
       N       E                     dE             d eps       ncg     rms          rms(c)
DAV:   1    -0.232765914711E+04    0.10473E-01   -0.57556E-01  4528   0.696E-01    0.258E-01
RMM:   2    -0.232767217178E+04   -0.13025E-01   -0.13061E-01  6457   0.167E-01    0.257E-01
RMM:   3    -0.232767271375E+04   -0.54197E-03   -0.13658E-02  5621   0.629E-02    0.161E-01
RMM:   4    -0.232767241691E+04    0.29684E-03   -0.13748E-03  3441   0.149E-02    0.737E-02
RMM:   5    -0.232767236615E+04    0.50759E-04   -0.13007E-04  3014   0.754E-03    0.610E-02
RMM:   6    -0.232767233627E+04    0.29884E-04   -0.13833E-04  3023   0.768E-03    0.445E-02
RMM:   7    -0.232767232277E+04    0.13494E-04   -0.73343E-05  3032   0.679E-03    0.154E-02
RMM:   8    -0.232767232030E+04    0.24775E-05   -0.13635E-05  2936   0.458E-03
  29 F= -.23491079E+04 E0= -.23491078E+04  d E =-.225332E-02  mag=     5.0000
       N       E                     dE             d eps       ncg     rms          rms(c)
DAV:   1    -0.232762056744E+04    0.51755E-01   -0.23801E+00  4504   0.141E+00    0.521E-01
RMM:   2    -0.232767437277E+04   -0.53805E-01   -0.53950E-01  6483   0.340E-01    0.515E-01
RMM:   3    -0.232767675538E+04   -0.23826E-02   -0.56757E-02  6111   0.129E-01    0.328E-01
RMM:   4    -0.232767548692E+04    0.12685E-02   -0.56627E-03  5257   0.296E-02    0.149E-01
RMM:   5    -0.232767523697E+04    0.24995E-03   -0.51703E-04  4262   0.134E-02    0.115E-01
RMM:   6    -0.232767516498E+04    0.71992E-04   -0.59853E-04  4340   0.133E-02    0.101E-01
RMM:   7    -0.232767506840E+04    0.96576E-04   -0.27936E-04  4004   0.108E-02    0.274E-02
RMM:   8    -0.232767505949E+04    0.89162E-05   -0.41493E-05  2982   0.579E-03
  30 F= -.23491097E+04 E0= -.23491097E+04  d E =-.407069E-02  mag=     5.0000
       N       E                     dE             d eps       ncg     rms          rms(c)
DAV:   1    -0.232766040176E+04    0.14667E-01   -0.75179E-01  4528   0.793E-01    0.308E-01
RMM:   2    -0.232767756825E+04   -0.17166E-01   -0.17225E-01  6477   0.196E-01    0.300E-01
RMM:   3    -0.232767829141E+04   -0.72315E-03   -0.18018E-02  5869   0.740E-02    0.194E-01
RMM:   4    -0.232767782538E+04    0.46603E-03   -0.18150E-03  4176   0.175E-02    0.847E-02
RMM:   5    -0.232767775488E+04    0.70502E-04   -0.18491E-04  3214   0.889E-03    0.664E-02
RMM:   6    -0.232767771838E+04    0.36495E-04   -0.20063E-04  3371   0.924E-03    0.497E-02
RMM:   7    -0.232767770092E+04    0.17466E-04   -0.84313E-05  3064   0.733E-03    0.216E-02
RMM:   8    -0.232767769575E+04    0.51637E-05   -0.18958E-05  2932   0.501E-03
  31 F= -.23491118E+04 E0= -.23491118E+04  d E =-.213702E-02  mag=     5.0000
       N       E                     dE             d eps       ncg     rms          rms(c)
DAV:   1    -0.232766361582E+04    0.14085E-01   -0.66006E-01  4516   0.743E-01    0.288E-01
RMM:   2    -0.232767867516E+04   -0.15059E-01   -0.15104E-01  6453   0.183E-01    0.279E-01
RMM:   3    -0.232767932737E+04   -0.65221E-03   -0.15763E-02  5821   0.689E-02    0.181E-01
RMM:   4    -0.232767891548E+04    0.41189E-03   -0.15875E-03  3942   0.163E-02    0.794E-02
RMM:   5    -0.232767885099E+04    0.64496E-04   -0.16153E-04  3148   0.843E-03    0.620E-02
RMM:   6    -0.232767881970E+04    0.31283E-04   -0.17948E-04  3255   0.885E-03    0.475E-02
RMM:   7    -0.232767880243E+04    0.17271E-04   -0.74990E-05  3028   0.711E-03    0.199E-02
RMM:   8    -0.232767879793E+04    0.45010E-05   -0.16986E-05  2930   0.483E-03
  32 F= -.23491124E+04 E0= -.23491124E+04  d E =-.277237E-02  mag=     5.0000
       N       E                     dE             d eps       ncg     rms          rms(c)
DAV:   1    -0.232766228461E+04    0.16518E-01   -0.80985E-01  4516   0.812E-01    0.324E-01
RMM:   2    -0.232768157814E+04   -0.19294E-01   -0.19197E-01  6541   0.205E-01    0.335E-01
RMM:   3    -0.232768216350E+04   -0.58536E-03   -0.19978E-02  5915   0.742E-02    0.200E-01
RMM:   4    -0.232768167744E+04    0.48606E-03   -0.20155E-03  4184   0.181E-02    0.894E-02
RMM:   5    -0.232768160465E+04    0.72788E-04   -0.19232E-04  3189   0.865E-03    0.694E-02
RMM:   6    -0.232768155943E+04    0.45228E-04   -0.21801E-04  3481   0.952E-03    0.488E-02
RMM:   7    -0.232768154098E+04    0.18444E-04   -0.92434E-05  3049   0.740E-03    0.235E-02
RMM:   8    -0.232768153532E+04    0.56581E-05   -0.19962E-05  2924   0.484E-03
  33 F= -.23491146E+04 E0= -.23491146E+04  d E =-.216922E-02  mag=     5.0000
       N       E                     dE             d eps       ncg     rms          rms(c)
DAV:   1    -0.232765799333E+04    0.23548E-01   -0.10501E+00  4516   0.925E-01    0.370E-01
RMM:   2    -0.232768301587E+04   -0.25023E-01   -0.24915E-01  6530   0.234E-01    0.380E-01
RMM:   3    -0.232768380394E+04   -0.78808E-03   -0.25959E-02  6006   0.843E-02    0.229E-01
RMM:   4    -0.232768316540E+04    0.63854E-03   -0.26180E-03  4556   0.205E-02    0.102E-01
RMM:   5    -0.232768306920E+04    0.96198E-04   -0.25126E-04  3351   0.958E-03    0.784E-02
RMM:   6    -0.232768301232E+04    0.56878E-04   -0.28620E-04  3799   0.106E-02    0.556E-02
RMM:   7    -0.232768298480E+04    0.27521E-04   -0.11668E-04  3131   0.784E-03    0.258E-02
RMM:   8    -0.232768297776E+04    0.70402E-05   -0.24176E-05  2924   0.516E-03
  34 F= -.23491154E+04 E0= -.23491154E+04  d E =-.296480E-02  mag=     5.0000
       N       E                     dE             d eps       ncg     rms          rms(c)
DAV:   1    -0.232766657825E+04    0.16407E-01   -0.81286E-01  4516   0.811E-01    0.326E-01
RMM:   2    -0.232768587025E+04   -0.19292E-01   -0.18981E-01  6509   0.205E-01    0.357E-01
RMM:   3    -0.232768613698E+04   -0.26673E-03   -0.19569E-02  5938   0.739E-02    0.197E-01
RMM:   4    -0.232768568070E+04    0.45628E-03   -0.20045E-03  3954   0.178E-02    0.884E-02
RMM:   5    -0.232768561052E+04    0.70179E-04   -0.18629E-04  3155   0.841E-03    0.689E-02
RMM:   6    -0.232768556884E+04    0.41679E-04   -0.20889E-04  3409   0.931E-03    0.502E-02
RMM:   7    -0.232768554730E+04    0.21541E-04   -0.95932E-05  3038   0.742E-03    0.230E-02
RMM:   8    -0.232768554258E+04    0.47215E-05   -0.20346E-05  2926   0.477E-03
  35 F= -.23491174E+04 E0= -.23491174E+04  d E =-.203532E-02  mag=     5.0000
       N       E                     dE             d eps       ncg     rms          rms(c)
DAV:   1    -0.232764689787E+04    0.38649E-01   -0.17297E+00  4504   0.118E+00    0.476E-01
RMM:   2    -0.232768794640E+04   -0.41049E-01   -0.40410E-01  6526   0.300E-01    0.519E-01
RMM:   3    -0.232768859712E+04   -0.65072E-03   -0.41921E-02  6139   0.108E-01    0.288E-01
RMM:   4    -0.232768760381E+04    0.99331E-03   -0.42738E-03  5048   0.258E-02    0.129E-01
RMM:   5    -0.232768744760E+04    0.15621E-03   -0.38049E-04  3784   0.112E-02    0.984E-02
RMM:   6    -0.232768736802E+04    0.79582E-04   -0.44666E-04  4166   0.126E-02    0.728E-02
RMM:   7    -0.232768731264E+04    0.55380E-04   -0.19358E-04  3410   0.937E-03    0.294E-02
RMM:   8    -0.232768730543E+04    0.72090E-05   -0.35872E-05  2945   0.551E-03
  36 F= -.23491184E+04 E0= -.23491184E+04  d E =-.302823E-02  mag=     5.0000
       N       E                     dE             d eps       ncg     rms          rms(c)
DAV:   1    -0.232766526886E+04    0.22044E-01   -0.10697E+00  4516   0.916E-01    0.374E-01
RMM:   2    -0.232769076114E+04   -0.25492E-01   -0.24822E-01  6512   0.233E-01    0.429E-01
RMM:   3    -0.232769081369E+04   -0.52548E-04   -0.25645E-02  6026   0.831E-02    0.220E-01
RMM:   4    -0.232769025866E+04    0.55503E-03   -0.26456E-03  4488   0.202E-02    0.992E-02
RMM:   5    -0.232769016734E+04    0.91319E-04   -0.23458E-04  3286   0.912E-03    0.775E-02
RMM:   6    -0.232769012758E+04    0.39760E-04   -0.27092E-04  3612   0.102E-02    0.629E-02
RMM:   7    -0.232769009293E+04    0.34653E-04   -0.12519E-04  3077   0.789E-03    0.259E-02
RMM:   8    -0.232769008814E+04    0.47842E-05   -0.26413E-05  2932   0.503E-03
  37 F= -.23491206E+04 E0= -.23491206E+04  d E =-.215996E-02  mag=     5.0000
       N       E                     dE             d eps       ncg     rms          rms(c)
DAV:   1    -0.232766091382E+04    0.29179E-01   -0.13197E+00  4504   0.102E+00    0.415E-01
RMM:   2    -0.232769236067E+04   -0.31447E-01   -0.30630E-01  6540   0.259E-01    0.474E-01
RMM:   3    -0.232769246291E+04   -0.10224E-03   -0.31715E-02  6087   0.929E-02    0.244E-01
RMM:   4    -0.232769177034E+04    0.69256E-03   -0.32573E-03  4745   0.224E-02    0.110E-01
RMM:   5    -0.232769165449E+04    0.11585E-03   -0.28128E-04  3472   0.998E-03    0.850E-02
RMM:   6    -0.232769160814E+04    0.46352E-04   -0.33881E-04  3922   0.111E-02    0.699E-02
RMM:   7    -0.232769156205E+04    0.46089E-04   -0.15198E-04  3139   0.833E-03    0.280E-02
RMM:   8    -0.232769155652E+04    0.55260E-05   -0.31143E-05  2939   0.530E-03
  38 F= -.23491214E+04 E0= -.23491214E+04  d E =-.294071E-02  mag=     5.0000
       N       E                     dE             d eps       ncg     rms          rms(c)
DAV:   1    -0.232767015492E+04    0.21407E-01   -0.11014E+00  4516   0.945E-01    0.379E-01
RMM:   2    -0.232769524421E+04   -0.25089E-01   -0.24422E-01  6482   0.236E-01    0.423E-01
RMM:   3    -0.232769536336E+04   -0.11915E-03   -0.25254E-02  6021   0.849E-02    0.226E-01
RMM:   4    -0.232769476439E+04    0.59897E-03   -0.26248E-03  4700   0.207E-02    0.986E-02
RMM:   5    -0.232769467448E+04    0.89909E-04   -0.23578E-04  3391   0.971E-03    0.768E-02
RMM:   6    -0.232769464767E+04    0.26813E-04   -0.28157E-04  3840   0.105E-02    0.680E-02
RMM:   7    -0.232769460718E+04    0.40488E-04   -0.12303E-04  3080   0.797E-03    0.235E-02
RMM:   8    -0.232769460354E+04    0.36408E-05   -0.25007E-05  2951   0.497E-03
  39 F= -.23491237E+04 E0= -.23491237E+04  d E =-.233577E-02  mag=     5.0000
       N       E                     dE             d eps       ncg     rms          rms(c)
DAV:   1    -0.232766521584E+04    0.29391E-01   -0.13731E+00  4504   0.106E+00    0.423E-01
RMM:   2    -0.232769651471E+04   -0.31299E-01   -0.30480E-01  6457   0.264E-01    0.470E-01
RMM:   3    -0.232769668562E+04   -0.17091E-03   -0.31544E-02  6078   0.951E-02    0.253E-01
RMM:   4    -0.232769593326E+04    0.75235E-03   -0.32720E-03  4907   0.230E-02    0.110E-01
RMM:   5    -0.232769581773E+04    0.11553E-03   -0.29386E-04  3626   0.107E-02    0.850E-02
RMM:   6    -0.232769578523E+04    0.32503E-04   -0.35436E-04  4123   0.114E-02    0.762E-02
RMM:   7    -0.232769573050E+04    0.54734E-04   -0.15069E-04  3133   0.860E-03    0.261E-02
RMM:   8    -0.232769572548E+04    0.50170E-05   -0.30631E-05  2951   0.530E-03
  40 F= -.23491240E+04 E0= -.23491240E+04  d E =-.266818E-02  mag=     4.9999
       N       E                     dE             d eps       ncg     rms          rms(c)
DAV:   1    -0.232769227793E+04    0.34526E-02   -0.15156E-01  4624   0.351E-01    0.137E-01
RMM:   2    -0.232769568025E+04   -0.34023E-02   -0.33129E-02  6518   0.876E-02    0.150E-01
RMM:   3    -0.232769572555E+04   -0.45295E-04   -0.34199E-03  4046   0.322E-02    0.812E-02
RMM:   4    -0.232769564402E+04    0.81530E-04   -0.34725E-04  3047   0.887E-03    0.372E-02
RMM:   5    -0.232769563242E+04    0.11597E-04   -0.37134E-05  2955   0.467E-03    0.289E-02
RMM:   6    -0.232769562590E+04    0.65247E-05   -0.43573E-05  2940   0.487E-03
  41 F= -.23491242E+04 E0= -.23491242E+04  d E =-.283012E-02  mag=     4.9999
       N       E                     dE             d eps       ncg     rms          rms(c)
DAV:   1    -0.232766850710E+04    0.27125E-01   -0.13730E+00  4504   0.105E+00    0.417E-01
RMM:   2    -0.232769907949E+04   -0.30572E-01   -0.30071E-01  6525   0.263E-01    0.435E-01
RMM:   3    -0.232769978816E+04   -0.70867E-03   -0.30907E-02  6095   0.953E-02    0.259E-01
RMM:   4    -0.232769896583E+04    0.82233E-03   -0.32112E-03  4852   0.228E-02    0.107E-01
RMM:   5    -0.232769884821E+04    0.11762E-03   -0.27602E-04  3571   0.105E-02    0.790E-02
RMM:   6    -0.232769883193E+04    0.16272E-04   -0.34394E-04  4002   0.113E-02    0.765E-02
RMM:   7    -0.232769877011E+04    0.61829E-04   -0.13459E-04  3089   0.822E-03    0.235E-02
RMM:   8    -0.232769876458E+04    0.55283E-05   -0.26385E-05  2944   0.506E-03
  42 F= -.23491265E+04 E0= -.23491265E+04  d E =-.231628E-02  mag=     4.9999
       N       E                     dE             d eps       ncg     rms          rms(c)
DAV:   1    -0.232767300131E+04    0.25769E-01   -0.12233E+00  4504   0.993E-01    0.397E-01
RMM:   2    -0.232770030054E+04   -0.27299E-01   -0.26936E-01  6516   0.248E-01    0.409E-01
RMM:   3    -0.232770096243E+04   -0.66188E-03   -0.27567E-02  6068   0.873E-02    0.248E-01
RMM:   4    -0.232770022619E+04    0.73623E-03   -0.28965E-03  4755   0.216E-02    0.102E-01
RMM:   5    -0.232770012955E+04    0.96644E-04   -0.25612E-04  3424   0.988E-03    0.770E-02
RMM:   6    -0.232770010559E+04    0.23956E-04   -0.30018E-04  3825   0.107E-02    0.688E-02
RMM:   7    -0.232770005824E+04    0.47354E-04   -0.12095E-04  3095   0.792E-03    0.242E-02
RMM:   8    -0.232770005302E+04    0.52210E-05   -0.25330E-05  2936   0.510E-03
  43 F= -.23491270E+04 E0= -.23491270E+04  d E =-.283214E-02  mag=     4.9999
       N       E                     dE             d eps       ncg     rms          rms(c)
DAV:   1    -0.232767938693E+04    0.20671E-01   -0.10445E+00  4504   0.894E-01    0.358E-01
RMM:   2    -0.232770268526E+04   -0.23298E-01   -0.23324E-01  6535   0.225E-01    0.346E-01
RMM:   3    -0.232770366057E+04   -0.97531E-03   -0.23750E-02  6019   0.808E-02    0.231E-01
RMM:   4    -0.232770303162E+04    0.62895E-03   -0.25029E-03  4083   0.194E-02    0.943E-02
RMM:   5    -0.232770294876E+04    0.82863E-04   -0.20928E-04  3190   0.873E-03    0.689E-02
RMM:   6    -0.232770293237E+04    0.16384E-04   -0.24442E-04  3318   0.960E-03    0.619E-02
RMM:   7    -0.232770289262E+04    0.39755E-04   -0.10057E-04  3019   0.750E-03    0.216E-02
RMM:   8    -0.232770288828E+04    0.43387E-05   -0.21268E-05  2941   0.466E-03
  44 F= -.23491291E+04 E0= -.23491291E+04  d E =-.210796E-02  mag=     4.9999
       N       E                     dE             d eps       ncg     rms          rms(c)
DAV:   1    -0.232762397573E+04    0.78917E-01   -0.36171E+00  4504   0.166E+00    0.667E-01
RMM:   2    -0.232770480801E+04   -0.80832E-01   -0.80994E-01  6556   0.422E-01    0.640E-01
RMM:   3    -0.232770838533E+04   -0.35773E-02   -0.83349E-02  6244   0.151E-01    0.434E-01
RMM:   4    -0.232770613810E+04    0.22472E-02   -0.87073E-03  5423   0.357E-02    0.176E-01
RMM:   5    -0.232770582618E+04    0.31193E-03   -0.71901E-04  4378   0.147E-02    0.124E-01
RMM:   6    -0.232770579664E+04    0.29539E-04   -0.86550E-04  4633   0.162E-02    0.116E-01
RMM:   7    -0.232770563225E+04    0.16438E-03   -0.33366E-04  3902   0.112E-02    0.374E-02
RMM:   8    -0.232770561815E+04    0.14107E-04   -0.59583E-05  2980   0.591E-03    0.280E-02
RMM:   9    -0.232770560998E+04    0.81675E-05   -0.20004E-05  2900   0.354E-03
  45 F= -.23491305E+04 E0= -.23491305E+04  d E =-.348769E-02  mag=     4.9999
       N       E                     dE             d eps       ncg     rms          rms(c)
DAV:   1    -0.232767596214E+04    0.29656E-01   -0.14802E+00  4504   0.105E+00    0.431E-01
RMM:   2    -0.232770862934E+04   -0.32667E-01   -0.32807E-01  6539   0.266E-01    0.400E-01
RMM:   3    -0.232771024071E+04   -0.16114E-02   -0.33674E-02  6101   0.975E-02    0.280E-01
RMM:   4    -0.232770929926E+04    0.94146E-03   -0.35674E-03  4792   0.232E-02    0.115E-01
RMM:   5    -0.232770916910E+04    0.13015E-03   -0.29991E-04  3345   0.102E-02    0.783E-02
RMM:   6    -0.232770916375E+04    0.53541E-05   -0.37043E-04  3838   0.115E-02    0.732E-02
RMM:   7    -0.232770909830E+04    0.65443E-04   -0.13519E-04  3063   0.799E-03    0.230E-02
RMM:   8    -0.232770909336E+04    0.49482E-05   -0.24740E-05  2947   0.478E-03
  46 F= -.23491331E+04 E0= -.23491331E+04  d E =-.259155E-02  mag=     4.9999
       N       E                     dE             d eps       ncg     rms          rms(c)
DAV:   1    -0.232765897618E+04    0.50122E-01   -0.23314E+00  4504   0.132E+00    0.543E-01
RMM:   2    -0.232771041867E+04   -0.51442E-01   -0.51742E-01  6532   0.335E-01    0.502E-01
RMM:   3    -0.232771302112E+04   -0.26025E-02   -0.53400E-02  6182   0.121E-01    0.355E-01
RMM:   4    -0.232771150865E+04    0.15125E-02   -0.56196E-03  5246   0.289E-02    0.143E-01
RMM:   5    -0.232771130476E+04    0.20388E-03   -0.46106E-04  3865   0.123E-02    0.967E-02
RMM:   6    -0.232771130345E+04    0.13088E-05   -0.57495E-04  4265   0.138E-02    0.918E-02
RMM:   7    -0.232771119505E+04    0.10840E-03   -0.20833E-04  3273   0.931E-03    0.277E-02
RMM:   8    -0.232771118719E+04    0.78601E-05   -0.35864E-05  2962   0.526E-03
  47 F= -.23491341E+04 E0= -.23491341E+04  d E =-.357400E-02  mag=     4.9999
       N       E                     dE             d eps       ncg     rms          rms(c)
DAV:   1    -0.232768071253E+04    0.30483E-01   -0.15064E+00  4504   0.103E+00    0.437E-01
RMM:   2    -0.232771419064E+04   -0.33478E-01   -0.33481E-01  6540   0.264E-01    0.422E-01
RMM:   3    -0.232771563996E+04   -0.14493E-02   -0.34516E-02  6133   0.956E-02    0.280E-01
RMM:   4    -0.232771471470E+04    0.92526E-03   -0.36542E-03  4837   0.231E-02    0.115E-01
RMM:   5    -0.232771457595E+04    0.13875E-03   -0.28504E-04  3370   0.102E-02    0.755E-02
RMM:   6    -0.232771457923E+04   -0.32818E-05   -0.39313E-04  3989   0.118E-02    0.673E-02
RMM:   7    -0.232771451456E+04    0.64678E-04   -0.12796E-04  3043   0.787E-03    0.192E-02
RMM:   8    -0.232771451051E+04    0.40478E-05   -0.18111E-05  2936   0.411E-03
  48 F= -.23491366E+04 E0= -.23491366E+04  d E =-.246322E-02  mag=     4.9999
       N       E                     dE             d eps       ncg     rms          rms(c)
DAV:   1    -0.232767999806E+04    0.34516E-01   -0.16152E+00  4504   0.107E+00    0.452E-01
RMM:   2    -0.232771590198E+04   -0.35904E-01   -0.35921E-01  6548   0.273E-01    0.436E-01
RMM:   3    -0.232771747460E+04   -0.15726E-02   -0.36974E-02  6149   0.991E-02    0.290E-01
RMM:   4    -0.232771648409E+04    0.99051E-03   -0.39182E-03  4923   0.239E-02    0.119E-01
RMM:   5    -0.232771633330E+04    0.15079E-03   -0.30979E-04  3432   0.105E-02    0.784E-02
RMM:   6    -0.232771633350E+04   -0.20524E-06   -0.42505E-04  4078   0.121E-02    0.688E-02
RMM:   7    -0.232771626433E+04    0.69175E-04   -0.13922E-04  3064   0.805E-03    0.189E-02
RMM:   8    -0.232771625989E+04    0.44426E-05   -0.18468E-05  2933   0.418E-03
  49 F= -.23491374E+04 E0= -.23491374E+04  d E =-.333032E-02  mag=     4.9999
       N       E                     dE             d eps       ncg     rms          rms(c)
DAV:   1    -0.232768329178E+04    0.32973E-01   -0.16865E+00  4504   0.111E+00    0.462E-01
RMM:   2    -0.232772017212E+04   -0.36880E-01   -0.36751E-01  6553   0.281E-01    0.458E-01
RMM:   3    -0.232772149886E+04   -0.13267E-02   -0.37437E-02  6206   0.101E-01    0.294E-01
RMM:   4    -0.232772048556E+04    0.10133E-02   -0.40215E-03  5003   0.246E-02    0.120E-01
RMM:   5    -0.232772033576E+04    0.14980E-03   -0.34864E-04  3627   0.110E-02    0.813E-02
RMM:   6    -0.232772032913E+04    0.66289E-05   -0.41484E-04  4130   0.121E-02    0.707E-02
RMM:   7    -0.232772026275E+04    0.66379E-04   -0.15414E-04  3092   0.828E-03    0.209E-02
RMM:   8    -0.232772025962E+04    0.31297E-05   -0.20068E-05  2934   0.426E-03
  50 F= -.23491405E+04 E0= -.23491404E+04  d E =-.302060E-02  mag=     4.9999
       N       E                     dE             d eps       ncg     rms          rms(c)
DAV:   1    -0.232765845291E+04    0.61810E-01   -0.29347E+00  4504   0.146E+00    0.610E-01
RMM:   2    -0.232772272135E+04   -0.64268E-01   -0.64013E-01  6549   0.371E-01    0.602E-01
RMM:   3    -0.232772508059E+04   -0.23592E-02   -0.65898E-02  6289   0.133E-01    0.389E-01
RMM:   4    -0.232772326724E+04    0.18134E-02   -0.69949E-03  5383   0.323E-02    0.158E-01
RMM:   5    -0.232772300019E+04    0.26704E-03   -0.60243E-04  4324   0.141E-02    0.105E-01
RMM:   6    -0.232772299241E+04    0.77795E-05   -0.72129E-04  4498   0.154E-02    0.918E-02
RMM:   7    -0.232772287397E+04    0.11845E-03   -0.25404E-04  3432   0.103E-02    0.263E-02
RMM:   8    -0.232772286715E+04    0.68150E-05   -0.31250E-05  2949   0.470E-03
  51 F= -.23491418E+04 E0= -.23491418E+04  d E =-.435144E-02  mag=     4.9999
       N       E                     dE             d eps       ncg     rms          rms(c)
DAV:   1    -0.232768250658E+04    0.40367E-01   -0.20397E+00  4504   0.122E+00    0.501E-01
RMM:   2    -0.232772680605E+04   -0.44299E-01   -0.44126E-01  6591   0.309E-01    0.504E-01
RMM:   3    -0.232772824811E+04   -0.14421E-02   -0.44744E-02  6227   0.109E-01    0.321E-01
RMM:   4    -0.232772705862E+04    0.11895E-02   -0.48183E-03  5065   0.267E-02    0.133E-01
RMM:   5    -0.232772689216E+04    0.16647E-03   -0.42679E-04  3778   0.115E-02    0.938E-02
RMM:   6    -0.232772686649E+04    0.25665E-04   -0.47839E-04  4180   0.129E-02    0.780E-02
RMM:   7    -0.232772678393E+04    0.82565E-04   -0.19265E-04  3289   0.891E-03    0.209E-02
RMM:   8    -0.232772677949E+04    0.44376E-05   -0.23216E-05  2944   0.474E-03
  52 F= -.23491446E+04 E0= -.23491446E+04  d E =-.278454E-02  mag=     4.9999
       N       E                     dE             d eps       ncg     rms          rms(c)
DAV:   1    -0.232768087897E+04    0.45905E-01   -0.22070E+00  4504   0.127E+00    0.522E-01
RMM:   2    -0.232772883322E+04   -0.47954E-01   -0.47787E-01  6572   0.322E-01    0.523E-01
RMM:   3    -0.232773042473E+04   -0.15915E-02   -0.48465E-02  6253   0.113E-01    0.335E-01
RMM:   4    -0.232772912631E+04    0.12984E-02   -0.52242E-03  5168   0.277E-02    0.138E-01
RMM:   5    -0.232772894195E+04    0.18436E-03   -0.46247E-04  3938   0.118E-02    0.972E-02
RMM:   6    -0.232772891308E+04    0.28873E-04   -0.51881E-04  4244   0.133E-02    0.818E-02
RMM:   7    -0.232772882038E+04    0.92695E-04   -0.20969E-04  3334   0.919E-03    0.226E-02
RMM:   8    -0.232772881465E+04    0.57312E-05   -0.25984E-05  2946   0.490E-03
  53 F= -.23491454E+04 E0= -.23491454E+04  d E =-.366113E-02  mag=     4.9999
       N       E                     dE             d eps       ncg     rms          rms(c)
DAV:   1    -0.232768826372E+04    0.40557E-01   -0.21045E+00  4504   0.125E+00    0.514E-01
RMM:   2    -0.232773231552E+04   -0.44052E-01   -0.44146E-01  6546   0.318E-01    0.493E-01
RMM:   3    -0.232773405698E+04   -0.17415E-02   -0.44313E-02  6230   0.112E-01    0.340E-01
RMM:   4    -0.232773271309E+04    0.13439E-02   -0.47773E-03  5276   0.278E-02    0.137E-01
RMM:   5    -0.232773255911E+04    0.15398E-03   -0.55567E-04  4042   0.125E-02    0.101E-01
RMM:   6    -0.232773251396E+04    0.45150E-04   -0.49471E-04  4166   0.130E-02    0.809E-02
RMM:   7    -0.232773243650E+04    0.77463E-04   -0.19797E-04  3287   0.909E-03    0.277E-02
RMM:   8    -0.232773243183E+04    0.46757E-05   -0.32471E-05  2944   0.536E-03
  54 F= -.23491482E+04 E0= -.23491482E+04  d E =-.271567E-02  mag=     4.9999
       N       E                     dE             d eps       ncg     rms          rms(c)
DAV:   1    -0.232772019668E+04    0.12240E-01   -0.61725E-01  4560   0.679E-01    0.280E-01
RMM:   2    -0.232773314862E+04   -0.12952E-01   -0.12958E-01  6540   0.172E-01    0.271E-01
RMM:   3    -0.232773361332E+04   -0.46469E-03   -0.12899E-02  5817   0.596E-02    0.184E-01
RMM:   4    -0.232773322854E+04    0.38477E-03   -0.14118E-03  3594   0.153E-02    0.743E-02
RMM:   5    -0.232773318431E+04    0.44236E-04   -0.15654E-04  3074   0.779E-03    0.550E-02
RMM:   6    -0.232773317015E+04    0.14162E-04   -0.14730E-04  3106   0.810E-03    0.428E-02
RMM:   7    -0.232773314944E+04    0.20704E-04   -0.59739E-05  2977   0.643E-03    0.145E-02
RMM:   8    -0.232773314871E+04    0.73547E-06   -0.11019E-05  2914   0.368E-03
  55 F= -.23491484E+04 E0= -.23491484E+04  d E =-.295103E-02  mag=     4.9999
       N       E                     dE             d eps       ncg     rms          rms(c)
DAV:   1    -0.232770870112E+04    0.24448E-01   -0.14030E+00  4504   0.103E+00    0.411E-01
RMM:   2    -0.232773534051E+04   -0.26639E-01   -0.27067E-01  6496   0.255E-01    0.361E-01
RMM:   3    -0.232773675774E+04   -0.14172E-02   -0.26662E-02  6149   0.897E-02    0.278E-01
RMM:   4    -0.232773586128E+04    0.89646E-03   -0.29124E-03  5004   0.227E-02    0.115E-01
RMM:   5    -0.232773576580E+04    0.95475E-04   -0.43333E-04  3665   0.114E-02    0.873E-02
RMM:   6    -0.232773571914E+04    0.46659E-04   -0.34635E-04  3848   0.112E-02    0.667E-02
RMM:   7    -0.232773567503E+04    0.44118E-04   -0.13000E-04  3106   0.811E-03    0.282E-02
RMM:   8    -0.232773566733E+04    0.76912E-05   -0.27414E-05  2928   0.518E-03
  56 F= -.23491504E+04 E0= -.23491504E+04  d E =-.199465E-02  mag=     4.9999
       N       E                     dE             d eps       ncg     rms          rms(c)
DAV:   1    -0.232773242408E+04    0.32509E-02   -0.18510E-01  4672   0.374E-01    0.151E-01
RMM:   2    -0.232773595289E+04   -0.35288E-02   -0.35793E-02  6463   0.927E-02    0.134E-01
RMM:   3    -0.232773612737E+04   -0.17448E-03   -0.35112E-03  4321   0.321E-02    0.102E-01
RMM:   4    -0.232773600893E+04    0.11844E-03   -0.38924E-04  3062   0.928E-03    0.415E-02
RMM:   5    -0.232773599661E+04    0.12314E-04   -0.57185E-05  2975   0.514E-03    0.314E-02
RMM:   6    -0.232773599117E+04    0.54415E-05   -0.47624E-05  2951   0.501E-03
  57 F= -.23491505E+04 E0= -.23491505E+04  d E =-.213104E-02  mag=     4.9999
       N       E                     dE             d eps       ncg     rms          rms(c)
DAV:   1    -0.232772066926E+04    0.15327E-01   -0.10959E+00  4504   0.945E-01    0.354E-01
RMM:   2    -0.232773809120E+04   -0.17422E-01   -0.18060E-01  6438   0.219E-01    0.260E-01
RMM:   3    -0.232773935515E+04   -0.12639E-02   -0.17691E-02  6017   0.783E-02    0.238E-01
RMM:   4    -0.232773871545E+04    0.63970E-03   -0.19787E-03  4809   0.199E-02    0.105E-01
RMM:   5    -0.232773864477E+04    0.70676E-04   -0.35533E-04  3530   0.108E-02    0.771E-02
RMM:   6    -0.232773860634E+04    0.38436E-04   -0.26158E-04  3676   0.103E-02    0.554E-02
RMM:   7    -0.232773857685E+04    0.29489E-04   -0.87221E-05  3040   0.733E-03    0.238E-02
RMM:   8    -0.232773857110E+04    0.57485E-05   -0.20620E-05  2917   0.461E-03
  58 F= -.23491527E+04 E0= -.23491526E+04  d E =-.212998E-02  mag=     4.9999
       N       E                     dE             d eps       ncg     rms          rms(c)
DAV:   1    -0.232773400056E+04    0.45763E-02   -0.31015E-01  4528   0.503E-01    0.190E-01
RMM:   2    -0.232773896628E+04   -0.49657E-02   -0.51220E-02  6417   0.117E-01    0.146E-01
RMM:   3    -0.232773930415E+04   -0.33787E-03   -0.50118E-03  5081   0.408E-02    0.130E-01
RMM:   4    -0.232773911237E+04    0.19178E-03   -0.56003E-04  3200   0.112E-02    0.545E-02
RMM:   5    -0.232773909249E+04    0.19878E-04   -0.10217E-04  3007   0.667E-03    0.409E-02
RMM:   6    -0.232773908292E+04    0.95688E-05   -0.77781E-05  2982   0.632E-03
  59 F= -.23491529E+04 E0= -.23491529E+04  d E =-.240558E-02  mag=     4.9999
       N       E                     dE             d eps       ncg     rms          rms(c)
DAV:   1    -0.232772218145E+04    0.16911E-01   -0.12493E+00  4504   0.102E+00    0.375E-01
RMM:   2    -0.232774085102E+04   -0.18670E-01   -0.19606E-01  6442   0.234E-01    0.248E-01
RMM:   3    -0.232774228367E+04   -0.14326E-02   -0.19256E-02  6050   0.825E-02    0.240E-01
RMM:   4    -0.232774169774E+04    0.58592E-03   -0.21139E-03  4961   0.208E-02    0.114E-01
RMM:   5    -0.232774162601E+04    0.71738E-04   -0.44090E-04  3721   0.116E-02    0.841E-02
RMM:   6    -0.232774157650E+04    0.49507E-04   -0.28159E-04  3758   0.105E-02    0.581E-02
RMM:   7    -0.232774154288E+04    0.33620E-04   -0.91308E-05  3032   0.735E-03    0.251E-02
RMM:   8    -0.232774153646E+04    0.64183E-05   -0.22984E-05  2930   0.476E-03
  60 F= -.23491549E+04 E0= -.23491549E+04  d E =-.196697E-02  mag=     4.9999
       N       E                     dE             d eps       ncg     rms          rms(c)
DAV:   1    -0.232773900274E+04    0.25401E-02   -0.18224E-01  4608   0.390E-01    0.144E-01
RMM:   2    -0.232774173829E+04   -0.27355E-02   -0.28578E-02  6446   0.895E-02    0.101E-01
RMM:   3    -0.232774194731E+04   -0.20902E-03   -0.28093E-03  4241   0.311E-02    0.973E-02
RMM:   4    -0.232774184724E+04    0.10007E-03   -0.31035E-04  3032   0.917E-03    0.423E-02
RMM:   5    -0.232774183709E+04    0.10145E-04   -0.65522E-05  2972   0.539E-03    0.318E-02
RMM:   6    -0.232774183170E+04    0.53895E-05   -0.43861E-05  2933   0.495E-03
  61 F= -.23491550E+04 E0= -.23491550E+04  d E =-.207905E-02  mag=     4.9999
       N       E                     dE             d eps       ncg     rms          rms(c)
DAV:   1    -0.232772788077E+04    0.13956E-01   -0.10810E+00  4504   0.944E-01    0.339E-01
RMM:   2    -0.232774358993E+04   -0.15709E-01   -0.16567E-01  6462   0.216E-01    0.214E-01
RMM:   3    -0.232774478743E+04   -0.11975E-02   -0.16192E-02  5955   0.755E-02    0.212E-01
RMM:   4    -0.232774437212E+04    0.41532E-03   -0.17550E-03  4437   0.189E-02    0.105E-01
RMM:   5    -0.232774431898E+04    0.53138E-04   -0.36931E-04  3491   0.109E-02    0.786E-02
RMM:   6    -0.232774427316E+04    0.45815E-04   -0.23405E-04  3396   0.978E-03    0.529E-02
RMM:   7    -0.232774424403E+04    0.29129E-04   -0.70633E-05  3002   0.696E-03    0.225E-02
RMM:   8    -0.232774423976E+04    0.42734E-05   -0.19512E-05  2914   0.455E-03
  62 F= -.23491569E+04 E0= -.23491569E+04  d E =-.190488E-02  mag=     4.9999
       N       E                     dE             d eps       ncg     rms          rms(c)
DAV:   1    -0.232773857869E+04    0.56653E-02   -0.41431E-01  4504   0.585E-01    0.211E-01
RMM:   2    -0.232774462202E+04   -0.60433E-02   -0.63541E-02  6479   0.134E-01    0.138E-01
RMM:   3    -0.232774508983E+04   -0.46781E-03   -0.62168E-03  5396   0.457E-02    0.138E-01
RMM:   4    -0.232774490574E+04    0.18409E-03   -0.67721E-04  3226   0.121E-02    0.635E-02
RMM:   5    -0.232774488517E+04    0.20566E-04   -0.13978E-04  3031   0.745E-03    0.482E-02
RMM:   6    -0.232774487068E+04    0.14489E-04   -0.94742E-05  2987   0.678E-03    0.349E-02
RMM:   7    -0.232774485827E+04    0.12415E-04   -0.31956E-05  2938   0.523E-03    0.141E-02
RMM:   8    -0.232774485635E+04    0.19223E-05   -0.88212E-06  2889   0.329E-03
  63 F= -.23491572E+04 E0= -.23491572E+04  d E =-.221483E-02  mag=     4.9999
       N       E                     dE             d eps       ncg     rms          rms(c)
DAV:   1    -0.232773013520E+04    0.14723E-01   -0.12865E+00  4504   0.102E+00    0.364E-01
RMM:   2    -0.232774694322E+04   -0.16808E-01   -0.17783E-01  6418   0.230E-01    0.225E-01
RMM:   3    -0.232774823756E+04   -0.12943E-02   -0.17531E-02  5973   0.800E-02    0.233E-01
RMM:   4    -0.232774772805E+04    0.50951E-03   -0.18881E-03  4732   0.202E-02    0.112E-01
RMM:   5    -0.232774766408E+04    0.63970E-04   -0.45300E-04  3908   0.119E-02    0.845E-02
RMM:   6    -0.232774761392E+04    0.50161E-04   -0.28107E-04  3541   0.104E-02    0.574E-02
RMM:   7    -0.232774757802E+04    0.35898E-04   -0.78603E-05  3024   0.709E-03    0.236E-02
RMM:   8    -0.232774757338E+04    0.46325E-05   -0.21208E-05  2920   0.457E-03
  64 F= -.23491595E+04 E0= -.23491595E+04  d E =-.224499E-02  mag=     4.9999
       N       E                     dE             d eps       ncg     rms          rms(c)
DAV:   1    -0.232774355287E+04    0.40252E-02   -0.33450E-01  4544   0.520E-01    0.186E-01
RMM:   2    -0.232774792898E+04   -0.43761E-02   -0.46243E-02  6435   0.117E-01    0.116E-01
RMM:   3    -0.232774827386E+04   -0.34488E-03   -0.45666E-03  5001   0.401E-02    0.121E-01
RMM:   4    -0.232774813364E+04    0.14023E-03   -0.49771E-04  3113   0.110E-02    0.572E-02
RMM:   5    -0.232774811645E+04    0.17183E-04   -0.11793E-04  3029   0.697E-03    0.432E-02
RMM:   6    -0.232774810383E+04    0.12625E-04   -0.77203E-05  2975   0.642E-03    0.295E-02
RMM:   7    -0.232774809441E+04    0.94186E-05   -0.23681E-05  2934   0.470E-03
  65 F= -.23491598E+04 E0= -.23491597E+04  d E =-.252933E-02  mag=     4.9999
       N       E                     dE             d eps       ncg     rms          rms(c)
DAV:   1    -0.232773503979E+04    0.13064E-01   -0.12082E+00  4504   0.974E-01    0.346E-01
RMM:   2    -0.232775007951E+04   -0.15040E-01   -0.15976E-01  6456   0.217E-01    0.212E-01
RMM:   3    -0.232775118015E+04   -0.11006E-02   -0.15729E-02  5935   0.762E-02    0.212E-01
RMM:   4    -0.232775079730E+04    0.38284E-03   -0.17100E-03  4502   0.192E-02    0.111E-01
RMM:   5    -0.232775073595E+04    0.61349E-04   -0.40919E-04  3785   0.114E-02    0.830E-02
RMM:   6    -0.232775069190E+04    0.44053E-04   -0.26714E-04  3448   0.101E-02    0.571E-02
RMM:   7    -0.232775065677E+04    0.35132E-04   -0.74849E-05  3016   0.687E-03    0.230E-02
RMM:   8    -0.232775065205E+04    0.47186E-05   -0.19279E-05  2917   0.439E-03
  66 F= -.23491620E+04 E0= -.23491620E+04  d E =-.225808E-02  mag=     4.9999
       N       E                     dE             d eps       ncg     rms          rms(c)
DAV:   1    -0.232774258035E+04    0.80764E-02   -0.68474E-01  4504   0.733E-01    0.261E-01
RMM:   2    -0.232775108527E+04   -0.85049E-02   -0.90183E-02  6433   0.163E-01    0.162E-01
RMM:   3    -0.232775172743E+04   -0.64216E-03   -0.89736E-03  5678   0.564E-02    0.165E-01
RMM:   4    -0.232775148240E+04    0.24502E-03   -0.96663E-04  3521   0.146E-02    0.833E-02
RMM:   5    -0.232775144971E+04    0.32688E-04   -0.24070E-04  3231   0.928E-03    0.640E-02
RMM:   6    -0.232775141932E+04    0.30398E-04   -0.15602E-04  3125   0.844E-03    0.404E-02
RMM:   7    -0.232775140207E+04    0.17246E-04   -0.43339E-05  2963   0.601E-03    0.168E-02
RMM:   8    -0.232775139990E+04    0.21747E-05   -0.11805E-05  2907   0.374E-03
  67 F= -.23491625E+04 E0= -.23491625E+04  d E =-.278725E-02  mag=     4.9999
       N       E                     dE             d eps       ncg     rms          rms(c)
DAV:   1    -0.232773774199E+04    0.13660E-01   -0.12036E+00  4504   0.961E-01    0.352E-01
RMM:   2    -0.232775344538E+04   -0.15703E-01   -0.16696E-01  6435   0.218E-01    0.220E-01
RMM:   3    -0.232775450859E+04   -0.10632E-02   -0.16459E-02  5969   0.750E-02    0.207E-01
RMM:   4    -0.232775416617E+04    0.34243E-03   -0.17364E-03  4589   0.189E-02    0.112E-01
RMM:   5    -0.232775412260E+04    0.43568E-04   -0.42423E-04  3665   0.113E-02    0.899E-02
RMM:   6    -0.232775406329E+04    0.59312E-04   -0.27387E-04  3371   0.101E-02    0.576E-02
RMM:   7    -0.232775402926E+04    0.34024E-04   -0.76235E-05  3003   0.696E-03    0.249E-02
RMM:   8    -0.232775402330E+04    0.59631E-05   -0.20435E-05  2918   0.448E-03
  68 F= -.23491650E+04 E0= -.23491650E+04  d E =-.243205E-02  mag=     4.9999
       N       E                     dE             d eps       ncg     rms          rms(c)
DAV:   1    -0.232773919759E+04    0.14832E-01   -0.11624E+00  4504   0.946E-01    0.347E-01
RMM:   2    -0.232775438508E+04   -0.15187E-01   -0.16141E-01  6473   0.215E-01    0.218E-01
RMM:   3    -0.232775541548E+04   -0.10304E-02   -0.15896E-02  5950   0.730E-02    0.206E-01
RMM:   4    -0.232775507613E+04    0.33935E-03   -0.16894E-03  4512   0.186E-02    0.110E-01
RMM:   5    -0.232775503410E+04    0.42030E-04   -0.41058E-04  3603   0.111E-02    0.888E-02
RMM:   6    -0.232775497561E+04    0.58485E-04   -0.26616E-04  3351   0.999E-03    0.567E-02
RMM:   7    -0.232775494270E+04    0.32908E-04   -0.74836E-05  3007   0.692E-03    0.249E-02
RMM:   8    -0.232775493658E+04    0.61219E-05   -0.20312E-05  2922   0.450E-03
  69 F= -.23491657E+04 E0= -.23491657E+04  d E =-.316736E-02  mag=     4.9999
       N       E                     dE             d eps       ncg     rms          rms(c)
DAV:   1    -0.232773938400E+04    0.15559E-01   -0.13378E+00  4504   0.999E-01    0.376E-01
RMM:   2    -0.232775694077E+04   -0.17557E-01   -0.18660E-01  6455   0.230E-01    0.246E-01
RMM:   3    -0.232775796204E+04   -0.10213E-02   -0.18132E-02  6002   0.783E-02    0.215E-01
RMM:   4    -0.232775760581E+04    0.35623E-03   -0.19051E-03  4814   0.198E-02    0.114E-01
RMM:   5    -0.232775755143E+04    0.54378E-04   -0.44872E-04  3942   0.118E-02    0.861E-02
RMM:   6    -0.232775753282E+04    0.18609E-04   -0.30671E-04  3336   0.103E-02    0.749E-02
RMM:   7    -0.232775746837E+04    0.64453E-04   -0.95157E-05  2994   0.727E-03    0.275E-02
RMM:   8    -0.232775746053E+04    0.78423E-05   -0.24658E-05  2918   0.460E-03
  70 F= -.23491681E+04 E0= -.23491681E+04  d E =-.240476E-02  mag=     4.9999
       N       E                     dE             d eps       ncg     rms          rms(c)
DAV:   1    -0.232774966543E+04    0.78029E-02   -0.62314E-01  4504   0.682E-01    0.257E-01
RMM:   2    -0.232775784932E+04   -0.81839E-02   -0.86952E-02  6458   0.157E-01    0.169E-01
RMM:   3    -0.232775832858E+04   -0.47926E-03   -0.84260E-03  5639   0.527E-02    0.148E-01
RMM:   4    -0.232775815854E+04    0.17004E-03   -0.89580E-04  3524   0.138E-02    0.779E-02
RMM:   5    -0.232775813250E+04    0.26043E-04   -0.21019E-04  3186   0.878E-03    0.598E-02
RMM:   6    -0.232775812206E+04    0.10437E-04   -0.15056E-04  3047   0.807E-03    0.512E-02
RMM:   7    -0.232775809181E+04    0.30256E-04   -0.47506E-05  2946   0.589E-03    0.188E-02
RMM:   8    -0.232775808813E+04    0.36757E-05   -0.12659E-05  2903   0.373E-03
  71 F= -.23491687E+04 E0= -.23491687E+04  d E =-.295719E-02  mag=     4.9999
       N       E                     dE             d eps       ncg     rms          rms(c)
DAV:   1    -0.232774264660E+04    0.15445E-01   -0.14654E+00  4504   0.104E+00    0.390E-01
RMM:   2    -0.232776058967E+04   -0.17943E-01   -0.19036E-01  6416   0.235E-01    0.269E-01
RMM:   3    -0.232776149005E+04   -0.90038E-03   -0.18271E-02  6037   0.796E-02    0.227E-01
RMM:   4    -0.232776106930E+04    0.42075E-03   -0.19969E-03  4946   0.206E-02    0.115E-01
RMM:   5    -0.232776097964E+04    0.89665E-04   -0.46220E-04  4217   0.123E-02    0.716E-02
RMM:   6    -0.232776099861E+04   -0.18967E-04   -0.29641E-04  3651   0.106E-02    0.751E-02
RMM:   7    -0.232776092388E+04    0.74724E-04   -0.99504E-05  2990   0.730E-03    0.244E-02
RMM:   8    -0.232776091954E+04    0.43460E-05   -0.22743E-05  2926   0.395E-03
  72 F= -.23491716E+04 E0= -.23491716E+04  d E =-.289981E-02  mag=     4.9999
       N       E                     dE             d eps       ncg     rms          rms(c)
DAV:   1    -0.232775518248E+04    0.57414E-02   -0.50844E-01  4516   0.612E-01    0.230E-01
RMM:   2    -0.232776139662E+04   -0.62141E-02   -0.65870E-02  6425   0.139E-01    0.160E-01
RMM:   3    -0.232776171231E+04   -0.31569E-03   -0.63136E-03  5442   0.462E-02    0.136E-01
RMM:   4    -0.232776156254E+04    0.14976E-03   -0.69407E-04  3344   0.126E-02    0.679E-02
RMM:   5    -0.232776153331E+04    0.29230E-04   -0.16259E-04  3185   0.818E-03    0.445E-02
RMM:   6    -0.232776154048E+04   -0.71655E-05   -0.11100E-04  3036   0.761E-03    0.477E-02
RMM:   7    -0.232776151254E+04    0.27936E-04   -0.39599E-05  2931   0.554E-03    0.159E-02
RMM:   8    -0.232776151025E+04    0.22954E-05   -0.99651E-06  2892   0.314E-03
  73 F= -.23491722E+04 E0= -.23491722E+04  d E =-.353595E-02  mag=     4.9999
       N       E                     dE             d eps       ncg     rms          rms(c)
DAV:   1    -0.232774700898E+04    0.14504E-01   -0.15313E+00  4504   0.107E+00    0.385E-01
RMM:   2    -0.232776404927E+04   -0.17040E-01   -0.18059E-01  6391   0.233E-01    0.273E-01
RMM:   3    -0.232776487715E+04   -0.82788E-03   -0.17315E-02  5972   0.798E-02    0.233E-01
RMM:   4    -0.232776440444E+04    0.47271E-03   -0.19387E-03  4979   0.209E-02    0.113E-01
RMM:   5    -0.232776430800E+04    0.96440E-04   -0.47170E-04  4357   0.130E-02    0.684E-02
RMM:   6    -0.232776431301E+04   -0.50049E-05   -0.28483E-04  3774   0.107E-02    0.631E-02
RMM:   7    -0.232776425114E+04    0.61864E-04   -0.84266E-05  2980   0.693E-03    0.164E-02
RMM:   8    -0.232776425062E+04    0.52554E-06   -0.16862E-05  2934   0.363E-03
  74 F= -.23491750E+04 E0= -.23491750E+04  d E =-.281322E-02  mag=     4.9999
       N       E                     dE             d eps       ncg     rms          rms(c)
DAV:   1    -0.232776152885E+04    0.27223E-02   -0.27428E-01  4592   0.452E-01    0.164E-01
RMM:   2    -0.232776457671E+04   -0.30479E-02   -0.32253E-02  6409   0.991E-02    0.118E-01
RMM:   3    -0.232776472583E+04   -0.14912E-03   -0.30825E-03  4637   0.326E-02    0.100E-01
RMM:   4    -0.232776463912E+04    0.86710E-04   -0.34366E-04  3109   0.974E-03    0.486E-02
RMM:   5    -0.232776462567E+04    0.13452E-04   -0.93276E-05  3060   0.652E-03    0.345E-02
RMM:   6    -0.232776462617E+04   -0.49530E-06   -0.62912E-05  2961   0.613E-03
  75 F= -.23491754E+04 E0= -.23491754E+04  d E =-.322234E-02  mag=     4.9999
       N       E                     dE             d eps       ncg     rms          rms(c)
DAV:   1    -0.232775067510E+04    0.13951E-01   -0.15475E+00  4504   0.110E+00    0.387E-01
RMM:   2    -0.232776694698E+04   -0.16272E-01   -0.17316E-01  6339   0.236E-01    0.252E-01
RMM:   3    -0.232776779278E+04   -0.84580E-03   -0.16485E-02  5927   0.824E-02    0.221E-01
RMM:   4    -0.232776736919E+04    0.42359E-03   -0.18767E-03  5117   0.212E-02    0.114E-01
RMM:   5    -0.232776728691E+04    0.82274E-04   -0.47275E-04  4337   0.134E-02    0.728E-02
RMM:   6    -0.232776729010E+04   -0.31840E-05   -0.28616E-04  3726   0.106E-02    0.678E-02
RMM:   7    -0.232776722828E+04    0.61822E-04   -0.82790E-05  2980   0.691E-03    0.199E-02
RMM:   8    -0.232776722699E+04    0.12896E-05   -0.20099E-05  2937   0.366E-03
  76 F= -.23491780E+04 E0= -.23491780E+04  d E =-.258395E-02  mag=     4.9999
       N       E                     dE             d eps       ncg     rms          rms(c)
DAV:   1    -0.232776440430E+04    0.28240E-02   -0.29436E-01  4532   0.482E-01    0.169E-01
RMM:   2    -0.232776750116E+04   -0.30969E-02   -0.32857E-02  6363   0.103E-01    0.113E-01
RMM:   3    -0.232776766885E+04   -0.16769E-03   -0.31424E-03  4781   0.354E-02    0.101E-01
RMM:   4    -0.232776758099E+04    0.87862E-04   -0.35879E-04  3115   0.101E-02    0.494E-02
RMM:   5    -0.232776756324E+04    0.17742E-04   -0.89665E-05  3067   0.676E-03    0.296E-02
RMM:   6    -0.232776756441E+04   -0.11673E-05   -0.55508E-05  2981   0.616E-03
  77 F= -.23491783E+04 E0= -.23491783E+04  d E =-.291609E-02  mag=     4.9999
       N       E                     dE             d eps       ncg     rms          rms(c)
DAV:   1    -0.232775349989E+04    0.14063E-01   -0.13980E+00  4504   0.104E+00    0.367E-01
RMM:   2    -0.232776929218E+04   -0.15792E-01   -0.16828E-01  6382   0.227E-01    0.236E-01
RMM:   3    -0.232777016060E+04   -0.86842E-03   -0.15991E-02  5908   0.783E-02    0.205E-01
RMM:   4    -0.232776983237E+04    0.32823E-03   -0.18034E-03  4923   0.200E-02    0.111E-01
RMM:   5    -0.232776974544E+04    0.86930E-04   -0.42284E-04  4141   0.123E-02    0.670E-02
RMM:   6    -0.232776975443E+04   -0.89856E-05   -0.25991E-04  3519   0.103E-02    0.615E-02
RMM:   7    -0.232776969535E+04    0.59076E-04   -0.73136E-05  2977   0.675E-03    0.153E-02
RMM:   8    -0.232776969589E+04   -0.53200E-06   -0.17397E-05  2932   0.350E-03
  78 F= -.23491806E+04 E0= -.23491806E+04  d E =-.225967E-02  mag=     4.9999
       N       E                     dE             d eps       ncg     rms          rms(c)
DAV:   1    -0.232776646426E+04    0.32311E-02   -0.29977E-01  4528   0.479E-01    0.170E-01
RMM:   2    -0.232776984873E+04   -0.33845E-02   -0.35983E-02  6411   0.105E-01    0.112E-01
RMM:   3    -0.232777004236E+04   -0.19363E-03   -0.34763E-03  4730   0.361E-02    0.979E-02
RMM:   4    -0.232776996609E+04    0.76266E-04   -0.38788E-04  3087   0.100E-02    0.515E-02
RMM:   5    -0.232776995076E+04    0.15337E-04   -0.89964E-05  3041   0.647E-03    0.366E-02
RMM:   6    -0.232776995130E+04   -0.54769E-06   -0.67468E-05  2959   0.610E-03
  79 F= -.23491809E+04 E0= -.23491809E+04  d E =-.257645E-02  mag=     4.9999
       N       E                     dE             d eps       ncg     rms          rms(c)
DAV:   1    -0.232775547077E+04    0.14480E-01   -0.13503E+00  4504   0.102E+00    0.367E-01
RMM:   2    -0.232777166081E+04   -0.16190E-01   -0.17238E-01  6344   0.227E-01    0.229E-01
RMM:   3    -0.232777256639E+04   -0.90558E-03   -0.16580E-02  5834   0.810E-02    0.196E-01
RMM:   4    -0.232777226667E+04    0.29972E-03   -0.18335E-03  4751   0.200E-02    0.112E-01
RMM:   5    -0.232777221452E+04    0.52150E-04   -0.42714E-04  4007   0.122E-02    0.902E-02
RMM:   6    -0.232777218170E+04    0.32821E-04   -0.31147E-04  3468   0.104E-02    0.682E-02
RMM:   7    -0.232777212605E+04    0.55646E-04   -0.78087E-05  3007   0.702E-03    0.265E-02
RMM:   8    -0.232777211963E+04    0.64214E-05   -0.22881E-05  2922   0.424E-03
  80 F= -.23491833E+04 E0= -.23491833E+04  d E =-.235038E-02  mag=     4.9999
       N       E                     dE             d eps       ncg     rms          rms(c)
DAV:   1    -0.232776732381E+04    0.48022E-02   -0.40799E-01  4504   0.560E-01    0.202E-01
RMM:   2    -0.232777222913E+04   -0.49053E-02   -0.52154E-02  6406   0.126E-01    0.129E-01
RMM:   3    -0.232777251447E+04   -0.28534E-03   -0.50489E-03  5152   0.438E-02    0.112E-01
RMM:   4    -0.232777241424E+04    0.10022E-03   -0.54632E-04  3201   0.115E-02    0.598E-02
RMM:   5    -0.232777238841E+04    0.25830E-04   -0.13083E-04  3170   0.765E-03    0.368E-02
RMM:   6    -0.232777239256E+04   -0.41419E-05   -0.81170E-05  2996   0.687E-03
  81 F= -.23491836E+04 E0= -.23491836E+04  d E =-.272571E-02  mag=     4.9999
       N       E                     dE             d eps       ncg     rms          rms(c)
DAV:   1    -0.232776261451E+04    0.97739E-02   -0.95129E-01  4504   0.822E-01    0.299E-01
RMM:   2    -0.232777411363E+04   -0.11499E-01   -0.12193E-01  6402   0.185E-01    0.195E-01
RMM:   3    -0.232777477445E+04   -0.66081E-03   -0.11740E-02  5744   0.641E-02    0.167E-01
RMM:   4    -0.232777456637E+04    0.20807E-03   -0.12837E-03  3770   0.161E-02    0.977E-02
RMM:   5    -0.232777453686E+04    0.29509E-04   -0.30861E-04  3369   0.993E-03    0.828E-02
RMM:   6    -0.232777449675E+04    0.40113E-04   -0.23075E-04  3199   0.928E-03    0.552E-02
RMM:   7    -0.232777446515E+04    0.31603E-04   -0.62259E-05  2982   0.648E-03    0.243E-02
RMM:   8    -0.232777445851E+04    0.66402E-05   -0.17393E-05  2923   0.390E-03
  82 F= -.23491858E+04 E0= -.23491857E+04  d E =-.210887E-02  mag=     4.9999
       N       E                     dE             d eps       ncg     rms          rms(c)
DAV:   1    -0.232775223457E+04    0.22231E-01   -0.18707E+00  4504   0.115E+00    0.419E-01
RMM:   2    -0.232777489851E+04   -0.22664E-01   -0.23994E-01  6449   0.261E-01    0.280E-01
RMM:   3    -0.232777615669E+04   -0.12582E-02   -0.23267E-02  6003   0.901E-02    0.237E-01
RMM:   4    -0.232777571712E+04    0.43957E-03   -0.25121E-03  4949   0.222E-02    0.129E-01
RMM:   5    -0.232777562458E+04    0.92538E-04   -0.56914E-04  4183   0.133E-02    0.923E-02
RMM:   6    -0.232777562709E+04   -0.25110E-05   -0.40451E-04  3684   0.114E-02    0.844E-02
RMM:   7    -0.232777553660E+04    0.90492E-04   -0.11588E-04  3020   0.755E-03    0.331E-02
RMM:   8    -0.232777552531E+04    0.11287E-04   -0.29801E-05  2925   0.445E-03    0.155E-02
RMM:   9    -0.232777552122E+04    0.40872E-05   -0.74568E-06  2901   0.252E-03
  83 F= -.23491869E+04 E0= -.23491869E+04  d E =-.323788E-02  mag=     4.9999
       N       E                     dE             d eps       ncg     rms          rms(c)
DAV:   1    -0.232776519595E+04    0.10329E-01   -0.10338E+00  4504   0.840E-01    0.310E-01
RMM:   2    -0.232777753349E+04   -0.12338E-01   -0.13009E-01  6431   0.190E-01    0.217E-01
RMM:   3    -0.232777818743E+04   -0.65394E-03   -0.12642E-02  5790   0.669E-02    0.180E-01
RMM:   4    -0.232777792416E+04    0.26327E-03   -0.13804E-03  3943   0.166E-02    0.979E-02
RMM:   5    -0.232777789053E+04    0.33628E-04   -0.33266E-04  3455   0.103E-02    0.813E-02
RMM:   6    -0.232777786186E+04    0.28670E-04   -0.24465E-04  3249   0.937E-03    0.615E-02
RMM:   7    -0.232777782048E+04    0.41385E-04   -0.72400E-05  2983   0.664E-03    0.262E-02
RMM:   8    -0.232777781205E+04    0.84293E-05   -0.18574E-05  2922   0.383E-03
  84 F= -.23491892E+04 E0= -.23491892E+04  d E =-.236144E-02  mag=     4.9999
       N       E                     dE             d eps       ncg     rms          rms(c)
DAV:   1    -0.232776990505E+04    0.79154E-02   -0.72775E-01  4504   0.704E-01    0.261E-01
RMM:   2    -0.232777857572E+04   -0.86707E-02   -0.91461E-02  6457   0.159E-01    0.182E-01
RMM:   3    -0.232777904699E+04   -0.47127E-03   -0.89191E-03  5549   0.548E-02    0.153E-01
RMM:   4    -0.232777886001E+04    0.18698E-03   -0.97361E-04  3427   0.141E-02    0.827E-02
RMM:   5    -0.232777883809E+04    0.21918E-04   -0.23507E-04  3208   0.885E-03    0.699E-02
RMM:   6    -0.232777881499E+04    0.23094E-04   -0.17413E-04  3092   0.827E-03    0.515E-02
RMM:   7    -0.232777878655E+04    0.28443E-04   -0.52872E-05  2956   0.591E-03    0.217E-02
RMM:   8    -0.232777878070E+04    0.58538E-05   -0.13814E-05  2907   0.349E-03
  85 F= -.23491903E+04 E0= -.23491903E+04  d E =-.339204E-02  mag=     4.9999
       N       E                     dE             d eps       ncg     rms          rms(c)
DAV:   1    -0.232774285072E+04    0.35936E-01   -0.29105E+00  4504   0.141E+00    0.521E-01
RMM:   2    -0.232777749293E+04   -0.34642E-01   -0.36563E-01  6407   0.319E-01    0.362E-01
RMM:   3    -0.232777935249E+04   -0.18596E-02   -0.35783E-02  6089   0.112E-01    0.306E-01
RMM:   4    -0.232777858686E+04    0.76564E-03   -0.38847E-03  5246   0.273E-02    0.165E-01
RMM:   5    -0.232777849636E+04    0.90498E-04   -0.93173E-04  4515   0.162E-02    0.138E-01
RMM:   6    -0.232777840906E+04    0.87304E-04   -0.68510E-04  4390   0.138E-02    0.103E-01
RMM:   7    -0.232777829483E+04    0.11422E-03   -0.19790E-04  3164   0.896E-03    0.455E-02
RMM:   8    -0.232777826832E+04    0.26518E-04   -0.48917E-05  2935   0.524E-03    0.170E-02
RMM:   9    -0.232777826227E+04    0.60416E-05   -0.10598E-05  2917   0.278E-03
  86 F= -.23491899E+04 E0= -.23491899E+04  d E =-.300473E-02  mag=     4.9999
       N       E                     dE             d eps       ncg     rms          rms(c)
DAV:   1    -0.232776339321E+04    0.14875E-01   -0.12874E+00  4504   0.935E-01    0.346E-01
RMM:   2    -0.232777856037E+04   -0.15167E-01   -0.16007E-01  6452   0.211E-01    0.240E-01
RMM:   3    -0.232777941142E+04   -0.85105E-03   -0.15773E-02  5862   0.739E-02    0.197E-01
RMM:   4    -0.232777910478E+04    0.30664E-03   -0.17112E-03  4322   0.184E-02    0.109E-01
RMM:   5    -0.232777906350E+04    0.41288E-04   -0.41760E-04  3628   0.113E-02    0.913E-02
RMM:   6    -0.232777902768E+04    0.35812E-04   -0.30272E-04  3371   0.100E-02    0.691E-02
RMM:   7    -0.232777897235E+04    0.55333E-04   -0.87733E-05  2993   0.707E-03    0.251E-02
RMM:   8    -0.232777896571E+04    0.66374E-05   -0.21921E-05  2924   0.394E-03
  87 F= -.23491905E+04 E0= -.23491905E+04  d E =-.361989E-02  mag=     4.9999
       N       E                     dE             d eps       ncg     rms          rms(c)
DAV:   1    -0.232776334488E+04    0.15627E-01   -0.14756E+00  4504   0.102E+00    0.377E-01
RMM:   2    -0.232778106349E+04   -0.17719E-01   -0.18684E-01  6388   0.231E-01    0.269E-01
RMM:   3    -0.232778190471E+04   -0.84122E-03   -0.18070E-02  5934   0.808E-02    0.220E-01
RMM:   4    -0.232778147981E+04    0.42489E-03   -0.19808E-03  4718   0.202E-02    0.119E-01
RMM:   5    -0.232778144090E+04    0.38911E-04   -0.50709E-04  3935   0.125E-02    0.107E-01
RMM:   6    -0.232778135910E+04    0.81801E-04   -0.36653E-04  3787   0.110E-02    0.678E-02
RMM:   7    -0.232778131437E+04    0.44733E-04   -0.10265E-04  3018   0.759E-03    0.339E-02
RMM:   8    -0.232778129966E+04    0.14712E-04   -0.28567E-05  2935   0.453E-03    0.119E-02
RMM:   9    -0.232778129665E+04    0.30069E-05   -0.58674E-06  2896   0.243E-03
  88 F= -.23491930E+04 E0= -.23491930E+04  d E =-.254985E-02  mag=     4.9999
       N       E                     dE             d eps       ncg     rms          rms(c)
DAV:   1    -0.232777759913E+04    0.37005E-02   -0.33583E-01  4528   0.485E-01    0.180E-01
RMM:   2    -0.232778164534E+04   -0.40462E-02   -0.42606E-02  6360   0.110E-01    0.130E-01
RMM:   3    -0.232778183945E+04   -0.19411E-03   -0.41210E-03  4890   0.391E-02    0.105E-01
RMM:   4    -0.232778174459E+04    0.94860E-04   -0.45176E-04  3099   0.104E-02    0.569E-02
RMM:   5    -0.232778173693E+04    0.76613E-05   -0.11737E-04  3020   0.671E-03    0.520E-02
RMM:   6    -0.232778171778E+04    0.19144E-04   -0.86193E-05  2986   0.639E-03    0.326E-02
RMM:   7    -0.232778170775E+04    0.10029E-04   -0.26334E-05  2929   0.462E-03    0.156E-02
RMM:   8    -0.232778170476E+04    0.29928E-05   -0.76020E-06  2877   0.285E-03
  89 F= -.23491936E+04 E0= -.23491936E+04  d E =-.306372E-02  mag=     5.0000
       N       E                     dE             d eps       ncg     rms          rms(c)
DAV:   1    -0.232776482673E+04    0.16881E-01   -0.13416E+00  4504   0.969E-01    0.361E-01
RMM:   2    -0.232778098900E+04   -0.16162E-01   -0.17033E-01  6350   0.220E-01    0.258E-01
RMM:   3    -0.232778176967E+04   -0.78067E-03   -0.16513E-02  5894   0.769E-02    0.213E-01
RMM:   4    -0.232778138057E+04    0.38910E-03   -0.18184E-03  4591   0.192E-02    0.114E-01
RMM:   5    -0.232778135024E+04    0.30324E-04   -0.46287E-04  3759   0.120E-02    0.104E-01
RMM:   6    -0.232778127213E+04    0.78114E-04   -0.33800E-04  3732   0.106E-02    0.646E-02
RMM:   7    -0.232778123254E+04    0.39587E-04   -0.95234E-05  3017   0.744E-03    0.322E-02
RMM:   8    -0.232778121924E+04    0.13303E-04   -0.26657E-05  2936   0.442E-03    0.116E-02
[...]
RMM:   4    -0.232780117575E+04    0.11931E-03   -0.50890E-04  3584   0.120E-02    0.726E-02
RMM:   5    -0.232780117336E+04    0.23830E-05   -0.18736E-04  3170   0.875E-03    0.753E-02
RMM:   6    -0.232780111556E+04    0.57802E-04   -0.14193E-04  3205   0.837E-03    0.261E-02
RMM:   7    -0.232780110762E+04    0.79447E-05   -0.26415E-05  2937   0.572E-03
 121 F= -.23492160E+04 E0= -.23492160E+04  d E =-.837983E-03  mag=     5.0000
       N       E                     dE             d eps       ncg     rms          rms(c)
DAV:   1    -0.232779961754E+04    0.14980E-02   -0.30496E-01  4504   0.516E-01    0.170E-01
RMM:   2    -0.232780213094E+04   -0.25134E-02   -0.27224E-02  6164   0.103E-01    0.109E-01
RMM:   3    -0.232780221636E+04   -0.85424E-04   -0.26462E-03  4970   0.386E-02    0.838E-02
RMM:   4    -0.232780213370E+04    0.82667E-04   -0.30867E-04  3482   0.104E-02    0.559E-02
RMM:   5    -0.232780211776E+04    0.15937E-04   -0.12235E-04  3152   0.807E-03    0.474E-02
RMM:   6    -0.232780210116E+04    0.16604E-04   -0.81255E-05  2971   0.712E-03    0.278E-02
RMM:   7    -0.232780209220E+04    0.89590E-05   -0.19279E-05  2921   0.500E-03
 122 F= -.23492171E+04 E0= -.23492171E+04  d E =-.110876E-02  mag=     5.0000
       N       E                     dE             d eps       ncg     rms          rms(c)
DAV:   1    -0.232780099524E+04    0.11059E-02   -0.14654E-01  4528   0.358E-01    0.118E-01
RMM:   2    -0.232780220485E+04   -0.12096E-02   -0.13111E-02  6156   0.718E-02    0.746E-02
RMM:   3    -0.232780224949E+04   -0.44642E-04   -0.12816E-03  4034   0.273E-02    0.587E-02
RMM:   4    -0.232780221369E+04    0.35801E-04   -0.15272E-04  2996   0.799E-03    0.422E-02
RMM:   5    -0.232780220578E+04    0.79145E-05   -0.60126E-05  2979   0.572E-03
 123 F= -.23492173E+04 E0= -.23492173E+04  d E =-.130814E-02  mag=     5.0000
       N       E                     dE             d eps       ncg     rms          rms(c)
DAV:   1    -0.232780193860E+04    0.27509E-03   -0.15042E-01  4504   0.369E-01    0.123E-01
RMM:   2    -0.232780300197E+04   -0.10634E-02   -0.11271E-02  6161   0.726E-02    0.944E-02
RMM:   3    -0.232780305467E+04   -0.52698E-04   -0.12880E-03  4259   0.293E-02    0.905E-02
RMM:   4    -0.232780296268E+04    0.91992E-04   -0.15807E-04  3055   0.876E-03    0.444E-02
RMM:   5    -0.232780295541E+04    0.72744E-05   -0.79449E-05  2979   0.662E-03
 124 F= -.23492181E+04 E0= -.23492181E+04  d E =-.807091E-03  mag=     5.0000
       N       E                     dE             d eps       ncg     rms          rms(c)
DAV:   1    -0.232780223658E+04    0.72610E-03   -0.11664E-01  4504   0.325E-01    0.106E-01
RMM:   2    -0.232780302846E+04   -0.79188E-03   -0.87108E-03  6219   0.644E-02    0.653E-02
RMM:   3    -0.232780307284E+04   -0.44381E-04   -0.93173E-04  3952   0.256E-02    0.580E-02
RMM:   4    -0.232780303031E+04    0.42531E-04   -0.10986E-04  2990   0.782E-03    0.328E-02
RMM:   5    -0.232780303283E+04   -0.25192E-05   -0.62279E-05  3026   0.612E-03
 125 F= -.23492182E+04 E0= -.23492182E+04  d E =-.935000E-03  mag=     5.0000
       N       E                     dE             d eps       ncg     rms          rms(c)
DAV:   1    -0.232780270201E+04    0.32830E-03   -0.15356E-01  4504   0.369E-01    0.112E-01
RMM:   2    -0.232780371578E+04   -0.10138E-02   -0.10976E-02  6295   0.716E-02    0.731E-02
RMM:   3    -0.232780376281E+04   -0.47033E-04   -0.11391E-03  4073   0.267E-02    0.587E-02
RMM:   4    -0.232780372017E+04    0.42637E-04   -0.12977E-04  3019   0.802E-03    0.336E-02
RMM:   5    -0.232780371394E+04    0.62291E-05   -0.61736E-05  3062   0.626E-03
 126 F= -.23492189E+04 E0= -.23492189E+04  d E =-.683399E-03  mag=     5.0000
       N       E                     dE             d eps       ncg     rms          rms(c)
DAV:   1    -0.232780228614E+04    0.14340E-02   -0.25351E-01  4504   0.474E-01    0.145E-01
RMM:   2    -0.232780395624E+04   -0.16701E-02   -0.18070E-02  6260   0.909E-02    0.939E-02
RMM:   3    -0.232780402967E+04   -0.73427E-04   -0.18692E-03  4705   0.349E-02    0.754E-02
RMM:   4    -0.232780396376E+04    0.65914E-04   -0.22904E-04  3229   0.961E-03    0.487E-02
RMM:   5    -0.232780396820E+04   -0.44391E-05   -0.98625E-05  3042   0.721E-03
 127 F= -.23492192E+04 E0= -.23492192E+04  d E =-.940546E-03  mag=     5.0000
       N       E                     dE             d eps       ncg     rms          rms(c)
DAV:   1    -0.232780371874E+04    0.24502E-03   -0.18344E-01  4516   0.416E-01    0.131E-01
RMM:   2    -0.232780482045E+04   -0.11017E-02   -0.11754E-02  6154   0.777E-02    0.933E-02
RMM:   3    -0.232780488675E+04   -0.66297E-04   -0.13296E-03  4470   0.308E-02    0.932E-02
RMM:   4    -0.232780478469E+04    0.10206E-03   -0.16636E-04  3110   0.908E-03    0.467E-02
RMM:   5    -0.232780477773E+04    0.69662E-05   -0.80926E-05  2965   0.680E-03
 128 F= -.23492200E+04 E0= -.23492200E+04  d E =-.864777E-03  mag=     5.0000
       N       E                     dE             d eps       ncg     rms          rms(c)
DAV:   1    -0.232780362610E+04    0.11586E-02   -0.22883E-01  4504   0.464E-01    0.143E-01
RMM:   2    -0.232780495792E+04   -0.13318E-02   -0.14577E-02  6135   0.858E-02    0.869E-02
RMM:   3    -0.232780502900E+04   -0.71078E-04   -0.15329E-03  4667   0.344E-02    0.789E-02
RMM:   4    -0.232780494304E+04    0.85958E-04   -0.18397E-04  3292   0.957E-03    0.428E-02
RMM:   5    -0.232780495074E+04   -0.77052E-05   -0.10320E-04  3099   0.772E-03    0.480E-02
RMM:   6    -0.232780492171E+04    0.29032E-04   -0.49887E-05  2941   0.635E-03    0.155E-02
RMM:   7    -0.232780491917E+04    0.25430E-05   -0.10442E-05  2917   0.397E-03
 129 F= -.23492202E+04 E0= -.23492202E+04  d E =-.106808E-02  mag=     5.0000
       N       E                     dE             d eps       ncg     rms          rms(c)
DAV:   1    -0.232780436939E+04    0.55232E-03   -0.17756E-01  4548   0.412E-01    0.129E-01
RMM:   2    -0.232780554382E+04   -0.11744E-02   -0.12748E-02  6073   0.780E-02    0.784E-02
RMM:   3    -0.232780558150E+04   -0.37676E-04   -0.12227E-03  4327   0.298E-02    0.655E-02
RMM:   4    -0.232780552032E+04    0.61186E-04   -0.15236E-04  3172   0.865E-03    0.378E-02
RMM:   5    -0.232780551373E+04    0.65891E-05   -0.68939E-05  3030   0.673E-03
 130 F= -.23492210E+04 E0= -.23492210E+04  d E =-.745183E-03  mag=     5.0000
       N       E                     dE             d eps       ncg     rms          rms(c)
DAV:   1    -0.232780476966E+04    0.75065E-03   -0.11188E-01  4560   0.327E-01    0.104E-01
RMM:   2    -0.232780552491E+04   -0.75525E-03   -0.81041E-03  6211   0.637E-02    0.746E-02
RMM:   3    -0.232780554282E+04   -0.17906E-04   -0.88047E-04  3834   0.247E-02    0.627E-02
RMM:   4    -0.232780549601E+04    0.46815E-04   -0.10505E-04  2980   0.768E-03    0.334E-02
RMM:   5    -0.232780549820E+04   -0.21964E-05   -0.50605E-05  2953   0.552E-03
 131 F= -.23492211E+04 E0= -.23492211E+04  d E =-.849866E-03  mag=     5.0000
       N       E                     dE             d eps       ncg     rms          rms(c)
DAV:   1    -0.232780465973E+04    0.83627E-03   -0.20671E-01  4504   0.446E-01    0.142E-01
RMM:   2    -0.232780611583E+04   -0.14561E-02   -0.15817E-02  6148   0.863E-02    0.913E-02
RMM:   3    -0.232780618356E+04   -0.67731E-04   -0.16739E-03  4636   0.340E-02    0.817E-02
RMM:   4    -0.232780610581E+04    0.77758E-04   -0.19650E-04  3252   0.950E-03    0.485E-02
RMM:   5    -0.232780610618E+04   -0.37345E-06   -0.93020E-05  3007   0.733E-03
 132 F= -.23492219E+04 E0= -.23492219E+04  d E =-.771682E-03  mag=     5.0000
       N       E                     dE             d eps       ncg     rms          rms(c)
DAV:   1    -0.232780558332E+04    0.52248E-03   -0.65894E-02  4640   0.252E-01    0.812E-02
RMM:   2    -0.232780605294E+04   -0.46962E-03   -0.51101E-03  6200   0.499E-02    0.550E-02
RMM:   3    -0.232780607540E+04   -0.22458E-04   -0.60054E-04  3561   0.201E-02    0.491E-02
RMM:   4    -0.232780604696E+04    0.28436E-04   -0.67558E-05  2934   0.639E-03    0.268E-02
RMM:   5    -0.232780604931E+04   -0.23518E-05   -0.33946E-05  2950   0.438E-03
 133 F= -.23492219E+04 E0= -.23492219E+04  d E =-.807764E-03  mag=     5.0000
       N       E                     dE             d eps       ncg     rms          rms(c)
DAV:   1    -0.232780518964E+04    0.85732E-03   -0.23931E-01  4504   0.479E-01    0.154E-01
RMM:   2    -0.232780675764E+04   -0.15680E-02   -0.17073E-02  6069   0.911E-02    0.947E-02
RMM:   3    -0.232780681360E+04   -0.55963E-04   -0.17740E-03  4769   0.359E-02    0.816E-02
RMM:   4    -0.232780672713E+04    0.86469E-04   -0.21287E-04  3463   0.984E-03    0.490E-02
RMM:   5    -0.232780673082E+04   -0.36937E-05   -0.10418E-04  3059   0.785E-03    0.523E-02
RMM:   6    -0.232780669674E+04    0.34088E-04   -0.64940E-05  3016   0.683E-03    0.151E-02
RMM:   7    -0.232780669388E+04    0.28536E-05   -0.12620E-05  2916   0.479E-03
 134 F= -.23492226E+04 E0= -.23492226E+04  d E =-.716725E-03  mag=     5.0000
       N       E                     dE             d eps       ncg     rms          rms(c)
DAV:   1    -0.232780559736E+04    0.10994E-02   -0.14346E-01  4516   0.370E-01    0.119E-01
RMM:   2    -0.232780654213E+04   -0.94477E-03   -0.10283E-02  6045   0.701E-02    0.716E-02
RMM:   3    -0.232780656767E+04   -0.25533E-04   -0.10010E-03  4121   0.270E-02    0.595E-02
RMM:   4    -0.232780651980E+04    0.47867E-04   -0.12583E-04  3081   0.817E-03    0.371E-02
RMM:   5    -0.232780651964E+04    0.16356E-06   -0.64597E-05  2973   0.630E-03
 135 F= -.23492225E+04 E0= -.23492225E+04  d E =-.597869E-03  mag=     5.0000
       N       E                     dE             d eps       ncg     rms          rms(c)
DAV:   1    -0.232780633710E+04    0.18269E-03   -0.56690E-02  4528   0.233E-01    0.744E-02
RMM:   2    -0.232780671141E+04   -0.37430E-03   -0.40088E-03  6131   0.454E-02    0.497E-02
RMM:   3    -0.232780673562E+04   -0.24209E-04   -0.42617E-04  3398   0.168E-02    0.550E-02
RMM:   4    -0.232780669909E+04    0.36525E-04   -0.52682E-05  2936   0.558E-03    0.237E-02
RMM:   5    -0.232780669404E+04    0.50498E-05   -0.20494E-05  2954   0.372E-03
 136 F= -.23492226E+04 E0= -.23492226E+04  d E =-.737875E-03  mag=     5.0000
       N       E                     dE             d eps       ncg     rms          rms(c)
DAV:   1    -0.232780575594E+04    0.94316E-03   -0.25311E-01  4504   0.489E-01    0.159E-01
RMM:   2    -0.232780740380E+04   -0.16479E-02   -0.17866E-02  6109   0.935E-02    0.991E-02
RMM:   3    -0.232780747211E+04   -0.68313E-04   -0.17034E-03  4932   0.353E-02    0.969E-02
RMM:   4    -0.232780736638E+04    0.10573E-03   -0.23889E-04  3405   0.102E-02    0.579E-02
RMM:   5    -0.232780734426E+04    0.22120E-04   -0.10582E-04  3103   0.811E-03    0.417E-02
RMM:   6    -0.232780732311E+04    0.21148E-04   -0.72490E-05  3108   0.730E-03    0.177E-02
RMM:   7    -0.232780731884E+04    0.42752E-05   -0.14893E-05  2918   0.505E-03
 137 F= -.23492234E+04 E0= -.23492234E+04  d E =-.715718E-03  mag=     5.0000
       N       E                     dE             d eps       ncg     rms          rms(c)
DAV:   1    -0.232780723503E+04    0.88087E-04   -0.10976E-02  4952   0.102E-01    0.338E-02
RMM:   2    -0.232780730946E+04   -0.74429E-04   -0.79313E-04  5726   0.206E-02    0.228E-02
RMM:   3    -0.232780731259E+04   -0.31305E-05   -0.80189E-05  2932   0.870E-03
 138 F= -.23492234E+04 E0= -.23492234E+04  d E =-.728480E-03  mag=     5.0000
       N       E                     dE             d eps       ncg     rms          rms(c)
DAV:   1    -0.232780669647E+04    0.61299E-03   -0.17500E-01  4504   0.413E-01    0.140E-01
RMM:   2    -0.232780794265E+04   -0.12462E-02   -0.13394E-02  6057   0.803E-02    0.930E-02
RMM:   3    -0.232780797733E+04   -0.34683E-04   -0.12777E-03  4436   0.294E-02    0.863E-02
RMM:   4    -0.232780789055E+04    0.86778E-04   -0.18515E-04  3290   0.916E-03    0.499E-02
RMM:   5    -0.232780787907E+04    0.11483E-04   -0.90095E-05  2991   0.718E-03    0.405E-02
RMM:   6    -0.232780785686E+04    0.22205E-04   -0.54513E-05  3026   0.649E-03    0.143E-02
RMM:   7    -0.232780785467E+04    0.21977E-05   -0.13003E-05  2917   0.472E-03
 139 F= -.23492240E+04 E0= -.23492240E+04  d E =-.644845E-03  mag=     5.0000
       N       E                     dE             d eps       ncg     rms          rms(c)
DAV:   1    -0.232780727754E+04    0.57932E-03   -0.70109E-02  4528   0.262E-01    0.877E-02
RMM:   2    -0.232780778518E+04   -0.50764E-03   -0.53528E-03  6080   0.512E-02    0.650E-02
RMM:   3    -0.232780780281E+04   -0.17629E-04   -0.53997E-04  3586   0.195E-02    0.630E-02
RMM:   4    -0.232780775741E+04    0.45401E-04   -0.77271E-05  2949   0.666E-03    0.286E-02
RMM:   5    -0.232780775289E+04    0.45202E-05   -0.35611E-05  2946   0.472E-03
 140 F= -.23492240E+04 E0= -.23492240E+04  d E =-.608122E-03  mag=     5.0000
       N       E                     dE             d eps       ncg     rms          rms(c)
DAV:   1    -0.232780772650E+04    0.30906E-04   -0.17828E-02  4720   0.132E-01    0.447E-02
RMM:   2    -0.232780786277E+04   -0.13627E-03   -0.13649E-03  6125   0.274E-02    0.387E-02
RMM:   3    -0.232780786144E+04    0.13350E-05   -0.14462E-04  2965   0.971E-03    0.334E-02
RMM:   4    -0.232780784643E+04    0.15011E-04   -0.18757E-05  2914   0.364E-03    0.126E-02
RMM:   5    -0.232780784521E+04    0.12171E-05   -0.70399E-06  2876   0.238E-03
 141 F= -.23492240E+04 E0= -.23492240E+04  d E =-.668202E-03  mag=     5.0000
       N       E                     dE             d eps       ncg     rms          rms(c)
DAV:   1    -0.232780746349E+04    0.38294E-03   -0.12997E-01  4504   0.345E-01    0.112E-01
RMM:   2    -0.232780843684E+04   -0.97336E-03   -0.10076E-02  6194   0.674E-02    0.923E-02
RMM:   3    -0.232780845503E+04   -0.18192E-04   -0.98295E-04  3983   0.242E-02    0.818E-02
RMM:   4    -0.232780837859E+04    0.76449E-04   -0.13046E-04  3001   0.795E-03    0.376E-02
RMM:   5    -0.232780837068E+04    0.79031E-05   -0.59529E-05  2993   0.575E-03
 142 F= -.23492246E+04 E0= -.23492246E+04  d E =-.590875E-03  mag=     5.0000
       N       E                     dE             d eps       ncg     rms          rms(c)
DAV:   1    -0.232780728994E+04    0.10886E-02   -0.15809E-01  4504   0.382E-01    0.125E-01
RMM:   2    -0.232780846026E+04   -0.11703E-02   -0.12180E-02  6283   0.754E-02    0.101E-01
RMM:   3    -0.232780848463E+04   -0.24373E-04   -0.13014E-03  4254   0.284E-02    0.855E-02
RMM:   4    -0.232780840361E+04    0.81023E-04   -0.15583E-04  3094   0.883E-03    0.436E-02
RMM:   5    -0.232780840002E+04    0.35895E-05   -0.84601E-05  2984   0.677E-03
 143 F= -.23492247E+04 E0= -.23492247E+04  d E =-.692951E-03  mag=     5.0000
       N       E                     dE             d eps       ncg     rms          rms(c)
DAV:   1    -0.232780822890E+04    0.17471E-03   -0.10143E-01  4516   0.298E-01    0.935E-02
RMM:   2    -0.232780888392E+04   -0.65503E-03   -0.69600E-03  6307   0.578E-02    0.691E-02
RMM:   3    -0.232780891128E+04   -0.27361E-04   -0.73488E-04  3636   0.214E-02    0.617E-02
RMM:   4    -0.232780886949E+04    0.41792E-04   -0.88082E-05  2990   0.711E-03    0.321E-02
RMM:   5    -0.232780887245E+04   -0.29618E-05   -0.51039E-05  2934   0.531E-03
 144 F= -.23492253E+04 E0= -.23492253E+04  d E =-.540431E-03  mag=     5.0000
       N       E                     dE             d eps       ncg     rms          rms(c)
DAV:   1    -0.232780713723E+04    0.17323E-02   -0.30327E-01  4504   0.513E-01    0.161E-01
RMM:   2    -0.232780912697E+04   -0.19897E-02   -0.20953E-02  6202   0.980E-02    0.122E-01
RMM:   3    -0.232780918588E+04   -0.58909E-04   -0.20308E-03  4891   0.364E-02    0.109E-01
RMM:   4    -0.232780905352E+04    0.13236E-03   -0.26838E-04  3452   0.105E-02    0.586E-02
RMM:   5    -0.232780904675E+04    0.67708E-05   -0.13958E-04  3078   0.834E-03    0.506E-02
RMM:   6    -0.232780901193E+04    0.34819E-04   -0.78857E-05  3240   0.724E-03    0.157E-02
RMM:   7    -0.232780900974E+04    0.21895E-05   -0.16304E-05  2938   0.499E-03
 145 F= -.23492255E+04 E0= -.23492255E+04  d E =-.795422E-03  mag=     5.0000
       N       E                     dE             d eps       ncg     rms          rms(c)
DAV:   1    -0.232780882334E+04    0.18858E-03   -0.13544E-01  4516   0.341E-01    0.112E-01
RMM:   2    -0.232780966957E+04   -0.84622E-03   -0.90989E-03  6114   0.647E-02    0.727E-02
RMM:   3    -0.232780970750E+04   -0.37939E-04   -0.84261E-04  3966   0.242E-02    0.704E-02
RMM:   4    -0.232780965262E+04    0.54886E-04   -0.12410E-04  3038   0.780E-03    0.403E-02
RMM:   5    -0.232780964989E+04    0.27311E-05   -0.59975E-05  2958   0.572E-03
 146 F= -.23492263E+04 E0= -.23492263E+04  d E =-.744786E-03  mag=     5.0000
       N       E                     dE             d eps       ncg     rms          rms(c)
DAV:   1    -0.232780793674E+04    0.17159E-02   -0.30705E-01  4504   0.513E-01    0.169E-01
RMM:   2    -0.232780984566E+04   -0.19089E-02   -0.20488E-02  6154   0.981E-02    0.112E-01
RMM:   3    -0.232780992996E+04   -0.84300E-04   -0.20725E-03  4933   0.381E-02    0.102E-01
RMM:   4    -0.232780979731E+04    0.13266E-03   -0.27049E-04  3645   0.108E-02    0.574E-02
RMM:   5    -0.232780980580E+04   -0.84946E-05   -0.14416E-04  3055   0.864E-03    0.574E-02
RMM:   6    -0.232780976044E+04    0.45366E-04   -0.74235E-05  3106   0.703E-03    0.145E-02
RMM:   7    -0.232780975818E+04    0.22532E-05   -0.14134E-05  2936   0.484E-03
 147 F= -.23492265E+04 E0= -.23492265E+04  d E =-.101140E-02  mag=     5.0000
       N       E                     dE             d eps       ncg     rms          rms(c)
DAV:   1    -0.232780901272E+04    0.74771E-03   -0.21884E-01  4504   0.423E-01    0.138E-01
RMM:   2    -0.232781050946E+04   -0.14967E-02   -0.16167E-02  6097   0.815E-02    0.882E-02
RMM:   3    -0.232781057298E+04   -0.63520E-04   -0.15475E-03  4362   0.304E-02    0.770E-02
RMM:   4    -0.232781050116E+04    0.71816E-04   -0.19755E-04  3202   0.910E-03    0.490E-02
RMM:   5    -0.232781050214E+04   -0.98569E-06   -0.10170E-04  3012   0.705E-03    0.460E-02
RMM:   6    -0.232781047564E+04    0.26501E-04   -0.54852E-05  2983   0.614E-03    0.166E-02
RMM:   7    -0.232781047359E+04    0.20580E-05   -0.13260E-05  2924   0.423E-03
 148 F= -.23492273E+04 E0= -.23492273E+04  d E =-.809268E-03  mag=     5.0000
       N       E                     dE             d eps       ncg     rms          rms(c)
DAV:   1    -0.232780956116E+04    0.91448E-03   -0.15056E-01  4504   0.351E-01    0.115E-01
RMM:   2    -0.232781059090E+04   -0.10297E-02   -0.11142E-02  6100   0.681E-02    0.719E-02
RMM:   3    -0.232781063540E+04   -0.44499E-04   -0.10749E-03  3956   0.263E-02    0.618E-02
RMM:   4    -0.232781058898E+04    0.46419E-04   -0.13538E-04  3045   0.797E-03    0.391E-02
RMM:   5    -0.232781058743E+04    0.15555E-05   -0.68613E-05  2977   0.594E-03
 149 F= -.23492275E+04 E0= -.23492275E+04  d E =-.100114E-02  mag=     5.0000
       N       E                     dE             d eps       ncg     rms          rms(c)
DAV:   1    -0.232781009443E+04    0.49456E-03   -0.21503E-01  4536   0.434E-01    0.152E-01
RMM:   2    -0.232781148619E+04   -0.13918E-02   -0.15253E-02  6105   0.846E-02    0.889E-02
RMM:   3    -0.232781157329E+04   -0.87097E-04   -0.16960E-03  4817   0.352E-02    0.887E-02
RMM:   4    -0.232781147122E+04    0.10207E-03   -0.21539E-04  3315   0.967E-03    0.445E-02
RMM:   5    -0.232781148139E+04   -0.10176E-04   -0.96141E-05  3066   0.735E-03    0.554E-02
RMM:   6    -0.232781144690E+04    0.34497E-04   -0.66246E-05  3007   0.673E-03    0.136E-02
RMM:   7    -0.232781144608E+04    0.81812E-06   -0.13651E-05  2922   0.454E-03
 150 F= -.23492284E+04 E0= -.23492284E+04  d E =-.876742E-03  mag=     5.0000
