       N       E                     dE             d eps       ncg     rms          rms(c)
DAV:   1     0.127104835291E+05    0.12710E+05   -0.84699E+05  4640   0.143E+03
DAV:   2    -0.122219726053E+04   -0.13933E+05   -0.13362E+05  5120   0.325E+02
DAV:   3    -0.249790474190E+04   -0.12757E+04   -0.12649E+04  5440   0.107E+02
DAV:   4    -0.252874226524E+04   -0.30838E+02   -0.30641E+02  5600   0.212E+01
DAV:   5    -0.252982943112E+04   -0.10872E+01   -0.10852E+01  5840   0.324E+00    0.170E+02
RMM:   6    -0.150052706628E+04    0.10293E+04   -0.19290E+03  4515   0.378E+01    0.731E+01
RMM:   7    -0.168439064308E+04   -0.18386E+03   -0.29476E+02  5170   0.146E+01    0.598E+01
RMM:   8    -0.171395457483E+04   -0.29564E+02   -0.92172E+01  5439   0.835E+00    0.463E+01
RMM:   9    -0.177441712340E+04   -0.60463E+02   -0.56548E+01  5113   0.726E+00    0.360E+01
RMM:  10    -0.189965619925E+04   -0.12524E+03   -0.62334E+01  5425   0.782E+00    0.341E+01
RMM:  11    -0.196925493340E+04   -0.69599E+02   -0.34151E+01  5485   0.519E+00    0.229E+01
RMM:  12    -0.205546869312E+04   -0.86214E+02   -0.35659E+01  4886   0.488E+00    0.190E+01
RMM:  13    -0.210849790417E+04   -0.53029E+02   -0.20759E+01  5239   0.363E+00    0.147E+01
RMM:  14    -0.220741857309E+04   -0.98921E+02   -0.64537E+01  4530   0.582E+00    0.102E+01
RMM:  15    -0.229477946135E+04   -0.87361E+02   -0.83718E+01  4531   0.631E+00    0.691E+00
RMM:  16    -0.231059823514E+04   -0.15819E+02   -0.17844E+01  4617   0.386E+00    0.550E+00
RMM:  17    -0.231780901621E+04   -0.72108E+01   -0.83406E+00  4639   0.175E+00    0.400E+00
RMM:  18    -0.232111073783E+04   -0.33017E+01   -0.26475E+00  4877   0.138E+00    0.251E+00
RMM:  19    -0.232232132306E+04   -0.12106E+01   -0.10022E+00  5019   0.577E-01    0.104E+00
RMM:  20    -0.232281135074E+04   -0.49003E+00   -0.36738E-01  4925   0.423E-01    0.907E-01
RMM:  21    -0.232292506856E+04   -0.11372E+00   -0.88690E-02  4927   0.197E-01    0.395E-01
RMM:  22    -0.232295758898E+04   -0.32520E-01   -0.19398E-02  4811   0.121E-01    0.249E-01
RMM:  23    -0.232297812000E+04   -0.20531E-01   -0.81066E-03  4608   0.690E-02    0.158E-01
RMM:  24    -0.232299226723E+04   -0.14147E-01   -0.40602E-03  4548   0.541E-02    0.829E-02
RMM:  25    -0.232300315396E+04   -0.10887E-01   -0.33174E-03  4526   0.427E-02    0.552E-02
RMM:  26    -0.232300892995E+04   -0.57760E-02   -0.15454E-03  4641   0.348E-02    0.413E-02
RMM:  27    -0.232301328277E+04   -0.43528E-02   -0.14982E-03  4540   0.258E-02    0.268E-02
RMM:  28    -0.232301475656E+04   -0.14738E-02   -0.48275E-04  4128   0.221E-02    0.149E-02
RMM:  29    -0.232301535467E+04   -0.59811E-03   -0.23483E-04  3974   0.103E-02    0.846E-03
RMM:  30    -0.232301554624E+04   -0.19157E-03   -0.57767E-05  3627   0.966E-03    0.494E-03
RMM:  31    -0.232301563636E+04   -0.90125E-04   -0.26043E-05  3216   0.381E-03    0.246E-03
RMM:  32    -0.232301568501E+04   -0.48641E-04   -0.10262E-05  2914   0.365E-03    0.166E-03
RMM:  33    -0.232301570297E+04   -0.17968E-04   -0.64676E-06  2853   0.255E-03    0.103E-03
RMM:  34    -0.232301570664E+04   -0.36663E-05   -0.26989E-06  2454   0.206E-03
   1 F= -.23443791E+04 E0= -.23443790E+04  d E =-.852925E-04  mag=     3.9993
       N       E                     dE             d eps       ncg     rms          rms(c)
DAV:   1    -0.232294346589E+04    0.72237E-01   -0.18025E+00  4480   0.526E-01    0.235E-01
RMM:   2    -0.232294390548E+04   -0.43960E-03   -0.75287E-03  4355   0.344E-02    0.235E-01
RMM:   3    -0.232294376276E+04    0.14273E-03   -0.17495E-03  4449   0.197E-02    0.231E-01
RMM:   4    -0.232294322117E+04    0.54159E-03   -0.64429E-04  3732   0.107E-02    0.946E-02
RMM:   5    -0.232294318584E+04    0.35333E-04   -0.30194E-04  3200   0.895E-03    0.698E-02
RMM:   6    -0.232294313432E+04    0.51516E-04   -0.70632E-05  2977   0.521E-03    0.147E-02
RMM:   7    -0.232294313516E+04   -0.83141E-06   -0.12577E-05  2703   0.254E-03
   2 F= -.23443071E+04 E0= -.23443070E+04  d E =-.980986E-04  mag=     3.9992
       N       E                     dE             d eps       ncg     rms          rms(c)
DAV:   1    -0.232308803494E+04   -0.14490E+00   -0.72274E+00  4480   0.105E+00    0.468E-01
RMM:   2    -0.232308922856E+04   -0.11936E-02   -0.26780E-02  4521   0.661E-02    0.459E-01
RMM:   3    -0.232308875978E+04    0.46878E-03   -0.61854E-03  5173   0.383E-02    0.461E-01
RMM:   4    -0.232308656178E+04    0.21980E-02   -0.24554E-03  4814   0.201E-02    0.182E-01
RMM:   5    -0.232308648804E+04    0.73740E-04   -0.11889E-03  4317   0.162E-02    0.148E-01
RMM:   6    -0.232308623595E+04    0.25209E-03   -0.29956E-04  3504   0.888E-03    0.297E-02
RMM:   7    -0.232308623512E+04    0.83171E-06   -0.43489E-05  2998   0.415E-03
   3 F= -.23444490E+04 E0= -.23444490E+04  d E =-.745277E-04  mag=     3.9994
       N       E                     dE             d eps       ncg     rms          rms(c)
DAV:   1    -0.232304473112E+04    0.41505E-01   -0.34695E+00  4480   0.724E-01    0.322E-01
RMM:   2    -0.232304580942E+04   -0.10783E-02   -0.11448E-02  4458   0.432E-02    0.338E-01
RMM:   3    -0.232304503970E+04    0.76972E-03   -0.29435E-03  5004   0.241E-02    0.260E-01
RMM:   4    -0.232304467271E+04    0.36699E-03   -0.13002E-03  4660   0.146E-02    0.217E-01
RMM:   5    -0.232304427147E+04    0.40124E-03   -0.60919E-04  3605   0.105E-02    0.718E-02
RMM:   6    -0.232304424017E+04    0.31301E-04   -0.70737E-05  2946   0.557E-03    0.231E-02
RMM:   7    -0.232304424759E+04   -0.74191E-05   -0.17306E-05  2790   0.297E-03
   4 F= -.23444074E+04 E0= -.23444073E+04  d E =-.864036E-04  mag=     3.9993
       N       E                     dE             d eps       ncg     rms          rms(c)
DAV:   1    -0.232298037859E+04    0.63862E-01   -0.69833E+00  4480   0.101E+00    0.451E-01
RMM:   2    -0.232298163504E+04   -0.12564E-02   -0.28019E-02  4627   0.660E-02    0.425E-01
RMM:   3    -0.232297997689E+04    0.16581E-02   -0.62386E-03  5299   0.391E-02    0.321E-01
RMM:   4    -0.232297902715E+04    0.94974E-03   -0.22781E-03  5153   0.209E-02    0.228E-01
RMM:   5    -0.232297885749E+04    0.16966E-03   -0.10655E-03  4025   0.128E-02    0.190E-01
RMM:   6    -0.232297853611E+04    0.32138E-03   -0.32854E-04  3343   0.919E-03    0.319E-02
RMM:   7    -0.232297853524E+04    0.87071E-06   -0.44100E-05  2987   0.393E-03
   5 F= -.23443422E+04 E0= -.23443421E+04  d E =-.851031E-04  mag=     3.9993
       N       E                     dE             d eps       ncg     rms          rms(c)
DAV:   1    -0.232296010356E+04    0.18433E-01   -0.38236E+00  4480   0.770E-01    0.331E-01
RMM:   2    -0.232296087885E+04   -0.77529E-03   -0.19109E-02  4143   0.559E-02    0.292E-01
RMM:   3    -0.232296054052E+04    0.33833E-03   -0.30382E-03  4795   0.296E-02    0.290E-01
RMM:   4    -0.232295988268E+04    0.65783E-03   -0.14879E-03  4834   0.161E-02    0.189E-01
RMM:   5    -0.232295960376E+04    0.27893E-03   -0.61708E-04  3671   0.110E-02    0.935E-02
RMM:   6    -0.232295952010E+04    0.83654E-04   -0.90527E-05  3000   0.633E-03    0.218E-02
RMM:   7    -0.232295951863E+04    0.14749E-05   -0.18930E-05  2811   0.310E-03
   6 F= -.23443232E+04 E0= -.23443232E+04  d E =-.814316E-04  mag=     3.9994
       N       E                     dE             d eps       ncg     rms          rms(c)
DAV:   1    -0.232305489613E+04   -0.95376E-01   -0.76156E+00  4480   0.120E+00    0.543E-01
RMM:   2    -0.232305615370E+04   -0.12576E-02   -0.45647E-02  4546   0.900E-02    0.421E-01
RMM:   3    -0.232305698768E+04   -0.83398E-03   -0.89518E-03  5328   0.491E-02    0.599E-01
RMM:   4    -0.232305418336E+04    0.28043E-02   -0.42208E-03  5492   0.258E-02    0.216E-01
RMM:   5    -0.232305407453E+04    0.10884E-03   -0.14329E-03  4948   0.167E-02    0.179E-01
RMM:   6    -0.232305363107E+04    0.44345E-03   -0.50122E-04  3777   0.109E-02    0.423E-02
RMM:   7    -0.232305360965E+04    0.21427E-04   -0.65019E-05  3081   0.463E-03    0.251E-02
RMM:   8    -0.232305361299E+04   -0.33422E-05   -0.33705E-05  2836   0.346E-03
   7 F= -.23444167E+04 E0= -.23444166E+04  d E =-.860635E-04  mag=     3.9993
       N       E                     dE             d eps       ncg     rms          rms(c)
DAV:   1    -0.232303684364E+04    0.16766E-01   -0.37964E+00  4640   0.102E+00    0.415E-01
RMM:   2    -0.232303736192E+04   -0.51827E-03   -0.25390E-02  4284   0.690E-02    0.318E-01
RMM:   3    -0.232303712361E+04    0.23831E-03   -0.55084E-03  5730   0.348E-02    0.361E-01
RMM:   4    -0.232303555529E+04    0.15683E-02   -0.27072E-03  4911   0.233E-02    0.128E-01
RMM:   5    -0.232303551173E+04    0.43567E-04   -0.56877E-04  3484   0.121E-02    0.116E-01
RMM:   6    -0.232303538310E+04    0.12863E-03   -0.99923E-05  2972   0.551E-03    0.216E-02
RMM:   7    -0.232303537781E+04    0.52921E-05   -0.28772E-05  2878   0.314E-03
   8 F= -.23443982E+04 E0= -.23443982E+04  d E =-.839969E-04  mag=     3.9993
       N       E                     dE             d eps       ncg     rms          rms(c)
DAV:   1    -0.232297005674E+04    0.65326E-01   -0.84399E+00  4480   0.157E+00    0.686E-01
RMM:   2    -0.232296700942E+04    0.30473E-02   -0.40657E-02  4391   0.101E-01    0.544E-01
RMM:   3    -0.232296836249E+04   -0.13531E-02   -0.14027E-02  5876   0.602E-02    0.699E-01
RMM:   4    -0.232296372284E+04    0.46396E-02   -0.90290E-03  5201   0.395E-02    0.425E-01
RMM:   5    -0.232296207504E+04    0.16478E-02   -0.28835E-03  4444   0.299E-02    0.117E-01
RMM:   6    -0.232296194391E+04    0.13113E-03   -0.33260E-04  3733   0.818E-03    0.347E-02
RMM:   7    -0.232296191683E+04    0.27079E-04   -0.68061E-05  3148   0.471E-03    0.200E-02
RMM:   8    -0.232296192389E+04   -0.70629E-05   -0.34913E-05  2915   0.396E-03
   9 F= -.23443259E+04 E0= -.23443258E+04  d E =-.799916E-04  mag=     3.9993
       N       E                     dE             d eps       ncg     rms          rms(c)
DAV:   1    -0.232297690459E+04   -0.14988E-01   -0.42658E+00  4480   0.112E+00    0.448E-01
RMM:   2    -0.232297595294E+04    0.95164E-03   -0.16358E-02  4251   0.620E-02    0.381E-01
RMM:   3    -0.232297650352E+04   -0.55057E-03   -0.56120E-03  5902   0.341E-02    0.470E-01
RMM:   4    -0.232297446366E+04    0.20399E-02   -0.40160E-03  4629   0.249E-02    0.244E-01
RMM:   5    -0.232297387756E+04    0.58610E-03   -0.10794E-03  3762   0.187E-02    0.685E-02
RMM:   6    -0.232297382423E+04    0.53335E-04   -0.10423E-04  3183   0.526E-03    0.216E-02
RMM:   7    -0.232297381444E+04    0.97885E-05   -0.27896E-05  2878   0.317E-03
  10 F= -.23443372E+04 E0= -.23443371E+04  d E =-.943128E-04  mag=     3.9993
       N       E                     dE             d eps       ncg     rms          rms(c)
DAV:   1    -0.232304613431E+04   -0.72310E-01   -0.82378E+00  4480   0.133E+00    0.521E-01
RMM:   2    -0.232304401450E+04    0.21198E-02   -0.24923E-02  4099   0.712E-02    0.346E-01
RMM:   3    -0.232304707706E+04   -0.30626E-02   -0.81040E-03  5645   0.408E-02    0.693E-01
RMM:   4    -0.232304221949E+04    0.48576E-02   -0.47840E-03  5426   0.281E-02    0.923E-02
RMM:   5    -0.232304220388E+04    0.15604E-04   -0.43804E-04  3398   0.112E-02    0.588E-02
RMM:   6    -0.232304218887E+04    0.15012E-04   -0.11770E-04  3056   0.559E-03    0.416E-02
RMM:   7    -0.232304217016E+04    0.18709E-04   -0.38357E-05  2928   0.407E-03    0.157E-02
RMM:   8    -0.232304216992E+04    0.24548E-06   -0.89849E-06  2769   0.246E-03
  11 F= -.23444056E+04 E0= -.23444055E+04  d E =-.730783E-04  mag=     3.9994
       N       E                     dE             d eps       ncg     rms          rms(c)
DAV:   1    -0.232303753927E+04    0.46309E-02   -0.42444E+00  4480   0.102E+00    0.380E-01
RMM:   2    -0.232303687954E+04    0.65974E-03   -0.18987E-02  4039   0.642E-02    0.296E-01
RMM:   3    -0.232303760788E+04   -0.72834E-03   -0.41549E-03  5170   0.344E-02    0.445E-01
RMM:   4    -0.232303546671E+04    0.21412E-02   -0.30082E-03  4736   0.230E-02    0.149E-01
RMM:   5    -0.232303532604E+04    0.14068E-03   -0.75410E-04  3571   0.168E-02    0.834E-02
RMM:   6    -0.232303524569E+04    0.80349E-04   -0.95385E-05  3115   0.560E-03    0.187E-02
RMM:   7    -0.232303524472E+04    0.97135E-06   -0.24638E-05  2818   0.305E-03
  12 F= -.23443983E+04 E0= -.23443983E+04  d E =-.980721E-04  mag=     3.9993
       N       E                     dE             d eps       ncg     rms          rms(c)
DAV:   1    -0.232297095054E+04    0.64295E-01   -0.80772E+00  4480   0.144E+00    0.603E-01
RMM:   2    -0.232296854868E+04    0.24019E-02   -0.42587E-02  4131   0.101E-01    0.413E-01
RMM:   3    -0.232297103308E+04   -0.24844E-02   -0.99021E-03  5525   0.543E-02    0.660E-01
RMM:   4    -0.232296605791E+04    0.49752E-02   -0.70607E-03  5554   0.355E-02    0.273E-01
RMM:   5    -0.232296566576E+04    0.39214E-03   -0.20897E-03  4174   0.208E-02    0.161E-01
RMM:   6    -0.232296540970E+04    0.25607E-03   -0.29782E-04  3433   0.858E-03    0.307E-02
RMM:   7    -0.232296540491E+04    0.47912E-05   -0.56548E-05  3045   0.422E-03
  13 F= -.23443291E+04 E0= -.23443290E+04  d E =-.746188E-04  mag=     3.9994
       N       E                     dE             d eps       ncg     rms          rms(c)
DAV:   1    -0.232301925457E+04   -0.53845E-01   -0.26568E+00  4480   0.836E-01    0.480E-01
RMM:   2    -0.232301620094E+04    0.30536E-02   -0.18960E-02  4026   0.670E-02    0.268E-01
RMM:   3    -0.232301637202E+04   -0.17109E-03   -0.37347E-03  5176   0.353E-02    0.356E-01
RMM:   4    -0.232301520707E+04    0.11650E-02   -0.22739E-03  4987   0.194E-02    0.164E-01
RMM:   5    -0.232301529435E+04   -0.87283E-04   -0.74759E-04  3711   0.126E-02    0.153E-01
RMM:   6    -0.232301498435E+04    0.31000E-03   -0.24468E-04  3104   0.803E-03    0.268E-02
RMM:   7    -0.232301497579E+04    0.85610E-05   -0.25449E-05  2770   0.298E-03
  14 F= -.23443783E+04 E0= -.23443783E+04  d E =-.838924E-04  mag=     3.9993
       N       E                     dE             d eps       ncg     rms          rms(c)
DAV:   1    -0.232300169228E+04    0.13292E-01   -0.13327E+00  4800   0.618E-01    0.601E-01
RMM:   2    -0.232299610478E+04    0.55875E-02   -0.22235E-02  4404   0.646E-02    0.311E-01
RMM:   3    -0.232299601820E+04    0.86578E-04   -0.39608E-03  4485   0.374E-02    0.277E-01
RMM:   4    -0.232299576895E+04    0.24925E-03   -0.24867E-03  5044   0.233E-02    0.233E-01
RMM:   5    -0.232299535230E+04    0.41665E-03   -0.84176E-04  4503   0.131E-02    0.174E-01
RMM:   6    -0.232299511597E+04    0.23633E-03   -0.35764E-04  3044   0.813E-03    0.691E-02
RMM:   7    -0.232299506206E+04    0.53910E-04   -0.48695E-05  2863   0.449E-03    0.134E-02
RMM:   8    -0.232299506176E+04    0.29481E-06   -0.13397E-05  2668   0.258E-03
  15 F= -.23443585E+04 E0= -.23443584E+04  d E =-.881079E-04  mag=     3.9993
       N       E                     dE             d eps       ncg     rms          rms(c)
DAV:   1    -0.232303360869E+04   -0.38547E-01   -0.66916E-01  4800   0.428E-01    0.422E-01
RMM:   2    -0.232303083902E+04    0.27697E-02   -0.10340E-02  4348   0.446E-02    0.222E-01
RMM:   3    -0.232303093508E+04   -0.96060E-04   -0.21242E-03  4394   0.266E-02    0.227E-01
RMM:   4    -0.232303074729E+04    0.18779E-03   -0.12819E-03  4550   0.167E-02    0.196E-01
RMM:   5    -0.232303045040E+04    0.29689E-03   -0.46653E-04  3641   0.966E-03    0.110E-01
RMM:   6    -0.232303035964E+04    0.90755E-04   -0.21260E-04  2907   0.716E-03    0.512E-02
RMM:   7    -0.232303032351E+04    0.36133E-04   -0.28430E-05  2737   0.374E-03    0.907E-03
RMM:   8    -0.232303032303E+04    0.48218E-06   -0.63648E-06  2508   0.195E-03
  16 F= -.23443937E+04 E0= -.23443936E+04  d E =-.915626E-04  mag=     3.9993
       N       E                     dE             d eps       ncg     rms          rms(c)
DAV:   1    -0.232299877281E+04    0.31551E-01   -0.12476E+00  4320   0.585E-01    0.402E-01
RMM:   2    -0.232299823400E+04    0.53880E-03   -0.72363E-03  4124   0.375E-02    0.241E-01
RMM:   3    -0.232299893033E+04   -0.69633E-03   -0.25025E-03  5315   0.241E-02    0.339E-01
RMM:   4    -0.232299815745E+04    0.77288E-03   -0.15583E-03  4477   0.154E-02    0.164E-01
RMM:   5    -0.232299804056E+04    0.11689E-03   -0.39403E-04  3375   0.935E-03    0.977E-02
RMM:   6    -0.232299791561E+04    0.12495E-03   -0.14913E-04  2969   0.680E-03    0.306E-02
RMM:   7    -0.232299790197E+04    0.13639E-04   -0.11652E-05  2660   0.301E-03    0.781E-03
RMM:   8    -0.232299790219E+04   -0.22125E-06   -0.62487E-06  2537   0.171E-03
  17 F= -.23443613E+04 E0= -.23443613E+04  d E =-.791602E-04  mag=     3.9994
       N       E                     dE             d eps       ncg     rms          rms(c)
DAV:   1    -0.232298503218E+04    0.12870E-01   -0.63787E-01  4480   0.415E-01    0.270E-01
RMM:   2    -0.232298503888E+04   -0.67046E-05   -0.35056E-03  3677   0.271E-02    0.166E-01
RMM:   3    -0.232298578272E+04   -0.74384E-03   -0.15198E-03  4715   0.183E-02    0.316E-01
RMM:   4    -0.232298491378E+04    0.86894E-03   -0.82524E-04  3751   0.117E-02    0.463E-02
RMM:   5    -0.232298491745E+04   -0.36735E-05   -0.14333E-04  2968   0.633E-03    0.480E-02
RMM:   6    -0.232298488266E+04    0.34790E-04   -0.32052E-05  2565   0.335E-03    0.860E-03
RMM:   7    -0.232298488252E+04    0.13912E-06   -0.69512E-06  2445   0.169E-03
  18 F= -.23443482E+04 E0= -.23443481E+04  d E =-.717426E-04  mag=     3.9994
       N       E                     dE             d eps       ncg     rms          rms(c)
DAV:   1    -0.232303763863E+04   -0.52756E-01   -0.13009E+00  4480   0.591E-01    0.477E-01
RMM:   2    -0.232303547731E+04    0.21613E-02   -0.11547E-02  4215   0.514E-02    0.267E-01
RMM:   3    -0.232303629271E+04   -0.81540E-03   -0.33526E-03  4516   0.347E-02    0.345E-01
RMM:   4    -0.232303512118E+04    0.11715E-02   -0.19958E-03  4767   0.196E-02    0.173E-01
RMM:   5    -0.232303503575E+04    0.85423E-04   -0.64738E-04  3837   0.113E-02    0.137E-01
RMM:   6    -0.232303483924E+04    0.19652E-03   -0.22640E-04  3036   0.791E-03    0.336E-02
RMM:   7    -0.232303482123E+04    0.18007E-04   -0.19501E-05  2745   0.345E-03    0.963E-03
RMM:   8    -0.232303482160E+04   -0.36451E-06   -0.68507E-06  2456   0.185E-03
  19 F= -.23443983E+04 E0= -.23443983E+04  d E =-.100344E-03  mag=     3.9993
       N       E                     dE             d eps       ncg     rms          rms(c)
DAV:   1    -0.232302991220E+04    0.49090E-02   -0.64560E-01  4720   0.441E-01    0.367E-01
RMM:   2    -0.232302780074E+04    0.21115E-02   -0.92421E-03  4380   0.433E-02    0.193E-01
RMM:   3    -0.232302834432E+04   -0.54358E-03   -0.19118E-03  3947   0.280E-02    0.285E-01
RMM:   4    -0.232302765290E+04    0.69142E-03   -0.97873E-04  4381   0.141E-02    0.133E-01
RMM:   5    -0.232302753947E+04    0.11343E-03   -0.26178E-04  3431   0.837E-03    0.622E-02
RMM:   6    -0.232302752861E+04    0.10861E-04   -0.14831E-04  2933   0.657E-03    0.515E-02
RMM:   7    -0.232302749305E+04    0.35559E-04   -0.29051E-05  2736   0.402E-03    0.769E-03
RMM:   8    -0.232302749266E+04    0.38663E-06   -0.53357E-06  2483   0.173E-03
  20 F= -.23443904E+04 E0= -.23443904E+04  d E =-.859897E-04  mag=     3.9993
       N       E                     dE             d eps       ncg     rms          rms(c)
DAV:   1    -0.232299433055E+04    0.33163E-01   -0.12149E+00  4960   0.593E-01    0.483E-01
RMM:   2    -0.232299104223E+04    0.32883E-02   -0.13772E-02  4431   0.538E-02    0.261E-01
RMM:   3    -0.232299195290E+04   -0.91067E-03   -0.32370E-03  4208   0.362E-02    0.408E-01
RMM:   4    -0.232299061857E+04    0.13343E-02   -0.18161E-03  4747   0.179E-02    0.155E-01
RMM:   5    -0.232299046481E+04    0.15376E-03   -0.41758E-04  3699   0.113E-02    0.623E-02
RMM:   6    -0.232299045351E+04    0.11307E-04   -0.16243E-04  3176   0.698E-03    0.549E-02
RMM:   7    -0.232299040767E+04    0.45839E-04   -0.37176E-05  2841   0.420E-03    0.110E-02
RMM:   8    -0.232299040580E+04    0.18707E-05   -0.83804E-06  2643   0.216E-03
  21 F= -.23443543E+04 E0= -.23443542E+04  d E =-.839724E-04  mag=     3.9993
       N       E                     dE             d eps       ncg     rms          rms(c)
DAV:   1    -0.232300601129E+04   -0.15604E-01   -0.62370E-01  4880   0.437E-01    0.370E-01
RMM:   2    -0.232300390259E+04    0.21087E-02   -0.79889E-03  4338   0.407E-02    0.190E-01
RMM:   3    -0.232300374717E+04    0.15543E-03   -0.12392E-03  3800   0.229E-02    0.146E-01
RMM:   4    -0.232300380833E+04   -0.61166E-04   -0.93512E-04  3976   0.130E-02    0.159E-01
RMM:   5    -0.232300361699E+04    0.19134E-03   -0.29378E-04  3400   0.915E-03    0.782E-02
RMM:   6    -0.232300356597E+04    0.51025E-04   -0.98356E-05  2863   0.552E-03    0.386E-02
RMM:   7    -0.232300354480E+04    0.21167E-04   -0.16703E-05  2681   0.316E-03    0.793E-03
RMM:   8    -0.232300354399E+04    0.80543E-06   -0.58770E-06  2488   0.187E-03
  22 F= -.23443667E+04 E0= -.23443667E+04  d E =-.803884E-04  mag=     3.9994
       N       E                     dE             d eps       ncg     rms          rms(c)
DAV:   1    -0.232302203839E+04   -0.18494E-01   -0.11929E+00  4480   0.582E-01    0.401E-01
RMM:   2    -0.232302089563E+04    0.11428E-02   -0.83669E-03  4213   0.440E-02    0.237E-01
RMM:   3    -0.232302214601E+04   -0.12504E-02   -0.30903E-03  4855   0.326E-02    0.377E-01
RMM:   4    -0.232302060599E+04    0.15400E-02   -0.17535E-03  4818   0.193E-02    0.136E-01
RMM:   5    -0.232302067639E+04   -0.70404E-04   -0.61357E-04  3351   0.997E-03    0.136E-01
RMM:   6    -0.232302045701E+04    0.21939E-03   -0.16913E-04  3154   0.710E-03    0.197E-02
RMM:   7    -0.232302045205E+04    0.49585E-05   -0.15380E-05  2776   0.279E-03
  23 F= -.23443840E+04 E0= -.23443840E+04  d E =-.909402E-04  mag=     3.9993
       N       E                     dE             d eps       ncg     rms          rms(c)
DAV:   1    -0.232303750944E+04   -0.17052E-01   -0.61791E-01  4640   0.434E-01    0.343E-01
RMM:   2    -0.232303612236E+04    0.13871E-02   -0.68812E-03  4272   0.389E-02    0.191E-01
RMM:   3    -0.232303658550E+04   -0.46314E-03   -0.20137E-03  4461   0.247E-02    0.244E-01
RMM:   4    -0.232303580939E+04    0.77611E-03   -0.10917E-03  4373   0.154E-02    0.802E-02
RMM:   5    -0.232303587065E+04   -0.61258E-04   -0.26326E-04  3332   0.761E-03    0.113E-01
RMM:   6    -0.232303574875E+04    0.12190E-03   -0.10989E-04  2837   0.565E-03    0.264E-02
RMM:   7    -0.232303574174E+04    0.70162E-05   -0.12002E-05  2668   0.251E-03
  24 F= -.23443990E+04 E0= -.23443989E+04  d E =-.866882E-04  mag=     3.9993
       N       E                     dE             d eps       ncg     rms          rms(c)
DAV:   1    -0.232298901685E+04    0.46732E-01   -0.11889E+00  4560   0.586E-01    0.429E-01
RMM:   2    -0.232298721246E+04    0.18044E-02   -0.98830E-03  4240   0.495E-02    0.239E-01
RMM:   3    -0.232298790547E+04   -0.69301E-03   -0.31399E-03  4548   0.330E-02    0.310E-01
RMM:   4    -0.232298678095E+04    0.11245E-02   -0.17324E-03  4572   0.184E-02    0.912E-02
RMM:   5    -0.232298677465E+04    0.62984E-05   -0.29459E-04  3541   0.880E-03    0.806E-02
RMM:   6    -0.232298673565E+04    0.39003E-04   -0.11198E-04  2892   0.569E-03    0.508E-02
RMM:   7    -0.232298670715E+04    0.28497E-04   -0.19644E-05  2763   0.307E-03    0.997E-03
RMM:   8    -0.232298670801E+04   -0.85187E-06   -0.74417E-06  2585   0.203E-03
  25 F= -.23443503E+04 E0= -.23443502E+04  d E =-.824218E-04  mag=     3.9993
