       N       E                     dE             d eps       ncg     rms          rms(c)
DAV:   1     0.131115578932E+05    0.13112E+05   -0.84422E+05  4536   0.144E+03
DAV:   2    -0.101021280614E+04   -0.14122E+05   -0.13502E+05  4912   0.331E+02
DAV:   3    -0.248633301188E+04   -0.14761E+04   -0.14575E+04  5560   0.115E+02
DAV:   4    -0.253238893250E+04   -0.46056E+02   -0.45798E+02  6680   0.293E+01
DAV:   5    -0.253330054860E+04   -0.91162E+00   -0.90931E+00  6192   0.349E+00    0.170E+02
RMM:   6    -0.149980679784E+04    0.10335E+04   -0.19650E+03  4482   0.383E+01    0.734E+01
RMM:   7    -0.168997321012E+04   -0.19017E+03   -0.30720E+02  5235   0.147E+01    0.621E+01
RMM:   8    -0.171343286197E+04   -0.23460E+02   -0.97215E+01  5268   0.864E+00    0.475E+01
RMM:   9    -0.176981236561E+04   -0.56380E+02   -0.59218E+01  4997   0.751E+00    0.338E+01
RMM:  10    -0.190738361786E+04   -0.13757E+03   -0.61442E+01  5402   0.755E+00    0.337E+01
RMM:  11    -0.197241001005E+04   -0.65026E+02   -0.28800E+01  5476   0.472E+00    0.210E+01
RMM:  12    -0.207646969396E+04   -0.10406E+03   -0.46972E+01  4649   0.530E+00    0.160E+01
RMM:  13    -0.213149233507E+04   -0.55023E+02   -0.22417E+01  5265   0.380E+00    0.159E+01
RMM:  14    -0.222830867251E+04   -0.96816E+02   -0.70666E+01  4464   0.593E+00    0.951E+00
RMM:  15    -0.230187353013E+04   -0.73565E+02   -0.66029E+01  4575   0.578E+00    0.582E+00
RMM:  16    -0.232031112797E+04   -0.18438E+02   -0.20512E+01  4665   0.378E+00    0.380E+00
RMM:  17    -0.232590468176E+04   -0.55936E+01   -0.66826E+00  4941   0.166E+00    0.231E+00
RMM:  18    -0.232799886918E+04   -0.20942E+01   -0.17777E+00  4922   0.106E+00    0.131E+00
RMM:  19    -0.232843189677E+04   -0.43303E+00   -0.35433E-01  5162   0.454E-01    0.642E-01
RMM:  20    -0.232864056525E+04   -0.20867E+00   -0.11272E-01  4931   0.218E-01    0.397E-01
RMM:  21    -0.232869446740E+04   -0.53902E-01   -0.34770E-02  4807   0.143E-01    0.227E-01
RMM:  22    -0.232871277664E+04   -0.18309E-01   -0.99231E-03  4808   0.839E-02    0.135E-01
RMM:  23    -0.232872938849E+04   -0.16612E-01   -0.70274E-03  4513   0.613E-02    0.792E-02
RMM:  24    -0.232873814025E+04   -0.87518E-02   -0.29461E-03  4577   0.468E-02    0.551E-02
RMM:  25    -0.232874273430E+04   -0.45940E-02   -0.14023E-03  4793   0.288E-02    0.362E-02
RMM:  26    -0.232874640869E+04   -0.36744E-02   -0.11348E-03  4341   0.244E-02    0.191E-02
RMM:  27    -0.232874758461E+04   -0.11759E-02   -0.42648E-04  4268   0.179E-02    0.116E-02
RMM:  28    -0.232874799475E+04   -0.41014E-03   -0.13357E-04  3847   0.940E-03    0.700E-03
RMM:  29    -0.232874822966E+04   -0.23492E-03   -0.48861E-05  3533   0.677E-03    0.473E-03
RMM:  30    -0.232874834279E+04   -0.11312E-03   -0.23555E-05  3118   0.431E-03    0.261E-03
RMM:  31    -0.232874840240E+04   -0.59615E-04   -0.12966E-05  2921   0.357E-03    0.175E-03
RMM:  32    -0.232874842095E+04   -0.18550E-04   -0.68356E-06  2811   0.293E-03    0.119E-03
RMM:  33    -0.232874842455E+04   -0.36006E-05   -0.32082E-06  2434   0.218E-03
   1 F= -.23501227E+04 E0= -.23501215E+04  d E =-.235012E+04  mag=     5.9744
       N       E                     dE             d eps       ncg     rms          rms(c)
DAV:   1    -0.232893384811E+04   -0.18543E+00   -0.23202E+01  4944   0.362E+00    0.144E+00
RMM:   2    -0.232928697840E+04   -0.35313E+00   -0.36640E+00  6591   0.890E-01    0.144E+00
RMM:   3    -0.232930227303E+04   -0.15295E-01   -0.42991E-01  6304   0.363E-01    0.118E+00
RMM:   4    -0.232929056905E+04    0.11704E-01   -0.39940E-02  6264   0.840E-02    0.580E-01
RMM:   5    -0.232928917963E+04    0.13894E-02   -0.11169E-02  6013   0.439E-02    0.560E-01
RMM:   6    -0.232928499897E+04    0.41807E-02   -0.86160E-03  5784   0.430E-02    0.195E-01
RMM:   7    -0.232928489873E+04    0.10023E-03   -0.21594E-03  5228   0.248E-02    0.133E-01
RMM:   8    -0.232928480272E+04    0.96014E-04   -0.59765E-04  3754   0.132E-02    0.106E-01
RMM:   9    -0.232928468701E+04    0.11571E-03   -0.13801E-04  3123   0.789E-03    0.324E-02
RMM:  10    -0.232928467254E+04    0.14477E-04   -0.55594E-05  2986   0.544E-03    0.147E-02
RMM:  11    -0.232928467074E+04    0.17983E-05   -0.25778E-05  3027   0.435E-03
   2 F= -.23506586E+04 E0= -.23506576E+04  d E =-.535855E+00  mag=     5.9789
       N       E                     dE             d eps       ncg     rms          rms(c)
DAV:   1    -0.232897385941E+04    0.31081E+00   -0.36441E+01  4656   0.451E+00    0.179E+00
RMM:   2    -0.232953304622E+04   -0.55919E+00   -0.58636E+00  6572   0.114E+00    0.166E+00
RMM:   3    -0.232956148154E+04   -0.28435E-01   -0.71549E-01  6316   0.458E-01    0.134E+00
RMM:   4    -0.232954650301E+04    0.14979E-01   -0.59705E-02  6270   0.102E-01    0.682E-01
RMM:   5    -0.232954452207E+04    0.19809E-02   -0.16331E-02  6049   0.536E-02    0.671E-01
RMM:   6    -0.232953872751E+04    0.57946E-02   -0.12592E-02  5850   0.526E-02    0.240E-01
RMM:   7    -0.232953845483E+04    0.27268E-03   -0.31585E-03  5322   0.288E-02    0.142E-01
RMM:   8    -0.232953837196E+04    0.82866E-04   -0.75589E-04  4071   0.161E-02    0.125E-01
RMM:   9    -0.232953821153E+04    0.16044E-03   -0.22980E-04  3454   0.890E-03    0.428E-02
RMM:  10    -0.232953818151E+04    0.30019E-04   -0.83625E-05  3018   0.652E-03    0.181E-02
RMM:  11    -0.232953817783E+04    0.36764E-05   -0.38957E-05  3057   0.494E-03
   3 F= -.23509123E+04 E0= -.23509107E+04  d E =-.789581E+00  mag=     5.9654
       N       E                     dE             d eps       ncg     rms          rms(c)
DAV:   1    -0.232970325928E+04   -0.16508E+00   -0.11551E+01  4656   0.288E+00    0.116E+00
RMM:   2    -0.232987179133E+04   -0.16853E+00   -0.17977E+00  6346   0.687E-01    0.875E-01
RMM:   3    -0.232988166055E+04   -0.98692E-02   -0.21124E-01  6117   0.292E-01    0.791E-01
RMM:   4    -0.232987575687E+04    0.59037E-02   -0.19102E-02  6119   0.654E-02    0.392E-01
RMM:   5    -0.232987552446E+04    0.23241E-03   -0.63572E-03  5842   0.389E-02    0.419E-01
RMM:   6    -0.232987351083E+04    0.20136E-02   -0.46401E-03  5746   0.352E-02    0.125E-01
RMM:   7    -0.232987334790E+04    0.16293E-03   -0.63359E-04  5115   0.167E-02    0.447E-02
RMM:   8    -0.232987332089E+04    0.27006E-04   -0.97973E-05  3295   0.739E-03    0.263E-02
RMM:   9    -0.232987331236E+04    0.85299E-05   -0.43653E-05  2981   0.552E-03
   4 F= -.23512475E+04 E0= -.23512451E+04  d E =-.335201E+00  mag=     5.9478
       N       E                     dE             d eps       ncg     rms          rms(c)
DAV:   1    -0.232979422051E+04    0.79100E-01   -0.14821E+01  4600   0.332E+00    0.132E+00
RMM:   2    -0.233001154362E+04   -0.21732E+00   -0.23219E+00  6338   0.794E-01    0.102E+00
RMM:   3    -0.233002341522E+04   -0.11872E-01   -0.27888E-01  6125   0.336E-01    0.899E-01
RMM:   4    -0.233001552049E+04    0.78947E-02   -0.24422E-02  6134   0.749E-02    0.450E-01
RMM:   5    -0.233001512020E+04    0.40029E-03   -0.79523E-03  5905   0.435E-02    0.458E-01
RMM:   6    -0.233001279409E+04    0.23261E-02   -0.61015E-03  5734   0.406E-02    0.191E-01
RMM:   7    -0.233001251524E+04    0.27885E-03   -0.97539E-04  5245   0.202E-02    0.118E-01
RMM:   8    -0.233001252287E+04   -0.76270E-05   -0.29842E-04  3798   0.997E-03    0.110E-01
RMM:   9    -0.233001251504E+04    0.78212E-05   -0.19508E-04  3235   0.827E-03    0.135E-01
RMM:  10    -0.233001251233E+04    0.27103E-05   -0.27724E-05  2966   0.438E-03
   5 F= -.23513871E+04 E0= -.23513794E+04  d E =-.474775E+00  mag=     5.8497
       N       E                     dE             d eps       ncg     rms          rms(c)
DAV:   1    -0.233011074913E+04   -0.98234E-01   -0.79148E+00  4664   0.235E+00    0.880E-01
RMM:   2    -0.233019309874E+04   -0.82350E-01   -0.89258E-01  6145   0.492E-01    0.651E-01
RMM:   3    -0.233020126647E+04   -0.81677E-02   -0.11345E-01  5939   0.223E-01    0.655E-01
RMM:   4    -0.233019681402E+04    0.44524E-02   -0.11185E-02  5954   0.525E-02    0.322E-01
RMM:   5    -0.233019585940E+04    0.95462E-03   -0.59955E-03  5569   0.403E-02    0.180E-01
RMM:   6    -0.233019597974E+04   -0.12035E-03   -0.17741E-03  5259   0.254E-02    0.176E-01
RMM:   7    -0.233019569032E+04    0.28942E-03   -0.50759E-04  4085   0.114E-02    0.661E-02
RMM:   8    -0.233019566072E+04    0.29607E-04   -0.12901E-04  3109   0.727E-03    0.407E-02
RMM:   9    -0.233019564993E+04    0.10787E-04   -0.64219E-05  3005   0.539E-03    0.310E-02
RMM:  10    -0.233019564423E+04    0.56967E-05   -0.27097E-05  2950   0.452E-03
   6 F= -.23515704E+04 E0= -.23515682E+04  d E =-.183378E+00  mag=     5.9200
       N       E                     dE             d eps       ncg     rms          rms(c)
DAV:   1    -0.233019284692E+04    0.28030E-02   -0.39815E+00  4656   0.167E+00    0.615E-01
RMM:   2    -0.233023341904E+04   -0.40572E-01   -0.44633E-01  6170   0.348E-01    0.403E-01
RMM:   3    -0.233023761895E+04   -0.41999E-02   -0.56648E-02  5928   0.158E-01    0.428E-01
RMM:   4    -0.233023588548E+04    0.17335E-02   -0.55875E-03  5861   0.363E-02    0.212E-01
RMM:   5    -0.233023533421E+04    0.55127E-03   -0.24731E-03  5298   0.266E-02    0.114E-01
RMM:   6    -0.233023536668E+04   -0.32469E-04   -0.76204E-04  4723   0.176E-02    0.118E-01
RMM:   7    -0.233023522058E+04    0.14610E-03   -0.20066E-04  3307   0.806E-03    0.315E-02
RMM:   8    -0.233023520426E+04    0.16324E-04   -0.33089E-05  3022   0.493E-03    0.137E-02
RMM:   9    -0.233023520426E+04   -0.69558E-08   -0.21176E-05  2976   0.373E-03
   7 F= -.23516103E+04 E0= -.23516090E+04  d E =-.223225E+00  mag=     5.9582
       N       E                     dE             d eps       ncg     rms          rms(c)
DAV:   1    -0.233020822249E+04    0.26982E-01   -0.55065E+00  4584   0.194E+00    0.757E-01
RMM:   2    -0.233031526370E+04   -0.10704E+00   -0.11240E+00  6490   0.462E-01    0.677E-01
RMM:   3    -0.233032462959E+04   -0.93659E-02   -0.15121E-01  6242   0.212E-01    0.584E-01
RMM:   4    -0.233032148240E+04    0.31472E-02   -0.11343E-02  5710   0.436E-02    0.257E-01
RMM:   5    -0.233032103002E+04    0.45238E-03   -0.20845E-03  5327   0.210E-02    0.228E-01
RMM:   6    -0.233032042315E+04    0.60687E-03   -0.20583E-03  5419   0.210E-02    0.132E-01
RMM:   7    -0.233032025868E+04    0.16447E-03   -0.56488E-04  4804   0.142E-02    0.505E-02
RMM:   8    -0.233032025194E+04    0.67350E-05   -0.11066E-04  3129   0.695E-03    0.442E-02
RMM:   9    -0.233032022734E+04    0.24604E-04   -0.35534E-05  2937   0.469E-03    0.197E-02
RMM:  10    -0.233032022123E+04    0.61156E-05   -0.36687E-05  2947   0.381E-03
   8 F= -.23516952E+04 E0= -.23516944E+04  d E =-.848943E-01  mag=     5.9772
       N       E                     dE             d eps       ncg     rms          rms(c)
DAV:   1    -0.233024027409E+04    0.79953E-01   -0.54080E+00  4544   0.192E+00    0.745E-01
RMM:   2    -0.233034465852E+04   -0.10438E+00   -0.10942E+00  6496   0.456E-01    0.667E-01
RMM:   3    -0.233035418659E+04   -0.95281E-02   -0.14673E-01  6218   0.209E-01    0.602E-01
RMM:   4    -0.233035088806E+04    0.32985E-02   -0.11281E-02  5724   0.435E-02    0.261E-01
RMM:   5    -0.233035044111E+04    0.44695E-03   -0.20333E-03  5316   0.203E-02    0.227E-01
RMM:   6    -0.233034980148E+04    0.63963E-03   -0.20181E-03  5379   0.208E-02    0.131E-01
RMM:   7    -0.233034964432E+04    0.15716E-03   -0.63098E-04  4812   0.147E-02    0.554E-02
RMM:   8    -0.233034963501E+04    0.93135E-05   -0.12323E-04  3219   0.721E-03    0.459E-02
RMM:   9    -0.233034960985E+04    0.25161E-04   -0.37633E-05  2942   0.483E-03    0.201E-02
RMM:  10    -0.233034960581E+04    0.40339E-05   -0.40046E-05  2941   0.402E-03
   9 F= -.23517245E+04 E0= -.23517239E+04  d E =-.114244E+00  mag=     5.9844
       N       E                     dE             d eps       ncg     rms          rms(c)
DAV:   1    -0.233033941100E+04    0.10199E-01   -0.51983E+00  4544   0.198E+00    0.701E-01
RMM:   2    -0.233040604900E+04   -0.66638E-01   -0.69457E-01  6320   0.418E-01    0.501E-01
RMM:   3    -0.233041326193E+04   -0.72129E-02   -0.87868E-02  6107   0.182E-01    0.537E-01
RMM:   4    -0.233041053202E+04    0.27299E-02   -0.84318E-03  5890   0.404E-02    0.220E-01
RMM:   5    -0.233041026188E+04    0.27013E-03   -0.17996E-03  5441   0.225E-02    0.177E-01
RMM:   6    -0.233041007075E+04    0.19113E-03   -0.14416E-03  5358   0.190E-02    0.128E-01
RMM:   7    -0.233040988933E+04    0.18142E-03   -0.27646E-04  4301   0.115E-02    0.304E-02
RMM:   8    -0.233040988748E+04    0.18417E-05   -0.60558E-05  3040   0.601E-03
  10 F= -.23517847E+04 E0= -.23517836E+04  d E =-.601698E-01  mag=     5.9792
       N       E                     dE             d eps       ncg     rms          rms(c)
DAV:   1    -0.233035341637E+04    0.56473E-01   -0.57239E+00  4544   0.207E+00    0.742E-01
RMM:   2    -0.233042746006E+04   -0.74044E-01   -0.76693E-01  6335   0.440E-01    0.578E-01
RMM:   3    -0.233043517643E+04   -0.77164E-02   -0.97670E-02  6122   0.190E-01    0.620E-01
RMM:   4    -0.233043169135E+04    0.34851E-02   -0.94322E-03  5936   0.430E-02    0.233E-01
RMM:   5    -0.233043147159E+04    0.21976E-03   -0.19977E-03  5480   0.232E-02    0.198E-01
RMM:   6    -0.233043114242E+04    0.32917E-03   -0.16454E-03  5439   0.200E-02    0.127E-01
RMM:   7    -0.233043095679E+04    0.18563E-03   -0.31053E-04  4604   0.124E-02    0.286E-02
RMM:   8    -0.233043095439E+04    0.24062E-05   -0.57210E-05  3071   0.607E-03
  11 F= -.23518057E+04 E0= -.23518038E+04  d E =-.811871E-01  mag=     5.9627
       N       E                     dE             d eps       ncg     rms          rms(c)
DAV:   1    -0.233043727461E+04   -0.63178E-02   -0.22291E+00  4576   0.123E+00    0.455E-01
RMM:   2    -0.233047080904E+04   -0.33534E-01   -0.35198E-01  6545   0.269E-01    0.276E-01
RMM:   3    -0.233047445998E+04   -0.36509E-02   -0.41068E-02  6076   0.113E-01    0.303E-01
RMM:   4    -0.233047395494E+04    0.50504E-03   -0.40416E-03  4695   0.243E-02    0.147E-01
RMM:   5    -0.233047376305E+04    0.19189E-03   -0.55154E-04  4012   0.127E-02    0.859E-02
RMM:   6    -0.233047383344E+04   -0.70394E-04   -0.40579E-04  3824   0.112E-02    0.104E-01
RMM:   7    -0.233047371154E+04    0.12190E-03   -0.18527E-04  3111   0.810E-03    0.263E-02
RMM:   8    -0.233047370823E+04    0.33138E-05   -0.25341E-05  2987   0.416E-03
  12 F= -.23518486E+04 E0= -.23518458E+04  d E =-.428592E-01  mag=     5.9408
       N       E                     dE             d eps       ncg     rms          rms(c)
DAV:   1    -0.233023761673E+04    0.23609E+00   -0.20034E+01  4512   0.369E+00    0.144E+00
RMM:   2    -0.233054901045E+04   -0.31139E+00   -0.32232E+00  6559   0.827E-01    0.112E+00
RMM:   3    -0.233058366867E+04   -0.34658E-01   -0.38185E-01  6343   0.340E-01    0.154E+00
RMM:   4    -0.233057165831E+04    0.12010E-01   -0.37085E-02  6245   0.750E-02    0.489E-01
RMM:   5    -0.233057194262E+04   -0.28431E-03   -0.67308E-03  5509   0.360E-02    0.631E-01
RMM:   6    -0.233057002906E+04    0.19136E-02   -0.41423E-03  5584   0.296E-02    0.491E-01
RMM:   7    -0.233057043984E+04   -0.41078E-03   -0.24611E-03  5323   0.239E-02    0.612E-01
RMM:   8    -0.233056989763E+04    0.54221E-03   -0.33203E-04  3491   0.118E-02    0.422E-01
RMM:   9    -0.233056921112E+04    0.68651E-03   -0.16397E-03  4133   0.170E-02    0.188E-01
RMM:  10    -0.233056905272E+04    0.15840E-03   -0.10195E-03  4077   0.148E-02    0.238E-01
RMM:  11    -0.233056881876E+04    0.23396E-03   -0.76874E-04  4199   0.133E-02    0.236E-01
RMM:  12    -0.233056865483E+04    0.16393E-03   -0.22433E-04  3268   0.846E-03    0.243E-01
RMM:  13    -0.233056865905E+04   -0.42265E-05   -0.24801E-05  2943   0.381E-03
  13 F= -.23519440E+04 E0= -.23519376E+04  d E =-.138290E+00  mag=     5.8944
       N       E                     dE             d eps       ncg     rms          rms(c)
DAV:   1    -0.232926554907E+04    0.13031E+01   -0.79638E+01  4512   0.737E+00    0.393E+00
RMM:   2    -0.233075921543E+04   -0.14937E+01   -0.13835E+01  6573   0.175E+00    0.482E+00
RMM:   3    -0.233078569568E+04   -0.26480E-01   -0.16186E+00  6153   0.677E-01    0.401E+00
RMM:   4    -0.233064632746E+04    0.13937E+00   -0.20666E-01  5325   0.200E-01    0.235E+00
RMM:   5    -0.233060990487E+04    0.36423E-01   -0.67814E-02  5834   0.110E-01    0.168E+00
RMM:   6    -0.233059596652E+04    0.13938E-01   -0.72287E-02  4706   0.128E-01    0.973E-01
RMM:   7    -0.233063184826E+04   -0.35882E-01   -0.31771E-02  4964   0.106E-01    0.726E-01
RMM:   8    -0.233064051166E+04   -0.86634E-02   -0.13489E-02  5643   0.574E-02    0.549E-01
RMM:   9    -0.233065837421E+04   -0.17863E-01   -0.84075E-03  4637   0.457E-02    0.268E-01
RMM:  10    -0.233067804798E+04   -0.19674E-01   -0.65296E-03  4483   0.401E-02    0.188E-01
RMM:  11    -0.233069204667E+04   -0.13999E-01   -0.41920E-03  4516   0.363E-02    0.128E-01
RMM:  12    -0.233070209036E+04   -0.10044E-01   -0.35813E-03  4512   0.339E-02    0.785E-02
RMM:  13    -0.233070611765E+04   -0.40273E-02   -0.11787E-03  4466   0.255E-02    0.483E-02
RMM:  14    -0.233070812943E+04   -0.20118E-02   -0.45444E-04  4398   0.145E-02    0.259E-02
RMM:  15    -0.233070905268E+04   -0.92325E-03   -0.16558E-04  3893   0.958E-03    0.146E-02
RMM:  16    -0.233070941237E+04   -0.35969E-03   -0.57817E-05  3560   0.604E-03    0.678E-03
RMM:  17    -0.233070954343E+04   -0.13106E-03   -0.25451E-05  3177   0.464E-03    0.343E-03
RMM:  18    -0.233070955996E+04   -0.16530E-04   -0.72088E-06  2852   0.347E-03    0.157E-03
RMM:  19    -0.233070956408E+04   -0.41235E-05   -0.35881E-06  2716   0.229E-03
  14 F= -.23520865E+04 E0= -.23520865E+04  d E =-.280768E+00  mag=     4.0009
       N       E                     dE             d eps       ncg     rms          rms(c)
DAV:   1    -0.233071055782E+04   -0.99786E-03   -0.25127E+00  4864   0.127E+00    0.459E-01
RMM:   2    -0.233074668351E+04   -0.36126E-01   -0.37577E-01  6539   0.281E-01    0.312E-01
RMM:   3    -0.233075129510E+04   -0.46116E-02   -0.43223E-02  6108   0.114E-01    0.440E-01
RMM:   4    -0.233074961098E+04    0.16841E-02   -0.44095E-03  5032   0.268E-02    0.182E-01
RMM:   5    -0.233074959137E+04    0.19607E-04   -0.98981E-04  4508   0.138E-02    0.179E-01
RMM:   6    -0.233074927838E+04    0.31299E-03   -0.65814E-04  4117   0.127E-02    0.709E-02
RMM:   7    -0.233074926415E+04    0.14228E-04   -0.14978E-04  3297   0.785E-03    0.457E-02
RMM:   8    -0.233074925234E+04    0.11817E-04   -0.69664E-05  2969   0.605E-03    0.333E-02
RMM:   9    -0.233074923989E+04    0.12450E-04   -0.16317E-05  2931   0.338E-03    0.118E-02
RMM:  10    -0.233074923839E+04    0.14939E-05   -0.59468E-06  2829   0.246E-03
  15 F= -.23521264E+04 E0= -.23521264E+04  d E =-.399438E-01  mag=     4.0003
       N       E                     dE             d eps       ncg     rms          rms(c)
DAV:   1    -0.233048067431E+04    0.26857E+00   -0.22563E+01  4512   0.382E+00    0.139E+00
RMM:   2    -0.233081498071E+04   -0.33431E+00   -0.34493E+00  6540   0.868E-01    0.107E+00
RMM:   3    -0.233085543116E+04   -0.40450E-01   -0.40085E-01  6267   0.345E-01    0.137E+00
RMM:   4    -0.233083752827E+04    0.17903E-01   -0.40501E-02  6382   0.821E-02    0.540E-01
RMM:   5    -0.233083693536E+04    0.59292E-03   -0.90444E-03  5757   0.381E-02    0.507E-01
RMM:   6    -0.233083457076E+04    0.23646E-02   -0.57364E-03  5686   0.338E-02    0.229E-01
RMM:   7    -0.233083437517E+04    0.19559E-03   -0.15442E-03  5256   0.204E-02    0.148E-01
RMM:   8    -0.233083431241E+04    0.62759E-04   -0.78627E-04  4058   0.139E-02    0.128E-01
RMM:   9    -0.233083412626E+04    0.18615E-03   -0.23186E-04  3351   0.860E-03    0.449E-02
RMM:  10    -0.233083409962E+04    0.26643E-04   -0.57342E-05  2971   0.560E-03    0.206E-02
RMM:  11    -0.233083409565E+04    0.39702E-05   -0.21782E-05  2933   0.395E-03
  16 F= -.23522122E+04 E0= -.23522122E+04  d E =-.125732E+00  mag=     4.0001
       N       E                     dE             d eps       ncg     rms          rms(c)
DAV:   1    -0.232938862633E+04    0.14455E+01   -0.89545E+01  4512   0.765E+00    0.283E+00
RMM:   2    -0.233079914042E+04   -0.14105E+01   -0.14393E+01  6575   0.182E+00    0.253E+00
RMM:   3    -0.233092976359E+04   -0.13062E+00   -0.16472E+00  6299   0.690E-01    0.262E+00
RMM:   4    -0.233086135925E+04    0.68404E-01   -0.16359E-01  6409   0.166E-01    0.103E+00
RMM:   5    -0.233085937915E+04    0.19801E-02   -0.35706E-02  6049   0.752E-02    0.996E-01
RMM:   6    -0.233084961052E+04    0.97686E-02   -0.21122E-02  5697   0.659E-02    0.407E-01
RMM:   7    -0.233084945735E+04    0.15317E-03   -0.58597E-03  5472   0.403E-02    0.287E-01
RMM:   8    -0.233084927961E+04    0.17774E-03   -0.29543E-03  5426   0.270E-02    0.249E-01
RMM:   9    -0.233084854551E+04    0.73411E-03   -0.89893E-04  4847   0.149E-02    0.960E-02
RMM:  10    -0.233084842673E+04    0.11878E-03   -0.22884E-04  3192   0.899E-03    0.383E-02
RMM:  11    -0.233084841133E+04    0.15398E-04   -0.77380E-05  3013   0.624E-03    0.161E-02
RMM:  12    -0.233084840576E+04    0.55713E-05   -0.26840E-05  2974   0.502E-03
  17 F= -.23522289E+04 E0= -.23522289E+04  d E =-.142402E+00  mag=     4.0002
       N       E                     dE             d eps       ncg     rms          rms(c)
DAV:   1    -0.233061184490E+04    0.23657E+00   -0.16290E+01  4512   0.328E+00    0.117E+00
RMM:   2    -0.233084724518E+04   -0.23540E+00   -0.24808E+00  6561   0.731E-01    0.618E-01
RMM:   3    -0.233087089459E+04   -0.23649E-01   -0.29851E-01  6145   0.298E-01    0.602E-01
RMM:   4    -0.233087117424E+04   -0.27965E-03   -0.28106E-02  6328   0.624E-02    0.529E-01
RMM:   5    -0.233086921991E+04    0.19543E-02   -0.52891E-03  5620   0.314E-02    0.355E-01
RMM:   6    -0.233086871104E+04    0.50887E-03   -0.43395E-03  5459   0.279E-02    0.271E-01
RMM:   7    -0.233086802339E+04    0.68765E-03   -0.15955E-03  5377   0.194E-02    0.828E-02
RMM:   8    -0.233086791154E+04    0.11184E-03   -0.19946E-04  3293   0.849E-03    0.394E-02
RMM:   9    -0.233086789030E+04    0.21241E-04   -0.13450E-04  3074   0.691E-03    0.324E-02
RMM:  10    -0.233086788226E+04    0.80423E-05   -0.39618E-05  2965   0.452E-03
  18 F= -.23522473E+04 E0= -.23522473E+04  d E =-.160795E+00  mag=     4.0000
       N       E                     dE             d eps       ncg     rms          rms(c)
DAV:   1    -0.233089704051E+04   -0.29150E-01   -0.15827E+00  4608   0.984E-01    0.401E-01
RMM:   2    -0.233092332968E+04   -0.26289E-01   -0.25572E-01  6520   0.234E-01    0.540E-01
RMM:   3    -0.233092366936E+04   -0.33968E-03   -0.31238E-02  6173   0.942E-02    0.369E-01
RMM:   4    -0.233092240752E+04    0.12618E-02   -0.28074E-03  5016   0.231E-02    0.147E-01
RMM:   5    -0.233092241243E+04   -0.49145E-05   -0.79001E-04  3950   0.135E-02    0.156E-01
RMM:   6    -0.233092214309E+04    0.26934E-03   -0.58250E-04  4719   0.131E-02    0.557E-02
RMM:   7    -0.233092215967E+04   -0.16577E-04   -0.15529E-04  3061   0.837E-03    0.612E-02
RMM:   8    -0.233092211599E+04    0.43681E-04   -0.43883E-05  2926   0.449E-03    0.158E-02
RMM:   9    -0.233092211167E+04    0.43162E-05   -0.10601E-05  2943   0.246E-03
  19 F= -.23523016E+04 E0= -.23523016E+04  d E =-.542887E-01  mag=     4.0000
       N       E                     dE             d eps       ncg     rms          rms(c)
DAV:   1    -0.233079069271E+04    0.13142E+00   -0.14238E+01  4512   0.296E+00    0.120E+00
RMM:   2    -0.233102549867E+04   -0.23481E+00   -0.23071E+00  6524   0.705E-01    0.158E+00
RMM:   3    -0.233103350616E+04   -0.80075E-02   -0.30115E-01  6383   0.292E-01    0.113E+00
RMM:   4    -0.233102143927E+04    0.12067E-01   -0.25965E-02  5951   0.696E-02    0.431E-01
RMM:   5    -0.233102154000E+04   -0.10073E-03   -0.73084E-03  5698   0.378E-02    0.473E-01
RMM:   6    -0.233101912964E+04    0.24104E-02   -0.51805E-03  5713   0.353E-02    0.165E-01
RMM:   7    -0.233101922218E+04   -0.92541E-04   -0.12741E-03  5039   0.194E-02    0.153E-01
RMM:   8    -0.233101899098E+04    0.23121E-03   -0.39710E-04  3219   0.931E-03    0.696E-02
RMM:   9    -0.233101891768E+04    0.73301E-04   -0.98895E-05  3117   0.584E-03    0.307E-02
RMM:  10    -0.233101890250E+04    0.15179E-04   -0.57584E-05  2989   0.537E-03    0.126E-02
RMM:  11    -0.233101890065E+04    0.18509E-05   -0.13427E-05  2960   0.370E-03
  20 F= -.23523987E+04 E0= -.23523987E+04  d E =-.151413E+00  mag=     4.0000
       N       E                     dE             d eps       ncg     rms          rms(c)
DAV:   1    -0.233098369747E+04    0.35205E-01   -0.27978E+00  4592   0.132E+00    0.528E-01
RMM:   2    -0.233102937743E+04   -0.45680E-01   -0.45104E-01  6527   0.308E-01    0.670E-01
RMM:   3    -0.233103095242E+04   -0.15750E-02   -0.54804E-02  6276   0.125E-01    0.503E-01
RMM:   4    -0.233102858926E+04    0.23632E-02   -0.50312E-03  5480   0.307E-02    0.192E-01
RMM:   5    -0.233102861614E+04   -0.26879E-04   -0.14196E-03  4720   0.175E-02    0.209E-01
RMM:   6    -0.233102813466E+04    0.48148E-03   -0.10235E-03  5080   0.165E-02    0.681E-02
RMM:   7    -0.233102814562E+04   -0.10957E-04   -0.23372E-04  3235   0.998E-03    0.643E-02
RMM:   8    -0.233102810256E+04    0.43053E-04   -0.72801E-05  2949   0.532E-03    0.261E-02
RMM:   9    -0.233102809180E+04    0.10765E-04   -0.16845E-05  2980   0.301E-03    0.129E-02
RMM:  10    -0.233102808892E+04    0.28835E-05   -0.10092E-05  2899   0.272E-03
  21 F= -.23524081E+04 E0= -.23524081E+04  d E =-.160822E+00  mag=     4.0000
       N       E                     dE             d eps       ncg     rms          rms(c)
DAV:   1    -0.233103600517E+04   -0.79134E-02   -0.38241E+00  4512   0.155E+00    0.602E-01
RMM:   2    -0.233109705169E+04   -0.61047E-01   -0.61638E-01  6555   0.368E-01    0.657E-01
RMM:   3    -0.233110124996E+04   -0.41983E-02   -0.71767E-02  6341   0.145E-01    0.606E-01
RMM:   4    -0.233109789619E+04    0.33538E-02   -0.69227E-03  5743   0.350E-02    0.245E-01
RMM:   5    -0.233109765720E+04    0.23899E-03   -0.17112E-03  4497   0.168E-02    0.206E-01
RMM:   6    -0.233109723311E+04    0.42408E-03   -0.11910E-03  5166   0.175E-02    0.898E-02
RMM:   7    -0.233109727982E+04   -0.46711E-04   -0.41980E-04  3569   0.115E-02    0.967E-02
RMM:   8    -0.233109717450E+04    0.10533E-03   -0.11740E-04  2947   0.634E-03    0.284E-02
RMM:   9    -0.233109716095E+04    0.13542E-04   -0.22958E-05  2984   0.327E-03    0.132E-02
RMM:  10    -0.233109715773E+04    0.32235E-05   -0.12366E-05  2897   0.268E-03
  22 F= -.23524778E+04 E0= -.23524778E+04  d E =-.696730E-01  mag=     4.0000
       N       E                     dE             d eps       ncg     rms          rms(c)
DAV:   1    -0.233064144439E+04    0.45572E+00   -0.34183E+01  4512   0.466E+00    0.181E+00
RMM:   2    -0.233119419640E+04   -0.55275E+00   -0.56230E+00  6568   0.112E+00    0.194E+00
RMM:   3    -0.233124498691E+04   -0.50791E-01   -0.70258E-01  6410   0.450E-01    0.193E+00
RMM:   4    -0.233121055431E+04    0.34433E-01   -0.64032E-02  6250   0.106E-01    0.757E-01
RMM:   5    -0.233120773665E+04    0.28177E-02   -0.15356E-02  5854   0.475E-02    0.612E-01
RMM:   6    -0.233120401674E+04    0.37199E-02   -0.11243E-02  5744   0.496E-02    0.278E-01
RMM:   7    -0.233120404584E+04   -0.29106E-04   -0.35870E-03  5651   0.294E-02    0.222E-01
RMM:   8    -0.233120375029E+04    0.29556E-03   -0.11604E-03  4216   0.156E-02    0.156E-01
RMM:   9    -0.233120341886E+04    0.33142E-03   -0.27770E-04  3308   0.890E-03    0.504E-02
RMM:  10    -0.233120336964E+04    0.49222E-04   -0.20824E-04  3015   0.773E-03    0.184E-02
RMM:  11    -0.233120336627E+04    0.33731E-05   -0.37679E-05  2998   0.451E-03
  23 F= -.23525862E+04 E0= -.23525862E+04  d E =-.178086E+00  mag=     4.0000
       N       E                     dE             d eps       ncg     rms          rms(c)
DAV:   1    -0.233117984486E+04    0.23525E-01   -0.16750E+00  4672   0.102E+00    0.398E-01
RMM:   2    -0.233120660797E+04   -0.26763E-01   -0.26877E-01  6582   0.239E-01    0.446E-01
RMM:   3    -0.233120838364E+04   -0.17757E-02   -0.30813E-02  6243   0.950E-02    0.410E-01
RMM:   4    -0.233120690139E+04    0.14823E-02   -0.30808E-03  4947   0.232E-02    0.162E-01
RMM:   5    -0.233120678917E+04    0.11222E-03   -0.71799E-04  3385   0.115E-02    0.135E-01
RMM:   6    -0.233120659862E+04    0.19055E-03   -0.52557E-04  4392   0.123E-02    0.510E-02
RMM:   7    -0.233120659734E+04    0.12805E-05   -0.13212E-04  3159   0.767E-03    0.385E-02
RMM:   8    -0.233120658668E+04    0.10660E-04   -0.40240E-05  2931   0.461E-03    0.248E-02
RMM:   9    -0.233120657732E+04    0.93562E-05   -0.86144E-06  2900   0.247E-03
  24 F= -.23525900E+04 E0= -.23525900E+04  d E =-.181862E+00  mag=     4.0000
       N       E                     dE             d eps       ncg     rms          rms(c)
DAV:   1    -0.233115405091E+04    0.52536E-01   -0.72471E+00  4512   0.228E+00    0.861E-01
RMM:   2    -0.233126895685E+04   -0.11491E+00   -0.12122E+00  6402   0.556E-01    0.572E-01
RMM:   3    -0.233127887812E+04   -0.99213E-02   -0.12607E-01  6213   0.212E-01    0.705E-01
RMM:   4    -0.233127535438E+04    0.35237E-02   -0.13638E-02  6150   0.487E-02    0.343E-01
RMM:   5    -0.233127542615E+04   -0.71777E-04   -0.32891E-03  5597   0.251E-02    0.372E-01
RMM:   6    -0.233127401952E+04    0.14066E-02   -0.24963E-03  5609   0.257E-02    0.104E-01
RMM:   7    -0.233127401510E+04    0.44233E-05   -0.53169E-04  4778   0.142E-02    0.805E-02
RMM:   8    -0.233127396819E+04    0.46910E-04   -0.19487E-04  3066   0.780E-03    0.536E-02
RMM:   9    -0.233127392522E+04    0.42968E-04   -0.51699E-05  2986   0.517E-03    0.163E-02
RMM:  10    -0.233127392166E+04    0.35619E-05   -0.19897E-05  2963   0.346E-03
  25 F= -.23526590E+04 E0= -.23526590E+04  d E =-.690807E-01  mag=     4.0000
       N       E                     dE             d eps       ncg     rms          rms(c)
DAV:   1    -0.233101556173E+04    0.25836E+00   -0.17588E+01  4512   0.354E+00    0.135E+00
RMM:   2    -0.233130032716E+04   -0.28477E+00   -0.30023E+00  6421   0.893E-01    0.928E-01
RMM:   3    -0.233132384593E+04   -0.23519E-01   -0.31081E-01  6251   0.330E-01    0.109E+00
RMM:   4    -0.233131537254E+04    0.84734E-02   -0.33846E-02  6284   0.767E-02    0.553E-01
RMM:   5    -0.233131508188E+04    0.29066E-03   -0.77766E-03  5883   0.381E-02    0.564E-01
RMM:   6    -0.233131185308E+04    0.32288E-02   -0.60619E-03  5668   0.403E-02    0.166E-01
RMM:   7    -0.233131187468E+04   -0.21603E-04   -0.14331E-03  5278   0.225E-02    0.140E-01
RMM:   8    -0.233131172775E+04    0.14693E-03   -0.55447E-04  3786   0.120E-02    0.899E-02
RMM:   9    -0.233131160880E+04    0.11896E-03   -0.15312E-04  3164   0.789E-03    0.305E-02
RMM:  10    -0.233131159460E+04    0.14197E-04   -0.57797E-05  2989   0.542E-03    0.143E-02
RMM:  11    -0.233131159265E+04    0.19477E-05   -0.18337E-05  2933   0.432E-03
  26 F= -.23526996E+04 E0= -.23526996E+04  d E =-.109635E+00  mag=     4.0000
       N       E                     dE             d eps       ncg     rms          rms(c)
DAV:   1    -0.233112713574E+04    0.18446E+00   -0.13223E+01  4528   0.335E+00    0.127E+00
RMM:   2    -0.233136089308E+04   -0.23376E+00   -0.24439E+00  6323   0.825E-01    0.111E+00
RMM:   3    -0.233138478356E+04   -0.23890E-01   -0.27544E-01  6165   0.320E-01    0.140E+00
RMM:   4    -0.233136818638E+04    0.16597E-01   -0.30052E-02  6331   0.804E-02    0.511E-01
RMM:   5    -0.233136671684E+04    0.14695E-02   -0.77895E-03  5919   0.386E-02    0.419E-01
RMM:   6    -0.233136462223E+04    0.20946E-02   -0.47175E-03  5287   0.375E-02    0.152E-01
RMM:   7    -0.233136470247E+04   -0.80244E-04   -0.14415E-03  5101   0.270E-02    0.157E-01
RMM:   8    -0.233136439425E+04    0.30823E-03   -0.50292E-04  4364   0.119E-02    0.594E-02
RMM:   9    -0.233136432618E+04    0.68067E-04   -0.95815E-05  3169   0.752E-03    0.221E-02
RMM:  10    -0.233136431474E+04    0.11442E-04   -0.34445E-05  3011   0.501E-03    0.122E-02
RMM:  11    -0.233136431273E+04    0.20084E-05   -0.17051E-05  2921   0.466E-03
  27 F= -.23527546E+04 E0= -.23527546E+04  d E =-.549647E-01  mag=     4.0000
       N       E                     dE             d eps       ncg     rms          rms(c)
DAV:   1    -0.233135670589E+04    0.76089E-02   -0.48926E-01  4896   0.645E-01    0.242E-01
RMM:   2    -0.233136513520E+04   -0.84293E-02   -0.88531E-02  6354   0.157E-01    0.205E-01
RMM:   3    -0.233136613880E+04   -0.10036E-02   -0.10407E-02  5804   0.625E-02    0.274E-01
RMM:   4    -0.233136551208E+04    0.62672E-03   -0.11081E-03  3933   0.157E-02    0.959E-02
RMM:   5    -0.233136546628E+04    0.45807E-04   -0.28674E-04  3162   0.939E-03    0.820E-02
RMM:   6    -0.233136538527E+04    0.81009E-04   -0.19860E-04  4154   0.931E-03    0.271E-02
RMM:   7    -0.233136538923E+04   -0.39643E-05   -0.53038E-05  3013   0.732E-03
  28 F= -.23527561E+04 E0= -.23527561E+04  d E =-.564924E-01  mag=     4.0000
       N       E                     dE             d eps       ncg     rms          rms(c)
DAV:   1    -0.233133424044E+04    0.31145E-01   -0.52833E+00  4512   0.215E+00    0.740E-01
RMM:   2    -0.233140613798E+04   -0.71898E-01   -0.76805E-01  6256   0.481E-01    0.523E-01
RMM:   3    -0.233141300736E+04   -0.68694E-02   -0.82274E-02  6067   0.186E-01    0.649E-01
RMM:   4    -0.233140989231E+04    0.31150E-02   -0.94084E-03  5979   0.452E-02    0.317E-01
RMM:   5    -0.233140969023E+04    0.20208E-03   -0.26752E-03  5546   0.245E-02    0.306E-01
RMM:   6    -0.233140870539E+04    0.98484E-03   -0.15090E-03  5275   0.231E-02    0.734E-02
RMM:   7    -0.233140870945E+04   -0.40607E-05   -0.33801E-04  4324   0.136E-02    0.541E-02
RMM:   8    -0.233140870056E+04    0.88977E-05   -0.11221E-04  3040   0.655E-03    0.439E-02
RMM:   9    -0.233140867135E+04    0.29206E-04   -0.29895E-05  2960   0.450E-03    0.116E-02
RMM:  10    -0.233140866949E+04    0.18626E-05   -0.11660E-05  2942   0.293E-03
  29 F= -.23528008E+04 E0= -.23528008E+04  d E =-.447004E-01  mag=     4.0000
       N       E                     dE             d eps       ncg     rms          rms(c)
DAV:   1    -0.233133143515E+04    0.77236E-01   -0.66414E+00  4512   0.242E+00    0.831E-01
RMM:   2    -0.233142214009E+04   -0.90705E-01   -0.96704E-01  6251   0.537E-01    0.604E-01
RMM:   3    -0.233143034290E+04   -0.82028E-02   -0.10296E-01  6073   0.208E-01    0.733E-01
RMM:   4    -0.233142636950E+04    0.39734E-02   -0.11729E-02  6011   0.508E-02    0.365E-01
RMM:   5    -0.233142598511E+04    0.38439E-03   -0.34058E-03  5580   0.274E-02    0.338E-01
RMM:   6    -0.233142477888E+04    0.12062E-02   -0.18872E-03  5223   0.258E-02    0.809E-02
RMM:   7    -0.233142476891E+04    0.99644E-05   -0.41483E-04  4453   0.153E-02    0.529E-02
RMM:   8    -0.233142477252E+04   -0.36104E-05   -0.13409E-04  3156   0.707E-03    0.516E-02
RMM:   9    -0.233142473188E+04    0.40640E-04   -0.38479E-05  2967   0.511E-03    0.135E-02
RMM:  10    -0.233142472894E+04    0.29430E-05   -0.14735E-05  2952   0.325E-03
  30 F= -.23528185E+04 E0= -.23528185E+04  d E =-.624496E-01  mag=     4.0000
       N       E                     dE             d eps       ncg     rms          rms(c)
DAV:   1    -0.233140038440E+04    0.24347E-01   -0.50419E+00  4512   0.211E+00    0.726E-01
RMM:   2    -0.233146758629E+04   -0.67202E-01   -0.64986E-01  6201   0.454E-01    0.884E-01
RMM:   3    -0.233146799880E+04   -0.41250E-03   -0.68003E-02  6095   0.174E-01    0.710E-01
RMM:   4    -0.233146423676E+04    0.37620E-02   -0.89962E-03  5754   0.458E-02    0.384E-01
RMM:   5    -0.233146286923E+04    0.13675E-02   -0.26243E-03  5274   0.257E-02    0.194E-01
RMM:   6    -0.233146243555E+04    0.43368E-03   -0.15348E-03  4701   0.238E-02    0.945E-02
RMM:   7    -0.233146245645E+04   -0.20895E-04   -0.42277E-04  3996   0.187E-02    0.905E-02
RMM:   8    -0.233146236130E+04    0.95143E-04   -0.11294E-04  3084   0.576E-03    0.238E-02
RMM:   9    -0.233146234823E+04    0.13074E-04   -0.27994E-05  2933   0.431E-03    0.122E-02
RMM:  10    -0.233146234449E+04    0.37399E-05   -0.13682E-05  2939   0.306E-03
  31 F= -.23528579E+04 E0= -.23528579E+04  d E =-.394094E-01  mag=     4.0000
       N       E                     dE             d eps       ncg     rms          rms(c)
DAV:   1    -0.233138530693E+04    0.77041E-01   -0.74645E+00  4512   0.256E+00    0.886E-01
RMM:   2    -0.233148526365E+04   -0.99957E-01   -0.96464E-01  6237   0.552E-01    0.110E+00
RMM:   3    -0.233148571949E+04   -0.45584E-03   -0.10087E-01  6128   0.211E-01    0.876E-01
RMM:   4    -0.233148011057E+04    0.56089E-02   -0.13395E-02  5798   0.558E-02    0.475E-01
RMM:   5    -0.233147800090E+04    0.21097E-02   -0.40352E-03  5437   0.316E-02    0.236E-01
RMM:   6    -0.233147732323E+04    0.67768E-03   -0.23273E-03  4699   0.291E-02    0.110E-01
RMM:   7    -0.233147730993E+04    0.13291E-04   -0.49500E-04  4170   0.217E-02    0.851E-02
RMM:   8    -0.233147723616E+04    0.73778E-04   -0.14698E-04  3320   0.636E-03    0.343E-02
RMM:   9    -0.233147721394E+04    0.22217E-04   -0.40737E-05  2935   0.517E-03    0.155E-02
RMM:  10    -0.233147720920E+04    0.47375E-05   -0.21270E-05  2982   0.368E-03
  32 F= -.23528751E+04 E0= -.23528750E+04  d E =-.565314E-01  mag=     4.0000
       N       E                     dE             d eps       ncg     rms          rms(c)
DAV:   1    -0.233142879458E+04    0.48419E-01   -0.54123E+00  4512   0.211E+00    0.765E-01
RMM:   2    -0.233152642078E+04   -0.97626E-01   -0.85324E-01  6372   0.482E-01    0.139E+00
RMM:   3    -0.233151371968E+04    0.12701E-01   -0.88871E-02  6227   0.184E-01    0.578E-01
RMM:   4    -0.233151229683E+04    0.14228E-02   -0.11358E-02  5751   0.466E-02    0.393E-01
RMM:   5    -0.233151076298E+04    0.15339E-02   -0.27353E-03  5309   0.249E-02    0.203E-01
RMM:   6    -0.233151038449E+04    0.37849E-03   -0.17476E-03  4804   0.231E-02    0.141E-01
RMM:   7    -0.233151027997E+04    0.10452E-03   -0.47987E-04  3958   0.192E-02    0.865E-02
RMM:   8    -0.233151020692E+04    0.73054E-04   -0.13120E-04  3049   0.594E-03    0.304E-02
RMM:   9    -0.233151019220E+04    0.14722E-04   -0.28151E-05  2933   0.421E-03    0.153E-02
RMM:  10    -0.233151018820E+04    0.39979E-05   -0.16777E-05  2944   0.304E-03
  33 F= -.23529102E+04 E0= -.23529102E+04  d E =-.351148E-01  mag=     4.0000
       N       E                     dE             d eps       ncg     rms          rms(c)
DAV:   1    -0.233141483268E+04    0.95360E-01   -0.70692E+00  4512   0.241E+00    0.872E-01
RMM:   2    -0.233154196873E+04   -0.12714E+00   -0.11160E+00  6380   0.552E-01    0.158E+00
RMM:   3    -0.233152623828E+04    0.15730E-01   -0.11677E-01  6222   0.209E-01    0.660E-01
RMM:   4    -0.233152429673E+04    0.19415E-02   -0.14694E-02  5827   0.530E-02    0.442E-01
RMM:   5    -0.233152239384E+04    0.19029E-02   -0.36513E-03  5453   0.283E-02    0.235E-01
RMM:   6    -0.233152184486E+04    0.54898E-03   -0.22750E-03  4794   0.263E-02    0.159E-01
RMM:   7    -0.233152168773E+04    0.15713E-03   -0.56368E-04  4087   0.216E-02    0.846E-02
RMM:   8    -0.233152162325E+04    0.64488E-04   -0.14943E-04  3145   0.634E-03    0.372E-02
RMM:   9    -0.233152160227E+04    0.20978E-04   -0.37104E-05  2933   0.470E-03    0.181E-02
RMM:  10    -0.233152159624E+04    0.60272E-05   -0.23738E-05  2967   0.350E-03
  34 F= -.23529241E+04 E0= -.23529240E+04  d E =-.490082E-01  mag=     4.0000
       N       E                     dE             d eps       ncg     rms          rms(c)
DAV:   1    -0.233149783098E+04    0.23771E-01   -0.21082E+00  4544   0.131E+00    0.508E-01
RMM:   2    -0.233154218085E+04   -0.44350E-01   -0.40092E-01  6300   0.322E-01    0.868E-01
RMM:   3    -0.233153797891E+04    0.42019E-02   -0.41502E-02  6094   0.125E-01    0.386E-01
RMM:   4    -0.233153690964E+04    0.10693E-02   -0.49135E-03  5313   0.311E-02    0.199E-01
RMM:   5    -0.233153666800E+04    0.24164E-03   -0.11156E-03  4728   0.177E-02    0.163E-01
RMM:   6    -0.233153632686E+04    0.34114E-03   -0.73848E-04  4825   0.160E-02    0.790E-02
RMM:   7    -0.233153630825E+04    0.18613E-04   -0.25508E-04  3599   0.131E-02    0.616E-02
RMM:   8    -0.233153627324E+04    0.35012E-04   -0.75758E-05  2969   0.521E-03    0.231E-02
RMM:   9    -0.233153626467E+04    0.85703E-05   -0.13876E-05  2927   0.347E-03
  35 F= -.23529395E+04 E0= -.23529395E+04  d E =-.154159E-01  mag=     4.0000
       N       E                     dE             d eps       ncg     rms          rms(c)
DAV:   1    -0.233151204353E+04    0.24230E-01   -0.15293E+00  4576   0.112E+00    0.432E-01
RMM:   2    -0.233154406808E+04   -0.32025E-01   -0.29077E-01  6293   0.275E-01    0.729E-01
RMM:   3    -0.233154114764E+04    0.29204E-02   -0.30086E-02  6090   0.106E-01    0.328E-01
RMM:   4    -0.233154035518E+04    0.79246E-03   -0.35227E-03  5124   0.265E-02    0.166E-01
RMM:   5    -0.233154019683E+04    0.15835E-03   -0.80207E-04  4313   0.155E-02    0.140E-01
RMM:   6    -0.233153993908E+04    0.25775E-03   -0.54667E-04  4721   0.141E-02    0.658E-02
RMM:   7    -0.233153992657E+04    0.12508E-04   -0.18400E-04  3328   0.116E-02    0.532E-02
RMM:   8    -0.233153989996E+04    0.26616E-04   -0.56259E-05  2959   0.482E-03    0.189E-02
RMM:   9    -0.233153989357E+04    0.63894E-05   -0.10846E-05  2926   0.325E-03
  36 F= -.23529438E+04 E0= -.23529437E+04  d E =-.196868E-01  mag=     4.0000
       N       E                     dE             d eps       ncg     rms          rms(c)
DAV:   1    -0.233149782582E+04    0.42074E-01   -0.28567E+00  4512   0.151E+00    0.584E-01
RMM:   2    -0.233155777928E+04   -0.59953E-01   -0.57365E-01  6359   0.381E-01    0.838E-01
RMM:   3    -0.233155662721E+04    0.11521E-02   -0.58583E-02  6174   0.143E-01    0.513E-01
RMM:   4    -0.233155446555E+04    0.21617E-02   -0.67263E-03  5557   0.349E-02    0.222E-01
RMM:   5    -0.233155411824E+04    0.34731E-03   -0.13409E-03  4849   0.174E-02    0.178E-01
RMM:   6    -0.233155368541E+04    0.43283E-03   -0.86171E-04  4970   0.166E-02    0.714E-02
RMM:   7    -0.233155369164E+04   -0.62305E-05   -0.34298E-04  3946   0.135E-02    0.645E-02
RMM:   8    -0.233155365285E+04    0.38782E-04   -0.85830E-05  3011   0.572E-03    0.244E-02
RMM:   9    -0.233155364266E+04    0.10190E-04   -0.17125E-05  2916   0.376E-03    0.125E-02
RMM:  10    -0.233155363978E+04    0.28796E-05   -0.13237E-05  2928   0.264E-03
  37 F= -.23529581E+04 E0= -.23529580E+04  d E =-.142977E-01  mag=     4.0000
       N       E                     dE             d eps       ncg     rms          rms(c)
DAV:   1    -0.233152769667E+04    0.25946E-01   -0.14694E+00  4544   0.109E+00    0.418E-01
RMM:   2    -0.233155833987E+04   -0.30643E-01   -0.29408E-01  6359   0.273E-01    0.593E-01
RMM:   3    -0.233155788997E+04    0.44990E-03   -0.30030E-02  6131   0.102E-01    0.369E-01
RMM:   4    -0.233155675273E+04    0.11372E-02   -0.34247E-03  5112   0.250E-02    0.155E-01
RMM:   5    -0.233155658962E+04    0.16310E-03   -0.66857E-04  3842   0.129E-02    0.128E-01
RMM:   6    -0.233155636405E+04    0.22557E-03   -0.45658E-04  4634   0.128E-02    0.494E-02
RMM:   7    -0.233155636789E+04   -0.38355E-05   -0.17074E-04  3303   0.103E-02    0.456E-02
RMM:   8    -0.233155634844E+04    0.19449E-04   -0.45027E-05  2957   0.504E-03    0.168E-02
RMM:   9    -0.233155634315E+04    0.52859E-05   -0.97983E-06  2902   0.321E-03
  38 F= -.23529612E+04 E0= -.23529612E+04  d E =-.174036E-01  mag=     4.0000
       N       E                     dE             d eps       ncg     rms          rms(c)
DAV:   1    -0.233150929855E+04    0.47050E-01   -0.28796E+00  4512   0.150E+00    0.581E-01
RMM:   2    -0.233157211039E+04   -0.62812E-01   -0.61648E-01  6541   0.390E-01    0.746E-01
RMM:   3    -0.233157238047E+04   -0.27007E-03   -0.58937E-02  6324   0.136E-01    0.513E-01
RMM:   4    -0.233157066634E+04    0.17141E-02   -0.75764E-03  5721   0.353E-02    0.296E-01
RMM:   5    -0.233156979358E+04    0.87276E-03   -0.14629E-03  4641   0.172E-02    0.151E-01
RMM:   6    -0.233156948259E+04    0.31099E-03   -0.83910E-04  4909   0.172E-02    0.627E-02
RMM:   7    -0.233156948179E+04    0.79590E-06   -0.23466E-04  3738   0.124E-02    0.421E-02
RMM:   8    -0.233156946829E+04    0.13501E-04   -0.53707E-05  2979   0.505E-03    0.258E-02
RMM:   9    -0.233156945878E+04    0.95126E-05   -0.17122E-05  2906   0.361E-03
  39 F= -.23529756E+04 E0= -.23529756E+04  d E =-.144265E-01  mag=     4.0000
       N       E                     dE             d eps       ncg     rms          rms(c)
DAV:   1    -0.233146797344E+04    0.10149E+00   -0.50892E+00  4512   0.199E+00    0.776E-01
RMM:   2    -0.233157977451E+04   -0.11180E+00   -0.10950E+00  6526   0.518E-01    0.101E+00
RMM:   3    -0.233157980712E+04   -0.32613E-04   -0.10518E-01  6355   0.181E-01    0.682E-01
RMM:   4    -0.233157685022E+04    0.29569E-02   -0.13541E-02  5924   0.469E-02    0.400E-01
RMM:   5    -0.233157524754E+04    0.16027E-02   -0.26125E-03  5227   0.225E-02    0.200E-01
RMM:   6    -0.233157469491E+04    0.55264E-03   -0.14734E-03  5047   0.222E-02    0.856E-02
RMM:   7    -0.233157467086E+04    0.24050E-04   -0.40581E-04  4310   0.158E-02    0.391E-02
RMM:   8    -0.233157466326E+04    0.75985E-05   -0.78220E-05  3033   0.570E-03
  40 F= -.23529825E+04 E0= -.23529825E+04  d E =-.213824E-01  mag=     4.0000
       N       E                     dE             d eps       ncg     rms          rms(c)
DAV:   1    -0.233150305992E+04    0.71611E-01   -0.35680E+00  4512   0.163E+00    0.665E-01
RMM:   2    -0.233159087146E+04   -0.87812E-01   -0.85345E-01  6611   0.441E-01    0.920E-01
RMM:   3    -0.233158916307E+04    0.17084E-02   -0.83536E-02  6365   0.156E-01    0.547E-01
RMM:   4    -0.233158767503E+04    0.14880E-02   -0.10795E-02  5792   0.391E-02    0.377E-01
RMM:   5    -0.233158621938E+04    0.14556E-02   -0.18236E-03  4655   0.179E-02    0.162E-01
RMM:   6    -0.233158583469E+04    0.38469E-03   -0.12560E-03  5294   0.185E-02    0.835E-02
RMM:   7    -0.233158583370E+04    0.99011E-06   -0.37753E-04  3934   0.136E-02    0.598E-02
RMM:   8    -0.233158579897E+04    0.34736E-04   -0.86901E-05  2989   0.588E-03    0.326E-02
RMM:   9    -0.233158578451E+04    0.14455E-04   -0.23859E-05  2925   0.407E-03    0.126E-02
RMM:  10    -0.233158578166E+04    0.28480E-05   -0.12732E-05  2941   0.247E-03
  41 F= -.23529956E+04 E0= -.23529956E+04  d E =-.130946E-01  mag=     4.0000
       N       E                     dE             d eps       ncg     rms          rms(c)
DAV:   1    -0.233141599937E+04    0.16979E+00   -0.74187E+00  4512   0.236E+00    0.956E-01
RMM:   2    -0.233159976677E+04   -0.18377E+00   -0.17842E+00  6613   0.639E-01    0.133E+00
RMM:   3    -0.233159571087E+04    0.40559E-02   -0.17662E-01  6409   0.226E-01    0.782E-01
RMM:   4    -0.233159279708E+04    0.29138E-02   -0.22185E-02  6065   0.560E-02    0.561E-01
RMM:   5    -0.233158966853E+04    0.31286E-02   -0.38121E-03  5300   0.250E-02    0.237E-01
RMM:   6    -0.233158886247E+04    0.80606E-03   -0.25643E-03  5454   0.253E-02    0.137E-01
RMM:   7    -0.233158886414E+04   -0.16758E-05   -0.93542E-04  4600   0.194E-02    0.111E-01
RMM:   8    -0.233158874124E+04    0.12291E-03   -0.22968E-04  3262   0.851E-03    0.479E-02
RMM:   9    -0.233158871275E+04    0.28490E-04   -0.51077E-05  2949   0.583E-03    0.211E-02
RMM:  10    -0.233158870572E+04    0.70275E-05   -0.24607E-05  2952   0.336E-03
  42 F= -.23530014E+04 E0= -.23530013E+04  d E =-.189004E-01  mag=     4.0000
       N       E                     dE             d eps       ncg     rms          rms(c)
DAV:   1    -0.233148178384E+04    0.10693E+00   -0.51049E+00  4512   0.196E+00    0.807E-01
RMM:   2    -0.233161066670E+04   -0.12888E+00   -0.12081E+00  6569   0.526E-01    0.130E+00
RMM:   3    -0.233160284653E+04    0.78202E-02   -0.11738E-01  6357   0.184E-01    0.657E-01
RMM:   4    -0.233160105841E+04    0.17881E-02   -0.16086E-02  5987   0.478E-02    0.456E-01
RMM:   5    -0.233159883174E+04    0.22267E-02   -0.28410E-03  5207   0.220E-02    0.199E-01
RMM:   6    -0.233159837523E+04    0.45651E-03   -0.16359E-03  5292   0.201E-02    0.139E-01
RMM:   7    -0.233159837543E+04   -0.20926E-06   -0.86031E-04  4396   0.177E-02    0.126E-01
RMM:   8    -0.233159820953E+04    0.16590E-03   -0.23843E-04  3275   0.853E-03    0.386E-02
RMM:   9    -0.233159819397E+04    0.15557E-04   -0.36682E-05  2940   0.546E-03    0.238E-02
RMM:  10    -0.233159818893E+04    0.50471E-05   -0.19395E-05  2931   0.295E-03
  43 F= -.23530131E+04 E0= -.23530128E+04  d E =-.116591E-01  mag=     4.0000
       N       E                     dE             d eps       ncg     rms          rms(c)
DAV:   1    -0.233150426231E+04    0.93932E-01   -0.41780E+00  4512   0.177E+00    0.730E-01
RMM:   2    -0.233160958664E+04   -0.10532E+00   -0.98520E-01  6573   0.474E-01    0.119E+00
RMM:   3    -0.233160314102E+04    0.64456E-02   -0.96038E-02  6342   0.167E-01    0.584E-01
RMM:   4    -0.233160183019E+04    0.13108E-02   -0.13145E-02  5896   0.432E-02    0.416E-01
RMM:   5    -0.233160000841E+04    0.18218E-02   -0.23363E-03  5058   0.202E-02    0.185E-01
RMM:   6    -0.233159964975E+04    0.35866E-03   -0.13925E-03  5239   0.185E-02    0.137E-01
RMM:   7    -0.233159962875E+04    0.20996E-04   -0.75560E-04  4217   0.163E-02    0.120E-01
RMM:   8    -0.233159947947E+04    0.14928E-03   -0.20916E-04  3220   0.816E-03    0.357E-02
RMM:   9    -0.233159946845E+04    0.11028E-04   -0.32067E-05  2934   0.531E-03    0.249E-02
RMM:  10    -0.233159946390E+04    0.45416E-05   -0.16674E-05  2922   0.279E-03
  44 F= -.23530164E+04 E0= -.23530159E+04  d E =-.149292E-01  mag=     4.0000
       N       E                     dE             d eps       ncg     rms          rms(c)
DAV:   1    -0.233145813568E+04    0.14133E+00   -0.66073E+00  4512   0.215E+00    0.926E-01
RMM:   2    -0.233163472246E+04   -0.17659E+00   -0.16224E+00  6598   0.587E-01    0.164E+00
RMM:   3    -0.233161991024E+04    0.14812E-01   -0.16176E-01  6388   0.210E-01    0.711E-01
RMM:   4    -0.233161795300E+04    0.19572E-02   -0.21499E-02  5989   0.549E-02    0.481E-01
RMM:   5    -0.233161552886E+04    0.24241E-02   -0.37730E-03  5370   0.245E-02    0.253E-01
RMM:   6    -0.233161496237E+04    0.56649E-03   -0.16686E-03  5128   0.196E-02    0.184E-01
RMM:   7    -0.233161493595E+04    0.26415E-04   -0.14999E-03  4716   0.207E-02    0.169E-01
RMM:   8    -0.233161464459E+04    0.29137E-03   -0.44647E-04  3771   0.109E-02    0.506E-02
RMM:   9    -0.233161462781E+04    0.16780E-04   -0.53284E-05  2949   0.605E-03    0.399E-02
RMM:  10    -0.233161461723E+04    0.10579E-04   -0.30506E-05  2941   0.351E-03    0.173E-02
RMM:  11    -0.233161461504E+04    0.21902E-05   -0.12220E-05  2927   0.277E-03
  45 F= -.23530334E+04 E0= -.23530329E+04  d E =-.170560E-01  mag=     4.0000
       N       E                     dE             d eps       ncg     rms          rms(c)
DAV:   1    -0.233145245892E+04    0.16216E+00   -0.70698E+00  4512   0.222E+00    0.960E-01
RMM:   2    -0.233164169503E+04   -0.18924E+00   -0.17368E+00  6585   0.608E-01    0.169E+00
RMM:   3    -0.233162567339E+04    0.16022E-01   -0.17651E-01  6383   0.221E-01    0.717E-01
RMM:   4    -0.233162372072E+04    0.19527E-02   -0.23070E-02  6023   0.568E-02    0.492E-01
RMM:   5    -0.233162119362E+04    0.25271E-02   -0.39563E-03  5380   0.250E-02    0.265E-01
RMM:   6    -0.233162058445E+04    0.60917E-03   -0.17935E-03  5173   0.201E-02    0.194E-01
RMM:   7    -0.233162053951E+04    0.44941E-04   -0.16437E-03  4789   0.213E-02    0.176E-01
RMM:   8    -0.233162022652E+04    0.31300E-03   -0.49036E-04  3898   0.114E-02    0.559E-02
RMM:   9    -0.233162020747E+04    0.19051E-04   -0.58063E-05  2943   0.622E-03    0.437E-02
RMM:  10    -0.233162019545E+04    0.12017E-04   -0.35851E-05  2944   0.377E-03    0.192E-02
RMM:  11    -0.233162019301E+04    0.24389E-05   -0.14418E-05  2938   0.295E-03
  46 F= -.23530410E+04 E0= -.23530405E+04  d E =-.246426E-01  mag=     3.9999
       N       E                     dE             d eps       ncg     rms          rms(c)
DAV:   1    -0.233143418270E+04    0.18601E+00   -0.89203E+00  4512   0.253E+00    0.108E+00
RMM:   2    -0.233165628462E+04   -0.22210E+00   -0.20785E+00  6489   0.679E-01    0.172E+00
RMM:   3    -0.233164303008E+04    0.13255E-01   -0.21275E-01  6305   0.253E-01    0.827E-01
RMM:   4    -0.233163966768E+04    0.33624E-02   -0.26949E-02  6135   0.638E-02    0.520E-01
RMM:   5    -0.233163682509E+04    0.28426E-02   -0.49516E-03  5577   0.285E-02    0.296E-01
RMM:   6    -0.233163593933E+04    0.88576E-03   -0.20418E-03  5191   0.226E-02    0.189E-01
RMM:   7    -0.233163594172E+04   -0.23861E-05   -0.19017E-03  4926   0.243E-02    0.180E-01
RMM:   8    -0.233163562065E+04    0.32106E-03   -0.53988E-04  4145   0.120E-02    0.643E-02
RMM:   9    -0.233163558740E+04    0.33254E-04   -0.61830E-05  2951   0.651E-03    0.433E-02
RMM:  10    -0.233163557152E+04    0.15878E-04   -0.46295E-05  2953   0.410E-03    0.173E-02
RMM:  11    -0.233163556830E+04    0.32237E-05   -0.16586E-05  2945   0.322E-03
  47 F= -.23530584E+04 E0= -.23530580E+04  d E =-.173997E-01  mag=     3.9999
       N       E                     dE             d eps       ncg     rms          rms(c)
DAV:   1    -0.233160705928E+04    0.28512E-01   -0.13052E+00  4576   0.967E-01    0.406E-01
RMM:   2    -0.233163888207E+04   -0.31823E-01   -0.29846E-01  6492   0.254E-01    0.645E-01
RMM:   3    -0.233163728181E+04    0.16003E-02   -0.30399E-02  6167   0.955E-02    0.305E-01
RMM:   4    -0.233163679253E+04    0.48928E-03   -0.37409E-03  4839   0.240E-02    0.186E-01
RMM:   5    -0.233163643813E+04    0.35440E-03   -0.67681E-04  3556   0.115E-02    0.112E-01
RMM:   6    -0.233163629852E+04    0.13961E-03   -0.31949E-04  4099   0.104E-02    0.654E-02
RMM:   7    -0.233163630276E+04   -0.42425E-05   -0.24396E-04  3207   0.100E-02    0.627E-02
RMM:   8    -0.233163626347E+04    0.39291E-04   -0.67676E-05  2954   0.609E-03    0.230E-02
RMM:   9    -0.233163625855E+04    0.49146E-05   -0.97508E-06  2908   0.354E-03
  48 F= -.23530599E+04 E0= -.23530595E+04  d E =-.188745E-01  mag=     3.9998
       N       E                     dE             d eps       ncg     rms          rms(c)
DAV:   1    -0.233142730769E+04    0.20896E+00   -0.94479E+00  4512   0.252E+00    0.110E+00
RMM:   2    -0.233166592366E+04   -0.23862E+00   -0.22570E+00  6595   0.689E-01    0.167E+00
RMM:   3    -0.233165498499E+04    0.10939E-01   -0.22708E-01  6369   0.248E-01    0.804E-01
RMM:   4    -0.233165273972E+04    0.22453E-02   -0.29247E-02  6107   0.634E-02    0.585E-01
RMM:   5    -0.233164928053E+04    0.34592E-02   -0.50721E-03  5532   0.283E-02    0.300E-01
RMM:   6    -0.233164841816E+04    0.86236E-03   -0.23653E-03  5221   0.240E-02    0.189E-01
RMM:   7    -0.233164844209E+04   -0.23929E-04   -0.17999E-03  4756   0.224E-02    0.175E-01
RMM:   8    -0.233164816789E+04    0.27420E-03   -0.52266E-04  3878   0.114E-02    0.782E-02
RMM:   9    -0.233164812678E+04    0.41116E-04   -0.73837E-05  2953   0.648E-03    0.478E-02
RMM:  10    -0.233164811129E+04    0.15482E-04   -0.49596E-05  2947   0.392E-03    0.197E-02
RMM:  11    -0.233164810915E+04    0.21442E-05   -0.17013E-05  2945   0.304E-03
  49 F= -.23530745E+04 E0= -.23530741E+04  d E =-.145642E-01  mag=     3.9998
       N       E                     dE             d eps       ncg     rms          rms(c)
DAV:   1    -0.233150598470E+04    0.14213E+00   -0.61361E+00  4512   0.203E+00    0.884E-01
RMM:   2    -0.233166062620E+04   -0.15464E+00   -0.14596E+00  6577   0.549E-01    0.136E+00
RMM:   3    -0.233165331260E+04    0.73136E-02   -0.14712E-01  6344   0.200E-01    0.625E-01
RMM:   4    -0.233165200595E+04    0.13067E-02   -0.18732E-02  5946   0.507E-02    0.459E-01
RMM:   5    -0.233164989420E+04    0.21117E-02   -0.32303E-03  5244   0.229E-02    0.244E-01
RMM:   6    -0.233164933123E+04    0.56297E-03   -0.15679E-03  5069   0.198E-02    0.156E-01
RMM:   7    -0.233164933978E+04   -0.85558E-05   -0.11633E-03  4330   0.181E-02    0.143E-01
RMM:   8    -0.233164915335E+04    0.18644E-03   -0.33965E-04  3391   0.957E-03    0.617E-02
RMM:   9    -0.233164912762E+04    0.25728E-04   -0.47155E-05  2927   0.585E-03    0.392E-02
RMM:  10    -0.233164911698E+04    0.10643E-04   -0.34955E-05  2944   0.338E-03    0.153E-02
RMM:  11    -0.233164911599E+04    0.98300E-06   -0.10821E-05  2933   0.257E-03
  50 F= -.23530777E+04 E0= -.23530773E+04  d E =-.177979E-01  mag=     3.9998
       N       E                     dE             d eps       ncg     rms          rms(c)
DAV:   1    -0.233150472308E+04    0.14439E+00   -0.62695E+00  4512   0.202E+00    0.904E-01
RMM:   2    -0.233167043313E+04   -0.16571E+00   -0.15787E+00  6637   0.562E-01    0.136E+00
RMM:   3    -0.233166402927E+04    0.64039E-02   -0.15787E-01  6314   0.204E-01    0.609E-01
RMM:   4    -0.233166309471E+04    0.93456E-03   -0.19869E-02  5942   0.509E-02    0.497E-01
RMM:   5    -0.233166087127E+04    0.22234E-02   -0.32868E-03  5107   0.223E-02    0.276E-01
RMM:   6    -0.233166020839E+04    0.66288E-03   -0.22188E-03  5233   0.222E-02    0.174E-01
RMM:   7    -0.233166021133E+04   -0.29438E-05   -0.12831E-03  4119   0.178E-02    0.154E-01
RMM:   8    -0.233166001364E+04    0.19769E-03   -0.36667E-04  3396   0.963E-03    0.773E-02
RMM:   9    -0.233165998265E+04    0.30985E-04   -0.74450E-05  2940   0.636E-03    0.465E-02
RMM:  10    -0.233165997320E+04    0.94482E-05   -0.37931E-05  2957   0.337E-03
  51 F= -.23530910E+04 E0= -.23530906E+04  d E =-.133124E-01  mag=     3.9999
       N       E                     dE             d eps       ncg     rms          rms(c)
DAV:   1    -0.233131641062E+04    0.34357E+00   -0.13881E+01  4512   0.301E+00    0.136E+00
RMM:   2    -0.233169063689E+04   -0.37423E+00   -0.35521E+00  6630   0.844E-01    0.210E+00
RMM:   3    -0.233167207753E+04    0.18559E-01   -0.35943E-01  6328   0.308E-01    0.828E-01
RMM:   4    -0.233167118928E+04    0.88825E-03   -0.43515E-02  6138   0.750E-02    0.752E-01
RMM:   5    -0.233166660609E+04    0.45832E-02   -0.72867E-03  5556   0.329E-02    0.445E-01
RMM:   6    -0.233166512656E+04    0.14795E-02   -0.50301E-03  5379   0.321E-02    0.289E-01
RMM:   7    -0.233166502930E+04    0.97261E-04   -0.32132E-03  4938   0.270E-02    0.249E-01
RMM:   8    -0.233166452009E+04    0.50921E-03   -0.97276E-04  4714   0.144E-02    0.119E-01
RMM:   9    -0.233166444787E+04    0.72215E-04   -0.20219E-04  3006   0.888E-03    0.684E-02
RMM:  10    -0.233166443390E+04    0.13979E-04   -0.85848E-05  3002   0.505E-03    0.325E-02
RMM:  11    -0.233166443727E+04   -0.33696E-05   -0.26604E-05  2957   0.405E-03
  52 F= -.23530992E+04 E0= -.23530987E+04  d E =-.215156E-01  mag=     3.9999
       N       E                     dE             d eps       ncg     rms          rms(c)
DAV:   1    -0.233152172806E+04    0.14271E+00   -0.62459E+00  4512   0.202E+00    0.897E-01
RMM:   2    -0.233168301614E+04   -0.16129E+00   -0.15575E+00  6587   0.562E-01    0.128E+00
RMM:   3    -0.233167980066E+04    0.32155E-02   -0.15831E-01  6314   0.208E-01    0.587E-01
RMM:   4    -0.233167827524E+04    0.15254E-02   -0.18579E-02  5956   0.507E-02    0.455E-01
RMM:   5    -0.233167695385E+04    0.13214E-02   -0.31303E-03  5132   0.231E-02    0.333E-01
RMM:   6    -0.233167598671E+04    0.96714E-03   -0.28829E-03  5227   0.260E-02    0.178E-01
RMM:   7    -0.233167602895E+04   -0.42238E-04   -0.13839E-03  4305   0.191E-02    0.170E-01
RMM:   8    -0.233167579290E+04    0.23605E-03   -0.43341E-04  3813   0.101E-02    0.894E-02
RMM:   9    -0.233167576170E+04    0.31205E-04   -0.10894E-04  2961   0.699E-03    0.510E-02
RMM:  10    -0.233167575498E+04    0.67165E-05   -0.42253E-05  2967   0.379E-03
  53 F= -.23531130E+04 E0= -.23531124E+04  d E =-.137576E-01  mag=     4.0000
       N       E                     dE             d eps       ncg     rms          rms(c)
DAV:   1    -0.233155140827E+04    0.12435E+00   -0.50978E+00  4528   0.182E+00    0.810E-01
RMM:   2    -0.233168229023E+04   -0.13088E+00   -0.12700E+00  6586   0.505E-01    0.113E+00
RMM:   3    -0.233168071067E+04    0.15796E-02   -0.13005E-01  6291   0.187E-01    0.517E-01
RMM:   4    -0.233167928203E+04    0.14286E-02   -0.14777E-02  5846   0.452E-02    0.389E-01
RMM:   5    -0.233167852917E+04    0.75286E-03   -0.24426E-03  4934   0.208E-02    0.313E-01
RMM:   6    -0.233167761706E+04    0.91211E-03   -0.24178E-03  5204   0.242E-02    0.147E-01
RMM:   7    -0.233167767331E+04   -0.56255E-04   -0.10360E-03  4017   0.167E-02    0.146E-01
RMM:   8    -0.233167749521E+04    0.17811E-03   -0.33018E-04  3432   0.901E-03    0.778E-02
RMM:   9    -0.233167746771E+04    0.27497E-04   -0.86512E-05  2948   0.639E-03    0.415E-02
RMM:  10    -0.233167746470E+04    0.30126E-05   -0.32969E-05  2962   0.355E-03
  54 F= -.23531169E+04 E0= -.23531163E+04  d E =-.176956E-01  mag=     4.0000
       N       E                     dE             d eps       ncg     rms          rms(c)
DAV:   1    -0.233151505712E+04    0.16241E+00   -0.68932E+00  4512   0.207E+00    0.933E-01
RMM:   2    -0.233169401353E+04   -0.17896E+00   -0.17438E+00  6657   0.577E-01    0.126E+00
RMM:   3    -0.233169376081E+04    0.25271E-03   -0.18299E-01  6321   0.215E-01    0.601E-01
RMM:   4    -0.233169147398E+04    0.22868E-02   -0.19994E-02  5801   0.506E-02    0.415E-01
RMM:   5    -0.233169078484E+04    0.68915E-03   -0.28861E-03  5080   0.216E-02    0.358E-01
RMM:   6    -0.233168959484E+04    0.11900E-02   -0.27916E-03  5108   0.251E-02    0.160E-01
RMM:   7    -0.233168966514E+04   -0.70301E-04   -0.13309E-03  4158   0.174E-02    0.154E-01
RMM:   8    -0.233168948319E+04    0.18195E-03   -0.46014E-04  3456   0.984E-03    0.961E-02
RMM:   9    -0.233168943278E+04    0.50409E-04   -0.12084E-04  2959   0.706E-03    0.451E-02
RMM:  10    -0.233168943176E+04    0.10248E-05   -0.41045E-05  2971   0.369E-03
  55 F= -.23531314E+04 E0= -.23531308E+04  d E =-.144843E-01  mag=     4.0000
       N       E                     dE             d eps       ncg     rms          rms(c)
DAV:   1    -0.233122667488E+04    0.46276E+00   -0.18273E+01  4512   0.337E+00    0.153E+00
RMM:   2    -0.233170742665E+04   -0.48075E+00   -0.47150E+00  6651   0.955E-01    0.197E+00
RMM:   3    -0.233170903122E+04   -0.16046E-02   -0.50391E-01  6329   0.357E-01    0.947E-01
RMM:   4    -0.233170229565E+04    0.67356E-02   -0.51991E-02  6005   0.818E-02    0.634E-01
RMM:   5    -0.233170113116E+04    0.11645E-02   -0.70512E-03  5622   0.337E-02    0.575E-01
RMM:   6    -0.233169798526E+04    0.31459E-02   -0.66898E-03  5390   0.380E-02    0.242E-01
RMM:   7    -0.233169787110E+04    0.11416E-03   -0.30158E-03  4980   0.262E-02    0.169E-01
RMM:   8    -0.233169773042E+04    0.14067E-03   -0.84083E-04  4117   0.131E-02    0.143E-01
RMM:   9    -0.233169756998E+04    0.16045E-03   -0.31553E-04  3171   0.978E-03    0.465E-02
RMM:  10    -0.233169758560E+04   -0.15625E-04   -0.77898E-05  3038   0.527E-03    0.227E-02
RMM:  11    -0.233169760852E+04   -0.22924E-04   -0.25243E-05  2942   0.466E-03    0.119E-02
RMM:  12    -0.233169761968E+04   -0.11152E-04   -0.67347E-06  2893   0.293E-03    0.877E-03
RMM:  13    -0.233169762792E+04   -0.82476E-05   -0.41564E-06  2827   0.235E-03
  56 F= -.23531437E+04 E0= -.23531432E+04  d E =-.267959E-01  mag=     4.0000
       N       E                     dE             d eps       ncg     rms          rms(c)
DAV:   1    -0.233148721750E+04    0.21040E+00   -0.92504E+00  4512   0.255E+00    0.111E+00
RMM:   2    -0.233171711697E+04   -0.22990E+00   -0.22595E+00  6502   0.687E-01    0.135E+00
RMM:   3    -0.233171919724E+04   -0.20803E-02   -0.24828E-01  6305   0.269E-01    0.686E-01
RMM:   4    -0.233171485101E+04    0.43462E-02   -0.24736E-02  5893   0.611E-02    0.392E-01
RMM:   5    -0.233171502182E+04   -0.17081E-03   -0.40660E-03  5625   0.293E-02    0.422E-01
RMM:   6    -0.233171317217E+04    0.18496E-02   -0.33279E-03  5529   0.281E-02    0.156E-01
RMM:   7    -0.233171296164E+04    0.21053E-03   -0.94194E-04  4739   0.172E-02    0.585E-02
RMM:   8    -0.233171293763E+04    0.24012E-04   -0.13920E-04  3099   0.806E-03    0.499E-02
RMM:   9    -0.233171292764E+04    0.99905E-05   -0.87208E-05  2962   0.557E-03
  57 F= -.23531618E+04 E0= -.23531614E+04  d E =-.181190E-01  mag=     4.0000
       N       E                     dE             d eps       ncg     rms          rms(c)
DAV:   1    -0.233168935432E+04    0.23583E-01   -0.98542E-01  4608   0.830E-01    0.363E-01
RMM:   2    -0.233171344531E+04   -0.24091E-01   -0.23821E-01  6503   0.220E-01    0.423E-01
RMM:   3    -0.233171389327E+04   -0.44796E-03   -0.25609E-02  6000   0.864E-02    0.227E-01
RMM:   4    -0.233171339295E+04    0.50032E-03   -0.26019E-03  4759   0.201E-02    0.120E-01
RMM:   5    -0.233171336247E+04    0.30477E-04   -0.41200E-04  3826   0.111E-02    0.115E-01
RMM:   6    -0.233171326377E+04    0.98700E-04   -0.32557E-04  3335   0.102E-02    0.641E-02
RMM:   7    -0.233171321709E+04    0.46687E-04   -0.77841E-05  3018   0.705E-03    0.159E-02
RMM:   8    -0.233171321492E+04    0.21689E-05   -0.14911E-05  2928   0.448E-03
  58 F= -.23531630E+04 E0= -.23531626E+04  d E =-.193234E-01  mag=     4.0000
       N       E                     dE             d eps       ncg     rms          rms(c)
DAV:   1    -0.233159370898E+04    0.11951E+00   -0.55457E+00  4512   0.200E+00    0.839E-01
RMM:   2    -0.233172266637E+04   -0.12896E+00   -0.12689E+00  6488   0.517E-01    0.101E+00
RMM:   3    -0.233172319267E+04   -0.52630E-03   -0.14274E-01  6263   0.204E-01    0.508E-01
RMM:   4    -0.233172076995E+04    0.24227E-02   -0.13926E-02  5682   0.456E-02    0.275E-01
RMM:   5    -0.233172069962E+04    0.70325E-04   -0.23511E-03  5318   0.229E-02    0.270E-01
RMM:   6    -0.233172003855E+04    0.66107E-03   -0.19854E-03  5314   0.215E-02    0.138E-01
RMM:   7    -0.233171995322E+04    0.85325E-04   -0.65231E-04  4211   0.137E-02    0.105E-01
RMM:   8    -0.233171981709E+04    0.13613E-03   -0.15966E-04  3002   0.708E-03    0.359E-02
RMM:   9    -0.233171979725E+04    0.19843E-04   -0.50227E-05  2935   0.489E-03    0.167E-02
RMM:  10    -0.233171979606E+04    0.11875E-05   -0.24739E-05  2966   0.338E-03
  59 F= -.23531717E+04 E0= -.23531713E+04  d E =-.864338E-02  mag=     4.0000
       N       E                     dE             d eps       ncg     rms          rms(c)
DAV:   1    -0.233171007617E+04    0.97211E-02   -0.42739E-01  4592   0.556E-01    0.231E-01
RMM:   2    -0.233171980717E+04   -0.97310E-02   -0.96662E-02  6483   0.142E-01    0.263E-01
RMM:   3    -0.233172000219E+04   -0.19502E-03   -0.10722E-02  5531   0.564E-02    0.145E-01
RMM:   4    -0.233171979539E+04    0.20680E-03   -0.10442E-03  3459   0.131E-02    0.748E-02
RMM:   5    -0.233171977869E+04    0.16702E-04   -0.17411E-04  3037   0.766E-03    0.672E-02
RMM:   6    -0.233171973696E+04    0.41733E-04   -0.15338E-04  3020   0.757E-03    0.352E-02
RMM:   7    -0.233171972712E+04    0.98340E-05   -0.35864E-05  2970   0.547E-03
  60 F= -.23531722E+04 E0= -.23531718E+04  d E =-.914228E-02  mag=     4.0000
       N       E                     dE             d eps       ncg     rms          rms(c)
DAV:   1    -0.233166007386E+04    0.59663E-01   -0.33980E+00  4512   0.166E+00    0.611E-01
RMM:   2    -0.233172620661E+04   -0.66133E-01   -0.66579E-01  6442   0.398E-01    0.645E-01
RMM:   3    -0.233172764104E+04   -0.14344E-02   -0.73727E-02  6167   0.156E-01    0.401E-01
RMM:   4    -0.233172609399E+04    0.15471E-02   -0.75005E-03  5691   0.359E-02    0.216E-01
RMM:   5    -0.233172596537E+04    0.12862E-03   -0.13915E-03  4891   0.187E-02    0.192E-01
RMM:   6    -0.233172553210E+04    0.43327E-03   -0.13128E-03  5214   0.190E-02    0.677E-02
RMM:   7    -0.233172549885E+04    0.33247E-04   -0.20527E-04  3406   0.102E-02    0.300E-02
RMM:   8    -0.233172549936E+04   -0.51070E-06   -0.48233E-05  2936   0.502E-03
  61 F= -.23531793E+04 E0= -.23531790E+04  d E =-.710574E-02  mag=     4.0000
       N       E                     dE             d eps       ncg     rms          rms(c)
DAV:   1    -0.233172074035E+04    0.47585E-02   -0.24502E-01  4688   0.445E-01    0.165E-01
RMM:   2    -0.233172548943E+04   -0.47491E-02   -0.47885E-02  6438   0.106E-01    0.172E-01
RMM:   3    -0.233172561552E+04   -0.12609E-03   -0.53362E-03  4797   0.413E-02    0.110E-01
RMM:   4    -0.233172549945E+04    0.11607E-03   -0.53780E-04  3108   0.105E-02    0.582E-02
RMM:   5    -0.233172549268E+04    0.67665E-05   -0.10408E-04  2972   0.620E-03    0.532E-02
RMM:   6    -0.233172546027E+04    0.32408E-04   -0.97415E-05  3035   0.645E-03    0.182E-02
RMM:   7    -0.233172546265E+04   -0.23811E-05   -0.22811E-05  2959   0.477E-03
  62 F= -.23531796E+04 E0= -.23531794E+04  d E =-.742262E-02  mag=     4.0000
       N       E                     dE             d eps       ncg     rms          rms(c)
DAV:   1    -0.233169877049E+04    0.26690E-01   -0.18780E+00  4528   0.133E+00    0.427E-01
RMM:   2    -0.233172881539E+04   -0.30045E-01   -0.31342E-01  6331   0.291E-01    0.331E-01
RMM:   3    -0.233173055683E+04   -0.17414E-02   -0.33585E-02  5886   0.115E-01    0.267E-01
RMM:   4    -0.233172982676E+04    0.73008E-03   -0.33008E-03  5410   0.258E-02    0.160E-01
RMM:   5    -0.233172973920E+04    0.87553E-04   -0.70331E-04  4397   0.143E-02    0.138E-01
RMM:   6    -0.233172952355E+04    0.21565E-03   -0.66829E-04  4724   0.146E-02    0.462E-02
RMM:   7    -0.233172950578E+04    0.17771E-04   -0.94926E-05  3116   0.854E-03    0.159E-02
RMM:   8    -0.233172950244E+04    0.33408E-05   -0.19027E-05  2975   0.407E-03
  63 F= -.23531845E+04 E0= -.23531844E+04  d E =-.495932E-02  mag=     4.0000
       N       E                     dE             d eps       ncg     rms          rms(c)
DAV:   1    -0.233172350606E+04    0.59997E-02   -0.36326E-01  4576   0.586E-01    0.189E-01
RMM:   2    -0.233172934857E+04   -0.58425E-02   -0.60774E-02  6286   0.128E-01    0.150E-01
RMM:   3    -0.233172967551E+04   -0.32694E-03   -0.65311E-03  5083   0.492E-02    0.122E-01
RMM:   4    -0.233172951796E+04    0.15755E-03   -0.65070E-04  3223   0.119E-02    0.697E-02
RMM:   5    -0.233172950152E+04    0.16439E-04   -0.13805E-04  2971   0.731E-03    0.612E-02
RMM:   6    -0.233172945673E+04    0.44791E-04   -0.13631E-04  3305   0.779E-03    0.188E-02
RMM:   7    -0.233172945589E+04    0.83566E-06   -0.22527E-05  2973   0.529E-03
  64 F= -.23531849E+04 E0= -.23531848E+04  d E =-.531399E-02  mag=     4.0000
       N       E                     dE             d eps       ncg     rms          rms(c)
DAV:   1    -0.233171000719E+04    0.19450E-01   -0.16734E+00  4512   0.131E+00    0.381E-01
RMM:   2    -0.233173260547E+04   -0.22598E-01   -0.23648E-01  6265   0.269E-01    0.282E-01
RMM:   3    -0.233173402190E+04   -0.14164E-02   -0.24957E-02  5726   0.106E-01    0.231E-01
RMM:   4    -0.233173345269E+04    0.56921E-03   -0.24867E-03  5297   0.237E-02    0.139E-01
RMM:   5    -0.233173338761E+04    0.65082E-04   -0.56888E-04  4447   0.136E-02    0.127E-01
RMM:   6    -0.233173321023E+04    0.17738E-03   -0.53390E-04  4613   0.137E-02    0.434E-02
RMM:   7    -0.233173319926E+04    0.10970E-04   -0.75366E-05  3099   0.819E-03    0.221E-02
RMM:   8    -0.233173319762E+04    0.16360E-05   -0.21808E-05  2922   0.425E-03
  65 F= -.23531894E+04 E0= -.23531893E+04  d E =-.452729E-02  mag=     4.0000
       N       E                     dE             d eps       ncg     rms          rms(c)
DAV:   1    -0.233172130834E+04    0.11891E-01   -0.86959E-01  4544   0.942E-01    0.275E-01
RMM:   2    -0.233173307198E+04   -0.11764E-01   -0.12316E-01  6181   0.193E-01    0.201E-01
RMM:   3    -0.233173378935E+04   -0.71737E-03   -0.12933E-02  5564   0.762E-02    0.162E-01
RMM:   4    -0.233173351055E+04    0.27880E-03   -0.12932E-03  4574   0.170E-02    0.101E-01
RMM:   5    -0.233173347597E+04    0.34579E-04   -0.29179E-04  3424   0.103E-02    0.928E-02
RMM:   6    -0.233173338104E+04    0.94928E-04   -0.28606E-04  4121   0.108E-02    0.312E-02
RMM:   7    -0.233173337496E+04    0.60815E-05   -0.42073E-05  3010   0.664E-03
  66 F= -.23531902E+04 E0= -.23531900E+04  d E =-.527259E-02  mag=     4.0000
       N       E                     dE             d eps       ncg     rms          rms(c)
DAV:   1    -0.233171665229E+04    0.16729E-01   -0.15656E+00  4512   0.127E+00    0.366E-01
RMM:   2    -0.233173664826E+04   -0.19996E-01   -0.20749E-01  6216   0.255E-01    0.298E-01
RMM:   3    -0.233173780514E+04   -0.11569E-02   -0.21599E-02  5779   0.101E-01    0.253E-01
RMM:   4    -0.233173707233E+04    0.73281E-03   -0.21789E-03  5277   0.230E-02    0.125E-01
RMM:   5    -0.233173703533E+04    0.37000E-04   -0.58676E-04  4695   0.138E-02    0.124E-01
RMM:   6    -0.233173686492E+04    0.17041E-03   -0.50972E-04  4530   0.133E-02    0.458E-02
RMM:   7    -0.233173686367E+04    0.12494E-05   -0.89597E-05  3069   0.829E-03
  67 F= -.23531942E+04 E0= -.23531940E+04  d E =-.399351E-02  mag=     4.0000
       N       E                     dE             d eps       ncg     rms          rms(c)
DAV:   1    -0.233172675122E+04    0.10114E-01   -0.75630E-01  4544   0.880E-01    0.256E-01
RMM:   2    -0.233173634536E+04   -0.95941E-02   -0.10048E-01  6223   0.178E-01    0.193E-01
RMM:   3    -0.233173697540E+04   -0.63004E-03   -0.10346E-02  5572   0.673E-02    0.172E-01
RMM:   4    -0.233173664409E+04    0.33131E-03   -0.10467E-03  4283   0.160E-02    0.884E-02
RMM:   5    -0.233173662266E+04    0.21424E-04   -0.28475E-04  3826   0.102E-02    0.857E-02
RMM:   6    -0.233173654127E+04    0.81394E-04   -0.24834E-04  3947   0.102E-02    0.317E-02
RMM:   7    -0.233173653431E+04    0.69610E-05   -0.37392E-05  3001   0.610E-03
  68 F= -.23531942E+04 E0= -.23531941E+04  d E =-.401950E-02  mag=     4.0000
       N       E                     dE             d eps       ncg     rms          rms(c)
DAV:   1    -0.233173529933E+04    0.12419E-02   -0.12796E-01  4640   0.361E-01    0.102E-01
RMM:   2    -0.233173693322E+04   -0.16339E-02   -0.16696E-02  6206   0.729E-02    0.922E-02
RMM:   3    -0.233173700897E+04   -0.75746E-04   -0.17548E-03  3577   0.274E-02    0.755E-02
RMM:   4    -0.233173694356E+04    0.65413E-04   -0.17299E-04  3004   0.791E-03    0.355E-02
RMM:   5    -0.233173694063E+04    0.29287E-05   -0.51908E-05  2979   0.493E-03
  69 F= -.23531945E+04 E0= -.23531943E+04  d E =-.427961E-02  mag=     4.0000
       N       E                     dE             d eps       ncg     rms          rms(c)
DAV:   1    -0.233172786257E+04    0.90810E-02   -0.77332E-01  4544   0.889E-01    0.271E-01
RMM:   2    -0.233173959497E+04   -0.11732E-01   -0.11946E-01  6205   0.185E-01    0.256E-01
RMM:   3    -0.233174017307E+04   -0.57810E-03   -0.13235E-02  5748   0.758E-02    0.197E-01
RMM:   4    -0.233173975704E+04    0.41603E-03   -0.12581E-03  4734   0.172E-02    0.870E-02
RMM:   5    -0.233173974355E+04    0.13494E-04   -0.28151E-04  3684   0.103E-02    0.944E-02
RMM:   6    -0.233173964633E+04    0.97220E-04   -0.26651E-04  3829   0.104E-02    0.412E-02
RMM:   7    -0.233173964599E+04    0.33547E-06   -0.74925E-05  3004   0.723E-03
  70 F= -.23531973E+04 E0= -.23531971E+04  d E =-.281838E-02  mag=     4.0000
       N       E                     dE             d eps       ncg     rms          rms(c)
DAV:   1    -0.233170539270E+04    0.34254E-01   -0.21922E+00  4512   0.150E+00    0.463E-01
RMM:   2    -0.233173896368E+04   -0.33571E-01   -0.34184E-01  6182   0.314E-01    0.443E-01
RMM:   3    -0.233174041534E+04   -0.14517E-02   -0.37547E-02  5945   0.129E-01    0.330E-01
RMM:   4    -0.233173921209E+04    0.12032E-02   -0.35898E-03  5463   0.289E-02    0.146E-01
RMM:   5    -0.233173917894E+04    0.33157E-04   -0.86278E-04  5082   0.172E-02    0.157E-01
RMM:   6    -0.233173893120E+04    0.24773E-03   -0.70232E-04  4734   0.149E-02    0.731E-02
RMM:   7    -0.233173891551E+04    0.15694E-04   -0.18103E-04  3448   0.982E-03    0.562E-02
RMM:   8    -0.233173887235E+04    0.43156E-04   -0.59369E-05  2952   0.598E-03    0.187E-02
RMM:   9    -0.233173886411E+04    0.82468E-05   -0.14397E-05  2942   0.342E-03
  71 F= -.23531967E+04 E0= -.23531966E+04  d E =-.223147E-02  mag=     4.0000
       N       E                     dE             d eps       ncg     rms          rms(c)
DAV:   1    -0.233172970371E+04    0.91686E-02   -0.68633E-01  4528   0.838E-01    0.254E-01
RMM:   2    -0.233174009665E+04   -0.10393E-01   -0.10612E-01  6225   0.174E-01    0.238E-01
RMM:   3    -0.233174062781E+04   -0.53116E-03   -0.11245E-02  5695   0.697E-02    0.190E-01
RMM:   4    -0.233174022732E+04    0.40049E-03   -0.10774E-03  4602   0.162E-02    0.790E-02
RMM:   5    -0.233174021034E+04    0.16972E-04   -0.28053E-04  3960   0.105E-02    0.814E-02
RMM:   6    -0.233174014005E+04    0.70297E-04   -0.22480E-04  3481   0.948E-03    0.359E-02
RMM:   7    -0.233174013672E+04    0.33259E-05   -0.42709E-05  2973   0.650E-03
  72 F= -.23531978E+04 E0= -.23531977E+04  d E =-.339437E-02  mag=     4.0000
       N       E                     dE             d eps       ncg     rms          rms(c)
DAV:   1    -0.233172888459E+04    0.11255E-01   -0.84678E-01  4512   0.924E-01    0.286E-01
RMM:   2    -0.233174276074E+04   -0.13876E-01   -0.14033E-01  6237   0.196E-01    0.287E-01
RMM:   3    -0.233174325935E+04   -0.49862E-03   -0.15195E-02  5844   0.779E-02    0.198E-01
RMM:   4    -0.233174282553E+04    0.43382E-03   -0.14428E-03  4704   0.175E-02    0.870E-02
RMM:   5    -0.233174281168E+04    0.13857E-04   -0.29015E-04  3788   0.104E-02    0.964E-02
RMM:   6    -0.233174271217E+04    0.99504E-04   -0.24795E-04  3492   0.973E-03    0.433E-02
RMM:   7    -0.233174270027E+04    0.11905E-04   -0.62704E-05  3048   0.697E-03    0.252E-02
RMM:   8    -0.233174269368E+04    0.65860E-05   -0.20514E-05  2918   0.486E-03
  73 F= -.23532004E+04 E0= -.23532003E+04  d E =-.256967E-02  mag=     4.0000
       N       E                     dE             d eps       ncg     rms          rms(c)
DAV:   1    -0.233172475015E+04    0.17950E-01   -0.11087E+00  4512   0.106E+00    0.332E-01
RMM:   2    -0.233174301706E+04   -0.18267E-01   -0.18503E-01  6231   0.225E-01    0.331E-01
RMM:   3    -0.233174365574E+04   -0.63868E-03   -0.20021E-02  5908   0.894E-02    0.227E-01
RMM:   4    -0.233174307947E+04    0.57628E-03   -0.19136E-03  4971   0.200E-02    0.993E-02
RMM:   5    -0.233174304619E+04    0.33282E-04   -0.38391E-04  4207   0.120E-02    0.103E-01
RMM:   6    -0.233174295034E+04    0.95842E-04   -0.30631E-04  3629   0.104E-02    0.558E-02
RMM:   7    -0.233174292664E+04    0.23705E-04   -0.76666E-05  3122   0.747E-03    0.281E-02
RMM:   8    -0.233174291834E+04    0.82971E-05   -0.25194E-05  2925   0.516E-03
  74 F= -.23532007E+04 E0= -.23532006E+04  d E =-.281236E-02  mag=     4.0000
       N       E                     dE             d eps       ncg     rms          rms(c)
DAV:   1    -0.233174047099E+04    0.24556E-02   -0.16662E-01  4576   0.409E-01    0.124E-01
RMM:   2    -0.233174312706E+04   -0.26561E-02   -0.27244E-02  6208   0.863E-02    0.111E-01
RMM:   3    -0.233174328875E+04   -0.16168E-03   -0.29283E-03  4197   0.347E-02    0.901E-02
RMM:   4    -0.233174319632E+04    0.92428E-04   -0.27406E-04  3008   0.898E-03    0.380E-02
[...]
RMM:   2    -0.233182711990E+04   -0.48492E-02   -0.52166E-02  5983   0.146E-01    0.129E-01
RMM:   3    -0.233182751686E+04   -0.39696E-03   -0.54557E-03  5315   0.579E-02    0.142E-01
RMM:   4    -0.233182732849E+04    0.18837E-03   -0.60375E-04  4259   0.143E-02    0.790E-02
RMM:   5    -0.233182726293E+04    0.65565E-04   -0.25893E-04  4199   0.119E-02    0.265E-02
RMM:   6    -0.233182725821E+04    0.47138E-05   -0.47472E-05  2992   0.708E-03
 122 F= -.23532762E+04 E0= -.23532762E+04  d E =-.114490E-02  mag=     4.0000
       N       E                     dE             d eps       ncg     rms          rms(c)
DAV:   1    -0.233182716963E+04    0.93295E-04   -0.10915E-02  5168   0.104E-01    0.323E-02
RMM:   2    -0.233182726299E+04   -0.93357E-04   -0.92853E-04  5799   0.214E-02    0.307E-02
RMM:   3    -0.233182726616E+04   -0.31739E-05   -0.11379E-04  2920   0.853E-03    0.257E-02
RMM:   4    -0.233182725899E+04    0.71695E-05   -0.11627E-05  2924   0.310E-03
 123 F= -.23532762E+04 E0= -.23532762E+04  d E =-.114831E-02  mag=     4.0000
       N       E                     dE             d eps       ncg     rms          rms(c)
DAV:   1    -0.233182266263E+04    0.46035E-02   -0.72920E-01  4512   0.830E-01    0.233E-01
RMM:   2    -0.233182835026E+04   -0.56876E-02   -0.60862E-02  5983   0.153E-01    0.134E-01
RMM:   3    -0.233182881406E+04   -0.46381E-03   -0.63732E-03  5349   0.617E-02    0.138E-01
RMM:   4    -0.233182863069E+04    0.18337E-03   -0.70456E-04  4218   0.148E-02    0.837E-02
RMM:   5    -0.233182855542E+04    0.75277E-04   -0.27333E-04  4079   0.120E-02    0.340E-02
RMM:   6    -0.233182855971E+04   -0.42933E-05   -0.90653E-05  2991   0.800E-03
 124 F= -.23532774E+04 E0= -.23532774E+04  d E =-.115849E-02  mag=     4.0000
       N       E                     dE             d eps       ncg     rms          rms(c)
DAV:   1    -0.233182830903E+04    0.24638E-03   -0.32511E-02  4816   0.176E-01    0.513E-02
RMM:   2    -0.233182857433E+04   -0.26529E-03   -0.28280E-03  6162   0.349E-02    0.314E-02
RMM:   3    -0.233182860169E+04   -0.27366E-04   -0.31637E-04  3017   0.132E-02    0.359E-02
RMM:   4    -0.233182858786E+04    0.13832E-04   -0.34265E-05  2941   0.438E-03    0.168E-02
RMM:   5    -0.233182858656E+04    0.13036E-05   -0.12977E-05  2927   0.281E-03
 125 F= -.23532774E+04 E0= -.23532774E+04  d E =-.115565E-02  mag=     4.0000
       N       E                     dE             d eps       ncg     rms          rms(c)
DAV:   1    -0.233182466089E+04    0.39270E-02   -0.62463E-01  4512   0.769E-01    0.219E-01
RMM:   2    -0.233182978006E+04   -0.51192E-02   -0.53951E-02  5984   0.143E-01    0.143E-01
RMM:   3    -0.233183023667E+04   -0.45661E-03   -0.55987E-03  5349   0.568E-02    0.163E-01
RMM:   4    -0.233182992125E+04    0.31542E-03   -0.63767E-04  4044   0.142E-02    0.671E-02
RMM:   5    -0.233182988692E+04    0.34333E-04   -0.21184E-04  3977   0.106E-02    0.439E-02
RMM:   6    -0.233182988357E+04    0.33448E-05   -0.11400E-04  2976   0.804E-03    0.358E-02
RMM:   7    -0.233182986884E+04    0.14728E-04   -0.21312E-05  2916   0.497E-03    0.114E-02
RMM:   8    -0.233182986838E+04    0.46818E-06   -0.74043E-06  2891   0.288E-03
 126 F= -.23532785E+04 E0= -.23532785E+04  d E =-.110013E-02  mag=     4.0000
       N       E                     dE             d eps       ncg     rms          rms(c)
DAV:   1    -0.233182928653E+04    0.58232E-03   -0.88347E-02  4528   0.289E-01    0.825E-02
RMM:   2    -0.233183001533E+04   -0.72880E-03   -0.76695E-03  5987   0.544E-02    0.523E-02
RMM:   3    -0.233183007790E+04   -0.62574E-04   -0.77627E-04  3333   0.199E-02    0.585E-02
RMM:   4    -0.233183003739E+04    0.40510E-04   -0.90775E-05  2957   0.638E-03    0.261E-02
RMM:   5    -0.233183003337E+04    0.40251E-05   -0.31685E-05  2952   0.437E-03
 127 F= -.23532786E+04 E0= -.23532786E+04  d E =-.119774E-02  mag=     4.0000
       N       E                     dE             d eps       ncg     rms          rms(c)
DAV:   1    -0.233182516582E+04    0.48716E-02   -0.68262E-01  4512   0.798E-01    0.229E-01
RMM:   2    -0.233183133037E+04   -0.61646E-02   -0.65750E-02  6077   0.154E-01    0.134E-01
RMM:   3    -0.233183185188E+04   -0.52151E-03   -0.69343E-03  5464   0.610E-02    0.138E-01
RMM:   4    -0.233183166678E+04    0.18510E-03   -0.76886E-04  3688   0.147E-02    0.801E-02
RMM:   5    -0.233183163349E+04    0.33285E-04   -0.25219E-04  3851   0.111E-02    0.596E-02
RMM:   6    -0.233183160187E+04    0.31620E-04   -0.13431E-04  3078   0.839E-03    0.315E-02
RMM:   7    -0.233183158916E+04    0.12715E-04   -0.24001E-05  2934   0.545E-03    0.731E-03
RMM:   8    -0.233183158894E+04    0.22119E-06   -0.65618E-06  2919   0.281E-03
 128 F= -.23532800E+04 E0= -.23532800E+04  d E =-.137962E-02  mag=     4.0000
       N       E                     dE             d eps       ncg     rms          rms(c)
DAV:   1    -0.233183071059E+04    0.87857E-03   -0.11408E-01  4528   0.327E-01    0.936E-02
RMM:   2    -0.233183174179E+04   -0.10312E-02   -0.10993E-02  6059   0.630E-02    0.544E-02
RMM:   3    -0.233183182970E+04   -0.87912E-04   -0.11136E-03  3567   0.241E-02    0.581E-02
RMM:   4    -0.233183179692E+04    0.32781E-04   -0.12665E-04  2972   0.696E-03    0.321E-02
RMM:   5    -0.233183178769E+04    0.92263E-05   -0.37875E-05  2954   0.482E-03
 129 F= -.23532801E+04 E0= -.23532801E+04  d E =-.150767E-02  mag=     4.0000
       N       E                     dE             d eps       ncg     rms          rms(c)
DAV:   1    -0.233182751156E+04    0.42854E-02   -0.56765E-01  4512   0.721E-01    0.212E-01
RMM:   2    -0.233183303448E+04   -0.55229E-02   -0.58841E-02  6137   0.141E-01    0.129E-01
RMM:   3    -0.233183355450E+04   -0.52002E-03   -0.64827E-03  5531   0.557E-02    0.142E-01
RMM:   4    -0.233183334948E+04    0.20502E-03   -0.67653E-04  3394   0.134E-02    0.703E-02
RMM:   5    -0.233183332573E+04    0.23748E-04   -0.21566E-04  3616   0.992E-03    0.520E-02
RMM:   6    -0.233183330791E+04    0.17824E-04   -0.11505E-04  2999   0.784E-03    0.302E-02
RMM:   7    -0.233183329735E+04    0.10560E-04   -0.21105E-05  2934   0.495E-03    0.843E-03
RMM:   8    -0.233183329786E+04   -0.50648E-06   -0.64886E-06  2910   0.286E-03
 130 F= -.23532814E+04 E0= -.23532814E+04  d E =-.127055E-02  mag=     4.0000
       N       E                     dE             d eps       ncg     rms          rms(c)
DAV:   1    -0.233183063813E+04    0.26592E-02   -0.30570E-01  4512   0.529E-01    0.155E-01
RMM:   2    -0.233183359307E+04   -0.29549E-02   -0.31671E-02  6027   0.102E-01    0.860E-02
RMM:   3    -0.233183384781E+04   -0.25474E-03   -0.33968E-03  4755   0.402E-02    0.891E-02
RMM:   4    -0.233183379026E+04    0.57549E-04   -0.36582E-04  3037   0.981E-03    0.549E-02
RMM:   5    -0.233183376014E+04    0.30120E-04   -0.99949E-05  3078   0.726E-03    0.243E-02
RMM:   6    -0.233183376297E+04   -0.28267E-05   -0.41078E-05  2948   0.599E-03
 131 F= -.23532817E+04 E0= -.23532816E+04  d E =-.156207E-02  mag=     4.0000
       N       E                     dE             d eps       ncg     rms          rms(c)
DAV:   1    -0.233182789817E+04    0.58620E-02   -0.74520E-01  4512   0.829E-01    0.239E-01
RMM:   2    -0.233183501479E+04   -0.71166E-02   -0.76122E-02  5985   0.159E-01    0.142E-01
RMM:   3    -0.233183564213E+04   -0.62735E-03   -0.80698E-03  5517   0.635E-02    0.154E-01
RMM:   4    -0.233183543841E+04    0.20372E-03   -0.87725E-04  4004   0.149E-02    0.818E-02
RMM:   5    -0.233183536592E+04    0.72496E-04   -0.24795E-04  3958   0.113E-02    0.333E-02
RMM:   6    -0.233183536886E+04   -0.29433E-05   -0.76514E-05  3067   0.757E-03
 132 F= -.23532830E+04 E0= -.23532830E+04  d E =-.135817E-02  mag=     4.0000
       N       E                     dE             d eps       ncg     rms          rms(c)
DAV:   1    -0.233183170378E+04    0.36621E-02   -0.38061E-01  4512   0.592E-01    0.172E-01
RMM:   2    -0.233183535049E+04   -0.36467E-02   -0.38990E-02  6141   0.115E-01    0.102E-01
RMM:   3    -0.233183569234E+04   -0.34185E-03   -0.42885E-03  5216   0.454E-02    0.112E-01
RMM:   4    -0.233183558225E+04    0.11009E-03   -0.45275E-04  3111   0.109E-02    0.581E-02
RMM:   5    -0.233183555020E+04    0.32053E-04   -0.12821E-04  3355   0.818E-03    0.313E-02
RMM:   6    -0.233183555585E+04   -0.56563E-05   -0.64228E-05  2939   0.683E-03
 133 F= -.23532830E+04 E0= -.23532830E+04  d E =-.137053E-02  mag=     4.0000
       N       E                     dE             d eps       ncg     rms          rms(c)
DAV:   1    -0.233183501485E+04    0.53535E-03   -0.56238E-02  4624   0.228E-01    0.658E-02
RMM:   2    -0.233183556271E+04   -0.54787E-03   -0.56943E-03  6299   0.455E-02    0.544E-02
RMM:   3    -0.233183559898E+04   -0.36272E-04   -0.61719E-04  3192   0.171E-02    0.501E-02
RMM:   4    -0.233183556912E+04    0.29865E-04   -0.64515E-05  2963   0.556E-03    0.198E-02
RMM:   5    -0.233183556850E+04    0.61787E-06   -0.22538E-05  2963   0.351E-03
 134 F= -.23532831E+04 E0= -.23532831E+04  d E =-.144955E-02  mag=     4.0000
       N       E                     dE             d eps       ncg     rms          rms(c)
DAV:   1    -0.233183130203E+04    0.42671E-02   -0.52195E-01  4512   0.687E-01    0.198E-01
RMM:   2    -0.233183652056E+04   -0.52185E-02   -0.54901E-02  6214   0.132E-01    0.137E-01
RMM:   3    -0.233183700318E+04   -0.48262E-03   -0.59250E-03  5417   0.511E-02    0.144E-01
RMM:   4    -0.233183677847E+04    0.22470E-03   -0.62422E-04  3372   0.126E-02    0.631E-02
RMM:   5    -0.233183674577E+04    0.32704E-04   -0.16943E-04  3463   0.918E-03    0.426E-02
RMM:   6    -0.233183674620E+04   -0.43283E-06   -0.92852E-05  2955   0.738E-03
 135 F= -.23532842E+04 E0= -.23532842E+04  d E =-.109285E-02  mag=     4.0000
       N       E                     dE             d eps       ncg     rms          rms(c)
DAV:   1    -0.233182593047E+04    0.10815E-01   -0.10568E+00  4512   0.979E-01    0.285E-01
RMM:   2    -0.233183656844E+04   -0.10638E-01   -0.11208E-01  6132   0.188E-01    0.197E-01
RMM:   3    -0.233183755761E+04   -0.98917E-03   -0.12151E-02  5713   0.706E-02    0.207E-01
RMM:   4    -0.233183712015E+04    0.43746E-03   -0.13034E-03  4647   0.174E-02    0.923E-02
RMM:   5    -0.233183707189E+04    0.48265E-04   -0.35795E-04  3937   0.119E-02    0.689E-02
RMM:   6    -0.233183704972E+04    0.22167E-04   -0.19732E-04  3161   0.945E-03    0.526E-02
RMM:   7    -0.233183702156E+04    0.28159E-04   -0.52117E-05  2951   0.642E-03    0.209E-02
RMM:   8    -0.233183701747E+04    0.40931E-05   -0.16687E-05  2931   0.385E-03
 136 F= -.23532844E+04 E0= -.23532843E+04  d E =-.124849E-02  mag=     4.0000
       N       E                     dE             d eps       ncg     rms          rms(c)
DAV:   1    -0.233183579255E+04    0.12290E-02   -0.12609E-01  4512   0.338E-01    0.972E-02
RMM:   2    -0.233183705372E+04   -0.12612E-02   -0.13215E-02  6181   0.649E-02    0.723E-02
RMM:   3    -0.233183715778E+04   -0.10406E-03   -0.14113E-03  3692   0.258E-02    0.708E-02
RMM:   4    -0.233183710269E+04    0.55090E-04   -0.14752E-04  2977   0.742E-03    0.307E-02
RMM:   5    -0.233183709315E+04    0.95385E-05   -0.45271E-05  2979   0.509E-03
 137 F= -.23532845E+04 E0= -.23532845E+04  d E =-.136329E-02  mag=     4.0000
       N       E                     dE             d eps       ncg     rms          rms(c)
DAV:   1    -0.233183276741E+04    0.43353E-02   -0.49854E-01  4512   0.663E-01    0.202E-01
RMM:   2    -0.233183821501E+04   -0.54476E-02   -0.56495E-02  6116   0.131E-01    0.162E-01
RMM:   3    -0.233183862466E+04   -0.40965E-03   -0.60051E-03  5474   0.517E-02    0.150E-01
RMM:   4    -0.233183836535E+04    0.25931E-03   -0.62812E-04  3756   0.130E-02    0.611E-02
RMM:   5    -0.233183832088E+04    0.44471E-04   -0.18334E-04  3805   0.971E-03    0.287E-02
RMM:   6    -0.233183833387E+04   -0.12991E-04   -0.68419E-05  2984   0.710E-03    0.363E-02
RMM:   7    -0.233183831616E+04    0.17705E-04   -0.24480E-05  2919   0.467E-03    0.103E-02
RMM:   8    -0.233183831552E+04    0.64162E-06   -0.59518E-06  2908   0.262E-03
 138 F= -.23532856E+04 E0= -.23532856E+04  d E =-.117396E-02  mag=     4.0000
       N       E                     dE             d eps       ncg     rms          rms(c)
DAV:   1    -0.233183786903E+04    0.44713E-03   -0.50066E-02  4624   0.210E-01    0.653E-02
RMM:   2    -0.233183842503E+04   -0.55599E-03   -0.57460E-03  6135   0.423E-02    0.537E-02
RMM:   3    -0.233183846454E+04   -0.39511E-04   -0.60309E-04  3094   0.162E-02    0.483E-02
RMM:   4    -0.233183843861E+04    0.25931E-04   -0.65958E-05  2958   0.519E-03    0.198E-02
RMM:   5    -0.233183843570E+04    0.29031E-05   -0.19662E-05  2938   0.343E-03
 139 F= -.23532857E+04 E0= -.23532857E+04  d E =-.127963E-02  mag=     4.0000
       N       E                     dE             d eps       ncg     rms          rms(c)
DAV:   1    -0.233183745337E+04    0.98524E-03   -0.16869E-01  4512   0.404E-01    0.132E-01
RMM:   2    -0.233183926548E+04   -0.18121E-02   -0.19123E-02  6073   0.803E-02    0.958E-02
RMM:   3    -0.233183941943E+04   -0.15396E-03   -0.21301E-03  4324   0.333E-02    0.977E-02
RMM:   4    -0.233183931416E+04    0.10528E-03   -0.22568E-04  3012   0.929E-03    0.375E-02
RMM:   5    -0.233183930127E+04    0.12889E-04   -0.82426E-05  3341   0.692E-03    0.245E-02
RMM:   6    -0.233183930234E+04   -0.10776E-05   -0.37245E-05  2932   0.600E-03
 140 F= -.23532865E+04 E0= -.23532865E+04  d E =-.787797E-03  mag=     4.0000
       N       E                     dE             d eps       ncg     rms          rms(c)
DAV:   1    -0.233183865570E+04    0.64556E-03   -0.72243E-02  4544   0.265E-01    0.863E-02
RMM:   2    -0.233183942529E+04   -0.76959E-03   -0.82580E-03  6077   0.529E-02    0.514E-02
RMM:   3    -0.233183949292E+04   -0.67631E-04   -0.90085E-04  3428   0.213E-02    0.519E-02
RMM:   4    -0.233183946843E+04    0.24490E-04   -0.96163E-05  2960   0.628E-03    0.283E-02
RMM:   5    -0.233183946130E+04    0.71303E-05   -0.33572E-05  2939   0.453E-03
 141 F= -.23532866E+04 E0= -.23532866E+04  d E =-.895650E-03  mag=     4.0000
       N       E                     dE             d eps       ncg     rms          rms(c)
DAV:   1    -0.233183813852E+04    0.13299E-02   -0.17406E-01  4512   0.405E-01    0.120E-01
RMM:   2    -0.233184006024E+04   -0.19217E-02   -0.20472E-02  6212   0.803E-02    0.786E-02
RMM:   3    -0.233184022653E+04   -0.16630E-03   -0.22606E-03  4122   0.324E-02    0.758E-02
RMM:   4    -0.233184017354E+04    0.52989E-04   -0.23017E-04  2989   0.869E-03    0.403E-02
RMM:   5    -0.233184016624E+04    0.73027E-05   -0.73715E-05  2965   0.614E-03
 142 F= -.23532873E+04 E0= -.23532873E+04  d E =-.630134E-03  mag=     4.0000
       N       E                     dE             d eps       ncg     rms          rms(c)
DAV:   1    -0.233183801130E+04    0.21622E-02   -0.20429E-01  4512   0.439E-01    0.133E-01
RMM:   2    -0.233184029635E+04   -0.22850E-02   -0.24173E-02  6305   0.875E-02    0.996E-02
RMM:   3    -0.233184048668E+04   -0.19033E-03   -0.27199E-03  4517   0.353E-02    0.959E-02
RMM:   4    -0.233184039868E+04    0.87998E-04   -0.27101E-04  2993   0.941E-03    0.420E-02
RMM:   5    -0.233184039245E+04    0.62361E-05   -0.92422E-05  3123   0.674E-03
 143 F= -.23532874E+04 E0= -.23532874E+04  d E =-.776564E-03  mag=     4.0000
       N       E                     dE             d eps       ncg     rms          rms(c)
DAV:   1    -0.233183892187E+04    0.14768E-02   -0.21482E-01  4512   0.459E-01    0.138E-01
RMM:   2    -0.233184101910E+04   -0.20972E-02   -0.22273E-02  6224   0.901E-02    0.921E-02
RMM:   3    -0.233184122898E+04   -0.20988E-03   -0.24573E-03  4830   0.370E-02    0.105E-01
RMM:   4    -0.233184110302E+04    0.12596E-03   -0.26395E-04  3020   0.990E-03    0.411E-02
RMM:   5    -0.233184110010E+04    0.29215E-05   -0.97308E-05  3196   0.723E-03
 144 F= -.23532881E+04 E0= -.23532881E+04  d E =-.641844E-03  mag=     4.0000
       N       E                     dE             d eps       ncg     rms          rms(c)
DAV:   1    -0.233184051470E+04    0.58833E-03   -0.65764E-02  4608   0.254E-01    0.792E-02
RMM:   2    -0.233184118532E+04   -0.67063E-03   -0.69588E-03  6320   0.520E-02    0.681E-02
RMM:   3    -0.233184122997E+04   -0.44652E-04   -0.79035E-04  3400   0.196E-02    0.615E-02
RMM:   4    -0.233184118999E+04    0.39983E-04   -0.82711E-05  2943   0.657E-03    0.223E-02
RMM:   5    -0.233184118976E+04    0.22854E-06   -0.34846E-05  2992   0.465E-03
 145 F= -.23532881E+04 E0= -.23532881E+04  d E =-.695432E-03  mag=     4.0000
       N       E                     dE             d eps       ncg     rms          rms(c)
DAV:   1    -0.233184031044E+04    0.87955E-03   -0.16970E-01  4512   0.407E-01    0.124E-01
RMM:   2    -0.233184180237E+04   -0.14919E-02   -0.16310E-02  6093   0.786E-02    0.603E-02
RMM:   3    -0.233184190844E+04   -0.10607E-03   -0.17495E-03  4369   0.342E-02    0.472E-02
RMM:   4    -0.233184191216E+04   -0.37192E-05   -0.19904E-04  3042   0.857E-03    0.461E-02
RMM:   5    -0.233184189204E+04    0.20115E-04   -0.71189E-05  3021   0.664E-03    0.239E-02
RMM:   6    -0.233184189063E+04    0.14096E-05   -0.23782E-05  2929   0.534E-03
 146 F= -.23532887E+04 E0= -.23532887E+04  d E =-.628359E-03  mag=     4.0000
       N       E                     dE             d eps       ncg     rms          rms(c)
DAV:   1    -0.233184157477E+04    0.31727E-03   -0.42384E-02  4592   0.204E-01    0.627E-02
RMM:   2    -0.233184195253E+04   -0.37776E-03   -0.41205E-03  6114   0.398E-02    0.306E-02
RMM:   3    -0.233184198137E+04   -0.28837E-04   -0.45886E-04  3176   0.164E-02    0.248E-02
RMM:   4    -0.233184198350E+04   -0.21286E-05   -0.51350E-05  2970   0.464E-03
 147 F= -.23532888E+04 E0= -.23532888E+04  d E =-.685186E-03  mag=     4.0000
       N       E                     dE             d eps       ncg     rms          rms(c)
DAV:   1    -0.233184087624E+04    0.11051E-02   -0.19214E-01  4512   0.429E-01    0.130E-01
RMM:   2    -0.233184253736E+04   -0.16611E-02   -0.18003E-02  6015   0.805E-02    0.762E-02
RMM:   3    -0.233184272853E+04   -0.19118E-03   -0.21826E-03  4311   0.360E-02    0.937E-02
RMM:   4    -0.233184263517E+04    0.93360E-04   -0.21562E-04  2974   0.898E-03    0.400E-02
RMM:   5    -0.233184261856E+04    0.16615E-04   -0.90337E-05  3457   0.716E-03    0.234E-02
RMM:   6    -0.233184261929E+04   -0.73355E-06   -0.31862E-05  2926   0.593E-03
 148 F= -.23532894E+04 E0= -.23532894E+04  d E =-.594616E-03  mag=     4.0000
       N       E                     dE             d eps       ncg     rms          rms(c)
DAV:   1    -0.233184232616E+04    0.29240E-03   -0.37704E-02  4640   0.190E-01    0.582E-02
RMM:   2    -0.233184265703E+04   -0.33087E-03   -0.36000E-03  5990   0.363E-02    0.316E-02
RMM:   3    -0.233184268889E+04   -0.31852E-04   -0.41664E-04  3119   0.157E-02    0.338E-02
RMM:   4    -0.233184268056E+04    0.83231E-05   -0.44767E-05  2949   0.433E-03
 149 F= -.23532894E+04 E0= -.23532894E+04  d E =-.637903E-03  mag=     4.0000
       N       E                     dE             d eps       ncg     rms          rms(c)
DAV:   1    -0.233184148690E+04    0.12020E-02   -0.21059E-01  4512   0.455E-01    0.137E-01
RMM:   2    -0.233184313131E+04   -0.16444E-02   -0.17921E-02  5918   0.838E-02    0.722E-02
RMM:   3    -0.233184325819E+04   -0.12688E-03   -0.19677E-03  4544   0.382E-02    0.674E-02
RMM:   4    -0.233184323123E+04    0.26959E-04   -0.22688E-04  3060   0.924E-03    0.497E-02
RMM:   5    -0.233184321671E+04    0.14521E-04   -0.97528E-05  3138   0.747E-03    0.368E-02
RMM:   6    -0.233184320148E+04    0.15233E-04   -0.43771E-05  2928   0.619E-03    0.150E-02
RMM:   7    -0.233184319871E+04    0.27667E-05   -0.80366E-06  2895   0.339E-03
 150 F= -.23532900E+04 E0= -.23532900E+04  d E =-.565652E-03  mag=     4.0000
