       N       E                     dE             d eps       ncg     rms          rms(c)
DAV:   1     0.124661465425E+05    0.12466E+05   -0.82192E+05  4424   0.143E+03
DAV:   2    -0.109761167803E+04   -0.13564E+05   -0.13021E+05  5336   0.328E+02
DAV:   3    -0.248162814132E+04   -0.13840E+04   -0.13728E+04  5272   0.108E+02
DAV:   4    -0.251953019948E+04   -0.37902E+02   -0.37727E+02  6368   0.250E+01
DAV:   5    -0.252025227773E+04   -0.72208E+00   -0.72121E+00  5512   0.284E+00    0.171E+02
RMM:   6    -0.146872132325E+04    0.10515E+04   -0.19520E+03  4360   0.389E+01    0.723E+01
RMM:   7    -0.163883750049E+04   -0.17012E+03   -0.27059E+02  4890   0.137E+01    0.474E+01
RMM:   8    -0.169861031358E+04   -0.59773E+02   -0.30795E+01  4980   0.664E+00    0.347E+01
RMM:   9    -0.185370488827E+04   -0.15509E+03   -0.71494E+01  4666   0.850E+00    0.215E+01
RMM:  10    -0.200419632925E+04   -0.15049E+03   -0.66353E+01  4628   0.728E+00    0.154E+01
RMM:  11    -0.215716750525E+04   -0.15297E+03   -0.10686E+02  4371   0.756E+00    0.110E+01
RMM:  12    -0.228463865570E+04   -0.12747E+03   -0.12760E+02  4364   0.780E+00    0.529E+00
RMM:  13    -0.231012167337E+04   -0.25483E+02   -0.29975E+01  4428   0.509E+00    0.362E+00
RMM:  14    -0.231569626514E+04   -0.55746E+01   -0.88789E+00  4896   0.197E+00    0.275E+00
RMM:  15    -0.231758713415E+04   -0.18909E+01   -0.14278E+00  4716   0.108E+00    0.165E+00
RMM:  16    -0.231866866257E+04   -0.10815E+01   -0.50984E-01  4654   0.557E-01    0.102E+00
RMM:  17    -0.231913548765E+04   -0.46683E+00   -0.11355E-01  4840   0.333E-01    0.642E-01
RMM:  18    -0.231927421776E+04   -0.13873E+00   -0.71988E-02  4454   0.222E-01    0.406E-01
RMM:  19    -0.231930526403E+04   -0.31046E-01   -0.22331E-02  4786   0.176E-01    0.194E-01
RMM:  20    -0.231932747605E+04   -0.22212E-01   -0.85289E-03  4703   0.864E-02    0.167E-01
RMM:  21    -0.231934156816E+04   -0.14092E-01   -0.62855E-03  4400   0.721E-02    0.926E-02
RMM:  22    -0.231935050038E+04   -0.89322E-02   -0.29704E-03  4392   0.544E-02    0.788E-02
RMM:  23    -0.231935726042E+04   -0.67600E-02   -0.21314E-03  4381   0.392E-02    0.480E-02
RMM:  24    -0.231936049034E+04   -0.32299E-02   -0.11324E-03  4457   0.328E-02    0.347E-02
RMM:  25    -0.231936226299E+04   -0.17727E-02   -0.64299E-04  3997   0.223E-02    0.231E-02
RMM:  26    -0.231936325205E+04   -0.98906E-03   -0.38650E-04  3918   0.200E-02    0.120E-02
RMM:  27    -0.231936362710E+04   -0.37505E-03   -0.18535E-04  3752   0.134E-02    0.892E-03
RMM:  28    -0.231936373645E+04   -0.10936E-03   -0.60415E-05  3531   0.881E-03    0.512E-03
RMM:  29    -0.231936380717E+04   -0.70719E-04   -0.34146E-05  3281   0.567E-03    0.308E-03
RMM:  30    -0.231936384762E+04   -0.40442E-04   -0.16561E-05  2949   0.462E-03    0.192E-03
RMM:  31    -0.231936385489E+04   -0.72705E-05   -0.58901E-06  2500   0.281E-03
   1 F= -.23395225E+04 E0= -.23395225E+04  d E =-.233952E+04  mag=     2.0001
       N       E                     dE             d eps       ncg     rms          rms(c)
DAV:   1    -0.231961360396E+04   -0.24976E+00   -0.17522E+01  4880   0.250E+00    0.941E-01
RMM:   2    -0.231965104657E+04   -0.37443E-01   -0.50138E-01  5744   0.383E-01    0.623E-01
RMM:   3    -0.231964876379E+04    0.22828E-02   -0.46151E-02  4782   0.132E-01    0.370E-01
RMM:   4    -0.231964777084E+04    0.99296E-03   -0.15954E-02  5043   0.642E-02    0.188E-01
RMM:   5    -0.231964751365E+04    0.25719E-03   -0.21033E-03  5059   0.328E-02    0.111E-01
RMM:   6    -0.231964729488E+04    0.21876E-03   -0.53815E-04  4322   0.113E-02    0.559E-02
RMM:   7    -0.231964732968E+04   -0.34793E-04   -0.14578E-04  3350   0.807E-03    0.371E-02
RMM:   8    -0.231964732267E+04    0.70032E-05   -0.36052E-05  2860   0.448E-03
   2 F= -.23398077E+04 E0= -.23398077E+04  d E =-.285276E+00  mag=     2.0000
       N       E                     dE             d eps       ncg     rms          rms(c)
DAV:   1    -0.231965662544E+04   -0.92958E-02   -0.99271E-01  4976   0.612E-01    0.230E-01
RMM:   2    -0.231965858518E+04   -0.19597E-02   -0.26872E-02  5842   0.908E-02    0.154E-01
RMM:   3    -0.231965842972E+04    0.15546E-03   -0.25190E-03  4506   0.319E-02    0.893E-02
RMM:   4    -0.231965837999E+04    0.49735E-04   -0.91215E-04  4509   0.160E-02    0.450E-02
RMM:   5    -0.231965836361E+04    0.16379E-04   -0.84722E-05  3089   0.830E-03    0.270E-02
RMM:   6    -0.231965835245E+04    0.11161E-04   -0.38281E-05  2887   0.364E-03    0.142E-02
RMM:   7    -0.231965835456E+04   -0.21150E-05   -0.91411E-06  2787   0.274E-03
   3 F= -.23398192E+04 E0= -.23398192E+04  d E =-.296772E+00  mag=     2.0000
       N       E                     dE             d eps       ncg     rms          rms(c)
DAV:   1    -0.231979207637E+04   -0.13372E+00   -0.68921E+00  4512   0.197E+00    0.761E-01
RMM:   2    -0.231981996055E+04   -0.27884E-01   -0.32526E-01  5903   0.337E-01    0.441E-01
RMM:   3    -0.231982042974E+04   -0.46920E-03   -0.29913E-02  4999   0.108E-01    0.281E-01
RMM:   4    -0.231982000246E+04    0.42729E-03   -0.62199E-03  4900   0.429E-02    0.128E-01
RMM:   5    -0.231981996098E+04    0.41475E-04   -0.11769E-03  4751   0.234E-02    0.650E-02
RMM:   6    -0.231981989157E+04    0.69413E-04   -0.16032E-04  3412   0.831E-03    0.342E-02
RMM:   7    -0.231981989329E+04   -0.17210E-05   -0.52235E-05  3019   0.515E-03
   4 F= -.23399826E+04 E0= -.23399826E+04  d E =-.163374E+00  mag=     2.0000
       N       E                     dE             d eps       ncg     rms          rms(c)
DAV:   1    -0.231984236788E+04   -0.22476E-01   -0.73899E+00  4528   0.209E+00    0.779E-01
RMM:   2    -0.231987241118E+04   -0.30043E-01   -0.34475E-01  5943   0.345E-01    0.447E-01
RMM:   3    -0.231987306091E+04   -0.64973E-03   -0.31085E-02  4945   0.110E-01    0.289E-01
RMM:   4    -0.231987262823E+04    0.43267E-03   -0.61941E-03  4952   0.427E-02    0.134E-01
RMM:   5    -0.231987260304E+04    0.25195E-04   -0.12755E-03  4788   0.234E-02    0.691E-02
RMM:   6    -0.231987252191E+04    0.81124E-04   -0.18846E-04  3447   0.881E-03    0.374E-02
RMM:   7    -0.231987251395E+04    0.79628E-05   -0.68574E-05  3106   0.550E-03
   5 F= -.23400372E+04 E0= -.23400372E+04  d E =-.217951E+00  mag=     2.0000
       N       E                     dE             d eps       ncg     rms          rms(c)
DAV:   1    -0.231996891609E+04   -0.96394E-01   -0.34962E+00  4592   0.149E+00    0.647E-01
RMM:   2    -0.231998608399E+04   -0.17168E-01   -0.22862E-01  5942   0.256E-01    0.380E-01
RMM:   3    -0.231998641607E+04   -0.33208E-03   -0.21167E-02  5178   0.877E-02    0.234E-01
RMM:   4    -0.231998628445E+04    0.13161E-03   -0.34300E-03  5028   0.302E-02    0.102E-01
RMM:   5    -0.231998618532E+04    0.99136E-04   -0.41666E-04  4480   0.161E-02    0.383E-02
RMM:   6    -0.231998618735E+04   -0.20305E-05   -0.72069E-05  3260   0.595E-03
   6 F= -.23401524E+04 E0= -.23401524E+04  d E =-.115201E+00  mag=     2.0000
       N       E                     dE             d eps       ncg     rms          rms(c)
DAV:   1    -0.232000133290E+04   -0.15148E-01   -0.20939E+00  4744   0.116E+00    0.492E-01
RMM:   2    -0.232001155044E+04   -0.10218E-01   -0.13594E-01  5929   0.196E-01    0.288E-01
RMM:   3    -0.232001178427E+04   -0.23383E-03   -0.13270E-02  5183   0.665E-02    0.178E-01
RMM:   4    -0.232001169147E+04    0.92803E-04   -0.19485E-03  4936   0.229E-02    0.844E-02
RMM:   5    -0.232001160768E+04    0.83787E-04   -0.26078E-04  4187   0.124E-02    0.368E-02
RMM:   6    -0.232001159642E+04    0.11260E-04   -0.60584E-05  3206   0.575E-03    0.223E-02
RMM:   7    -0.232001159850E+04   -0.20722E-05   -0.13944E-05  2828   0.413E-03
   7 F= -.23401790E+04 E0= -.23401790E+04  d E =-.141822E+00  mag=     2.0000
       N       E                     dE             d eps       ncg     rms          rms(c)
DAV:   1    -0.232004217530E+04   -0.30579E-01   -0.14859E+00  4520   0.912E-01    0.350E-01
RMM:   2    -0.232004968492E+04   -0.75096E-02   -0.87962E-02  5996   0.157E-01    0.203E-01
RMM:   3    -0.232004992426E+04   -0.23934E-03   -0.94632E-03  4954   0.540E-02    0.127E-01
RMM:   4    -0.232004980996E+04    0.11430E-03   -0.16365E-03  4736   0.205E-02    0.554E-02
RMM:   5    -0.232004980759E+04    0.23695E-05   -0.22473E-04  3702   0.107E-02    0.203E-02
RMM:   6    -0.232004980615E+04    0.14425E-05   -0.25248E-05  2900   0.433E-03
   8 F= -.23402178E+04 E0= -.23402178E+04  d E =-.388394E-01  mag=     2.0000
       N       E                     dE             d eps       ncg     rms          rms(c)
DAV:   1    -0.232005423143E+04   -0.44238E-02   -0.85593E-01  4560   0.696E-01    0.266E-01
RMM:   2    -0.232005858841E+04   -0.43570E-02   -0.50900E-02  6017   0.120E-01    0.156E-01
RMM:   3    -0.232005870981E+04   -0.12140E-03   -0.52472E-03  4826   0.405E-02    0.974E-02
RMM:   4    -0.232005864535E+04    0.64456E-04   -0.94818E-04  4546   0.158E-02    0.425E-02
RMM:   5    -0.232005864412E+04    0.12312E-05   -0.11821E-04  3358   0.846E-03    0.162E-02
RMM:   6    -0.232005864346E+04    0.65666E-06   -0.15150E-05  2851   0.367E-03
   9 F= -.23402272E+04 E0= -.23402272E+04  d E =-.481750E-01  mag=     2.0000
       N       E                     dE             d eps       ncg     rms          rms(c)
DAV:   1    -0.232007941528E+04   -0.20771E-01   -0.14774E+00  4416   0.969E-01    0.352E-01
RMM:   2    -0.232009100034E+04   -0.11585E-01   -0.12642E-01  6038   0.166E-01    0.187E-01
RMM:   3    -0.232009196516E+04   -0.96482E-03   -0.13391E-02  4985   0.644E-02    0.128E-01
RMM:   4    -0.232009192498E+04    0.40175E-04   -0.17756E-03  4576   0.169E-02    0.711E-02
RMM:   5    -0.232009189655E+04    0.28426E-04   -0.30365E-04  3988   0.108E-02    0.228E-02
RMM:   6    -0.232009189344E+04    0.31156E-05   -0.33954E-05  2896   0.644E-03
  10 F= -.23402609E+04 E0= -.23402609E+04  d E =-.337577E-01  mag=     2.0000
       N       E                     dE             d eps       ncg     rms          rms(c)
DAV:   1    -0.232007250942E+04    0.19387E-01   -0.52326E+00  4416   0.182E+00    0.657E-01
RMM:   2    -0.232011370762E+04   -0.41198E-01   -0.44721E-01  6044   0.313E-01    0.351E-01
RMM:   3    -0.232011715095E+04   -0.34433E-02   -0.47929E-02  5147   0.115E-01    0.246E-01
RMM:   4    -0.232011699217E+04    0.15878E-03   -0.62463E-03  5168   0.302E-02    0.139E-01
RMM:   5    -0.232011686617E+04    0.12601E-03   -0.13361E-03  4551   0.196E-02    0.461E-02
RMM:   6    -0.232011684782E+04    0.18345E-04   -0.14503E-04  3318   0.108E-02    0.258E-02
RMM:   7    -0.232011684440E+04    0.34201E-05   -0.44885E-05  2936   0.429E-03
  11 F= -.23402869E+04 E0= -.23402869E+04  d E =-.597161E-01  mag=     2.0000
       N       E                     dE             d eps       ncg     rms          rms(c)
DAV:   1    -0.232013079326E+04   -0.13945E-01   -0.10988E+00  4520   0.854E-01    0.339E-01
RMM:   2    -0.232014237664E+04   -0.11583E-01   -0.12415E-01  6042   0.158E-01    0.187E-01
RMM:   3    -0.232014341590E+04   -0.10393E-02   -0.12812E-02  5290   0.570E-02    0.142E-01
RMM:   4    -0.232014337914E+04    0.36761E-04   -0.16862E-03  3861   0.142E-02    0.881E-02
RMM:   5    -0.232014331271E+04    0.66430E-04   -0.36677E-04  4216   0.116E-02    0.320E-02
RMM:   6    -0.232014331714E+04   -0.44246E-05   -0.51819E-05  2914   0.707E-03
  12 F= -.23403136E+04 E0= -.23403136E+04  d E =-.267527E-01  mag=     2.0000
       N       E                     dE             d eps       ncg     rms          rms(c)
DAV:   1    -0.232010418003E+04    0.39133E-01   -0.53380E+00  4384   0.187E+00    0.747E-01
RMM:   2    -0.232016067895E+04   -0.56499E-01   -0.60825E-01  6051   0.352E-01    0.414E-01
RMM:   3    -0.232016589338E+04   -0.52144E-02   -0.64363E-02  5458   0.116E-01    0.325E-01
RMM:   4    -0.232016573214E+04    0.16124E-03   -0.80890E-03  4898   0.298E-02    0.211E-01
RMM:   5    -0.232016531194E+04    0.42020E-03   -0.17710E-03  4877   0.227E-02    0.894E-02
RMM:   6    -0.232016533073E+04   -0.18793E-04   -0.31394E-04  3915   0.127E-02    0.539E-02
RMM:   7    -0.232016534242E+04   -0.11690E-04   -0.67203E-05  3039   0.568E-03    0.410E-02
RMM:   8    -0.232016532383E+04    0.18595E-04   -0.32277E-05  2834   0.419E-03    0.177E-02
RMM:   9    -0.232016532187E+04    0.19592E-05   -0.13237E-05  2816   0.284E-03
  13 F= -.23403363E+04 E0= -.23403363E+04  d E =-.493984E-01  mag=     2.0000
       N       E                     dE             d eps       ncg     rms          rms(c)
DAV:   1    -0.232015514846E+04    0.10175E-01   -0.20862E+00  4416   0.109E+00    0.501E-01
RMM:   2    -0.232018523804E+04   -0.30090E-01   -0.31341E-01  6116   0.227E-01    0.287E-01
RMM:   3    -0.232018799932E+04   -0.27613E-02   -0.31975E-02  5270   0.875E-02    0.221E-01
RMM:   4    -0.232018792681E+04    0.72511E-04   -0.40413E-03  4448   0.196E-02    0.148E-01
RMM:   5    -0.232018773331E+04    0.19349E-03   -0.78244E-04  4560   0.145E-02    0.671E-02
RMM:   6    -0.232018776520E+04   -0.31891E-04   -0.12128E-04  3109   0.836E-03    0.491E-02
RMM:   7    -0.232018775256E+04    0.12646E-04   -0.46417E-05  2868   0.451E-03    0.298E-02
RMM:   8    -0.232018774646E+04    0.60993E-05   -0.20376E-05  2827   0.341E-03
  14 F= -.23403594E+04 E0= -.23403594E+04  d E =-.230661E-01  mag=     2.0000
       N       E                     dE             d eps       ncg     rms          rms(c)
DAV:   1    -0.232008394525E+04    0.10381E+00   -0.77524E+00  4384   0.210E+00    0.961E-01
RMM:   2    -0.232019393705E+04   -0.10999E+00   -0.11491E+00  6155   0.444E-01    0.554E-01
RMM:   3    -0.232020492865E+04   -0.10992E-01   -0.12382E-01  5439   0.150E-01    0.456E-01
RMM:   4    -0.232020493921E+04   -0.10563E-04   -0.14413E-02  5137   0.354E-02    0.335E-01
RMM:   5    -0.232020409649E+04    0.84272E-03   -0.26095E-03  4785   0.243E-02    0.199E-01
RMM:   6    -0.232020397826E+04    0.11823E-03   -0.98072E-04  4263   0.181E-02    0.106E-01
RMM:   7    -0.232020408322E+04   -0.10496E-03   -0.27545E-04  3599   0.930E-03    0.878E-02
RMM:   8    -0.232020401151E+04    0.71710E-04   -0.12289E-04  2990   0.670E-03    0.361E-02
RMM:   9    -0.232020401130E+04    0.20728E-06   -0.40842E-05  2856   0.434E-03
  15 F= -.23403768E+04 E0= -.23403768E+04  d E =-.405511E-01  mag=     2.0000
       N       E                     dE             d eps       ncg     rms          rms(c)
DAV:   1    -0.232018831420E+04    0.15697E-01   -0.29420E+00  4400   0.128E+00    0.562E-01
RMM:   2    -0.232022556907E+04   -0.37255E-01   -0.38866E-01  6068   0.256E-01    0.331E-01
RMM:   3    -0.232022915928E+04   -0.35902E-02   -0.41780E-02  5256   0.960E-02    0.269E-01
RMM:   4    -0.232022913893E+04    0.20347E-04   -0.50660E-03  4585   0.215E-02    0.196E-01
RMM:   5    -0.232022880327E+04    0.33566E-03   -0.10748E-03  4566   0.162E-02    0.101E-01
RMM:   6    -0.232022884437E+04   -0.41097E-04   -0.26304E-04  3510   0.107E-02    0.703E-02
RMM:   7    -0.232022885526E+04   -0.10898E-04   -0.93189E-05  2990   0.576E-03    0.521E-02
RMM:   8    -0.232022882916E+04    0.26104E-04   -0.50361E-05  2849   0.433E-03    0.216E-02
RMM:   9    -0.232022883197E+04   -0.28103E-05   -0.13873E-05  2816   0.312E-03
  16 F= -.23404024E+04 E0= -.23404024E+04  d E =-.255760E-01  mag=     2.0000
       N       E                     dE             d eps       ncg     rms          rms(c)
DAV:   1    -0.232019785414E+04    0.30975E-01   -0.28170E+00  4384   0.125E+00    0.550E-01
RMM:   2    -0.232023366265E+04   -0.35809E-01   -0.37426E-01  6103   0.251E-01    0.325E-01
RMM:   3    -0.232023717902E+04   -0.35164E-02   -0.40273E-02  5271   0.945E-02    0.267E-01
RMM:   4    -0.232023717567E+04    0.33483E-05   -0.48576E-03  4549   0.210E-02    0.198E-01
RMM:   5    -0.232023682766E+04    0.34801E-03   -0.10436E-03  4517   0.158E-02    0.105E-01
RMM:   6    -0.232023684426E+04   -0.16603E-04   -0.28617E-04  3602   0.109E-02    0.697E-02
RMM:   7    -0.232023686588E+04   -0.21619E-04   -0.90373E-05  3005   0.591E-03    0.547E-02
RMM:   8    -0.232023683930E+04    0.26580E-04   -0.53008E-05  2851   0.444E-03    0.231E-02
RMM:   9    -0.232023683947E+04   -0.17206E-06   -0.16835E-05  2816   0.323E-03
  17 F= -.23404112E+04 E0= -.23404112E+04  d E =-.343205E-01  mag=     2.0000
       N       E                     dE             d eps       ncg     rms          rms(c)
DAV:   1    -0.232023414538E+04    0.26939E-02   -0.12310E+00  4480   0.858E-01    0.408E-01
RMM:   2    -0.232025163127E+04   -0.17486E-01   -0.18301E-01  6078   0.173E-01    0.230E-01
RMM:   3    -0.232025335623E+04   -0.17250E-02   -0.19064E-02  5287   0.638E-02    0.193E-01
RMM:   4    -0.232025337380E+04   -0.17568E-04   -0.23561E-03  3822   0.147E-02    0.147E-01
RMM:   5    -0.232025319553E+04    0.17827E-03   -0.57699E-04  4090   0.123E-02    0.790E-02
RMM:   6    -0.232025320681E+04   -0.11280E-04   -0.15983E-04  3122   0.862E-03    0.522E-02
RMM:   7    -0.232025322133E+04   -0.14516E-04   -0.47013E-05  2858   0.465E-03    0.417E-02
RMM:   8    -0.232025320749E+04    0.13839E-04   -0.30880E-05  2819   0.356E-03    0.187E-02
RMM:   9    -0.232025320773E+04   -0.23426E-06   -0.99362E-06  2778   0.249E-03
  18 F= -.23404281E+04 E0= -.23404281E+04  d E =-.169558E-01  mag=     2.0000
       N       E                     dE             d eps       ncg     rms          rms(c)
DAV:   1    -0.232016657731E+04    0.86630E-01   -0.64876E+00  4384   0.197E+00    0.934E-01
RMM:   2    -0.232025907480E+04   -0.92497E-01   -0.97669E-01  6110   0.403E-01    0.510E-01
RMM:   3    -0.232026850522E+04   -0.94304E-02   -0.10326E-01  5466   0.135E-01    0.443E-01
RMM:   4    -0.232026883843E+04   -0.33320E-03   -0.11971E-02  5015   0.321E-02    0.355E-01
RMM:   5    -0.232026833266E+04    0.50577E-03   -0.21007E-03  4546   0.213E-02    0.260E-01
RMM:   6    -0.232026781157E+04    0.52108E-03   -0.16053E-03  4273   0.199E-02    0.108E-01
RMM:   7    -0.232026799788E+04   -0.18630E-03   -0.43098E-04  3907   0.115E-02    0.107E-01
RMM:   8    -0.232026794822E+04    0.49654E-04   -0.14672E-04  3059   0.756E-03    0.547E-02
RMM:   9    -0.232026792946E+04    0.18765E-04   -0.96370E-05  2905   0.564E-03    0.236E-02
RMM:  10    -0.232026793018E+04   -0.71761E-06   -0.20530E-05  2841   0.366E-03
  19 F= -.23404442E+04 E0= -.23404442E+04  d E =-.330287E-01  mag=     2.0000
       N       E                     dE             d eps       ncg     rms          rms(c)
DAV:   1    -0.232026772818E+04    0.20128E-03   -0.87534E-01  4448   0.699E-01    0.334E-01
RMM:   2    -0.232027981586E+04   -0.12088E-01   -0.12617E-01  6162   0.136E-01    0.195E-01
RMM:   3    -0.232028096447E+04   -0.11486E-02   -0.12606E-02  5069   0.485E-02    0.163E-01
RMM:   4    -0.232028096046E+04    0.40088E-05   -0.16512E-03  3254   0.116E-02    0.125E-01
RMM:   5    -0.232028081201E+04    0.14846E-03   -0.50962E-04  3910   0.104E-02    0.611E-02
RMM:   6    -0.232028082717E+04   -0.15161E-04   -0.89198E-05  2966   0.719E-03    0.421E-02
RMM:   7    -0.232028083630E+04   -0.91390E-05   -0.30190E-05  2824   0.343E-03
  20 F= -.23404576E+04 E0= -.23404576E+04  d E =-.133713E-01  mag=     2.0000
       N       E                     dE             d eps       ncg     rms          rms(c)
DAV:   1    -0.232018440553E+04    0.96422E-01   -0.77399E+00  4384   0.208E+00    0.993E-01
RMM:   2    -0.232029146829E+04   -0.10706E+00   -0.11339E+00  6181   0.415E-01    0.548E-01
RMM:   3    -0.232030236091E+04   -0.10893E-01   -0.11740E-01  5472   0.132E-01    0.484E-01
RMM:   4    -0.232030273719E+04   -0.37628E-03   -0.14004E-02  4896   0.323E-02    0.394E-01
RMM:   5    -0.232030206909E+04    0.66810E-03   -0.26634E-03  4524   0.221E-02    0.286E-01
RMM:   6    -0.232030140631E+04    0.66278E-03   -0.17788E-03  4297   0.206E-02    0.112E-01
RMM:   7    -0.232030155725E+04   -0.15095E-03   -0.58227E-04  4099   0.120E-02    0.106E-01
RMM:   8    -0.232030154674E+04    0.10516E-04   -0.14816E-04  3151   0.789E-03    0.626E-02
RMM:   9    -0.232030152766E+04    0.19079E-04   -0.95049E-05  2891   0.558E-03    0.284E-02
RMM:  10    -0.232030152063E+04    0.70304E-05   -0.52360E-05  2851   0.411E-03
  21 F= -.23404796E+04 E0= -.23404796E+04  d E =-.354303E-01  mag=     2.0000
       N       E                     dE             d eps       ncg     rms          rms(c)
DAV:   1    -0.232029011953E+04    0.11408E-01   -0.82844E-01  4448   0.679E-01    0.329E-01
RMM:   2    -0.232030164333E+04   -0.11524E-01   -0.12061E-01  6150   0.132E-01    0.193E-01
RMM:   3    -0.232030266719E+04   -0.10239E-02   -0.11525E-02  5020   0.461E-02    0.157E-01
RMM:   4    -0.232030265691E+04    0.10279E-04   -0.15656E-03  3319   0.117E-02    0.118E-01
RMM:   5    -0.232030253550E+04    0.12141E-03   -0.42147E-04  3843   0.962E-03    0.578E-02
RMM:   6    -0.232030253784E+04   -0.23399E-05   -0.73864E-05  2927   0.676E-03
  22 F= -.23404811E+04 E0= -.23404811E+04  d E =-.368920E-01  mag=     2.0000
       N       E                     dE             d eps       ncg     rms          rms(c)
DAV:   1    -0.232029456771E+04    0.79678E-02   -0.15056E+00  4400   0.913E-01    0.463E-01
RMM:   2    -0.232031612878E+04   -0.21561E-01   -0.23082E-01  6051   0.187E-01    0.255E-01
RMM:   3    -0.232031820355E+04   -0.20748E-02   -0.23690E-02  5309   0.633E-02    0.205E-01
RMM:   4    -0.232031824137E+04   -0.37825E-04   -0.30403E-03  4036   0.162E-02    0.153E-01
RMM:   5    -0.232031810515E+04    0.13622E-03   -0.60073E-04  4049   0.120E-02    0.944E-02
RMM:   6    -0.232031805653E+04    0.48624E-04   -0.19483E-04  3117   0.878E-03    0.408E-02
RMM:   7    -0.232031807844E+04   -0.21912E-04   -0.55486E-05  2915   0.511E-03    0.369E-02
RMM:   8    -0.232031807983E+04   -0.13869E-05   -0.20249E-05  2817   0.401E-03
  23 F= -.23404970E+04 E0= -.23404970E+04  d E =-.159565E-01  mag=     2.0000
       N       E                     dE             d eps       ncg     rms          rms(c)
DAV:   1    -0.232021709239E+04    0.10099E+00   -0.70538E+00  4384   0.197E+00    0.999E-01
RMM:   2    -0.232031924072E+04   -0.10215E+00   -0.10988E+00  6123   0.417E-01    0.537E-01
RMM:   3    -0.232032916061E+04   -0.99199E-02   -0.11339E-01  5462   0.128E-01    0.443E-01
RMM:   4    -0.232032950738E+04   -0.34677E-03   -0.13866E-02  4984   0.336E-02    0.347E-01
RMM:   5    -0.232032912241E+04    0.38497E-03   -0.22023E-03  4572   0.215E-02    0.260E-01
RMM:   6    -0.232032868534E+04    0.43708E-03   -0.12953E-03  4161   0.179E-02    0.121E-01
RMM:   7    -0.232032871169E+04   -0.26350E-04   -0.72918E-04  4129   0.132E-02    0.891E-02
RMM:   8    -0.232032872643E+04   -0.14746E-04   -0.15168E-04  3136   0.779E-03    0.540E-02
RMM:   9    -0.232032871145E+04    0.14983E-04   -0.75717E-05  2852   0.523E-03    0.249E-02
RMM:  10    -0.232032870537E+04    0.60837E-05   -0.25315E-05  2817   0.324E-03
  24 F= -.23405085E+04 E0= -.23405085E+04  d E =-.274621E-01  mag=     2.0000
       N       E                     dE             d eps       ncg     rms          rms(c)
DAV:   1    -0.232030685811E+04    0.21853E-01   -0.22860E+00  4464   0.114E+00    0.572E-01
RMM:   2    -0.232033887352E+04   -0.32015E-01   -0.34367E-01  6124   0.231E-01    0.303E-01
RMM:   3    -0.232034177644E+04   -0.29029E-02   -0.34792E-02  5340   0.758E-02    0.230E-01
RMM:   4    -0.232034180685E+04   -0.30406E-04   -0.43731E-03  4528   0.203E-02    0.162E-01
RMM:   5    -0.232034168415E+04    0.12270E-03   -0.75064E-04  4334   0.137E-02    0.105E-01
RMM:   6    -0.232034162040E+04    0.63756E-04   -0.23152E-04  3211   0.941E-03    0.506E-02
RMM:   7    -0.232034163415E+04   -0.13751E-04   -0.84479E-05  2981   0.573E-03    0.387E-02
RMM:   8    -0.232034163692E+04   -0.27700E-05   -0.26040E-05  2828   0.449E-03
  25 F= -.23405218E+04 E0= -.23405218E+04  d E =-.132633E-01  mag=     2.0000
       N       E                     dE             d eps       ncg     rms          rms(c)
DAV:   1    -0.232032493563E+04    0.16699E-01   -0.12547E+00  4464   0.842E-01    0.427E-01
RMM:   2    -0.232034258988E+04   -0.17654E-01   -0.18991E-01  6111   0.169E-01    0.226E-01
RMM:   3    -0.232034413914E+04   -0.15493E-02   -0.18708E-02  5226   0.546E-02    0.165E-01
RMM:   4    -0.232034416506E+04   -0.25919E-04   -0.24092E-03  4090   0.154E-02    0.114E-01
RMM:   5    -0.232034410316E+04    0.61902E-04   -0.40836E-04  3964   0.103E-02    0.708E-02
RMM:   6    -0.232034407343E+04    0.29734E-04   -0.93199E-05  2960   0.738E-03    0.347E-02
RMM:   7    -0.232034408196E+04   -0.85365E-05   -0.40052E-05  2867   0.445E-03
  26 F= -.23405245E+04 E0= -.23405245E+04  d E =-.159472E-01  mag=     2.0000
       N       E                     dE             d eps       ncg     rms          rms(c)
DAV:   1    -0.232034806617E+04   -0.39927E-02   -0.39034E-01  4448   0.520E-01    0.209E-01
RMM:   2    -0.232035129209E+04   -0.32259E-02   -0.35210E-02  5831   0.919E-02    0.116E-01
RMM:   3    -0.232035144343E+04   -0.15133E-03   -0.32879E-03  4757   0.417E-02    0.768E-02
RMM:   4    -0.232035141939E+04    0.24040E-04   -0.61493E-04  4146   0.120E-02    0.413E-02
RMM:   5    -0.232035141153E+04    0.78604E-05   -0.10674E-04  3200   0.802E-03    0.237E-02
RMM:   6    -0.232035140785E+04    0.36777E-05   -0.18300E-05  2829   0.420E-03
  27 F= -.23405320E+04 E0= -.23405320E+04  d E =-.749931E-02  mag=     2.0000
       N       E                     dE             d eps       ncg     rms          rms(c)
DAV:   1    -0.232035055802E+04    0.85351E-03   -0.34707E-01  4440   0.491E-01    0.197E-01
RMM:   2    -0.232035344692E+04   -0.28889E-02   -0.31318E-02  5725   0.866E-02    0.110E-01
RMM:   3    -0.232035359335E+04   -0.14643E-03   -0.30631E-03  4557   0.407E-02    0.734E-02
RMM:   4    -0.232035356813E+04    0.25213E-04   -0.57280E-04  4135   0.116E-02    0.385E-02
RMM:   5    -0.232035355999E+04    0.81435E-05   -0.10401E-04  3243   0.797E-03    0.192E-02
RMM:   6    -0.232035355727E+04    0.27193E-05   -0.15336E-05  2827   0.418E-03
  28 F= -.23405343E+04 E0= -.23405343E+04  d E =-.981123E-02  mag=     2.0000
       N       E                     dE             d eps       ncg     rms          rms(c)
DAV:   1    -0.232035822033E+04   -0.46603E-02   -0.36662E-01  4416   0.541E-01    0.180E-01
RMM:   2    -0.232036058844E+04   -0.23681E-02   -0.24918E-02  5543   0.886E-02    0.944E-02
RMM:   3    -0.232036071465E+04   -0.12621E-03   -0.24538E-03  4399   0.461E-02    0.622E-02
RMM:   4    -0.232036070120E+04    0.13458E-04   -0.45041E-04  4162   0.111E-02    0.308E-02
RMM:   5    -0.232036069932E+04    0.18760E-05   -0.48724E-05  2946   0.794E-03
  29 F= -.23405417E+04 E0= -.23405417E+04  d E =-.736587E-02  mag=     2.0000
       N       E                     dE             d eps       ncg     rms          rms(c)
DAV:   1    -0.232034832959E+04    0.12372E-01   -0.23258E+00  4384   0.136E+00    0.452E-01
RMM:   2    -0.232036326959E+04   -0.14940E-01   -0.15749E-01  5432   0.223E-01    0.236E-01
RMM:   3    -0.232036415107E+04   -0.88148E-03   -0.16842E-02  4695   0.115E-01    0.158E-01
RMM:   4    -0.232036408442E+04    0.66648E-04   -0.29421E-03  4703   0.262E-02    0.849E-02
RMM:   5    -0.232036404097E+04    0.43455E-04   -0.41327E-04  4206   0.176E-02    0.409E-02
RMM:   6    -0.232036403649E+04    0.44740E-05   -0.68495E-05  3162   0.577E-03
  30 F= -.23405456E+04 E0= -.23405456E+04  d E =-.112531E-01  mag=     2.0000
       N       E                     dE             d eps       ncg     rms          rms(c)
DAV:   1    -0.232036375706E+04    0.28391E-03   -0.22764E-01  4496   0.426E-01    0.140E-01
RMM:   2    -0.232036518873E+04   -0.14317E-02   -0.15144E-02  5852   0.701E-02    0.719E-02
RMM:   3    -0.232036526085E+04   -0.72126E-04   -0.15614E-03  4228   0.343E-02    0.452E-02
RMM:   4    -0.232036525000E+04    0.10852E-04   -0.23972E-04  3834   0.858E-03    0.203E-02
RMM:   5    -0.232036525035E+04   -0.35003E-06   -0.21235E-05  2858   0.605E-03
  31 F= -.23405466E+04 E0= -.23405466E+04  d E =-.122970E-01  mag=     2.0000
       N       E                     dE             d eps       ncg     rms          rms(c)
DAV:   1    -0.232037051477E+04   -0.52648E-02   -0.40584E-01  4416   0.584E-01    0.193E-01
RMM:   2    -0.232037149702E+04   -0.98225E-03   -0.11812E-02  5206   0.866E-02    0.102E-01
RMM:   3    -0.232037139654E+04    0.10048E-03   -0.85251E-04  4584   0.373E-02    0.644E-02
RMM:   4    -0.232037137067E+04    0.25873E-04   -0.33667E-04  4273   0.132E-02    0.306E-02
RMM:   5    -0.232037136909E+04    0.15739E-05   -0.29678E-05  2884   0.833E-03
  32 F= -.23405529E+04 E0= -.23405529E+04  d E =-.625099E-02  mag=     2.0000
       N       E                     dE             d eps       ncg     rms          rms(c)
DAV:   1    -0.232037229892E+04   -0.92826E-03   -0.30662E-01  4536   0.509E-01    0.170E-01
RMM:   2    -0.232037306403E+04   -0.76510E-03   -0.91078E-03  5170   0.759E-02    0.922E-02
RMM:   3    -0.232037298219E+04    0.81839E-04   -0.64146E-04  4548   0.293E-02    0.590E-02
RMM:   4    -0.232037296315E+04    0.19035E-04   -0.26867E-04  4179   0.118E-02    0.290E-02
RMM:   5    -0.232037296273E+04    0.42244E-06   -0.25177E-05  2849   0.724E-03
  33 F= -.23405546E+04 E0= -.23405546E+04  d E =-.795720E-02  mag=     2.0000
       N       E                     dE             d eps       ncg     rms          rms(c)
DAV:   1    -0.232037724859E+04   -0.42854E-02   -0.50479E-01  4416   0.629E-01    0.199E-01
RMM:   2    -0.232037860098E+04   -0.13524E-02   -0.15203E-02  5449   0.931E-02    0.115E-01
RMM:   3    -0.232037852163E+04    0.79351E-04   -0.96862E-04  4616   0.338E-02    0.784E-02
RMM:   4    -0.232037851215E+04    0.94831E-05   -0.42449E-04  4397   0.138E-02    0.452E-02
RMM:   5    -0.232037851046E+04    0.16938E-05   -0.43614E-05  2902   0.850E-03
  34 F= -.23405602E+04 E0= -.23405602E+04  d E =-.565493E-02  mag=     2.0000
       N       E                     dE             d eps       ncg     rms          rms(c)
DAV:   1    -0.232037901862E+04   -0.50648E-03   -0.36582E-01  4448   0.536E-01    0.172E-01
RMM:   2    -0.232038000388E+04   -0.98526E-03   -0.11122E-02  5420   0.796E-02    0.997E-02
RMM:   3    -0.232037993783E+04    0.66050E-04   -0.75779E-04  4501   0.292E-02    0.663E-02
RMM:   4    -0.232037992767E+04    0.10164E-04   -0.31138E-04  4206   0.122E-02    0.360E-02
RMM:   5    -0.232037992618E+04    0.14820E-05   -0.29475E-05  2863   0.745E-03
  35 F= -.23405617E+04 E0= -.23405617E+04  d E =-.716245E-02  mag=     2.0000
       N       E                     dE             d eps       ncg     rms          rms(c)
DAV:   1    -0.232038465458E+04   -0.47269E-02   -0.46692E-01  4416   0.620E-01    0.206E-01
RMM:   2    -0.232038560385E+04   -0.94927E-03   -0.11456E-02  5214   0.889E-02    0.119E-01
RMM:   3    -0.232038552103E+04    0.82820E-04   -0.80804E-04  4579   0.339E-02    0.813E-02
RMM:   4    -0.232038551106E+04    0.99786E-05   -0.38787E-04  4226   0.134E-02    0.435E-02
RMM:   5    -0.232038550454E+04    0.65179E-05   -0.51634E-05  2899   0.870E-03
  36 F= -.23405675E+04 E0= -.23405675E+04  d E =-.573774E-02  mag=     2.0000
       N       E                     dE             d eps       ncg     rms          rms(c)
DAV:   1    -0.232038645760E+04   -0.94654E-03   -0.64220E-01  4384   0.728E-01    0.238E-01
RMM:   2    -0.232038777376E+04   -0.13162E-02   -0.15947E-02  5210   0.105E-01    0.136E-01
RMM:   3    -0.232038764529E+04    0.12847E-03   -0.10779E-03  4669   0.375E-02    0.905E-02
RMM:   4    -0.232038762715E+04    0.18139E-04   -0.50200E-04  4441   0.153E-02    0.491E-02
RMM:   5    -0.232038761612E+04    0.11028E-04   -0.66269E-05  3012   0.945E-03    0.288E-02
RMM:   6    -0.232038761364E+04    0.24831E-05   -0.31733E-05  2841   0.396E-03
  37 F= -.23405698E+04 E0= -.23405698E+04  d E =-.803135E-02  mag=     2.0000
       N       E                     dE             d eps       ncg     rms          rms(c)
DAV:   1    -0.232039090752E+04   -0.32914E-02   -0.14449E-01  4560   0.323E-01    0.961E-02
RMM:   2    -0.232039113539E+04   -0.22787E-03   -0.27291E-03  5254   0.446E-02    0.585E-02
RMM:   3    -0.232039110971E+04    0.25685E-04   -0.17642E-04  4029   0.156E-02    0.369E-02
RMM:   4    -0.232039110803E+04    0.16777E-05   -0.66139E-05  3248   0.630E-03
  38 F= -.23405733E+04 E0= -.23405733E+04  d E =-.358686E-02  mag=     2.0000
       N       E                     dE             d eps       ncg     rms          rms(c)
DAV:   1    -0.232039695237E+04   -0.58427E-02   -0.13004E+00  4384   0.970E-01    0.288E-01
RMM:   2    -0.232039905152E+04   -0.20992E-02   -0.24927E-02  5098   0.133E-01    0.177E-01
RMM:   3    -0.232039880363E+04    0.24789E-03   -0.17292E-03  4833   0.515E-02    0.115E-01
RMM:   4    -0.232039873980E+04    0.63828E-04   -0.70502E-04  4369   0.177E-02    0.450E-02
RMM:   5    -0.232039873715E+04    0.26525E-05   -0.74656E-05  3110   0.111E-02
  39 F= -.23405812E+04 E0= -.23405812E+04  d E =-.114916E-01  mag=     2.0000
       N       E                     dE             d eps       ncg     rms          rms(c)
DAV:   1    -0.232039377333E+04    0.49665E-02   -0.52051E+00  4384   0.194E+00    0.571E-01
RMM:   2    -0.232040205520E+04   -0.82819E-02   -0.99141E-02  5099   0.266E-01    0.348E-01
RMM:   3    -0.232040115092E+04    0.90428E-03   -0.64955E-03  4848   0.907E-02    0.222E-01
RMM:   4    -0.232040087578E+04    0.27514E-03   -0.27346E-03  4447   0.350E-02    0.808E-02
RMM:   5    -0.232040086628E+04    0.95005E-05   -0.28316E-04  4117   0.210E-02    0.368E-02
RMM:   6    -0.232040087973E+04   -0.13449E-04   -0.58868E-05  3200   0.509E-03    0.272E-02
RMM:   7    -0.232040088129E+04   -0.15598E-05   -0.11583E-05  2800   0.360E-03
  40 F= -.23405839E+04 E0= -.23405839E+04  d E =-.141833E-01  mag=     2.0000
       N       E                     dE             d eps       ncg     rms          rms(c)
DAV:   1    -0.232040129416E+04   -0.41443E-03   -0.66605E-01  4384   0.693E-01    0.204E-01
RMM:   2    -0.232040234522E+04   -0.10511E-02   -0.12743E-02  5102   0.946E-02    0.125E-01
RMM:   3    -0.232040220647E+04    0.13876E-03   -0.82279E-04  4672   0.311E-02    0.784E-02
RMM:   4    -0.232040216599E+04    0.40478E-04   -0.34454E-04  4164   0.129E-02    0.260E-02
RMM:   5    -0.232040216765E+04   -0.16625E-05   -0.31242E-05  2875   0.780E-03
  41 F= -.23405850E+04 E0= -.23405850E+04  d E =-.152739E-01  mag=     2.0000
       N       E                     dE             d eps       ncg     rms          rms(c)
DAV:   1    -0.232040630029E+04   -0.41343E-02   -0.42099E-01  4384   0.530E-01    0.177E-01
RMM:   2    -0.232040687239E+04   -0.57210E-03   -0.76874E-03  4562   0.761E-02    0.102E-01
RMM:   3    -0.232040675838E+04    0.11401E-03   -0.61272E-04  4563   0.328E-02    0.623E-02
RMM:   4    -0.232040672471E+04    0.33669E-04   -0.37438E-04  4151   0.133E-02    0.209E-02
RMM:   5    -0.232040672030E+04    0.44102E-05   -0.27340E-05  2904   0.844E-03
  42 F= -.23405896E+04 E0= -.23405896E+04  d E =-.460744E-02  mag=     2.0000
       N       E                     dE             d eps       ncg     rms          rms(c)
DAV:   1    -0.232040760115E+04   -0.87644E-03   -0.28503E-01  4448   0.437E-01    0.147E-01
RMM:   2    -0.232040800207E+04   -0.40091E-03   -0.53621E-03  4585   0.635E-02    0.832E-02
RMM:   3    -0.232040792246E+04    0.79610E-04   -0.39774E-04  4565   0.242E-02    0.487E-02
RMM:   4    -0.232040790328E+04    0.19174E-04   -0.22231E-04  4048   0.108E-02    0.173E-02
RMM:   5    -0.232040789877E+04    0.45128E-05   -0.16709E-05  2852   0.641E-03
  43 F= -.23405909E+04 E0= -.23405909E+04  d E =-.583194E-02  mag=     2.0000
       N       E                     dE             d eps       ncg     rms          rms(c)
DAV:   1    -0.232041088052E+04   -0.29772E-02   -0.18390E-01  4480   0.394E-01    0.147E-01
RMM:   2    -0.232041116899E+04   -0.28847E-03   -0.38613E-03  4859   0.574E-02    0.730E-02
RMM:   3    -0.232041111056E+04    0.58425E-04   -0.23850E-04  4570   0.220E-02    0.453E-02
RMM:   4    -0.232041109734E+04    0.13221E-04   -0.13381E-04  4042   0.981E-03    0.179E-02
RMM:   5    -0.232041109482E+04    0.25185E-05   -0.13370E-05  2819   0.641E-03
  44 F= -.23405941E+04 E0= -.23405941E+04  d E =-.322978E-02  mag=     2.0000
       N       E                     dE             d eps       ncg     rms          rms(c)
DAV:   1    -0.232041237094E+04   -0.12736E-02   -0.40289E-01  4384   0.584E-01    0.218E-01
RMM:   2    -0.232041300426E+04   -0.63332E-03   -0.84876E-03  4877   0.857E-02    0.108E-01
RMM:   3    -0.232041287399E+04    0.13028E-03   -0.51875E-04  4656   0.314E-02    0.675E-02
RMM:   4    -0.232041283739E+04    0.36602E-04   -0.29795E-04  4361   0.144E-02    0.262E-02
RMM:   5    -0.232041283077E+04    0.66164E-05   -0.29916E-05  2935   0.929E-03
  45 F= -.23405959E+04 E0= -.23405959E+04  d E =-.501671E-02  mag=     2.0000
       N       E                     dE             d eps       ncg     rms          rms(c)
DAV:   1    -0.232041582878E+04   -0.29914E-02   -0.17605E-01  4592   0.371E-01    0.123E-01
RMM:   2    -0.232041616191E+04   -0.33313E-03   -0.42363E-03  5330   0.534E-02    0.693E-02
RMM:   3    -0.232041613313E+04    0.28779E-04   -0.27136E-04  4171   0.183E-02    0.434E-02
RMM:   4    -0.232041612456E+04    0.85632E-05   -0.11349E-04  3856   0.817E-03    0.186E-02
RMM:   5    -0.232041612318E+04    0.13831E-05   -0.14816E-05  2830   0.494E-03
  46 F= -.23405992E+04 E0= -.23405992E+04  d E =-.328631E-02  mag=     2.0000
       N       E                     dE             d eps       ncg     rms          rms(c)
DAV:   1    -0.232041777722E+04   -0.16527E-02   -0.15875E+00  4384   0.111E+00    0.367E-01
RMM:   2    -0.232042081221E+04   -0.30350E-02   -0.37916E-02  5379   0.159E-01    0.212E-01
RMM:   3    -0.232042057004E+04    0.24217E-03   -0.25047E-03  4716   0.558E-02    0.134E-01
RMM:   4    -0.232042045867E+04    0.11137E-03   -0.10767E-03  4561   0.230E-02    0.502E-02
RMM:   5    -0.232042045399E+04    0.46871E-05   -0.11623E-04  3602   0.136E-02    0.230E-02
RMM:   6    -0.232042046015E+04   -0.61652E-05   -0.26710E-05  2854   0.388E-03
  47 F= -.23406035E+04 E0= -.23406035E+04  d E =-.761494E-02  mag=     2.0000
       N       E                     dE             d eps       ncg     rms          rms(c)
DAV:   1    -0.232042356108E+04   -0.31071E-02   -0.24618E-01  4544   0.426E-01    0.146E-01
RMM:   2    -0.232042401022E+04   -0.44914E-03   -0.55823E-03  5416   0.611E-02    0.809E-02
RMM:   3    -0.232042397109E+04    0.39123E-04   -0.38655E-04  4416   0.227E-02    0.498E-02
RMM:   4    -0.232042395942E+04    0.11672E-04   -0.15569E-04  3926   0.918E-03    0.212E-02
RMM:   5    -0.232042395850E+04    0.91652E-06   -0.18852E-05  2841   0.557E-03
  48 F= -.23406069E+04 E0= -.23406069E+04  d E =-.345672E-02  mag=     2.0000
       N       E                     dE             d eps       ncg     rms          rms(c)
DAV:   1    -0.232042482113E+04   -0.86171E-03   -0.19848E+00  4384   0.121E+00    0.413E-01
RMM:   2    -0.232042845395E+04   -0.36328E-02   -0.44848E-02  5347   0.172E-01    0.230E-01
RMM:   3    -0.232042810826E+04    0.34569E-03   -0.30575E-03  4707   0.620E-02    0.139E-01
RMM:   4    -0.232042799996E+04    0.10829E-03   -0.13222E-03  4568   0.254E-02    0.506E-02
RMM:   5    -0.232042799936E+04    0.59983E-06   -0.13989E-04  3673   0.148E-02    0.251E-02
RMM:   6    -0.232042800148E+04   -0.21114E-05   -0.30777E-05  2880   0.406E-03
  49 F= -.23406109E+04 E0= -.23406109E+04  d E =-.739223E-02  mag=     2.0000
       N       E                     dE             d eps       ncg     rms          rms(c)
DAV:   1    -0.232043136005E+04   -0.33607E-02   -0.42979E-01  4528   0.561E-01    0.198E-01
RMM:   2    -0.232043195818E+04   -0.59813E-03   -0.75425E-03  4922   0.766E-02    0.113E-01
RMM:   3    -0.232043186403E+04    0.94157E-04   -0.49250E-04  4587   0.317E-02    0.642E-02
RMM:   4    -0.232043184029E+04    0.23733E-04   -0.21969E-04  4118   0.117E-02    0.209E-02
RMM:   5    -0.232043184187E+04   -0.15751E-05   -0.19499E-05  2843   0.749E-03
  50 F= -.23406148E+04 E0= -.23406148E+04  d E =-.389429E-02  mag=     2.0000
       N       E                     dE             d eps       ncg     rms          rms(c)
DAV:   1    -0.232043284052E+04   -0.10002E-02   -0.10348E+00  4384   0.871E-01    0.307E-01
RMM:   2    -0.232043426632E+04   -0.14258E-02   -0.18102E-02  4819   0.119E-01    0.175E-01
RMM:   3    -0.232043402903E+04    0.23729E-03   -0.12062E-03  4595   0.499E-02    0.969E-02
RMM:   4    -0.232043397298E+04    0.56050E-04   -0.54541E-04  4423   0.183E-02    0.311E-02
RMM:   5    -0.232043397499E+04   -0.20077E-05   -0.46165E-05  3118   0.114E-02
  51 F= -.23406170E+04 E0= -.23406170E+04  d E =-.611848E-02  mag=     2.0000
       N       E                     dE             d eps       ncg     rms          rms(c)
DAV:   1    -0.232043757341E+04   -0.36004E-02   -0.68816E-01  4416   0.697E-01    0.247E-01
RMM:   2    -0.232043874117E+04   -0.11678E-02   -0.14436E-02  5313   0.969E-02    0.139E-01
RMM:   3    -0.232043859853E+04    0.14264E-03   -0.96679E-04  4597   0.365E-02    0.739E-02
RMM:   4    -0.232043857762E+04    0.20911E-04   -0.37393E-04  4380   0.139E-02    0.255E-02
RMM:   5    -0.232043857434E+04    0.32734E-05   -0.28948E-05  2909   0.839E-03
  52 F= -.23406219E+04 E0= -.23406219E+04  d E =-.493317E-02  mag=     2.0000
       N       E                     dE             d eps       ncg     rms          rms(c)
DAV:   1    -0.232043888679E+04   -0.30917E-03   -0.81449E-01  4392   0.760E-01    0.268E-01
RMM:   2    -0.232044028219E+04   -0.13954E-02   -0.17243E-02  5294   0.106E-01    0.152E-01
RMM:   3    -0.232044010048E+04    0.18171E-03   -0.11762E-03  4634   0.404E-02    0.813E-02
RMM:   4    -0.232044007108E+04    0.29397E-04   -0.45485E-04  4471   0.154E-02    0.289E-02
RMM:   5    -0.232044006662E+04    0.44605E-05   -0.37663E-05  2977   0.924E-03
  53 F= -.23406238E+04 E0= -.23406238E+04  d E =-.679442E-02  mag=     2.0000
       N       E                     dE             d eps       ncg     rms          rms(c)
DAV:   1    -0.232044141336E+04   -0.13423E-02   -0.12468E+00  4384   0.941E-01    0.331E-01
RMM:   2    -0.232044491993E+04   -0.35066E-02   -0.40217E-02  5705   0.141E-01    0.181E-01
RMM:   3    -0.232044485482E+04    0.65105E-04   -0.31148E-03  4737   0.479E-02    0.106E-01
RMM:   4    -0.232044481690E+04    0.37925E-04   -0.86868E-04  4837   0.191E-02    0.450E-02
RMM:   5    -0.232044480556E+04    0.11340E-04   -0.11856E-04  3418   0.105E-02    0.157E-02
RMM:   6    -0.232044480224E+04    0.33131E-05   -0.23548E-05  2858   0.402E-03
  54 F= -.23406291E+04 E0= -.23406291E+04  d E =-.528745E-02  mag=     2.0000
       N       E                     dE             d eps       ncg     rms          rms(c)
DAV:   1    -0.232044422545E+04    0.58010E-03   -0.40122E-01  4448   0.534E-01    0.188E-01
RMM:   2    -0.232044535997E+04   -0.11345E-02   -0.12962E-02  5746   0.803E-02    0.102E-01
RMM:   3    -0.232044533911E+04    0.20856E-04   -0.96920E-04  4527   0.293E-02    0.603E-02
RMM:   4    -0.232044532655E+04    0.12566E-04   -0.26894E-04  4217   0.112E-02    0.258E-02
RMM:   5    -0.232044532359E+04    0.29519E-05   -0.36242E-05  2915   0.669E-03
  55 F= -.23406299E+04 E0= -.23406299E+04  d E =-.612293E-02  mag=     2.0000
       N       E                     dE             d eps       ncg     rms          rms(c)
DAV:   1    -0.232044542776E+04   -0.10121E-03   -0.10284E+00  4384   0.850E-01    0.313E-01
RMM:   2    -0.232044957010E+04   -0.41423E-02   -0.46441E-02  5880   0.138E-01    0.174E-01
RMM:   3    -0.232044975168E+04   -0.18157E-03   -0.48658E-03  4912   0.444E-02    0.111E-01
RMM:   4    -0.232044971324E+04    0.38433E-04   -0.84982E-04  4634   0.165E-02    0.525E-02
RMM:   5    -0.232044969467E+04    0.18568E-04   -0.18495E-04  3631   0.957E-03    0.185E-02
RMM:   6    -0.232044968823E+04    0.64453E-05   -0.31842E-05  2841   0.524E-03
  56 F= -.23406347E+04 E0= -.23406347E+04  d E =-.476506E-02  mag=     2.0000
       N       E                     dE             d eps       ncg     rms          rms(c)
DAV:   1    -0.232044879811E+04    0.89657E-03   -0.33367E-01  4456   0.484E-01    0.179E-01
RMM:   2    -0.232045014841E+04   -0.13503E-02   -0.15092E-02  5960   0.781E-02    0.990E-02
RMM:   3    -0.232045019448E+04   -0.46067E-04   -0.14092E-03  4637   0.267E-02    0.618E-02
RMM:   4    -0.232045018413E+04    0.10347E-04   -0.27118E-04  3890   0.995E-03    0.285E-02
RMM:   5    -0.232045017773E+04    0.64079E-05   -0.54479E-05  2963   0.613E-03
  57 F= -.23406354E+04 E0= -.23406354E+04  d E =-.548205E-02  mag=     2.0000
       N       E                     dE             d eps       ncg     rms          rms(c)
DAV:   1    -0.232044853845E+04    0.16457E-02   -0.13297E+00  4384   0.966E-01    0.364E-01
RMM:   2    -0.232045404228E+04   -0.55038E-02   -0.61941E-02  5847   0.158E-01    0.195E-01
RMM:   3    -0.232045428787E+04   -0.24558E-03   -0.64151E-03  4959   0.493E-02    0.128E-01
RMM:   4    -0.232045423577E+04    0.52100E-04   -0.11259E-03  4705   0.190E-02    0.645E-02
RMM:   5    -0.232045421551E+04    0.20258E-04   -0.27748E-04  3943   0.113E-02    0.227E-02
RMM:   6    -0.232045420731E+04    0.82012E-05   -0.49542E-05  2862   0.582E-03
  58 F= -.23406398E+04 E0= -.23406398E+04  d E =-.438619E-02  mag=     2.0000
       N       E                     dE             d eps       ncg     rms          rms(c)
DAV:   1    -0.232045372301E+04    0.49250E-03   -0.15311E-01  4648   0.328E-01    0.124E-01
RMM:   2    -0.232045436540E+04   -0.64239E-03   -0.71674E-03  5923   0.537E-02    0.668E-02
RMM:   3    -0.232045439229E+04   -0.26891E-04   -0.68710E-04  3903   0.192E-02    0.429E-02
RMM:   4    -0.232045438817E+04    0.41257E-05   -0.12955E-04  3100   0.707E-03    0.214E-02
RMM:   5    -0.232045438535E+04    0.28200E-05   -0.28676E-05  2881   0.473E-03
  59 F= -.23406401E+04 E0= -.23406401E+04  d E =-.468505E-02  mag=     2.0000
       N       E                     dE             d eps       ncg     rms          rms(c)
DAV:   1    -0.232045391316E+04    0.47501E-03   -0.12704E+00  4384   0.938E-01    0.335E-01
RMM:   2    -0.232045811488E+04   -0.42017E-02   -0.48451E-02  5813   0.146E-01    0.187E-01
RMM:   3    -0.232045812686E+04   -0.11984E-04   -0.41914E-03  4911   0.462E-02    0.120E-01
RMM:   4    -0.232045807076E+04    0.56102E-04   -0.11232E-03  4836   0.194E-02    0.579E-02
RMM:   5    -0.232045805423E+04    0.16531E-04   -0.20126E-04  3792   0.111E-02    0.222E-02
RMM:   6    -0.232045804886E+04    0.53706E-05   -0.36208E-05  2870   0.478E-03
  60 F= -.23406442E+04 E0= -.23406442E+04  d E =-.409532E-02  mag=     2.0000
       N       E                     dE             d eps       ncg     rms          rms(c)
DAV:   1    -0.232045745532E+04    0.59891E-03   -0.26754E-01  4448   0.431E-01    0.154E-01
RMM:   2    -0.232045834448E+04   -0.88916E-03   -0.10207E-02  5805   0.671E-02    0.870E-02
RMM:   3    -0.232045834939E+04   -0.49074E-05   -0.86027E-04  4434   0.247E-02    0.562E-02
RMM:   4    -0.232045833648E+04    0.12908E-04   -0.23279E-04  3978   0.955E-03    0.271E-02
RMM:   5    -0.232045833293E+04    0.35474E-05   -0.43378E-05  2967   0.594E-03
  61 F= -.23406447E+04 E0= -.23406447E+04  d E =-.457769E-02  mag=     2.0000
       N       E                     dE             d eps       ncg     rms          rms(c)
DAV:   1    -0.232046068814E+04   -0.23517E-02   -0.70384E-01  4384   0.706E-01    0.246E-01
RMM:   2    -0.232046213361E+04   -0.14455E-02   -0.17617E-02  5585   0.101E-01    0.139E-01
RMM:   3    -0.232046203617E+04    0.97446E-04   -0.11557E-03  4696   0.336E-02    0.806E-02
RMM:   4    -0.232046200766E+04    0.28506E-04   -0.44870E-04  4437   0.144E-02    0.288E-02
RMM:   5    -0.232046200367E+04    0.39874E-05   -0.48128E-05  2952   0.829E-03
  62 F= -.23406487E+04 E0= -.23406487E+04  d E =-.403077E-02  mag=     2.0000
       N       E                     dE             d eps       ncg     rms          rms(c)
DAV:   1    -0.232045588675E+04    0.61209E-02   -0.35095E+00  4384   0.158E+00    0.548E-01
RMM:   2    -0.232046310737E+04   -0.72206E-02   -0.88090E-02  5580   0.225E-01    0.309E-01
RMM:   3    -0.232046257283E+04    0.53453E-03   -0.57443E-03  4828   0.691E-02    0.179E-01
RMM:   4    -0.232046242116E+04    0.15168E-03   -0.22623E-03  4727   0.309E-02    0.641E-02
RMM:   5    -0.232046239973E+04    0.21427E-04   -0.24022E-04  4116   0.184E-02    0.271E-02
RMM:   6    -0.232046239908E+04    0.64795E-06   -0.63170E-05  3212   0.507E-03
  63 F= -.23406499E+04 E0= -.23406499E+04  d E =-.523857E-02  mag=     2.0000
       N       E                     dE             d eps       ncg     rms          rms(c)
DAV:   1    -0.232046254754E+04   -0.14781E-03   -0.55290E-01  4400   0.625E-01    0.217E-01
RMM:   2    -0.232046366233E+04   -0.11148E-02   -0.13726E-02  5587   0.898E-02    0.122E-01
RMM:   3    -0.232046357009E+04    0.92239E-04   -0.92743E-04  4523   0.334E-02    0.684E-02
RMM:   4    -0.232046355056E+04    0.19534E-04   -0.34900E-04  4272   0.132E-02    0.229E-02
RMM:   5    -0.232046354848E+04    0.20764E-05   -0.35014E-05  2914   0.754E-03
  64 F= -.23406507E+04 E0= -.23406507E+04  d E =-.606418E-02  mag=     2.0000
       N       E                     dE             d eps       ncg     rms          rms(c)
DAV:   1    -0.232046623515E+04   -0.26846E-02   -0.81639E-01  4384   0.730E-01    0.260E-01
RMM:   2    -0.232046741206E+04   -0.11769E-02   -0.15119E-02  4948   0.987E-02    0.149E-01
RMM:   3    -0.232046719321E+04    0.21885E-03   -0.10568E-03  4581   0.386E-02    0.805E-02
RMM:   4    -0.232046715914E+04    0.34074E-04   -0.47244E-04  4233   0.148E-02    0.267E-02
RMM:   5    -0.232046715455E+04    0.45857E-05   -0.44405E-05  2957   0.932E-03
  65 F= -.23406546E+04 E0= -.23406546E+04  d E =-.388542E-02  mag=     2.0000
       N       E                     dE             d eps       ncg     rms          rms(c)
DAV:   1    -0.232046719394E+04   -0.34801E-04   -0.81202E-01  4384   0.728E-01    0.261E-01
RMM:   2    -0.232046840196E+04   -0.12080E-02   -0.15244E-02  5011   0.993E-02    0.150E-01
RMM:   3    -0.232046819787E+04    0.20409E-03   -0.10708E-03  4643   0.369E-02    0.817E-02
RMM:   4    -0.232046816506E+04    0.32811E-04   -0.46512E-04  4293   0.146E-02    0.281E-02
RMM:   5    -0.232046815891E+04    0.61429E-05   -0.46758E-05  2945   0.888E-03
  66 F= -.23406559E+04 E0= -.23406559E+04  d E =-.517295E-02  mag=     2.0000
       N       E                     dE             d eps       ncg     rms          rms(c)
DAV:   1    -0.232047031023E+04   -0.21452E-02   -0.10047E+00  4384   0.794E-01    0.281E-01
RMM:   2    -0.232047209576E+04   -0.17855E-02   -0.21384E-02  5014   0.109E-01    0.166E-01
RMM:   3    -0.232047186058E+04    0.23518E-03   -0.15585E-03  4654   0.408E-02    0.956E-02
RMM:   4    -0.232047181225E+04    0.48330E-04   -0.66462E-04  4385   0.166E-02    0.347E-02
RMM:   5    -0.232047181003E+04    0.22155E-05   -0.65921E-05  3039   0.971E-03
  67 F= -.23406597E+04 E0= -.23406597E+04  d E =-.385085E-02  mag=     2.0000
       N       E                     dE             d eps       ncg     rms          rms(c)
DAV:   1    -0.232047163852E+04    0.17373E-03   -0.58230E-01  4416   0.605E-01    0.215E-01
RMM:   2    -0.232047268902E+04   -0.10505E-02   -0.12493E-02  5047   0.836E-02    0.127E-01
RMM:   3    -0.232047255867E+04    0.13035E-03   -0.91914E-04  4550   0.303E-02    0.739E-02
RMM:   4    -0.232047252821E+04    0.30461E-04   -0.38162E-04  4142   0.127E-02    0.275E-02
RMM:   5    -0.232047252578E+04    0.24268E-05   -0.39895E-05  2920   0.745E-03
  68 F= -.23406606E+04 E0= -.23406606E+04  d E =-.472196E-02  mag=     2.0000
       N       E                     dE             d eps       ncg     rms          rms(c)
DAV:   1    -0.232047372559E+04   -0.11974E-02   -0.92107E-01  4384   0.803E-01    0.283E-01
RMM:   2    -0.232047582210E+04   -0.20965E-02   -0.24636E-02  5244   0.113E-01    0.161E-01
RMM:   3    -0.232047564975E+04    0.17235E-03   -0.17249E-03  4798   0.414E-02    0.963E-02
RMM:   4    -0.232047559330E+04    0.56448E-04   -0.59927E-04  4464   0.163E-02    0.368E-02
RMM:   5    -0.232047559285E+04    0.44986E-06   -0.68575E-05  3075   0.100E-02
  69 F= -.23406638E+04 E0= -.23406638E+04  d E =-.315547E-02  mag=     2.0000
       N       E                     dE             d eps       ncg     rms          rms(c)
DAV:   1    -0.232047541559E+04    0.17771E-03   -0.16452E-01  4592   0.340E-01    0.120E-01
RMM:   2    -0.232047580432E+04   -0.38873E-03   -0.45141E-03  5265   0.486E-02    0.688E-02
RMM:   3    -0.232047577575E+04    0.28565E-04   -0.33551E-04  3946   0.166E-02    0.416E-02
RMM:   4    -0.232047576492E+04    0.10836E-04   -0.10600E-04  3609   0.770E-03    0.169E-02
RMM:   5    -0.232047576428E+04    0.63614E-06   -0.15885E-05  2848   0.483E-03
  70 F= -.23406640E+04 E0= -.23406640E+04  d E =-.336431E-02  mag=     2.0000
       N       E                     dE             d eps       ncg     rms          rms(c)
DAV:   1    -0.232047468969E+04    0.10752E-02   -0.94615E-01  4384   0.825E-01    0.289E-01
RMM:   2    -0.232047868457E+04   -0.39949E-02   -0.43795E-02  5572   0.123E-01    0.163E-01
RMM:   3    -0.232047876602E+04   -0.81453E-04   -0.35665E-03  4869   0.480E-02    0.103E-01
RMM:   4    -0.232047872256E+04    0.43455E-04   -0.74268E-04  4489   0.158E-02    0.476E-02
RMM:   5    -0.232047871059E+04    0.11977E-04   -0.12366E-04  3431   0.104E-02    0.136E-02
RMM:   6    -0.232047870925E+04    0.13410E-05   -0.21064E-05  2839   0.401E-03
  71 F= -.23406669E+04 E0= -.23406669E+04  d E =-.292000E-02  mag=     2.0000
       N       E                     dE             d eps       ncg     rms          rms(c)
DAV:   1    -0.232047788798E+04    0.82261E-03   -0.29767E-01  4432   0.462E-01    0.162E-01
RMM:   2    -0.232047914993E+04   -0.12620E-02   -0.13772E-02  5688   0.693E-02    0.912E-02
RMM:   3    -0.232047917595E+04   -0.26019E-04   -0.11108E-03  4538   0.293E-02    0.576E-02
RMM:   4    -0.232047916374E+04    0.12211E-04   -0.23324E-04  3896   0.929E-03    0.263E-02
RMM:   5    -0.232047915978E+04    0.39629E-05   -0.33428E-05  2933   0.635E-03
  72 F= -.23406673E+04 E0= -.23406673E+04  d E =-.335685E-02  mag=     2.0000
       N       E                     dE             d eps       ncg     rms          rms(c)
DAV:   1    -0.232047242870E+04    0.67350E-02   -0.14283E+00  4384   0.999E-01    0.362E-01
RMM:   2    -0.232048159617E+04   -0.91675E-02   -0.98001E-02  5666   0.161E-01    0.199E-01
RMM:   3    -0.232048212997E+04   -0.53380E-03   -0.10012E-02  4971   0.678E-02    0.130E-01
RMM:   4    -0.232048207874E+04    0.51226E-04   -0.14418E-03  4707   0.185E-02    0.700E-02
RMM:   5    -0.232048204574E+04    0.33006E-04   -0.26494E-04  4096   0.127E-02    0.199E-02
RMM:   6    -0.232048204308E+04    0.26567E-05   -0.38106E-05  2923   0.566E-03
  73 F= -.23406702E+04 E0= -.23406702E+04  d E =-.286092E-02  mag=     2.0000
       N       E                     dE             d eps       ncg     rms          rms(c)
DAV:   1    -0.232048191473E+04    0.13101E-03   -0.22456E-02  5256   0.126E-01    0.459E-02
RMM:   2    -0.232048206547E+04   -0.15074E-03   -0.15927E-03  5772   0.217E-02    0.253E-02
RMM:   3    -0.232048207337E+04   -0.79069E-05   -0.13892E-04  2896   0.897E-03    0.161E-02
RMM:   4    -0.232048207326E+04    0.11394E-06   -0.23397E-05  2840   0.289E-03
  74 F= -.23406702E+04 E0= -.23406702E+04  d E =-.288824E-02  mag=     2.0000
       N       E                     dE             d eps       ncg     rms          rms(c)
DAV:   1    -0.232047270219E+04    0.93712E-02   -0.12838E+00  4384   0.937E-01    0.339E-01
RMM:   2    -0.232048415865E+04   -0.11456E-01   -0.11989E-01  5827   0.158E-01    0.195E-01
RMM:   3    -0.232048508527E+04   -0.92662E-03   -0.12577E-02  5071   0.639E-02    0.126E-01
RMM:   4    -0.232048507374E+04    0.11527E-04   -0.15651E-03  4492   0.161E-02    0.698E-02
RMM:   5    -0.232048503236E+04    0.41385E-04   -0.20844E-04  3887   0.109E-02    0.184E-02
RMM:   6    -0.232048503260E+04   -0.23675E-06   -0.29497E-05  2899   0.550E-03
  75 F= -.23406731E+04 E0= -.23406731E+04  d E =-.285527E-02  mag=     2.0000
       N       E                     dE             d eps       ncg     rms          rms(c)
DAV:   1    -0.232047706152E+04    0.79708E-02   -0.87505E-01  4384   0.774E-01    0.280E-01
RMM:   2    -0.232048489777E+04   -0.78363E-02   -0.81936E-02  5862   0.131E-01    0.160E-01
RMM:   3    -0.232048551193E+04   -0.61416E-03   -0.83103E-03  5051   0.501E-02    0.103E-01
RMM:   4    -0.232048550572E+04    0.62138E-05   -0.10498E-03  4255   0.133E-02    0.566E-02
RMM:   5    -0.232048547866E+04    0.27060E-04   -0.13308E-04  3516   0.892E-03    0.151E-02
RMM:   6    -0.232048547902E+04   -0.35725E-06   -0.20438E-05  2856   0.508E-03
  76 F= -.23406734E+04 E0= -.23406734E+04  d E =-.321236E-02  mag=     2.0000
       N       E                     dE             d eps       ncg     rms          rms(c)
DAV:   1    -0.232048288847E+04    0.25902E-02   -0.42671E-01  4432   0.537E-01    0.196E-01
RMM:   2    -0.232048689487E+04   -0.40064E-02   -0.41749E-02  6042   0.918E-02    0.112E-01
RMM:   3    -0.232048722671E+04   -0.33184E-03   -0.42139E-03  4670   0.343E-02    0.703E-02
RMM:   4    -0.232048722829E+04   -0.15733E-05   -0.48811E-04  3523   0.903E-03    0.379E-02
RMM:   5    -0.232048721942E+04    0.88623E-05   -0.60220E-05  3015   0.635E-03
  77 F= -.23406751E+04 E0= -.23406751E+04  d E =-.162875E-02  mag=     2.0000
       N       E                     dE             d eps       ncg     rms          rms(c)
DAV:   1    -0.232045018426E+04    0.37044E-01   -0.38310E+00  4384   0.161E+00    0.587E-01
RMM:   2    -0.232048627577E+04   -0.36092E-01   -0.37694E-01  5999   0.277E-01    0.338E-01
RMM:   3    -0.232048958634E+04   -0.33106E-02   -0.41657E-02  5251   0.103E-01    0.222E-01
RMM:   4    -0.232048957611E+04    0.10234E-04   -0.47185E-03  4940   0.256E-02    0.130E-01
RMM:   5    -0.232048942884E+04    0.14726E-03   -0.71124E-04  4422   0.165E-02    0.385E-02
RMM:   6    -0.232048942722E+04    0.16198E-05   -0.89919E-05  3165   0.901E-03
  78 F= -.23406769E+04 E0= -.23406769E+04  d E =-.349766E-02  mag=     2.0000
       N       E                     dE             d eps       ncg     rms          rms(c)
DAV:   1    -0.232048865325E+04    0.77559E-03   -0.32758E-01  4544   0.478E-01    0.182E-01
RMM:   2    -0.232049140855E+04   -0.27553E-02   -0.29339E-02  5907   0.840E-02    0.100E-01
RMM:   3    -0.232049159562E+04   -0.18707E-03   -0.27930E-03  4865   0.325E-02    0.620E-02
RMM:   4    -0.232049158547E+04    0.10153E-04   -0.36832E-04  3922   0.980E-03    0.306E-02
RMM:   5    -0.232049158051E+04    0.49512E-05   -0.43778E-05  2965   0.693E-03
  79 F= -.23406790E+04 E0= -.23406790E+04  d E =-.209828E-02  mag=     2.0000
       N       E                     dE             d eps       ncg     rms          rms(c)
DAV:   1    -0.232049023459E+04    0.13509E-02   -0.20774E-01  4448   0.381E-01    0.145E-01
RMM:   2    -0.232049198278E+04   -0.17482E-02   -0.18573E-02  5827   0.672E-02    0.804E-02
RMM:   3    -0.232049210219E+04   -0.11941E-03   -0.18102E-03  4483   0.275E-02    0.496E-02
RMM:   4    -0.232049209453E+04    0.76592E-05   -0.23489E-04  3544   0.800E-03    0.243E-02
RMM:   5    -0.232049209092E+04    0.36060E-05   -0.28133E-05  2876   0.587E-03
  80 F= -.23406795E+04 E0= -.23406795E+04  d E =-.256597E-02  mag=     2.0000
       N       E                     dE             d eps       ncg     rms          rms(c)
DAV:   1    -0.232049233826E+04   -0.24373E-03   -0.13411E-01  4480   0.331E-01    0.123E-01
RMM:   2    -0.232049346097E+04   -0.11227E-02   -0.11979E-02  5819   0.566E-02    0.633E-02
RMM:   3    -0.232049354608E+04   -0.85111E-04   -0.12243E-03  4130   0.234E-02    0.385E-02
RMM:   4    -0.232049354320E+04    0.28724E-05   -0.14567E-04  3209   0.682E-03    0.198E-02
RMM:   5    -0.232049354197E+04    0.12343E-05   -0.21276E-05  2839   0.515E-03
  81 F= -.23406810E+04 E0= -.23406810E+04  d E =-.145055E-02  mag=     2.0000
       N       E                     dE             d eps       ncg     rms          rms(c)
DAV:   1    -0.232048909026E+04    0.44529E-02   -0.61275E-01  4384   0.708E-01    0.262E-01
RMM:   2    -0.232049424888E+04   -0.51586E-02   -0.54980E-02  5776   0.120E-01    0.134E-01
RMM:   3    -0.232049462579E+04   -0.37691E-03   -0.55002E-03  5009   0.494E-02    0.817E-02
RMM:   4    -0.232049460684E+04    0.18948E-04   -0.65828E-04  4262   0.137E-02    0.418E-02
RMM:   5    -0.232049459839E+04    0.84439E-05   -0.85023E-05  3460   0.991E-03
  82 F= -.23406820E+04 E0= -.23406820E+04  d E =-.250766E-02  mag=     2.0000
       N       E                     dE             d eps       ncg     rms          rms(c)
DAV:   1    -0.232049432239E+04    0.28445E-03   -0.15187E-01  4496   0.352E-01    0.129E-01
RMM:   2    -0.232049573551E+04   -0.14131E-02   -0.14960E-02  5767   0.613E-02    0.670E-02
RMM:   3    -0.232049586442E+04   -0.12891E-03   -0.16815E-03  4233   0.283E-02    0.412E-02
RMM:   4    -0.232049586556E+04   -0.11442E-05   -0.19140E-04  3169   0.698E-03    0.224E-02
RMM:   5    -0.232049586412E+04    0.14389E-05   -0.23115E-05  2856   0.510E-03
  83 F= -.23406832E+04 E0= -.23406832E+04  d E =-.123499E-02  mag=     2.0000
       N       E                     dE             d eps       ncg     rms          rms(c)
DAV:   1    -0.232049128375E+04    0.45818E-02   -0.54339E-01  4384   0.665E-01    0.242E-01
RMM:   2    -0.232049635790E+04   -0.50742E-02   -0.53727E-02  5716   0.115E-01    0.125E-01
RMM:   3    -0.232049677889E+04   -0.42099E-03   -0.57409E-03  4960   0.487E-02    0.758E-02
RMM:   4    -0.232049677363E+04    0.52578E-05   -0.65761E-04  4107   0.124E-02    0.399E-02
RMM:   5    -0.232049676448E+04    0.91455E-05   -0.69421E-05  3236   0.911E-03
  84 F= -.23406841E+04 E0= -.23406841E+04  d E =-.207732E-02  mag=     2.0000
       N       E                     dE             d eps       ncg     rms          rms(c)
DAV:   1    -0.232049603769E+04    0.73594E-03   -0.18678E-01  4464   0.387E-01    0.146E-01
RMM:   2    -0.232049797684E+04   -0.19391E-02   -0.20381E-02  5861   0.691E-02    0.761E-02
RMM:   3    -0.232049812535E+04   -0.14851E-03   -0.20313E-03  4343   0.299E-02    0.462E-02
RMM:   4    -0.232049812447E+04    0.87752E-06   -0.25488E-04  3386   0.764E-03    0.246E-02
RMM:   5    -0.232049812202E+04    0.24522E-05   -0.24702E-05  2868   0.554E-03
  85 F= -.23406854E+04 E0= -.23406854E+04  d E =-.127202E-02  mag=     2.0000
       N       E                     dE             d eps       ncg     rms          rms(c)
DAV:   1    -0.232049518802E+04    0.29365E-02   -0.32169E-01  4416   0.508E-01    0.191E-01
RMM:   2    -0.232049854766E+04   -0.33596E-02   -0.35264E-02  5862   0.902E-02    0.992E-02
RMM:   3    -0.232049878535E+04   -0.23769E-03   -0.32982E-03  4773   0.369E-02    0.601E-02
RMM:   4    -0.232049878111E+04    0.42382E-05   -0.43137E-04  3881   0.976E-03    0.313E-02
RMM:   5    -0.232049877612E+04    0.49827E-05   -0.40483E-05  2942   0.700E-03
  86 F= -.23406859E+04 E0= -.23406859E+04  d E =-.181277E-02  mag=     2.0000
       N       E                     dE             d eps       ncg     rms          rms(c)
DAV:   1    -0.232049730495E+04    0.14762E-02   -0.23487E-01  4416   0.453E-01    0.171E-01
RMM:   2    -0.232049978210E+04   -0.24772E-02   -0.25980E-02  5757   0.805E-02    0.847E-02
RMM:   3    -0.232049992650E+04   -0.14439E-03   -0.22078E-03  4618   0.340E-02    0.513E-02
RMM:   4    -0.232049992003E+04    0.64669E-05   -0.31277E-04  3840   0.904E-03    0.267E-02
RMM:   5    -0.232049991564E+04    0.43916E-05   -0.30609E-05  2899   0.666E-03
  87 F= -.23406870E+04 E0= -.23406870E+04  d E =-.111599E-02  mag=     2.0000
       N       E                     dE             d eps       ncg     rms          rms(c)
DAV:   1    -0.232049878713E+04    0.11329E-02   -0.12077E-01  4480   0.325E-01    0.123E-01
RMM:   2    -0.232050006943E+04   -0.12823E-02   -0.13439E-02  5775   0.586E-02    0.606E-02
RMM:   3    -0.232050014351E+04   -0.74074E-04   -0.11246E-03  4076   0.253E-02    0.369E-02
RMM:   4    -0.232050013946E+04    0.40431E-05   -0.15973E-04  3167   0.666E-03    0.194E-02
RMM:   5    -0.232050013685E+04    0.26106E-05   -0.17331E-05  2839   0.495E-03
  88 F= -.23406872E+04 E0= -.23406872E+04  d E =-.131969E-02  mag=     2.0000
       N       E                     dE             d eps       ncg     rms          rms(c)
DAV:   1    -0.232049936329E+04    0.77617E-03   -0.21669E-01  4416   0.448E-01    0.161E-01
RMM:   2    -0.232050113200E+04   -0.17687E-02   -0.18963E-02  5793   0.769E-02    0.787E-02
RMM:   3    -0.232050121045E+04   -0.78449E-04   -0.15319E-03  4607   0.307E-02    0.490E-02
RMM:   4    -0.232050119933E+04    0.11117E-04   -0.23806E-04  3827   0.910E-03    0.248E-02
RMM:   5    -0.232050119586E+04    0.34706E-05   -0.29931E-05  2897   0.679E-03
  89 F= -.23406883E+04 E0= -.23406883E+04  d E =-.105945E-02  mag=     2.0000
       N       E                     dE             d eps       ncg     rms          rms(c)
DAV:   1    -0.232050072125E+04    0.47808E-03   -0.68313E-02  4512   0.252E-01    0.905E-02
RMM:   2    -0.232050128647E+04   -0.56522E-03   -0.60374E-03  5792   0.446E-02    0.448E-02
RMM:   3    -0.232050131338E+04   -0.26905E-04   -0.50183E-04  3719   0.181E-02    0.285E-02
RMM:   4    -0.232050130991E+04    0.34640E-05   -0.77401E-05  2893   0.522E-03
  90 F= -.23406884E+04 E0= -.23406884E+04  d E =-.117332E-02  mag=     2.0000
       N       E                     dE             d eps       ncg     rms          rms(c)
DAV:   1    -0.232050110194E+04    0.21144E-03   -0.20838E-01  4416   0.432E-01    0.142E-01
RMM:   2    -0.232050229957E+04   -0.11976E-02   -0.13228E-02  5749   0.698E-02    0.718E-02
RMM:   3    -0.232050234527E+04   -0.45697E-04   -0.11222E-03  4436   0.274E-02    0.469E-02
RMM:   4    -0.232050233391E+04    0.11365E-04   -0.19362E-04  3680   0.854E-03    0.235E-02
RMM:   5    -0.232050233098E+04    0.29303E-05   -0.33037E-05  2925   0.621E-03
  91 F= -.23406894E+04 E0= -.23406894E+04  d E =-.969916E-03  mag=     2.0000
       N       E                     dE             d eps       ncg     rms          rms(c)
DAV:   1    -0.232050146857E+04    0.86534E-03   -0.18487E-01  4416   0.407E-01    0.133E-01
RMM:   2    -0.232050254653E+04   -0.10780E-02   -0.11834E-02  5726   0.662E-02    0.674E-02
RMM:   3    -0.232050259248E+04   -0.45944E-04   -0.10451E-03  4308   0.258E-02    0.445E-02
RMM:   4    -0.232050258278E+04    0.96998E-05   -0.17407E-04  3455   0.793E-03    0.231E-02
RMM:   5    -0.232050257906E+04    0.37166E-05   -0.30415E-05  2933   0.583E-03
  92 F= -.23406896E+04 E0= -.23406896E+04  d E =-.116907E-02  mag=     2.0000
       N       E                     dE             d eps       ncg     rms          rms(c)
DAV:   1    -0.232050218850E+04    0.39428E-03   -0.27925E-01  4400   0.514E-01    0.172E-01
RMM:   2    -0.232050357468E+04   -0.13862E-02   -0.15811E-02  5624   0.831E-02    0.825E-02
RMM:   3    -0.232050358535E+04   -0.10674E-04   -0.11786E-03  4591   0.333E-02    0.538E-02
RMM:   4    -0.232050356261E+04    0.22742E-04   -0.25592E-04  4045   0.106E-02    0.264E-02
RMM:   5    -0.232050355733E+04    0.52825E-05   -0.47656E-05  3084   0.755E-03
  93 F= -.23406905E+04 E0= -.23406905E+04  d E =-.892431E-03  mag=     2.0000
       N       E                     dE             d eps       ncg     rms          rms(c)
DAV:   1    -0.232050337094E+04    0.19167E-03   -0.37197E-02  4680   0.188E-01    0.632E-02
RMM:   2    -0.232050355940E+04   -0.18846E-03   -0.21334E-03  5688   0.325E-02    0.308E-02
RMM:   3    -0.232050356403E+04   -0.46248E-05   -0.19493E-04  3391   0.137E-02    0.211E-02
RMM:   4    -0.232050356047E+04    0.35578E-05   -0.34555E-05  2825   0.412E-03
  94 F= -.23406904E+04 E0= -.23406904E+04  d E =-.863910E-03  mag=     2.0000
       N       E                     dE             d eps       ncg     rms          rms(c)
DAV:   1    -0.232050288110E+04    0.68293E-03   -0.25580E-01  4416   0.492E-01    0.165E-01
RMM:   2    -0.232050435975E+04   -0.14787E-02   -0.16386E-02  5649   0.791E-02    0.789E-02
RMM:   3    -0.232050437069E+04   -0.10939E-04   -0.99389E-04  4594   0.297E-02    0.515E-02
RMM:   4    -0.232050435293E+04    0.17764E-04   -0.23150E-04  3936   0.967E-03    0.257E-02
RMM:   5    -0.232050434933E+04    0.35934E-05   -0.40351E-05  3003   0.694E-03
  95 F= -.23406912E+04 E0= -.23406912E+04  d E =-.745279E-03  mag=     2.0000
       N       E                     dE             d eps       ncg     rms          rms(c)
DAV:   1    -0.232050413829E+04    0.21464E-03   -0.43799E-02  4544   0.204E-01    0.691E-02
RMM:   2    -0.232050439727E+04   -0.25899E-03   -0.28383E-03  5736   0.346E-02    0.332E-02
RMM:   3    -0.232050440476E+04   -0.74861E-05   -0.22208E-04  3407   0.139E-02    0.226E-02
RMM:   4    -0.232050440159E+04    0.31682E-05   -0.40260E-05  2829   0.415E-03
  96 F= -.23406912E+04 E0= -.23406912E+04  d E =-.779202E-03  mag=     2.0000
       N       E                     dE             d eps       ncg     rms          rms(c)
DAV:   1    -0.232050424238E+04    0.16238E-03   -0.13396E-01  4416   0.356E-01    0.130E-01
RMM:   2    -0.232050522553E+04   -0.98315E-03   -0.10736E-02  5655   0.608E-02    0.630E-02
RMM:   3    -0.232050522740E+04   -0.18698E-05   -0.62620E-04  4325   0.250E-02    0.398E-02
RMM:   4    -0.232050521342E+04    0.13981E-04   -0.15038E-04  3801   0.825E-03    0.191E-02
RMM:   5    -0.232050521106E+04    0.23539E-05   -0.22451E-05  2864   0.609E-03
  97 F= -.23406920E+04 E0= -.23406920E+04  d E =-.764946E-03  mag=     2.0000
       N       E                     dE             d eps       ncg     rms          rms(c)
DAV:   1    -0.232050510004E+04    0.11337E-03   -0.24808E-02  4656   0.154E-01    0.560E-02
RMM:   2    -0.232050528545E+04   -0.18541E-03   -0.20131E-03  5675   0.276E-02    0.276E-02
RMM:   3    -0.232050528740E+04   -0.19475E-05   -0.13552E-04  3055   0.114E-02    0.180E-02
RMM:   4    -0.232050528446E+04    0.29380E-05   -0.29284E-05  2830   0.386E-03
  98 F= -.23406920E+04 E0= -.23406920E+04  d E =-.818899E-03  mag=     2.0000
       N       E                     dE             d eps       ncg     rms          rms(c)
DAV:   1    -0.232050518109E+04    0.10631E-03   -0.14544E-01  4416   0.377E-01    0.131E-01
RMM:   2    -0.232050614225E+04   -0.96116E-03   -0.10552E-02  5623   0.617E-02    0.618E-02
RMM:   3    -0.232050614842E+04   -0.61646E-05   -0.67286E-04  4318   0.248E-02    0.391E-02
RMM:   4    -0.232050613527E+04    0.13147E-04   -0.14910E-04  3793   0.794E-03    0.195E-02
RMM:   5    -0.232050613275E+04    0.25177E-05   -0.22564E-05  2864   0.603E-03
  99 F= -.23406928E+04 E0= -.23406928E+04  d E =-.751619E-03  mag=     2.0000
       N       E                     dE             d eps       ncg     rms          rms(c)
DAV:   1    -0.232050586906E+04    0.26621E-03   -0.61209E-02  4464   0.245E-01    0.849E-02
RMM:   2    -0.232050627284E+04   -0.40378E-03   -0.44133E-03  5638   0.410E-02    0.405E-02
RMM:   3    -0.232050627959E+04   -0.67496E-05   -0.32259E-04  3685   0.173E-02    0.262E-02
RMM:   4    -0.232050627340E+04    0.61947E-05   -0.63538E-05  2917   0.529E-03
 100 F= -.23406929E+04 E0= -.23406929E+04  d E =-.828850E-03  mag=     2.0000
       N       E                     dE             d eps       ncg     rms          rms(c)
DAV:   1    -0.232050651614E+04   -0.23654E-03   -0.12210E-01  4416   0.347E-01    0.109E-01
RMM:   2    -0.232050706198E+04   -0.54584E-03   -0.61316E-03  5649   0.553E-02    0.534E-02
RMM:   3    -0.232050706174E+04    0.24065E-06   -0.46810E-04  4246   0.229E-02    0.338E-02
RMM:   4    -0.232050705255E+04    0.91907E-05   -0.95261E-05  3497   0.718E-03
 101 F= -.23406935E+04 E0= -.23406935E+04  d E =-.663381E-03  mag=     2.0000
       N       E                     dE             d eps       ncg     rms          rms(c)
DAV:   1    -0.232050690851E+04    0.15323E-03   -0.81549E-02  4480   0.284E-01    0.898E-02
RMM:   2    -0.232050728103E+04   -0.37252E-03   -0.41733E-03  5940   0.474E-02    0.444E-02
RMM:   3    -0.232050727902E+04    0.20184E-05   -0.30679E-04  3817   0.167E-02    0.283E-02
RMM:   4    -0.232050727223E+04    0.67890E-05   -0.61556E-05  2931   0.578E-03
 102 F= -.23406936E+04 E0= -.23406936E+04  d E =-.787855E-03  mag=     2.0000
       N       E                     dE             d eps       ncg     rms          rms(c)
DAV:   1    -0.232050773915E+04   -0.46013E-03   -0.13344E-01  4416   0.353E-01    0.116E-01
RMM:   2    -0.232050806126E+04   -0.32211E-03   -0.39884E-03  5581   0.549E-02    0.553E-02
RMM:   3    -0.232050802685E+04    0.34412E-04   -0.29690E-04  4504   0.234E-02    0.319E-02
RMM:   4    -0.232050801580E+04    0.11045E-04   -0.95200E-05  3845   0.823E-03    0.120E-02
RMM:   5    -0.232050801575E+04    0.50553E-07   -0.11778E-05  2836   0.556E-03
 103 F= -.23406943E+04 E0= -.23406943E+04  d E =-.704704E-03  mag=     2.0000
       N       E                     dE             d eps       ncg     rms          rms(c)
DAV:   1    -0.232050804145E+04   -0.25646E-04   -0.27947E-02  4616   0.162E-01    0.527E-02
RMM:   2    -0.232050811346E+04   -0.72008E-04   -0.86607E-04  5393   0.258E-02    0.255E-02
RMM:   3    -0.232050810523E+04    0.82267E-05   -0.55068E-05  2996   0.996E-03
 104 F= -.23406944E+04 E0= -.23406944E+04  d E =-.776385E-03  mag=     2.0000
       N       E                     dE             d eps       ncg     rms          rms(c)
DAV:   1    -0.232050857971E+04   -0.46625E-03   -0.14221E-01  4416   0.364E-01    0.120E-01
RMM:   2    -0.232050884050E+04   -0.26079E-03   -0.33948E-03  5172   0.537E-02    0.566E-02
RMM:   3    -0.232050878663E+04    0.53873E-04   -0.18920E-04  4316   0.212E-02    0.320E-02
RMM:   4    -0.232050877523E+04    0.11398E-04   -0.12757E-04  4059   0.928E-03    0.106E-02
RMM:   5    -0.232050877353E+04    0.17005E-05   -0.87628E-06  2818   0.570E-03
 105 F= -.23406952E+04 E0= -.23406952E+04  d E =-.750304E-03  mag=     2.0000
       N       E                     dE             d eps       ncg     rms          rms(c)
DAV:   1    -0.232050877206E+04    0.31688E-05   -0.18544E-02  4632   0.132E-01    0.438E-02
RMM:   2    -0.232050880921E+04   -0.37144E-04   -0.47497E-04  5050   0.203E-02    0.213E-02
RMM:   3    -0.232050880055E+04    0.86550E-05   -0.24746E-05  2842   0.798E-03
 106 F= -.23406952E+04 E0= -.23406952E+04  d E =-.806734E-03  mag=     2.0000
       N       E                     dE             d eps       ncg     rms          rms(c)
DAV:   1    -0.232050931007E+04   -0.50086E-03   -0.14328E-01  4416   0.360E-01    0.119E-01
RMM:   2    -0.232050954127E+04   -0.23120E-03   -0.30562E-03  4825   0.512E-02    0.556E-02
RMM:   3    -0.232050948992E+04    0.51349E-04   -0.17984E-04  4348   0.216E-02    0.313E-02
RMM:   4    -0.232050947916E+04    0.10760E-04   -0.11538E-04  3999   0.860E-03    0.951E-03
RMM:   5    -0.232050947807E+04    0.10845E-05   -0.77568E-06  2819   0.555E-03
 107 F= -.23406960E+04 E0= -.23406960E+04  d E =-.725852E-03  mag=     2.0000
       N       E                     dE             d eps       ncg     rms          rms(c)
DAV:   1    -0.232050950787E+04   -0.28714E-04   -0.28213E-02  4552   0.160E-01    0.529E-02
RMM:   2    -0.232050955625E+04   -0.48382E-04   -0.63373E-04  4782   0.233E-02    0.254E-02
RMM:   3    -0.232050954435E+04    0.11905E-04   -0.35166E-05  2974   0.100E-02    0.145E-02
RMM:   4    -0.232050954191E+04    0.24363E-05   -0.29494E-05  3042   0.485E-03
 108 F= -.23406960E+04 E0= -.23406960E+04  d E =-.810973E-03  mag=     2.0000
       N       E                     dE             d eps       ncg     rms          rms(c)
DAV:   1    -0.232051006170E+04   -0.51735E-03   -0.10826E-01  4400   0.302E-01    0.958E-02
RMM:   2    -0.232051029062E+04   -0.22892E-03   -0.27948E-03  5538   0.450E-02    0.491E-02
RMM:   3    -0.232051026065E+04    0.29968E-04   -0.17462E-04  4126   0.174E-02    0.279E-02
RMM:   4    -0.232051025157E+04    0.90806E-05   -0.69262E-05  3582   0.659E-03
 109 F= -.23406967E+04 E0= -.23406967E+04  d E =-.706427E-03  mag=     2.0000
       N       E                     dE             d eps       ncg     rms          rms(c)
DAV:   1    -0.232051023144E+04    0.29211E-04   -0.14687E-01  4400   0.353E-01    0.112E-01
RMM:   2    -0.232051055320E+04   -0.32176E-03   -0.38721E-03  5492   0.529E-02    0.573E-02
RMM:   3    -0.232051050989E+04    0.43309E-04   -0.23898E-04  4420   0.201E-02    0.329E-02
RMM:   4    -0.232051049667E+04    0.13217E-04   -0.93873E-05  3809   0.764E-03    0.103E-02
RMM:   5    -0.232051049651E+04    0.15902E-06   -0.74592E-06  2828   0.506E-03
 110 F= -.23406970E+04 E0= -.23406970E+04  d E =-.947684E-03  mag=     2.0000
       N       E                     dE             d eps       ncg     rms          rms(c)
DAV:   1    -0.232051085684E+04   -0.36017E-03   -0.69250E-02  4448   0.235E-01    0.732E-02
RMM:   2    -0.232051100706E+04   -0.15022E-03   -0.17841E-03  5161   0.332E-02    0.386E-02
RMM:   3    -0.232051099154E+04    0.15518E-04   -0.12278E-04  3378   0.139E-02    0.223E-02
RMM:   4    -0.232051098725E+04    0.42967E-05   -0.48312E-05  3183   0.543E-03
 111 F= -.23406975E+04 E0= -.23406975E+04  d E =-.527432E-03  mag=     2.0000
       N       E                     dE             d eps       ncg     rms          rms(c)
DAV:   1    -0.232051064806E+04    0.34349E-03   -0.38078E-01  4384   0.550E-01    0.172E-01
RMM:   2    -0.232051147131E+04   -0.82326E-03   -0.97676E-03  5260   0.779E-02    0.903E-02
RMM:   3    -0.232051139313E+04    0.78187E-04   -0.69751E-04  4510   0.331E-02    0.522E-02
RMM:   4    -0.232051136804E+04    0.25082E-04   -0.24056E-04  4123   0.110E-02    0.176E-02
RMM:   5    -0.232051136724E+04    0.80452E-06   -0.21790E-05  2863   0.742E-03
 112 F= -.23406980E+04 E0= -.23406980E+04  d E =-.993874E-03  mag=     2.0000
       N       E                     dE             d eps       ncg     rms          rms(c)
DAV:   1    -0.232051185047E+04   -0.48243E-03   -0.12218E-01  4400   0.308E-01    0.103E-01
RMM:   2    -0.232051207928E+04   -0.22881E-03   -0.28420E-03  5048   0.442E-02    0.547E-02
RMM:   3    -0.232051204080E+04    0.38480E-04   -0.18031E-04  4065   0.176E-02    0.302E-02
RMM:   4    -0.232051203256E+04    0.82364E-05   -0.87979E-05  3890   0.738E-03
 113 F= -.23406988E+04 E0= -.23406988E+04  d E =-.786217E-03  mag=     2.0000
       N       E                     dE             d eps       ncg     rms          rms(c)
DAV:   1    -0.232051193886E+04    0.10194E-03   -0.17539E-01  4400   0.370E-01    0.124E-01
RMM:   2    -0.232051227663E+04   -0.33776E-03   -0.41495E-03  5495   0.553E-02    0.655E-02
RMM:   3    -0.232051222181E+04    0.54816E-04   -0.28452E-04  4701   0.215E-02    0.365E-02
RMM:   4    -0.232051220809E+04    0.13721E-04   -0.10134E-04  3745   0.796E-03    0.123E-02
RMM:   5    -0.232051220747E+04    0.62218E-06   -0.10897E-05  2828   0.516E-03
 114 F= -.23406991E+04 E0= -.23406991E+04  d E =-.110631E-02  mag=     2.0000
       N       E                     dE             d eps       ncg     rms          rms(c)
DAV:   1    -0.232051265127E+04   -0.44318E-03   -0.15290E-01  4400   0.340E-01    0.120E-01
RMM:   2    -0.232051295443E+04   -0.30316E-03   -0.37815E-03  5173   0.490E-02    0.625E-02
RMM:   3    -0.232051291103E+04    0.43393E-04   -0.23508E-04  4225   0.193E-02    0.346E-02
RMM:   4    -0.232051290129E+04    0.97417E-05   -0.11536E-04  3993   0.817E-03    0.116E-02
RMM:   5    -0.232051290128E+04    0.12806E-07   -0.84394E-06  2835   0.513E-03
 115 F= -.23406999E+04 E0= -.23406999E+04  d E =-.846190E-03  mag=     2.0000
       N       E                     dE             d eps       ncg     rms          rms(c)
DAV:   1    -0.232051283356E+04    0.67732E-04   -0.95333E-02  4416   0.269E-01    0.948E-02
RMM:   2    -0.232051302709E+04   -0.19353E-03   -0.23995E-03  5080   0.390E-02    0.499E-02
RMM:   3    -0.232051299772E+04    0.29375E-04   -0.14295E-04  3702   0.144E-02    0.279E-02
RMM:   4    -0.232051299071E+04    0.70069E-05   -0.77381E-05  3806   0.696E-03
 116 F= -.23407001E+04 E0= -.23407001E+04  d E =-.105581E-02  mag=     2.0000
       N       E                     dE             d eps       ncg     rms          rms(c)
DAV:   1    -0.232051345823E+04   -0.46052E-03   -0.18724E-01  4400   0.369E-01    0.130E-01
RMM:   2    -0.232051387053E+04   -0.41229E-03   -0.50282E-03  5637   0.552E-02    0.698E-02
RMM:   3    -0.232051382345E+04    0.47079E-04   -0.37812E-04  4609   0.215E-02    0.390E-02
RMM:   4    -0.232051381162E+04    0.11826E-04   -0.13233E-04  3774   0.832E-03    0.143E-02
RMM:   5    -0.232051381150E+04    0.12254E-06   -0.13079E-05  2837   0.528E-03
 117 F= -.23407011E+04 E0= -.23407011E+04  d E =-.909250E-03  mag=     2.0000
       N       E                     dE             d eps       ncg     rms          rms(c)
DAV:   1    -0.232051376992E+04    0.41697E-04   -0.72734E-02  4448   0.230E-01    0.810E-02
RMM:   2    -0.232051393323E+04   -0.16330E-03   -0.19690E-03  5330   0.340E-02    0.442E-02
RMM:   3    -0.232051391541E+04    0.17817E-04   -0.14292E-04  3446   0.136E-02    0.250E-02
RMM:   4    -0.232051391051E+04    0.49032E-05   -0.60379E-05  3377   0.603E-03
 118 F= -.23407012E+04 E0= -.23407012E+04  d E =-.106335E-02  mag=     2.0000
       N       E                     dE             d eps       ncg     rms          rms(c)
DAV:   1    -0.232051430749E+04   -0.39208E-03   -0.21785E-01  4400   0.405E-01    0.149E-01
RMM:   2    -0.232051472837E+04   -0.42088E-03   -0.54343E-03  5272   0.595E-02    0.755E-02
RMM:   3    -0.232051466269E+04    0.65681E-04   -0.39327E-04  4572   0.268E-02    0.416E-02
RMM:   4    -0.232051464817E+04    0.14515E-04   -0.17050E-04  4034   0.976E-03    0.145E-02
RMM:   5    -0.232051464761E+04    0.55942E-06   -0.15005E-05  2856   0.626E-03
 119 F= -.23407020E+04 E0= -.23407020E+04  d E =-.810076E-03  mag=     2.0000
       N       E                     dE             d eps       ncg     rms          rms(c)
DAV:   1    -0.232051463407E+04    0.14102E-04   -0.18437E-02  4912   0.118E-01    0.437E-02
RMM:   2    -0.232051467293E+04   -0.38862E-04   -0.48355E-04  4989   0.182E-02    0.227E-02
RMM:   3    -0.232051466705E+04    0.58877E-05   -0.37418E-05  2861   0.812E-03
 120 F= -.23407021E+04 E0= -.23407021E+04  d E =-.850635E-03  mag=     2.0000
       N       E                     dE             d eps       ncg     rms          rms(c)
DAV:   1    -0.232051495876E+04   -0.28583E-03   -0.21732E-01  4400   0.409E-01    0.151E-01
RMM:   2    -0.232051544260E+04   -0.48384E-03   -0.59981E-03  5208   0.597E-02    0.768E-02
RMM:   3    -0.232051538496E+04    0.57648E-04   -0.41600E-04  4299   0.241E-02    0.428E-02
RMM:   4    -0.232051537063E+04    0.14329E-04   -0.18376E-04  4065   0.994E-03    0.147E-02
RMM:   5    -0.232051537049E+04    0.13264E-06   -0.13300E-05  2843   0.621E-03
 121 F= -.23407029E+04 E0= -.23407029E+04  d E =-.807121E-03  mag=     2.0000
       N       E                     dE             d eps       ncg     rms          rms(c)
DAV:   1    -0.232051534241E+04    0.28220E-04   -0.17626E-02  4768   0.117E-01    0.431E-02
RMM:   2    -0.232051538526E+04   -0.42854E-04   -0.51207E-04  5088   0.181E-02    0.224E-02
RMM:   3    -0.232051538067E+04    0.45881E-05   -0.38823E-05  2837   0.791E-03
 122 F= -.23407029E+04 E0= -.23407029E+04  d E =-.846679E-03  mag=     2.0000
       N       E                     dE             d eps       ncg     rms          rms(c)
DAV:   1    -0.232051556692E+04   -0.18166E-03   -0.26099E-01  4400   0.455E-01    0.166E-01
RMM:   2    -0.232051617162E+04   -0.60469E-03   -0.75002E-03  5168   0.666E-02    0.823E-02
RMM:   3    -0.232051610472E+04    0.66895E-04   -0.54133E-04  4332   0.278E-02    0.465E-02
RMM:   4    -0.232051608474E+04    0.19981E-04   -0.21879E-04  4083   0.106E-02    0.156E-02
RMM:   5    -0.232051608344E+04    0.13000E-05   -0.18147E-05  2844   0.723E-03
 123 F= -.23407037E+04 E0= -.23407037E+04  d E =-.800801E-03  mag=     2.0000
       N       E                     dE             d eps       ncg     rms          rms(c)
DAV:   1    -0.232051605443E+04    0.30314E-04   -0.98410E-03  5256   0.889E-02    0.326E-02
RMM:   2    -0.232051607952E+04   -0.25090E-04   -0.30111E-04  5001   0.140E-02    0.166E-02
RMM:   3    -0.232051607696E+04    0.25561E-05   -0.24786E-05  2821   0.663E-03
 124 F= -.23407037E+04 E0= -.23407037E+04  d E =-.813253E-03  mag=     2.0000
       N       E                     dE             d eps       ncg     rms          rms(c)
DAV:   1    -0.232051638406E+04   -0.30453E-03   -0.28579E-01  4400   0.465E-01    0.163E-01
RMM:   2    -0.232051689479E+04   -0.51074E-03   -0.65809E-03  4938   0.656E-02    0.834E-02
RMM:   3    -0.232051679514E+04    0.99649E-04   -0.44654E-04  4361   0.264E-02    0.458E-02
RMM:   4    -0.232051677616E+04    0.18983E-04   -0.24082E-04  4091   0.109E-02    0.155E-02
RMM:   5    -0.232051677410E+04    0.20641E-05   -0.15775E-05  2856   0.670E-03
 125 F= -.23407045E+04 E0= -.23407045E+04  d E =-.770493E-03  mag=     2.0000
       N       E                     dE             d eps       ncg     rms          rms(c)
DAV:   1    -0.232051676087E+04    0.15291E-04   -0.10957E-02  5176   0.915E-02    0.325E-02
RMM:   2    -0.232051678304E+04   -0.22172E-04   -0.27716E-04  4805   0.141E-02    0.172E-02
RMM:   3    -0.232051677867E+04    0.43688E-05   -0.18715E-05  2822   0.621E-03
 126 F= -.23407045E+04 E0= -.23407045E+04  d E =-.789312E-03  mag=     2.0000
       N       E                     dE             d eps       ncg     rms          rms(c)
DAV:   1    -0.232051732380E+04   -0.54076E-03   -0.23608E-01  4400   0.415E-01    0.144E-01
RMM:   2    -0.232051764782E+04   -0.32402E-03   -0.44099E-03  4529   0.569E-02    0.765E-02
RMM:   3    -0.232051755689E+04    0.90930E-04   -0.28105E-04  4322   0.255E-02    0.398E-02
RMM:   4    -0.232051754418E+04    0.12709E-04   -0.19401E-04  4022   0.984E-03    0.118E-02
RMM:   5    -0.232051754145E+04    0.27272E-05   -0.94886E-06  2829   0.624E-03
 127 F= -.23407053E+04 E0= -.23407053E+04  d E =-.842467E-03  mag=     2.0000
       N       E                     dE             d eps       ncg     rms          rms(c)
DAV:   1    -0.232051755609E+04   -0.11914E-04   -0.24025E-02  4592   0.133E-01    0.468E-02
RMM:   2    -0.232051759053E+04   -0.34433E-04   -0.47441E-04  4580   0.189E-02    0.256E-02
RMM:   3    -0.232051757995E+04    0.10571E-04   -0.27569E-05  2879   0.831E-03    0.135E-02
RMM:   4    -0.232051757825E+04    0.17041E-05   -0.25389E-05  2948   0.432E-03
 128 F= -.23407054E+04 E0= -.23407054E+04  d E =-.904480E-03  mag=     2.0000
       N       E                     dE             d eps       ncg     rms          rms(c)
DAV:   1    -0.232051803021E+04   -0.45026E-03   -0.26089E-01  4400   0.443E-01    0.160E-01
RMM:   2    -0.232051834574E+04   -0.31553E-03   -0.45582E-03  4628   0.627E-02    0.802E-02
RMM:   3    -0.232051825606E+04    0.89676E-04   -0.33124E-04  4640   0.321E-02    0.422E-02
RMM:   4    -0.232051823988E+04    0.16179E-04   -0.20897E-04  4074   0.107E-02    0.116E-02
RMM:   5    -0.232051823728E+04    0.26064E-05   -0.12025E-05  2837   0.722E-03
 129 F= -.23407062E+04 E0= -.23407062E+04  d E =-.779350E-03  mag=     2.0000
       N       E                     dE             d eps       ncg     rms          rms(c)
DAV:   1    -0.232051823145E+04    0.84372E-05   -0.45437E-03  5368   0.593E-02    0.223E-02
RMM:   2    -0.232051823701E+04   -0.55665E-05   -0.89859E-05  3872   0.925E-03
 130 F= -.23407062E+04 E0= -.23407062E+04  d E =-.794637E-03  mag=     2.0000
       N       E                     dE             d eps       ncg     rms          rms(c)
DAV:   1    -0.232051869315E+04   -0.46171E-03   -0.19346E-01  4384   0.370E-01    0.136E-01
RMM:   2    -0.232051890984E+04   -0.21669E-03   -0.32993E-03  4818   0.537E-02    0.722E-02
RMM:   3    -0.232051883984E+04    0.69993E-04   -0.25644E-04  4871   0.270E-02    0.364E-02
RMM:   4    -0.232051882939E+04    0.10453E-04   -0.15073E-04  4002   0.896E-03    0.883E-03
RMM:   5    -0.232051882684E+04    0.25479E-05   -0.83882E-06  2819   0.593E-03
 131 F= -.23407069E+04 E0= -.23407069E+04  d E =-.658023E-03  mag=     2.0000
       N       E                     dE             d eps       ncg     rms          rms(c)
DAV:   1    -0.232051882724E+04    0.21549E-05   -0.54784E-03  5176   0.627E-02    0.232E-02
RMM:   2    -0.232051883364E+04   -0.64070E-05   -0.10021E-04  3966   0.974E-03    0.127E-02
RMM:   3    -0.232051883156E+04    0.20796E-05   -0.77468E-06  2784   0.511E-03
 132 F= -.23407069E+04 E0= -.23407069E+04  d E =-.674052E-03  mag=     2.0000
       N       E                     dE             d eps       ncg     rms          rms(c)
DAV:   1    -0.232051911131E+04   -0.27767E-03   -0.22694E-01  4400   0.417E-01    0.150E-01
RMM:   2    -0.232051946406E+04   -0.35275E-03   -0.48174E-03  4866   0.588E-02    0.731E-02
RMM:   3    -0.232051938746E+04    0.76594E-04   -0.31310E-04  4343   0.238E-02    0.410E-02
RMM:   4    -0.232051937166E+04    0.15803E-04   -0.21114E-04  4042   0.104E-02    0.144E-02
RMM:   5    -0.232051936880E+04    0.28637E-05   -0.15616E-05  2851   0.658E-03
 133 F= -.23407075E+04 E0= -.23407075E+04  d E =-.573829E-03  mag=     2.0000
       N       E                     dE             d eps       ncg     rms          rms(c)
DAV:   1    -0.232051936574E+04    0.59170E-05   -0.54418E-04  5088   0.212E-02    0.835E-03
RMM:   2    -0.232051936687E+04   -0.11244E-05   -0.16288E-05  2721   0.413E-03
 134 F= -.23407075E+04 E0= -.23407075E+04  d E =-.573636E-03  mag=     2.0000
       N       E                     dE             d eps       ncg     rms          rms(c)
DAV:   1    -0.232051944775E+04   -0.82009E-04   -0.20580E-01  4400   0.404E-01    0.147E-01
RMM:   2    -0.232051992567E+04   -0.47792E-03   -0.59765E-03  5359   0.601E-02    0.733E-02
RMM:   3    -0.232051986748E+04    0.58191E-04   -0.36955E-04  4425   0.262E-02    0.418E-02
RMM:   4    -0.232051985012E+04    0.17360E-04   -0.18418E-04  4076   0.997E-03    0.148E-02
RMM:   5    -0.232051984931E+04    0.80372E-06   -0.15142E-05  2846   0.674E-03
 135 F= -.23407080E+04 E0= -.23407080E+04  d E =-.553293E-03  mag=     2.0000
       N       E                     dE             d eps       ncg     rms          rms(c)
DAV:   1    -0.232051983512E+04    0.14995E-04   -0.27775E-03  5392   0.476E-02    0.176E-02
RMM:   2    -0.232051984241E+04   -0.72890E-05   -0.87630E-05  3557   0.819E-03
 136 F= -.23407080E+04 E0= -.23407080E+04  d E =-.554608E-03  mag=     2.0000
       N       E                     dE             d eps       ncg     rms          rms(c)
DAV:   1    -0.232051993880E+04   -0.10368E-03   -0.17382E-01  4400   0.362E-01    0.137E-01
RMM:   2    -0.232052038469E+04   -0.44588E-03   -0.54690E-03  5574   0.558E-02    0.712E-02
RMM:   3    -0.232052034801E+04    0.36671E-04   -0.47093E-04  4531   0.255E-02    0.416E-02
RMM:   4    -0.232052033521E+04    0.12806E-04   -0.14997E-04  3914   0.904E-03    0.167E-02
RMM:   5    -0.232052033395E+04    0.12581E-05   -0.21880E-05  2875   0.608E-03
 137 F= -.23407086E+04 E0= -.23407086E+04  d E =-.577660E-03  mag=     2.0000
       N       E                     dE             d eps       ncg     rms          rms(c)
DAV:   1    -0.232052026975E+04    0.65462E-04   -0.24960E-02  4464   0.138E-01    0.511E-02
RMM:   2    -0.232052033894E+04   -0.69198E-04   -0.81620E-04  5443   0.224E-02    0.265E-02
RMM:   3    -0.232052033337E+04    0.55794E-05   -0.60159E-05  2889   0.864E-03
 138 F= -.23407086E+04 E0= -.23407086E+04  d E =-.609733E-03  mag=     2.0000
       N       E                     dE             d eps       ncg     rms          rms(c)
DAV:   1    -0.232052058583E+04   -0.24689E-03   -0.14260E-01  4400   0.320E-01    0.116E-01
RMM:   2    -0.232052088475E+04   -0.29892E-03   -0.38158E-03  5420   0.470E-02    0.607E-02
RMM:   3    -0.232052084648E+04    0.38269E-04   -0.27764E-04  4080   0.183E-02    0.335E-02
RMM:   4    -0.232052083801E+04    0.84762E-05   -0.11994E-04  3931   0.775E-03    0.109E-02
RMM:   5    -0.232052083751E+04    0.50150E-06   -0.88249E-06  2826   0.495E-03
 139 F= -.23407092E+04 E0= -.23407092E+04  d E =-.580022E-03  mag=     2.0000
       N       E                     dE             d eps       ncg     rms          rms(c)
DAV:   1    -0.232052074349E+04    0.94520E-04   -0.90236E-02  4400   0.254E-01    0.911E-02
RMM:   2    -0.232052094330E+04   -0.19981E-03   -0.24673E-03  5378   0.381E-02    0.477E-02
RMM:   3    -0.232052091882E+04    0.24479E-04   -0.17469E-04  3463   0.139E-02    0.277E-02
RMM:   4    -0.232052091165E+04    0.71698E-05   -0.72125E-05  3437   0.649E-03
 140 F= -.23407093E+04 E0= -.23407093E+04  d E =-.714240E-03  mag=     2.0000
       N       E                     dE             d eps       ncg     rms          rms(c)
DAV:   1    -0.232052121643E+04   -0.29761E-03   -0.12754E-01  4400   0.296E-01    0.105E-01
RMM:   2    -0.232052148679E+04   -0.27036E-03   -0.33930E-03  5775   0.453E-02    0.563E-02
RMM:   3    -0.232052144848E+04    0.38314E-04   -0.23189E-04  4013   0.161E-02    0.322E-02
RMM:   4    -0.232052143971E+04    0.87706E-05   -0.80142E-05  3319   0.661E-03
 141 F= -.23407099E+04 E0= -.23407099E+04  d E =-.612846E-03  mag=     2.0000
       N       E                     dE             d eps       ncg     rms          rms(c)
DAV:   1    -0.232052124961E+04    0.19887E-03   -0.17126E-01  4400   0.343E-01    0.121E-01
RMM:   2    -0.232052160337E+04   -0.35376E-03   -0.44389E-03  5654   0.522E-02    0.652E-02
RMM:   3    -0.232052156162E+04    0.41750E-04   -0.32290E-04  4405   0.208E-02    0.372E-02
RMM:   4    -0.232052154867E+04    0.12944E-04   -0.10946E-04  3645   0.767E-03    0.144E-02
RMM:   5    -0.232052154869E+04   -0.17433E-07   -0.14541E-05  2849   0.516E-03
 142 F= -.23407102E+04 E0= -.23407102E+04  d E =-.820126E-03  mag=     2.0000
       N       E                     dE             d eps       ncg     rms          rms(c)
DAV:   1    -0.232052184908E+04   -0.30041E-03   -0.14383E-01  4400   0.313E-01    0.113E-01
RMM:   2    -0.232052214578E+04   -0.29670E-03   -0.36777E-03  5507   0.464E-02    0.605E-02
RMM:   3    -0.232052211377E+04    0.32012E-04   -0.27549E-04  3944   0.169E-02    0.342E-02
RMM:   4    -0.232052210466E+04    0.91164E-05   -0.98717E-05  3647   0.738E-03
 143 F= -.23407108E+04 E0= -.23407108E+04  d E =-.623389E-03  mag=     2.0000
       N       E                     dE             d eps       ncg     rms          rms(c)
DAV:   1    -0.232052185224E+04    0.26154E-03   -0.20539E-01  4384   0.375E-01    0.135E-01
RMM:   2    -0.232052228644E+04   -0.43421E-03   -0.53577E-03  5790   0.571E-02    0.723E-02
RMM:   3    -0.232052223686E+04    0.49585E-04   -0.39753E-04  4595   0.205E-02    0.408E-02
RMM:   4    -0.232052222282E+04    0.14038E-04   -0.13123E-04  3645   0.817E-03    0.151E-02
RMM:   5    -0.232052222228E+04    0.54465E-06   -0.17198E-05  2860   0.501E-03
 144 F= -.23407110E+04 E0= -.23407110E+04  d E =-.821755E-03  mag=     2.0000
       N       E                     dE             d eps       ncg     rms          rms(c)
DAV:   1    -0.232052248480E+04   -0.26198E-03   -0.18060E-01  4400   0.342E-01    0.127E-01
RMM:   2    -0.232052286443E+04   -0.37963E-03   -0.47129E-03  5528   0.508E-02    0.699E-02
RMM:   3    -0.232052281475E+04    0.49685E-04   -0.35596E-04  4202   0.185E-02    0.388E-02
RMM:   4    -0.232052280370E+04    0.11053E-04   -0.12671E-04  3816   0.824E-03    0.145E-02
RMM:   5    -0.232052280340E+04    0.29794E-06   -0.16335E-05  2865   0.500E-03
 145 F= -.23407117E+04 E0= -.23407117E+04  d E =-.678097E-03  mag=     2.0000
       N       E                     dE             d eps       ncg     rms          rms(c)
DAV:   1    -0.232052270384E+04    0.99859E-04   -0.88638E-02  4448   0.240E-01    0.893E-02
RMM:   2    -0.232052289432E+04   -0.19049E-03   -0.23508E-03  5473   0.363E-02    0.492E-02
RMM:   3    -0.232052286851E+04    0.25818E-04   -0.17488E-04  3387   0.128E-02    0.276E-02
RMM:   4    -0.232052286182E+04    0.66844E-05   -0.64332E-05  3230   0.608E-03
 146 F= -.23407118E+04 E0= -.23407118E+04  d E =-.804590E-03  mag=     2.0000
       N       E                     dE             d eps       ncg     rms          rms(c)
DAV:   1    -0.232052319911E+04   -0.33061E-03   -0.17020E-01  4384   0.345E-01    0.129E-01
RMM:   2    -0.232052355545E+04   -0.35634E-03   -0.45050E-03  5602   0.525E-02    0.665E-02
RMM:   3    -0.232052350430E+04    0.51153E-04   -0.34403E-04  4471   0.205E-02    0.373E-02
RMM:   4    -0.232052349053E+04    0.13769E-04   -0.12598E-04  3756   0.816E-03    0.141E-02
RMM:   5    -0.232052348962E+04    0.91312E-06   -0.16146E-05  2865   0.534E-03
 147 F= -.23407125E+04 E0= -.23407125E+04  d E =-.761070E-03  mag=     2.0000
       N       E                     dE             d eps       ncg     rms          rms(c)
DAV:   1    -0.232052339713E+04    0.93402E-04   -0.74876E-02  4448   0.229E-01    0.856E-02
RMM:   2    -0.232052355660E+04   -0.15948E-03   -0.19938E-03  5449   0.348E-02    0.444E-02
RMM:   3    -0.232052353417E+04    0.22432E-04   -0.14668E-04  3437   0.134E-02    0.252E-02
RMM:   4    -0.232052352691E+04    0.72641E-05   -0.60019E-05  3321   0.596E-03
 148 F= -.23407127E+04 E0= -.23407127E+04  d E =-.886718E-03  mag=     2.0000
       N       E                     dE             d eps       ncg     rms          rms(c)
DAV:   1    -0.232052374080E+04   -0.20662E-03   -0.18952E-01  4384   0.375E-01    0.137E-01
RMM:   2    -0.232052413581E+04   -0.39501E-03   -0.49431E-03  5548   0.561E-02    0.676E-02
RMM:   3    -0.232052408428E+04    0.51529E-04   -0.36259E-04  4518   0.237E-02    0.385E-02
RMM:   4    -0.232052406979E+04    0.14482E-04   -0.14149E-04  3870   0.866E-03    0.147E-02
RMM:   5    -0.232052406935E+04    0.44898E-06   -0.16361E-05  2853   0.566E-03
 149 F= -.23407133E+04 E0= -.23407133E+04  d E =-.646243E-03  mag=     2.0000
       N       E                     dE             d eps       ncg     rms          rms(c)
DAV:   1    -0.232052400501E+04    0.64785E-04   -0.42275E-02  4496   0.177E-01    0.646E-02
RMM:   2    -0.232052409634E+04   -0.91327E-04   -0.11221E-03  5373   0.269E-02    0.323E-02
RMM:   3    -0.232052408433E+04    0.12004E-04   -0.78834E-05  3038   0.108E-02    0.188E-02
RMM:   4    -0.232052408027E+04    0.40635E-05   -0.35029E-05  2952   0.472E-03
 150 F= -.23407134E+04 E0= -.23407134E+04  d E =-.706111E-03  mag=     2.0000
