       N       E                     dE             d eps       ncg     rms          rms(c)
DAV:   1     0.130613903331E+05    0.13061E+05   -0.84016E+05  4536   0.144E+03
DAV:   2    -0.100522233862E+04   -0.14067E+05   -0.13433E+05  4928   0.331E+02
DAV:   3    -0.247126429796E+04   -0.14660E+04   -0.14476E+04  5496   0.115E+02
DAV:   4    -0.251765327356E+04   -0.46389E+02   -0.46128E+02  6696   0.296E+01
DAV:   5    -0.251854784823E+04   -0.89457E+00   -0.89218E+00  6216   0.352E+00    0.170E+02
RMM:   6    -0.149020309858E+04    0.10283E+04   -0.19387E+03  4458   0.382E+01    0.723E+01
RMM:   7    -0.165416503944E+04   -0.16396E+03   -0.29011E+02  5140   0.145E+01    0.474E+01
RMM:   8    -0.170988694876E+04   -0.55722E+02   -0.31981E+01  5363   0.657E+00    0.347E+01
RMM:   9    -0.186493231098E+04   -0.15505E+03   -0.71909E+01  4861   0.838E+00    0.365E+01
RMM:  10    -0.192325139372E+04   -0.58319E+02   -0.34399E+01  4936   0.560E+00    0.211E+01
RMM:  11    -0.203556067948E+04   -0.11231E+03   -0.50900E+01  4783   0.572E+00    0.164E+01
RMM:  12    -0.208958733707E+04   -0.54027E+02   -0.19855E+01  5184   0.373E+00    0.146E+01
RMM:  13    -0.219800585264E+04   -0.10842E+03   -0.74867E+01  4501   0.642E+00    0.114E+01
RMM:  14    -0.226439407528E+04   -0.66388E+02   -0.54863E+01  4766   0.542E+00    0.924E+00
RMM:  15    -0.229697556355E+04   -0.32581E+02   -0.33449E+01  4883   0.413E+00    0.727E+00
RMM:  16    -0.230163635585E+04   -0.46608E+01   -0.60128E+00  5214   0.199E+00    0.529E+00
RMM:  17    -0.230616011649E+04   -0.45238E+01   -0.30615E+00  4491   0.115E+00    0.320E+00
RMM:  18    -0.230856655577E+04   -0.24064E+01   -0.13663E+00  4607   0.908E-01    0.151E+00
RMM:  19    -0.230957982420E+04   -0.10133E+01   -0.74651E-01  4769   0.500E-01    0.138E+00
RMM:  20    -0.231004856038E+04   -0.46874E+00   -0.41822E-01  4673   0.372E-01    0.829E-01
RMM:  21    -0.231022137167E+04   -0.17281E+00   -0.11486E-01  4816   0.210E-01    0.563E-01
RMM:  22    -0.231033312015E+04   -0.11175E+00   -0.48663E-02  4532   0.129E-01    0.332E-01
RMM:  23    -0.231040386320E+04   -0.70743E-01   -0.21797E-02  4539   0.106E-01    0.243E-01
RMM:  24    -0.231044823714E+04   -0.44374E-01   -0.12849E-02  4523   0.783E-02    0.160E-01
RMM:  25    -0.231047545740E+04   -0.27220E-01   -0.76988E-03  4541   0.637E-02    0.885E-02
RMM:  26    -0.231048470428E+04   -0.92469E-02   -0.26413E-03  4788   0.444E-02    0.547E-02
RMM:  27    -0.231048998964E+04   -0.52854E-02   -0.12008E-03  4162   0.234E-02    0.338E-02
RMM:  28    -0.231049325707E+04   -0.32674E-02   -0.78993E-04  4091   0.223E-02    0.175E-02
RMM:  29    -0.231049444180E+04   -0.11847E-02   -0.47080E-04  4121   0.146E-02    0.896E-03
RMM:  30    -0.231049460062E+04   -0.15882E-03   -0.86879E-05  3739   0.101E-02    0.536E-03
RMM:  31    -0.231049468225E+04   -0.81631E-04   -0.35320E-05  3305   0.473E-03    0.302E-03
RMM:  32    -0.231049471677E+04   -0.34522E-04   -0.98719E-06  2859   0.415E-03    0.219E-03
RMM:  33    -0.231049473427E+04   -0.17500E-04   -0.53740E-06  2811   0.238E-03    0.120E-03
RMM:  34    -0.231049474308E+04   -0.88118E-05   -0.30208E-06  2470   0.202E-03
   1 F= -.23317406E+04 E0= -.23317396E+04  d E =-.233174E+04  mag=     2.9999
       N       E                     dE             d eps       ncg     rms          rms(c)
DAV:   1    -0.231043110454E+04    0.63630E-01   -0.96638E+00  5072   0.241E+00    0.885E-01
RMM:   2    -0.231066622209E+04   -0.23512E+00   -0.25052E+00  6566   0.703E-01    0.674E-01
RMM:   3    -0.231068953803E+04   -0.23316E-01   -0.27477E-01  6295   0.268E-01    0.900E-01
RMM:   4    -0.231068266324E+04    0.68748E-02   -0.24718E-02  6008   0.561E-02    0.405E-01
RMM:   5    -0.231068149482E+04    0.11684E-02   -0.35671E-03  5638   0.253E-02    0.365E-01
RMM:   6    -0.231067996011E+04    0.15347E-02   -0.38018E-03  5698   0.271E-02    0.216E-01
RMM:   7    -0.231067971563E+04    0.24448E-03   -0.16249E-03  5609   0.194E-02    0.138E-01
RMM:   8    -0.231067954775E+04    0.16788E-03   -0.63169E-04  4105   0.130E-02    0.874E-02
RMM:   9    -0.231067942193E+04    0.12581E-03   -0.11201E-04  3012   0.735E-03    0.386E-02
RMM:  10    -0.231067939347E+04    0.28469E-04   -0.82093E-05  2948   0.578E-03    0.189E-02
RMM:  11    -0.231067938823E+04    0.52328E-05   -0.20608E-05  2962   0.399E-03
   2 F= -.23319245E+04 E0= -.23319244E+04  d E =-.183957E+00  mag=     3.0000
       N       E                     dE             d eps       ncg     rms          rms(c)
DAV:   1    -0.231022007799E+04    0.45932E+00   -0.21765E+01  4672   0.364E+00    0.133E+00
RMM:   2    -0.231076372645E+04   -0.54365E+00   -0.57500E+00  6565   0.110E+00    0.115E+00
RMM:   3    -0.231081587981E+04   -0.52153E-01   -0.62769E-01  6249   0.429E-01    0.153E+00
RMM:   4    -0.231079525792E+04    0.20622E-01   -0.54202E-02  6297   0.859E-02    0.631E-01
RMM:   5    -0.231079288150E+04    0.23764E-02   -0.81185E-03  6033   0.368E-02    0.572E-01
RMM:   6    -0.231078899317E+04    0.38883E-02   -0.96005E-03  5920   0.430E-02    0.318E-01
RMM:   7    -0.231078804673E+04    0.94644E-03   -0.36786E-03  5807   0.286E-02    0.135E-01
RMM:   8    -0.231078807767E+04   -0.30938E-04   -0.10991E-03  4970   0.178E-02    0.149E-01
RMM:   9    -0.231078773835E+04    0.33933E-03   -0.25085E-04  3351   0.959E-03    0.577E-02
RMM:  10    -0.231078767644E+04    0.61909E-04   -0.18546E-04  3148   0.806E-03    0.255E-02
RMM:  11    -0.231078766821E+04    0.82288E-05   -0.48404E-05  3014   0.514E-03
   3 F= -.23320350E+04 E0= -.23320350E+04  d E =-.294419E+00  mag=     3.0000
       N       E                     dE             d eps       ncg     rms          rms(c)
DAV:   1    -0.231061066527E+04    0.17701E+00   -0.13555E+01  4576   0.388E+00    0.156E+00
RMM:   2    -0.231081140923E+04   -0.20074E+00   -0.22017E+00  6139   0.958E-01    0.829E-01
RMM:   3    -0.231083463331E+04   -0.23224E-01   -0.21948E-01  5809   0.389E-01    0.128E+00
RMM:   4    -0.231081596820E+04    0.18665E-01   -0.26561E-02  6278   0.964E-02    0.553E-01
RMM:   5    -0.231081614109E+04   -0.17288E-03   -0.99330E-03  5566   0.553E-02    0.707E-01
RMM:   6    -0.231081152170E+04    0.46194E-02   -0.62954E-03  5796   0.478E-02    0.160E-01
RMM:   7    -0.231081139887E+04    0.12284E-03   -0.15591E-03  5384   0.296E-02    0.142E-01
RMM:   8    -0.231081108086E+04    0.31801E-03   -0.46791E-04  4585   0.136E-02    0.534E-02
RMM:   9    -0.231081099692E+04    0.83940E-04   -0.11761E-04  3878   0.806E-03    0.263E-02
RMM:  10    -0.231081096383E+04    0.33087E-04   -0.65009E-05  3765   0.710E-03    0.122E-02
RMM:  11    -0.231081095562E+04    0.82077E-05   -0.20839E-05  2975   0.559E-03
   4 F= -.23320602E+04 E0= -.23320602E+04  d E =-.252292E-01  mag=     3.0000
       N       E                     dE             d eps       ncg     rms          rms(c)
DAV:   1    -0.231079995203E+04    0.11012E-01   -0.21035E+00  4656   0.153E+00    0.625E-01
RMM:   2    -0.231083135634E+04   -0.31404E-01   -0.34123E-01  6152   0.365E-01    0.357E-01
RMM:   3    -0.231083495483E+04   -0.35985E-02   -0.33943E-02  5914   0.151E-01    0.519E-01
RMM:   4    -0.231083182366E+04    0.31312E-02   -0.42036E-03  5849   0.388E-02    0.226E-01
RMM:   5    -0.231083186433E+04   -0.40667E-04   -0.15023E-03  5373   0.233E-02    0.280E-01
RMM:   6    -0.231083111434E+04    0.74999E-03   -0.10837E-03  5334   0.201E-02    0.829E-02
RMM:   7    -0.231083109607E+04    0.18275E-04   -0.33689E-04  4199   0.130E-02    0.711E-02
RMM:   8    -0.231083101466E+04    0.81413E-04   -0.10872E-04  3413   0.687E-03    0.227E-02
RMM:   9    -0.231083100146E+04    0.13192E-04   -0.22566E-05  2976   0.460E-03    0.962E-03
RMM:  10    -0.231083099576E+04    0.57093E-05   -0.12739E-05  2896   0.365E-03
   5 F= -.23320795E+04 E0= -.23320795E+04  d E =-.444778E-01  mag=     3.0000
       N       E                     dE             d eps       ncg     rms          rms(c)
DAV:   1    -0.231077730421E+04    0.53697E-01   -0.31514E+00  4592   0.163E+00    0.640E-01
RMM:   2    -0.231086525883E+04   -0.87955E-01   -0.84919E-01  6567   0.475E-01    0.924E-01
RMM:   3    -0.231086391141E+04    0.13474E-02   -0.10276E-01  6223   0.188E-01    0.623E-01
RMM:   4    -0.231086142084E+04    0.24906E-02   -0.11090E-02  5864   0.443E-02    0.379E-01
RMM:   5    -0.231086010264E+04    0.13182E-02   -0.18932E-03  5614   0.208E-02    0.189E-01
RMM:   6    -0.231086002260E+04    0.80040E-04   -0.10523E-03  5391   0.169E-02    0.186E-01
RMM:   7    -0.231085955637E+04    0.46623E-03   -0.10224E-03  5268   0.191E-02    0.828E-02
RMM:   8    -0.231085949683E+04    0.59544E-04   -0.25377E-04  4228   0.102E-02    0.247E-02
RMM:   9    -0.231085949155E+04    0.52744E-05   -0.23838E-05  2941   0.567E-03
   6 F= -.23321079E+04 E0= -.23321079E+04  d E =-.284696E-01  mag=     3.0000
       N       E                     dE             d eps       ncg     rms          rms(c)
DAV:   1    -0.231083245151E+04    0.27045E-01   -0.11971E+00  4640   0.101E+00    0.398E-01
RMM:   2    -0.231086642225E+04   -0.33971E-01   -0.32934E-01  6540   0.295E-01    0.569E-01
RMM:   3    -0.231086587365E+04    0.54860E-03   -0.39085E-02  6124   0.114E-01    0.379E-01
RMM:   4    -0.231086492848E+04    0.94517E-03   -0.41580E-03  4999   0.273E-02    0.230E-01
RMM:   5    -0.231086444876E+04    0.47972E-03   -0.72663E-04  4737   0.136E-02    0.119E-01
RMM:   6    -0.231086441402E+04    0.34740E-04   -0.41398E-04  4588   0.113E-02    0.114E-01
RMM:   7    -0.231086423722E+04    0.17680E-03   -0.41358E-04  4470   0.127E-02    0.495E-02
RMM:   8    -0.231086421944E+04    0.17783E-04   -0.97665E-05  3355   0.704E-03    0.152E-02
RMM:   9    -0.231086421967E+04   -0.23484E-06   -0.11580E-05  2916   0.467E-03
   7 F= -.23321127E+04 E0= -.23321126E+04  d E =-.332031E-01  mag=     3.0000
       N       E                     dE             d eps       ncg     rms          rms(c)
DAV:   1    -0.231080836996E+04    0.55849E-01   -0.38405E+00  4528   0.193E+00    0.660E-01
RMM:   2    -0.231088688766E+04   -0.78518E-01   -0.78337E-01  6496   0.503E-01    0.750E-01
RMM:   3    -0.231088880673E+04   -0.19191E-02   -0.81233E-02  6200   0.181E-01    0.680E-01
RMM:   4    -0.231088539520E+04    0.34115E-02   -0.10502E-02  6040   0.461E-02    0.330E-01
RMM:   5    -0.231088419258E+04    0.12026E-02   -0.19471E-03  5554   0.221E-02    0.169E-01
RMM:   6    -0.231088409980E+04    0.92778E-04   -0.10223E-03  5154   0.192E-02    0.170E-01
RMM:   7    -0.231088379920E+04    0.30060E-03   -0.65430E-04  4876   0.179E-02    0.810E-02
RMM:   8    -0.231088373227E+04    0.66930E-04   -0.15155E-04  3925   0.816E-03    0.216E-02
RMM:   9    -0.231088372420E+04    0.80642E-05   -0.20421E-05  2917   0.617E-03
   8 F= -.23321324E+04 E0= -.23321324E+04  d E =-.197147E-01  mag=     3.0000
       N       E                     dE             d eps       ncg     rms          rms(c)
DAV:   1    -0.231086690830E+04    0.16824E-01   -0.99097E-01  4544   0.982E-01    0.334E-01
RMM:   2    -0.231088712433E+04   -0.20216E-01   -0.20109E-01  6485   0.253E-01    0.385E-01
RMM:   3    -0.231088751295E+04   -0.38862E-03   -0.20570E-02  6050   0.909E-02    0.338E-01
RMM:   4    -0.231088666562E+04    0.84733E-03   -0.26327E-03  5027   0.233E-02    0.166E-01
RMM:   5    -0.231088636942E+04    0.29620E-03   -0.50180E-04  4324   0.124E-02    0.872E-02
RMM:   6    -0.231088635094E+04    0.18480E-04   -0.29038E-04  4420   0.110E-02    0.915E-02
RMM:   7    -0.231088625501E+04    0.95929E-04   -0.17486E-04  3498   0.103E-02    0.351E-02
RMM:   8    -0.231088624133E+04    0.13679E-04   -0.41108E-05  3109   0.551E-03    0.110E-02
RMM:   9    -0.231088623915E+04    0.21837E-05   -0.72709E-06  2868   0.406E-03
   9 F= -.23321350E+04 E0= -.23321350E+04  d E =-.223578E-01  mag=     3.0000
       N       E                     dE             d eps       ncg     rms          rms(c)
DAV:   1    -0.231086806109E+04    0.18180E-01   -0.20360E+00  4528   0.137E+00    0.412E-01
RMM:   2    -0.231090069262E+04   -0.32632E-01   -0.33928E-01  6511   0.325E-01    0.383E-01
RMM:   3    -0.231090331693E+04   -0.26243E-02   -0.36040E-02  6225   0.119E-01    0.448E-01
RMM:   4    -0.231090190017E+04    0.14168E-02   -0.38801E-03  5618   0.281E-02    0.168E-01
RMM:   5    -0.231090167233E+04    0.22784E-03   -0.68205E-04  4176   0.138E-02    0.118E-01
RMM:   6    -0.231090153645E+04    0.13589E-03   -0.41523E-04  4445   0.135E-02    0.844E-02
RMM:   7    -0.231090150863E+04    0.27812E-04   -0.29306E-04  3594   0.122E-02    0.691E-02
RMM:   8    -0.231090145244E+04    0.56193E-04   -0.54648E-05  3135   0.607E-03    0.131E-02
RMM:   9    -0.231090144886E+04    0.35791E-05   -0.10443E-05  2898   0.416E-03
  10 F= -.23321510E+04 E0= -.23321510E+04  d E =-.160276E-01  mag=     3.0000
       N       E                     dE             d eps       ncg     rms          rms(c)
DAV:   1    -0.231073671791E+04    0.16473E+00   -0.10796E+01  4504   0.315E+00    0.961E-01
RMM:   2    -0.231091275285E+04   -0.17603E+00   -0.18221E+00  6500   0.748E-01    0.945E-01
RMM:   3    -0.231092370950E+04   -0.10957E-01   -0.18947E-01  6325   0.277E-01    0.102E+00
RMM:   4    -0.231091705513E+04    0.66544E-02   -0.21240E-02  6209   0.651E-02    0.423E-01
RMM:   5    -0.231091557004E+04    0.14851E-02   -0.38159E-03  5553   0.292E-02    0.276E-01
RMM:   6    -0.231091509446E+04    0.47557E-03   -0.21148E-03  5105   0.268E-02    0.241E-01
RMM:   7    -0.231091457073E+04    0.52373E-03   -0.16877E-03  5093   0.259E-02    0.130E-01
RMM:   8    -0.231091436404E+04    0.20670E-03   -0.28386E-04  4636   0.113E-02    0.318E-02
RMM:   9    -0.231091434004E+04    0.23995E-04   -0.48816E-05  2958   0.817E-03    0.205E-02
RMM:  10    -0.231091433500E+04    0.50446E-05   -0.35051E-05  2939   0.434E-03
  11 F= -.23321659E+04 E0= -.23321659E+04  d E =-.308430E-01  mag=     3.0000
       N       E                     dE             d eps       ncg     rms          rms(c)
DAV:   1    -0.231089331349E+04    0.21027E-01   -0.19871E+00  4528   0.132E+00    0.398E-01
RMM:   2    -0.231092695956E+04   -0.33646E-01   -0.34667E-01  6540   0.308E-01    0.459E-01
RMM:   3    -0.231092925352E+04   -0.22940E-02   -0.35385E-02  6229   0.115E-01    0.435E-01
RMM:   4    -0.231092792166E+04    0.13319E-02   -0.35544E-03  5377   0.267E-02    0.132E-01
RMM:   5    -0.231092789494E+04    0.26715E-04   -0.55121E-04  3683   0.127E-02    0.130E-01
RMM:   6    -0.231092769829E+04    0.19665E-03   -0.38560E-04  4366   0.120E-02    0.736E-02
RMM:   7    -0.231092768830E+04    0.99903E-05   -0.27218E-04  3436   0.112E-02    0.628E-02
RMM:   8    -0.231092763734E+04    0.50958E-04   -0.49045E-05  2987   0.595E-03    0.150E-02
RMM:   9    -0.231092763540E+04    0.19368E-05   -0.10989E-05  2909   0.368E-03
  12 F= -.23321801E+04 E0= -.23321801E+04  d E =-.142875E-01  mag=     3.0000
       N       E                     dE             d eps       ncg     rms          rms(c)
DAV:   1    -0.231063114555E+04    0.29649E+00   -0.17846E+01  4488   0.396E+00    0.122E+00
RMM:   2    -0.231094137903E+04   -0.31023E+00   -0.31763E+00  6538   0.929E-01    0.150E+00
RMM:   3    -0.231095850823E+04   -0.17129E-01   -0.34456E-01  6367   0.358E-01    0.130E+00
RMM:   4    -0.231094762695E+04    0.10881E-01   -0.34065E-02  6156   0.814E-02    0.475E-01
RMM:   5    -0.231094639972E+04    0.12272E-02   -0.53732E-03  5518   0.339E-02    0.377E-01
RMM:   6    -0.231094492224E+04    0.14775E-02   -0.33559E-03  5147   0.310E-02    0.257E-01
RMM:   7    -0.231094453638E+04    0.38585E-03   -0.28824E-03  5205   0.319E-02    0.180E-01
RMM:   8    -0.231094410132E+04    0.43506E-03   -0.51132E-04  4892   0.142E-02    0.476E-02
RMM:   9    -0.231094406027E+04    0.41051E-04   -0.99437E-05  3066   0.935E-03    0.272E-02
RMM:  10    -0.231094406088E+04   -0.61591E-06   -0.59532E-05  3011   0.538E-03
  13 F= -.23321996E+04 E0= -.23321996E+04  d E =-.337319E-01  mag=     3.0000
       N       E                     dE             d eps       ncg     rms          rms(c)
DAV:   1    -0.231090659654E+04    0.37464E-01   -0.26278E+00  4528   0.156E+00    0.554E-01
RMM:   2    -0.231096559643E+04   -0.59000E-01   -0.54499E-01  6448   0.373E-01    0.100E+00
RMM:   3    -0.231096149231E+04    0.41041E-02   -0.57492E-02  6137   0.147E-01    0.385E-01
RMM:   4    -0.231096033130E+04    0.11610E-02   -0.58015E-03  5166   0.321E-02    0.150E-01
RMM:   5    -0.231096024255E+04    0.88751E-04   -0.71970E-04  4534   0.163E-02    0.147E-01
RMM:   6    -0.231095998586E+04    0.25669E-03   -0.61295E-04  4623   0.148E-02    0.107E-01
RMM:   7    -0.231095996199E+04    0.23872E-04   -0.28709E-04  3463   0.124E-02    0.707E-02
RMM:   8    -0.231095988987E+04    0.72119E-04   -0.87143E-05  3032   0.647E-03    0.180E-02
RMM:   9    -0.231095988385E+04    0.60238E-05   -0.12945E-05  2906   0.432E-03
  14 F= -.23322157E+04 E0= -.23322157E+04  d E =-.161433E-01  mag=     3.0000
       N       E                     dE             d eps       ncg     rms          rms(c)
DAV:   1    -0.231083137839E+04    0.12851E+00   -0.68555E+00  4504   0.252E+00    0.899E-01
RMM:   2    -0.231098654555E+04   -0.15517E+00   -0.14403E+00  6450   0.609E-01    0.161E+00
RMM:   3    -0.231097558211E+04    0.10963E-01   -0.14928E-01  6177   0.237E-01    0.614E-01
RMM:   4    -0.231097246281E+04    0.31193E-02   -0.15033E-02  5438   0.519E-02    0.236E-01
RMM:   5    -0.231097221850E+04    0.24431E-03   -0.18730E-03  5337   0.257E-02    0.226E-01
RMM:   6    -0.231097152372E+04    0.69478E-03   -0.15585E-03  5032   0.227E-02    0.150E-01
RMM:   7    -0.231097151646E+04    0.72645E-05   -0.68922E-04  4517   0.183E-02    0.122E-01
RMM:   8    -0.231097131491E+04    0.20155E-03   -0.21743E-04  3606   0.845E-03    0.310E-02
RMM:   9    -0.231097129431E+04    0.20599E-04   -0.31809E-05  2930   0.577E-03    0.165E-02
RMM:  10    -0.231097128415E+04    0.10163E-04   -0.25514E-05  2907   0.374E-03    0.695E-03
RMM:  11    -0.231097128221E+04    0.19326E-05   -0.68931E-06  2884   0.321E-03
  15 F= -.23322277E+04 E0= -.23322277E+04  d E =-.280875E-01  mag=     3.0000
       N       E                     dE             d eps       ncg     rms          rms(c)
DAV:   1    -0.231089561549E+04    0.75669E-01   -0.39260E+00  4508   0.187E+00    0.718E-01
RMM:   2    -0.231100490376E+04   -0.10929E+00   -0.96425E-01  6510   0.473E-01    0.147E+00
RMM:   3    -0.231099012688E+04    0.14777E-01   -0.10009E-01  6145   0.182E-01    0.377E-01
RMM:   4    -0.231098930218E+04    0.82470E-03   -0.10770E-02  5416   0.389E-02    0.214E-01
RMM:   5    -0.231098895123E+04    0.35095E-03   -0.10404E-03  4547   0.170E-02    0.173E-01
RMM:   6    -0.231098864345E+04    0.30777E-03   -0.82645E-04  4735   0.158E-02    0.167E-01
RMM:   7    -0.231098850235E+04    0.14110E-03   -0.51241E-04  4081   0.143E-02    0.876E-02
RMM:   8    -0.231098840692E+04    0.95432E-04   -0.18215E-04  3567   0.806E-03    0.223E-02
RMM:   9    -0.231098840270E+04    0.42179E-05   -0.18645E-05  2914   0.536E-03
  16 F= -.23322448E+04 E0= -.23322448E+04  d E =-.171505E-01  mag=     3.0000
       N       E                     dE             d eps       ncg     rms          rms(c)
DAV:   1    -0.231074972430E+04    0.23868E+00   -0.10405E+01  4488   0.305E+00    0.118E+00
RMM:   2    -0.231104423315E+04   -0.29451E+00   -0.26092E+00  6506   0.787E-01    0.238E+00
RMM:   3    -0.231100344382E+04    0.40789E-01   -0.27068E-01  6150   0.303E-01    0.596E-01
RMM:   4    -0.231100124908E+04    0.21947E-02   -0.28677E-02  5703   0.641E-02    0.340E-01
RMM:   5    -0.231100028558E+04    0.96350E-03   -0.29344E-03  5437   0.274E-02    0.272E-01
RMM:   6    -0.231099921111E+04    0.10745E-02   -0.20216E-03  4821   0.250E-02    0.196E-01
RMM:   7    -0.231099926797E+04   -0.56866E-04   -0.13165E-03  4698   0.234E-02    0.180E-01
RMM:   8    -0.231099890392E+04    0.36405E-03   -0.41851E-04  4214   0.110E-02    0.374E-02
RMM:   9    -0.231099889231E+04    0.11611E-04   -0.50731E-05  2933   0.667E-03    0.205E-02
RMM:  10    -0.231099890084E+04   -0.85260E-05   -0.33910E-05  2912   0.416E-03
  17 F= -.23322554E+04 E0= -.23322554E+04  d E =-.277587E-01  mag=     3.0000
       N       E                     dE             d eps       ncg     rms          rms(c)
DAV:   1    -0.231086983354E+04    0.12906E+00   -0.57242E+00  4492   0.222E+00    0.848E-01
RMM:   2    -0.231103277927E+04   -0.16295E+00   -0.14685E+00  6562   0.576E-01    0.168E+00
RMM:   3    -0.231101474840E+04    0.18031E-01   -0.15365E-01  6219   0.220E-01    0.451E-01
RMM:   4    -0.231101338809E+04    0.13603E-02   -0.15398E-02  5507   0.457E-02    0.235E-01
RMM:   5    -0.231101306536E+04    0.32273E-03   -0.13829E-03  4856   0.195E-02    0.213E-01
RMM:   6    -0.231101252802E+04    0.53734E-03   -0.12100E-03  5093   0.191E-02    0.166E-01
RMM:   7    -0.231101248752E+04    0.40499E-04   -0.69145E-04  4240   0.160E-02    0.118E-01
RMM:   8    -0.231101231770E+04    0.16982E-03   -0.23752E-04  3383   0.869E-03    0.286E-02
RMM:   9    -0.231101231212E+04    0.55828E-05   -0.27082E-05  2920   0.525E-03
  18 F= -.23322691E+04 E0= -.23322691E+04  d E =-.136258E-01  mag=     3.0000
       N       E                     dE             d eps       ncg     rms          rms(c)
DAV:   1    -0.231085288248E+04    0.15944E+00   -0.66161E+00  4488   0.239E+00    0.910E-01
RMM:   2    -0.231104056891E+04   -0.18769E+00   -0.17012E+00  6560   0.621E-01    0.176E+00
RMM:   3    -0.231102089112E+04    0.19678E-01   -0.17824E-01  6191   0.239E-01    0.491E-01
RMM:   4    -0.231101923514E+04    0.16560E-02   -0.17762E-02  5552   0.495E-02    0.255E-01
RMM:   5    -0.231101882823E+04    0.40691E-03   -0.16156E-03  5005   0.209E-02    0.227E-01
RMM:   6    -0.231101819230E+04    0.63593E-03   -0.13937E-03  5108   0.206E-02    0.171E-01
RMM:   7    -0.231101816651E+04    0.25787E-04   -0.80795E-04  4432   0.172E-02    0.130E-01
RMM:   8    -0.231101796142E+04    0.20509E-03   -0.26996E-04  3554   0.911E-03    0.310E-02
RMM:   9    -0.231101795234E+04    0.90822E-05   -0.31751E-05  2922   0.554E-03
  19 F= -.23322750E+04 E0= -.23322750E+04  d E =-.195490E-01  mag=     3.0000
       N       E                     dE             d eps       ncg     rms          rms(c)
DAV:   1    -0.231089796109E+04    0.12000E+00   -0.55496E+00  4492   0.220E+00    0.778E-01
RMM:   2    -0.231103496134E+04   -0.13700E+00   -0.13487E+00  6541   0.557E-01    0.110E+00
RMM:   3    -0.231103658679E+04   -0.16254E-02   -0.14357E-01  6200   0.218E-01    0.622E-01
RMM:   4    -0.231103293036E+04    0.36564E-02   -0.13419E-02  5775   0.467E-02    0.236E-01
RMM:   5    -0.231103269532E+04    0.23504E-03   -0.15076E-03  5126   0.200E-02    0.241E-01
RMM:   6    -0.231103198906E+04    0.70627E-03   -0.15541E-03  5517   0.205E-02    0.129E-01
RMM:   7    -0.231103195682E+04    0.32234E-04   -0.67004E-04  4705   0.149E-02    0.909E-02
RMM:   8    -0.231103183425E+04    0.12257E-03   -0.19484E-04  3190   0.852E-03    0.347E-02
RMM:   9    -0.231103181435E+04    0.19897E-04   -0.29854E-05  2921   0.522E-03    0.161E-02
RMM:  10    -0.231103181034E+04    0.40103E-05   -0.23815E-05  2897   0.339E-03
  20 F= -.23322896E+04 E0= -.23322896E+04  d E =-.145663E-01  mag=     3.0000
       N       E                     dE             d eps       ncg     rms          rms(c)
DAV:   1    -0.231096292684E+04    0.68888E-01   -0.29955E+00  4528   0.161E+00    0.568E-01
RMM:   2    -0.231103607726E+04   -0.73150E-01   -0.72001E-01  6546   0.406E-01    0.798E-01
RMM:   3    -0.231103720736E+04   -0.11301E-02   -0.77141E-02  6198   0.158E-01    0.462E-01
RMM:   4    -0.231103523863E+04    0.19687E-02   -0.72144E-03  5652   0.344E-02    0.183E-01
RMM:   5    -0.231103509006E+04    0.14856E-03   -0.85126E-04  4223   0.145E-02    0.179E-01
RMM:   6    -0.231103467983E+04    0.41024E-03   -0.89205E-04  5078   0.161E-02    0.923E-02
RMM:   7    -0.231103467104E+04    0.87820E-05   -0.40940E-04  4090   0.122E-02    0.710E-02
RMM:   8    -0.231103459475E+04    0.76294E-04   -0.11813E-04  3034   0.705E-03    0.247E-02
RMM:   9    -0.231103458416E+04    0.10585E-04   -0.17431E-05  2915   0.457E-03    0.122E-02
RMM:  10    -0.231103458166E+04    0.25038E-05   -0.15525E-05  2893   0.281E-03
  21 F= -.23322929E+04 E0= -.23322929E+04  d E =-.178955E-01  mag=     3.0000
       N       E                     dE             d eps       ncg     rms          rms(c)
DAV:   1    -0.231093278116E+04    0.10180E+00   -0.49800E+00  4488   0.211E+00    0.700E-01
RMM:   2    -0.231104329936E+04   -0.11052E+00   -0.11134E+00  6527   0.514E-01    0.818E-01
RMM:   3    -0.231104798655E+04   -0.46872E-02   -0.11680E-01  6210   0.197E-01    0.557E-01
RMM:   4    -0.231104473581E+04    0.32507E-02   -0.11253E-02  5856   0.435E-02    0.284E-01
RMM:   5    -0.231104429464E+04    0.44117E-03   -0.14230E-03  4833   0.180E-02    0.236E-01
RMM:   6    -0.231104355720E+04    0.73745E-03   -0.14986E-03  5300   0.205E-02    0.107E-01
RMM:   7    -0.231104354122E+04    0.15973E-04   -0.81558E-04  4856   0.164E-02    0.889E-02
RMM:   8    -0.231104342547E+04    0.11575E-03   -0.20699E-04  3328   0.894E-03    0.341E-02
RMM:   9    -0.231104340358E+04    0.21890E-04   -0.29723E-05  2937   0.540E-03    0.180E-02
RMM:  10    -0.231104339669E+04    0.68970E-05   -0.31439E-05  2908   0.368E-03
  22 F= -.23323025E+04 E0= -.23323025E+04  d E =-.960271E-02  mag=     3.0000
       N       E                     dE             d eps       ncg     rms          rms(c)
DAV:   1    -0.231102921564E+04    0.14188E-01   -0.66793E-01  4592   0.771E-01    0.256E-01
RMM:   2    -0.231104404123E+04   -0.14826E-01   -0.14897E-01  6526   0.188E-01    0.296E-01
RMM:   3    -0.231104456167E+04   -0.52044E-03   -0.15181E-02  5759   0.708E-02    0.195E-01
RMM:   4    -0.231104417107E+04    0.39060E-03   -0.15150E-03  3659   0.160E-02    0.110E-01
RMM:   5    -0.231104409836E+04    0.72708E-04   -0.19132E-04  2991   0.793E-03    0.856E-02
RMM:   6    -0.231104399878E+04    0.99582E-04   -0.20765E-04  3705   0.873E-03    0.403E-02
RMM:   7    -0.231104399715E+04    0.16310E-05   -0.11051E-04  3069   0.739E-03    0.345E-02
RMM:   8    -0.231104397967E+04    0.17478E-04   -0.32441E-05  2909   0.499E-03    0.119E-02
RMM:   9    -0.231104397734E+04    0.23337E-05   -0.53243E-06  2855   0.306E-03
  23 F= -.23323034E+04 E0= -.23323034E+04  d E =-.104832E-01  mag=     3.0000
       N       E                     dE             d eps       ncg     rms          rms(c)
DAV:   1    -0.231097896364E+04    0.65016E-01   -0.33407E+00  4492   0.177E+00    0.596E-01
RMM:   2    -0.231105862688E+04   -0.79663E-01   -0.75216E-01  6578   0.439E-01    0.893E-01
RMM:   3    -0.231105424749E+04    0.43794E-02   -0.78073E-02  6330   0.163E-01    0.311E-01
RMM:   4    -0.231105339796E+04    0.84953E-03   -0.79080E-03  5300   0.346E-02    0.221E-01
RMM:   5    -0.231105316151E+04    0.23645E-03   -0.75373E-04  3747   0.147E-02    0.193E-01
RMM:   6    -0.231105270921E+04    0.45230E-03   -0.80243E-04  4944   0.163E-02    0.939E-02
RMM:   7    -0.231105268072E+04    0.28491E-04   -0.51520E-04  4376   0.144E-02    0.734E-02
RMM:   8    -0.231105260861E+04    0.72107E-04   -0.13426E-04  3121   0.757E-03    0.218E-02
RMM:   9    -0.231105260111E+04    0.75004E-05   -0.16174E-05  2921   0.478E-03
  24 F= -.23323123E+04 E0= -.23323123E+04  d E =-.893998E-02  mag=     3.0000
       N       E                     dE             d eps       ncg     rms          rms(c)
DAV:   1    -0.231095132417E+04    0.10128E+00   -0.46948E+00  4488   0.210E+00    0.704E-01
RMM:   2    -0.231106280651E+04   -0.11148E+00   -0.10578E+00  6585   0.523E-01    0.104E+00
RMM:   3    -0.231105740754E+04    0.53990E-02   -0.11008E-01  6372   0.194E-01    0.371E-01
RMM:   4    -0.231105614062E+04    0.12669E-02   -0.11036E-02  5430   0.411E-02    0.257E-01
RMM:   5    -0.231105585306E+04    0.28756E-03   -0.10572E-03  4276   0.172E-02    0.233E-01
RMM:   6    -0.231105517678E+04    0.67628E-03   -0.11418E-03  5016   0.191E-02    0.105E-01
RMM:   7    -0.231105515426E+04    0.22526E-04   -0.69693E-04  4623   0.170E-02    0.860E-02
RMM:   8    -0.231105505620E+04    0.98060E-04   -0.18527E-04  3383   0.847E-03    0.265E-02
RMM:   9    -0.231105504548E+04    0.10716E-04   -0.21842E-05  2928   0.529E-03    0.149E-02
RMM:  10    -0.231105504332E+04    0.21651E-05   -0.23841E-05  2907   0.337E-03
  25 F= -.23323152E+04 E0= -.23323152E+04  d E =-.117952E-01  mag=     3.0000
       N       E                     dE             d eps       ncg     rms          rms(c)
DAV:   1    -0.231101747972E+04    0.37566E-01   -0.19373E+00  4528   0.135E+00    0.467E-01
RMM:   2    -0.231106450295E+04   -0.47023E-01   -0.43864E-01  6548   0.337E-01    0.706E-01
RMM:   3    -0.231106114932E+04    0.33536E-02   -0.44653E-02  6212   0.124E-01    0.240E-01
RMM:   4    -0.231106073717E+04    0.41215E-03   -0.47873E-03  5146   0.268E-02    0.187E-01
RMM:   5    -0.231106051080E+04    0.22637E-03   -0.46562E-04  3272   0.118E-02    0.136E-01
RMM:   6    -0.231106027807E+04    0.23272E-03   -0.41231E-04  4544   0.124E-02    0.631E-02
RMM:   7    -0.231106027428E+04    0.37916E-05   -0.26574E-04  3795   0.114E-02    0.515E-02
RMM:   8    -0.231106023820E+04    0.36081E-04   -0.65948E-05  2947   0.607E-03    0.165E-02
RMM:   9    -0.231106023519E+04    0.30116E-05   -0.87587E-06  2884   0.389E-03
  26 F= -.23323205E+04 E0= -.23323205E+04  d E =-.529899E-02  mag=     3.0000
       N       E                     dE             d eps       ncg     rms          rms(c)
DAV:   1    -0.231099336816E+04    0.66870E-01   -0.31081E+00  4488   0.171E+00    0.590E-01
RMM:   2    -0.231106877718E+04   -0.75409E-01   -0.70606E-01  6549   0.428E-01    0.881E-01
RMM:   3    -0.231106365031E+04    0.51269E-02   -0.71987E-02  6249   0.159E-01    0.302E-01
RMM:   4    -0.231106296878E+04    0.68153E-03   -0.76632E-03  5376   0.339E-02    0.231E-01
RMM:   5    -0.231106262796E+04    0.34082E-03   -0.74345E-04  3715   0.144E-02    0.174E-01
RMM:   6    -0.231106224847E+04    0.37949E-03   -0.66911E-04  4847   0.154E-02    0.818E-02
RMM:   7    -0.231106224094E+04    0.75273E-05   -0.44493E-04  4339   0.140E-02    0.688E-02
RMM:   8    -0.231106217466E+04    0.66289E-04   -0.10998E-04  3082   0.714E-03    0.205E-02
RMM:   9    -0.231106216883E+04    0.58231E-05   -0.13977E-05  2908   0.467E-03
  27 F= -.23323225E+04 E0= -.23323225E+04  d E =-.738924E-02  mag=     3.0000
       N       E                     dE             d eps       ncg     rms          rms(c)
DAV:   1    -0.231105249805E+04    0.96766E-02   -0.69564E-01  4544   0.812E-01    0.276E-01
RMM:   2    -0.231106717867E+04   -0.14681E-01   -0.14195E-01  6379   0.195E-01    0.354E-01
RMM:   3    -0.231106698275E+04    0.19591E-03   -0.14172E-02  5801   0.737E-02    0.204E-01
RMM:   4    -0.231106663800E+04    0.34475E-03   -0.15788E-03  4645   0.178E-02    0.122E-01
RMM:   5    -0.231106653042E+04    0.10758E-03   -0.24384E-04  3059   0.909E-03    0.845E-02
RMM:   6    -0.231106643617E+04    0.94246E-04   -0.18674E-04  3996   0.984E-03    0.296E-02
RMM:   7    -0.231106643776E+04   -0.15896E-05   -0.71183E-05  3051   0.765E-03
  28 F= -.23323267E+04 E0= -.23323267E+04  d E =-.419664E-02  mag=     3.0000
       N       E                     dE             d eps       ncg     rms          rms(c)
DAV:   1    -0.231104867052E+04    0.17766E-01   -0.96304E-01  4528   0.957E-01    0.328E-01
RMM:   2    -0.231106910946E+04   -0.20439E-01   -0.19784E-01  6407   0.232E-01    0.419E-01
RMM:   3    -0.231106874611E+04    0.36334E-03   -0.19268E-02  5880   0.874E-02    0.241E-01
RMM:   4    -0.231106826372E+04    0.48240E-03   -0.21767E-03  5085   0.211E-02    0.144E-01
RMM:   5    -0.231106811502E+04    0.14870E-03   -0.34498E-04  3219   0.106E-02    0.100E-01
RMM:   6    -0.231106798454E+04    0.13048E-03   -0.25096E-04  4183   0.113E-02    0.361E-02
RMM:   7    -0.231106798789E+04   -0.33490E-05   -0.10334E-04  3208   0.897E-03    0.301E-02
RMM:   8    -0.231106797586E+04    0.12025E-04   -0.27283E-05  2902   0.512E-03    0.128E-02
RMM:   9    -0.231106797334E+04    0.25241E-05   -0.63393E-06  2864   0.323E-03
  29 F= -.23323282E+04 E0= -.23323282E+04  d E =-.565008E-02  mag=     3.0000
       N       E                     dE             d eps       ncg     rms          rms(c)
DAV:   1    -0.231105588872E+04    0.12087E-01   -0.82907E-01  4528   0.911E-01    0.289E-01
RMM:   2    -0.231107153662E+04   -0.15648E-01   -0.15506E-01  6368   0.208E-01    0.341E-01
RMM:   3    -0.231107200392E+04   -0.46730E-03   -0.15957E-02  5790   0.805E-02    0.254E-01
RMM:   4    -0.231107140528E+04    0.59864E-03   -0.16188E-03  4753   0.189E-02    0.104E-01
RMM:   5    -0.231107133141E+04    0.73874E-04   -0.24941E-04  3142   0.912E-03    0.898E-02
RMM:   6    -0.231107122071E+04    0.11070E-03   -0.23064E-04  4057   0.101E-02    0.404E-02
RMM:   7    -0.231107122095E+04   -0.24436E-06   -0.11679E-04  3219   0.818E-03    0.362E-02
RMM:   8    -0.231107120079E+04    0.20157E-04   -0.30562E-05  2913   0.531E-03    0.107E-02
RMM:   9    -0.231107119848E+04    0.23112E-05   -0.64513E-06  2873   0.325E-03
  30 F= -.23323314E+04 E0= -.23323314E+04  d E =-.315126E-02  mag=     3.0000
       N       E                     dE             d eps       ncg     rms          rms(c)
DAV:   1    -0.231105823285E+04    0.12968E-01   -0.73519E-01  4512   0.858E-01    0.272E-01
RMM:   2    -0.231107208465E+04   -0.13852E-01   -0.13738E-01  6369   0.196E-01    0.320E-01
RMM:   3    -0.231107254217E+04   -0.45752E-03   -0.14280E-02  5735   0.761E-02    0.242E-01
RMM:   4    -0.231107200150E+04    0.54067E-03   -0.14380E-03  4543   0.179E-02    0.985E-02
RMM:   5    -0.231107193297E+04    0.68533E-04   -0.22356E-04  3108   0.882E-03    0.845E-02
RMM:   6    -0.231107183328E+04    0.99693E-04   -0.20917E-04  3980   0.965E-03    0.383E-02
RMM:   7    -0.231107183214E+04    0.11348E-05   -0.10515E-04  3163   0.790E-03    0.342E-02
RMM:   8    -0.231107181385E+04    0.18289E-04   -0.28054E-05  2916   0.518E-03    0.102E-02
RMM:   9    -0.231107181158E+04    0.22754E-05   -0.62551E-06  2869   0.321E-03
  31 F= -.23323319E+04 E0= -.23323319E+04  d E =-.369684E-02  mag=     3.0000
       N       E                     dE             d eps       ncg     rms          rms(c)
DAV:   1    -0.231106265620E+04    0.91577E-02   -0.71047E-01  4528   0.854E-01    0.252E-01
RMM:   2    -0.231107490991E+04   -0.12254E-01   -0.12201E-01  6390   0.190E-01    0.294E-01
RMM:   3    -0.231107524482E+04   -0.33491E-03   -0.11917E-02  5701   0.702E-02    0.212E-01
RMM:   4    -0.231107487797E+04    0.36685E-03   -0.12816E-03  4283   0.172E-02    0.104E-01
RMM:   5    -0.231107478552E+04    0.92449E-04   -0.20402E-04  3129   0.886E-03    0.757E-02
RMM:   6    -0.231107472178E+04    0.63743E-04   -0.21562E-04  3965   0.974E-03    0.504E-02
RMM:   7    -0.231107470768E+04    0.14095E-04   -0.10066E-04  3024   0.769E-03    0.334E-02
RMM:   8    -0.231107469184E+04    0.15848E-04   -0.23650E-05  2919   0.476E-03    0.944E-03
RMM:   9    -0.231107469036E+04    0.14718E-05   -0.44961E-06  2869   0.303E-03
  32 F= -.23323348E+04 E0= -.23323348E+04  d E =-.287396E-02  mag=     3.0000
       N       E                     dE             d eps       ncg     rms          rms(c)
DAV:   1    -0.231105990413E+04    0.14788E-01   -0.93945E-01  4496   0.982E-01    0.290E-01
RMM:   2    -0.231107612236E+04   -0.16218E-01   -0.16145E-01  6374   0.218E-01    0.340E-01
RMM:   3    -0.231107655713E+04   -0.43477E-03   -0.15813E-02  5829   0.809E-02    0.245E-01
RMM:   4    -0.231107607178E+04    0.48535E-03   -0.16994E-03  4789   0.197E-02    0.120E-01
RMM:   5    -0.231107594801E+04    0.12377E-03   -0.26956E-04  3241   0.963E-03    0.869E-02
RMM:   6    -0.231107586237E+04    0.85634E-04   -0.28012E-04  4147   0.109E-02    0.578E-02
RMM:   7    -0.231107584372E+04    0.18656E-04   -0.13196E-04  3106   0.853E-03    0.386E-02
RMM:   8    -0.231107582227E+04    0.21450E-04   -0.31014E-05  2929   0.527E-03    0.109E-02
RMM:   9    -0.231107582010E+04    0.21662E-05   -0.58662E-06  2877   0.338E-03
  33 F= -.23323359E+04 E0= -.23323359E+04  d E =-.400253E-02  mag=     3.0000
       N       E                     dE             d eps       ncg     rms          rms(c)
DAV:   1    -0.231107005602E+04    0.57662E-02   -0.57980E-01  4528   0.773E-01    0.227E-01
RMM:   2    -0.231107933682E+04   -0.92808E-02   -0.94369E-02  6394   0.172E-01    0.217E-01
RMM:   3    -0.231107955941E+04   -0.22258E-03   -0.94723E-03  5764   0.655E-02    0.138E-01
RMM:   4    -0.231107933653E+04    0.22288E-03   -0.88435E-04  3850   0.144E-02    0.844E-02
RMM:   5    -0.231107930486E+04    0.31665E-04   -0.15367E-04  3015   0.828E-03    0.775E-02
RMM:   6    -0.231107924444E+04    0.60416E-04   -0.18998E-04  3966   0.897E-03    0.602E-02
RMM:   7    -0.231107922062E+04    0.23828E-04   -0.87874E-05  2973   0.740E-03    0.299E-02
RMM:   8    -0.231107920991E+04    0.10710E-04   -0.17599E-05  2915   0.423E-03    0.779E-03
RMM:   9    -0.231107920908E+04    0.82552E-06   -0.36053E-06  2856   0.283E-03
  34 F= -.23323393E+04 E0= -.23323393E+04  d E =-.337427E-02  mag=     3.0000
       N       E                     dE             d eps       ncg     rms          rms(c)
DAV:   1    -0.231104340385E+04    0.35806E-01   -0.23083E+00  4488   0.154E+00    0.451E-01
RMM:   2    -0.231108029117E+04   -0.36887E-01   -0.37579E-01  6393   0.342E-01    0.432E-01
RMM:   3    -0.231108130323E+04   -0.10121E-02   -0.37461E-02  6099   0.130E-01    0.282E-01
RMM:   4    -0.231108034505E+04    0.95818E-03   -0.34594E-03  5305   0.284E-02    0.165E-01
RMM:   5    -0.231108024265E+04    0.10240E-03   -0.63019E-04  4280   0.147E-02    0.156E-01
RMM:   6    -0.231107997735E+04    0.26530E-03   -0.75474E-04  4802   0.159E-02    0.114E-01
RMM:   7    -0.231107989191E+04    0.85440E-04   -0.32457E-04  3870   0.130E-02    0.591E-02
RMM:   8    -0.231107984940E+04    0.42512E-04   -0.58936E-05  2971   0.588E-03    0.154E-02
RMM:   9    -0.231107984554E+04    0.38577E-05   -0.10404E-05  2912   0.411E-03
  35 F= -.23323399E+04 E0= -.23323399E+04  d E =-.399228E-02  mag=     3.0000
       N       E                     dE             d eps       ncg     rms          rms(c)
DAV:   1    -0.231107417827E+04    0.56711E-02   -0.40822E-01  4528   0.648E-01    0.191E-01
RMM:   2    -0.231108069481E+04   -0.65165E-02   -0.66236E-02  6397   0.145E-01    0.184E-01
RMM:   3    -0.231108082402E+04   -0.12921E-03   -0.67956E-03  5536   0.541E-02    0.113E-01
RMM:   4    -0.231108067385E+04    0.15017E-03   -0.62250E-04  3329   0.121E-02    0.692E-02
RMM:   5    -0.231108065068E+04    0.23166E-04   -0.10831E-04  2978   0.724E-03    0.632E-02
RMM:   6    -0.231108061377E+04    0.36909E-04   -0.12818E-04  3492   0.760E-03    0.550E-02
RMM:   7    -0.231108059368E+04    0.20090E-04   -0.65237E-05  2928   0.653E-03    0.256E-02
RMM:   8    -0.231108058661E+04    0.70709E-05   -0.13507E-05  2915   0.391E-03
  36 F= -.23323406E+04 E0= -.23323406E+04  d E =-.473932E-02  mag=     3.0000
       N       E                     dE             d eps       ncg     rms          rms(c)
DAV:   1    -0.231107430177E+04    0.62919E-02   -0.60818E-01  4496   0.798E-01    0.229E-01
RMM:   2    -0.231108343891E+04   -0.91371E-02   -0.92896E-02  6391   0.174E-01    0.217E-01
RMM:   3    -0.231108372905E+04   -0.29014E-03   -0.98179E-03  5888   0.690E-02    0.145E-01
RMM:   4    -0.231108342300E+04    0.30605E-03   -0.90220E-04  4379   0.150E-02    0.720E-02
RMM:   5    -0.231108339056E+04    0.32440E-04   -0.20945E-04  3501   0.946E-03    0.696E-02
RMM:   6    -0.231108332599E+04    0.64579E-04   -0.18250E-04  3968   0.923E-03    0.349E-02
RMM:   7    -0.231108333132E+04   -0.53316E-05   -0.53619E-05  2933   0.624E-03
  37 F= -.23323434E+04 E0= -.23323434E+04  d E =-.272164E-02  mag=     3.0000
       N       E                     dE             d eps       ncg     rms          rms(c)
DAV:   1    -0.231107568217E+04    0.76438E-02   -0.55724E-01  4512   0.764E-01    0.222E-01
RMM:   2    -0.231108410782E+04   -0.84256E-02   -0.85958E-02  6361   0.167E-01    0.210E-01
RMM:   3    -0.231108437644E+04   -0.26862E-03   -0.91158E-03  5878   0.657E-02    0.141E-01
RMM:   4    -0.231108408901E+04    0.28743E-03   -0.83417E-04  4185   0.144E-02    0.705E-02
RMM:   5    -0.231108405649E+04    0.32517E-04   -0.18329E-04  3257   0.897E-03    0.680E-02
RMM:   6    -0.231108399521E+04    0.61282E-04   -0.17635E-04  3993   0.915E-03    0.277E-02
RMM:   7    -0.231108399475E+04    0.46646E-06   -0.34582E-05  2948   0.590E-03
  38 F= -.23323440E+04 E0= -.23323440E+04  d E =-.336386E-02  mag=     3.0000
       N       E                     dE             d eps       ncg     rms          rms(c)
DAV:   1    -0.231107734750E+04    0.66477E-02   -0.64859E-01  4496   0.825E-01    0.224E-01
RMM:   2    -0.231108706784E+04   -0.97203E-02   -0.96863E-02  6482   0.177E-01    0.251E-01
RMM:   3    -0.231108715077E+04   -0.82924E-04   -0.96740E-03  5903   0.645E-02    0.137E-01
RMM:   4    -0.231108691257E+04    0.23819E-03   -0.96760E-04  4021   0.145E-02    0.686E-02
RMM:   5    -0.231108682468E+04    0.87896E-04   -0.18262E-04  3926   0.957E-03    0.338E-02
RMM:   6    -0.231108684275E+04   -0.18078E-04   -0.90949E-05  3023   0.817E-03    0.522E-02
RMM:   7    -0.231108681757E+04    0.25183E-04   -0.31899E-05  2914   0.568E-03    0.140E-02
RMM:   8    -0.231108681559E+04    0.19849E-05   -0.52841E-06  2872   0.301E-03
  39 F= -.23323468E+04 E0= -.23323468E+04  d E =-.284029E-02  mag=     3.0000
       N       E                     dE             d eps       ncg     rms          rms(c)
DAV:   1    -0.231102911885E+04    0.57699E-01   -0.41612E+00  4488   0.209E+00    0.567E-01
RMM:   2    -0.231109188075E+04   -0.62762E-01   -0.62267E-01  6477   0.447E-01    0.665E-01
RMM:   3    -0.231109191289E+04   -0.32134E-04   -0.61875E-02  6225   0.156E-01    0.349E-01
RMM:   4    -0.231109052077E+04    0.13921E-02   -0.62617E-03  5448   0.355E-02    0.194E-01
RMM:   5    -0.231109060782E+04   -0.87053E-04   -0.10863E-03  4991   0.191E-02    0.242E-01
RMM:   6    -0.231108987267E+04    0.73515E-03   -0.11137E-03  4987   0.191E-02    0.764E-02
RMM:   7    -0.231108983936E+04    0.33311E-04   -0.27053E-04  4218   0.130E-02    0.309E-02
RMM:   8    -0.231108983034E+04    0.90242E-05   -0.43720E-05  2932   0.549E-03
  40 F= -.23323499E+04 E0= -.23323499E+04  d E =-.590552E-02  mag=     3.0000
       N       E                     dE             d eps       ncg     rms          rms(c)
DAV:   1    -0.231108507504E+04    0.47643E-02   -0.48240E-01  4560   0.703E-01    0.204E-01
RMM:   2    -0.231109285416E+04   -0.77791E-02   -0.77605E-02  6482   0.155E-01    0.237E-01
RMM:   3    -0.231109290505E+04   -0.50891E-04   -0.74912E-03  5750   0.533E-02    0.133E-01
RMM:   4    -0.231109272872E+04    0.17634E-03   -0.78572E-04  3477   0.128E-02    0.744E-02
RMM:   5    -0.231109272501E+04    0.37044E-05   -0.11982E-04  2969   0.719E-03    0.768E-02
RMM:   6    -0.231109264560E+04    0.79412E-04   -0.14164E-04  3571   0.799E-03    0.251E-02
RMM:   7    -0.231109264747E+04   -0.18662E-05   -0.37629E-05  2973   0.595E-03
  41 F= -.23323528E+04 E0= -.23323528E+04  d E =-.287863E-02  mag=     3.0000
       N       E                     dE             d eps       ncg     rms          rms(c)
DAV:   1    -0.231102842121E+04    0.64224E-01   -0.43336E+00  4488   0.211E+00    0.606E-01
RMM:   2    -0.231109824680E+04   -0.69826E-01   -0.69584E-01  6477   0.463E-01    0.704E-01
RMM:   3    -0.231109863635E+04   -0.38955E-03   -0.67107E-02  6244   0.163E-01    0.393E-01
RMM:   4    -0.231109710376E+04    0.15326E-02   -0.70505E-03  5616   0.374E-02    0.232E-01
RMM:   5    -0.231109699488E+04    0.10887E-03   -0.10439E-03  4663   0.175E-02    0.224E-01
RMM:   6    -0.231109629096E+04    0.70392E-03   -0.12607E-03  4889   0.209E-02    0.714E-02
RMM:   7    -0.231109629410E+04   -0.31351E-05   -0.33935E-04  4329   0.145E-02    0.493E-02
RMM:   8    -0.231109626172E+04    0.32384E-04   -0.77670E-05  2973   0.606E-03    0.296E-02
RMM:   9    -0.231109624706E+04    0.14657E-04   -0.22361E-05  2911   0.452E-03    0.122E-02
RMM:  10    -0.231109624498E+04    0.20820E-05   -0.19305E-05  2916   0.291E-03
  42 F= -.23323566E+04 E0= -.23323566E+04  d E =-.666594E-02  mag=     3.0000
       N       E                     dE             d eps       ncg     rms          rms(c)
DAV:   1    -0.231108960711E+04    0.66399E-02   -0.55144E-01  4528   0.740E-01    0.225E-01
RMM:   2    -0.231109896640E+04   -0.93593E-02   -0.94011E-02  6474   0.168E-01    0.248E-01
RMM:   3    -0.231109927023E+04   -0.30382E-03   -0.95563E-03  5937   0.601E-02    0.174E-01
RMM:   4    -0.231109902020E+04    0.25003E-03   -0.10251E-03  3809   0.147E-02    0.959E-02
RMM:   5    -0.231109896565E+04    0.54542E-04   -0.15823E-04  2985   0.779E-03    0.754E-02
RMM:   6    -0.231109888186E+04    0.83798E-04   -0.16856E-04  3876   0.916E-03    0.235E-02
RMM:   7    -0.231109888095E+04    0.90407E-06   -0.44097E-05  3000   0.654E-03
  43 F= -.23323591E+04 E0= -.23323591E+04  d E =-.254660E-02  mag=     3.0000
       N       E                     dE             d eps       ncg     rms          rms(c)
DAV:   1    -0.231106775565E+04    0.31126E-01   -0.19406E+00  4492   0.139E+00    0.425E-01
RMM:   2    -0.231110090896E+04   -0.33153E-01   -0.33355E-01  6485   0.317E-01    0.469E-01
RMM:   3    -0.231110177831E+04   -0.86935E-03   -0.33310E-02  6241   0.115E-01    0.318E-01
RMM:   4    -0.231110097289E+04    0.80542E-03   -0.35966E-03  5411   0.272E-02    0.184E-01
RMM:   5    -0.231110077864E+04    0.19425E-03   -0.55882E-04  3602   0.130E-02    0.142E-01
RMM:   6    -0.231110048274E+04    0.29591E-03   -0.59499E-04  4760   0.157E-02    0.446E-02
RMM:   7    -0.231110047465E+04    0.80825E-05   -0.15915E-04  3827   0.108E-02    0.239E-02
RMM:   8    -0.231110047231E+04    0.23431E-05   -0.25709E-05  2915   0.473E-03
  44 F= -.23323605E+04 E0= -.23323605E+04  d E =-.397623E-02  mag=     3.0000
       N       E                     dE             d eps       ncg     rms          rms(c)
DAV:   1    -0.231108995624E+04    0.10518E-01   -0.72281E-01  4496   0.843E-01    0.260E-01
RMM:   2    -0.231110302978E+04   -0.13074E-01   -0.12968E-01  6495   0.196E-01    0.304E-01
RMM:   3    -0.231110321550E+04   -0.18573E-03   -0.13107E-02  6090   0.704E-02    0.195E-01
RMM:   4    -0.231110295022E+04    0.26528E-03   -0.14607E-03  3955   0.166E-02    0.118E-01
RMM:   5    -0.231110284348E+04    0.10674E-03   -0.20584E-04  2981   0.808E-03    0.774E-02
RMM:   6    -0.231110275901E+04    0.84479E-04   -0.17655E-04  3857   0.907E-03    0.294E-02
RMM:   7    -0.231110276521E+04   -0.62009E-05   -0.75212E-05  3025   0.715E-03
  45 F= -.23323626E+04 E0= -.23323626E+04  d E =-.202666E-02  mag=     3.0000
       N       E                     dE             d eps       ncg     rms          rms(c)
DAV:   1    -0.231104623960E+04    0.56519E-01   -0.32760E+00  4492   0.180E+00    0.550E-01
RMM:   2    -0.231110534841E+04   -0.59109E-01   -0.59012E-01  6551   0.420E-01    0.624E-01
RMM:   3    -0.231110634696E+04   -0.99854E-03   -0.58193E-02  6324   0.150E-01    0.399E-01
RMM:   4    -0.231110521626E+04    0.11307E-02   -0.64533E-03  5700   0.347E-02    0.246E-01
RMM:   5    -0.231110479035E+04    0.42591E-03   -0.87841E-04  3957   0.148E-02    0.167E-01
RMM:   6    -0.231110438838E+04    0.40197E-03   -0.79208E-04  4900   0.174E-02    0.633E-02
RMM:   7    -0.231110440910E+04   -0.20722E-04   -0.35574E-04  4191   0.136E-02    0.605E-02
RMM:   8    -0.231110436527E+04    0.43833E-04   -0.69524E-05  2938   0.590E-03    0.216E-02
RMM:   9    -0.231110435811E+04    0.71609E-05   -0.15028E-05  2922   0.408E-03
  46 F= -.23323636E+04 E0= -.23323636E+04  d E =-.306428E-02  mag=     3.0000
       N       E                     dE             d eps       ncg     rms          rms(c)
DAV:   1    -0.231108771043E+04    0.16655E-01   -0.10661E+00  4496   0.103E+00    0.321E-01
RMM:   2    -0.231110771818E+04   -0.20008E-01   -0.19891E-01  6516   0.243E-01    0.358E-01
RMM:   3    -0.231110795632E+04   -0.23814E-03   -0.19785E-02  6183   0.898E-02    0.211E-01
RMM:   4    -0.231110757374E+04    0.38258E-03   -0.20989E-03  4821   0.201E-02    0.130E-01
RMM:   5    -0.231110748721E+04    0.86532E-04   -0.27321E-04  3054   0.924E-03    0.101E-01
RMM:   6    -0.231110734832E+04    0.13889E-03   -0.25005E-04  4107   0.106E-02    0.358E-02
RMM:   7    -0.231110734953E+04   -0.12122E-05   -0.10559E-04  3110   0.820E-03    0.288E-02
RMM:   8    -0.231110734060E+04    0.89297E-05   -0.21390E-05  2898   0.462E-03
  47 F= -.23323663E+04 E0= -.23323663E+04  d E =-.272487E-02  mag=     3.0000
       N       E                     dE             d eps       ncg     rms          rms(c)
DAV:   1    -0.231106232930E+04    0.45020E-01   -0.25438E+00  4492   0.158E+00    0.496E-01
RMM:   2    -0.231111003213E+04   -0.47703E-01   -0.47579E-01  6516   0.377E-01    0.545E-01
RMM:   3    -0.231111069002E+04   -0.65789E-03   -0.47444E-02  6281   0.136E-01    0.323E-01
RMM:   4    -0.231110975838E+04    0.93164E-03   -0.49488E-03  5561   0.307E-02    0.194E-01
RMM:   5    -0.231110958794E+04    0.17044E-03   -0.64525E-04  3632   0.133E-02    0.159E-01
RMM:   6    -0.231110924304E+04    0.34490E-03   -0.59963E-04  4716   0.155E-02    0.526E-02
RMM:   7    -0.231110923784E+04    0.52002E-05   -0.22381E-04  3885   0.115E-02    0.362E-02
RMM:   8    -0.231110922655E+04    0.11287E-04   -0.39557E-05  2911   0.514E-03    0.204E-02
RMM:   9    -0.231110921979E+04    0.67639E-05   -0.10395E-05  2888   0.362E-03
  48 F= -.23323678E+04 E0= -.23323678E+04  d E =-.421926E-02  mag=     3.0000
       N       E                     dE             d eps       ncg     rms          rms(c)
DAV:   1    -0.231108948352E+04    0.19743E-01   -0.12018E+00  4512   0.108E+00    0.358E-01
RMM:   2    -0.231111340063E+04   -0.23917E-01   -0.24048E-01  6513   0.264E-01    0.357E-01
RMM:   3    -0.231111399555E+04   -0.59493E-03   -0.24208E-02  6174   0.975E-02    0.220E-01
RMM:   4    -0.231111334415E+04    0.65140E-03   -0.23824E-03  5099   0.221E-02    0.990E-02
RMM:   5    -0.231111337300E+04   -0.28844E-04   -0.38021E-04  3819   0.115E-02    0.142E-01
RMM:   6    -0.231111318512E+04    0.18787E-03   -0.25570E-04  3792   0.100E-02    0.480E-02
RMM:   7    -0.231111316520E+04    0.19924E-04   -0.81049E-05  3063   0.743E-03    0.141E-02
RMM:   8    -0.231111316503E+04    0.16716E-06   -0.12730E-05  2896   0.490E-03
  49 F= -.23323717E+04 E0= -.23323717E+04  d E =-.383323E-02  mag=     3.0000
       N       E                     dE             d eps       ncg     rms          rms(c)
DAV:   1    -0.231108489580E+04    0.28269E-01   -0.15096E+00  4492   0.121E+00    0.403E-01
RMM:   2    -0.231111498911E+04   -0.30093E-01   -0.30271E-01  6505   0.296E-01    0.402E-01
RMM:   3    -0.231111574522E+04   -0.75611E-03   -0.30411E-02  6213   0.107E-01    0.252E-01
RMM:   4    -0.231111489562E+04    0.84960E-03   -0.30037E-03  5275   0.247E-02    0.115E-01
RMM:   5    -0.231111496015E+04   -0.64532E-04   -0.47489E-04  3847   0.123E-02    0.168E-01
RMM:   6    -0.231111468150E+04    0.27866E-03   -0.35258E-04  4285   0.114E-02    0.465E-02
RMM:   7    -0.231111466315E+04    0.18349E-04   -0.10247E-04  3159   0.811E-03    0.150E-02
RMM:   8    -0.231111466221E+04    0.93486E-06   -0.13447E-05  2901   0.497E-03
  50 F= -.23323731E+04 E0= -.23323731E+04  d E =-.521694E-02  mag=     3.0000
       N       E                     dE             d eps       ncg     rms          rms(c)
DAV:   1    -0.231108590667E+04    0.28756E-01   -0.15888E+00  4492   0.122E+00    0.424E-01
RMM:   2    -0.231111820598E+04   -0.32299E-01   -0.32728E-01  6505   0.304E-01    0.391E-01
RMM:   3    -0.231111957568E+04   -0.13697E-02   -0.32113E-02  6181   0.109E-01    0.291E-01
RMM:   4    -0.231111853513E+04    0.10406E-02   -0.33840E-03  5333   0.262E-02    0.155E-01
RMM:   5    -0.231111845172E+04    0.83406E-04   -0.53707E-04  3438   0.120E-02    0.148E-01
RMM:   6    -0.231111820591E+04    0.24581E-03   -0.36841E-04  4323   0.124E-02    0.416E-02
RMM:   7    -0.231111819320E+04    0.12711E-04   -0.13623E-04  3582   0.928E-03    0.166E-02
RMM:   8    -0.231111819291E+04    0.28577E-06   -0.20075E-05  2915   0.487E-03
  51 F= -.23323765E+04 E0= -.23323765E+04  d E =-.341867E-02  mag=     3.0000
       N       E                     dE             d eps       ncg     rms          rms(c)
DAV:   1    -0.231109525018E+04    0.22943E-01   -0.11577E+00  4496   0.104E+00    0.362E-01
RMM:   2    -0.231111893102E+04   -0.23681E-01   -0.24003E-01  6493   0.260E-01    0.339E-01
RMM:   3    -0.231111982107E+04   -0.89006E-03   -0.22682E-02  6134   0.914E-02    0.253E-01
RMM:   4    -0.231111905549E+04    0.76558E-03   -0.24609E-03  5044   0.225E-02    0.137E-01
RMM:   5    -0.231111897493E+04    0.80558E-04   -0.39680E-04  3200   0.104E-02    0.125E-01
RMM:   6    -0.231111879800E+04    0.17694E-03   -0.27632E-04  4158   0.110E-02    0.349E-02
RMM:   7    -0.231111878778E+04    0.10216E-04   -0.98382E-05  3286   0.812E-03    0.134E-02
RMM:   8    -0.231111878721E+04    0.56812E-06   -0.14390E-05  2921   0.470E-03
  52 F= -.23323770E+04 E0= -.23323770E+04  d E =-.392878E-02  mag=     3.0000
       N       E                     dE             d eps       ncg     rms          rms(c)
DAV:   1    -0.231110290395E+04    0.15884E-01   -0.88143E-01  4540   0.881E-01    0.313E-01
RMM:   2    -0.231112147803E+04   -0.18574E-01   -0.18870E-01  6510   0.225E-01    0.283E-01
RMM:   3    -0.231112235710E+04   -0.87906E-03   -0.17614E-02  6056   0.778E-02    0.216E-01
RMM:   4    -0.231112180622E+04    0.55087E-03   -0.19194E-03  4132   0.191E-02    0.112E-01
RMM:   5    -0.231112175886E+04    0.47358E-04   -0.26073E-04  3038   0.854E-03    0.103E-01
RMM:   6    -0.231112164813E+04    0.11074E-03   -0.15361E-04  3268   0.845E-03    0.334E-02
RMM:   7    -0.231112164172E+04    0.64061E-05   -0.80462E-05  3200   0.696E-03
  53 F= -.23323797E+04 E0= -.23323797E+04  d E =-.274185E-02  mag=     3.0000
       N       E                     dE             d eps       ncg     rms          rms(c)
DAV:   1    -0.231095634891E+04    0.16530E+00   -0.79188E+00  4488   0.265E+00    0.936E-01
RMM:   2    -0.231112356107E+04   -0.16721E+00   -0.17030E+00  6582   0.679E-01    0.828E-01
RMM:   3    -0.231113297566E+04   -0.94146E-02   -0.16478E-01  6360   0.239E-01    0.680E-01
RMM:   4    -0.231112765166E+04    0.53240E-02   -0.17763E-02  6163   0.576E-02    0.371E-01
RMM:   5    -0.231112689156E+04    0.76010E-03   -0.25141E-03  5325   0.214E-02    0.287E-01
RMM:   6    -0.231112600713E+04    0.88444E-03   -0.13391E-03  5035   0.210E-02    0.107E-01
RMM:   7    -0.231112598431E+04    0.22819E-04   -0.80524E-04  5061   0.180E-02    0.719E-02
RMM:   8    -0.231112592781E+04    0.56494E-04   -0.18531E-04  3132   0.855E-03    0.443E-02
RMM:   9    -0.231112589930E+04    0.28513E-04   -0.33906E-05  2906   0.522E-03    0.181E-02
RMM:  10    -0.231112589677E+04    0.25295E-05   -0.29545E-05  2905   0.368E-03
  54 F= -.23323837E+04 E0= -.23323837E+04  d E =-.670436E-02  mag=     3.0000
       N       E                     dE             d eps       ncg     rms          rms(c)
DAV:   1    -0.231109185982E+04    0.34039E-01   -0.17506E+00  4492   0.122E+00    0.459E-01
RMM:   2    -0.231113049649E+04   -0.38637E-01   -0.39699E-01  6523   0.325E-01    0.373E-01
RMM:   3    -0.231113293344E+04   -0.24369E-02   -0.38742E-02  6260   0.114E-01    0.301E-01
RMM:   4    -0.231113175300E+04    0.11804E-02   -0.39710E-03  5402   0.276E-02    0.139E-01
RMM:   5    -0.231113172945E+04    0.23554E-04   -0.52310E-04  3387   0.114E-02    0.152E-01
RMM:   6    -0.231113151284E+04    0.21661E-03   -0.29354E-04  3730   0.106E-02    0.597E-02
RMM:   7    -0.231113148511E+04    0.27730E-04   -0.16385E-04  3977   0.927E-03    0.189E-02
RMM:   8    -0.231113148507E+04    0.32320E-07   -0.25328E-05  2930   0.563E-03
  55 F= -.23323892E+04 E0= -.23323892E+04  d E =-.546669E-02  mag=     3.0000
       N       E                     dE             d eps       ncg     rms          rms(c)
DAV:   1    -0.231108306001E+04    0.48425E-01   -0.22548E+00  4488   0.139E+00    0.522E-01
RMM:   2    -0.231113291927E+04   -0.49859E-01   -0.51331E-01  6516   0.371E-01    0.419E-01
RMM:   3    -0.231113616855E+04   -0.32493E-02   -0.50169E-02  6284   0.129E-01    0.348E-01
RMM:   4    -0.231113466559E+04    0.15030E-02   -0.51795E-03  5604   0.316E-02    0.182E-01
RMM:   5    -0.231113454604E+04    0.11955E-03   -0.72404E-04  3596   0.126E-02    0.165E-01
RMM:   6    -0.231113426836E+04    0.27767E-03   -0.37750E-04  4142   0.121E-02    0.609E-02
RMM:   7    -0.231113424029E+04    0.28075E-04   -0.22348E-04  4139   0.104E-02    0.202E-02
RMM:   8    -0.231113423992E+04    0.36453E-06   -0.29174E-05  2940   0.580E-03
  56 F= -.23323918E+04 E0= -.23323918E+04  d E =-.810375E-02  mag=     3.0000
       N       E                     dE             d eps       ncg     rms          rms(c)
DAV:   1    -0.231113186002E+04    0.23803E-02   -0.10821E-01  4784   0.305E-01    0.116E-01
RMM:   2    -0.231113426504E+04   -0.24050E-02   -0.24836E-02  6466   0.818E-02    0.939E-02
RMM:   3    -0.231113442434E+04   -0.15929E-03   -0.24394E-03  3841   0.286E-02    0.804E-02
RMM:   4    -0.231113435160E+04    0.72731E-04   -0.25619E-04  3044   0.874E-03    0.453E-02
RMM:   5    -0.231113434105E+04    0.10558E-04   -0.42264E-05  2920   0.390E-03    0.357E-02
RMM:   6    -0.231113432803E+04    0.13015E-04   -0.18998E-05  2889   0.327E-03    0.129E-02
RMM:   7    -0.231113432738E+04    0.64685E-06   -0.13140E-05  2921   0.304E-03
  57 F= -.23323919E+04 E0= -.23323919E+04  d E =-.816825E-02  mag=     3.0000
       N       E                     dE             d eps       ncg     rms          rms(c)
DAV:   1    -0.231109850895E+04    0.35819E-01   -0.16004E+00  4488   0.114E+00    0.448E-01
RMM:   2    -0.231113696532E+04   -0.38456E-01   -0.39655E-01  6527   0.314E-01    0.375E-01
RMM:   3    -0.231113932836E+04   -0.23630E-02   -0.40667E-02  6255   0.114E-01    0.279E-01
RMM:   4    -0.231113835121E+04    0.97715E-03   -0.38805E-03  5373   0.267E-02    0.120E-01
RMM:   5    -0.231113825335E+04    0.97857E-04   -0.43526E-04  3658   0.114E-02    0.112E-01
RMM:   6    -0.231113820373E+04    0.49619E-04   -0.26184E-04  3214   0.944E-03    0.939E-02
RMM:   7    -0.231113812833E+04    0.75400E-04   -0.15604E-04  3920   0.903E-03    0.302E-02
RMM:   8    -0.231113811912E+04    0.92106E-05   -0.35084E-05  2910   0.566E-03
  58 F= -.23323958E+04 E0= -.23323958E+04  d E =-.389981E-02  mag=     3.0000
       N       E                     dE             d eps       ncg     rms          rms(c)
DAV:   1    -0.231110962078E+04    0.28508E-01   -0.11860E+00  4488   0.985E-01    0.385E-01
RMM:   2    -0.231113806522E+04   -0.28444E-01   -0.29389E-01  6514   0.270E-01    0.318E-01
RMM:   3    -0.231113985438E+04   -0.17892E-02   -0.30082E-02  6207   0.971E-02    0.239E-01
RMM:   4    -0.231113914168E+04    0.71271E-03   -0.28828E-03  4986   0.230E-02    0.106E-01
RMM:   5    -0.231113911328E+04    0.28401E-04   -0.33966E-04  3215   0.992E-03    0.118E-01
RMM:   6    -0.231113900021E+04    0.11307E-03   -0.19952E-04  3119   0.867E-03    0.636E-02
RMM:   7    -0.231113896152E+04    0.38688E-04   -0.11753E-04  3805   0.813E-03    0.154E-02
RMM:   8    -0.231113896146E+04    0.60929E-07   -0.17628E-05  2929   0.520E-03
  59 F= -.23323967E+04 E0= -.23323967E+04  d E =-.485294E-02  mag=     3.0000
       N       E                     dE             d eps       ncg     rms          rms(c)
DAV:   1    -0.231111260622E+04    0.26355E-01   -0.11424E+00  4488   0.972E-01    0.381E-01
RMM:   2    -0.231114081092E+04   -0.28205E-01   -0.28990E-01  6496   0.267E-01    0.324E-01
RMM:   3    -0.231114257588E+04   -0.17650E-02   -0.30944E-02  6200   0.986E-02    0.233E-01
RMM:   4    -0.231114192331E+04    0.65257E-03   -0.28634E-03  5150   0.231E-02    0.113E-01
RMM:   5    -0.231114191675E+04    0.65652E-05   -0.37430E-04  3146   0.101E-02    0.133E-01
RMM:   6    -0.231114175081E+04    0.16594E-03   -0.22675E-04  3467   0.919E-03    0.537E-02
RMM:   7    -0.231114174928E+04    0.15270E-05   -0.12823E-04  3552   0.813E-03    0.449E-02
RMM:   8    -0.231114171967E+04    0.29606E-04   -0.41850E-05  2905   0.584E-03    0.130E-02
RMM:   9    -0.231114171742E+04    0.22489E-05   -0.70386E-06  2881   0.305E-03
  60 F= -.23323999E+04 E0= -.23323999E+04  d E =-.317446E-02  mag=     3.0000
       N       E                     dE             d eps       ncg     rms          rms(c)
DAV:   1    -0.231112601364E+04    0.15706E-01   -0.62869E-01  4524   0.722E-01    0.282E-01
RMM:   2    -0.231114150183E+04   -0.15488E-01   -0.15937E-01  6495   0.198E-01    0.237E-01
RMM:   3    -0.231114250024E+04   -0.99841E-03   -0.17017E-02  6075   0.735E-02    0.173E-01
RMM:   4    -0.231114214704E+04    0.35321E-03   -0.15629E-03  4045   0.172E-02    0.749E-02
RMM:   5    -0.231114209589E+04    0.51147E-04   -0.19112E-04  3039   0.861E-03    0.635E-02
RMM:   6    -0.231114208819E+04    0.76997E-05   -0.11459E-04  2997   0.718E-03    0.635E-02
RMM:   7    -0.231114206543E+04    0.22763E-04   -0.67567E-05  2985   0.684E-03    0.366E-02
RMM:   8    -0.231114204788E+04    0.17547E-04   -0.23387E-05  2885   0.516E-03    0.982E-03
RMM:   9    -0.231114204651E+04    0.13700E-05   -0.48104E-06  2856   0.255E-03
  61 F= -.23324005E+04 E0= -.23324005E+04  d E =-.382607E-02  mag=     3.0000
       N       E                     dE             d eps       ncg     rms          rms(c)
DAV:   1    -0.231111045482E+04    0.31593E-01   -0.12696E+00  4488   0.102E+00    0.390E-01
RMM:   2    -0.231114236708E+04   -0.31912E-01   -0.33242E-01  6522   0.278E-01    0.283E-01
RMM:   3    -0.231114522778E+04   -0.28607E-02   -0.36988E-02  6181   0.107E-01    0.243E-01
RMM:   4    -0.231114463396E+04    0.59381E-03   -0.33622E-03  5088   0.245E-02    0.149E-01
RMM:   5    -0.231114452497E+04    0.10899E-03   -0.46450E-04  3100   0.993E-03    0.127E-01
RMM:   6    -0.231114435722E+04    0.16775E-03   -0.24351E-04  3420   0.932E-03    0.544E-02
RMM:   7    -0.231114435284E+04    0.43842E-05   -0.16926E-04  3750   0.856E-03    0.493E-02
RMM:   8    -0.231114431832E+04    0.34521E-04   -0.54366E-05  2914   0.605E-03    0.152E-02
RMM:   9    -0.231114431532E+04    0.29988E-05   -0.85662E-06  2889   0.331E-03
  62 F= -.23324035E+04 E0= -.23324035E+04  d E =-.296326E-02  mag=     3.0000
       N       E                     dE             d eps       ncg     rms          rms(c)
DAV:   1    -0.231113246500E+04    0.11853E-01   -0.44520E-01  4544   0.602E-01    0.231E-01
RMM:   2    -0.231114363021E+04   -0.11165E-01   -0.11641E-01  6493   0.165E-01    0.167E-01
RMM:   3    -0.231114462474E+04   -0.99452E-03   -0.12864E-02  5783   0.633E-02    0.142E-01
RMM:   4    -0.231114442565E+04    0.19909E-03   -0.11701E-03  3446   0.148E-02    0.847E-02
RMM:   5    -0.231114439568E+04    0.29969E-04   -0.16175E-04  2969   0.714E-03    0.779E-02
RMM:   6    -0.231114433360E+04    0.62086E-04   -0.86781E-05  2953   0.589E-03    0.321E-02
RMM:   7    -0.231114433186E+04    0.17337E-05   -0.57101E-05  3018   0.575E-03
  63 F= -.23324039E+04 E0= -.23324039E+04  d E =-.340097E-02  mag=     3.0000
       N       E                     dE             d eps       ncg     rms          rms(c)
DAV:   1    -0.231110487270E+04    0.39461E-01   -0.16293E+00  4488   0.116E+00    0.420E-01
RMM:   2    -0.231114345251E+04   -0.38580E-01   -0.40824E-01  6535   0.302E-01    0.238E-01
RMM:   3    -0.231114764393E+04   -0.41914E-02   -0.45292E-02  6132   0.118E-01    0.274E-01
RMM:   4    -0.231114714648E+04    0.49745E-03   -0.41841E-03  4771   0.259E-02    0.181E-01
RMM:   5    -0.231114693333E+04    0.21315E-03   -0.51937E-04  3187   0.109E-02    0.120E-01
RMM:   6    -0.231114677557E+04    0.15776E-03   -0.27139E-04  3293   0.991E-03    0.628E-02
RMM:   7    -0.231114674043E+04    0.35133E-04   -0.19443E-04  4072   0.892E-03    0.366E-02
RMM:   8    -0.231114672953E+04    0.10903E-04   -0.51342E-05  2911   0.644E-03    0.251E-02
RMM:   9    -0.231114672135E+04    0.81833E-05   -0.12275E-05  2896   0.338E-03
  64 F= -.23324072E+04 E0= -.23324072E+04  d E =-.327057E-02  mag=     3.0000
       N       E                     dE             d eps       ncg     rms          rms(c)
DAV:   1    -0.231112463168E+04    0.22098E-01   -0.86244E-01  4504   0.840E-01    0.305E-01
RMM:   2    -0.231114502689E+04   -0.20395E-01   -0.21571E-01  6495   0.219E-01    0.173E-01
RMM:   3    -0.231114718004E+04   -0.21532E-02   -0.23669E-02  5977   0.850E-02    0.189E-01
RMM:   4    -0.231114696134E+04    0.21870E-03   -0.22010E-03  3743   0.189E-02    0.132E-01
RMM:   5    -0.231114684537E+04    0.11598E-03   -0.26775E-04  3020   0.867E-03    0.889E-02
RMM:   6    -0.231114675774E+04    0.87628E-04   -0.14346E-04  2990   0.750E-03    0.445E-02
RMM:   7    -0.231114673969E+04    0.18048E-04   -0.10063E-04  3342   0.693E-03    0.267E-02
RMM:   8    -0.231114673339E+04    0.63007E-05   -0.28505E-05  2900   0.557E-03
  65 F= -.23324079E+04 E0= -.23324079E+04  d E =-.393765E-02  mag=     3.0000
       N       E                     dE             d eps       ncg     rms          rms(c)
DAV:   1    -0.231110670202E+04    0.40038E-01   -0.17094E+00  4488   0.118E+00    0.426E-01
RMM:   2    -0.231114550681E+04   -0.38805E-01   -0.41174E-01  6461   0.299E-01    0.218E-01
RMM:   3    -0.231114950086E+04   -0.39940E-02   -0.45050E-02  6051   0.115E-01    0.221E-01
RMM:   4    -0.231114941686E+04    0.84001E-04   -0.41937E-03  4489   0.249E-02    0.176E-01
RMM:   5    -0.231114918268E+04    0.23418E-03   -0.44073E-04  3126   0.106E-02    0.114E-01
RMM:   6    -0.231114905069E+04    0.13199E-03   -0.25542E-04  3321   0.938E-03    0.667E-02
RMM:   7    -0.231114900048E+04    0.50208E-04   -0.17061E-04  3966   0.850E-03    0.263E-02
RMM:   8    -0.231114900141E+04   -0.93059E-06   -0.42099E-05  2919   0.633E-03
  66 F= -.23324109E+04 E0= -.23324109E+04  d E =-.301641E-02  mag=     3.0000
       N       E                     dE             d eps       ncg     rms          rms(c)
DAV:   1    -0.231111594767E+04    0.33053E-01   -0.13243E+00  4520   0.104E+00    0.375E-01
RMM:   2    -0.231114598493E+04   -0.30037E-01   -0.31895E-01  6488   0.263E-01    0.191E-01
RMM:   3    -0.231114903481E+04   -0.30499E-02   -0.34815E-02  5991   0.101E-01    0.185E-01
RMM:   4    -0.231114901884E+04    0.15972E-04   -0.32427E-03  4079   0.218E-02    0.154E-01
RMM:   5    -0.231114883879E+04    0.18004E-03   -0.33375E-04  3060   0.965E-03    0.103E-01
RMM:   6    -0.231114873178E+04    0.10701E-03   -0.19985E-04  3176   0.841E-03    0.585E-02
RMM:   7    -0.231114869011E+04    0.41672E-04   -0.13247E-04  3744   0.774E-03    0.200E-02
RMM:   8    -0.231114868992E+04    0.18312E-06   -0.27737E-05  2919   0.576E-03
  67 F= -.23324113E+04 E0= -.23324113E+04  d E =-.338057E-02  mag=     3.0000
       N       E                     dE             d eps       ncg     rms          rms(c)
DAV:   1    -0.231110924744E+04    0.39443E-01   -0.15742E+00  4488   0.110E+00    0.404E-01
RMM:   2    -0.231114677230E+04   -0.37525E-01   -0.39812E-01  6549   0.283E-01    0.215E-01
RMM:   3    -0.231115059114E+04   -0.38188E-02   -0.44623E-02  6028   0.110E-01    0.178E-01
RMM:   4    -0.231115059697E+04   -0.58321E-05   -0.39823E-03  3858   0.229E-02    0.126E-01
RMM:   5    -0.231115047965E+04    0.11732E-03   -0.30186E-04  3086   0.983E-03    0.111E-01
RMM:   6    -0.231115039381E+04    0.85845E-04   -0.19317E-04  2998   0.785E-03    0.794E-02
RMM:   7    -0.231115032665E+04    0.67157E-04   -0.14011E-04  3560   0.766E-03    0.234E-02
RMM:   8    -0.231115032629E+04    0.36143E-06   -0.31633E-05  2930   0.572E-03
  68 F= -.23324134E+04 E0= -.23324134E+04  d E =-.215416E-02  mag=     3.0000
       N       E                     dE             d eps       ncg     rms          rms(c)
DAV:   1    -0.231110238424E+04    0.47942E-01   -0.18411E+00  4488   0.119E+00    0.437E-01
RMM:   2    -0.231114631003E+04   -0.43926E-01   -0.46621E-01  6550   0.307E-01    0.232E-01
RMM:   3    -0.231115081104E+04   -0.45010E-02   -0.52537E-02  6039   0.119E-01    0.194E-01
RMM:   4    -0.231115082175E+04   -0.10702E-04   -0.46703E-03  4062   0.248E-02    0.140E-01
RMM:   5    -0.231115068165E+04    0.14010E-03   -0.35225E-04  3128   0.102E-02    0.124E-01
RMM:   6    -0.231115056692E+04    0.11473E-03   -0.22989E-04  3029   0.841E-03    0.832E-02
RMM:   7    -0.231115049012E+04    0.76794E-04   -0.16582E-04  3789   0.821E-03    0.246E-02
RMM:   8    -0.231115048641E+04    0.37062E-05   -0.33113E-05  2937   0.591E-03
  69 F= -.23324141E+04 E0= -.23324141E+04  d E =-.289661E-02  mag=     3.0000
       N       E                     dE             d eps       ncg     rms          rms(c)
DAV:   1    -0.231112821092E+04    0.22279E-01   -0.97788E-01  4528   0.916E-01    0.338E-01
RMM:   2    -0.231115070970E+04   -0.22499E-01   -0.23937E-01  6413   0.235E-01    0.194E-01
RMM:   3    -0.231115309545E+04   -0.23858E-02   -0.27515E-02  5921   0.937E-02    0.213E-01
RMM:   4    -0.231115290980E+04    0.18565E-03   -0.24462E-03  3767   0.192E-02    0.128E-01
RMM:   5    -0.231115282627E+04    0.83534E-04   -0.27937E-04  3093   0.985E-03    0.955E-02
RMM:   6    -0.231115270438E+04    0.12189E-03   -0.17897E-04  3380   0.876E-03    0.470E-02
RMM:   7    -0.231115267542E+04    0.28968E-04   -0.10250E-04  3678   0.761E-03    0.164E-02
RMM:   8    -0.231115267356E+04    0.18589E-05   -0.17793E-05  2915   0.549E-03
  70 F= -.23324167E+04 E0= -.23324167E+04  d E =-.250491E-02  mag=     3.0000
       N       E                     dE             d eps       ncg     rms          rms(c)
DAV:   1    -0.231114437914E+04    0.82963E-02   -0.33506E-01  4608   0.537E-01    0.199E-01
RMM:   2    -0.231115213212E+04   -0.77530E-02   -0.82177E-02  6405   0.138E-01    0.128E-01
RMM:   3    -0.231115295907E+04   -0.82695E-03   -0.93594E-03  5369   0.553E-02    0.147E-01
RMM:   4    -0.231115283709E+04    0.12198E-03   -0.85324E-04  3111   0.121E-02    0.749E-02
RMM:   5    -0.231115281238E+04    0.24709E-04   -0.10927E-04  2959   0.639E-03    0.581E-02
RMM:   6    -0.231115276496E+04    0.47419E-04   -0.63580E-05  2956   0.554E-03    0.280E-02
RMM:   7    -0.231115275995E+04    0.50078E-05   -0.40632E-05  2970   0.529E-03
  71 F= -.23324169E+04 E0= -.23324169E+04  d E =-.278190E-02  mag=     3.0000
       N       E                     dE             d eps       ncg     rms          rms(c)
DAV:   1    -0.231112769452E+04    0.25070E-01   -0.10192E+00  4488   0.892E-01    0.328E-01
RMM:   2    -0.231115250720E+04   -0.24813E-01   -0.26220E-01  6558   0.233E-01    0.220E-01
RMM:   3    -0.231115558993E+04   -0.30827E-02   -0.30135E-02  5941   0.936E-02    0.314E-01
RMM:   4    -0.231115488768E+04    0.70225E-03   -0.27308E-03  3748   0.204E-02    0.115E-01
RMM:   5    -0.231115476909E+04    0.11860E-03   -0.27312E-04  3026   0.929E-03    0.782E-02
RMM:   6    -0.231115469793E+04    0.71154E-04   -0.16648E-04  3105   0.786E-03    0.544E-02
RMM:   7    -0.231115465922E+04    0.38716E-04   -0.11376E-04  3361   0.749E-03    0.177E-02
RMM:   8    -0.231115465835E+04    0.86633E-06   -0.18939E-05  2937   0.527E-03
  72 F= -.23324192E+04 E0= -.23324192E+04  d E =-.225938E-02  mag=     3.0000
       N       E                     dE             d eps       ncg     rms          rms(c)
DAV:   1    -0.231112236627E+04    0.32293E-01   -0.12357E+00  4488   0.982E-01    0.362E-01
RMM:   2    -0.231115252149E+04   -0.30155E-01   -0.31818E-01  6540   0.256E-01    0.256E-01
RMM:   3    -0.231115634428E+04   -0.38228E-02   -0.36802E-02  5993   0.101E-01    0.365E-01
RMM:   4    -0.231115533805E+04    0.10062E-02   -0.33377E-03  4060   0.226E-02    0.130E-01
RMM:   5    -0.231115520378E+04    0.13427E-03   -0.35029E-04  3055   0.977E-03    0.914E-02
RMM:   6    -0.231115509175E+04    0.11203E-03   -0.19681E-04  3192   0.840E-03    0.566E-02
RMM:   7    -0.231115505291E+04    0.38836E-04   -0.14273E-04  3698   0.801E-03    0.251E-02
RMM:   8    -0.231115505328E+04   -0.36704E-06   -0.36571E-05  2917   0.582E-03
  73 F= -.23324200E+04 E0= -.23324200E+04  d E =-.306154E-02  mag=     3.0000
       N       E                     dE             d eps       ncg     rms          rms(c)
DAV:   1    -0.231113355145E+04    0.21501E-01   -0.94594E-01  4504   0.877E-01    0.317E-01
RMM:   2    -0.231115558283E+04   -0.22031E-01   -0.23152E-01  6465   0.222E-01    0.232E-01
RMM:   3    -0.231115847637E+04   -0.28935E-02   -0.25689E-02  6001   0.869E-02    0.348E-01
RMM:   4    -0.231115741321E+04    0.10632E-02   -0.24754E-03  4043   0.204E-02    0.104E-01
RMM:   5    -0.231115731818E+04    0.95028E-04   -0.27267E-04  3030   0.916E-03    0.771E-02
RMM:   6    -0.231115725478E+04    0.63398E-04   -0.16038E-04  3092   0.808E-03    0.537E-02
RMM:   7    -0.231115721905E+04    0.35735E-04   -0.11431E-04  3596   0.787E-03    0.197E-02
RMM:   8    -0.231115721870E+04    0.34465E-06   -0.25762E-05  2919   0.540E-03
  74 F= -.23324224E+04 E0= -.23324224E+04  d E =-.245366E-02  mag=     3.0000
       N       E                     dE             d eps       ncg     rms          rms(c)
DAV:   1    -0.231112342200E+04    0.33797E-01   -0.13739E+00  4488   0.106E+00    0.383E-01
RMM:   2    -0.231115545891E+04   -0.32037E-01   -0.33629E-01  6442   0.267E-01    0.283E-01
RMM:   3    -0.231115971925E+04   -0.42603E-02   -0.37552E-02  6066   0.105E-01    0.426E-01
RMM:   4    -0.231115810878E+04    0.16105E-02   -0.36084E-03  4735   0.246E-02    0.126E-01
RMM:   5    -0.231115797303E+04    0.13575E-03   -0.40298E-04  3212   0.103E-02    0.939E-02
RMM:   6    -0.231115787657E+04    0.96457E-04   -0.23076E-04  3313   0.922E-03    0.651E-02
RMM:   7    -0.231115782258E+04    0.53989E-04   -0.16905E-04  4013   0.888E-03    0.240E-02
RMM:   8    -0.231115782142E+04    0.11611E-05   -0.36079E-05  2924   0.585E-03
  75 F= -.23324234E+04 E0= -.23324234E+04  d E =-.341012E-02  mag=     3.0000
       N       E                     dE             d eps       ncg     rms          rms(c)
DAV:   1    -0.231112577649E+04    0.32046E-01   -0.13796E+00  4488   0.104E+00    0.375E-01
RMM:   2    -0.231115769695E+04   -0.31920E-01   -0.33491E-01  6481   0.266E-01    0.289E-01
RMM:   3    -0.231116168707E+04   -0.39901E-02   -0.36156E-02  6080   0.101E-01    0.412E-01
RMM:   4    -0.231116017089E+04    0.15162E-02   -0.35587E-03  4673   0.240E-02    0.127E-01
RMM:   5    -0.231116002649E+04    0.14440E-03   -0.39199E-04  3194   0.103E-02    0.943E-02
RMM:   6    -0.231115992999E+04    0.96496E-04   -0.23592E-04  3394   0.935E-03    0.659E-02
RMM:   7    -0.231115987747E+04    0.52525E-04   -0.17793E-04  3973   0.894E-03    0.244E-02
RMM:   8    -0.231115987553E+04    0.19367E-05   -0.34832E-05  2924   0.588E-03
  76 F= -.23324258E+04 E0= -.23324258E+04  d E =-.240227E-02  mag=     3.0000
       N       E                     dE             d eps       ncg     rms          rms(c)
DAV:   1    -0.231114671044E+04    0.13167E-01   -0.53868E-01  4520   0.653E-01    0.235E-01
RMM:   2    -0.231115923463E+04   -0.12524E-01   -0.13107E-01  6488   0.166E-01    0.193E-01
RMM:   3    -0.231116076521E+04   -0.15306E-02   -0.13972E-02  5697   0.619E-02    0.264E-01
RMM:   4    -0.231116013065E+04    0.63457E-03   -0.13932E-03  3430   0.154E-02    0.794E-02
RMM:   5    -0.231116008061E+04    0.50036E-04   -0.16366E-04  2973   0.749E-03    0.623E-02
RMM:   6    -0.231116003325E+04    0.47366E-04   -0.95144E-05  2974   0.643E-03    0.387E-02
RMM:   7    -0.231116001564E+04    0.17603E-04   -0.69741E-05  3105   0.641E-03    0.158E-02
RMM:   8    -0.231116001443E+04    0.12116E-05   -0.16201E-05  2906   0.487E-03
  77 F= -.23324262E+04 E0= -.23324262E+04  d E =-.276064E-02  mag=     3.0000
       N       E                     dE             d eps       ncg     rms          rms(c)
DAV:   1    -0.231113204914E+04    0.27967E-01   -0.12208E+00  4488   0.101E+00    0.359E-01
RMM:   2    -0.231115990849E+04   -0.27859E-01   -0.29302E-01  6468   0.255E-01    0.283E-01
RMM:   3    -0.231116319770E+04   -0.32892E-02   -0.32240E-02  6024   0.970E-02    0.369E-01
RMM:   4    -0.231116210964E+04    0.10881E-02   -0.31200E-03  4596   0.228E-02    0.136E-01
RMM:   5    -0.231116195679E+04    0.15285E-03   -0.37320E-04  3128   0.103E-02    0.934E-02
RMM:   6    -0.231116183882E+04    0.11797E-03   -0.24710E-04  3493   0.955E-03    0.542E-02
RMM:   7    -0.231116179992E+04    0.38893E-04   -0.14899E-04  3858   0.833E-03    0.184E-02
RMM:   8    -0.231116179792E+04    0.19996E-05   -0.19920E-05  2923   0.562E-03
  78 F= -.23324283E+04 E0= -.23324283E+04  d E =-.212155E-02  mag=     3.0000
       N       E                     dE             d eps       ncg     rms          rms(c)
DAV:   1    -0.231115592680E+04    0.58731E-02   -0.24269E-01  4592   0.448E-01    0.162E-01
RMM:   2    -0.231116149047E+04   -0.55637E-02   -0.58514E-02  6480   0.114E-01    0.135E-01
RMM:   3    -0.231116212092E+04   -0.63045E-03   -0.63448E-03  4730   0.423E-02    0.167E-01
RMM:   4    -0.231116190388E+04    0.21703E-03   -0.62761E-04  3131   0.109E-02    0.619E-02
RMM:   5    -0.231116187425E+04    0.29633E-04   -0.81164E-05  2935   0.571E-03    0.433E-02
RMM:   6    -0.231116184816E+04    0.26086E-04   -0.50926E-05  2927   0.472E-03    0.244E-02
RMM:   7    -0.231116184337E+04    0.47921E-05   -0.35314E-05  2956   0.475E-03
  79 F= -.23324285E+04 E0= -.23324285E+04  d E =-.231872E-02  mag=     3.0000
       N       E                     dE             d eps       ncg     rms          rms(c)
DAV:   1    -0.231114239801E+04    0.19450E-01   -0.88699E-01  4488   0.887E-01    0.305E-01
RMM:   2    -0.231116189253E+04   -0.19495E-01   -0.20491E-01  6479   0.221E-01    0.253E-01
RMM:   3    -0.231116395405E+04   -0.20615E-02   -0.22229E-02  5962   0.842E-02    0.295E-01
RMM:   4    -0.231116333178E+04    0.62227E-03   -0.22158E-03  4211   0.197E-02    0.130E-01
RMM:   5    -0.231116319340E+04    0.13838E-03   -0.29561E-04  3082   0.971E-03    0.849E-02
RMM:   6    -0.231116308340E+04    0.10999E-03   -0.21572E-04  3738   0.941E-03    0.450E-02
RMM:   7    -0.231116306539E+04    0.18013E-04   -0.13014E-04  3619   0.814E-03    0.306E-02
RMM:   8    -0.231116305688E+04    0.85117E-05   -0.26826E-05  2911   0.559E-03
  80 F= -.23324299E+04 E0= -.23324299E+04  d E =-.146411E-02  mag=     3.0000
       N       E                     dE             d eps       ncg     rms          rms(c)
DAV:   1    -0.231116225209E+04    0.81329E-03   -0.32777E-02  4896   0.171E-01    0.608E-02
RMM:   2    -0.231116298643E+04   -0.73433E-03   -0.77147E-03  6385   0.432E-02    0.588E-02
RMM:   3    -0.231116305814E+04   -0.71709E-04   -0.82063E-04  3021   0.163E-02    0.627E-02
RMM:   4    -0.231116302812E+04    0.30018E-04   -0.86665E-05  2952   0.518E-03    0.261E-02
RMM:   5    -0.231116302244E+04    0.56754E-05   -0.13571E-05  2816   0.245E-03
  81 F= -.23324300E+04 E0= -.23324300E+04  d E =-.147825E-02  mag=     3.0000
       N       E                     dE             d eps       ncg     rms          rms(c)
DAV:   1    -0.231115419337E+04    0.88347E-02   -0.44932E-01  4504   0.654E-01    0.210E-01
RMM:   2    -0.231116358516E+04   -0.93918E-02   -0.96853E-02  6388   0.153E-01    0.219E-01
RMM:   3    -0.231116438353E+04   -0.79837E-03   -0.98197E-03  5621   0.593E-02    0.223E-01
RMM:   4    -0.231116396264E+04    0.42089E-03   -0.10417E-03  3579   0.148E-02    0.871E-02
[...]
DAV:   1    -0.231116695102E+04    0.64689E-05   -0.52066E-05  4784   0.829E-03    0.123E-02
RMM:   2    -0.231116696719E+04   -0.16169E-04   -0.20467E-05  2613   0.348E-03    0.423E-02
RMM:   3    -0.231116694991E+04    0.17276E-04   -0.75067E-06  2258   0.219E-03    0.547E-03
RMM:   4    -0.231116694987E+04    0.45882E-07   -0.14481E-06  1766   0.111E-03
 148 F= -.23324399E+04 E0= -.23324399E+04  d E =-.322423E-04  mag=     3.0000
       N       E                     dE             d eps       ncg     rms          rms(c)
DAV:   1    -0.231116687983E+04    0.70077E-04   -0.55220E-03  4488   0.811E-02    0.207E-02
RMM:   2    -0.231116691714E+04   -0.37309E-04   -0.38078E-04  5672   0.154E-02    0.176E-02
RMM:   3    -0.231116692195E+04   -0.48049E-05   -0.33369E-05  2897   0.611E-03
 149 F= -.23324399E+04 E0= -.23324399E+04  d E =-.261233E-04  mag=     3.0000
       N       E                     dE             d eps       ncg     rms          rms(c)
DAV:   1    -0.231116690508E+04    0.12065E-04   -0.15842E-04  5232   0.140E-02    0.764E-03
RMM:   2    -0.231116690665E+04   -0.15714E-05   -0.14702E-05  2599   0.317E-03
 150 F= -.23324399E+04 E0= -.23324399E+04  d E =-.194484E-04  mag=     3.0000
       N       E                     dE             d eps       ncg     rms          rms(c)
DAV:   1    -0.231116682845E+04    0.76628E-04   -0.60073E-03  4488   0.845E-02    0.211E-02
RMM:   2    -0.231116686473E+04   -0.36274E-04   -0.39540E-04  5530   0.165E-02    0.110E-02
RMM:   3    -0.231116686703E+04   -0.23084E-05   -0.34316E-05  2898   0.695E-03
 151 F= -.23324400E+04 E0= -.23324400E+04  d E =-.267578E-04  mag=     3.0000
       N       E                     dE             d eps       ncg     rms          rms(c)
DAV:   1    -0.231116683185E+04    0.32872E-04   -0.96546E-04  4640   0.341E-02    0.121E-02
RMM:   2    -0.231116684165E+04   -0.98021E-05   -0.66989E-05  3352   0.700E-03
 152 F= -.23324400E+04 E0= -.23324400E+04  d E =-.280536E-04  mag=     3.0000
       N       E                     dE             d eps       ncg     rms          rms(c)
DAV:   1    -0.231116678217E+04    0.49686E-04   -0.37639E-03  4488   0.669E-02    0.170E-02
RMM:   2    -0.231116680810E+04   -0.25936E-04   -0.27506E-04  4683   0.146E-02    0.139E-02
RMM:   3    -0.231116681291E+04   -0.48095E-05   -0.34266E-05  2907   0.671E-03
 153 F= -.23324400E+04 E0= -.23324400E+04  d E =-.157723E-04  mag=     3.0000
       N       E                     dE             d eps       ncg     rms          rms(c)
DAV:   1    -0.231116677836E+04    0.29739E-04   -0.11515E-03  4640   0.370E-02    0.109E-02
RMM:   2    -0.231116678785E+04   -0.94826E-05   -0.84671E-05  3430   0.788E-03
 154 F= -.23324400E+04 E0= -.23324400E+04  d E =-.154306E-04  mag=     3.0000
       N       E                     dE             d eps       ncg     rms          rms(c)
DAV:   1    -0.231116677594E+04    0.24251E-05   -0.18974E-03  4452   0.483E-02    0.162E-02
RMM:   2    -0.231116680052E+04   -0.24580E-04   -0.15222E-04  4067   0.116E-02    0.362E-02
RMM:   3    -0.231116678920E+04    0.11320E-04   -0.19639E-05  2794   0.565E-03    0.105E-02
RMM:   4    -0.231116678770E+04    0.14971E-05   -0.28038E-06  2509   0.224E-03
 155 F= -.23324400E+04 E0= -.23324400E+04  d E =-.181492E-04  mag=     3.0000
       N       E                     dE             d eps       ncg     rms          rms(c)
DAV:   1    -0.231116677146E+04    0.17736E-04   -0.88325E-04  4568   0.329E-02    0.112E-02
RMM:   2    -0.231116677887E+04   -0.74088E-05   -0.61589E-05  3325   0.706E-03
 156 F= -.23324400E+04 E0= -.23324400E+04  d E =-.220652E-04  mag=     3.0000
       N       E                     dE             d eps       ncg     rms          rms(c)
DAV:   1    -0.231116678032E+04   -0.88574E-05   -0.75842E-05  5232   0.107E-02    0.720E-03
RMM:   2    -0.231116678584E+04   -0.55237E-05   -0.12603E-05  2460   0.278E-03
 157 F= -.23324400E+04 E0= -.23324400E+04  d E =-.256933E-04  mag=     3.0000
       N       E                     dE             d eps       ncg     rms          rms(c)
DAV:   1    -0.231116675794E+04    0.22376E-04   -0.18301E-03  4416   0.477E-02    0.137E-02
RMM:   2    -0.231116677311E+04   -0.15161E-04   -0.14982E-04  3934   0.102E-02    0.149E-02
RMM:   3    -0.231116677394E+04   -0.83659E-06   -0.19974E-05  2509   0.570E-03
 158 F= -.23324400E+04 E0= -.23324400E+04  d E =-.698111E-05  mag=     3.0000
       N       E                     dE             d eps       ncg     rms          rms(c)
DAV:   1    -0.231116676996E+04    0.31477E-05   -0.47899E-05  5096   0.774E-03    0.782E-03
RMM:   2    -0.231116677784E+04   -0.78858E-05   -0.12089E-05  2516   0.255E-03
 159 F= -.23324400E+04 E0= -.23324400E+04  d E =-.136050E-04  mag=     3.0000
       N       E                     dE             d eps       ncg     rms          rms(c)
DAV:   1    -0.231116674653E+04    0.23424E-04   -0.16620E-03  4428   0.455E-02    0.131E-02
RMM:   2    -0.231116676063E+04   -0.14101E-04   -0.14127E-04  3812   0.970E-03    0.134E-02
RMM:   3    -0.231116676133E+04   -0.69868E-06   -0.16876E-05  2443   0.539E-03
 160 F= -.23324400E+04 E0= -.23324400E+04  d E =-.619667E-05  mag=     3.0000
       N       E                     dE             d eps       ncg     rms          rms(c)
DAV:   1    -0.231116674821E+04    0.12423E-04   -0.36161E-04  4392   0.211E-02    0.974E-03
RMM:   2    -0.231116675973E+04   -0.11516E-04   -0.38813E-05  3046   0.495E-03    0.284E-02
RMM:   3    -0.231116675070E+04    0.90229E-05   -0.78475E-06  2437   0.309E-03
 161 F= -.23324400E+04 E0= -.23324400E+04  d E =-.618888E-05  mag=     3.0000
       N       E                     dE             d eps       ncg     rms          rms(c)
DAV:   1    -0.231116671405E+04    0.45673E-04   -0.15818E-03  4444   0.439E-02    0.123E-02
RMM:   2    -0.231116672710E+04   -0.13044E-04   -0.13041E-04  3775   0.888E-03    0.110E-02
RMM:   3    -0.231116672731E+04   -0.20847E-06   -0.16101E-05  2670   0.503E-03
 162 F= -.23324400E+04 E0= -.23324400E+04  d E =-.652576E-05  mag=     3.0000
       N       E                     dE             d eps       ncg     rms          rms(c)
DAV:   1    -0.231116672674E+04    0.35627E-06   -0.34951E-06  3424   0.294E-03    0.370E-03
RMM:   2    -0.231116672735E+04   -0.60542E-06   -0.15164E-06  2161   0.158E-03
 163 F= -.23324400E+04 E0= -.23324400E+04  d E =-.601581E-05  mag=     3.0000
       N       E                     dE             d eps       ncg     rms          rms(c)
DAV:   1    -0.231116670623E+04    0.20516E-04   -0.93257E-04  4368   0.338E-02    0.867E-03
RMM:   2    -0.231116671354E+04   -0.73099E-05   -0.77106E-05  3179   0.702E-03
 164 F= -.23324400E+04 E0= -.23324400E+04  d E =-.887310E-05  mag=     3.0000
       N       E                     dE             d eps       ncg     rms          rms(c)
DAV:   1    -0.231116670306E+04    0.31710E-05   -0.25576E-04  4272   0.182E-02    0.958E-03
RMM:   2    -0.231116671561E+04   -0.12550E-04   -0.36749E-05  2871   0.510E-03    0.326E-02
RMM:   3    -0.231116670519E+04    0.10418E-04   -0.71274E-06  2347   0.318E-03    0.500E-03
RMM:   4    -0.231116670498E+04    0.20767E-06   -0.11389E-06  1849   0.117E-03
 165 F= -.23324400E+04 E0= -.23324400E+04  d E =-.118967E-04  mag=     3.0000
       N       E                     dE             d eps       ncg     rms          rms(c)
DAV:   1    -0.231116667402E+04    0.31168E-04   -0.97827E-04  4392   0.346E-02    0.908E-03
RMM:   2    -0.231116668146E+04   -0.74394E-05   -0.79902E-05  3385   0.705E-03
 166 F= -.23324400E+04 E0= -.23324400E+04  d E =-.115386E-04  mag=     3.0000
       N       E                     dE             d eps       ncg     rms          rms(c)
DAV:   1    -0.231116669204E+04   -0.18021E-04   -0.23635E-04  4176   0.174E-02    0.740E-03
RMM:   2    -0.231116669696E+04   -0.49203E-05   -0.21998E-05  2538   0.406E-03
 167 F= -.23324400E+04 E0= -.23324400E+04  d E =-.159660E-04  mag=     3.0000
       N       E                     dE             d eps       ncg     rms          rms(c)
DAV:   1    -0.231116668879E+04    0.32527E-05   -0.47392E-05  3888   0.780E-03    0.464E-03
RMM:   2    -0.231116669289E+04   -0.41018E-05   -0.61024E-06  2173   0.221E-03
 168 F= -.23324400E+04 E0= -.23324400E+04  d E =-.162940E-04  mag=     3.0000
       N       E                     dE             d eps       ncg     rms          rms(c)
DAV:   1    -0.231116667073E+04    0.18062E-04   -0.10755E-03  4384   0.359E-02    0.896E-03
RMM:   2    -0.231116667991E+04   -0.91858E-05   -0.94388E-05  3388   0.755E-03
 169 F= -.23324400E+04 E0= -.23324400E+04  d E =-.469671E-05  mag=     3.0000
       N       E                     dE             d eps       ncg     rms          rms(c)
DAV:   1    -0.231116667816E+04   -0.74318E-05   -0.37472E-05  4104   0.775E-03    0.860E-03
RMM:   2    -0.231116669073E+04   -0.12577E-04   -0.19488E-05  2487   0.387E-03    0.343E-02
RMM:   3    -0.231116667815E+04    0.12588E-04   -0.52570E-06  2193   0.225E-03    0.469E-03
RMM:   4    -0.231116667781E+04    0.33980E-06   -0.61003E-07  1398   0.932E-04
 170 F= -.23324400E+04 E0= -.23324400E+04  d E =-.526465E-05  mag=     3.0000
       N       E                     dE             d eps       ncg     rms          rms(c)
DAV:   1    -0.231116667196E+04    0.61817E-05   -0.92856E-05  4176   0.106E-02    0.279E-03
RMM:   2    -0.231116667288E+04   -0.91940E-06   -0.85593E-06  2353   0.228E-03
 171 F= -.23324400E+04 E0= -.23324400E+04  d E =-.568882E-05  mag=     3.0000
       N       E                     dE             d eps       ncg     rms          rms(c)
DAV:   1    -0.231116666467E+04    0.72991E-05   -0.70543E-04  4380   0.296E-02    0.948E-03
RMM:   2    -0.231116667267E+04   -0.80051E-05   -0.59892E-05  3125   0.667E-03
 172 F= -.23324401E+04 E0= -.23324401E+04  d E =-.120368E-04  mag=     3.0000
       N       E                     dE             d eps       ncg     rms          rms(c)
DAV:   1    -0.231116666777E+04   -0.31012E-05   -0.74976E-05  5080   0.101E-02    0.838E-03
RMM:   2    -0.231116667687E+04   -0.91034E-05   -0.16907E-05  2463   0.317E-03
 173 F= -.23324401E+04 E0= -.23324401E+04  d E =-.195521E-04  mag=     3.0000
       N       E                     dE             d eps       ncg     rms          rms(c)
DAV:   1    -0.231116665159E+04    0.16178E-04   -0.52401E-04  4516   0.258E-02    0.815E-03
RMM:   2    -0.231116665512E+04   -0.35311E-05   -0.41279E-05  2836   0.584E-03
 174 F= -.23324401E+04 E0= -.23324401E+04  d E =0.352380E-05  mag=     3.0000
       N       E                     dE             d eps       ncg     rms          rms(c)
DAV:   1    -0.231116665279E+04   -0.12020E-05   -0.13860E-05  3256   0.556E-03    0.515E-03
RMM:   2    -0.231116665514E+04   -0.23522E-05   -0.70631E-06  2325   0.339E-03
 175 F= -.23324401E+04 E0= -.23324401E+04  d E =0.800480E-06  mag=     3.0000
       N       E                     dE             d eps       ncg     rms          rms(c)
DAV:   1    -0.231116663040E+04    0.22393E-04   -0.38558E-04  4184   0.220E-02    0.656E-03
RMM:   2    -0.231116663446E+04   -0.40674E-05   -0.38258E-05  2783   0.520E-03
 176 F= -.23324401E+04 E0= -.23324401E+04  d E =-.232315E-06  mag=     3.0000
       N       E                     dE             d eps       ncg     rms          rms(c)
DAV:   1    -0.231116664151E+04   -0.11111E-04   -0.49575E-05  3960   0.818E-03    0.716E-03
RMM:   2    -0.231116664928E+04   -0.77718E-05   -0.12557E-05  2329   0.251E-03
 177 F= -.23324401E+04 E0= -.23324401E+04  d E =-.808966E-05  mag=     3.0000
       N       E                     dE             d eps       ncg     rms          rms(c)
DAV:   1    -0.231116663221E+04    0.92990E-05   -0.27416E-04  4528   0.183E-02    0.507E-03
RMM:   2    -0.231116663534E+04   -0.31305E-05   -0.30263E-05  2541   0.426E-03
 178 F= -.23324401E+04 E0= -.23324401E+04  d E =0.436008E-05  mag=     3.0000
       N       E                     dE             d eps       ncg     rms          rms(c)
DAV:   1    -0.231116663544E+04   -0.32300E-05   -0.70278E-06  2432   0.355E-03    0.528E-03
RMM:   2    -0.231116663940E+04   -0.39575E-05   -0.45894E-06  1995   0.157E-03
 179 F= -.23324401E+04 E0= -.23324401E+04  d E =0.513172E-06  mag=     3.0000
       N       E                     dE             d eps       ncg     rms          rms(c)
DAV:   1    -0.231116663204E+04    0.34034E-05   -0.19379E-04  4496   0.154E-02    0.431E-03
RMM:   2    -0.231116663373E+04   -0.16964E-05   -0.16901E-05  2440   0.347E-03
 180 F= -.23324401E+04 E0= -.23324401E+04  d E =-.602765E-06  mag=     3.0000
       N       E                     dE             d eps       ncg     rms          rms(c)
DAV:   1    -0.231116663165E+04    0.38676E-06   -0.31572E-05  3312   0.654E-03    0.570E-03
RMM:   2    -0.231116663680E+04   -0.51546E-05   -0.89913E-06  2308   0.266E-03
 181 F= -.23324401E+04 E0= -.23324401E+04  d E =-.609395E-05  mag=     3.0000
       N       E                     dE             d eps       ncg     rms          rms(c)
DAV:   1    -0.231116662961E+04    0.20383E-05   -0.12088E-04  4424   0.123E-02    0.338E-03
RMM:   2    -0.231116663074E+04   -0.11333E-05   -0.12424E-05  2386   0.304E-03
 182 F= -.23324401E+04 E0= -.23324401E+04  d E =0.282196E-05  mag=     3.0000
       N       E                     dE             d eps       ncg     rms          rms(c)
DAV:   1    -0.231116663021E+04   -0.60168E-06   -0.56934E-06  2352   0.334E-03    0.431E-03
RMM:   2    -0.231116663315E+04   -0.29394E-05   -0.43699E-06  2250   0.232E-03
 183 F= -.23324401E+04 E0= -.23324401E+04  d E =-.190611E-06  mag=     3.0000
       N       E                     dE             d eps       ncg     rms          rms(c)
DAV:   1    -0.231116662794E+04    0.22744E-05   -0.10126E-04  4344   0.110E-02    0.309E-03
RMM:   2    -0.231116662898E+04   -0.10469E-05   -0.10791E-05  2367   0.261E-03
 184 F= -.23324401E+04 E0= -.23324401E+04  d E =0.123011E-05  mag=     3.0000
       N       E                     dE             d eps       ncg     rms          rms(c)
DAV:   1    -0.231116662785E+04    0.91401E-07   -0.11730E-05  2458   0.427E-03    0.278E-03
RMM:   2    -0.231116662865E+04   -0.80824E-06   -0.33288E-06  2239   0.247E-03
 185 F= -.23324401E+04 E0= -.23324401E+04  d E =0.528419E-06  mag=     3.0000
       N       E                     dE             d eps       ncg     rms          rms(c)
DAV:   1    -0.231116662311E+04    0.47323E-05   -0.79090E-05  4176   0.980E-03    0.292E-03
RMM:   2    -0.231116662440E+04   -0.12861E-05   -0.98243E-06  2361   0.245E-03
 186 F= -.23324401E+04 E0= -.23324401E+04  d E =-.144300E-05  mag=     3.0000
       N       E                     dE             d eps       ncg     rms          rms(c)
DAV:   1    -0.231116662156E+04    0.15552E-05   -0.22871E-05  2784   0.546E-03    0.251E-03
RMM:   2    -0.231116662235E+04   -0.79510E-06   -0.39692E-06  2267   0.235E-03
 187 F= -.23324401E+04 E0= -.23324401E+04  d E =-.241776E-05  mag=     3.0000
       N       E                     dE             d eps       ncg     rms          rms(c)
DAV:   1    -0.231116661717E+04    0.43938E-05   -0.74549E-05  4164   0.951E-03    0.263E-03
RMM:   2    -0.231116661809E+04   -0.92790E-06   -0.92651E-06  2344   0.250E-03
 188 F= -.23324401E+04 E0= -.23324401E+04  d E =-.169021E-05  mag=     3.0000
       N       E                     dE             d eps       ncg     rms          rms(c)
DAV:   1    -0.231116661498E+04    0.21803E-05   -0.18002E-05  2626   0.497E-03    0.336E-03
RMM:   2    -0.231116661679E+04   -0.18037E-05   -0.43492E-06  2273   0.254E-03
 189 F= -.23324401E+04 E0= -.23324401E+04  d E =-.327971E-05  mag=     3.0000
       N       E                     dE             d eps       ncg     rms          rms(c)
DAV:   1    -0.231116660901E+04    0.59767E-05   -0.74622E-05  4308   0.950E-03    0.285E-03
RMM:   2    -0.231116660983E+04   -0.82370E-06   -0.88976E-06  2339   0.244E-03
 190 F= -.23324401E+04 E0= -.23324401E+04  d E =-.210854E-05  mag=     3.0000
       N       E                     dE             d eps       ncg     rms          rms(c)
DAV:   1    -0.231116660484E+04    0.41719E-05   -0.99925E-05  4144   0.109E-02    0.386E-03
RMM:   2    -0.231116660719E+04   -0.23550E-05   -0.13191E-05  2374   0.303E-03
 191 F= -.23324401E+04 E0= -.23324401E+04  d E =-.339329E-05  mag=     3.0000
       N       E                     dE             d eps       ncg     rms          rms(c)
DAV:   1    -0.231116660065E+04    0.41821E-05   -0.80267E-05  4216   0.990E-03    0.308E-03
RMM:   2    -0.231116660210E+04   -0.14491E-05   -0.10887E-05  2356   0.277E-03
 192 F= -.23324401E+04 E0= -.23324401E+04  d E =-.352263E-05  mag=     3.0000
       N       E                     dE             d eps       ncg     rms          rms(c)
DAV:   1    -0.231116659811E+04    0.25401E-05   -0.83201E-05  4184   0.101E-02    0.302E-03
RMM:   2    -0.231116659942E+04   -0.13084E-05   -0.10188E-05  2352   0.284E-03
 193 F= -.23324401E+04 E0= -.23324401E+04  d E =-.290618E-05  mag=     3.0000
       N       E                     dE             d eps       ncg     rms          rms(c)
DAV:   1    -0.231116658897E+04    0.91430E-05   -0.22889E-04  4136   0.166E-02    0.468E-03
RMM:   2    -0.231116659175E+04   -0.27802E-05   -0.25159E-05  2534   0.443E-03
 194 F= -.23324401E+04 E0= -.23324401E+04  d E =-.464407E-05  mag=     3.0000
       N       E                     dE             d eps       ncg     rms          rms(c)
DAV:   1    -0.231116658819E+04    0.78139E-06   -0.87213E-05  4348   0.105E-02    0.494E-03
RMM:   2    -0.231116659153E+04   -0.33376E-05   -0.13361E-05  2388   0.316E-03
 195 F= -.23324401E+04 E0= -.23324401E+04  d E =-.440699E-05  mag=     3.0000
       N       E                     dE             d eps       ncg     rms          rms(c)
DAV:   1    -0.231116658138E+04    0.68118E-05   -0.18855E-04  4264   0.151E-02    0.428E-03
RMM:   2    -0.231116658328E+04   -0.19046E-05   -0.19849E-05  2477   0.403E-03
 196 F= -.23324401E+04 E0= -.23324401E+04  d E =-.304619E-05  mag=     3.0000
       N       E                     dE             d eps       ncg     rms          rms(c)
DAV:   1    -0.231116657734E+04    0.40359E-05   -0.13890E-04  4148   0.130E-02    0.586E-03
RMM:   2    -0.231116658294E+04   -0.56022E-05   -0.20449E-05  2472   0.384E-03
 197 F= -.23324401E+04 E0= -.23324401E+04  d E =-.714672E-05  mag=     3.0000
       N       E                     dE             d eps       ncg     rms          rms(c)
DAV:   1    -0.231116656735E+04    0.99938E-05   -0.27310E-04  4344   0.180E-02    0.451E-03
RMM:   2    -0.231116657014E+04   -0.27956E-05   -0.29104E-05  2611   0.465E-03
 198 F= -.23324401E+04 E0= -.23324401E+04  d E =-.466302E-05  mag=     3.0000
       N       E                     dE             d eps       ncg     rms          rms(c)
DAV:   1    -0.231116656141E+04    0.59368E-05   -0.21284E-04  4148   0.160E-02    0.660E-03
RMM:   2    -0.231116656890E+04   -0.74890E-05   -0.30203E-05  2592   0.459E-03
 199 F= -.23324401E+04 E0= -.23324401E+04  d E =-.922553E-05  mag=     3.0000
       N       E                     dE             d eps       ncg     rms          rms(c)
DAV:   1    -0.231116655051E+04    0.10899E-04   -0.26634E-04  4380   0.178E-02    0.467E-03
RMM:   2    -0.231116655333E+04   -0.28211E-05   -0.29314E-05  2565   0.476E-03
 200 F= -.23324401E+04 E0= -.23324401E+04  d E =-.502967E-05  mag=     3.0000
       N       E                     dE             d eps       ncg     rms          rms(c)
DAV:   1    -0.231116652042E+04    0.30092E-04   -0.98525E-04  4400   0.340E-02    0.100E-02
RMM:   2    -0.231116653520E+04   -0.14776E-04   -0.10865E-04  3409   0.838E-03    0.226E-02
RMM:   3    -0.231116653115E+04    0.40501E-05   -0.13549E-05  2382   0.439E-03
 201 F= -.23324401E+04 E0= -.23324401E+04  d E =-.559018E-05  mag=     3.0000
