       N       E                     dE             d eps       ncg     rms          rms(c)
DAV:   1     0.124322824015E+05    0.12432E+05   -0.82042E+05  4416   0.143E+03
DAV:   2    -0.110226271761E+04   -0.13535E+05   -0.12990E+05  5360   0.329E+02
DAV:   3    -0.247586722508E+04   -0.13736E+04   -0.13627E+04  5264   0.108E+02
DAV:   4    -0.251371644438E+04   -0.37849E+02   -0.37680E+02  6304   0.249E+01
DAV:   5    -0.251446981466E+04   -0.75337E+00   -0.75244E+00  5528   0.289E+00    0.171E+02
RMM:   6    -0.147506145435E+04    0.10394E+04   -0.19512E+03  4354   0.393E+01    0.742E+01
RMM:   7    -0.163322132284E+04   -0.15816E+03   -0.28431E+02  4945   0.146E+01    0.535E+01
RMM:   8    -0.168159208944E+04   -0.48371E+02   -0.64370E+01  4855   0.765E+00    0.378E+01
RMM:   9    -0.181190816171E+04   -0.13032E+03   -0.66627E+01  4616   0.822E+00    0.255E+01
RMM:  10    -0.195908631758E+04   -0.14718E+03   -0.59387E+01  4627   0.725E+00    0.167E+01
RMM:  11    -0.207621440807E+04   -0.11713E+03   -0.59669E+01  4393   0.596E+00    0.130E+01
RMM:  12    -0.223787152490E+04   -0.16166E+03   -0.15354E+02  4351   0.868E+00    0.664E+00
RMM:  13    -0.229146300502E+04   -0.53591E+02   -0.53509E+01  4351   0.518E+00    0.385E+00
RMM:  14    -0.230329009140E+04   -0.11827E+02   -0.13979E+01  4590   0.314E+00    0.205E+00
RMM:  15    -0.230592607498E+04   -0.26360E+01   -0.35491E+00  4871   0.144E+00    0.643E+00
RMM:  16    -0.230596180696E+04   -0.35732E-01   -0.36512E-01  5579   0.455E-01    0.612E+00
RMM:  17    -0.230586733029E+04    0.94477E-01   -0.10429E-01  5226   0.152E-01    0.632E+00
RMM:  18    -0.230646303311E+04   -0.59570E+00   -0.39797E-01  4349   0.375E-01    0.518E+00
RMM:  19    -0.230699945610E+04   -0.53642E+00   -0.45665E-01  4487   0.477E-01    0.347E+00
RMM:  20    -0.230707961656E+04   -0.80160E-01   -0.13776E-01  4613   0.313E-01    0.268E+00
RMM:  21    -0.230712352886E+04   -0.43912E-01   -0.59703E-02  4575   0.178E-01    0.179E+00
RMM:  22    -0.230716034646E+04   -0.36818E-01   -0.74668E-02  5097   0.216E-01    0.902E-01
RMM:  23    -0.230720225210E+04   -0.41906E-01   -0.33186E-02  4709   0.142E-01    0.372E-01
RMM:  24    -0.230723311984E+04   -0.30868E-01   -0.11457E-02  4552   0.914E-02    0.133E-01
RMM:  25    -0.230725113342E+04   -0.18014E-01   -0.73785E-03  4600   0.719E-02    0.109E-01
RMM:  26    -0.230726023054E+04   -0.90971E-02   -0.24915E-03  4494   0.476E-02    0.114E-01
RMM:  27    -0.230726570372E+04   -0.54732E-02   -0.12935E-03  4417   0.276E-02    0.649E-02
RMM:  28    -0.230726815798E+04   -0.24543E-02   -0.51869E-04  4116   0.205E-02    0.439E-02
RMM:  29    -0.230726948913E+04   -0.13311E-02   -0.34402E-04  3997   0.136E-02    0.238E-02
RMM:  30    -0.230726977151E+04   -0.28238E-03   -0.10789E-04  3686   0.115E-02    0.965E-03
RMM:  31    -0.230726986699E+04   -0.95478E-04   -0.50629E-05  3383   0.653E-03    0.388E-03
RMM:  32    -0.230726989704E+04   -0.30052E-04   -0.14105E-05  2856   0.526E-03    0.261E-03
RMM:  33    -0.230726990495E+04   -0.79052E-05   -0.54522E-06  2791   0.268E-03
   1 F= -.23273450E+04 E0= -.23273450E+04  d E =-.232735E+04  mag=     1.0002
       N       E                     dE             d eps       ncg     rms          rms(c)
DAV:   1    -0.230716563768E+04    0.10426E+00   -0.12836E+01  4848   0.204E+00    0.957E-01
RMM:   2    -0.230736135869E+04   -0.19572E+00   -0.20201E+00  6268   0.663E-01    0.670E-01
RMM:   3    -0.230736996664E+04   -0.86079E-02   -0.18873E-01  5506   0.220E-01    0.434E-01
RMM:   4    -0.230737023427E+04   -0.26763E-03   -0.18867E-02  5079   0.400E-02    0.308E-01
RMM:   5    -0.230736892435E+04    0.13099E-02   -0.42096E-03  5382   0.305E-02    0.121E-01
RMM:   6    -0.230736886224E+04    0.62107E-04   -0.55472E-04  4183   0.134E-02    0.392E-02
RMM:   7    -0.230736884133E+04    0.20914E-04   -0.78408E-05  3197   0.609E-03    0.203E-02
RMM:   8    -0.230736883051E+04    0.10820E-04   -0.37367E-05  2953   0.490E-03    0.808E-03
RMM:   9    -0.230736882899E+04    0.15160E-05   -0.10531E-05  2800   0.388E-03
   2 F= -.23274446E+04 E0= -.23274446E+04  d E =-.995322E-01  mag=     1.0000
       N       E                     dE             d eps       ncg     rms          rms(c)
DAV:   1    -0.230736808872E+04    0.74179E-03   -0.14968E-01  4836   0.223E-01    0.102E-01
RMM:   2    -0.230737032759E+04   -0.22389E-02   -0.23244E-02  5768   0.647E-02    0.672E-02
RMM:   3    -0.230737051608E+04   -0.18849E-03   -0.28494E-03  3412   0.433E-02    0.481E-02
RMM:   4    -0.230737053454E+04   -0.18457E-04   -0.29032E-04  3202   0.604E-03    0.389E-02
RMM:   5    -0.230737050848E+04    0.26057E-04   -0.49678E-05  2939   0.398E-03    0.148E-02
RMM:   6    -0.230737050920E+04   -0.71668E-06   -0.91503E-06  2659   0.263E-03
   3 F= -.23274462E+04 E0= -.23274462E+04  d E =-.101155E+00  mag=     1.0000
       N       E                     dE             d eps       ncg     rms          rms(c)
DAV:   1    -0.230738263540E+04   -0.12127E-01   -0.96898E-01  4512   0.705E-01    0.312E-01
RMM:   2    -0.230738796148E+04   -0.53261E-02   -0.61111E-02  5709   0.157E-01    0.141E-01
RMM:   3    -0.230738805463E+04   -0.93155E-04   -0.39248E-03  5020   0.504E-02    0.876E-02
RMM:   4    -0.230738800917E+04    0.45461E-04   -0.60900E-04  4447   0.140E-02    0.508E-02
RMM:   5    -0.230738800210E+04    0.70741E-05   -0.16154E-04  3873   0.107E-02    0.286E-02
RMM:   6    -0.230738798998E+04    0.12118E-04   -0.26487E-05  2853   0.479E-03    0.999E-03
RMM:   7    -0.230738798703E+04    0.29487E-05   -0.64667E-06  2803   0.294E-03
   4 F= -.23274635E+04 E0= -.23274635E+04  d E =-.172943E-01  mag=     1.0000
       N       E                     dE             d eps       ncg     rms          rms(c)
DAV:   1    -0.230738899062E+04   -0.10006E-02   -0.41020E-01  4512   0.459E-01    0.203E-01
RMM:   2    -0.230739125337E+04   -0.22628E-02   -0.25884E-02  5714   0.102E-01    0.934E-02
RMM:   3    -0.230739129135E+04   -0.37975E-04   -0.16570E-03  4924   0.326E-02    0.580E-02
RMM:   4    -0.230739126995E+04    0.21396E-04   -0.25954E-04  3998   0.931E-03    0.333E-02
RMM:   5    -0.230739126628E+04    0.36753E-05   -0.68074E-05  3089   0.748E-03
   5 F= -.23274667E+04 E0= -.23274667E+04  d E =-.204548E-01  mag=     1.0000
       N       E                     dE             d eps       ncg     rms          rms(c)
DAV:   1    -0.230739701586E+04   -0.57459E-02   -0.66646E-01  4480   0.716E-01    0.295E-01
RMM:   2    -0.230740145360E+04   -0.44377E-02   -0.49865E-02  5784   0.159E-01    0.193E-01
RMM:   3    -0.230740113940E+04    0.31419E-03   -0.41599E-03  5088   0.486E-02    0.108E-01
RMM:   4    -0.230740091289E+04    0.22651E-03   -0.56276E-04  4527   0.146E-02    0.521E-02
RMM:   5    -0.230740083652E+04    0.76371E-04   -0.24878E-04  4691   0.134E-02    0.161E-02
RMM:   6    -0.230740082811E+04    0.84087E-05   -0.30036E-05  2980   0.597E-03
   6 F= -.23274762E+04 E0= -.23274762E+04  d E =-.954256E-02  mag=     1.0000
       N       E                     dE             d eps       ncg     rms          rms(c)
DAV:   1    -0.230740068262E+04    0.15390E-03   -0.33042E-01  4480   0.507E-01    0.208E-01
RMM:   2    -0.230740291212E+04   -0.22295E-02   -0.25064E-02  5771   0.113E-01    0.141E-01
RMM:   3    -0.230740271227E+04    0.19985E-03   -0.20955E-03  4770   0.346E-02    0.765E-02
RMM:   4    -0.230740258700E+04    0.12528E-03   -0.29025E-04  4281   0.107E-02    0.377E-02
RMM:   5    -0.230740253218E+04    0.54813E-04   -0.13754E-04  4329   0.102E-02    0.121E-02
RMM:   6    -0.230740252466E+04    0.75221E-05   -0.18826E-05  2840   0.517E-03
   7 F= -.23274779E+04 E0= -.23274779E+04  d E =-.112226E-01  mag=     1.0000
       N       E                     dE             d eps       ncg     rms          rms(c)
DAV:   1    -0.230740733902E+04   -0.48068E-02   -0.21712E-01  4496   0.379E-01    0.165E-01
RMM:   2    -0.230740888645E+04   -0.15474E-02   -0.17546E-02  6062   0.854E-02    0.113E-01
RMM:   3    -0.230740882863E+04    0.57822E-04   -0.14064E-03  4337   0.246E-02    0.619E-02
RMM:   4    -0.230740878917E+04    0.39454E-04   -0.16157E-04  3353   0.737E-03    0.335E-02
RMM:   5    -0.230740878354E+04    0.56358E-05   -0.55802E-05  3115   0.652E-03
   8 F= -.23274842E+04 E0= -.23274842E+04  d E =-.633184E-02  mag=     1.0000
       N       E                     dE             d eps       ncg     rms          rms(c)
DAV:   1    -0.230740508155E+04    0.37076E-02   -0.14704E+00  4424   0.988E-01    0.432E-01
RMM:   2    -0.230741546954E+04   -0.10388E-01   -0.11850E-01  5982   0.220E-01    0.292E-01
RMM:   3    -0.230741506480E+04    0.40474E-03   -0.94985E-03  5372   0.653E-02    0.163E-01
RMM:   4    -0.230741478780E+04    0.27700E-03   -0.11126E-03  4720   0.178E-02    0.885E-02
RMM:   5    -0.230741474212E+04    0.45682E-04   -0.37822E-04  4532   0.151E-02    0.271E-02
RMM:   6    -0.230741474448E+04   -0.23613E-05   -0.48705E-05  2998   0.657E-03
   9 F= -.23274903E+04 E0= -.23274903E+04  d E =-.124702E-01  mag=     1.0000
       N       E                     dE             d eps       ncg     rms          rms(c)
DAV:   1    -0.230741755664E+04   -0.28145E-02   -0.16812E-01  4480   0.330E-01    0.149E-01
RMM:   2    -0.230741871237E+04   -0.11557E-02   -0.12554E-02  5894   0.779E-02    0.112E-01
RMM:   3    -0.230741856994E+04    0.14243E-03   -0.93825E-04  4187   0.217E-02    0.601E-02
RMM:   4    -0.230741852393E+04    0.46003E-04   -0.14515E-04  3538   0.730E-03    0.307E-02
RMM:   5    -0.230741851583E+04    0.81032E-05   -0.44756E-05  3008   0.626E-03
  10 F= -.23274941E+04 E0= -.23274941E+04  d E =-.373158E-02  mag=     1.0000
       N       E                     dE             d eps       ncg     rms          rms(c)
DAV:   1    -0.230741732137E+04    0.12026E-02   -0.74394E-01  4416   0.694E-01    0.315E-01
RMM:   2    -0.230742262464E+04   -0.53033E-02   -0.57636E-02  5809   0.168E-01    0.251E-01
RMM:   3    -0.230742187471E+04    0.74993E-03   -0.39618E-03  5201   0.456E-02    0.130E-01
RMM:   4    -0.230742166237E+04    0.21234E-03   -0.61956E-04  4512   0.140E-02    0.663E-02
RMM:   5    -0.230742162251E+04    0.39854E-04   -0.19955E-04  4101   0.120E-02    0.207E-02
RMM:   6    -0.230742162106E+04    0.14569E-05   -0.31573E-05  2898   0.553E-03
  11 F= -.23274971E+04 E0= -.23274971E+04  d E =-.674489E-02  mag=     1.0000
       N       E                     dE             d eps       ncg     rms          rms(c)
DAV:   1    -0.230742335916E+04   -0.17366E-02   -0.90851E-02  4608   0.246E-01    0.118E-01
RMM:   2    -0.230742466835E+04   -0.13092E-02   -0.13688E-02  6143   0.667E-02    0.915E-02
RMM:   3    -0.230742459803E+04    0.70321E-04   -0.11301E-03  3457   0.187E-02    0.456E-02
RMM:   4    -0.230742458106E+04    0.16968E-04   -0.14029E-04  2995   0.562E-03    0.252E-02
RMM:   5    -0.230742457718E+04    0.38779E-05   -0.29837E-05  2859   0.455E-03
  12 F= -.23275001E+04 E0= -.23275001E+04  d E =-.297699E-02  mag=     1.0000
       N       E                     dE             d eps       ncg     rms          rms(c)
DAV:   1    -0.230742069596E+04    0.38851E-02   -0.81139E-01  4400   0.738E-01    0.353E-01
RMM:   2    -0.230743287326E+04   -0.12177E-01   -0.12813E-01  6127   0.204E-01    0.291E-01
RMM:   3    -0.230743197046E+04    0.90280E-03   -0.89251E-03  4884   0.526E-02    0.137E-01
RMM:   4    -0.230743179347E+04    0.17699E-03   -0.11128E-03  4321   0.139E-02    0.753E-02
RMM:   5    -0.230743174962E+04    0.43847E-04   -0.25787E-04  4129   0.117E-02    0.263E-02
RMM:   6    -0.230743174895E+04    0.67065E-06   -0.38500E-05  2891   0.585E-03
  13 F= -.23275073E+04 E0= -.23275073E+04  d E =-.101996E-01  mag=     1.0000
       N       E                     dE             d eps       ncg     rms          rms(c)
DAV:   1    -0.230739436122E+04    0.37388E-01   -0.32441E+00  4376   0.148E+00    0.708E-01
RMM:   2    -0.230744348169E+04   -0.49120E-01   -0.51905E-01  6093   0.413E-01    0.568E-01
RMM:   3    -0.230743965848E+04    0.38232E-02   -0.34290E-02  5110   0.101E-01    0.269E-01
RMM:   4    -0.230743898357E+04    0.67491E-03   -0.45545E-03  4639   0.274E-02    0.150E-01
RMM:   5    -0.230743880112E+04    0.18245E-03   -0.10783E-03  4841   0.226E-02    0.517E-02
RMM:   6    -0.230743879402E+04    0.71014E-05   -0.15098E-04  3604   0.950E-03    0.287E-02
RMM:   7    -0.230743878370E+04    0.10321E-04   -0.55589E-05  3052   0.521E-03    0.133E-02
RMM:   8    -0.230743878267E+04    0.10240E-05   -0.11990E-05  2814   0.381E-03
  14 F= -.23275144E+04 E0= -.23275144E+04  d E =-.172842E-01  mag=     1.0000
       N       E                     dE             d eps       ncg     rms          rms(c)
DAV:   1    -0.230744128367E+04   -0.25000E-02   -0.27535E-01  4512   0.406E-01    0.192E-01
RMM:   2    -0.230744450592E+04   -0.32222E-02   -0.34879E-02  6076   0.106E-01    0.127E-01
RMM:   3    -0.230744446939E+04    0.36533E-04   -0.24615E-03  4158   0.269E-02    0.813E-02
RMM:   4    -0.230744441506E+04    0.54329E-04   -0.35934E-04  3561   0.853E-03    0.450E-02
RMM:   5    -0.230744439951E+04    0.15542E-04   -0.86048E-05  3083   0.715E-03    0.125E-02
RMM:   6    -0.230744440092E+04   -0.14020E-05   -0.14414E-05  2816   0.419E-03
  15 F= -.23275201E+04 E0= -.23275201E+04  d E =-.572172E-02  mag=     1.0000
       N       E                     dE             d eps       ncg     rms          rms(c)
DAV:   1    -0.230742669662E+04    0.17703E-01   -0.24746E+00  4400   0.121E+00    0.570E-01
RMM:   2    -0.230745595079E+04   -0.29254E-01   -0.31717E-01  6034   0.324E-01    0.370E-01
RMM:   3    -0.230745546546E+04    0.48533E-03   -0.23448E-02  5186   0.811E-02    0.232E-01
RMM:   4    -0.230745505728E+04    0.40817E-03   -0.33792E-03  4789   0.234E-02    0.130E-01
RMM:   5    -0.230745489905E+04    0.15823E-03   -0.76731E-04  4552   0.198E-02    0.363E-02
RMM:   6    -0.230745490002E+04   -0.96353E-06   -0.10005E-04  3321   0.685E-03    0.212E-02
RMM:   7    -0.230745489692E+04    0.30970E-05   -0.22736E-05  2863   0.483E-03
  16 F= -.23275309E+04 E0= -.23275309E+04  d E =-.165046E-01  mag=     1.0000
       N       E                     dE             d eps       ncg     rms          rms(c)
DAV:   1    -0.230733156295E+04    0.12334E+00   -0.98686E+00  4368   0.244E+00    0.111E+00
RMM:   2    -0.230744837121E+04   -0.11681E+00   -0.12774E+00  6059   0.662E-01    0.708E-01
RMM:   3    -0.230744736680E+04    0.10044E-02   -0.96387E-02  5224   0.166E-01    0.434E-01
RMM:   4    -0.230744603310E+04    0.13337E-02   -0.12748E-02  4912   0.448E-02    0.243E-01
RMM:   5    -0.230744550212E+04    0.53098E-03   -0.29257E-03  4924   0.391E-02    0.672E-02
RMM:   6    -0.230744549275E+04    0.93638E-05   -0.38160E-04  4458   0.121E-02    0.363E-02
RMM:   7    -0.230744548094E+04    0.11815E-04   -0.79587E-05  3292   0.773E-03    0.175E-02
RMM:   8    -0.230744548508E+04   -0.41424E-05   -0.28045E-05  2967   0.475E-03
  17 F= -.23275220E+04 E0= -.23275220E+04  d E =-.759095E-02  mag=     1.0000
       N       E                     dE             d eps       ncg     rms          rms(c)
DAV:   1    -0.230739959420E+04    0.45887E-01   -0.51341E+00  4368   0.176E+00    0.790E-01
RMM:   2    -0.230745560852E+04   -0.56014E-01   -0.61463E-01  6026   0.444E-01    0.461E-01
RMM:   3    -0.230745741533E+04   -0.18068E-02   -0.50905E-02  5359   0.117E-01    0.298E-01
RMM:   4    -0.230745685020E+04    0.56513E-03   -0.55998E-03  5108   0.322E-02    0.180E-01
RMM:   5    -0.230745652645E+04    0.32375E-03   -0.15887E-03  4751   0.280E-02    0.605E-02
RMM:   6    -0.230745650534E+04    0.21110E-04   -0.21856E-04  3957   0.901E-03    0.283E-02
RMM:   7    -0.230745649957E+04    0.57737E-05   -0.31448E-05  2904   0.555E-03
  18 F= -.23275326E+04 E0= -.23275326E+04  d E =-.182551E-01  mag=     1.0000
       N       E                     dE             d eps       ncg     rms          rms(c)
DAV:   1    -0.230745911020E+04   -0.26049E-02   -0.39266E-01  4400   0.443E-01    0.196E-01
RMM:   2    -0.230746150356E+04   -0.23934E-02   -0.26866E-02  5931   0.102E-01    0.123E-01
RMM:   3    -0.230746148204E+04    0.21518E-04   -0.20014E-03  4285   0.250E-02    0.815E-02
RMM:   4    -0.230746143508E+04    0.46955E-04   -0.34492E-04  3623   0.878E-03    0.490E-02
RMM:   5    -0.230746141736E+04    0.17727E-04   -0.10149E-04  3016   0.734E-03    0.148E-02
RMM:   6    -0.230746141772E+04   -0.36233E-06   -0.15181E-05  2813   0.379E-03
  19 F= -.23275376E+04 E0= -.23275376E+04  d E =-.497390E-02  mag=     1.0000
       N       E                     dE             d eps       ncg     rms          rms(c)
DAV:   1    -0.230744849895E+04    0.12918E-01   -0.35303E+00  4368   0.133E+00    0.585E-01
RMM:   2    -0.230747053091E+04   -0.22032E-01   -0.24695E-01  5867   0.309E-01    0.373E-01
RMM:   3    -0.230747043056E+04    0.10035E-03   -0.17981E-02  5438   0.752E-02    0.250E-01
RMM:   4    -0.230747000124E+04    0.42931E-03   -0.31825E-03  4989   0.247E-02    0.151E-01
RMM:   5    -0.230746982744E+04    0.17380E-03   -0.94116E-04  4188   0.198E-02    0.432E-02
RMM:   6    -0.230746983652E+04   -0.90802E-05   -0.12446E-04  3255   0.663E-03    0.228E-02
RMM:   7    -0.230746983647E+04    0.58440E-07   -0.18057E-05  2831   0.409E-03
  20 F= -.23275462E+04 E0= -.23275462E+04  d E =-.135573E-01  mag=     1.0000
       N       E                     dE             d eps       ncg     rms          rms(c)
DAV:   1    -0.230746799087E+04    0.18457E-02   -0.40288E-01  4448   0.447E-01    0.196E-01
RMM:   2    -0.230747046051E+04   -0.24696E-02   -0.27837E-02  5946   0.102E-01    0.124E-01
RMM:   3    -0.230747044208E+04    0.18429E-04   -0.19265E-03  4336   0.250E-02    0.844E-02
RMM:   4    -0.230747038866E+04    0.53419E-04   -0.34789E-04  3629   0.898E-03    0.513E-02
RMM:   5    -0.230747036699E+04    0.21669E-04   -0.10381E-04  3028   0.738E-03    0.144E-02
RMM:   6    -0.230747036924E+04   -0.22537E-05   -0.17480E-05  2826   0.394E-03
  21 F= -.23275468E+04 E0= -.23275468E+04  d E =-.141467E-01  mag=     1.0000
       N       E                     dE             d eps       ncg     rms          rms(c)
DAV:   1    -0.230747443268E+04   -0.40657E-02   -0.24249E-01  4416   0.434E-01    0.192E-01
RMM:   2    -0.230747611882E+04   -0.16861E-02   -0.19550E-02  5728   0.102E-01    0.128E-01
RMM:   3    -0.230747596879E+04    0.15003E-03   -0.14962E-03  4636   0.266E-02    0.781E-02
RMM:   4    -0.230747587158E+04    0.97207E-04   -0.27521E-04  4378   0.998E-03    0.399E-02
RMM:   5    -0.230747584438E+04    0.27205E-04   -0.95103E-05  3586   0.852E-03    0.116E-02
RMM:   6    -0.230747584199E+04    0.23913E-05   -0.16454E-05  2842   0.446E-03
  22 F= -.23275522E+04 E0= -.23275522E+04  d E =-.540063E-02  mag=     1.0000
       N       E                     dE             d eps       ncg     rms          rms(c)
DAV:   1    -0.230747559575E+04    0.24863E-03   -0.56505E-01  4384   0.664E-01    0.292E-01
RMM:   2    -0.230747955351E+04   -0.39578E-02   -0.46027E-02  5780   0.156E-01    0.197E-01
RMM:   3    -0.230747916488E+04    0.38862E-03   -0.34705E-03  5122   0.419E-02    0.119E-01
RMM:   4    -0.230747893202E+04    0.23287E-03   -0.62938E-04  4627   0.148E-02    0.613E-02
RMM:   5    -0.230747886332E+04    0.68695E-04   -0.23224E-04  4367   0.126E-02    0.179E-02
RMM:   6    -0.230747885534E+04    0.79870E-05   -0.34954E-05  2983   0.520E-03
  23 F= -.23275551E+04 E0= -.23275551E+04  d E =-.830227E-02  mag=     1.0000
       N       E                     dE             d eps       ncg     rms          rms(c)
DAV:   1    -0.230748234111E+04   -0.34778E-02   -0.31543E-01  4528   0.509E-01    0.224E-01
RMM:   2    -0.230748553234E+04   -0.31912E-02   -0.34156E-02  5916   0.119E-01    0.169E-01
RMM:   3    -0.230748522021E+04    0.31212E-03   -0.27218E-03  4548   0.354E-02    0.840E-02
RMM:   4    -0.230748513704E+04    0.83174E-04   -0.35559E-04  4172   0.990E-03    0.426E-02
RMM:   5    -0.230748512556E+04    0.11477E-04   -0.76702E-05  3254   0.821E-03    0.132E-02
RMM:   6    -0.230748512711E+04   -0.15478E-05   -0.13664E-05  2816   0.455E-03
  24 F= -.23275612E+04 E0= -.23275612E+04  d E =-.613252E-02  mag=     1.0000
       N       E                     dE             d eps       ncg     rms          rms(c)
DAV:   1    -0.230747334875E+04    0.11777E-01   -0.20984E+00  4376   0.132E+00    0.579E-01
RMM:   2    -0.230749522517E+04   -0.21876E-01   -0.23476E-01  5920   0.316E-01    0.440E-01
RMM:   3    -0.230749265722E+04    0.25679E-02   -0.17392E-02  4921   0.858E-02    0.216E-01
RMM:   4    -0.230749212724E+04    0.52998E-03   -0.24420E-03  4664   0.245E-02    0.110E-01
RMM:   5    -0.230749202384E+04    0.10339E-03   -0.54018E-04  4575   0.199E-02    0.342E-02
RMM:   6    -0.230749202614E+04   -0.22938E-05   -0.73549E-05  3391   0.746E-03
  25 F= -.23275677E+04 E0= -.23275677E+04  d E =-.126627E-01  mag=     1.0000
       N       E                     dE             d eps       ncg     rms          rms(c)
DAV:   1    -0.230749687009E+04   -0.48462E-02   -0.31130E-01  4544   0.487E-01    0.175E-01
RMM:   2    -0.230749859151E+04   -0.17214E-02   -0.17989E-02  5898   0.970E-02    0.115E-01
RMM:   3    -0.230749852903E+04    0.62476E-04   -0.12782E-03  4459   0.306E-02    0.773E-02
RMM:   4    -0.230749847204E+04    0.56993E-04   -0.21272E-04  4191   0.950E-03    0.390E-02
RMM:   5    -0.230749846699E+04    0.50470E-05   -0.61969E-05  3100   0.730E-03
  26 F= -.23275741E+04 E0= -.23275741E+04  d E =-.633100E-02  mag=     1.0000
       N       E                     dE             d eps       ncg     rms          rms(c)
DAV:   1    -0.230749786163E+04    0.61041E-03   -0.98414E-01  4368   0.869E-01    0.309E-01
RMM:   2    -0.230750326770E+04   -0.54061E-02   -0.57124E-02  5773   0.173E-01    0.201E-01
RMM:   3    -0.230750307353E+04    0.19418E-03   -0.40488E-03  4809   0.557E-02    0.135E-01
RMM:   4    -0.230750289372E+04    0.17981E-03   -0.68293E-04  4757   0.166E-02    0.690E-02
RMM:   5    -0.230750286449E+04    0.29230E-04   -0.20311E-04  4176   0.128E-02    0.171E-02
RMM:   6    -0.230750286403E+04    0.45692E-06   -0.27961E-05  2884   0.471E-03
  27 F= -.23275783E+04 E0= -.23275783E+04  d E =-.105269E-01  mag=     1.0000
       N       E                     dE             d eps       ncg     rms          rms(c)
DAV:   1    -0.230750671462E+04   -0.38501E-02   -0.27693E-01  4520   0.487E-01    0.193E-01
RMM:   2    -0.230750746745E+04   -0.75283E-03   -0.94331E-03  5544   0.816E-02    0.956E-02
RMM:   3    -0.230750742876E+04    0.38692E-04   -0.88354E-04  4808   0.321E-02    0.682E-02
RMM:   4    -0.230750740455E+04    0.24208E-04   -0.23042E-04  4230   0.113E-02    0.452E-02
RMM:   5    -0.230750737306E+04    0.31497E-04   -0.72477E-05  3603   0.822E-03    0.974E-03
RMM:   6    -0.230750737162E+04    0.14343E-05   -0.10006E-05  2807   0.415E-03
  28 F= -.23275829E+04 E0= -.23275829E+04  d E =-.459952E-02  mag=     1.0000
       N       E                     dE             d eps       ncg     rms          rms(c)
DAV:   1    -0.230750830911E+04   -0.93605E-03   -0.51712E-01  4384   0.667E-01    0.264E-01
RMM:   2    -0.230750969332E+04   -0.13842E-02   -0.17484E-02  5430   0.111E-01    0.130E-01
RMM:   3    -0.230750959802E+04    0.95293E-04   -0.15563E-03  4913   0.402E-02    0.927E-02
RMM:   4    -0.230750954876E+04    0.49265E-04   -0.43479E-04  4648   0.151E-02    0.616E-02
RMM:   5    -0.230750948752E+04    0.61235E-04   -0.13729E-04  4233   0.106E-02    0.133E-02
RMM:   6    -0.230750948338E+04    0.41409E-05   -0.16277E-05  2819   0.455E-03
  29 F= -.23275851E+04 E0= -.23275851E+04  d E =-.683433E-02  mag=     1.0000
       N       E                     dE             d eps       ncg     rms          rms(c)
DAV:   1    -0.230751240119E+04   -0.29137E-02   -0.40860E-01  4416   0.558E-01    0.200E-01
RMM:   2    -0.230751425241E+04   -0.18512E-02   -0.21177E-02  5581   0.112E-01    0.114E-01
RMM:   3    -0.230751424711E+04    0.53034E-05   -0.18383E-03  4822   0.335E-02    0.716E-02
RMM:   4    -0.230751421100E+04    0.36102E-04   -0.33511E-04  4366   0.125E-02    0.490E-02
RMM:   5    -0.230751418492E+04    0.26084E-04   -0.11482E-04  3276   0.966E-03    0.154E-02
RMM:   6    -0.230751418161E+04    0.33078E-05   -0.16247E-05  2840   0.399E-03
  30 F= -.23275899E+04 E0= -.23275899E+04  d E =-.478377E-02  mag=     1.0000
       N       E                     dE             d eps       ncg     rms          rms(c)
DAV:   1    -0.230751376361E+04    0.42131E-03   -0.47050E-01  4384   0.601E-01    0.214E-01
RMM:   2    -0.230751588713E+04   -0.21235E-02   -0.24404E-02  5535   0.120E-01    0.122E-01
RMM:   3    -0.230751587500E+04    0.12121E-04   -0.21235E-03  4826   0.370E-02    0.764E-02
RMM:   4    -0.230751583014E+04    0.44865E-04   -0.39559E-04  4432   0.134E-02    0.521E-02
RMM:   5    -0.230751579706E+04    0.33081E-04   -0.13544E-04  3427   0.106E-02    0.175E-02
RMM:   6    -0.230751579140E+04    0.56634E-05   -0.19500E-05  2872   0.402E-03
  31 F= -.23275916E+04 E0= -.23275916E+04  d E =-.648475E-02  mag=     1.0000
       N       E                     dE             d eps       ncg     rms          rms(c)
DAV:   1    -0.230751408407E+04    0.17130E-02   -0.61992E-01  4376   0.712E-01    0.284E-01
RMM:   2    -0.230752176542E+04   -0.76814E-02   -0.81118E-02  6004   0.181E-01    0.214E-01
RMM:   3    -0.230752135191E+04    0.41351E-03   -0.62958E-03  4903   0.487E-02    0.107E-01
RMM:   4    -0.230752126677E+04    0.85133E-04   -0.77104E-04  4353   0.123E-02    0.607E-02
RMM:   5    -0.230752123047E+04    0.36299E-04   -0.16669E-04  3952   0.112E-02    0.183E-02
RMM:   6    -0.230752122735E+04    0.31240E-05   -0.25912E-05  2860   0.538E-03
  32 F= -.23275970E+04 E0= -.23275970E+04  d E =-.538277E-02  mag=     1.0000
       N       E                     dE             d eps       ncg     rms          rms(c)
DAV:   1    -0.230749985840E+04    0.21372E-01   -0.21696E+00  4368   0.133E+00    0.534E-01
RMM:   2    -0.230752718436E+04   -0.27326E-01   -0.28878E-01  5955   0.341E-01    0.404E-01
RMM:   3    -0.230752551490E+04    0.16695E-02   -0.21338E-02  5145   0.864E-02    0.200E-01
RMM:   4    -0.230752523023E+04    0.28466E-03   -0.27620E-03  4639   0.226E-02    0.114E-01
RMM:   5    -0.230752509120E+04    0.13903E-03   -0.59928E-04  4633   0.198E-02    0.348E-02
RMM:   6    -0.230752507903E+04    0.12169E-04   -0.92153E-05  3365   0.878E-03    0.156E-02
RMM:   7    -0.230752507487E+04    0.41643E-05   -0.19904E-05  2878   0.439E-03
  33 F= -.23276007E+04 E0= -.23276007E+04  d E =-.911606E-02  mag=     1.0000
       N       E                     dE             d eps       ncg     rms          rms(c)
DAV:   1    -0.230752249997E+04    0.25791E-02   -0.39761E-01  4528   0.553E-01    0.236E-01
RMM:   2    -0.230752935503E+04   -0.68551E-02   -0.72092E-02  6092   0.152E-01    0.183E-01
RMM:   3    -0.230752909458E+04    0.26045E-03   -0.56603E-03  4460   0.419E-02    0.852E-02
RMM:   4    -0.230752906306E+04    0.31526E-04   -0.66508E-04  3723   0.974E-03    0.517E-02
RMM:   5    -0.230752903910E+04    0.23959E-04   -0.11142E-04  3442   0.839E-03    0.212E-02
RMM:   6    -0.230752903609E+04    0.30074E-05   -0.25940E-05  2846   0.557E-03
  34 F= -.23276046E+04 E0= -.23276046E+04  d E =-.394750E-02  mag=     1.0000
       N       E                     dE             d eps       ncg     rms          rms(c)
DAV:   1    -0.230748633434E+04    0.42705E-01   -0.28331E+00  4368   0.148E+00    0.633E-01
RMM:   2    -0.230753593542E+04   -0.49601E-01   -0.52286E-01  6049   0.410E-01    0.499E-01
RMM:   3    -0.230753338731E+04    0.25481E-02   -0.38655E-02  4926   0.106E-01    0.225E-01
RMM:   4    -0.230753319912E+04    0.18819E-03   -0.48668E-03  4547   0.252E-02    0.137E-01
RMM:   5    -0.230753300783E+04    0.19130E-03   -0.76813E-04  4720   0.205E-02    0.600E-02
RMM:   6    -0.230753297273E+04    0.35095E-04   -0.17266E-04  3678   0.111E-02    0.175E-02
RMM:   7    -0.230753296670E+04    0.60342E-05   -0.32762E-05  2973   0.458E-03
  35 F= -.23276085E+04 E0= -.23276085E+04  d E =-.781043E-02  mag=     1.0000
       N       E                     dE             d eps       ncg     rms          rms(c)
DAV:   1    -0.230753198814E+04    0.98459E-03   -0.31406E-01  4528   0.492E-01    0.203E-01
RMM:   2    -0.230753609916E+04   -0.41110E-02   -0.44034E-02  5938   0.130E-01    0.144E-01
RMM:   3    -0.230753600573E+04    0.93424E-04   -0.33738E-03  4588   0.355E-02    0.766E-02
RMM:   4    -0.230753596431E+04    0.41421E-04   -0.39960E-04  4101   0.937E-03    0.442E-02
RMM:   5    -0.230753594831E+04    0.16003E-04   -0.74840E-05  3311   0.843E-03    0.115E-02
RMM:   6    -0.230753594858E+04   -0.26828E-06   -0.15352E-05  2820   0.469E-03
  36 F= -.23276115E+04 E0= -.23276115E+04  d E =-.299679E-02  mag=     1.0000
       N       E                     dE             d eps       ncg     rms          rms(c)
DAV:   1    -0.230752937483E+04    0.65735E-02   -0.63977E-01  4384   0.703E-01    0.290E-01
RMM:   2    -0.230753776983E+04   -0.83950E-02   -0.89997E-02  5959   0.187E-01    0.205E-01
RMM:   3    -0.230753756023E+04    0.20960E-03   -0.68968E-03  4921   0.479E-02    0.109E-01
RMM:   4    -0.230753747263E+04    0.87596E-04   -0.80215E-04  4342   0.128E-02    0.631E-02
RMM:   5    -0.230753743581E+04    0.36828E-04   -0.15999E-04  4045   0.117E-02    0.163E-02
RMM:   6    -0.230753743512E+04    0.68359E-06   -0.28719E-05  2890   0.529E-03
  37 F= -.23276130E+04 E0= -.23276130E+04  d E =-.449898E-02  mag=     1.0000
       N       E                     dE             d eps       ncg     rms          rms(c)
DAV:   1    -0.230753888265E+04   -0.14468E-02   -0.17869E-01  4480   0.402E-01    0.158E-01
RMM:   2    -0.230753966583E+04   -0.78319E-03   -0.98217E-03  5773   0.833E-02    0.769E-02
RMM:   3    -0.230753964515E+04    0.20685E-04   -0.68383E-04  4763   0.246E-02    0.486E-02
RMM:   4    -0.230753962701E+04    0.18135E-04   -0.14344E-04  3962   0.867E-03    0.359E-02
RMM:   5    -0.230753960829E+04    0.18728E-04   -0.55939E-05  3155   0.770E-03    0.982E-03
RMM:   6    -0.230753960656E+04    0.17283E-05   -0.10151E-05  2804   0.412E-03
  38 F= -.23276152E+04 E0= -.23276152E+04  d E =-.216424E-02  mag=     1.0000
       N       E                     dE             d eps       ncg     rms          rms(c)
DAV:   1    -0.230753968476E+04   -0.76470E-04   -0.75539E-02  4544   0.261E-01    0.103E-01
RMM:   2    -0.230754001705E+04   -0.33230E-03   -0.41733E-03  5740   0.534E-02    0.499E-02
RMM:   3    -0.230754000560E+04    0.11450E-04   -0.28792E-04  3876   0.168E-02    0.314E-02
RMM:   4    -0.230753999666E+04    0.89411E-05   -0.62224E-05  3278   0.640E-03
  39 F= -.23276156E+04 E0= -.23276156E+04  d E =-.254988E-02  mag=     1.0000
       N       E                     dE             d eps       ncg     rms          rms(c)
DAV:   1    -0.230754143230E+04   -0.14267E-02   -0.12052E-01  4384   0.344E-01    0.119E-01
RMM:   2    -0.230754174981E+04   -0.31751E-03   -0.41627E-03  5665   0.581E-02    0.574E-02
RMM:   3    -0.230754171635E+04    0.33459E-04   -0.27650E-04  4483   0.201E-02    0.333E-02
RMM:   4    -0.230754170476E+04    0.11589E-04   -0.10494E-04  3996   0.871E-03    0.162E-02
RMM:   5    -0.230754170225E+04    0.25088E-05   -0.13243E-05  2833   0.550E-03
  40 F= -.23276172E+04 E0= -.23276172E+04  d E =-.165480E-02  mag=     1.0000
       N       E                     dE             d eps       ncg     rms          rms(c)
DAV:   1    -0.230754200779E+04   -0.30304E-03   -0.13256E-01  4448   0.360E-01    0.124E-01
RMM:   2    -0.230754236716E+04   -0.35937E-03   -0.46391E-03  5480   0.608E-02    0.604E-02
RMM:   3    -0.230754232844E+04    0.38718E-04   -0.29839E-04  4404   0.183E-02    0.361E-02
RMM:   4    -0.230754231896E+04    0.94856E-05   -0.12298E-04  4061   0.934E-03    0.243E-02
RMM:   5    -0.230754230955E+04    0.94037E-05   -0.22420E-05  2891   0.598E-03
  41 F= -.23276178E+04 E0= -.23276178E+04  d E =-.220929E-02  mag=     1.0000
       N       E                     dE             d eps       ncg     rms          rms(c)
DAV:   1    -0.230754310773E+04   -0.78878E-03   -0.20121E-01  4384   0.441E-01    0.152E-01
RMM:   2    -0.230754401675E+04   -0.90901E-03   -0.10597E-02  5686   0.814E-02    0.746E-02
RMM:   3    -0.230754398980E+04    0.26951E-04   -0.73317E-04  4618   0.231E-02    0.494E-02
RMM:   4    -0.230754396948E+04    0.20320E-04   -0.13441E-04  3858   0.834E-03    0.329E-02
RMM:   5    -0.230754395835E+04    0.11129E-04   -0.49648E-05  2991   0.724E-03    0.929E-03
RMM:   6    -0.230754395838E+04   -0.29351E-07   -0.94837E-06  2805   0.419E-03
  42 F= -.23276193E+04 E0= -.23276193E+04  d E =-.153196E-02  mag=     1.0000
       N       E                     dE             d eps       ncg     rms          rms(c)
DAV:   1    -0.230754396353E+04   -0.51811E-05   -0.71335E-02  4480   0.263E-01    0.905E-02
RMM:   2    -0.230754428423E+04   -0.32070E-03   -0.37347E-03  5746   0.488E-02    0.442E-02
RMM:   3    -0.230754427613E+04    0.80920E-05   -0.26444E-04  3697   0.161E-02    0.291E-02
RMM:   4    -0.230754426921E+04    0.69258E-05   -0.47301E-05  2966   0.591E-03
  43 F= -.23276195E+04 E0= -.23276195E+04  d E =-.177355E-02  mag=     1.0000
       N       E                     dE             d eps       ncg     rms          rms(c)
DAV:   1    -0.230754383156E+04    0.44457E-03   -0.24343E-01  4384   0.493E-01    0.180E-01
RMM:   2    -0.230754579844E+04   -0.19669E-02   -0.21780E-02  5707   0.104E-01    0.103E-01
RMM:   3    -0.230754576500E+04    0.33433E-04   -0.16077E-03  4635   0.336E-02    0.666E-02
RMM:   4    -0.230754571365E+04    0.51349E-04   -0.24766E-04  4235   0.998E-03    0.389E-02
RMM:   5    -0.230754569479E+04    0.18862E-04   -0.77379E-05  3357   0.815E-03    0.109E-02
RMM:   6    -0.230754569536E+04   -0.56381E-06   -0.13655E-05  2825   0.446E-03
  44 F= -.23276209E+04 E0= -.23276209E+04  d E =-.132626E-02  mag=     1.0000
       N       E                     dE             d eps       ncg     rms          rms(c)
DAV:   1    -0.230754563405E+04    0.60740E-04   -0.17683E-02  4920   0.133E-01    0.484E-02
RMM:   2    -0.230754578123E+04   -0.14718E-03   -0.16224E-03  5851   0.290E-02    0.272E-02
RMM:   3    -0.230754577844E+04    0.27853E-05   -0.11065E-04  3002   0.927E-03    0.174E-02
RMM:   4    -0.230754577516E+04    0.32881E-05   -0.18519E-05  2834   0.365E-03
  45 F= -.23276209E+04 E0= -.23276209E+04  d E =-.137905E-02  mag=     1.0000
       N       E                     dE             d eps       ncg     rms          rms(c)
DAV:   1    -0.230754620063E+04   -0.42218E-03   -0.13097E-01  4384   0.371E-01    0.129E-01
RMM:   2    -0.230754667085E+04   -0.47023E-03   -0.56657E-03  5609   0.669E-02    0.694E-02
RMM:   3    -0.230754662311E+04    0.47743E-04   -0.39406E-04  4300   0.208E-02    0.478E-02
RMM:   4    -0.230754658689E+04    0.36223E-04   -0.86348E-05  3946   0.768E-03    0.253E-02
RMM:   5    -0.230754657777E+04    0.91152E-05   -0.35966E-05  3009   0.654E-03
  46 F= -.23276217E+04 E0= -.23276217E+04  d E =-.766391E-03  mag=     1.0000
       N       E                     dE             d eps       ncg     rms          rms(c)
DAV:   1    -0.230754638461E+04    0.20227E-03   -0.53823E-02  4544   0.239E-01    0.825E-02
RMM:   2    -0.230754658800E+04   -0.20338E-03   -0.24201E-03  5731   0.451E-02    0.445E-02
RMM:   3    -0.230754656807E+04    0.19927E-04   -0.16770E-04  3811   0.167E-02    0.313E-02
RMM:   4    -0.230754655228E+04    0.15787E-04   -0.34125E-05  2932   0.584E-03    0.171E-02
RMM:   5    -0.230754654737E+04    0.49069E-05   -0.20550E-05  2812   0.509E-03
  47 F= -.23276216E+04 E0= -.23276216E+04  d E =-.712768E-03  mag=     1.0000
       N       E                     dE             d eps       ncg     rms          rms(c)
DAV:   1    -0.230754657833E+04   -0.26049E-04   -0.14824E-02  4544   0.125E-01    0.428E-02
RMM:   2    -0.230754662896E+04   -0.50625E-04   -0.62155E-04  5696   0.228E-02    0.224E-02
RMM:   3    -0.230754662221E+04    0.67442E-05   -0.42256E-05  2905   0.819E-03
  48 F= -.23276217E+04 E0= -.23276217E+04  d E =-.799644E-03  mag=     1.0000
       N       E                     dE             d eps       ncg     rms          rms(c)
DAV:   1    -0.230754706791E+04   -0.43895E-03   -0.68369E-02  4384   0.261E-01    0.738E-02
RMM:   2    -0.230754730680E+04   -0.23889E-03   -0.27118E-03  5628   0.451E-02    0.419E-02
RMM:   3    -0.230754729360E+04    0.13204E-04   -0.17288E-04  3502   0.137E-02    0.293E-02
RMM:   4    -0.230754728178E+04    0.11818E-04   -0.29831E-05  2883   0.536E-03    0.164E-02
RMM:   5    -0.230754727841E+04    0.33669E-05   -0.18932E-05  2829   0.479E-03
  49 F= -.23276223E+04 E0= -.23276223E+04  d E =-.626059E-03  mag=     1.0000
       N       E                     dE             d eps       ncg     rms          rms(c)
DAV:   1    -0.230754704125E+04    0.24053E-03   -0.18580E-01  4384   0.430E-01    0.125E-01
RMM:   2    -0.230754770973E+04   -0.66847E-03   -0.76125E-03  5708   0.780E-02    0.712E-02
RMM:   3    -0.230754768067E+04    0.29058E-04   -0.47666E-04  4343   0.234E-02    0.511E-02
RMM:   4    -0.230754764813E+04    0.32541E-04   -0.91532E-05  3642   0.770E-03    0.293E-02
RMM:   5    -0.230754763682E+04    0.11310E-04   -0.47105E-05  3314   0.697E-03    0.641E-03
RMM:   6    -0.230754763638E+04    0.43614E-06   -0.74908E-06  2797   0.442E-03
  50 F= -.23276227E+04 E0= -.23276227E+04  d E =-.934410E-03  mag=     1.0000
       N       E                     dE             d eps       ncg     rms          rms(c)
DAV:   1    -0.230754807730E+04   -0.44048E-03   -0.11038E-01  4416   0.331E-01    0.107E-01
RMM:   2    -0.230754844870E+04   -0.37140E-03   -0.44061E-03  5600   0.596E-02    0.539E-02
RMM:   3    -0.230754842215E+04    0.26540E-04   -0.26180E-04  4051   0.184E-02    0.379E-02
RMM:   4    -0.230754840521E+04    0.16942E-04   -0.67013E-05  3519   0.701E-03    0.242E-02
RMM:   5    -0.230754839699E+04    0.82250E-05   -0.32891E-05  2980   0.626E-03
  51 F= -.23276233E+04 E0= -.23276233E+04  d E =-.672844E-03  mag=     1.0000
       N       E                     dE             d eps       ncg     rms          rms(c)
DAV:   1    -0.230754841458E+04   -0.93691E-05   -0.18366E-02  4800   0.135E-01    0.442E-02
RMM:   2    -0.230754848006E+04   -0.65477E-04   -0.76299E-04  5642   0.256E-02    0.223E-02
RMM:   3    -0.230754847602E+04    0.40410E-05   -0.45630E-05  2932   0.900E-03
  52 F= -.23276234E+04 E0= -.23276234E+04  d E =-.715901E-03  mag=     1.0000
       N       E                     dE             d eps       ncg     rms          rms(c)
DAV:   1    -0.230754884057E+04   -0.36051E-03   -0.61775E-02  4384   0.249E-01    0.897E-02
RMM:   2    -0.230754907434E+04   -0.23377E-03   -0.27445E-03  5718   0.473E-02    0.432E-02
RMM:   3    -0.230754906002E+04    0.14322E-04   -0.17462E-04  3636   0.133E-02    0.282E-02
RMM:   4    -0.230754905274E+04    0.72804E-05   -0.42844E-05  3072   0.619E-03
  53 F= -.23276239E+04 E0= -.23276239E+04  d E =-.509578E-03  mag=     1.0000
       N       E                     dE             d eps       ncg     rms          rms(c)
DAV:   1    -0.230754907636E+04   -0.16336E-04   -0.16556E-02  4624   0.129E-01    0.464E-02
RMM:   2    -0.230754913786E+04   -0.61498E-04   -0.72260E-04  5698   0.238E-02    0.239E-02
RMM:   3    -0.230754913418E+04    0.36746E-05   -0.50530E-05  2966   0.909E-03
  54 F= -.23276239E+04 E0= -.23276239E+04  d E =-.555903E-03  mag=     1.0000
       N       E                     dE             d eps       ncg     rms          rms(c)
DAV:   1    -0.230754919741E+04   -0.59554E-04   -0.78038E-02  4384   0.285E-01    0.987E-02
RMM:   2    -0.230754961864E+04   -0.42124E-03   -0.47754E-03  5812   0.552E-02    0.500E-02
RMM:   3    -0.230754960815E+04    0.10495E-04   -0.35601E-04  3676   0.149E-02    0.341E-02
RMM:   4    -0.230754959460E+04    0.13548E-04   -0.53743E-05  3049   0.630E-03    0.214E-02
RMM:   5    -0.230754958991E+04    0.46871E-05   -0.28977E-05  2869   0.576E-03
  55 F= -.23276244E+04 E0= -.23276244E+04  d E =-.474963E-03  mag=     1.0000
       N       E                     dE             d eps       ncg     rms          rms(c)
DAV:   1    -0.230754948209E+04    0.11251E-03   -0.28535E-02  4592   0.173E-01    0.595E-02
RMM:   2    -0.230754963937E+04   -0.15727E-03   -0.17653E-03  5946   0.350E-02    0.308E-02
RMM:   3    -0.230754963616E+04    0.32112E-05   -0.14060E-04  3239   0.112E-02    0.212E-02
RMM:   4    -0.230754963009E+04    0.60637E-05   -0.18400E-05  2834   0.438E-03
  56 F= -.23276245E+04 E0= -.23276245E+04  d E =-.526778E-03  mag=     1.0000
       N       E                     dE             d eps       ncg     rms          rms(c)
DAV:   1    -0.230754967188E+04   -0.35724E-04   -0.73922E-02  4384   0.278E-01    0.953E-02
RMM:   2    -0.230755002623E+04   -0.35435E-03   -0.40993E-03  5694   0.513E-02    0.477E-02
RMM:   3    -0.230755001566E+04    0.10575E-04   -0.32533E-04  3908   0.188E-02    0.329E-02
RMM:   4    -0.230755000181E+04    0.13843E-04   -0.51441E-05  3132   0.644E-03    0.200E-02
RMM:   5    -0.230754999652E+04    0.52952E-05   -0.25398E-05  2834   0.571E-03
  57 F= -.23276249E+04 E0= -.23276249E+04  d E =-.395640E-03  mag=     1.0000
       N       E                     dE             d eps       ncg     rms          rms(c)
DAV:   1    -0.230754996925E+04    0.32562E-04   -0.48366E-03  5168   0.716E-02    0.250E-02
RMM:   2    -0.230754999408E+04   -0.24830E-04   -0.28869E-04  5278   0.146E-02    0.122E-02
RMM:   3    -0.230754999369E+04    0.38910E-06   -0.23461E-05  2815   0.592E-03
  58 F= -.23276249E+04 E0= -.23276249E+04  d E =-.400397E-03  mag=     1.0000
       N       E                     dE             d eps       ncg     rms          rms(c)
DAV:   1    -0.230755019590E+04   -0.20181E-03   -0.40174E-02  4384   0.199E-01    0.662E-02
RMM:   2    -0.230755035384E+04   -0.15794E-03   -0.18824E-03  5528   0.361E-02    0.334E-02
RMM:   3    -0.230755034501E+04    0.88247E-05   -0.11933E-04  3322   0.111E-02    0.206E-02
RMM:   4    -0.230755034124E+04    0.37748E-05   -0.36588E-05  3056   0.565E-03
  59 F= -.23276252E+04 E0= -.23276252E+04  d E =-.313853E-03  mag=     1.0000
       N       E                     dE             d eps       ncg     rms          rms(c)
DAV:   1    -0.230755034833E+04   -0.33160E-05   -0.47878E-03  5088   0.690E-02    0.240E-02
RMM:   2    -0.230755036778E+04   -0.19454E-04   -0.24303E-04  5088   0.135E-02    0.133E-02
RMM:   3    -0.230755036689E+04    0.89093E-06   -0.17022E-05  2819   0.608E-03
  60 F= -.23276252E+04 E0= -.23276252E+04  d E =-.327820E-03  mag=     1.0000
       N       E                     dE             d eps       ncg     rms          rms(c)
DAV:   1    -0.230755060746E+04   -0.23968E-03   -0.45730E-02  4384   0.214E-01    0.707E-02
RMM:   2    -0.230755075635E+04   -0.14889E-03   -0.18181E-03  5500   0.356E-02    0.330E-02
RMM:   3    -0.230755074693E+04    0.94245E-05   -0.11375E-04  3288   0.114E-02    0.195E-02
RMM:   4    -0.230755074335E+04    0.35706E-05   -0.44619E-05  3316   0.574E-03
  61 F= -.23276255E+04 E0= -.23276255E+04  d E =-.325174E-03  mag=     1.0000
       N       E                     dE             d eps       ncg     rms          rms(c)
DAV:   1    -0.230755076442E+04   -0.17496E-04   -0.82983E-03  4896   0.914E-02    0.309E-02
RMM:   2    -0.230755079343E+04   -0.29009E-04   -0.34933E-04  5187   0.168E-02    0.144E-02
RMM:   3    -0.230755079218E+04    0.12467E-05   -0.23725E-05  2824   0.698E-03
  62 F= -.23276255E+04 E0= -.23276255E+04  d E =-.352080E-03  mag=     1.0000
       N       E                     dE             d eps       ncg     rms          rms(c)
DAV:   1    -0.230755094329E+04   -0.14986E-03   -0.55002E-02  4384   0.237E-01    0.780E-02
RMM:   2    -0.230755111284E+04   -0.16955E-03   -0.20674E-03  5495   0.392E-02    0.364E-02
RMM:   3    -0.230755109936E+04    0.13478E-04   -0.13110E-04  3514   0.125E-02    0.250E-02
RMM:   4    -0.230755109564E+04    0.37185E-05   -0.39725E-05  2962   0.592E-03
  63 F= -.23276258E+04 E0= -.23276258E+04  d E =-.296407E-03  mag=     1.0000
       N       E                     dE             d eps       ncg     rms          rms(c)
DAV:   1    -0.230755108141E+04    0.17946E-04   -0.46378E-03  5248   0.691E-02    0.231E-02
RMM:   2    -0.230755109650E+04   -0.15084E-04   -0.18809E-04  4760   0.127E-02    0.111E-02
RMM:   3    -0.230755109542E+04    0.10776E-05   -0.13710E-05  2799   0.556E-03
  64 F= -.23276258E+04 E0= -.23276258E+04  d E =-.294138E-03  mag=     1.0000
       N       E                     dE             d eps       ncg     rms          rms(c)
DAV:   1    -0.230755119926E+04   -0.10276E-03   -0.39428E-02  4384   0.198E-01    0.620E-02
RMM:   2    -0.230755134490E+04   -0.14564E-03   -0.16765E-03  5598   0.335E-02    0.281E-02
RMM:   3    -0.230755133758E+04    0.73230E-05   -0.89623E-05  3118   0.979E-03
  65 F= -.23276261E+04 E0= -.23276261E+04  d E =-.249191E-03  mag=     1.0000
       N       E                     dE             d eps       ncg     rms          rms(c)
DAV:   1    -0.230755125907E+04    0.85833E-04   -0.32733E-02  4448   0.180E-01    0.568E-02
RMM:   2    -0.230755137928E+04   -0.12021E-03   -0.14006E-03  5603   0.307E-02    0.271E-02
RMM:   3    -0.230755137511E+04    0.41699E-05   -0.89898E-05  3146   0.109E-02
  66 F= -.23276261E+04 E0= -.23276261E+04  d E =-.293375E-03  mag=     1.0000
       N       E                     dE             d eps       ncg     rms          rms(c)
DAV:   1    -0.230755144616E+04   -0.66880E-04   -0.59811E-02  4384   0.243E-01    0.848E-02
RMM:   2    -0.230755168905E+04   -0.24289E-03   -0.28368E-03  5678   0.431E-02    0.408E-02
RMM:   3    -0.230755167696E+04    0.12088E-04   -0.17574E-04  3500   0.140E-02    0.286E-02
RMM:   4    -0.230755166926E+04    0.77002E-05   -0.40843E-05  2931   0.599E-03
  67 F= -.23276264E+04 E0= -.23276264E+04  d E =-.286725E-03  mag=     1.0000
       N       E                     dE             d eps       ncg     rms          rms(c)
DAV:   1    -0.230755162920E+04    0.47761E-04   -0.10629E-02  4968   0.102E-01    0.349E-02
RMM:   2    -0.230755167313E+04   -0.43932E-04   -0.51481E-04  5537   0.191E-02    0.163E-02
RMM:   3    -0.230755167103E+04    0.20973E-05   -0.30318E-05  2811   0.689E-03
  68 F= -.23276264E+04 E0= -.23276264E+04  d E =-.285370E-03  mag=     1.0000
       N       E                     dE             d eps       ncg     rms          rms(c)
DAV:   1    -0.230755165994E+04    0.13196E-04   -0.60281E-02  4384   0.231E-01    0.773E-02
RMM:   2    -0.230755192373E+04   -0.26380E-03   -0.29778E-03  5709   0.419E-02    0.386E-02
RMM:   3    -0.230755191589E+04    0.78386E-05   -0.16344E-04  3413   0.120E-02    0.254E-02
RMM:   4    -0.230755191392E+04    0.19764E-05   -0.45366E-05  2971   0.577E-03
  69 F= -.23276267E+04 E0= -.23276267E+04  d E =-.244856E-03  mag=     1.0000
       N       E                     dE             d eps       ncg     rms          rms(c)
DAV:   1    -0.230755188372E+04    0.32177E-04   -0.61207E-03  4928   0.737E-02    0.250E-02
RMM:   2    -0.230755191170E+04   -0.27988E-04   -0.32208E-04  5214   0.143E-02    0.125E-02
RMM:   3    -0.230755191090E+04    0.80533E-06   -0.18249E-05  2799   0.534E-03
  70 F= -.23276267E+04 E0= -.23276267E+04  d E =-.242554E-03  mag=     1.0000
       N       E                     dE             d eps       ncg     rms          rms(c)
DAV:   1    -0.230755200868E+04   -0.96980E-04   -0.63398E-02  4384   0.232E-01    0.826E-02
RMM:   2    -0.230755224503E+04   -0.23635E-03   -0.28109E-03  5449   0.415E-02    0.383E-02
RMM:   3    -0.230755223432E+04    0.10718E-04   -0.20880E-04  3556   0.131E-02    0.249E-02
RMM:   4    -0.230755223275E+04    0.15690E-05   -0.50504E-05  3096   0.617E-03
  71 F= -.23276270E+04 E0= -.23276270E+04  d E =-.315984E-03  mag=     1.0000
       N       E                     dE             d eps       ncg     rms          rms(c)
DAV:   1    -0.230755221053E+04    0.23781E-04   -0.55583E-03  5096   0.690E-02    0.251E-02
RMM:   2    -0.230755223203E+04   -0.21491E-04   -0.26569E-04  4832   0.134E-02    0.123E-02
RMM:   3    -0.230755223097E+04    0.10517E-05   -0.19145E-05  2804   0.579E-03
  72 F= -.23276270E+04 E0= -.23276270E+04  d E =-.312524E-03  mag=     1.0000
       N       E                     dE             d eps       ncg     rms          rms(c)
DAV:   1    -0.230755233203E+04   -0.10001E-03   -0.60359E-02  4384   0.216E-01    0.725E-02
RMM:   2    -0.230755255739E+04   -0.22536E-03   -0.25805E-03  5408   0.386E-02    0.370E-02
RMM:   3    -0.230755255187E+04    0.55281E-05   -0.19089E-04  3376   0.117E-02    0.235E-02
RMM:   4    -0.230755254776E+04    0.41070E-05   -0.39707E-05  2978   0.553E-03
  73 F= -.23276273E+04 E0= -.23276273E+04  d E =-.315450E-03  mag=     1.0000
       N       E                     dE             d eps       ncg     rms          rms(c)
DAV:   1    -0.230755250456E+04    0.47307E-04   -0.19769E-02  4432   0.124E-01    0.417E-02
RMM:   2    -0.230755257931E+04   -0.74752E-04   -0.86621E-04  5464   0.226E-02    0.219E-02
RMM:   3    -0.230755257742E+04    0.18913E-05   -0.53031E-05  2933   0.861E-03
  74 F= -.23276273E+04 E0= -.23276273E+04  d E =-.344515E-03  mag=     1.0000
       N       E                     dE             d eps       ncg     rms          rms(c)
DAV:   1    -0.230755260942E+04   -0.30108E-04   -0.71947E-02  4376   0.234E-01    0.838E-02
RMM:   2    -0.230755286535E+04   -0.25593E-03   -0.29972E-03  5584   0.431E-02    0.411E-02
RMM:   3    -0.230755285794E+04    0.74106E-05   -0.23467E-04  3584   0.130E-02    0.255E-02
RMM:   4    -0.230755285745E+04    0.48973E-06   -0.62684E-05  3213   0.639E-03
  75 F= -.23276276E+04 E0= -.23276276E+04  d E =-.283034E-03  mag=     1.0000
       N       E                     dE             d eps       ncg     rms          rms(c)
DAV:   1    -0.230755283652E+04    0.21421E-04   -0.36771E-03  5136   0.533E-02    0.196E-02
RMM:   2    -0.230755285023E+04   -0.13708E-04   -0.16721E-04  4384   0.105E-02    0.990E-03
RMM:   3    -0.230755284999E+04    0.23363E-06   -0.13338E-05  2785   0.498E-03
  76 F= -.23276276E+04 E0= -.23276276E+04  d E =-.276323E-03  mag=     1.0000
       N       E                     dE             d eps       ncg     rms          rms(c)
DAV:   1    -0.230755288711E+04   -0.36879E-04   -0.67845E-02  4384   0.226E-01    0.793E-02
RMM:   2    -0.230755311730E+04   -0.23019E-03   -0.26485E-03  5553   0.419E-02    0.393E-02
RMM:   3    -0.230755311086E+04    0.64323E-05   -0.20215E-04  3490   0.121E-02    0.259E-02
RMM:   4    -0.230755310501E+04    0.58534E-05   -0.41025E-05  2981   0.590E-03
  77 F= -.23276278E+04 E0= -.23276278E+04  d E =-.258045E-03  mag=     1.0000
       N       E                     dE             d eps       ncg     rms          rms(c)
DAV:   1    -0.230755308434E+04    0.26522E-04   -0.46856E-03  4872   0.596E-02    0.216E-02
RMM:   2    -0.230755310091E+04   -0.16569E-04   -0.20008E-04  4705   0.116E-02    0.121E-02
RMM:   3    -0.230755310049E+04    0.41658E-06   -0.13465E-05  2811   0.529E-03
  78 F= -.23276278E+04 E0= -.23276278E+04  d E =-.254400E-03  mag=     1.0000
       N       E                     dE             d eps       ncg     rms          rms(c)
DAV:   1    -0.230755315199E+04   -0.51082E-04   -0.74542E-02  4384   0.243E-01    0.867E-02
RMM:   2    -0.230755338655E+04   -0.23456E-03   -0.27739E-03  5535   0.441E-02    0.399E-02
RMM:   3    -0.230755337334E+04    0.13207E-04   -0.19580E-04  3601   0.124E-02    0.239E-02
RMM:   4    -0.230755336561E+04    0.77333E-05   -0.54412E-05  3423   0.614E-03
  79 F= -.23276281E+04 E0= -.23276281E+04  d E =-.244685E-03  mag=     1.0000
       N       E                     dE             d eps       ncg     rms          rms(c)
DAV:   1    -0.230755336347E+04    0.98713E-05   -0.16734E-03  5256   0.370E-02    0.140E-02
RMM:   2    -0.230755336912E+04   -0.56495E-05   -0.67059E-05  3457   0.726E-03
  80 F= -.23276281E+04 E0= -.23276281E+04  d E =-.245112E-03  mag=     1.0000
       N       E                     dE             d eps       ncg     rms          rms(c)
DAV:   1    -0.230755339962E+04   -0.36147E-04   -0.75062E-02  4384   0.245E-01    0.859E-02
RMM:   2    -0.230755368710E+04   -0.28748E-03   -0.32466E-03  5813   0.477E-02    0.417E-02
RMM:   3    -0.230755368116E+04    0.59376E-05   -0.24923E-04  3715   0.167E-02    0.275E-02
RMM:   4    -0.230755367895E+04    0.22103E-05   -0.49121E-05  2996   0.602E-03
  81 F= -.23276284E+04 E0= -.23276284E+04  d E =-.279602E-03  mag=     1.0000
       N       E                     dE             d eps       ncg     rms          rms(c)
DAV:   1    -0.230755365903E+04    0.22129E-04   -0.48327E-03  4992   0.624E-02    0.221E-02
RMM:   2    -0.230755367781E+04   -0.18780E-04   -0.22215E-04  5002   0.125E-02    0.114E-02
RMM:   3    -0.230755367695E+04    0.86021E-06   -0.13935E-05  2793   0.498E-03
  82 F= -.23276284E+04 E0= -.23276284E+04  d E =-.269794E-03  mag=     1.0000
       N       E                     dE             d eps       ncg     rms          rms(c)
DAV:   1    -0.230755365406E+04    0.23750E-04   -0.73572E-02  4384   0.236E-01    0.815E-02
RMM:   2    -0.230755394268E+04   -0.28862E-03   -0.32304E-03  5712   0.454E-02    0.406E-02
RMM:   3    -0.230755393508E+04    0.76011E-05   -0.21148E-04  3384   0.121E-02    0.250E-02
RMM:   4    -0.230755393057E+04    0.45151E-05   -0.52780E-05  3215   0.583E-03
  83 F= -.23276286E+04 E0= -.23276286E+04  d E =-.249891E-03  mag=     1.0000
       N       E                     dE             d eps       ncg     rms          rms(c)
DAV:   1    -0.230755390965E+04    0.25428E-04   -0.67285E-03  4856   0.717E-02    0.257E-02
RMM:   2    -0.230755393764E+04   -0.27984E-04   -0.31029E-04  5304   0.142E-02    0.152E-02
RMM:   3    -0.230755393633E+04    0.13096E-05   -0.19768E-05  2814   0.545E-03
  84 F= -.23276286E+04 E0= -.23276286E+04  d E =-.254559E-03  mag=     1.0000
       N       E                     dE             d eps       ncg     rms          rms(c)
DAV:   1    -0.230755398881E+04   -0.51177E-04   -0.70825E-02  4384   0.233E-01    0.817E-02
RMM:   2    -0.230755422408E+04   -0.23526E-03   -0.26945E-03  5605   0.438E-02    0.414E-02
RMM:   3    -0.230755421405E+04    0.10026E-04   -0.18752E-04  3366   0.121E-02    0.276E-02
RMM:   4    -0.230755420804E+04    0.60117E-05   -0.42463E-05  2994   0.591E-03
  85 F= -.23276289E+04 E0= -.23276289E+04  d E =-.280235E-03  mag=     1.0000
       N       E                     dE             d eps       ncg     rms          rms(c)
DAV:   1    -0.230755417520E+04    0.38852E-04   -0.86577E-03  4704   0.813E-02    0.287E-02
RMM:   2    -0.230755420447E+04   -0.29275E-04   -0.34077E-04  5292   0.157E-02    0.158E-02
RMM:   3    -0.230755420313E+04    0.13488E-05   -0.23430E-05  2814   0.622E-03
  86 F= -.23276289E+04 E0= -.23276289E+04  d E =-.278440E-03  mag=     1.0000
       N       E                     dE             d eps       ncg     rms          rms(c)
DAV:   1    -0.230755432184E+04   -0.11737E-03   -0.61900E-02  4384   0.214E-01    0.767E-02
RMM:   2    -0.230755451034E+04   -0.18850E-03   -0.21828E-03  5520   0.400E-02    0.381E-02
RMM:   3    -0.230755450013E+04    0.10217E-04   -0.15393E-04  3363   0.113E-02    0.232E-02
RMM:   4    -0.230755449745E+04    0.26794E-05   -0.42295E-05  3078   0.555E-03
  87 F= -.23276292E+04 E0= -.23276292E+04  d E =-.266714E-03  mag=     1.0000
       N       E                     dE             d eps       ncg     rms          rms(c)
DAV:   1    -0.230755447702E+04    0.23110E-04   -0.16674E-02  4448   0.111E-01    0.396E-02
RMM:   2    -0.230755452952E+04   -0.52506E-04   -0.59831E-04  5488   0.211E-02    0.210E-02
RMM:   3    -0.230755452814E+04    0.13864E-05   -0.45345E-05  2873   0.798E-03
  88 F= -.23276292E+04 E0= -.23276292E+04  d E =-.283122E-03  mag=     1.0000
       N       E                     dE             d eps       ncg     rms          rms(c)
DAV:   1    -0.230755463465E+04   -0.10512E-03   -0.66080E-02  4376   0.224E-01    0.824E-02
RMM:   2    -0.230755485796E+04   -0.22331E-03   -0.25679E-03  5651   0.426E-02    0.407E-02
RMM:   3    -0.230755484893E+04    0.90290E-05   -0.18268E-04  3485   0.119E-02    0.242E-02
RMM:   4    -0.230755484531E+04    0.36144E-05   -0.51125E-05  3255   0.591E-03
  89 F= -.23276295E+04 E0= -.23276295E+04  d E =-.282055E-03  mag=     1.0000
       N       E                     dE             d eps       ncg     rms          rms(c)
DAV:   1    -0.230755483843E+04    0.10495E-04   -0.78119E-03  4640   0.772E-02    0.281E-02
RMM:   2    -0.230755486659E+04   -0.28159E-04   -0.32044E-04  5266   0.154E-02    0.141E-02
RMM:   3    -0.230755486596E+04    0.63605E-06   -0.19938E-05  2816   0.583E-03
  90 F= -.23276295E+04 E0= -.23276295E+04  d E =-.290607E-03  mag=     1.0000
       N       E                     dE             d eps       ncg     rms          rms(c)
DAV:   1    -0.230755496002E+04   -0.93431E-04   -0.55833E-02  4384   0.208E-01    0.782E-02
RMM:   2    -0.230755518255E+04   -0.22253E-03   -0.25574E-03  5722   0.402E-02    0.381E-02
RMM:   3    -0.230755517332E+04    0.92294E-05   -0.16426E-04  3214   0.109E-02    0.247E-02
RMM:   4    -0.230755517212E+04    0.11970E-05   -0.45812E-05  3031   0.591E-03
  91 F= -.23276297E+04 E0= -.23276297E+04  d E =-.278609E-03  mag=     1.0000
       N       E                     dE             d eps       ncg     rms          rms(c)
DAV:   1    -0.230755513948E+04    0.33839E-04   -0.10514E-02  4680   0.905E-02    0.336E-02
RMM:   2    -0.230755518233E+04   -0.42846E-04   -0.49655E-04  5508   0.182E-02    0.165E-02
RMM:   3    -0.230755518061E+04    0.17193E-05   -0.31034E-05  2825   0.662E-03
  92 F= -.23276297E+04 E0= -.23276297E+04  d E =-.275032E-03  mag=     1.0000
       N       E                     dE             d eps       ncg     rms          rms(c)
DAV:   1    -0.230755523792E+04   -0.55593E-04   -0.49607E-02  4384   0.192E-01    0.683E-02
RMM:   2    -0.230755544379E+04   -0.20587E-03   -0.23210E-03  5700   0.372E-02    0.342E-02
RMM:   3    -0.230755544065E+04    0.31354E-05   -0.15267E-04  3228   0.102E-02    0.214E-02
RMM:   4    -0.230755543886E+04    0.17865E-05   -0.37575E-05  2960   0.509E-03
  93 F= -.23276300E+04 E0= -.23276300E+04  d E =-.243491E-03  mag=     1.0000
       N       E                     dE             d eps       ncg     rms          rms(c)
DAV:   1    -0.230755537316E+04    0.67496E-04   -0.23848E-02  4384   0.133E-01    0.471E-02
RMM:   2    -0.230755547452E+04   -0.10137E-03   -0.11415E-03  5771   0.265E-02    0.237E-02
RMM:   3    -0.230755547297E+04    0.15456E-05   -0.73564E-05  2977   0.901E-03
  94 F= -.23276300E+04 E0= -.23276300E+04  d E =-.267472E-03  mag=     1.0000
       N       E                     dE             d eps       ncg     rms          rms(c)
DAV:   1    -0.230755553665E+04   -0.62133E-04   -0.64642E-02  4376   0.219E-01    0.812E-02
RMM:   2    -0.230755577864E+04   -0.24199E-03   -0.28618E-03  5682   0.423E-02    0.432E-02
RMM:   3    -0.230755577149E+04    0.71519E-05   -0.21361E-04  3345   0.125E-02    0.317E-02
RMM:   4    -0.230755576063E+04    0.10855E-04   -0.44810E-05  2979   0.612E-03    0.190E-02
RMM:   5    -0.230755575464E+04    0.59941E-05   -0.23849E-05  2882   0.508E-03
  95 F= -.23276303E+04 E0= -.23276303E+04  d E =-.290837E-03  mag=     1.0000
       N       E                     dE             d eps       ncg     rms          rms(c)
DAV:   1    -0.230755573142E+04    0.29211E-04   -0.70627E-03  4784   0.726E-02    0.267E-02
RMM:   2    -0.230755575881E+04   -0.27384E-04   -0.31877E-04  5153   0.149E-02    0.134E-02
RMM:   3    -0.230755575793E+04    0.88023E-06   -0.23313E-05  2812   0.587E-03
  96 F= -.23276303E+04 E0= -.23276303E+04  d E =-.297236E-03  mag=     1.0000
       N       E                     dE             d eps       ncg     rms          rms(c)
DAV:   1    -0.230755578238E+04   -0.23578E-04   -0.67240E-02  4376   0.228E-01    0.844E-02
RMM:   2    -0.230755604134E+04   -0.25895E-03   -0.30280E-03  5648   0.437E-02    0.413E-02
RMM:   3    -0.230755603140E+04    0.99393E-05   -0.19697E-04  3385   0.124E-02    0.255E-02
RMM:   4    -0.230755602914E+04    0.22570E-05   -0.53703E-05  3199   0.612E-03
  97 F= -.23276306E+04 E0= -.23276306E+04  d E =-.280536E-03  mag=     1.0000
       N       E                     dE             d eps       ncg     rms          rms(c)
DAV:   1    -0.230755601113E+04    0.20270E-04   -0.30129E-03  5216   0.486E-02    0.191E-02
RMM:   2    -0.230755602359E+04   -0.12467E-04   -0.14972E-04  4478   0.986E-03    0.110E-02
RMM:   3    -0.230755602293E+04    0.66491E-06   -0.11022E-05  2763   0.465E-03
  98 F= -.23276306E+04 E0= -.23276306E+04  d E =-.276381E-03  mag=     1.0000
       N       E                     dE             d eps       ncg     rms          rms(c)
DAV:   1    -0.230755607629E+04   -0.52693E-04   -0.53095E-02  4376   0.212E-01    0.779E-02
RMM:   2    -0.230755629412E+04   -0.21783E-03   -0.25592E-03  5692   0.405E-02    0.376E-02
RMM:   3    -0.230755628196E+04    0.12155E-04   -0.15816E-04  3233   0.115E-02    0.244E-02
RMM:   4    -0.230755627732E+04    0.46436E-05   -0.41488E-05  3028   0.592E-03
  99 F= -.23276308E+04 E0= -.23276308E+04  d E =-.225239E-03  mag=     1.0000
       N       E                     dE             d eps       ncg     rms          rms(c)
DAV:   1    -0.230755626769E+04    0.14274E-04   -0.13237E-03  5248   0.340E-02    0.132E-02
RMM:   2    -0.230755627343E+04   -0.57423E-05   -0.75872E-05  3674   0.726E-03
 100 F= -.23276308E+04 E0= -.23276308E+04  d E =-.216569E-03  mag=     1.0000
       N       E                     dE             d eps       ncg     rms          rms(c)
DAV:   1    -0.230755631524E+04   -0.47552E-04   -0.50490E-02  4384   0.208E-01    0.770E-02
RMM:   2    -0.230755650349E+04   -0.18825E-03   -0.21875E-03  5829   0.405E-02    0.362E-02
RMM:   3    -0.230755649468E+04    0.88055E-05   -0.15111E-04  3484   0.141E-02    0.240E-02
RMM:   4    -0.230755649157E+04    0.31194E-05   -0.34762E-05  2928   0.556E-03
 101 F= -.23276310E+04 E0= -.23276310E+04  d E =-.191321E-03  mag=     1.0000
       N       E                     dE             d eps       ncg     rms          rms(c)
DAV:   1    -0.230755648271E+04    0.11974E-04   -0.14227E-03  5248   0.353E-02    0.132E-02
RMM:   2    -0.230755648818E+04   -0.54731E-05   -0.68352E-05  3614   0.730E-03
 102 F= -.23276310E+04 E0= -.23276310E+04  d E =-.183260E-03  mag=     1.0000
       N       E                     dE             d eps       ncg     rms          rms(c)
DAV:   1    -0.230755656970E+04   -0.86986E-04   -0.45300E-02  4376   0.195E-01    0.709E-02
RMM:   2    -0.230755670988E+04   -0.14018E-03   -0.16783E-03  5831   0.380E-02    0.341E-02
RMM:   3    -0.230755669802E+04    0.11863E-04   -0.11223E-04  3441   0.127E-02    0.211E-02
RMM:   4    -0.230755669717E+04    0.84592E-06   -0.33727E-05  2951   0.539E-03
 103 F= -.23276312E+04 E0= -.23276312E+04  d E =-.207116E-03  mag=     1.0000
       N       E                     dE             d eps       ncg     rms          rms(c)
DAV:   1    -0.230755668493E+04    0.13088E-04   -0.20546E-03  5248   0.419E-02    0.153E-02
RMM:   2    -0.230755669113E+04   -0.61991E-05   -0.80662E-05  3986   0.842E-03
 104 F= -.23276312E+04 E0= -.23276312E+04  d E =-.200692E-03  mag=     1.0000
       N       E                     dE             d eps       ncg     rms          rms(c)
DAV:   1    -0.230755678036E+04   -0.95428E-04   -0.44379E-02  4372   0.193E-01    0.720E-02
RMM:   2    -0.230755690911E+04   -0.12875E-03   -0.15544E-03  5805   0.377E-02    0.333E-02
RMM:   3    -0.230755689852E+04    0.10588E-04   -0.99901E-05  3496   0.125E-02    0.206E-02
RMM:   4    -0.230755689775E+04    0.77095E-06   -0.29133E-05  2912   0.516E-03
 105 F= -.23276314E+04 E0= -.23276314E+04  d E =-.209709E-03  mag=     1.0000
       N       E                     dE             d eps       ncg     rms          rms(c)
DAV:   1    -0.230755688323E+04    0.15290E-04   -0.38624E-03  4960   0.571E-02    0.211E-02
RMM:   2    -0.230755689427E+04   -0.11046E-04   -0.13397E-04  4539   0.110E-02    0.101E-02
RMM:   3    -0.230755689372E+04    0.55044E-06   -0.10007E-05  2787   0.505E-03
 106 F= -.23276314E+04 E0= -.23276314E+04  d E =-.206649E-03  mag=     1.0000
       N       E                     dE             d eps       ncg     rms          rms(c)
DAV:   1    -0.230755695261E+04   -0.58340E-04   -0.44791E-02  4376   0.190E-01    0.680E-02
RMM:   2    -0.230755712843E+04   -0.17581E-03   -0.20264E-03  5710   0.372E-02    0.333E-02
RMM:   3    -0.230755711990E+04    0.85282E-05   -0.12618E-04  3104   0.970E-03    0.206E-02
RMM:   4    -0.230755711747E+04    0.24318E-05   -0.35097E-05  2974   0.514E-03
 107 F= -.23276316E+04 E0= -.23276316E+04  d E =-.194897E-03  mag=     1.0000
       N       E                     dE             d eps       ncg     rms          rms(c)
DAV:   1    -0.230755710905E+04    0.10844E-04   -0.43639E-03  4872   0.596E-02    0.218E-02
RMM:   2    -0.230755712645E+04   -0.17398E-04   -0.20508E-04  4879   0.120E-02    0.120E-02
RMM:   3    -0.230755712570E+04    0.75345E-06   -0.14721E-05  2790   0.511E-03
 108 F= -.23276316E+04 E0= -.23276316E+04  d E =-.194016E-03  mag=     1.0000
       N       E                     dE             d eps       ncg     rms          rms(c)
DAV:   1    -0.230755713290E+04   -0.64535E-05   -0.41936E-02  4376   0.181E-01    0.675E-02
RMM:   2    -0.230755735997E+04   -0.22707E-03   -0.25413E-03  5775   0.380E-02    0.362E-02
RMM:   3    -0.230755735422E+04    0.57480E-05   -0.16491E-04  3047   0.984E-03    0.247E-02
RMM:   4    -0.230755734802E+04    0.62014E-05   -0.32747E-05  2887   0.510E-03
 109 F= -.23276318E+04 E0= -.23276318E+04  d E =-.202748E-03  mag=     1.0000
       N       E                     dE             d eps       ncg     rms          rms(c)
DAV:   1    -0.230755732897E+04    0.25250E-04   -0.57736E-03  4784   0.674E-02    0.254E-02
RMM:   2    -0.230755736043E+04   -0.31457E-04   -0.35913E-04  5327   0.143E-02    0.151E-02
RMM:   3    -0.230755735950E+04    0.93105E-06   -0.25104E-05  2821   0.554E-03
 110 F= -.23276318E+04 E0= -.23276318E+04  d E =-.206829E-03  mag=     1.0000
       N       E                     dE             d eps       ncg     rms          rms(c)
DAV:   1    -0.230755731895E+04    0.41476E-04   -0.47350E-02  4376   0.192E-01    0.740E-02
RMM:   2    -0.230755757289E+04   -0.25394E-03   -0.28606E-03  5773   0.406E-02    0.395E-02
RMM:   3    -0.230755756604E+04    0.68499E-05   -0.18581E-04  3119   0.104E-02    0.274E-02
RMM:   4    -0.230755755797E+04    0.80720E-05   -0.37055E-05  2914   0.543E-03
 111 F= -.23276320E+04 E0= -.23276320E+04  d E =-.205598E-03  mag=     1.0000
       N       E                     dE             d eps       ncg     rms          rms(c)
DAV:   1    -0.230755754067E+04    0.25373E-04   -0.20835E-03  5144   0.405E-02    0.162E-02
RMM:   2    -0.230755755222E+04   -0.11556E-04   -0.13709E-04  4267   0.896E-03    0.102E-02
RMM:   3    -0.230755755160E+04    0.62601E-06   -0.10254E-05  2720   0.422E-03
 112 F= -.23276320E+04 E0= -.23276320E+04  d E =-.200786E-03  mag=     1.0000
       N       E                     dE             d eps       ncg     rms          rms(c)
DAV:   1    -0.230755754918E+04    0.30470E-05   -0.45533E-02  4376   0.184E-01    0.704E-02
RMM:   2    -0.230755774614E+04   -0.19696E-03   -0.22658E-03  5694   0.377E-02    0.365E-02
RMM:   3    -0.230755774069E+04    0.54461E-05   -0.15531E-04  3224   0.112E-02    0.251E-02
RMM:   4    -0.230755773564E+04    0.50555E-05   -0.33764E-05  2901   0.531E-03
 113 F= -.23276322E+04 E0= -.23276322E+04  d E =-.195656E-03  mag=     1.0000
       N       E                     dE             d eps       ncg     rms          rms(c)
DAV:   1    -0.230755771961E+04    0.21080E-04   -0.22723E-03  5120   0.413E-02    0.165E-02
RMM:   2    -0.230755772969E+04   -0.10078E-04   -0.12232E-04  4137   0.878E-03    0.948E-03
RMM:   3    -0.230755772937E+04    0.32292E-06   -0.91485E-06  2716   0.421E-03
 114 F= -.23276322E+04 E0= -.23276322E+04  d E =-.192084E-03  mag=     1.0000
       N       E                     dE             d eps       ncg     rms          rms(c)
DAV:   1    -0.230755775861E+04   -0.28915E-04   -0.51145E-02  4376   0.196E-01    0.740E-02
RMM:   2    -0.230755794239E+04   -0.18378E-03   -0.21424E-03  5678   0.386E-02    0.355E-02
RMM:   3    -0.230755793340E+04    0.89865E-05   -0.13647E-04  3243   0.108E-02    0.219E-02
RMM:   4    -0.230755793192E+04    0.14847E-05   -0.38515E-05  3012   0.539E-03
 115 F= -.23276324E+04 E0= -.23276324E+04  d E =-.195204E-03  mag=     1.0000
       N       E                     dE             d eps       ncg     rms          rms(c)
DAV:   1    -0.230755792242E+04    0.10979E-04   -0.17502E-03  5144   0.366E-02    0.145E-02
RMM:   2    -0.230755792894E+04   -0.65172E-05   -0.79368E-05  3694   0.746E-03
 116 F= -.23276324E+04 E0= -.23276324E+04  d E =-.190848E-03  mag=     1.0000
       N       E                     dE             d eps       ncg     rms          rms(c)
DAV:   1    -0.230755798052E+04   -0.58103E-04   -0.50128E-02  4376   0.193E-01    0.738E-02
RMM:   2    -0.230755815809E+04   -0.17757E-03   -0.20589E-03  5874   0.394E-02    0.363E-02
RMM:   3    -0.230755814890E+04    0.91881E-05   -0.13904E-04  3481   0.129E-02    0.229E-02
RMM:   4    -0.230755814837E+04    0.52717E-06   -0.36435E-05  2945   0.534E-03
 117 F= -.23276326E+04 E0= -.23276326E+04  d E =-.190479E-03  mag=     1.0000
       N       E                     dE             d eps       ncg     rms          rms(c)
DAV:   1    -0.230755814065E+04    0.82518E-05   -0.14467E-03  5176   0.330E-02    0.129E-02
RMM:   2    -0.230755814575E+04   -0.50982E-05   -0.64118E-05  3534   0.683E-03
 118 F= -.23276326E+04 E0= -.23276326E+04  d E =-.182796E-03  mag=     1.0000
       N       E                     dE             d eps       ncg     rms          rms(c)
DAV:   1    -0.230755816172E+04   -0.21068E-04   -0.46104E-02  4376   0.180E-01    0.683E-02
RMM:   2    -0.230755831841E+04   -0.15669E-03   -0.17908E-03  5871   0.365E-02    0.339E-02
RMM:   3    -0.230755830963E+04    0.87758E-05   -0.11405E-04  3377   0.117E-02    0.199E-02
RMM:   4    -0.230755830924E+04    0.39485E-06   -0.33662E-05  2920   0.489E-03
 119 F= -.23276327E+04 E0= -.23276327E+04  d E =-.182761E-03  mag=     1.0000
       N       E                     dE             d eps       ncg     rms          rms(c)
DAV:   1    -0.230755828872E+04    0.20914E-04   -0.41581E-03  4632   0.543E-02    0.205E-02
RMM:   2    -0.230755830286E+04   -0.14141E-04   -0.16255E-04  4564   0.110E-02    0.105E-02
RMM:   3    -0.230755830263E+04    0.22352E-06   -0.12302E-05  2792   0.495E-03
 120 F= -.23276327E+04 E0= -.23276327E+04  d E =-.182065E-03  mag=     1.0000
       N       E                     dE             d eps       ncg     rms          rms(c)
DAV:   1    -0.230755834777E+04   -0.44910E-04   -0.50959E-02  4376   0.186E-01    0.708E-02
RMM:   2    -0.230755850925E+04   -0.16148E-03   -0.18663E-03  5631   0.362E-02    0.351E-02
RMM:   3    -0.230755849983E+04    0.94204E-05   -0.11532E-04  3222   0.995E-03    0.206E-02
RMM:   4    -0.230755849782E+04    0.20145E-05   -0.36876E-05  3042   0.515E-03
 121 F= -.23276329E+04 E0= -.23276329E+04  d E =-.210674E-03  mag=     1.0000
       N       E                     dE             d eps       ncg     rms          rms(c)
DAV:   1    -0.230755847765E+04    0.22180E-04   -0.67760E-03  4464   0.681E-02    0.261E-02
RMM:   2    -0.230755849956E+04   -0.21910E-04   -0.25129E-04  5071   0.136E-02    0.141E-02
RMM:   3    -0.230755849918E+04    0.38707E-06   -0.20604E-05  2805   0.566E-03
 122 F= -.23276330E+04 E0= -.23276330E+04  d E =-.217790E-03  mag=     1.0000
       N       E                     dE             d eps       ncg     rms          rms(c)
DAV:   1    -0.230755853286E+04   -0.33293E-04   -0.53095E-02  4368   0.187E-01    0.708E-02
RMM:   2    -0.230755872647E+04   -0.19361E-03   -0.21913E-03  5691   0.376E-02    0.379E-02
RMM:   3    -0.230755872018E+04    0.62875E-05   -0.14685E-04  3184   0.101E-02    0.257E-02
RMM:   4    -0.230755871590E+04    0.42772E-05   -0.36026E-05  2926   0.525E-03
 123 F= -.23276332E+04 E0= -.23276332E+04  d E =-.203651E-03  mag=     1.0000
       N       E                     dE             d eps       ncg     rms          rms(c)
DAV:   1    -0.230755869629E+04    0.23892E-04   -0.72846E-03  4576   0.693E-02    0.260E-02
RMM:   2    -0.230755872307E+04   -0.26785E-04   -0.30712E-04  5197   0.140E-02    0.149E-02
RMM:   3    -0.230755872260E+04    0.47544E-06   -0.22600E-05  2816   0.556E-03
 124 F= -.23276332E+04 E0= -.23276332E+04  d E =-.205490E-03  mag=     1.0000
       N       E                     dE             d eps       ncg     rms          rms(c)
DAV:   1    -0.230755870694E+04    0.16132E-04   -0.49141E-02  4368   0.178E-01    0.678E-02
RMM:   2    -0.230755891522E+04   -0.20828E-03   -0.23243E-03  5751   0.369E-02    0.364E-02
RMM:   3    -0.230755891110E+04    0.41213E-05   -0.15365E-04  3090   0.946E-03    0.243E-02
RMM:   4    -0.230755890766E+04    0.34391E-05   -0.33722E-05  2910   0.490E-03
 125 F= -.23276333E+04 E0= -.23276333E+04  d E =-.188591E-03  mag=     1.0000
       N       E                     dE             d eps       ncg     rms          rms(c)
DAV:   1    -0.230755885213E+04    0.58970E-04   -0.15905E-02  4384   0.101E-01    0.377E-02
RMM:   2    -0.230755891933E+04   -0.67194E-04   -0.75023E-04  5612   0.206E-02    0.215E-02
RMM:   3    -0.230755891903E+04    0.29727E-06   -0.55295E-05  2861   0.742E-03
 126 F= -.23276334E+04 E0= -.23276334E+04  d E =-.202071E-03  mag=     1.0000
       N       E                     dE             d eps       ncg     rms          rms(c)
DAV:   1    -0.230755884372E+04    0.75605E-04   -0.57923E-02  4368   0.196E-01    0.766E-02
RMM:   2    -0.230755911398E+04   -0.27025E-03   -0.30330E-03  5791   0.416E-02    0.403E-02
RMM:   3    -0.230755910842E+04    0.55585E-05   -0.19788E-04  3195   0.103E-02    0.243E-02
RMM:   4    -0.230755910651E+04    0.19131E-05   -0.49011E-05  3069   0.538E-03
 127 F= -.23276336E+04 E0= -.23276336E+04  d E =-.208628E-03  mag=     1.0000
       N       E                     dE             d eps       ncg     rms          rms(c)
DAV:   1    -0.230755907856E+04    0.29862E-04   -0.48423E-03  4736   0.569E-02    0.225E-02
RMM:   2    -0.230755910165E+04   -0.23095E-04   -0.25998E-04  4913   0.121E-02    0.135E-02
RMM:   3    -0.230755910127E+04    0.38027E-06   -0.20306E-05  2821   0.530E-03
 128 F= -.23276336E+04 E0= -.23276336E+04  d E =-.209601E-03  mag=     1.0000
       N       E                     dE             d eps       ncg     rms          rms(c)
DAV:   1    -0.230755902122E+04    0.80431E-04   -0.62526E-02  4408   0.212E-01    0.837E-02
RMM:   2    -0.230755931447E+04   -0.29325E-03   -0.33159E-03  5781   0.442E-02    0.401E-02
RMM:   3    -0.230755930738E+04    0.70903E-05   -0.21358E-04  3390   0.111E-02    0.237E-02
RMM:   4    -0.230755930361E+04    0.37699E-05   -0.53736E-05  3239   0.562E-03
 129 F= -.23276338E+04 E0= -.23276338E+04  d E =-.211255E-03  mag=     1.0000
       N       E                     dE             d eps       ncg     rms          rms(c)
DAV:   1    -0.230755929066E+04    0.16727E-04   -0.26113E-03  5144   0.438E-02    0.178E-02
RMM:   2    -0.230755930299E+04   -0.12337E-04   -0.13925E-04  4192   0.918E-03    0.996E-03
RMM:   3    -0.230755930304E+04   -0.40847E-07   -0.13738E-05  2726   0.473E-03
 130 F= -.23276338E+04 E0= -.23276338E+04  d E =-.212532E-03  mag=     1.0000
       N       E                     dE             d eps       ncg     rms          rms(c)
DAV:   1    -0.230755929374E+04    0.92545E-05   -0.45736E-02  4376   0.187E-01    0.740E-02
RMM:   2    -0.230755951032E+04   -0.21658E-03   -0.24697E-03  5793   0.392E-02    0.347E-02
RMM:   3    -0.230755950254E+04    0.77801E-05   -0.15545E-04  3258   0.107E-02    0.202E-02
RMM:   4    -0.230755949824E+04    0.43005E-05   -0.43830E-05  3209   0.523E-03
 131 F= -.23276340E+04 E0= -.23276340E+04  d E =-.175992E-03  mag=     1.0000
       N       E                     dE             d eps       ncg     rms          rms(c)
DAV:   1    -0.230755949773E+04    0.48160E-05   -0.32760E-04  5024   0.167E-02    0.716E-03
RMM:   2    -0.230755949932E+04   -0.15889E-05   -0.21130E-05  2833   0.382E-03
 132 F= -.23276340E+04 E0= -.23276340E+04  d E =-.175403E-03  mag=     1.0000
       N       E                     dE             d eps       ncg     rms          rms(c)
DAV:   1    -0.230755950503E+04   -0.73014E-05   -0.34786E-02  4376   0.166E-01    0.654E-02
RMM:   2    -0.230755965615E+04   -0.15112E-03   -0.17594E-03  5769   0.347E-02    0.301E-02
RMM:   3    -0.230755964906E+04    0.70860E-05   -0.11749E-04  3359   0.120E-02    0.181E-02
RMM:   4    -0.230755964849E+04    0.56843E-06   -0.33113E-05  2946   0.484E-03
 133 F= -.23276341E+04 E0= -.23276341E+04  d E =-.132750E-03  mag=     1.0000
       N       E                     dE             d eps       ncg     rms          rms(c)
DAV:   1    -0.230755964443E+04    0.46293E-05   -0.11437E-04  4960   0.102E-02    0.546E-03
RMM:   2    -0.230755964488E+04   -0.44542E-06   -0.93532E-06  2665   0.243E-03
 134 F= -.23276341E+04 E0= -.23276341E+04  d E =-.128217E-03  mag=     1.0000
       N       E                     dE             d eps       ncg     rms          rms(c)
DAV:   1    -0.230755964651E+04   -0.20779E-05   -0.24411E-02  4376   0.137E-01    0.533E-02
RMM:   2    -0.230755974776E+04   -0.10125E-03   -0.11826E-03  5714   0.283E-02    0.258E-02
RMM:   3    -0.230755974366E+04    0.40989E-05   -0.82781E-05  3048   0.990E-03
 135 F= -.23276342E+04 E0= -.23276342E+04  d E =-.110173E-03  mag=     1.0000
       N       E                     dE             d eps       ncg     rms          rms(c)
DAV:   1    -0.230755973690E+04    0.10861E-04   -0.59538E-04  5112   0.215E-02    0.167E-02
RMM:   2    -0.230755973922E+04   -0.23274E-05   -0.43005E-05  3149   0.485E-03
 136 F= -.23276342E+04 E0= -.23276342E+04  d E =-.107532E-03  mag=     1.0000
       N       E                     dE             d eps       ncg     rms          rms(c)
DAV:   1    -0.230755970640E+04    0.30500E-04   -0.24951E-02  4376   0.138E-01    0.549E-02
RMM:   2    -0.230755982845E+04   -0.12205E-03   -0.14051E-03  5789   0.297E-02    0.284E-02
RMM:   3    -0.230755982470E+04    0.37529E-05   -0.97258E-05  3077   0.103E-02
 137 F= -.23276343E+04 E0= -.23276343E+04  d E =-.911369E-04  mag=     1.0000
       N       E                     dE             d eps       ncg     rms          rms(c)
DAV:   1    -0.230755982054E+04    0.79064E-05   -0.15685E-04  5128   0.111E-02    0.141E-02
RMM:   2    -0.230755982167E+04   -0.11293E-05   -0.22749E-05  2784   0.341E-03
 138 F= -.23276343E+04 E0= -.23276343E+04  d E =-.885354E-04  mag=     1.0000
       N       E                     dE             d eps       ncg     rms          rms(c)
DAV:   1    -0.230755975772E+04    0.62823E-04   -0.25672E-02  4376   0.143E-01    0.564E-02
RMM:   2    -0.230755991069E+04   -0.15297E-03   -0.17205E-03  5798   0.315E-02    0.287E-02
RMM:   3    -0.230755990828E+04    0.24115E-05   -0.11640E-04  3050   0.105E-02    0.193E-02
RMM:   4    -0.230755990567E+04    0.26068E-05   -0.22585E-05  2846   0.429E-03
 139 F= -.23276344E+04 E0= -.23276344E+04  d E =-.932101E-04  mag=     1.0000
       N       E                     dE             d eps       ncg     rms          rms(c)
DAV:   1    -0.230755990122E+04    0.70598E-05   -0.10228E-04  4984   0.970E-03    0.530E-03
RMM:   2    -0.230755990201E+04   -0.79029E-06   -0.10989E-05  2612   0.261E-03
 140 F= -.23276344E+04 E0= -.23276344E+04  d E =-.901501E-04  mag=     1.0000
       N       E                     dE             d eps       ncg     rms          rms(c)
DAV:   1    -0.230755983938E+04    0.61842E-04   -0.24774E-02  4376   0.139E-01    0.532E-02
RMM:   2    -0.230756000037E+04   -0.16100E-03   -0.17895E-03  5816   0.312E-02    0.261E-02
RMM:   3    -0.230755999921E+04    0.11600E-05   -0.12205E-04  3031   0.101E-02    0.171E-02
RMM:   4    -0.230755999975E+04   -0.53142E-06   -0.25286E-05  2848   0.431E-03
 141 F= -.23276345E+04 E0= -.23276345E+04  d E =-.961193E-04  mag=     1.0000
       N       E                     dE             d eps       ncg     rms          rms(c)
DAV:   1    -0.230755999468E+04    0.45332E-05   -0.12899E-04  5008   0.104E-02    0.546E-03
RMM:   2    -0.230755999547E+04   -0.78570E-06   -0.12530E-05  2636   0.265E-03
 142 F= -.23276345E+04 E0= -.23276345E+04  d E =-.917232E-04  mag=     1.0000
       N       E                     dE             d eps       ncg     rms          rms(c)
DAV:   1    -0.230755992524E+04    0.69444E-04   -0.25495E-02  4376   0.139E-01    0.536E-02
RMM:   2    -0.230756008844E+04   -0.16320E-03   -0.18048E-03  5817   0.315E-02    0.259E-02
RMM:   3    -0.230756008694E+04    0.15022E-05   -0.12036E-04  3105   0.997E-03    0.157E-02
RMM:   4    -0.230756008536E+04    0.15727E-05   -0.25865E-05  2862   0.386E-03
 143 F= -.23276346E+04 E0= -.23276346E+04  d E =-.102482E-03  mag=     1.0000
       N       E                     dE             d eps       ncg     rms          rms(c)
DAV:   1    -0.230756008047E+04    0.64628E-05   -0.48579E-04  4952   0.194E-02    0.838E-03
RMM:   2    -0.230756008349E+04   -0.30148E-05   -0.35813E-05  3033   0.459E-03
 144 F= -.23276346E+04 E0= -.23276346E+04  d E =-.102378E-03  mag=     1.0000
       N       E                     dE             d eps       ncg     rms          rms(c)
DAV:   1    -0.230756004496E+04    0.35510E-04   -0.23697E-02  4376   0.131E-01    0.510E-02
RMM:   2    -0.230756018142E+04   -0.13646E-03   -0.15187E-03  5860   0.297E-02    0.259E-02
RMM:   3    -0.230756017936E+04    0.20640E-05   -0.98201E-05  3026   0.942E-03
 145 F= -.23276347E+04 E0= -.23276347E+04  d E =-.108973E-03  mag=     1.0000
       N       E                     dE             d eps       ncg     rms          rms(c)
DAV:   1    -0.230756016408E+04    0.17344E-04   -0.22281E-03  4800   0.402E-02    0.219E-02
RMM:   2    -0.230756017659E+04   -0.12515E-04   -0.15168E-04  3901   0.860E-03    0.148E-02
RMM:   3    -0.230756017538E+04    0.12105E-05   -0.15949E-05  2828   0.440E-03
 146 F= -.23276347E+04 E0= -.23276347E+04  d E =-.109067E-03  mag=     1.0000
       N       E                     dE             d eps       ncg     rms          rms(c)
DAV:   1    -0.230756016387E+04    0.12724E-04   -0.23913E-02  4376   0.129E-01    0.503E-02
RMM:   2    -0.230756028380E+04   -0.11993E-03   -0.13427E-03  5767   0.282E-02    0.249E-02
RMM:   3    -0.230756028169E+04    0.21068E-05   -0.91818E-05  3031   0.871E-03
 147 F= -.23276348E+04 E0= -.23276348E+04  d E =-.942374E-04  mag=     1.0000
       N       E                     dE             d eps       ncg     rms          rms(c)
DAV:   1    -0.230756027681E+04    0.69892E-05   -0.14638E-03  5064   0.318E-02    0.151E-02
RMM:   2    -0.230756028473E+04   -0.79173E-05   -0.94881E-05  3612   0.719E-03
 148 F= -.23276348E+04 E0= -.23276348E+04  d E =-.941807E-04  mag=     1.0000
       N       E                     dE             d eps       ncg     rms          rms(c)
DAV:   1    -0.230756028131E+04   -0.44994E-05   -0.20235E-02  4376   0.115E-01    0.464E-02
RMM:   2    -0.230756039272E+04   -0.11142E-03   -0.12321E-03  5792   0.256E-02    0.250E-02
RMM:   3    -0.230756039317E+04   -0.44929E-06   -0.93803E-05  2895   0.863E-03
 149 F= -.23276349E+04 E0= -.23276349E+04  d E =-.105997E-03  mag=     1.0000
       N       E                     dE             d eps       ncg     rms          rms(c)
DAV:   1    -0.230756036195E+04    0.30777E-04   -0.80358E-03  4384   0.721E-02    0.339E-02
RMM:   2    -0.230756040387E+04   -0.41923E-04   -0.48458E-04  5370   0.160E-02    0.207E-02
RMM:   3    -0.230756040332E+04    0.55470E-06   -0.38115E-05  2879   0.554E-03
 150 F= -.23276349E+04 E0= -.23276349E+04  d E =-.114596E-03  mag=     1.0000
