       N       E                     dE             d eps       ncg     rms          rms(c)
DAV:   1     0.121081496791E+05    0.12108E+05   -0.81806E+05  4560   0.138E+03
DAV:   2    -0.122801828376E+04   -0.13336E+05   -0.12811E+05  5360   0.318E+02
DAV:   3    -0.247976144932E+04   -0.12517E+04   -0.12423E+04  5480   0.101E+02
DAV:   4    -0.250574896015E+04   -0.25988E+02   -0.25871E+02  5720   0.178E+01
DAV:   5    -0.250643183234E+04   -0.68287E+00   -0.68172E+00  5720   0.247E+00    0.170E+02
RMM:   6    -0.146862717382E+04    0.10378E+04   -0.18774E+03  4493   0.375E+01    0.730E+01
RMM:   7    -0.163019202280E+04   -0.16156E+03   -0.27291E+02  5034   0.138E+01    0.527E+01
RMM:   8    -0.167658053860E+04   -0.46389E+02   -0.54870E+01  5122   0.722E+00    0.370E+01
RMM:   9    -0.181793521282E+04   -0.14135E+03   -0.71378E+01  4705   0.836E+00    0.257E+01
RMM:  10    -0.195706892564E+04   -0.13913E+03   -0.54437E+01  4773   0.671E+00    0.165E+01
RMM:  11    -0.207419273936E+04   -0.11712E+03   -0.59233E+01  4509   0.568E+00    0.128E+01
RMM:  12    -0.222566320061E+04   -0.15147E+03   -0.13653E+02  4486   0.802E+00    0.679E+00
RMM:  13    -0.228227357278E+04   -0.56610E+02   -0.55249E+01  4482   0.500E+00    0.375E+00
RMM:  14    -0.229379989919E+04   -0.11526E+02   -0.12769E+01  4902   0.297E+00    0.699E+00
RMM:  15    -0.229399745454E+04   -0.19756E+00   -0.18217E+00  5505   0.917E-01    0.677E+00
RMM:  16    -0.229371663491E+04    0.28082E+00   -0.19756E-01  5022   0.246E-01    0.706E+00
RMM:  17    -0.229503673461E+04   -0.13201E+01   -0.11595E+00  4483   0.517E-01    0.593E+00
RMM:  18    -0.229722098092E+04   -0.21842E+01   -0.16677E+00  4491   0.836E-01    0.373E+00
RMM:  19    -0.229772018883E+04   -0.49921E+00   -0.50239E-01  4696   0.618E-01    0.333E+00
RMM:  20    -0.229783466767E+04   -0.11448E+00   -0.19155E-01  5229   0.331E-01    0.252E+00
RMM:  21    -0.229790563153E+04   -0.70964E-01   -0.85565E-02  4886   0.234E-01    0.184E+00
RMM:  22    -0.229796870808E+04   -0.63077E-01   -0.32819E-02  4692   0.168E-01    0.127E+00
RMM:  23    -0.229801924310E+04   -0.50535E-01   -0.29866E-02  4643   0.143E-01    0.691E-01
RMM:  24    -0.229804976166E+04   -0.30519E-01   -0.20650E-02  4796   0.126E-01    0.317E-01
RMM:  25    -0.229806669776E+04   -0.16936E-01   -0.82625E-03  5009   0.771E-02    0.173E-01
RMM:  26    -0.229807390035E+04   -0.72026E-02   -0.20629E-03  4872   0.438E-02    0.131E-01
RMM:  27    -0.229808071072E+04   -0.68104E-02   -0.21560E-03  4555   0.340E-02    0.795E-02
RMM:  28    -0.229808184656E+04   -0.11358E-02   -0.34280E-04  4329   0.227E-02    0.669E-02
RMM:  29    -0.229808227845E+04   -0.43188E-03   -0.12427E-04  3952   0.937E-03    0.525E-02
RMM:  30    -0.229808293514E+04   -0.65669E-03   -0.10161E-04  3721   0.103E-02    0.335E-02
RMM:  31    -0.229808343624E+04   -0.50110E-03   -0.11166E-04  3811   0.896E-03    0.133E-02
RMM:  32    -0.229808355417E+04   -0.11793E-03   -0.34751E-05  3410   0.724E-03    0.788E-03
RMM:  33    -0.229808359770E+04   -0.43537E-04   -0.19579E-05  3152   0.480E-03    0.420E-03
RMM:  34    -0.229808360225E+04   -0.45505E-05   -0.59748E-06  2929   0.366E-03
   1 F= -.23180548E+04 E0= -.23180548E+04  d E =-.161364E-08  mag=     0.9999
       N       E                     dE             d eps       ncg     rms          rms(c)
DAV:   1    -0.229807239292E+04    0.11205E-01   -0.19528E+00  4400   0.383E-01    0.338E-01
RMM:   2    -0.229807348312E+04   -0.10902E-02   -0.12181E-02  4654   0.390E-02    0.234E-01
RMM:   3    -0.229807347773E+04    0.53944E-05   -0.19249E-03  3856   0.218E-02    0.174E-01
RMM:   4    -0.229807335482E+04    0.12291E-03   -0.12198E-03  4001   0.138E-02    0.919E-02
RMM:   5    -0.229807331566E+04    0.39153E-04   -0.27449E-04  3586   0.100E-02    0.328E-02
RMM:   6    -0.229807336838E+04   -0.52718E-04   -0.55144E-05  2912   0.452E-03    0.289E-02
RMM:   7    -0.229807338314E+04   -0.14755E-04   -0.39154E-05  2832   0.331E-03    0.162E-02
RMM:   8    -0.229807338707E+04   -0.39336E-05   -0.16793E-05  2741   0.275E-03
   2 F= -.23180421E+04 E0= -.23180421E+04  d E =-.612278E-09  mag=     1.0000
       N       E                     dE             d eps       ncg     rms          rms(c)
DAV:   1    -0.229806701287E+04    0.63703E-02   -0.75963E+00  4480   0.805E-01    0.673E-01
RMM:   2    -0.229807085531E+04   -0.38424E-02   -0.48932E-02  4886   0.704E-02    0.455E-01
RMM:   3    -0.229807032409E+04    0.53122E-03   -0.74266E-03  4202   0.399E-02    0.347E-01
RMM:   4    -0.229806986354E+04    0.46055E-03   -0.46458E-03  4191   0.245E-02    0.199E-01
RMM:   5    -0.229806958022E+04    0.28332E-03   -0.14286E-03  4226   0.200E-02    0.874E-02
RMM:   6    -0.229806984994E+04   -0.26972E-03   -0.35533E-04  3636   0.944E-03    0.593E-02
RMM:   7    -0.229806992767E+04   -0.77729E-04   -0.14820E-04  3158   0.628E-03    0.501E-02
RMM:   8    -0.229806995912E+04   -0.31450E-04   -0.11626E-04  3046   0.482E-03    0.205E-02
RMM:   9    -0.229806996764E+04   -0.85188E-05   -0.33830E-05  2858   0.386E-03
   3 F= -.23180430E+04 E0= -.23180430E+04  d E =-.260441E-08  mag=     1.0000
       N       E                     dE             d eps       ncg     rms          rms(c)
DAV:   1    -0.229808225612E+04   -0.12297E-01   -0.36661E+00  4400   0.464E-01    0.409E-01
RMM:   2    -0.229808347634E+04   -0.12202E-02   -0.15464E-02  4443   0.397E-02    0.268E-01
RMM:   3    -0.229808340975E+04    0.66591E-04   -0.30460E-03  4062   0.285E-02    0.196E-01
RMM:   4    -0.229808332903E+04    0.80712E-04   -0.11686E-03  4271   0.145E-02    0.132E-01
RMM:   5    -0.229808313893E+04    0.19010E-03   -0.59375E-04  4193   0.102E-02    0.570E-02
RMM:   6    -0.229808317443E+04   -0.35497E-04   -0.11132E-04  3200   0.630E-03    0.306E-02
RMM:   7    -0.229808320461E+04   -0.30179E-04   -0.48739E-05  2872   0.384E-03    0.238E-02
RMM:   8    -0.229808321353E+04   -0.89173E-05   -0.32386E-05  2801   0.314E-03
   4 F= -.23180545E+04 E0= -.23180545E+04  d E =-.285044E-08  mag=     1.0000
       N       E                     dE             d eps       ncg     rms          rms(c)
DAV:   1    -0.229808375446E+04   -0.54985E-03   -0.68835E+00  4400   0.630E-01    0.464E-01
RMM:   2    -0.229808408573E+04   -0.33126E-03   -0.17750E-02  4252   0.376E-02    0.245E-01
RMM:   3    -0.229808377274E+04    0.31298E-03   -0.22130E-03  4653   0.215E-02    0.162E-01
RMM:   4    -0.229808369127E+04    0.81472E-04   -0.89156E-04  3996   0.134E-02    0.764E-02
RMM:   5    -0.229808366054E+04    0.30727E-04   -0.13458E-04  3106   0.650E-03    0.387E-02
RMM:   6    -0.229808365567E+04    0.48684E-05   -0.75037E-05  3002   0.399E-03
   5 F= -.23180548E+04 E0= -.23180548E+04  d E =-.899243E-09  mag=     1.0000
       N       E                     dE             d eps       ncg     rms          rms(c)
DAV:   1    -0.229807850978E+04    0.51508E-02   -0.35426E+00  4400   0.514E-01    0.404E-01
RMM:   2    -0.229807925017E+04   -0.74038E-03   -0.15166E-02  4449   0.369E-02    0.228E-01
RMM:   3    -0.229807903274E+04    0.21742E-03   -0.23140E-03  4824   0.223E-02    0.200E-01
RMM:   4    -0.229807867749E+04    0.35525E-03   -0.10658E-03  4138   0.141E-02    0.898E-02
RMM:   5    -0.229807867176E+04    0.57278E-05   -0.23282E-04  3463   0.794E-03    0.405E-02
RMM:   6    -0.229807872885E+04   -0.57090E-04   -0.56939E-05  3018   0.486E-03    0.224E-02
RMM:   7    -0.229807874271E+04   -0.13862E-04   -0.20139E-05  2790   0.306E-03    0.175E-02
RMM:   8    -0.229807874830E+04   -0.55837E-05   -0.19146E-05  2717   0.245E-03
   6 F= -.23180513E+04 E0= -.23180513E+04  d E =-.163664E-08  mag=     1.0000
       N       E                     dE             d eps       ncg     rms          rms(c)
DAV:   1    -0.229808201219E+04   -0.32695E-02   -0.69739E+00  4480   0.776E-01    0.646E-01
RMM:   2    -0.229808342035E+04   -0.14082E-02   -0.39026E-02  4710   0.579E-02    0.380E-01
RMM:   3    -0.229808197333E+04    0.14470E-02   -0.59053E-03  4670   0.397E-02    0.283E-01
RMM:   4    -0.229808145524E+04    0.51809E-03   -0.29731E-03  4799   0.232E-02    0.151E-01
RMM:   5    -0.229808135512E+04    0.10013E-03   -0.61613E-04  4389   0.119E-02    0.588E-02
RMM:   6    -0.229808148594E+04   -0.13082E-03   -0.15585E-04  3260   0.661E-03    0.406E-02
RMM:   7    -0.229808151347E+04   -0.27538E-04   -0.52410E-05  2932   0.427E-03    0.305E-02
RMM:   8    -0.229808152377E+04   -0.10295E-04   -0.75532E-05  3011   0.429E-03    0.958E-03
RMM:   9    -0.229808152568E+04   -0.19123E-05   -0.77128E-06  2731   0.287E-03
   7 F= -.23180512E+04 E0= -.23180512E+04  d E =-.203767E-08  mag=     1.0000
       N       E                     dE             d eps       ncg     rms          rms(c)
DAV:   1    -0.229807892773E+04    0.25960E-02   -0.36303E+00  4400   0.643E-01    0.676E-01
RMM:   2    -0.229808442798E+04   -0.55002E-02   -0.33297E-02  4400   0.639E-02    0.492E-01
RMM:   3    -0.229808400947E+04    0.41851E-03   -0.75164E-03  4880   0.400E-02    0.412E-01
RMM:   4    -0.229808297069E+04    0.10388E-02   -0.61269E-03  4957   0.317E-02    0.259E-01
RMM:   5    -0.229808253736E+04    0.43333E-03   -0.19600E-03  4765   0.222E-02    0.954E-02
RMM:   6    -0.229808320023E+04   -0.66287E-03   -0.62057E-04  3701   0.125E-02    0.604E-02
RMM:   7    -0.229808333824E+04   -0.13801E-03   -0.20862E-04  3246   0.752E-03    0.319E-02
RMM:   8    -0.229808341198E+04   -0.73744E-04   -0.10605E-04  3166   0.539E-03    0.104E-02
RMM:   9    -0.229808343371E+04   -0.21729E-04   -0.16844E-05  2904   0.380E-03    0.471E-03
RMM:  10    -0.229808344241E+04   -0.87001E-05   -0.48206E-06  2755   0.214E-03
   8 F= -.23180565E+04 E0= -.23180565E+04  d E =-.147239E-08  mag=     1.0000
       N       E                     dE             d eps       ncg     rms          rms(c)
DAV:   1    -0.229807289460E+04    0.10539E-01   -0.72236E+00  4480   0.951E-01    0.105E+00
RMM:   2    -0.229808919243E+04   -0.16298E-01   -0.72493E-02  4329   0.105E-01    0.777E-01
RMM:   3    -0.229808917202E+04    0.20415E-04   -0.13402E-02  4443   0.632E-02    0.581E-01
RMM:   4    -0.229808624806E+04    0.29240E-02   -0.18721E-02  4622   0.561E-02    0.284E-01
RMM:   5    -0.229808790344E+04   -0.16554E-02   -0.49854E-03  4798   0.370E-02    0.169E-01
RMM:   6    -0.229808779931E+04    0.10413E-03   -0.10398E-03  4031   0.167E-02    0.819E-02
RMM:   7    -0.229808789147E+04   -0.92159E-04   -0.36692E-04  3430   0.895E-03    0.469E-02
RMM:   8    -0.229808793829E+04   -0.46826E-04   -0.21111E-04  3364   0.788E-03    0.174E-02
RMM:   9    -0.229808794818E+04   -0.98824E-05   -0.29940E-05  3015   0.434E-03
   9 F= -.23180566E+04 E0= -.23180566E+04  d E =-.755739E-09  mag=     1.0000
       N       E                     dE             d eps       ncg     rms          rms(c)
DAV:   1    -0.229807964400E+04    0.82943E-02   -0.34367E+00  4400   0.694E-01    0.649E-01
RMM:   2    -0.229808260015E+04   -0.29562E-02   -0.23298E-02  4262   0.569E-02    0.441E-01
RMM:   3    -0.229808260549E+04   -0.53364E-05   -0.60312E-03  4637   0.371E-02    0.365E-01
RMM:   4    -0.229808176913E+04    0.83635E-03   -0.51648E-03  4988   0.298E-02    0.218E-01
RMM:   5    -0.229808158293E+04    0.18620E-03   -0.16565E-03  4759   0.201E-02    0.110E-01
RMM:   6    -0.229808192439E+04   -0.34146E-03   -0.58297E-04  3632   0.115E-02    0.679E-02
RMM:   7    -0.229808202761E+04   -0.10322E-03   -0.21269E-04  3193   0.701E-03    0.395E-02
RMM:   8    -0.229808208271E+04   -0.55098E-04   -0.14173E-04  3205   0.592E-03    0.136E-02
RMM:   9    -0.229808209265E+04   -0.99418E-05   -0.27504E-05  2920   0.394E-03
  10 F= -.23180531E+04 E0= -.23180531E+04  d E =-.170149E-07  mag=     1.0000
       N       E                     dE             d eps       ncg     rms          rms(c)
DAV:   1    -0.229807613703E+04    0.59457E-02   -0.75108E+00  4400   0.905E-01    0.648E-01
RMM:   2    -0.229808112171E+04   -0.49847E-02   -0.38428E-02  4243   0.754E-02    0.315E-01
RMM:   3    -0.229808149978E+04   -0.37807E-03   -0.35244E-03  4600   0.368E-02    0.196E-01
RMM:   4    -0.229808172742E+04   -0.22764E-03   -0.13398E-03  4479   0.170E-02    0.113E-01
RMM:   5    -0.229808160385E+04    0.12357E-03   -0.35720E-04  3557   0.932E-03    0.411E-02
RMM:   6    -0.229808161545E+04   -0.11599E-04   -0.60391E-05  2983   0.479E-03    0.237E-02
RMM:   7    -0.229808162096E+04   -0.55127E-05   -0.24048E-05  2865   0.289E-03
  11 F= -.23180530E+04 E0= -.23180530E+04  d E =-.120130E-09  mag=     1.0000
       N       E                     dE             d eps       ncg     rms          rms(c)
DAV:   1    -0.229806010363E+04    0.21512E-01   -0.39902E+00  4400   0.731E-01    0.478E-01
RMM:   2    -0.229806371574E+04   -0.36121E-02   -0.27902E-02  4315   0.674E-02    0.290E-01
RMM:   3    -0.229806339683E+04    0.31892E-03   -0.29206E-03  5164   0.272E-02    0.181E-01
RMM:   4    -0.229806322780E+04    0.16902E-03   -0.12063E-03  4440   0.160E-02    0.105E-01
RMM:   5    -0.229806324416E+04   -0.16355E-04   -0.30869E-04  3573   0.950E-03    0.277E-02
RMM:   6    -0.229806329633E+04   -0.52172E-04   -0.41465E-05  2991   0.406E-03    0.145E-02
RMM:   7    -0.229806331049E+04   -0.14159E-04   -0.12369E-05  2794   0.267E-03    0.670E-03
RMM:   8    -0.229806331368E+04   -0.31880E-05   -0.44548E-06  2697   0.193E-03
  12 F= -.23180340E+04 E0= -.23180340E+04  d E =-.106895E-08  mag=     1.0000
       N       E                     dE             d eps       ncg     rms          rms(c)
DAV:   1    -0.229805965869E+04    0.36518E-02   -0.84023E+00  4480   0.127E+00    0.863E-01
RMM:   2    -0.229806625410E+04   -0.65954E-02   -0.70398E-02  4562   0.112E-01    0.602E-01
RMM:   3    -0.229806312645E+04    0.31277E-02   -0.10486E-02  5743   0.385E-02    0.380E-01
RMM:   4    -0.229806156972E+04    0.15567E-02   -0.39107E-03  5058   0.252E-02    0.172E-01
RMM:   5    -0.229806170534E+04   -0.13562E-03   -0.94171E-04  4125   0.138E-02    0.472E-02
RMM:   6    -0.229806192484E+04   -0.21950E-03   -0.12388E-04  3439   0.619E-03    0.211E-02
RMM:   7    -0.229806197264E+04   -0.47792E-04   -0.29229E-05  2966   0.393E-03    0.140E-02
RMM:   8    -0.229806198825E+04   -0.15613E-04   -0.11207E-05  2800   0.259E-03    0.105E-02
RMM:   9    -0.229806200048E+04   -0.12227E-04   -0.10136E-05  2760   0.232E-03    0.411E-03
RMM:  10    -0.229806200450E+04   -0.40214E-05   -0.28392E-06  2670   0.193E-03
  13 F= -.23180335E+04 E0= -.23180335E+04  d E =-.220358E-08  mag=     1.0000
       N       E                     dE             d eps       ncg     rms          rms(c)
DAV:   1    -0.229808101840E+04   -0.19018E-01   -0.22777E+00  4400   0.634E-01    0.501E-01
RMM:   2    -0.229808308074E+04   -0.20623E-02   -0.21366E-02  4281   0.595E-02    0.319E-01
RMM:   3    -0.229808243738E+04    0.64335E-03   -0.30799E-03  5279   0.231E-02    0.242E-01
RMM:   4    -0.229808185458E+04    0.58280E-03   -0.16864E-03  4760   0.170E-02    0.109E-01
RMM:   5    -0.229808189151E+04   -0.36925E-04   -0.37531E-04  3562   0.982E-03    0.356E-02
RMM:   6    -0.229808198377E+04   -0.92259E-04   -0.10222E-04  3117   0.536E-03    0.280E-02
RMM:   7    -0.229808199419E+04   -0.10418E-04   -0.24020E-05  2822   0.342E-03    0.214E-02
RMM:   8    -0.229808200401E+04   -0.98213E-05   -0.37731E-05  2881   0.311E-03
  14 F= -.23180532E+04 E0= -.23180532E+04  d E =-.156486E-08  mag=     1.0000
       N       E                     dE             d eps       ncg     rms          rms(c)
DAV:   1    -0.229808260455E+04   -0.61036E-03   -0.11919E+00  4680   0.423E-01    0.440E-01
RMM:   2    -0.229808289378E+04   -0.28923E-03   -0.88446E-03  4146   0.350E-02    0.305E-01
RMM:   3    -0.229808225771E+04    0.63607E-03   -0.33741E-03  4529   0.235E-02    0.168E-01
RMM:   4    -0.229808212740E+04    0.13032E-03   -0.12287E-03  4038   0.180E-02    0.113E-01
RMM:   5    -0.229808204340E+04    0.83994E-04   -0.28589E-04  3515   0.883E-03    0.470E-02
RMM:   6    -0.229808212551E+04   -0.82110E-04   -0.92447E-05  2949   0.490E-03    0.351E-02
RMM:   7    -0.229808215996E+04   -0.34448E-04   -0.57625E-05  2847   0.393E-03    0.182E-02
RMM:   8    -0.229808217422E+04   -0.14258E-04   -0.36244E-05  2879   0.331E-03    0.451E-03
RMM:   9    -0.229808218067E+04   -0.64577E-05   -0.45743E-06  2600   0.215E-03
  15 F= -.23180533E+04 E0= -.23180533E+04  d E =-.163366E-08  mag=     1.0000
       N       E                     dE             d eps       ncg     rms          rms(c)
DAV:   1    -0.229808245050E+04   -0.27629E-03   -0.59505E-01  4400   0.290E-01    0.313E-01
RMM:   2    -0.229808240182E+04    0.48688E-04   -0.34783E-03  3917   0.222E-02    0.198E-01
RMM:   3    -0.229808228280E+04    0.11902E-03   -0.11882E-03  4303   0.138E-02    0.137E-01
RMM:   4    -0.229808207439E+04    0.20841E-03   -0.61568E-04  3852   0.110E-02    0.610E-02
RMM:   5    -0.229808206465E+04    0.97429E-05   -0.10664E-04  3089   0.571E-03    0.255E-02
RMM:   6    -0.229808208429E+04   -0.19639E-04   -0.33333E-05  2794   0.330E-03    0.208E-02
RMM:   7    -0.229808209020E+04   -0.59131E-05   -0.15350E-05  2672   0.237E-03
  16 F= -.23180534E+04 E0= -.23180534E+04  d E =-.308860E-09  mag=     1.0000
       N       E                     dE             d eps       ncg     rms          rms(c)
DAV:   1    -0.229808304327E+04   -0.95898E-03   -0.11935E+00  4560   0.419E-01    0.410E-01
RMM:   2    -0.229808307579E+04   -0.32520E-04   -0.66807E-03  4076   0.329E-02    0.255E-01
RMM:   3    -0.229808295652E+04    0.11927E-03   -0.17945E-03  4958   0.155E-02    0.203E-01
RMM:   4    -0.229808258245E+04    0.37407E-03   -0.95836E-04  4023   0.137E-02    0.742E-02
RMM:   5    -0.229808250694E+04    0.75508E-04   -0.13044E-04  3174   0.544E-03    0.153E-02
RMM:   6    -0.229808250798E+04   -0.10405E-05   -0.15812E-05  2790   0.280E-03
  17 F= -.23180535E+04 E0= -.23180535E+04  d E =-.769235E-08  mag=     1.0000
       N       E                     dE             d eps       ncg     rms          rms(c)
DAV:   1    -0.229807289611E+04    0.96108E-02   -0.61348E-01  4640   0.299E-01    0.339E-01
RMM:   2    -0.229807249722E+04    0.39890E-03   -0.63111E-03  4754   0.303E-02    0.241E-01
RMM:   3    -0.229807206468E+04    0.43254E-03   -0.15189E-03  4287   0.178E-02    0.155E-01
RMM:   4    -0.229807190173E+04    0.16295E-03   -0.55122E-04  3599   0.104E-02    0.741E-02
RMM:   5    -0.229807183583E+04    0.65901E-04   -0.11440E-04  3150   0.520E-03    0.140E-02
RMM:   6    -0.229807183405E+04    0.17808E-05   -0.13924E-05  2709   0.260E-03
  18 F= -.23180425E+04 E0= -.23180425E+04  d E =-.116637E-08  mag=     1.0000
       N       E                     dE             d eps       ncg     rms          rms(c)
DAV:   1    -0.229808045062E+04   -0.86148E-02   -0.12706E+00  5040   0.442E-01    0.680E-01
RMM:   2    -0.229807692193E+04    0.35287E-02   -0.32839E-02  5106   0.642E-02    0.520E-01
RMM:   3    -0.229807323927E+04    0.36827E-02   -0.71091E-03  5256   0.371E-02    0.279E-01
RMM:   4    -0.229807248422E+04    0.75505E-03   -0.19425E-03  4184   0.170E-02    0.147E-01
RMM:   5    -0.229807220353E+04    0.28069E-03   -0.51786E-04  3802   0.867E-03    0.317E-02
RMM:   6    -0.229807220092E+04    0.26122E-05   -0.65788E-05  3026   0.476E-03
  19 F= -.23180439E+04 E0= -.23180439E+04  d E =-.213814E-08  mag=     1.0000
