       N       E                     dE             d eps       ncg     rms          rms(c)
DAV:   1     0.128265929255E+05    0.12827E+05   -0.83372E+05  4504   0.144E+03
DAV:   2    -0.105634662323E+04   -0.13883E+05   -0.13284E+05  5136   0.330E+02
DAV:   3    -0.247002798699E+04   -0.14137E+04   -0.13989E+04  5384   0.112E+02
DAV:   4    -0.251495584336E+04   -0.44928E+02   -0.44704E+02  6760   0.298E+01
DAV:   5    -0.251568966555E+04   -0.73382E+00   -0.73277E+00  6104   0.334E+00    0.170E+02
RMM:   6    -0.148127925773E+04    0.10344E+04   -0.19414E+03  4417   0.385E+01    0.724E+01
RMM:   7    -0.165042241553E+04   -0.16914E+03   -0.29220E+02  5005   0.145E+01    0.485E+01
RMM:   8    -0.170892092485E+04   -0.58499E+02   -0.44750E+01  5238   0.727E+00    0.395E+01
RMM:   9    -0.181735095210E+04   -0.10843E+03   -0.72381E+01  4943   0.818E+00    0.349E+01
RMM:  10    -0.192660832405E+04   -0.10926E+03   -0.53823E+01  5318   0.711E+00    0.261E+01
RMM:  11    -0.196704704810E+04   -0.40439E+02   -0.17377E+01  5391   0.361E+00    0.197E+01
RMM:  12    -0.206060731754E+04   -0.93560E+02   -0.36104E+01  4812   0.470E+00    0.148E+01
RMM:  13    -0.216274780516E+04   -0.10214E+03   -0.60354E+01  4605   0.590E+00    0.111E+01
RMM:  14    -0.227190877425E+04   -0.10916E+03   -0.10370E+02  4436   0.699E+00    0.678E+00
RMM:  15    -0.229682415677E+04   -0.24915E+02   -0.27067E+01  4497   0.452E+00    0.376E+00
RMM:  16    -0.230412274843E+04   -0.72986E+01   -0.10364E+01  4826   0.198E+00    0.350E+00
RMM:  17    -0.230595298681E+04   -0.18302E+01   -0.21665E+00  4752   0.114E+00    0.356E+00
RMM:  18    -0.230640810866E+04   -0.45512E+00   -0.52307E-01  5543   0.423E-01    0.320E+00
RMM:  19    -0.230647826846E+04   -0.70160E-01   -0.73132E-02  5959   0.136E-01    0.332E+00
RMM:  20    -0.230641367474E+04    0.64594E-01   -0.10727E-01  4526   0.163E-01    0.239E+00
RMM:  21    -0.230765249657E+04   -0.12388E+01   -0.72274E-01  4442   0.452E-01    0.174E+00
RMM:  22    -0.230781431323E+04   -0.16182E+00   -0.29629E-01  4463   0.304E-01    0.194E+00
RMM:  23    -0.230756292941E+04    0.25138E+00   -0.35192E-01  4647   0.243E-01    0.278E+00
RMM:  24    -0.230781147759E+04   -0.24855E+00   -0.22423E-01  4683   0.149E-01    0.219E+00
RMM:  25    -0.230801722719E+04   -0.20575E+00   -0.32002E-01  4514   0.214E-01    0.148E+00
RMM:  26    -0.230809197792E+04   -0.74751E-01   -0.23184E-01  4692   0.232E-01    0.239E+00
RMM:  27    -0.230809269250E+04   -0.71458E-03   -0.20690E-02  4882   0.996E-02    0.238E+00
RMM:  28    -0.230809109630E+04    0.15962E-02   -0.30258E-03  4921   0.196E-02    0.238E+00
RMM:  29    -0.230808743176E+04    0.36645E-02   -0.56449E-04  4907   0.195E-02    0.234E+00
RMM:  30    -0.230808734307E+04    0.88683E-04   -0.79229E-05  3180   0.710E-03    0.234E+00
RMM:  31    -0.230808674903E+04    0.59404E-03   -0.15454E-04  3254   0.724E-03    0.236E+00
RMM:  32    -0.230809239574E+04   -0.56467E-02   -0.12973E-01  4572   0.197E-01    0.131E+00
RMM:  33    -0.230807717520E+04    0.15221E-01   -0.67447E-02  4546   0.161E-01    0.118E+00
RMM:  34    -0.230809562087E+04   -0.18446E-01   -0.27427E-02  4569   0.117E-01    0.123E+00
RMM:  35    -0.230810264232E+04   -0.70214E-02   -0.92864E-03  4650   0.965E-02    0.108E+00
RMM:  36    -0.230812254674E+04   -0.19904E-01   -0.20494E-02  4533   0.817E-02    0.116E+00
RMM:  37    -0.230812522343E+04   -0.26767E-02   -0.89711E-03  4656   0.569E-02    0.929E-01
RMM:  38    -0.230813071777E+04   -0.54943E-02   -0.11543E-02  4516   0.469E-02    0.643E-01
RMM:  39    -0.230813853736E+04   -0.78196E-02   -0.43038E-03  4660   0.432E-02    0.379E-01
RMM:  40    -0.230814440073E+04   -0.58634E-02   -0.32548E-03  4743   0.357E-02    0.307E-01
RMM:  41    -0.230814686554E+04   -0.24648E-02   -0.14087E-03  4716   0.246E-02    0.180E-01
RMM:  42    -0.230814890788E+04   -0.20423E-02   -0.91900E-04  4362   0.171E-02    0.132E-01
RMM:  43    -0.230815209876E+04   -0.31909E-02   -0.13832E-03  4019   0.204E-02    0.385E-01
RMM:  44    -0.230815350720E+04   -0.14084E-02   -0.12803E-03  4528   0.194E-02    0.428E-01
RMM:  45    -0.230815338636E+04    0.12084E-03   -0.88639E-05  3081   0.653E-03    0.434E-01
RMM:  46    -0.230815244340E+04    0.94296E-03   -0.61135E-04  3934   0.113E-02    0.411E-01
RMM:  47    -0.230815179658E+04    0.64682E-03   -0.63310E-04  3869   0.123E-02    0.421E-01
RMM:  48    -0.230815200699E+04   -0.21041E-03   -0.33649E-05  2876   0.468E-03    0.430E-01
RMM:  49    -0.230815137921E+04    0.62778E-03   -0.63310E-04  3949   0.986E-03    0.427E-01
RMM:  50    -0.230815179634E+04   -0.41713E-03   -0.16989E-04  3060   0.618E-03    0.446E-01
RMM:  51    -0.230814933521E+04    0.24611E-02   -0.13274E-02  4876   0.456E-02    0.422E-01
RMM:  52    -0.230814855132E+04    0.78389E-03   -0.23971E-03  4381   0.273E-02    0.461E-01
RMM:  53    -0.230814894853E+04   -0.39721E-03   -0.22895E-04  3157   0.666E-03    0.468E-01
RMM:  54    -0.230814867706E+04    0.27147E-03   -0.37249E-04  3510   0.870E-03    0.475E-01
RMM:  55    -0.230814927653E+04   -0.59947E-03   -0.72074E-04  3978   0.113E-02    0.451E-01
RMM:  56    -0.230814931719E+04   -0.40666E-04   -0.33010E-04  3286   0.886E-03    0.496E-01
RMM:  57    -0.230814930746E+04    0.97386E-05   -0.27206E-05  2866   0.413E-03
   1 F= -.23289010E+04 E0= -.23288883E+04  d E =-.232890E+04  mag=     3.5162
       N       E                     dE             d eps       ncg     rms          rms(c)
DAV:   1    -0.230807830422E+04    0.71013E-01   -0.67563E+00  4720   0.184E+00    0.822E-01
RMM:   2    -0.230824651256E+04   -0.16821E+00   -0.17080E+00  6523   0.542E-01    0.119E+00
RMM:   3    -0.230825973696E+04   -0.13224E-01   -0.21798E-01  6020   0.223E-01    0.646E-01
RMM:   4    -0.230825807487E+04    0.16621E-02   -0.18323E-02  5921   0.490E-02    0.609E-01
RMM:   5    -0.230825579158E+04    0.22833E-02   -0.54666E-03  5372   0.324E-02    0.383E-01
RMM:   6    -0.230825534033E+04    0.45125E-03   -0.52855E-03  5681   0.296E-02    0.266E-01
RMM:   7    -0.230825464042E+04    0.69991E-03   -0.12914E-03  4568   0.180E-02    0.185E-01
RMM:   8    -0.230825435275E+04    0.28768E-03   -0.38692E-04  4260   0.948E-03    0.887E-02
RMM:   9    -0.230825441695E+04   -0.64208E-04   -0.34087E-04  3620   0.112E-02    0.313E-02
RMM:  10    -0.230825464519E+04   -0.22824E-03   -0.91189E-05  3186   0.621E-03    0.356E-02
RMM:  11    -0.230825489016E+04   -0.24497E-03   -0.42996E-05  3066   0.501E-03    0.273E-02
RMM:  12    -0.230825507750E+04   -0.18734E-03   -0.40915E-05  3094   0.474E-03    0.272E-02
RMM:  13    -0.230825517916E+04   -0.10166E-03   -0.28697E-05  2923   0.436E-03    0.229E-02
RMM:  14    -0.230825527460E+04   -0.95444E-04   -0.61631E-05  3191   0.490E-03    0.716E-03
RMM:  15    -0.230825529670E+04   -0.22098E-04   -0.12827E-05  2806   0.391E-03    0.574E-03
RMM:  16    -0.230825530299E+04   -0.62863E-05   -0.32506E-06  2486   0.195E-03
   2 F= -.23290056E+04 E0= -.23289991E+04  d E =-.104590E+00  mag=     3.7846
       N       E                     dE             d eps       ncg     rms          rms(c)
DAV:   1    -0.230802723756E+04    0.22806E+00   -0.10086E+01  4592   0.224E+00    0.105E+00
RMM:   2    -0.230827384361E+04   -0.24661E+00   -0.25798E+00  6539   0.665E-01    0.810E-01
RMM:   3    -0.230830314076E+04   -0.29297E-01   -0.33653E-01  6013   0.273E-01    0.897E-01
RMM:   4    -0.230829819637E+04    0.49444E-02   -0.27843E-02  6077   0.591E-02    0.526E-01
RMM:   5    -0.230829545084E+04    0.27455E-02   -0.67251E-03  5383   0.354E-02    0.283E-01
RMM:   6    -0.230829481795E+04    0.63289E-03   -0.43242E-03  5333   0.265E-02    0.249E-01
RMM:   7    -0.230829429961E+04    0.51834E-03   -0.22761E-03  5139   0.217E-02    0.150E-01
RMM:   8    -0.230829420324E+04    0.96374E-04   -0.25220E-04  3479   0.885E-03    0.717E-02
RMM:   9    -0.230829438835E+04   -0.18511E-03   -0.20765E-04  3288   0.938E-03    0.291E-02
RMM:  10    -0.230829459579E+04   -0.20745E-03   -0.73573E-05  3129   0.566E-03    0.162E-02
RMM:  11    -0.230829472587E+04   -0.13007E-03   -0.17134E-05  2903   0.416E-03    0.130E-02
RMM:  12    -0.230829488577E+04   -0.15990E-03   -0.29355E-05  3077   0.403E-03    0.738E-03
RMM:  13    -0.230829493839E+04   -0.52617E-04   -0.10868E-05  2842   0.373E-03    0.598E-03
RMM:  14    -0.230829495778E+04   -0.19394E-04   -0.58675E-06  2682   0.263E-03    0.400E-03
RMM:  15    -0.230829497030E+04   -0.12514E-04   -0.42767E-06  2598   0.237E-03    0.224E-03
RMM:  16    -0.230829497271E+04   -0.24160E-05   -0.18753E-06  2468   0.183E-03
   3 F= -.23290438E+04 E0= -.23290423E+04  d E =-.142780E+00  mag=     3.9655
       N       E                     dE             d eps       ncg     rms          rms(c)
DAV:   1    -0.230828871478E+04    0.62555E-02   -0.27956E-01  4736   0.373E-01    0.169E-01
RMM:   2    -0.230829562707E+04   -0.69123E-02   -0.71741E-02  6347   0.107E-01    0.151E-01
RMM:   3    -0.230829632409E+04   -0.69702E-03   -0.83840E-03  4413   0.538E-02    0.141E-01
RMM:   4    -0.230829619859E+04    0.12550E-03   -0.73300E-04  3213   0.105E-02    0.726E-02
RMM:   5    -0.230829613803E+04    0.60567E-04   -0.14237E-04  3039   0.645E-03    0.422E-02
RMM:   6    -0.230829613905E+04   -0.10246E-05   -0.79293E-05  2938   0.521E-03
   4 F= -.23290452E+04 E0= -.23290432E+04  d E =-.144178E+00  mag=     3.9601
       N       E                     dE             d eps       ncg     rms          rms(c)
DAV:   1    -0.230827995506E+04    0.16183E-01   -0.32154E+00  4528   0.179E+00    0.713E-01
RMM:   2    -0.230831682271E+04   -0.36868E-01   -0.40899E-01  5974   0.402E-01    0.358E-01
RMM:   3    -0.230831902909E+04   -0.22064E-02   -0.41688E-02  5582   0.163E-01    0.358E-01
RMM:   4    -0.230831819947E+04    0.82962E-03   -0.51252E-03  5888   0.406E-02    0.288E-01
RMM:   5    -0.230831761602E+04    0.58345E-03   -0.18767E-03  5026   0.263E-02    0.203E-01
RMM:   6    -0.230831723663E+04    0.37939E-03   -0.14310E-03  5330   0.227E-02    0.923E-02
RMM:   7    -0.230831711580E+04    0.12083E-03   -0.22658E-04  4572   0.118E-02    0.248E-02
RMM:   8    -0.230831710389E+04    0.11911E-04   -0.40846E-05  2993   0.566E-03    0.152E-02
RMM:   9    -0.230831710057E+04    0.33132E-05   -0.28296E-05  2961   0.476E-03
   5 F= -.23290665E+04 E0= -.23290657E+04  d E =-.213207E-01  mag=     3.9774
       N       E                     dE             d eps       ncg     rms          rms(c)
DAV:   1    -0.230831709963E+04    0.42594E-05   -0.19296E-03  5432   0.445E-02    0.189E-02
RMM:   2    -0.230831712336E+04   -0.23733E-04   -0.25148E-04  4146   0.111E-02    0.947E-03
RMM:   3    -0.230831712655E+04   -0.31909E-05   -0.28290E-05  2854   0.588E-03
   6 F= -.23290665E+04 E0= -.23290656E+04  d E =-.213376E-01  mag=     3.9787
       N       E                     dE             d eps       ncg     rms          rms(c)
DAV:   1    -0.230831336296E+04    0.37604E-02   -0.22051E+00  4512   0.136E+00    0.458E-01
RMM:   2    -0.230834259780E+04   -0.29235E-01   -0.29703E-01  6215   0.308E-01    0.519E-01
RMM:   3    -0.230834322764E+04   -0.62984E-03   -0.30425E-02  5989   0.107E-01    0.352E-01
RMM:   4    -0.230834225708E+04    0.97056E-03   -0.36947E-03  5485   0.271E-02    0.188E-01
RMM:   5    -0.230834203901E+04    0.21807E-03   -0.77408E-04  4269   0.138E-02    0.140E-01
RMM:   6    -0.230834177531E+04    0.26369E-03   -0.74977E-04  5145   0.163E-02    0.394E-02
RMM:   7    -0.230834177561E+04   -0.29308E-06   -0.13768E-04  3319   0.918E-03    0.181E-02
RMM:   8    -0.230834176923E+04    0.63803E-05   -0.19832E-05  2881   0.413E-03
   7 F= -.23290920E+04 E0= -.23290916E+04  d E =-.255051E-01  mag=     3.9880
       N       E                     dE             d eps       ncg     rms          rms(c)
DAV:   1    -0.230810717940E+04    0.23460E+00   -0.19812E+01  4456   0.408E+00    0.137E+00
RMM:   2    -0.230836582299E+04   -0.25864E+00   -0.26694E+00  6199   0.902E-01    0.145E+00
RMM:   3    -0.230837923292E+04   -0.13410E-01   -0.30038E-01  6053   0.331E-01    0.111E+00
RMM:   4    -0.230836827209E+04    0.10961E-01   -0.32886E-02  6082   0.819E-02    0.512E-01
RMM:   5    -0.230836696188E+04    0.13102E-02   -0.66235E-03  5468   0.372E-02    0.433E-01
RMM:   6    -0.230836458616E+04    0.23757E-02   -0.63350E-03  5659   0.433E-02    0.148E-01
RMM:   7    -0.230836450333E+04    0.82833E-04   -0.15115E-03  4815   0.236E-02    0.586E-02
RMM:   8    -0.230836443484E+04    0.68485E-04   -0.16128E-04  3833   0.103E-02    0.388E-02
RMM:   9    -0.230836441602E+04    0.18829E-04   -0.15897E-04  3506   0.845E-03    0.141E-02
RMM:  10    -0.230836442439E+04   -0.83753E-05   -0.29174E-05  2919   0.485E-03
   8 F= -.23291173E+04 E0= -.23291172E+04  d E =-.507596E-01  mag=     3.9970
       N       E                     dE             d eps       ncg     rms          rms(c)
DAV:   1    -0.230836745609E+04   -0.30401E-02   -0.69317E-01  4640   0.781E-01    0.270E-01
RMM:   2    -0.230837676972E+04   -0.93136E-02   -0.92932E-02  6296   0.178E-01    0.316E-01
RMM:   3    -0.230837666031E+04    0.10940E-03   -0.99140E-03  5852   0.606E-02    0.188E-01
RMM:   4    -0.230837642383E+04    0.23648E-03   -0.12731E-03  4318   0.162E-02    0.120E-01
RMM:   5    -0.230837632016E+04    0.10367E-03   -0.25071E-04  3254   0.913E-03    0.770E-02
RMM:   6    -0.230837624701E+04    0.73153E-04   -0.24467E-04  4202   0.106E-02    0.221E-02
RMM:   7    -0.230837624821E+04   -0.12051E-05   -0.49064E-05  2937   0.711E-03
   9 F= -.23291294E+04 E0= -.23291294E+04  d E =-.121774E-01  mag=     3.9986
       N       E                     dE             d eps       ncg     rms          rms(c)
DAV:   1    -0.230831594382E+04    0.60303E-01   -0.62302E+00  4460   0.234E+00    0.815E-01
RMM:   2    -0.230839980061E+04   -0.83857E-01   -0.84105E-01  6231   0.533E-01    0.945E-01
RMM:   3    -0.230839922515E+04    0.57547E-03   -0.91229E-02  6081   0.188E-01    0.577E-01
RMM:   4    -0.230839673380E+04    0.24913E-02   -0.11399E-02  5897   0.485E-02    0.344E-01
RMM:   5    -0.230839592114E+04    0.81266E-03   -0.22933E-03  5265   0.229E-02    0.235E-01
RMM:   6    -0.230839520875E+04    0.71239E-03   -0.20154E-03  5209   0.268E-02    0.704E-02
RMM:   7    -0.230839519802E+04    0.10736E-04   -0.46786E-04  4381   0.163E-02    0.314E-02
RMM:   8    -0.230839517484E+04    0.23171E-04   -0.61169E-05  3089   0.602E-03    0.187E-02
RMM:   9    -0.230839517017E+04    0.46730E-05   -0.32699E-05  2909   0.461E-03
  10 F= -.23291494E+04 E0= -.23291494E+04  d E =-.321713E-01  mag=     3.9996
       N       E                     dE             d eps       ncg     rms          rms(c)
DAV:   1    -0.230838892434E+04    0.62505E-02   -0.56159E-01  4592   0.702E-01    0.244E-01
RMM:   2    -0.230839647337E+04   -0.75490E-02   -0.75611E-02  6259   0.159E-01    0.281E-01
RMM:   3    -0.230839633126E+04    0.14211E-03   -0.76217E-03  5753   0.541E-02    0.166E-01
RMM:   4    -0.230839614085E+04    0.19041E-03   -0.10074E-03  3981   0.145E-02    0.105E-01
RMM:   5    -0.230839606532E+04    0.75530E-04   -0.20336E-04  3125   0.845E-03    0.702E-02
RMM:   6    -0.230839600161E+04    0.63705E-04   -0.19206E-04  4053   0.960E-03    0.198E-02
RMM:   7    -0.230839600119E+04    0.41866E-06   -0.39846E-05  2924   0.663E-03
  11 F= -.23291506E+04 E0= -.23291506E+04  d E =-.333288E-01  mag=     3.9998
       N       E                     dE             d eps       ncg     rms          rms(c)
DAV:   1    -0.230840286661E+04   -0.68650E-02   -0.31429E-01  4560   0.536E-01    0.216E-01
RMM:   2    -0.230840783054E+04   -0.49639E-02   -0.51939E-02  6168   0.123E-01    0.146E-01
RMM:   3    -0.230840818948E+04   -0.35894E-03   -0.61428E-03  5495   0.506E-02    0.141E-01
RMM:   4    -0.230840799676E+04    0.19272E-03   -0.62214E-04  3896   0.124E-02    0.828E-02
RMM:   5    -0.230840796275E+04    0.34009E-04   -0.15503E-04  2992   0.787E-03    0.590E-02
RMM:   6    -0.230840792533E+04    0.37417E-04   -0.11584E-04  3230   0.761E-03    0.214E-02
RMM:   7    -0.230840792403E+04    0.12992E-05   -0.28020E-05  2929   0.559E-03
  12 F= -.23291626E+04 E0= -.23291626E+04  d E =-.120228E-01  mag=     3.9999
       N       E                     dE             d eps       ncg     rms          rms(c)
DAV:   1    -0.230837987052E+04    0.28055E-01   -0.28260E+00  4460   0.161E+00    0.650E-01
RMM:   2    -0.230842501638E+04   -0.45146E-01   -0.47333E-01  6122   0.370E-01    0.430E-01
RMM:   3    -0.230842788044E+04   -0.28641E-02   -0.54969E-02  5908   0.152E-01    0.403E-01
RMM:   4    -0.230842632373E+04    0.15567E-02   -0.56434E-03  5825   0.359E-02    0.250E-01
RMM:   5    -0.230842597974E+04    0.34398E-03   -0.13096E-03  5033   0.187E-02    0.173E-01
RMM:   6    -0.230842564303E+04    0.33672E-03   -0.95167E-04  5146   0.180E-02    0.646E-02
RMM:   7    -0.230842561604E+04    0.26986E-04   -0.20684E-04  4244   0.105E-02    0.242E-02
RMM:   8    -0.230842561530E+04    0.74036E-06   -0.26789E-05  2913   0.538E-03
  13 F= -.23291806E+04 E0= -.23291806E+04  d E =-.300209E-01  mag=     4.0000
       N       E                     dE             d eps       ncg     rms          rms(c)
DAV:   1    -0.230843017322E+04   -0.45572E-02   -0.60011E-01  4512   0.735E-01    0.272E-01
RMM:   2    -0.230843690878E+04   -0.67356E-02   -0.72408E-02  5964   0.153E-01    0.161E-01
RMM:   3    -0.230843750576E+04   -0.59698E-03   -0.86463E-03  5689   0.682E-02    0.173E-01
RMM:   4    -0.230843721337E+04    0.29239E-03   -0.89288E-04  4841   0.159E-02    0.932E-02
RMM:   5    -0.230843718676E+04    0.26614E-04   -0.30348E-04  3811   0.109E-02    0.837E-02
RMM:   6    -0.230843710998E+04    0.76782E-04   -0.19308E-04  3870   0.913E-03    0.267E-02
RMM:   7    -0.230843710568E+04    0.42970E-05   -0.32047E-05  2957   0.608E-03
  14 F= -.23291923E+04 E0= -.23291923E+04  d E =-.117166E-01  mag=     4.0000
       N       E                     dE             d eps       ncg     rms          rms(c)
DAV:   1    -0.230842163507E+04    0.15475E-01   -0.19866E+00  4456   0.134E+00    0.495E-01
RMM:   2    -0.230844408380E+04   -0.22449E-01   -0.24130E-01  5930   0.278E-01    0.294E-01
RMM:   3    -0.230844601089E+04   -0.19271E-02   -0.27909E-02  5741   0.122E-01    0.322E-01
RMM:   4    -0.230844500168E+04    0.10092E-02   -0.29349E-03  5756   0.286E-02    0.168E-01
RMM:   5    -0.230844491554E+04    0.86136E-04   -0.10058E-03  5028   0.181E-02    0.152E-01
RMM:   6    -0.230844465231E+04    0.26323E-03   -0.63322E-04  4868   0.151E-02    0.469E-02
RMM:   7    -0.230844463354E+04    0.18774E-04   -0.99935E-05  3650   0.888E-03    0.197E-02
RMM:   8    -0.230844463081E+04    0.27309E-05   -0.17911E-05  2898   0.477E-03
  15 F= -.23292003E+04 E0= -.23292003E+04  d E =-.196592E-01  mag=     4.0000
       N       E                     dE             d eps       ncg     rms          rms(c)
DAV:   1    -0.230844753966E+04   -0.29061E-02   -0.38860E-01  4528   0.555E-01    0.180E-01
RMM:   2    -0.230845176769E+04   -0.42280E-02   -0.45047E-02  6277   0.119E-01    0.123E-01
RMM:   3    -0.230845211219E+04   -0.34450E-03   -0.47623E-03  5372   0.446E-02    0.128E-01
RMM:   4    -0.230845197626E+04    0.13593E-03   -0.53135E-04  3292   0.110E-02    0.617E-02
RMM:   5    -0.230845196364E+04    0.12618E-04   -0.12558E-04  2995   0.754E-03    0.570E-02
RMM:   6    -0.230845192950E+04    0.34143E-04   -0.92326E-05  3041   0.707E-03    0.228E-02
RMM:   7    -0.230845192710E+04    0.24014E-05   -0.22889E-05  2920   0.532E-03
  16 F= -.23292079E+04 E0= -.23292079E+04  d E =-.757700E-02  mag=     4.0000
       N       E                     dE             d eps       ncg     rms          rms(c)
DAV:   1    -0.230842353293E+04    0.28397E-01   -0.34905E+00  4456   0.166E+00    0.539E-01
RMM:   2    -0.230846131294E+04   -0.37780E-01   -0.40406E-01  6171   0.353E-01    0.352E-01
RMM:   3    -0.230846442449E+04   -0.31116E-02   -0.43632E-02  5945   0.138E-01    0.355E-01
RMM:   4    -0.230846341544E+04    0.10090E-02   -0.47676E-03  5850   0.313E-02    0.191E-01
RMM:   5    -0.230846328310E+04    0.13235E-03   -0.10516E-03  4970   0.175E-02    0.169E-01
RMM:   6    -0.230846299181E+04    0.29128E-03   -0.77562E-04  4940   0.159E-02    0.715E-02
RMM:   7    -0.230846295078E+04    0.41032E-04   -0.18051E-04  4166   0.103E-02    0.301E-02
RMM:   8    -0.230846294111E+04    0.96715E-05   -0.25408E-05  2917   0.519E-03
  17 F= -.23292197E+04 E0= -.23292197E+04  d E =-.194546E-01  mag=     4.0000
       N       E                     dE             d eps       ncg     rms          rms(c)
DAV:   1    -0.230846087892E+04    0.20719E-02   -0.20152E-01  4728   0.400E-01    0.130E-01
RMM:   2    -0.230846308495E+04   -0.22060E-02   -0.23520E-02  6265   0.866E-02    0.895E-02
RMM:   3    -0.230846326223E+04   -0.17728E-03   -0.24844E-03  4540   0.317E-02    0.929E-02
RMM:   4    -0.230846319091E+04    0.71325E-04   -0.27760E-04  3039   0.857E-03    0.445E-02
RMM:   5    -0.230846318420E+04    0.67033E-05   -0.68540E-05  2922   0.573E-03
  18 F= -.23292202E+04 E0= -.23292202E+04  d E =-.199101E-01  mag=     4.0000
       N       E                     dE             d eps       ncg     rms          rms(c)
DAV:   1    -0.230846528772E+04   -0.20968E-02   -0.73654E-01  4488   0.780E-01    0.274E-01
RMM:   2    -0.230847346315E+04   -0.81754E-02   -0.88729E-02  6113   0.167E-01    0.147E-01
RMM:   3    -0.230847400986E+04   -0.54671E-03   -0.91158E-03  5518   0.635E-02    0.106E-01
RMM:   4    -0.230847403398E+04   -0.24124E-04   -0.11121E-03  4543   0.162E-02    0.104E-01
RMM:   5    -0.230847392223E+04    0.11175E-03   -0.33049E-04  4396   0.124E-02    0.609E-02
RMM:   6    -0.230847391984E+04    0.23878E-05   -0.13197E-04  2969   0.819E-03    0.638E-02
RMM:   7    -0.230847388315E+04    0.36693E-04   -0.44157E-05  2884   0.544E-03    0.108E-02
RMM:   8    -0.230847388215E+04    0.10032E-05   -0.11531E-05  2872   0.334E-03
  19 F= -.23292312E+04 E0= -.23292312E+04  d E =-.110423E-01  mag=     4.0000
       N       E                     dE             d eps       ncg     rms          rms(c)
DAV:   1    -0.230845517031E+04    0.18713E-01   -0.21839E+00  4456   0.134E+00    0.470E-01
RMM:   2    -0.230847929839E+04   -0.24128E-01   -0.26282E-01  6024   0.285E-01    0.245E-01
RMM:   3    -0.230848083958E+04   -0.15412E-02   -0.26958E-02  5620   0.107E-01    0.165E-01
RMM:   4    -0.230848105924E+04   -0.21966E-03   -0.32112E-03  5334   0.265E-02    0.205E-01
RMM:   5    -0.230848068809E+04    0.37115E-03   -0.92778E-04  5031   0.190E-02    0.988E-02
RMM:   6    -0.230848064023E+04    0.47862E-04   -0.32331E-04  4463   0.113E-02    0.735E-02
RMM:   7    -0.230848058394E+04    0.56284E-04   -0.10913E-04  3058   0.790E-03    0.253E-02
RMM:   8    -0.230848057668E+04    0.72658E-05   -0.21936E-05  2907   0.402E-03
  20 F= -.23292385E+04 E0= -.23292385E+04  d E =-.183515E-01  mag=     4.0000
       N       E                     dE             d eps       ncg     rms          rms(c)
DAV:   1    -0.230847195580E+04    0.86281E-02   -0.12114E+00  4504   0.927E-01    0.374E-01
RMM:   2    -0.230849047018E+04   -0.18514E-01   -0.19729E-01  6083   0.195E-01    0.209E-01
RMM:   3    -0.230849242138E+04   -0.19512E-02   -0.23651E-02  5595   0.837E-02    0.224E-01
RMM:   4    -0.230849217620E+04    0.24518E-03   -0.23766E-03  4308   0.188E-02    0.118E-01
RMM:   5    -0.230849199110E+04    0.18510E-03   -0.35971E-04  4131   0.117E-02    0.547E-02
RMM:   6    -0.230849197793E+04    0.13170E-04   -0.18821E-04  4030   0.101E-02    0.367E-02
RMM:   7    -0.230849196881E+04    0.91216E-05   -0.42789E-05  2915   0.625E-03
  21 F= -.23292505E+04 E0= -.23292505E+04  d E =-.120122E-01  mag=     4.0000
       N       E                     dE             d eps       ncg     rms          rms(c)
DAV:   1    -0.230831430747E+04    0.17767E+00   -0.10890E+01  4456   0.278E+00    0.112E+00
RMM:   2    -0.230848113062E+04   -0.16682E+00   -0.17869E+00  6061   0.585E-01    0.571E-01
RMM:   3    -0.230849796832E+04   -0.16838E-01   -0.21846E-01  5727   0.254E-01    0.489E-01
RMM:   4    -0.230849806035E+04   -0.92035E-04   -0.20787E-02  6283   0.536E-02    0.407E-01
RMM:   5    -0.230849633465E+04    0.17257E-02   -0.32536E-03  5443   0.289E-02    0.211E-01
RMM:   6    -0.230849633792E+04   -0.32769E-05   -0.26258E-03  5363   0.259E-02    0.217E-01
RMM:   7    -0.230849580234E+04    0.53558E-03   -0.94047E-04  5193   0.174E-02    0.617E-02
RMM:   8    -0.230849577716E+04    0.25185E-04   -0.10975E-04  3133   0.616E-03    0.296E-02
RMM:   9    -0.230849578210E+04   -0.49393E-05   -0.51341E-05  2926   0.545E-03
  22 F= -.23292563E+04 E0= -.23292563E+04  d E =-.177645E-01  mag=     4.0000
       N       E                     dE             d eps       ncg     rms          rms(c)
DAV:   1    -0.230847518548E+04    0.20592E-01   -0.14960E+00  4488   0.103E+00    0.416E-01
RMM:   2    -0.230849804847E+04   -0.22863E-01   -0.24153E-01  6093   0.219E-01    0.260E-01
RMM:   3    -0.230850028320E+04   -0.22347E-02   -0.28836E-02  5647   0.896E-02    0.259E-01
RMM:   4    -0.230849995121E+04    0.33199E-03   -0.29568E-03  4788   0.213E-02    0.133E-01
RMM:   5    -0.230849978335E+04    0.16786E-03   -0.50377E-04  4390   0.123E-02    0.865E-02
RMM:   6    -0.230849975505E+04    0.28293E-04   -0.38134E-04  4413   0.114E-02    0.707E-02
RMM:   7    -0.230849970394E+04    0.51110E-04   -0.97697E-05  2979   0.735E-03    0.312E-02
RMM:   8    -0.230849969577E+04    0.81781E-05   -0.22545E-05  2903   0.438E-03
  23 F= -.23292595E+04 E0= -.23292595E+04  d E =-.209471E-01  mag=     4.0000
       N       E                     dE             d eps       ncg     rms          rms(c)
DAV:   1    -0.230849332317E+04    0.63808E-02   -0.89662E-01  4488   0.787E-01    0.318E-01
RMM:   2    -0.230850814894E+04   -0.14826E-01   -0.15495E-01  6099   0.171E-01    0.221E-01
RMM:   3    -0.230850965403E+04   -0.15051E-02   -0.17679E-02  5669   0.723E-02    0.235E-01
RMM:   4    -0.230850927396E+04    0.38007E-03   -0.18960E-03  4187   0.171E-02    0.992E-02
RMM:   5    -0.230850917872E+04    0.95235E-04   -0.29308E-04  4007   0.104E-02    0.711E-02
RMM:   6    -0.230850915457E+04    0.24149E-04   -0.27208E-04  3848   0.101E-02    0.588E-02
RMM:   7    -0.230850911275E+04    0.41828E-04   -0.61703E-05  3013   0.669E-03    0.134E-02
RMM:   8    -0.230850911127E+04    0.14749E-05   -0.11124E-05  2872   0.418E-03
  24 F= -.23292698E+04 E0= -.23292698E+04  d E =-.102765E-01  mag=     4.0000
       N       E                     dE             d eps       ncg     rms          rms(c)
DAV:   1    -0.230837130655E+04    0.13781E+00   -0.80647E+00  4456   0.236E+00    0.955E-01
RMM:   2    -0.230850443085E+04   -0.13312E+00   -0.14043E+00  6098   0.515E-01    0.595E-01
RMM:   3    -0.230851952134E+04   -0.15090E-01   -0.16838E-01  5767   0.217E-01    0.692E-01
RMM:   4    -0.230851623097E+04    0.32904E-02   -0.17124E-02  6135   0.497E-02    0.305E-01
RMM:   5    -0.230851517222E+04    0.10587E-02   -0.24198E-03  5217   0.268E-02    0.178E-01
RMM:   6    -0.230851519034E+04   -0.18118E-04   -0.23883E-03  5604   0.267E-02    0.190E-01
RMM:   7    -0.230851477263E+04    0.41771E-03   -0.71035E-04  5189   0.151E-02    0.487E-02
RMM:   8    -0.230851474274E+04    0.29892E-04   -0.93516E-05  3100   0.626E-03    0.269E-02
RMM:   9    -0.230851474270E+04    0.32887E-07   -0.54570E-05  2906   0.555E-03
  25 F= -.23292780E+04 E0= -.23292780E+04  d E =-.185378E-01  mag=     4.0000
       N       E                     dE             d eps       ncg     rms          rms(c)
DAV:   1    -0.230850785758E+04    0.68852E-02   -0.48975E-01  4544   0.580E-01    0.237E-01
RMM:   2    -0.230851603760E+04   -0.81800E-02   -0.84643E-02  6159   0.128E-01    0.189E-01
RMM:   3    -0.230851672266E+04   -0.68506E-03   -0.94372E-03  5408   0.517E-02    0.170E-01
RMM:   4    -0.230851653060E+04    0.19206E-03   -0.10331E-03  3393   0.130E-02    0.731E-02
RMM:   5    -0.230851649752E+04    0.33080E-04   -0.15596E-04  3237   0.818E-03    0.608E-02
RMM:   6    -0.230851646616E+04    0.31364E-04   -0.15011E-04  3224   0.826E-03    0.370E-02
RMM:   7    -0.230851645325E+04    0.12909E-04   -0.35439E-05  2902   0.585E-03    0.134E-02
RMM:   8    -0.230851645234E+04    0.90402E-06   -0.86094E-06  2856   0.385E-03
  26 F= -.23292791E+04 E0= -.23292791E+04  d E =-.195938E-01  mag=     4.0000
       N       E                     dE             d eps       ncg     rms          rms(c)
DAV:   1    -0.230850974452E+04    0.67087E-02   -0.94611E-01  4472   0.796E-01    0.334E-01
RMM:   2    -0.230852593577E+04   -0.16191E-01   -0.16197E-01  6272   0.187E-01    0.350E-01
RMM:   3    -0.230852638367E+04   -0.44790E-03   -0.15894E-02  5777   0.684E-02    0.238E-01
RMM:   4    -0.230852601393E+04    0.36974E-03   -0.20245E-03  4528   0.177E-02    0.114E-01
RMM:   5    -0.230852594000E+04    0.73930E-04   -0.34209E-04  3602   0.100E-02    0.923E-02
RMM:   6    -0.230852583219E+04    0.10781E-03   -0.25165E-04  4052   0.105E-02    0.340E-02
RMM:   7    -0.230852582801E+04    0.41843E-05   -0.78826E-05  2976   0.731E-03
  27 F= -.23292893E+04 E0= -.23292893E+04  d E =-.102172E-01  mag=     4.0000
       N       E                     dE             d eps       ncg     rms          rms(c)
DAV:   1    -0.230838960856E+04    0.13622E+00   -0.84858E+00  4456   0.239E+00    0.101E+00
RMM:   2    -0.230853569667E+04   -0.14609E+00   -0.14752E+00  6233   0.578E-01    0.101E+00
RMM:   3    -0.230854200551E+04   -0.63088E-02   -0.15481E-01  6021   0.210E-01    0.766E-01
RMM:   4    -0.230853802861E+04    0.39769E-02   -0.18953E-02  5839   0.532E-02    0.370E-01
RMM:   5    -0.230853712552E+04    0.90308E-03   -0.31829E-03  5523   0.269E-02    0.272E-01
RMM:   6    -0.230853621323E+04    0.91229E-03   -0.23295E-03  5169   0.279E-02    0.112E-01
RMM:   7    -0.230853615420E+04    0.59032E-04   -0.81460E-04  4735   0.177E-02    0.399E-02
RMM:   8    -0.230853612825E+04    0.25949E-04   -0.64104E-05  3140   0.672E-03    0.196E-02
RMM:   9    -0.230853612301E+04    0.52395E-05   -0.38758E-05  2936   0.528E-03
  28 F= -.23293021E+04 E0= -.23293021E+04  d E =-.230292E-01  mag=     4.0000
       N       E                     dE             d eps       ncg     rms          rms(c)
DAV:   1    -0.230853462029E+04    0.15080E-02   -0.53253E-01  4680   0.580E-01    0.253E-01
RMM:   2    -0.230854380364E+04   -0.91833E-02   -0.90843E-02  6335   0.142E-01    0.282E-01
RMM:   3    -0.230854377233E+04    0.31310E-04   -0.84456E-03  5612   0.480E-02    0.162E-01
RMM:   4    -0.230854363385E+04    0.13848E-03   -0.11176E-03  3403   0.127E-02    0.930E-02
RMM:   5    -0.230854357787E+04    0.55975E-04   -0.18596E-04  3145   0.782E-03    0.672E-02
RMM:   6    -0.230854352527E+04    0.52605E-04   -0.13297E-04  3552   0.816E-03    0.273E-02
RMM:   7    -0.230854352328E+04    0.19847E-05   -0.43219E-05  2898   0.597E-03
  29 F= -.23293101E+04 E0= -.23293101E+04  d E =-.798375E-02  mag=     4.0000
       N       E                     dE             d eps       ncg     rms          rms(c)
DAV:   1    -0.230847775389E+04    0.65771E-01   -0.47694E+00  4456   0.174E+00    0.769E-01
RMM:   2    -0.230856111757E+04   -0.83364E-01   -0.82697E-01  6279   0.435E-01    0.852E-01
RMM:   3    -0.230856055826E+04    0.55931E-03   -0.79722E-02  6133   0.146E-01    0.493E-01
RMM:   4    -0.230855931316E+04    0.12451E-02   -0.10356E-02  5591   0.375E-02    0.300E-01
RMM:   5    -0.230855866177E+04    0.65139E-03   -0.17216E-03  5171   0.198E-02    0.196E-01
RMM:   6    -0.230855819922E+04    0.46255E-03   -0.11340E-03  4997   0.201E-02    0.849E-02
RMM:   7    -0.230855816059E+04    0.38629E-04   -0.41676E-04  4239   0.146E-02    0.290E-02
RMM:   8    -0.230855814422E+04    0.16373E-04   -0.41144E-05  2951   0.474E-03    0.140E-02
RMM:   9    -0.230855813677E+04    0.74493E-05   -0.23303E-05  2893   0.402E-03
  30 F= -.23293264E+04 E0= -.23293264E+04  d E =-.243171E-01  mag=     4.0000
       N       E                     dE             d eps       ncg     rms          rms(c)
DAV:   1    -0.230822764583E+04    0.33050E+00   -0.18933E+01  4456   0.348E+00    0.156E+00
RMM:   2    -0.230856994671E+04   -0.34230E+00   -0.33854E+00  6257   0.895E-01    0.176E+00
RMM:   3    -0.230856265425E+04    0.72925E-02   -0.32778E-01  6138   0.298E-01    0.982E-01
RMM:   4    -0.230855796065E+04    0.46936E-02   -0.42311E-02  5874   0.758E-02    0.654E-01
RMM:   5    -0.230855465291E+04    0.33077E-02   -0.70637E-03  5772   0.390E-02    0.385E-01
RMM:   6    -0.230855286774E+04    0.17852E-02   -0.44959E-03  5102   0.388E-02    0.180E-01
RMM:   7    -0.230855267834E+04    0.18940E-03   -0.18383E-03  4998   0.295E-02    0.674E-02
RMM:   8    -0.230855260488E+04    0.73461E-04   -0.18332E-04  3831   0.851E-03    0.290E-02
RMM:   9    -0.230855257578E+04    0.29103E-04   -0.73703E-05  3150   0.708E-03    0.150E-02
RMM:  10    -0.230855256909E+04    0.66865E-05   -0.27047E-05  2928   0.496E-03
  31 F= -.23293241E+04 E0= -.23293241E+04  d E =-.220323E-01  mag=     4.0000
       N       E                     dE             d eps       ncg     rms          rms(c)
DAV:   1    -0.230846383443E+04    0.88741E-01   -0.58340E+00  4456   0.193E+00    0.842E-01
RMM:   2    -0.230856534350E+04   -0.10151E+00   -0.99774E-01  6291   0.467E-01    0.100E+00
RMM:   3    -0.230856408351E+04    0.12600E-02   -0.90966E-02  6088   0.159E-01    0.531E-01
RMM:   4    -0.230856229251E+04    0.17910E-02   -0.11404E-02  5517   0.406E-02    0.246E-01
RMM:   5    -0.230856225277E+04    0.39746E-04   -0.20122E-03  5356   0.224E-02    0.252E-01
RMM:   6    -0.230856151345E+04    0.73932E-03   -0.12936E-03  5224   0.208E-02    0.100E-01
RMM:   7    -0.230856146226E+04    0.51189E-04   -0.37346E-04  4227   0.131E-02    0.236E-02
RMM:   8    -0.230856145012E+04    0.12143E-04   -0.40345E-05  2917   0.508E-03    0.135E-02
RMM:   9    -0.230856144324E+04    0.68713E-05   -0.19228E-05  2856   0.397E-03
  32 F= -.23293312E+04 E0= -.23293312E+04  d E =-.291158E-01  mag=     4.0000
       N       E                     dE             d eps       ncg     rms          rms(c)
DAV:   1    -0.230853974286E+04    0.21707E-01   -0.19849E+00  4440   0.114E+00    0.505E-01
RMM:   2    -0.230857394751E+04   -0.34205E-01   -0.34394E-01  6267   0.289E-01    0.513E-01
RMM:   3    -0.230857362322E+04    0.32429E-03   -0.32135E-02  6086   0.957E-02    0.284E-01
RMM:   4    -0.230857299855E+04    0.62468E-03   -0.38461E-03  5184   0.237E-02    0.161E-01
RMM:   5    -0.230857296803E+04    0.30520E-04   -0.65317E-04  4043   0.136E-02    0.157E-01
RMM:   6    -0.230857270279E+04    0.26524E-03   -0.51080E-04  4573   0.136E-02    0.583E-02
RMM:   7    -0.230857268679E+04    0.16003E-04   -0.14886E-04  3308   0.966E-03    0.154E-02
RMM:   8    -0.230857268202E+04    0.47612E-05   -0.16301E-05  2876   0.417E-03
  33 F= -.23293439E+04 E0= -.23293439E+04  d E =-.127042E-01  mag=     4.0000
       N       E                     dE             d eps       ncg     rms          rms(c)
DAV:   1    -0.230834525436E+04    0.22743E+00   -0.13554E+01  4456   0.298E+00    0.135E+00
RMM:   2    -0.230858930276E+04   -0.24405E+00   -0.24334E+00  6261   0.777E-01    0.146E+00
RMM:   3    -0.230857873727E+04    0.10565E-01   -0.22090E-01  6166   0.252E-01    0.698E-01
RMM:   4    -0.230857531560E+04    0.34217E-02   -0.27477E-02  5447   0.618E-02    0.431E-01
RMM:   5    -0.230857500740E+04    0.30821E-03   -0.44066E-03  5342   0.343E-02    0.407E-01
RMM:   6    -0.230857325105E+04    0.17563E-02   -0.32685E-03  5337   0.324E-02    0.164E-01
RMM:   7    -0.230857310783E+04    0.14322E-03   -0.12141E-03  4834   0.233E-02    0.429E-02
RMM:   8    -0.230857306964E+04    0.38193E-04   -0.11054E-04  3347   0.707E-03    0.232E-02
RMM:   9    -0.230857305346E+04    0.16185E-04   -0.60261E-05  2983   0.611E-03    0.890E-03
RMM:  10    -0.230857305293E+04    0.52291E-06   -0.14441E-05  2884   0.380E-03
  34 F= -.23293481E+04 E0= -.23293481E+04  d E =-.168426E-01  mag=     4.0000
       N       E                     dE             d eps       ncg     rms          rms(c)
DAV:   1    -0.230854042121E+04    0.32632E-01   -0.22802E+00  4440   0.122E+00    0.527E-01
RMM:   2    -0.230857861124E+04   -0.38190E-01   -0.38681E-01  6296   0.303E-01    0.510E-01
RMM:   3    -0.230857950298E+04   -0.89174E-03   -0.36576E-02  6049   0.105E-01    0.332E-01
RMM:   4    -0.230857842229E+04    0.10807E-02   -0.42146E-03  5430   0.262E-02    0.153E-01
RMM:   5    -0.230857849415E+04   -0.71857E-04   -0.78394E-04  4612   0.144E-02    0.176E-01
RMM:   6    -0.230857816395E+04    0.33020E-03   -0.58735E-04  4724   0.141E-02    0.637E-02
RMM:   7    -0.230857814239E+04    0.21561E-04   -0.12217E-04  3060   0.900E-03    0.148E-02
RMM:   8    -0.230857813899E+04    0.33963E-05   -0.15016E-05  2880   0.412E-03
  35 F= -.23293516E+04 E0= -.23293516E+04  d E =-.203970E-01  mag=     4.0000
       N       E                     dE             d eps       ncg     rms          rms(c)
DAV:   1    -0.230856526500E+04    0.12877E-01   -0.10923E+00  4488   0.910E-01    0.382E-01
RMM:   2    -0.230858432117E+04   -0.19056E-01   -0.20302E-01  6235   0.226E-01    0.256E-01
RMM:   3    -0.230858580977E+04   -0.14886E-02   -0.22047E-02  5918   0.870E-02    0.244E-01
RMM:   4    -0.230858530912E+04    0.50065E-03   -0.24135E-03  5133   0.212E-02    0.133E-01
RMM:   5    -0.230858523316E+04    0.75962E-04   -0.44722E-04  3661   0.104E-02    0.125E-01
RMM:   6    -0.230858507966E+04    0.15350E-03   -0.31736E-04  4010   0.108E-02    0.388E-02
RMM:   7    -0.230858506725E+04    0.12408E-04   -0.10256E-04  3465   0.736E-03    0.127E-02
RMM:   8    -0.230858506407E+04    0.31835E-05   -0.12561E-05  2866   0.516E-03
  36 F= -.23293596E+04 E0= -.23293596E+04  d E =-.800422E-02  mag=     4.0000
       N       E                     dE             d eps       ncg     rms          rms(c)
DAV:   1    -0.230855570827E+04    0.29359E-01   -0.16942E+00  4456   0.114E+00    0.477E-01
RMM:   2    -0.230858543866E+04   -0.29730E-01   -0.31661E-01  6214   0.283E-01    0.322E-01
RMM:   3    -0.230858768250E+04   -0.22438E-02   -0.34385E-02  5954   0.105E-01    0.303E-01
RMM:   4    -0.230858692257E+04    0.75993E-03   -0.37835E-03  5528   0.262E-02    0.168E-01
RMM:   5    -0.230858679466E+04    0.12791E-03   -0.69795E-04  4258   0.126E-02    0.154E-01
RMM:   6    -0.230858656115E+04    0.23352E-03   -0.49117E-04  4445   0.128E-02    0.494E-02
RMM:   7    -0.230858653973E+04    0.21419E-04   -0.16373E-04  3854   0.870E-03    0.165E-02
RMM:   8    -0.230858653390E+04    0.58286E-05   -0.18166E-05  2874   0.567E-03
  37 F= -.23293624E+04 E0= -.23293624E+04  d E =-.108155E-01  mag=     4.0000
       N       E                     dE             d eps       ncg     rms          rms(c)
DAV:   1    -0.230856278677E+04    0.23753E-01   -0.16930E+00  4440   0.117E+00    0.431E-01
RMM:   2    -0.230859095869E+04   -0.28172E-01   -0.30208E-01  6322   0.281E-01    0.257E-01
RMM:   3    -0.230859360801E+04   -0.26493E-02   -0.32698E-02  5901   0.102E-01    0.290E-01
RMM:   4    -0.230859313627E+04    0.47174E-03   -0.32907E-03  5010   0.236E-02    0.154E-01
RMM:   5    -0.230859300619E+04    0.13008E-03   -0.57751E-04  4205   0.119E-02    0.129E-01
RMM:   6    -0.230859286879E+04    0.13740E-03   -0.46526E-04  4253   0.122E-02    0.609E-02
RMM:   7    -0.230859283272E+04    0.36069E-04   -0.12348E-04  3601   0.771E-03    0.162E-02
RMM:   8    -0.230859283011E+04    0.26063E-05   -0.13620E-05  2881   0.532E-03
  38 F= -.23293697E+04 E0= -.23293697E+04  d E =-.722346E-02  mag=     4.0000
       N       E                     dE             d eps       ncg     rms          rms(c)
DAV:   1    -0.230852810185E+04    0.64731E-01   -0.36170E+00  4440   0.172E+00    0.634E-01
RMM:   2    -0.230858863411E+04   -0.60532E-01   -0.64937E-01  6337   0.417E-01    0.383E-01
RMM:   3    -0.230859445476E+04   -0.58207E-02   -0.72372E-02  5963   0.152E-01    0.431E-01
RMM:   4    -0.230859338782E+04    0.10669E-02   -0.71488E-03  5762   0.349E-02    0.223E-01
RMM:   5    -0.230859310294E+04    0.28487E-03   -0.12171E-03  4751   0.163E-02    0.187E-01
RMM:   6    -0.230859281622E+04    0.28672E-03   -0.97759E-04  4933   0.171E-02    0.910E-02
RMM:   7    -0.230859273184E+04    0.84387E-04   -0.28280E-04  4326   0.105E-02    0.254E-02
RMM:   8    -0.230859272441E+04    0.74215E-05   -0.28627E-05  2926   0.677E-03
  39 F= -.23293709E+04 E0= -.23293709E+04  d E =-.847746E-02  mag=     4.0000
       N       E                     dE             d eps       ncg     rms          rms(c)
DAV:   1    -0.230858535714E+04    0.73747E-02   -0.49336E-01  4512   0.636E-01    0.232E-01
RMM:   2    -0.230859352198E+04   -0.81648E-02   -0.87731E-02  6343   0.152E-01    0.134E-01
RMM:   3    -0.230859429015E+04   -0.76817E-03   -0.90654E-03  5657   0.534E-02    0.166E-01
RMM:   4    -0.230859412006E+04    0.17009E-03   -0.94307E-04  3255   0.130E-02    0.733E-02
RMM:   5    -0.230859409494E+04    0.25120E-04   -0.18771E-04  3243   0.824E-03    0.685E-02
RMM:   6    -0.230859405519E+04    0.39750E-04   -0.13203E-04  3088   0.766E-03    0.327E-02
RMM:   7    -0.230859404475E+04    0.10434E-04   -0.31816E-05  2892   0.537E-03    0.797E-03
RMM:   8    -0.230859404475E+04    0.60827E-08   -0.61928E-06  2846   0.356E-03
  40 F= -.23293717E+04 E0= -.23293717E+04  d E =-.929509E-02  mag=     4.0000
       N       E                     dE             d eps       ncg     rms          rms(c)
DAV:   1    -0.230858412572E+04    0.99190E-02   -0.11889E+00  4456   0.102E+00    0.340E-01
RMM:   2    -0.230860040060E+04   -0.16275E-01   -0.17562E-01  6258   0.235E-01    0.190E-01
RMM:   3    -0.230860174436E+04   -0.13438E-02   -0.17429E-02  5599   0.825E-02    0.193E-01
RMM:   4    -0.230860159033E+04    0.15403E-03   -0.17874E-03  4537   0.196E-02    0.133E-01
RMM:   5    -0.230860141547E+04    0.17486E-03   -0.42054E-04  4432   0.130E-02    0.564E-02
RMM:   6    -0.230860142865E+04   -0.13178E-04   -0.24443E-04  4057   0.112E-02    0.596E-02
RMM:   7    -0.230860138448E+04    0.44165E-04   -0.60334E-05  2945   0.626E-03    0.146E-02
RMM:   8    -0.230860138237E+04    0.21110E-05   -0.10976E-05  2882   0.354E-03
  41 F= -.23293792E+04 E0= -.23293792E+04  d E =-.748035E-02  mag=     4.0000
       N       E                     dE             d eps       ncg     rms          rms(c)
DAV:   1    -0.230858401039E+04    0.17374E-01   -0.13662E+00  4456   0.109E+00    0.365E-01
RMM:   2    -0.230860276633E+04   -0.18756E-01   -0.20246E-01  6258   0.252E-01    0.205E-01
RMM:   3    -0.230860432097E+04   -0.15546E-02   -0.20162E-02  5618   0.861E-02    0.209E-01
RMM:   4    -0.230860414494E+04    0.17603E-03   -0.20701E-03  4746   0.209E-02    0.145E-01
RMM:   5    -0.230860394386E+04    0.20108E-03   -0.49043E-04  4524   0.136E-02    0.629E-02
RMM:   6    -0.230860395815E+04   -0.14287E-04   -0.29396E-04  4200   0.120E-02    0.657E-02
RMM:   7    -0.230860390511E+04    0.53040E-04   -0.72956E-05  2988   0.662E-03    0.167E-02
RMM:   8    -0.230860390303E+04    0.20788E-05   -0.13518E-05  2891   0.382E-03
  42 F= -.23293819E+04 E0= -.23293819E+04  d E =-.101612E-01  mag=     4.0000
       N       E                     dE             d eps       ncg     rms          rms(c)
DAV:   1    -0.230859518250E+04    0.87226E-02   -0.10612E+00  4472   0.971E-01    0.325E-01
RMM:   2    -0.230860928218E+04   -0.14100E-01   -0.15094E-01  6262   0.220E-01    0.205E-01
RMM:   3    -0.230861067737E+04   -0.13952E-02   -0.15521E-02  5683   0.754E-02    0.253E-01
RMM:   4    -0.230861018393E+04    0.49344E-03   -0.15573E-03  4499   0.190E-02    0.104E-01
RMM:   5    -0.230861005815E+04    0.12579E-03   -0.39014E-04  4325   0.120E-02    0.407E-02
RMM:   6    -0.230861004845E+04    0.96983E-05   -0.11037E-04  3693   0.915E-03    0.145E-02
RMM:   7    -0.230861005155E+04   -0.31022E-05   -0.18358E-05  2866   0.518E-03
  43 F= -.23293881E+04 E0= -.23293881E+04  d E =-.625333E-02  mag=     4.0000
       N       E                     dE             d eps       ncg     rms          rms(c)
DAV:   1    -0.230858695823E+04    0.23090E-01   -0.18359E+00  4456   0.128E+00    0.428E-01
RMM:   2    -0.230861129920E+04   -0.24341E-01   -0.26085E-01  6260   0.289E-01    0.268E-01
RMM:   3    -0.230861377731E+04   -0.24781E-02   -0.27401E-02  5713   0.102E-01    0.336E-01
RMM:   4    -0.230861292974E+04    0.84757E-03   -0.27304E-03  5212   0.250E-02    0.139E-01
RMM:   5    -0.230861271228E+04    0.21746E-03   -0.67190E-04  4589   0.149E-02    0.560E-02
RMM:   6    -0.230861270083E+04    0.11453E-04   -0.22655E-04  4238   0.118E-02    0.352E-02
RMM:   7    -0.230861269500E+04    0.58353E-05   -0.51449E-05  2912   0.596E-03
  44 F= -.23293909E+04 E0= -.23293909E+04  d E =-.904512E-02  mag=     4.0000
       N       E                     dE             d eps       ncg     rms          rms(c)
DAV:   1    -0.230860693992E+04    0.57609E-02   -0.74294E-01  4448   0.792E-01    0.256E-01
RMM:   2    -0.230861660984E+04   -0.96699E-02   -0.10332E-01  6289   0.186E-01    0.146E-01
RMM:   3    -0.230861741784E+04   -0.80799E-03   -0.97507E-03  5679   0.592E-02    0.155E-01
RMM:   4    -0.230861728821E+04    0.12962E-03   -0.10143E-03  3704   0.148E-02    0.944E-02
RMM:   5    -0.230861722890E+04    0.59312E-04   -0.26023E-04  3932   0.106E-02    0.659E-02
RMM:   6    -0.230861721764E+04    0.11264E-04   -0.15540E-04  3053   0.870E-03    0.503E-02
RMM:   7    -0.230861719053E+04    0.27104E-04   -0.38230E-05  2930   0.592E-03    0.836E-03
RMM:   8    -0.230861719133E+04   -0.79497E-06   -0.78026E-06  2863   0.341E-03
  45 F= -.23293958E+04 E0= -.23293958E+04  d E =-.484254E-02  mag=     4.0000
       N       E                     dE             d eps       ncg     rms          rms(c)
DAV:   1    -0.230859656347E+04    0.20627E-01   -0.16656E+00  4424   0.119E+00    0.382E-01
RMM:   2    -0.230861826636E+04   -0.21703E-01   -0.23201E-01  6289   0.279E-01    0.215E-01
RMM:   3    -0.230862001026E+04   -0.17439E-02   -0.21755E-02  5801   0.877E-02    0.220E-01
RMM:   4    -0.230861974700E+04    0.26326E-03   -0.22813E-03  5064   0.219E-02    0.137E-01
RMM:   5    -0.230861960611E+04    0.14089E-03   -0.57925E-04  4525   0.145E-02    0.979E-02
RMM:   6    -0.230861958581E+04    0.20296E-04   -0.31038E-04  3501   0.115E-02    0.814E-02
RMM:   7    -0.230861951761E+04    0.68203E-04   -0.87947E-05  3098   0.707E-03    0.121E-02
RMM:   8    -0.230861951802E+04   -0.41464E-06   -0.15972E-05  2884   0.436E-03
  46 F= -.23293986E+04 E0= -.23293986E+04  d E =-.769622E-02  mag=     4.0000
       N       E                     dE             d eps       ncg     rms          rms(c)
DAV:   1    -0.230861183080E+04    0.76868E-02   -0.79873E-01  4472   0.815E-01    0.269E-01
RMM:   2    -0.230862342934E+04   -0.11599E-01   -0.12475E-01  6366   0.192E-01    0.134E-01
RMM:   3    -0.230862430579E+04   -0.87645E-03   -0.11514E-02  5721   0.615E-02    0.136E-01
RMM:   4    -0.230862426398E+04    0.41805E-04   -0.12665E-03  3450   0.142E-02    0.833E-02
RMM:   5    -0.230862420478E+04    0.59205E-04   -0.18071E-04  3536   0.886E-03    0.640E-02
RMM:   6    -0.230862420362E+04    0.11644E-05   -0.14764E-04  3062   0.784E-03    0.578E-02
RMM:   7    -0.230862417074E+04    0.32876E-04   -0.39310E-05  2917   0.589E-03    0.844E-03
RMM:   8    -0.230862417037E+04    0.37051E-06   -0.69871E-06  2855   0.359E-03
  47 F= -.23294037E+04 E0= -.23294037E+04  d E =-.509407E-02  mag=     4.0000
       N       E                     dE             d eps       ncg     rms          rms(c)
DAV:   1    -0.230851983054E+04    0.10434E+00   -0.71794E+00  4456   0.245E+00    0.808E-01
RMM:   2    -0.230862365983E+04   -0.10383E+00   -0.11185E+00  6366   0.580E-01    0.406E-01
RMM:   3    -0.230863241805E+04   -0.87582E-02   -0.11485E-01  5900   0.194E-01    0.408E-01
RMM:   4    -0.230863198833E+04    0.42972E-03   -0.11563E-02  5854   0.436E-02    0.263E-01
RMM:   5    -0.230863136521E+04    0.62311E-03   -0.15533E-03  4737   0.202E-02    0.178E-01
RMM:   6    -0.230863147073E+04   -0.10552E-03   -0.13832E-03  5107   0.199E-02    0.200E-01
RMM:   7    -0.230863104693E+04    0.42380E-03   -0.47749E-04  4853   0.130E-02    0.280E-02
RMM:   8    -0.230863103627E+04    0.10657E-04   -0.50634E-05  2935   0.614E-03    0.161E-02
RMM:   9    -0.230863103199E+04    0.42786E-05   -0.17587E-05  2898   0.347E-03
  48 F= -.23294119E+04 E0= -.23294119E+04  d E =-.133159E-01  mag=     4.0000
       N       E                     dE             d eps       ncg     rms          rms(c)
DAV:   1    -0.230860728025E+04    0.23756E-01   -0.16887E+00  4456   0.116E+00    0.403E-01
RMM:   2    -0.230863547846E+04   -0.28198E-01   -0.30389E-01  6437   0.289E-01    0.197E-01
RMM:   3    -0.230863772383E+04   -0.22454E-02   -0.28883E-02  5894   0.925E-02    0.211E-01
RMM:   4    -0.230863770036E+04    0.23472E-04   -0.30297E-03  4104   0.208E-02    0.133E-01
RMM:   5    -0.230863752418E+04    0.17618E-03   -0.34742E-04  4118   0.114E-02    0.702E-02
RMM:   6    -0.230863757244E+04   -0.48268E-04   -0.30458E-04  3984   0.108E-02    0.883E-02
RMM:   7    -0.230863747510E+04    0.97341E-04   -0.10207E-04  3066   0.729E-03    0.125E-02
RMM:   8    -0.230863747443E+04    0.67808E-06   -0.15369E-05  2885   0.421E-03
  49 F= -.23294191E+04 E0= -.23294191E+04  d E =-.716937E-02  mag=     4.0000
       N       E                     dE             d eps       ncg     rms          rms(c)
DAV:   1    -0.230854226878E+04    0.95206E-01   -0.55002E+00  4456   0.209E+00    0.728E-01
RMM:   2    -0.230863411179E+04   -0.91843E-01   -0.99034E-01  6428   0.521E-01    0.359E-01
RMM:   3    -0.230864167112E+04   -0.75593E-02   -0.98745E-02  5976   0.169E-01    0.380E-01
RMM:   4    -0.230864164263E+04    0.28493E-04   -0.10014E-02  5675   0.377E-02    0.251E-01
RMM:   5    -0.230864103137E+04    0.61126E-03   -0.11076E-03  4650   0.179E-02    0.130E-01
RMM:   6    -0.230864115179E+04   -0.12042E-03   -0.10227E-03  5322   0.180E-02    0.155E-01
RMM:   7    -0.230864084995E+04    0.30184E-03   -0.36203E-04  4142   0.113E-02    0.276E-02
RMM:   8    -0.230864084293E+04    0.70162E-05   -0.49182E-05  2937   0.500E-03
  50 F= -.23294238E+04 E0= -.23294238E+04  d E =-.118978E-01  mag=     4.0000
       N       E                     dE             d eps       ncg     rms          rms(c)
DAV:   1    -0.230861275620E+04    0.28094E-01   -0.16754E+00  4440   0.112E+00    0.393E-01
RMM:   2    -0.230864254698E+04   -0.29791E-01   -0.31952E-01  6535   0.285E-01    0.186E-01
RMM:   3    -0.230864488084E+04   -0.23339E-02   -0.30199E-02  5872   0.880E-02    0.173E-01
RMM:   4    -0.230864503019E+04   -0.14935E-03   -0.30568E-03  3735   0.191E-02    0.143E-01
RMM:   5    -0.230864483415E+04    0.19604E-03   -0.30379E-04  3669   0.986E-03    0.680E-02
RMM:   6    -0.230864486565E+04   -0.31501E-04   -0.27611E-04  4037   0.981E-03    0.752E-02
RMM:   7    -0.230864479596E+04    0.69686E-04   -0.92080E-05  3054   0.676E-03    0.133E-02
RMM:   8    -0.230864479592E+04    0.46479E-07   -0.12732E-05  2883   0.320E-03
  51 F= -.23294285E+04 E0= -.23294285E+04  d E =-.468922E-02  mag=     4.0000
       N       E                     dE             d eps       ncg     rms          rms(c)
DAV:   1    -0.230835968254E+04    0.28511E+00   -0.15052E+01  4440   0.336E+00    0.118E+00
RMM:   2    -0.230862776434E+04   -0.26808E+00   -0.28771E+00  6537   0.860E-01    0.573E-01
RMM:   3    -0.230865093163E+04   -0.23167E-01   -0.31393E-01  5969   0.283E-01    0.468E-01
RMM:   4    -0.230865307239E+04   -0.21408E-02   -0.29325E-02  5941   0.601E-02    0.495E-01
RMM:   5    -0.230865100561E+04    0.20668E-02   -0.32725E-03  5194   0.239E-02    0.242E-01
RMM:   6    -0.230865044799E+04    0.55762E-03   -0.23708E-03  5210   0.251E-02    0.769E-02
RMM:   7    -0.230865044763E+04    0.35691E-06   -0.33808E-04  3948   0.146E-02    0.673E-02
RMM:   8    -0.230865041578E+04    0.31849E-04   -0.11035E-04  3010   0.604E-03    0.460E-02
RMM:   9    -0.230865039343E+04    0.22352E-04   -0.46259E-05  2932   0.481E-03    0.143E-02
RMM:  10    -0.230865039664E+04   -0.32085E-05   -0.17644E-05  2890   0.307E-03
  52 F= -.23294365E+04 E0= -.23294365E+04  d E =-.126186E-01  mag=     4.0000
       N       E                     dE             d eps       ncg     rms          rms(c)
DAV:   1    -0.230861359274E+04    0.36801E-01   -0.24034E+00  4456   0.139E+00    0.505E-01
RMM:   2    -0.230865562391E+04   -0.42031E-01   -0.44945E-01  6379   0.355E-01    0.235E-01
RMM:   3    -0.230865898943E+04   -0.33655E-02   -0.45312E-02  5817   0.117E-01    0.170E-01
RMM:   4    -0.230865932072E+04   -0.33129E-03   -0.42780E-03  5086   0.258E-02    0.190E-01
RMM:   5    -0.230865897587E+04    0.34484E-03   -0.68243E-04  4731   0.144E-02    0.999E-02
RMM:   6    -0.230865899958E+04   -0.23706E-04   -0.45748E-04  4630   0.124E-02    0.995E-02
RMM:   7    -0.230865888529E+04    0.11429E-03   -0.14232E-04  3167   0.807E-03    0.211E-02
RMM:   8    -0.230865888154E+04    0.37457E-05   -0.20390E-05  2890   0.401E-03
  53 F= -.23294459E+04 E0= -.23294459E+04  d E =-.945629E-02  mag=     4.0000
       N       E                     dE             d eps       ncg     rms          rms(c)
DAV:   1    -0.230860101203E+04    0.57873E-01   -0.31905E+00  4424   0.160E+00    0.583E-01
RMM:   2    -0.230865701139E+04   -0.55999E-01   -0.59895E-01  6401   0.410E-01    0.272E-01
RMM:   3    -0.230866152130E+04   -0.45099E-02   -0.61009E-02  5808   0.135E-01    0.188E-01
RMM:   4    -0.230866194828E+04   -0.42698E-03   -0.56502E-03  5303   0.298E-02    0.214E-01
RMM:   5    -0.230866153664E+04    0.41164E-03   -0.89926E-04  4892   0.159E-02    0.121E-01
RMM:   6    -0.230866152582E+04    0.10830E-04   -0.58318E-04  4908   0.137E-02    0.103E-01
RMM:   7    -0.230866140227E+04    0.12355E-03   -0.17521E-04  3204   0.885E-03    0.285E-02
RMM:   8    -0.230866139400E+04    0.82676E-05   -0.25520E-05  2900   0.415E-03
  54 F= -.23294496E+04 E0= -.23294496E+04  d E =-.131130E-01  mag=     4.0000
       N       E                     dE             d eps       ncg     rms          rms(c)
DAV:   1    -0.230862702743E+04    0.34375E-01   -0.19709E+00  4428   0.121E+00    0.451E-01
RMM:   2    -0.230866458902E+04   -0.37562E-01   -0.39912E-01  6538   0.318E-01    0.213E-01
RMM:   3    -0.230866790334E+04   -0.33143E-02   -0.40734E-02  5867   0.101E-01    0.160E-01
RMM:   4    -0.230866816090E+04   -0.25756E-03   -0.37495E-03  4246   0.217E-02    0.157E-01
RMM:   5    -0.230866793477E+04    0.22614E-03   -0.49115E-04  3896   0.114E-02    0.928E-02
RMM:   6    -0.230866796839E+04   -0.33627E-04   -0.38853E-04  4223   0.107E-02    0.985E-02
RMM:   7    -0.230866786503E+04    0.10336E-03   -0.13107E-04  3130   0.737E-03    0.183E-02
RMM:   8    -0.230866786306E+04    0.19774E-05   -0.17072E-05  2886   0.370E-03
  55 F= -.23294571E+04 E0= -.23294571E+04  d E =-.756942E-02  mag=     4.0000
       N       E                     dE             d eps       ncg     rms          rms(c)
DAV:   1    -0.230830792353E+04    0.35994E+00   -0.17716E+01  4424   0.364E+00    0.136E+00
RMM:   2    -0.230864839885E+04   -0.34048E+00   -0.36228E+00  6529   0.965E-01    0.658E-01
RMM:   3    -0.230868005610E+04   -0.31657E-01   -0.39689E-01  5942   0.312E-01    0.527E-01
RMM:   4    -0.230868154181E+04   -0.14857E-02   -0.33538E-02  5870   0.672E-02    0.488E-01
RMM:   5    -0.230867969844E+04    0.18434E-02   -0.42583E-03  5238   0.273E-02    0.311E-01
RMM:   6    -0.230867961563E+04    0.82817E-04   -0.37061E-03  5725   0.291E-02    0.261E-01
RMM:   7    -0.230867887865E+04    0.73698E-03   -0.14860E-03  5184   0.199E-02    0.952E-02
RMM:   8    -0.230867878773E+04    0.90923E-04   -0.20425E-04  3384   0.731E-03    0.458E-02
RMM:   9    -0.230867876902E+04    0.18707E-04   -0.62158E-05  2943   0.583E-03    0.162E-02
RMM:  10    -0.230867877244E+04   -0.34241E-05   -0.26864E-05  2900   0.359E-03
  56 F= -.23294714E+04 E0= -.23294714E+04  d E =-.218521E-01  mag=     4.0000
       N       E                     dE             d eps       ncg     rms          rms(c)
DAV:   1    -0.230715755306E+04    0.15212E+01   -0.70951E+01  4440   0.729E+00    0.273E+00
RMM:   2    -0.230855176667E+04   -0.13942E+01   -0.14843E+01  6549   0.196E+00    0.134E+00
RMM:   3    -0.230866763999E+04   -0.11587E+00   -0.15663E+00  5991   0.629E-01    0.103E+00
RMM:   4    -0.230866961961E+04   -0.19796E-02   -0.12128E-01  6239   0.128E-01    0.911E-01
RMM:   5    -0.230866566850E+04    0.39511E-02   -0.16970E-02  5726   0.534E-02    0.760E-01
RMM:   6    -0.230866043529E+04    0.52332E-02   -0.14268E-02  5556   0.574E-02    0.219E-01
RMM:   7    -0.230866062631E+04   -0.19103E-03   -0.32198E-03  5349   0.337E-02    0.208E-01
RMM:   8    -0.230866022680E+04    0.39951E-03   -0.11206E-03  4810   0.165E-02    0.128E-01
RMM:   9    -0.230866001607E+04    0.21073E-03   -0.38615E-04  3461   0.110E-02    0.340E-02
RMM:  10    -0.230866002041E+04   -0.43393E-05   -0.14919E-04  3042   0.662E-03    0.127E-02
RMM:  11    -0.230866002572E+04   -0.53098E-05   -0.19737E-05  2899   0.455E-03
  57 F= -.23294596E+04 E0= -.23294596E+04  d E =-.100634E-01  mag=     4.0000
       N       E                     dE             d eps       ncg     rms          rms(c)
DAV:   1    -0.230790108913E+04    0.75893E+00   -0.37396E+01  4440   0.528E+00    0.195E+00
RMM:   2    -0.230861186649E+04   -0.71078E+00   -0.75615E+00  6535   0.139E+00    0.953E-01
RMM:   3    -0.230868067013E+04   -0.68804E-01   -0.88202E-01  5892   0.471E-01    0.720E-01
RMM:   4    -0.230868346917E+04   -0.27990E-02   -0.74804E-02  6049   0.933E-02    0.591E-01
RMM:   5    -0.230868208027E+04    0.13889E-02   -0.93650E-03  5758   0.427E-02    0.523E-01
RMM:   6    -0.230867973271E+04    0.23476E-02   -0.49401E-03  5607   0.358E-02    0.250E-01
RMM:   7    -0.230867990924E+04   -0.17653E-03   -0.26732E-03  5119   0.283E-02    0.233E-01
RMM:   8    -0.230867927674E+04    0.63251E-03   -0.67226E-04  4656   0.135E-02    0.522E-02
RMM:   9    -0.230867926545E+04    0.11283E-04   -0.11900E-04  2936   0.694E-03    0.205E-02
RMM:  10    -0.230867926969E+04   -0.42365E-05   -0.29910E-05  2908   0.406E-03
  58 F= -.23294738E+04 E0= -.23294738E+04  d E =-.242423E-01  mag=     4.0000
       N       E                     dE             d eps       ncg     rms          rms(c)
DAV:   1    -0.230865867437E+04    0.20591E-01   -0.12746E+00  4480   0.939E-01    0.367E-01
RMM:   2    -0.230868387304E+04   -0.25199E-01   -0.26723E-01  6549   0.255E-01    0.197E-01
RMM:   3    -0.230868613722E+04   -0.22642E-02   -0.26046E-02  5868   0.800E-02    0.250E-01
RMM:   4    -0.230868589139E+04    0.24583E-03   -0.26677E-03  3675   0.184E-02    0.105E-01
RMM:   5    -0.230868578458E+04    0.10682E-03   -0.25208E-04  3463   0.912E-03    0.583E-02
RMM:   6    -0.230868576492E+04    0.19661E-04   -0.16337E-04  3669   0.841E-03    0.255E-02
RMM:   7    -0.230868576632E+04   -0.14038E-05   -0.31467E-05  2879   0.546E-03
  59 F= -.23294813E+04 E0= -.23294813E+04  d E =-.749898E-02  mag=     4.0000
       N       E                     dE             d eps       ncg     rms          rms(c)
DAV:   1    -0.230845591538E+04    0.22985E+00   -0.11470E+01  4440   0.282E+00    0.110E+00
RMM:   2    -0.230868365180E+04   -0.22774E+00   -0.24189E+00  6561   0.771E-01    0.593E-01
RMM:   3    -0.230870508737E+04   -0.21436E-01   -0.25300E-01  6158   0.248E-01    0.710E-01
RMM:   4    -0.230870316647E+04    0.19209E-02   -0.24098E-02  5955   0.563E-02    0.349E-01
RMM:   5    -0.230870215287E+04    0.10136E-02   -0.24558E-03  4926   0.226E-02    0.211E-01
RMM:   6    -0.230870209421E+04    0.58655E-04   -0.24219E-03  5479   0.243E-02    0.166E-01
RMM:   7    -0.230870182647E+04    0.26774E-03   -0.77751E-04  4889   0.148E-02    0.782E-02
RMM:   8    -0.230870174908E+04    0.77394E-04   -0.95476E-05  3046   0.591E-03    0.289E-02
RMM:   9    -0.230870173986E+04    0.92202E-05   -0.43274E-05  2945   0.450E-03
  60 F= -.23295003E+04 E0= -.23295003E+04  d E =-.264999E-01  mag=     4.0000
       N       E                     dE             d eps       ncg     rms          rms(c)
DAV:   1    -0.230770630685E+04    0.99544E+00   -0.45774E+01  4440   0.564E+00    0.223E+00
RMM:   2    -0.230864569675E+04   -0.93939E+00   -0.99673E+00  6582   0.155E+00    0.123E+00
RMM:   3    -0.230872964027E+04   -0.83944E-01   -0.10632E+00  6193   0.507E-01    0.136E+00
RMM:   4    -0.230872127905E+04    0.83612E-02   -0.93356E-02  6338   0.113E-01    0.765E-01
RMM:   5    -0.230871702163E+04    0.42574E-02   -0.11571E-02  5381   0.438E-02    0.495E-01
RMM:   6    -0.230871634088E+04    0.68075E-03   -0.11001E-02  5945   0.483E-02    0.389E-01
RMM:   7    -0.230871491966E+04    0.14212E-02   -0.45902E-03  5971   0.325E-02    0.170E-01
RMM:   8    -0.230871457545E+04    0.34422E-03   -0.62947E-04  4142   0.131E-02    0.732E-02
RMM:   9    -0.230871449700E+04    0.78451E-04   -0.24914E-04  3313   0.909E-03    0.235E-02
RMM:  10    -0.230871450173E+04   -0.47302E-05   -0.76516E-05  2909   0.534E-03
  61 F= -.23295191E+04 E0= -.23295191E+04  d E =-.453112E-01  mag=     4.0000
       N       E                     dE             d eps       ncg     rms          rms(c)
DAV:   1    -0.230855886115E+04    0.15564E+00   -0.75817E+00  4440   0.224E+00    0.948E-01
RMM:   2    -0.230872450121E+04   -0.16564E+00   -0.17462E+00  6558   0.625E-01    0.659E-01
RMM:   3    -0.230873987223E+04   -0.15371E-01   -0.18365E-01  6241   0.206E-01    0.758E-01
RMM:   4    -0.230873569057E+04    0.41817E-02   -0.16695E-02  5925   0.497E-02    0.262E-01
RMM:   5    -0.230873533638E+04    0.35419E-03   -0.22531E-03  5156   0.199E-02    0.212E-01
RMM:   6    -0.230873509382E+04    0.24256E-03   -0.16663E-03  5052   0.199E-02    0.147E-01
RMM:   7    -0.230873485735E+04    0.23647E-03   -0.58153E-04  5046   0.133E-02    0.423E-02
RMM:   8    -0.230873484105E+04    0.16295E-04   -0.50973E-05  2938   0.636E-03    0.198E-02
RMM:   9    -0.230873483469E+04    0.63648E-05   -0.25571E-05  2911   0.360E-03
  62 F= -.23295418E+04 E0= -.23295418E+04  d E =-.227049E-01  mag=     4.0000
       N       E                     dE             d eps       ncg     rms          rms(c)
DAV:   1    -0.230821555546E+04    0.51929E+00   -0.22773E+01  4440   0.388E+00    0.165E+00
RMM:   2    -0.230871917108E+04   -0.50362E+00   -0.53031E+00  6561   0.110E+00    0.116E+00
RMM:   3    -0.230876766342E+04   -0.48492E-01   -0.57992E-01  6254   0.372E-01    0.125E+00
RMM:   4    -0.230875565367E+04    0.12010E-01   -0.51161E-02  6243   0.868E-02    0.484E-01
RMM:   5    -0.230875437848E+04    0.12752E-02   -0.66871E-03  5577   0.331E-02    0.378E-01
RMM:   6    -0.230875350741E+04    0.87107E-03   -0.51368E-03  5704   0.335E-02    0.253E-01
RMM:   7    -0.230875286011E+04    0.64729E-03   -0.19628E-03  5608   0.227E-02    0.851E-02
RMM:   8    -0.230875278710E+04    0.73015E-04   -0.18959E-04  3297   0.999E-03    0.399E-02
RMM:   9    -0.230875275794E+04    0.29159E-04   -0.94345E-05  3054   0.636E-03    0.130E-02
RMM:  10    -0.230875275795E+04   -0.82800E-08   -0.24466E-05  2901   0.409E-03
  63 F= -.23295636E+04 E0= -.23295636E+04  d E =-.444807E-01  mag=     4.0000
       N       E                     dE             d eps       ncg     rms          rms(c)
DAV:   1    -0.230866835667E+04    0.84401E-01   -0.37677E+00  4492   0.157E+00    0.653E-01
RMM:   2    -0.230874821495E+04   -0.79858E-01   -0.84342E-01  6550   0.439E-01    0.433E-01
RMM:   3    -0.230875518740E+04   -0.69725E-02   -0.82250E-02  6221   0.143E-01    0.488E-01
RMM:   4    -0.230875338821E+04    0.17992E-02   -0.85748E-03  5643   0.354E-02    0.184E-01
RMM:   5    -0.230875318011E+04    0.20810E-03   -0.99633E-04  4575   0.141E-02    0.137E-01
RMM:   6    -0.230875310838E+04    0.71725E-04   -0.78412E-04  4353   0.143E-02    0.105E-01
RMM:   7    -0.230875298925E+04    0.11913E-03   -0.24722E-04  4214   0.956E-03    0.265E-02
RMM:   8    -0.230875298224E+04    0.70195E-05   -0.24722E-05  2913   0.514E-03
  64 F= -.23295653E+04 E0= -.23295653E+04  d E =-.461402E-01  mag=     4.0000
       N       E                     dE             d eps       ncg     rms          rms(c)
DAV:   1    -0.230852303889E+04    0.22995E+00   -0.10202E+01  4440   0.253E+00    0.111E+00
RMM:   2    -0.230876626631E+04   -0.24323E+00   -0.25502E+00  6539   0.718E-01    0.885E-01
RMM:   3    -0.230878485466E+04   -0.18588E-01   -0.27299E-01  6287   0.250E-01    0.834E-01
RMM:   4    -0.230877917527E+04    0.56794E-02   -0.24686E-02  6043   0.587E-02    0.323E-01
RMM:   5    -0.230877859147E+04    0.58380E-03   -0.29983E-03  5421   0.232E-02    0.270E-01
RMM:   6    -0.230877799397E+04    0.59749E-03   -0.24161E-03  5255   0.232E-02    0.158E-01
RMM:   7    -0.230877775916E+04    0.23482E-03   -0.86860E-04  5283   0.155E-02    0.485E-02
RMM:   8    -0.230877773771E+04    0.21452E-04   -0.69124E-05  2992   0.724E-03    0.250E-02
RMM:   9    -0.230877772592E+04    0.11784E-04   -0.40540E-05  2919   0.454E-03    0.800E-03
RMM:  10    -0.230877772608E+04   -0.16233E-06   -0.10411E-05  2884   0.300E-03
  65 F= -.23295923E+04 E0= -.23295923E+04  d E =-.269949E-01  mag=     4.0000
       N       E                     dE             d eps       ncg     rms          rms(c)
DAV:   1    -0.230848149548E+04    0.29623E+00   -0.12008E+01  4440   0.275E+00    0.121E+00
RMM:   2    -0.230877113800E+04   -0.28964E+00   -0.30394E+00  6542   0.786E-01    0.949E-01
RMM:   3    -0.230879456461E+04   -0.23427E-01   -0.32918E-01  6283   0.276E-01    0.889E-01
RMM:   4    -0.230878785835E+04    0.67063E-02   -0.29146E-02  6117   0.641E-02    0.354E-01
RMM:   5    -0.230878710308E+04    0.75527E-03   -0.34999E-03  5441   0.246E-02    0.286E-01
RMM:   6    -0.230878646557E+04    0.63751E-03   -0.28320E-03  5373   0.253E-02    0.176E-01
RMM:   7    -0.230878615943E+04    0.30614E-03   -0.10487E-03  5367   0.169E-02    0.528E-02
RMM:   8    -0.230878613234E+04    0.27092E-04   -0.86547E-05  3064   0.777E-03    0.280E-02
RMM:   9    -0.230878611734E+04    0.15001E-04   -0.49128E-05  2935   0.496E-03    0.893E-03
RMM:  10    -0.230878611745E+04   -0.11262E-06   -0.12718E-05  2885   0.326E-03
  66 F= -.23296027E+04 E0= -.23296027E+04  d E =-.374040E-01  mag=     4.0000
       N       E                     dE             d eps       ncg     rms          rms(c)
DAV:   1    -0.230874923971E+04    0.36878E-01   -0.24706E+00  4512   0.145E+00    0.564E-01
RMM:   2    -0.230879772866E+04   -0.48489E-01   -0.52350E-01  6229   0.351E-01    0.335E-01
RMM:   3    -0.230880277278E+04   -0.50441E-02   -0.64364E-02  6024   0.147E-01    0.347E-01
RMM:   4    -0.230880182872E+04    0.94406E-03   -0.54271E-03  5870   0.317E-02    0.178E-01
RMM:   5    -0.230880144980E+04    0.37893E-03   -0.10184E-03  4841   0.178E-02    0.105E-01
RMM:   6    -0.230880141940E+04    0.30398E-04   -0.59074E-04  4442   0.155E-02    0.891E-02
RMM:   7    -0.230880132159E+04    0.97810E-04   -0.17847E-04  4225   0.913E-03    0.245E-02
RMM:   8    -0.230880131358E+04    0.80066E-05   -0.23057E-05  2907   0.553E-03
  67 F= -.23296187E+04 E0= -.23296187E+04  d E =-.160575E-01  mag=     4.0000
       N       E                     dE             d eps       ncg     rms          rms(c)
DAV:   1    -0.230878271774E+04    0.18604E-01   -0.98165E-01  4544   0.915E-01    0.356E-01
RMM:   2    -0.230880207109E+04   -0.19353E-01   -0.20907E-01  6260   0.222E-01    0.211E-01
RMM:   3    -0.230880406761E+04   -0.19965E-02   -0.25219E-02  5962   0.922E-02    0.219E-01
RMM:   4    -0.230880368580E+04    0.38181E-03   -0.21725E-03  5000   0.202E-02    0.111E-01
RMM:   5    -0.230880352740E+04    0.15839E-03   -0.42479E-04  4377   0.123E-02    0.631E-02
RMM:   6    -0.230880351906E+04    0.83469E-05   -0.22235E-04  3570   0.106E-02    0.562E-02
RMM:   7    -0.230880348023E+04    0.38828E-04   -0.65944E-05  3159   0.665E-03    0.149E-02
RMM:   8    -0.230880347762E+04    0.26079E-05   -0.11844E-05  2886   0.455E-03
  68 F= -.23296214E+04 E0= -.23296214E+04  d E =-.187354E-01  mag=     4.0000
       N       E                     dE             d eps       ncg     rms          rms(c)
DAV:   1    -0.230877097998E+04    0.32500E-01   -0.23146E+00  4460   0.145E+00    0.485E-01
RMM:   2    -0.230881175372E+04   -0.40774E-01   -0.44225E-01  6326   0.324E-01    0.261E-01
RMM:   3    -0.230881578590E+04   -0.40322E-02   -0.52651E-02  5928   0.133E-01    0.204E-01
RMM:   4    -0.230881589673E+04   -0.11083E-03   -0.45753E-03  5496   0.271E-02    0.195E-01
RMM:   5    -0.230881543565E+04    0.46108E-03   -0.76785E-04  4833   0.151E-02    0.800E-02
RMM:   6    -0.230881537523E+04    0.60420E-04   -0.36551E-04  4540   0.128E-02    0.423E-02
RMM:   7    -0.230881536685E+04    0.83854E-05   -0.89848E-05  3109   0.766E-03
  69 F= -.23296336E+04 E0= -.23296336E+04  d E =-.122154E-01  mag=     4.0000
       N       E                     dE             d eps       ncg     rms          rms(c)
DAV:   1    -0.230877921853E+04    0.36157E-01   -0.20140E+00  4456   0.136E+00    0.454E-01
RMM:   2    -0.230881477417E+04   -0.35556E-01   -0.38641E-01  6330   0.304E-01    0.244E-01
RMM:   3    -0.230881830122E+04   -0.35271E-02   -0.46144E-02  5875   0.125E-01    0.187E-01
RMM:   4    -0.230881842723E+04   -0.12601E-03   -0.40188E-03  5387   0.256E-02    0.184E-01
RMM:   5    -0.230881801779E+04    0.40943E-03   -0.68704E-04  4798   0.143E-02    0.775E-02
RMM:   6    -0.230881796897E+04    0.48824E-04   -0.33499E-04  4424   0.120E-02    0.485E-02
RMM:   7    -0.230881794889E+04    0.20082E-04   -0.92377E-05  3108   0.750E-03    0.275E-02
RMM:   8    -0.230881793912E+04    0.97642E-05   -0.16308E-05  2864   0.455E-03
  70 F= -.23296365E+04 E0= -.23296365E+04  d E =-.150760E-01  mag=     4.0000
       N       E                     dE             d eps       ncg     rms          rms(c)
DAV:   1    -0.230878535385E+04    0.32595E-01   -0.25681E+00  4456   0.158E+00    0.476E-01
RMM:   2    -0.230882420667E+04   -0.38853E-01   -0.41967E-01  6262   0.336E-01    0.245E-01
RMM:   3    -0.230882788237E+04   -0.36757E-02   -0.47825E-02  5775   0.133E-01    0.150E-01
RMM:   4    -0.230882814553E+04   -0.26316E-03   -0.42058E-03  5257   0.275E-02    0.175E-01
RMM:   5    -0.230882786026E+04    0.28527E-03   -0.61288E-04  4701   0.145E-02    0.940E-02
RMM:   6    -0.230882776349E+04    0.96765E-04   -0.34277E-04  4541   0.120E-02    0.292E-02
RMM:   7    -0.230882776564E+04   -0.21438E-05   -0.58824E-05  2887   0.817E-03
  71 F= -.23296471E+04 E0= -.23296471E+04  d E =-.105745E-01  mag=     4.0000
       N       E                     dE             d eps       ncg     rms          rms(c)
DAV:   1    -0.230878962213E+04    0.38141E-01   -0.24138E+00  4456   0.153E+00    0.463E-01
RMM:   2    -0.230882613316E+04   -0.36511E-01   -0.39486E-01  6263   0.326E-01    0.237E-01
RMM:   3    -0.230882956661E+04   -0.34335E-02   -0.44363E-02  5761   0.128E-01    0.141E-01
RMM:   4    -0.230882975522E+04   -0.18861E-03   -0.38837E-03  5036   0.264E-02    0.151E-01
RMM:   5    -0.230882957671E+04    0.17851E-03   -0.54406E-04  4441   0.142E-02    0.100E-01
RMM:   6    -0.230882948626E+04    0.90453E-04   -0.31590E-04  4551   0.115E-02    0.449E-02
RMM:   7    -0.230882947176E+04    0.14493E-04   -0.82235E-05  2932   0.812E-03    0.287E-02
RMM:   8    -0.230882945920E+04    0.12562E-04   -0.13959E-05  2862   0.345E-03    0.886E-03
RMM:   9    -0.230882945698E+04    0.22235E-05   -0.64447E-06  2883   0.258E-03
  72 F= -.23296495E+04 E0= -.23296495E+04  d E =-.129740E-01  mag=     4.0000
       N       E                     dE             d eps       ncg     rms          rms(c)
DAV:   1    -0.230880570856E+04    0.23751E-01   -0.22044E+00  4440   0.144E+00    0.430E-01
RMM:   2    -0.230883637204E+04   -0.30663E-01   -0.32727E-01  6220   0.301E-01    0.221E-01
RMM:   3    -0.230883920747E+04   -0.28354E-02   -0.35447E-02  5729   0.114E-01    0.143E-01
RMM:   4    -0.230883936375E+04   -0.15628E-03   -0.31732E-03  5188   0.232E-02    0.130E-01
RMM:   5    -0.230883920189E+04    0.16186E-03   -0.48406E-04  4602   0.136E-02    0.926E-02
RMM:   6    -0.230883915419E+04    0.47701E-04   -0.34870E-04  4585   0.114E-02    0.812E-02
RMM:   7    -0.230883909560E+04    0.58585E-04   -0.10302E-04  2967   0.770E-03    0.200E-02
RMM:   8    -0.230883909246E+04    0.31432E-05   -0.15027E-05  2884   0.422E-03
  73 F= -.23296601E+04 E0= -.23296601E+04  d E =-.106247E-01  mag=     4.0000
       N       E                     dE             d eps       ncg     rms          rms(c)
DAV:   1    -0.230876087324E+04    0.78222E-01   -0.54546E+00  4440   0.227E+00    0.678E-01
RMM:   2    -0.230883704884E+04   -0.76176E-01   -0.81281E-01  6235   0.474E-01    0.355E-01
RMM:   3    -0.230884390970E+04   -0.68609E-02   -0.87575E-02  5795   0.177E-01    0.228E-01
RMM:   4    -0.230884422857E+04   -0.31887E-03   -0.77853E-03  5666   0.363E-02    0.198E-01
RMM:   5    -0.230884384665E+04    0.38192E-03   -0.11808E-03  5204   0.203E-02    0.134E-01
RMM:   6    -0.230884376463E+04    0.82016E-04   -0.84506E-04  5332   0.171E-02    0.130E-01
RMM:   7    -0.230884360834E+04    0.15629E-03   -0.25095E-04  3455   0.106E-02    0.350E-02
RMM:   8    -0.230884359911E+04    0.92354E-05   -0.30854E-05  2891   0.470E-03
  74 F= -.23296661E+04 E0= -.23296661E+04  d E =-.166526E-01  mag=     4.0000
       N       E                     dE             d eps       ncg     rms          rms(c)
DAV:   1    -0.230879664221E+04    0.46966E-01   -0.34829E+00  4456   0.174E+00    0.560E-01
RMM:   2    -0.230885093360E+04   -0.54291E-01   -0.57505E-01  6313   0.372E-01    0.316E-01
RMM:   3    -0.230885627666E+04   -0.53431E-02   -0.64995E-02  5903   0.143E-01    0.276E-01
RMM:   4    -0.230885609501E+04    0.18164E-03   -0.58548E-03  5820   0.303E-02    0.182E-01
RMM:   5    -0.230885578678E+04    0.30823E-03   -0.70436E-04  4568   0.144E-02    0.132E-01
RMM:   6    -0.230885566633E+04    0.12045E-03   -0.73559E-04  4913   0.153E-02    0.951E-02
RMM:   7    -0.230885557617E+04    0.90164E-04   -0.22532E-04  4381   0.101E-02    0.276E-02
RMM:   8    -0.230885556985E+04    0.63220E-05   -0.24049E-05  2880   0.541E-03
  75 F= -.23296791E+04 E0= -.23296791E+04  d E =-.130009E-01  mag=     4.0000
       N       E                     dE             d eps       ncg     rms          rms(c)
DAV:   1    -0.230874793592E+04    0.10764E+00   -0.65405E+00  4456   0.238E+00    0.766E-01
RMM:   2    -0.230884998101E+04   -0.10205E+00   -0.10811E+00  6295   0.511E-01    0.432E-01
RMM:   3    -0.230886012402E+04   -0.10143E-01   -0.12441E-01  5925   0.197E-01    0.366E-01
RMM:   4    -0.230885991049E+04    0.21354E-03   -0.10972E-02  6191   0.414E-02    0.252E-01
RMM:   5    -0.230885930016E+04    0.61033E-03   -0.12971E-03  5010   0.188E-02    0.178E-01
RMM:   6    -0.230885907513E+04    0.22503E-03   -0.14109E-03  5370   0.204E-02    0.132E-01
RMM:   7    -0.230885889334E+04    0.18179E-03   -0.41924E-04  4949   0.129E-02    0.391E-02
RMM:   8    -0.230885887567E+04    0.17668E-04   -0.45868E-05  2956   0.629E-03    0.160E-02
RMM:   9    -0.230885887343E+04    0.22414E-05   -0.17328E-05  2894   0.425E-03
  76 F= -.23296838E+04 E0= -.23296838E+04  d E =-.176679E-01  mag=     4.0000
       N       E                     dE             d eps       ncg     rms          rms(c)
DAV:   1    -0.230878947872E+04    0.69397E-01   -0.40366E+00  4456   0.184E+00    0.610E-01
RMM:   2    -0.230885964406E+04   -0.70165E-01   -0.74116E-01  6361   0.407E-01    0.383E-01
RMM:   3    -0.230886701087E+04   -0.73668E-02   -0.85855E-02  6041   0.160E-01    0.375E-01
RMM:   4    -0.230886619736E+04    0.81350E-03   -0.74799E-03  5950   0.338E-02    0.192E-01
RMM:   5    -0.230886584843E+04    0.34893E-03   -0.83438E-04  4680   0.150E-02    0.146E-01
RMM:   6    -0.230886566922E+04    0.17922E-03   -0.92344E-04  5128   0.166E-02    0.103E-01
RMM:   7    -0.230886554911E+04    0.12011E-03   -0.28676E-04  4706   0.108E-02    0.313E-02
RMM:   8    -0.230886554013E+04    0.89781E-05   -0.30698E-05  2890   0.598E-03
  77 F= -.23296914E+04 E0= -.23296914E+04  d E =-.761831E-02  mag=     4.0000
       N       E                     dE             d eps       ncg     rms          rms(c)
DAV:   1    -0.230885754490E+04    0.80042E-02   -0.42930E-01  4704   0.601E-01    0.200E-01
RMM:   2    -0.230886500639E+04   -0.74615E-02   -0.78916E-02  6387   0.133E-01    0.127E-01
RMM:   3    -0.230886578674E+04   -0.78035E-03   -0.90953E-03  5386   0.512E-02    0.121E-01
RMM:   4    -0.230886569871E+04    0.88033E-04   -0.79685E-04  3251   0.114E-02    0.618E-02
RMM:   5    -0.230886566112E+04    0.37591E-04   -0.95600E-05  2935   0.645E-03    0.467E-02
RMM:   6    -0.230886564361E+04    0.17504E-04   -0.98566E-05  3011   0.672E-03    0.334E-02
RMM:   7    -0.230886563216E+04    0.11453E-04   -0.33311E-05  2945   0.561E-03    0.102E-02
RMM:   8    -0.230886563181E+04    0.34564E-06   -0.70730E-06  2842   0.378E-03
  78 F= -.23296918E+04 E0= -.23296918E+04  d E =-.801394E-02  mag=     4.0000
       N       E                     dE             d eps       ncg     rms          rms(c)
DAV:   1    -0.230886375507E+04    0.18771E-02   -0.45918E-01  4496   0.696E-01    0.224E-01
RMM:   2    -0.230886963941E+04   -0.58843E-02   -0.62965E-02  5998   0.142E-01    0.133E-01
RMM:   3    -0.230887012492E+04   -0.48551E-03   -0.62474E-03  5595   0.583E-02    0.139E-01
RMM:   4    -0.230886993913E+04    0.18579E-03   -0.66501E-04  4078   0.137E-02    0.669E-02
RMM:   5    -0.230886990058E+04    0.38550E-04   -0.18043E-04  3856   0.989E-03    0.577E-02
RMM:   6    -0.230886986790E+04    0.32675E-04   -0.11604E-04  3142   0.815E-03    0.291E-02
RMM:   7    -0.230886985830E+04    0.96005E-05   -0.24761E-05  2889   0.607E-03
  79 F= -.23296962E+04 E0= -.23296962E+04  d E =-.439132E-02  mag=     4.0000
       N       E                     dE             d eps       ncg     rms          rms(c)
DAV:   1    -0.230886388554E+04    0.59824E-02   -0.54201E-01  4464   0.757E-01    0.244E-01
RMM:   2    -0.230887083718E+04   -0.69516E-02   -0.74468E-02  6007   0.155E-01    0.144E-01
RMM:   3    -0.230887142376E+04   -0.58658E-03   -0.75537E-03  5658   0.647E-02    0.152E-01
RMM:   4    -0.230887120525E+04    0.21852E-03   -0.79044E-04  4276   0.150E-02    0.735E-02
RMM:   5    -0.230887115814E+04    0.47109E-04   -0.21702E-04  4035   0.106E-02    0.633E-02
RMM:   6    -0.230887111708E+04    0.41054E-04   -0.13662E-04  3339   0.865E-03    0.315E-02
RMM:   7    -0.230887110451E+04    0.12577E-04   -0.28724E-05  2910   0.625E-03    0.933E-03
RMM:   8    -0.230887110275E+04    0.17578E-05   -0.79661E-06  2845   0.406E-03
  80 F= -.23296976E+04 E0= -.23296976E+04  d E =-.580811E-02  mag=     4.0000
       N       E                     dE             d eps       ncg     rms          rms(c)
DAV:   1    -0.230886907298E+04    0.20315E-02   -0.37215E-01  4544   0.611E-01    0.174E-01
RMM:   2    -0.230887393636E+04   -0.48634E-02   -0.51651E-02  6303   0.122E-01    0.105E-01
RMM:   3    -0.230887435727E+04   -0.42090E-03   -0.53303E-03  5350   0.455E-02    0.945E-02
RMM:   4    -0.230887429484E+04    0.62425E-04   -0.53207E-04  3240   0.105E-02    0.568E-02
RMM:   5    -0.230887426634E+04    0.28500E-04   -0.80285E-05  2948   0.644E-03    0.460E-02
RMM:   6    -0.230887424485E+04    0.21496E-04   -0.77537E-05  2961   0.654E-03    0.242E-02
RMM:   7    -0.230887423947E+04    0.53729E-05   -0.23121E-05  2907   0.528E-03
  81 F= -.23297008E+04 E0= -.23297008E+04  d E =-.321428E-02  mag=     4.0000
       N       E                     dE             d eps       ncg     rms          rms(c)
[...]
RMM:   2    -0.230893366544E+04   -0.33600E-03   -0.34808E-03  6076   0.299E-02    0.386E-02
RMM:   3    -0.230893368276E+04   -0.17320E-04   -0.32748E-04  2906   0.111E-02    0.279E-02
RMM:   4    -0.230893367646E+04    0.63028E-05   -0.38422E-05  2903   0.383E-03
 168 F= -.23297495E+04 E0= -.23297495E+04  d E =-.287780E-03  mag=     4.0000
       N       E                     dE             d eps       ncg     rms          rms(c)
DAV:   1    -0.230893277332E+04    0.90945E-03   -0.68436E-02  4440   0.243E-01    0.939E-02
RMM:   2    -0.230893395440E+04   -0.11811E-02   -0.12064E-02  6147   0.550E-02    0.805E-02
RMM:   3    -0.230893402588E+04   -0.71478E-04   -0.11608E-03  3561   0.208E-02    0.668E-02
RMM:   4    -0.230893398299E+04    0.42889E-04   -0.13797E-04  2918   0.649E-03    0.250E-02
RMM:   5    -0.230893397785E+04    0.51472E-05   -0.24826E-05  2882   0.404E-03
 169 F= -.23297498E+04 E0= -.23297498E+04  d E =-.242493E-03  mag=     4.0000
       N       E                     dE             d eps       ncg     rms          rms(c)
DAV:   1    -0.230893371888E+04    0.26412E-03   -0.17175E-02  4560   0.122E-01    0.480E-02
RMM:   2    -0.230893401747E+04   -0.29859E-03   -0.30837E-03  6072   0.289E-02    0.395E-02
RMM:   3    -0.230893402985E+04   -0.12389E-04   -0.29398E-04  2915   0.106E-02    0.267E-02
RMM:   4    -0.230893402405E+04    0.58064E-05   -0.34523E-05  2900   0.373E-03
 170 F= -.23297498E+04 E0= -.23297498E+04  d E =-.258904E-03  mag=     4.0000
       N       E                     dE             d eps       ncg     rms          rms(c)
DAV:   1    -0.230893321801E+04    0.81184E-03   -0.61279E-02  4440   0.228E-01    0.886E-02
RMM:   2    -0.230893429271E+04   -0.10747E-02   -0.10987E-02  6206   0.519E-02    0.748E-02
RMM:   3    -0.230893436079E+04   -0.68079E-04   -0.10603E-03  3420   0.193E-02    0.630E-02
RMM:   4    -0.230893432360E+04    0.37187E-04   -0.12524E-04  2908   0.616E-03    0.236E-02
RMM:   5    -0.230893431934E+04    0.42544E-05   -0.22494E-05  2892   0.373E-03
 171 F= -.23297500E+04 E0= -.23297500E+04  d E =-.233414E-03  mag=     4.0000
       N       E                     dE             d eps       ncg     rms          rms(c)
DAV:   1    -0.230893384767E+04    0.47593E-03   -0.30394E-02  4496   0.161E-01    0.626E-02
RMM:   2    -0.230893437873E+04   -0.53106E-03   -0.55090E-03  6268   0.377E-02    0.470E-02
RMM:   3    -0.230893440812E+04   -0.29391E-04   -0.51215E-04  2999   0.133E-02    0.359E-02
RMM:   4    -0.230893439798E+04    0.10139E-04   -0.60856E-05  2901   0.459E-03    0.171E-02
RMM:   5    -0.230893439679E+04    0.11929E-05   -0.12586E-05  2838   0.278E-03
 172 F= -.23297500E+04 E0= -.23297500E+04  d E =-.267089E-03  mag=     4.0000
       N       E                     dE             d eps       ncg     rms          rms(c)
DAV:   1    -0.230893345265E+04    0.94534E-03   -0.66680E-02  4456   0.236E-01    0.906E-02
RMM:   2    -0.230893463256E+04   -0.11799E-02   -0.12371E-02  6232   0.550E-02    0.530E-02
RMM:   3    -0.230893471739E+04   -0.84828E-04   -0.11652E-03  3394   0.206E-02    0.443E-02
RMM:   4    -0.230893470577E+04    0.11624E-04   -0.13389E-04  2913   0.610E-03    0.251E-02
RMM:   5    -0.230893469992E+04    0.58439E-05   -0.22899E-05  2845   0.380E-03
 173 F= -.23297503E+04 E0= -.23297503E+04  d E =-.249202E-03  mag=     4.0000
       N       E                     dE             d eps       ncg     rms          rms(c)
DAV:   1    -0.230893439470E+04    0.31106E-03   -0.19021E-02  4576   0.126E-01    0.497E-02
RMM:   2    -0.230893474209E+04   -0.34739E-03   -0.35785E-03  6162   0.307E-02    0.378E-02
RMM:   3    -0.230893476534E+04   -0.23251E-04   -0.36929E-04  2990   0.116E-02    0.354E-02
RMM:   4    -0.230893475442E+04    0.10926E-04   -0.43464E-05  2889   0.429E-03    0.168E-02
RMM:   5    -0.230893475308E+04    0.13422E-05   -0.94903E-06  2805   0.203E-03
 174 F= -.23297503E+04 E0= -.23297503E+04  d E =-.273381E-03  mag=     4.0000
       N       E                     dE             d eps       ncg     rms          rms(c)
DAV:   1    -0.230893391882E+04    0.83559E-03   -0.59471E-02  4456   0.228E-01    0.878E-02
RMM:   2    -0.230893493799E+04   -0.10192E-02   -0.10762E-02  6120   0.526E-02    0.499E-02
RMM:   3    -0.230893501266E+04   -0.74672E-04   -0.10195E-03  3376   0.201E-02    0.451E-02
RMM:   4    -0.230893500024E+04    0.12420E-04   -0.11988E-04  2909   0.580E-03    0.265E-02
RMM:   5    -0.230893499561E+04    0.46362E-05   -0.22383E-05  2848   0.366E-03
 175 F= -.23297505E+04 E0= -.23297505E+04  d E =-.228122E-03  mag=     4.0000
       N       E                     dE             d eps       ncg     rms          rms(c)
DAV:   1    -0.230893478804E+04    0.21221E-03   -0.12125E-02  4744   0.103E-01    0.410E-02
RMM:   2    -0.230893500391E+04   -0.21587E-03   -0.22471E-03  5998   0.250E-02    0.312E-02
RMM:   3    -0.230893501525E+04   -0.11345E-04   -0.23133E-04  2893   0.968E-03    0.244E-02
RMM:   4    -0.230893500979E+04    0.54636E-05   -0.27057E-05  2885   0.359E-03
 176 F= -.23297505E+04 E0= -.23297505E+04  d E =-.235749E-03  mag=     4.0000
       N       E                     dE             d eps       ncg     rms          rms(c)
DAV:   1    -0.230893412203E+04    0.89322E-03   -0.60286E-02  4440   0.230E-01    0.884E-02
RMM:   2    -0.230893515215E+04   -0.10301E-02   -0.10870E-02  6223   0.528E-02    0.425E-02
RMM:   3    -0.230893522782E+04   -0.75670E-04   -0.10120E-03  3423   0.199E-02    0.396E-02
RMM:   4    -0.230893522704E+04    0.77806E-06   -0.12044E-04  2920   0.576E-03    0.291E-02
RMM:   5    -0.230893521823E+04    0.88125E-05   -0.21506E-05  2878   0.355E-03
 177 F= -.23297508E+04 E0= -.23297508E+04  d E =-.223003E-03  mag=     4.0000
       N       E                     dE             d eps       ncg     rms          rms(c)
DAV:   1    -0.230893499014E+04    0.23690E-03   -0.13010E-02  4576   0.107E-01    0.440E-02
RMM:   2    -0.230893522341E+04   -0.23327E-03   -0.23845E-03  6024   0.258E-02    0.391E-02
RMM:   3    -0.230893522939E+04   -0.59802E-05   -0.24250E-04  2899   0.995E-03    0.233E-02
RMM:   4    -0.230893522492E+04    0.44710E-05   -0.26695E-05  2896   0.341E-03
 178 F= -.23297508E+04 E0= -.23297508E+04  d E =-.236526E-03  mag=     4.0000
       N       E                     dE             d eps       ncg     rms          rms(c)
DAV:   1    -0.230893429438E+04    0.93502E-03   -0.62056E-02  4440   0.229E-01    0.904E-02
RMM:   2    -0.230893540333E+04   -0.11089E-02   -0.11532E-02  6213   0.539E-02    0.681E-02
RMM:   3    -0.230893548631E+04   -0.82983E-04   -0.11156E-03  3433   0.201E-02    0.639E-02
RMM:   4    -0.230893544896E+04    0.37352E-04   -0.13028E-04  2911   0.636E-03    0.256E-02
RMM:   5    -0.230893544300E+04    0.59554E-05   -0.25852E-05  2887   0.409E-03
 179 F= -.23297510E+04 E0= -.23297510E+04  d E =-.217072E-03  mag=     4.0000
       N       E                     dE             d eps       ncg     rms          rms(c)
DAV:   1    -0.230893535262E+04    0.96336E-04   -0.48912E-03  5048   0.647E-02    0.282E-02
RMM:   2    -0.230893544671E+04   -0.94087E-04   -0.94874E-04  5384   0.164E-02    0.290E-02
RMM:   3    -0.230893544481E+04    0.18962E-05   -0.10264E-04  2863   0.707E-03    0.140E-02
RMM:   4    -0.230893544320E+04    0.16140E-05   -0.11389E-05  2876   0.248E-03
 180 F= -.23297510E+04 E0= -.23297510E+04  d E =-.217004E-03  mag=     4.0000
       N       E                     dE             d eps       ncg     rms          rms(c)
DAV:   1    -0.230893470499E+04    0.73982E-03   -0.56782E-02  4440   0.223E-01    0.836E-02
RMM:   2    -0.230893565281E+04   -0.94782E-03   -0.10013E-02  6209   0.513E-02    0.410E-02
RMM:   3    -0.230893572180E+04   -0.68994E-04   -0.92831E-04  3344   0.190E-02    0.368E-02
RMM:   4    -0.230893572023E+04    0.15748E-05   -0.10971E-04  2914   0.572E-03    0.270E-02
RMM:   5    -0.230893571364E+04    0.65867E-05   -0.19555E-05  2867   0.343E-03
 181 F= -.23297512E+04 E0= -.23297512E+04  d E =-.224358E-03  mag=     4.0000
       N       E                     dE             d eps       ncg     rms          rms(c)
DAV:   1    -0.230893549701E+04    0.22322E-03   -0.14484E-02  4528   0.113E-01    0.446E-02
RMM:   2    -0.230893574786E+04   -0.25084E-03   -0.25829E-03  6079   0.271E-02    0.384E-02
RMM:   3    -0.230893575826E+04   -0.10401E-04   -0.26020E-04  2894   0.101E-02    0.257E-02
RMM:   4    -0.230893575341E+04    0.48487E-05   -0.28618E-05  2894   0.347E-03
 182 F= -.23297512E+04 E0= -.23297512E+04  d E =-.240685E-03  mag=     4.0000
       N       E                     dE             d eps       ncg     rms          rms(c)
DAV:   1    -0.230893498713E+04    0.77113E-03   -0.63654E-02  4440   0.241E-01    0.898E-02
RMM:   2    -0.230893600343E+04   -0.10163E-02   -0.10648E-02  6187   0.542E-02    0.606E-02
RMM:   3    -0.230893609020E+04   -0.86772E-04   -0.10431E-03  3549   0.205E-02    0.639E-02
RMM:   4    -0.230893605063E+04    0.39563E-04   -0.12166E-04  2910   0.632E-03    0.249E-02
RMM:   5    -0.230893604214E+04    0.84953E-05   -0.24151E-05  2893   0.403E-03
 183 F= -.23297515E+04 E0= -.23297515E+04  d E =-.244277E-03  mag=     4.0000
       N       E                     dE             d eps       ncg     rms          rms(c)
DAV:   1    -0.230893583648E+04    0.21416E-03   -0.14160E-02  4640   0.114E-01    0.445E-02
RMM:   2    -0.230893607110E+04   -0.23463E-03   -0.24415E-03  6104   0.272E-02    0.358E-02
RMM:   3    -0.230893607937E+04   -0.82671E-05   -0.24024E-04  2914   0.102E-02    0.238E-02
RMM:   4    -0.230893607386E+04    0.55137E-05   -0.27609E-05  2894   0.369E-03
 184 F= -.23297515E+04 E0= -.23297515E+04  d E =-.254821E-03  mag=     4.0000
       N       E                     dE             d eps       ncg     rms          rms(c)
DAV:   1    -0.230893540158E+04    0.67779E-03   -0.48201E-02  4440   0.201E-01    0.732E-02
RMM:   2    -0.230893622567E+04   -0.82410E-03   -0.87097E-03  6298   0.469E-02    0.387E-02
RMM:   3    -0.230893628796E+04   -0.62288E-04   -0.81812E-04  3160   0.171E-02    0.347E-02
RMM:   4    -0.230893628561E+04    0.23498E-05   -0.96919E-05  2915   0.536E-03
 185 F= -.23297517E+04 E0= -.23297517E+04  d E =-.222251E-03  mag=     4.0000
       N       E                     dE             d eps       ncg     rms          rms(c)
DAV:   1    -0.230893585907E+04    0.42889E-03   -0.24977E-02  4476   0.145E-01    0.545E-02
RMM:   2    -0.230893628878E+04   -0.42971E-03   -0.45101E-03  6125   0.334E-02    0.397E-02
RMM:   3    -0.230893632924E+04   -0.40454E-04   -0.47076E-04  2955   0.135E-02    0.468E-02
RMM:   4    -0.230893631379E+04    0.15443E-04   -0.53038E-05  2890   0.431E-03    0.170E-02
RMM:   5    -0.230893631053E+04    0.32617E-05   -0.13569E-05  2888   0.283E-03
 186 F= -.23297517E+04 E0= -.23297517E+04  d E =-.254784E-03  mag=     4.0000
       N       E                     dE             d eps       ncg     rms          rms(c)
DAV:   1    -0.230893561259E+04    0.70121E-03   -0.56058E-02  4440   0.228E-01    0.858E-02
RMM:   2    -0.230893649050E+04   -0.87791E-03   -0.93744E-03  6171   0.523E-02    0.403E-02
RMM:   3    -0.230893655776E+04   -0.67267E-04   -0.90953E-04  3417   0.200E-02    0.358E-02
RMM:   4    -0.230893655455E+04    0.32133E-05   -0.10396E-04  2908   0.547E-03    0.279E-02
RMM:   5    -0.230893654490E+04    0.96520E-05   -0.19009E-05  2866   0.371E-03
 187 F= -.23297520E+04 E0= -.23297520E+04  d E =-.276206E-03  mag=     4.0000
       N       E                     dE             d eps       ncg     rms          rms(c)
DAV:   1    -0.230893613830E+04    0.41625E-03   -0.24413E-02  4528   0.150E-01    0.571E-02
RMM:   2    -0.230893652451E+04   -0.38621E-03   -0.41404E-03  6274   0.350E-02    0.256E-02
RMM:   3    -0.230893654966E+04   -0.25151E-04   -0.38249E-04  2997   0.128E-02    0.157E-02
RMM:   4    -0.230893655037E+04   -0.71422E-06   -0.43383E-05  2921   0.367E-03
 188 F= -.23297521E+04 E0= -.23297521E+04  d E =-.309540E-03  mag=     4.0000
       N       E                     dE             d eps       ncg     rms          rms(c)
DAV:   1    -0.230893569108E+04    0.85858E-03   -0.61868E-02  4456   0.232E-01    0.876E-02
RMM:   2    -0.230893674921E+04   -0.10581E-02   -0.11005E-02  6264   0.535E-02    0.635E-02
RMM:   3    -0.230893682751E+04   -0.78306E-04   -0.10706E-03  3329   0.195E-02    0.581E-02
RMM:   4    -0.230893680153E+04    0.25982E-04   -0.12252E-04  2902   0.604E-03    0.259E-02
RMM:   5    -0.230893679865E+04    0.28851E-05   -0.25010E-05  2874   0.376E-03
 189 F= -.23297523E+04 E0= -.23297523E+04  d E =-.240162E-03  mag=     4.0000
       N       E                     dE             d eps       ncg     rms          rms(c)
DAV:   1    -0.230893638771E+04    0.41382E-03   -0.23954E-02  4496   0.144E-01    0.548E-02
RMM:   2    -0.230893680104E+04   -0.41333E-03   -0.43418E-03  6248   0.342E-02    0.361E-02
RMM:   3    -0.230893682937E+04   -0.28331E-04   -0.43003E-04  2958   0.126E-02    0.301E-02
RMM:   4    -0.230893682184E+04    0.75315E-05   -0.48648E-05  2897   0.443E-03
 190 F= -.23297523E+04 E0= -.23297523E+04  d E =-.258320E-03  mag=     4.0000
       N       E                     dE             d eps       ncg     rms          rms(c)
DAV:   1    -0.230893617595E+04    0.65342E-03   -0.51271E-02  4456   0.211E-01    0.767E-02
RMM:   2    -0.230893705982E+04   -0.88387E-03   -0.92840E-03  6223   0.482E-02    0.454E-02
RMM:   3    -0.230893714092E+04   -0.81102E-04   -0.92027E-04  3327   0.186E-02    0.555E-02
RMM:   4    -0.230893711856E+04    0.22362E-04   -0.10503E-04  2902   0.574E-03    0.223E-02
RMM:   5    -0.230893711515E+04    0.34062E-05   -0.20284E-05  2883   0.318E-03
 191 F= -.23297526E+04 E0= -.23297526E+04  d E =-.248790E-03  mag=     4.0000
       N       E                     dE             d eps       ncg     rms          rms(c)
DAV:   1    -0.230893648461E+04    0.63395E-03   -0.40264E-02  4456   0.186E-01    0.695E-02
RMM:   2    -0.230893718193E+04   -0.69732E-03   -0.73316E-03  6309   0.437E-02    0.461E-02
RMM:   3    -0.230893722983E+04   -0.47899E-04   -0.70480E-04  3076   0.157E-02    0.377E-02
RMM:   4    -0.230893721965E+04    0.10174E-04   -0.79765E-05  2906   0.514E-03    0.195E-02
RMM:   5    -0.230893721660E+04    0.30568E-05   -0.16591E-05  2853   0.311E-03
 192 F= -.23297526E+04 E0= -.23297526E+04  d E =-.310708E-03  mag=     4.0000
       N       E                     dE             d eps       ncg     rms          rms(c)
DAV:   1    -0.230893643691E+04    0.78275E-03   -0.65628E-02  4488   0.248E-01    0.929E-02
RMM:   2    -0.230893747373E+04   -0.10368E-02   -0.11037E-02  6178   0.559E-02    0.460E-02
RMM:   3    -0.230893755035E+04   -0.76622E-04   -0.10605E-03  3545   0.216E-02    0.391E-02
RMM:   4    -0.230893754317E+04    0.71781E-05   -0.12151E-04  2919   0.636E-03    0.237E-02
RMM:   5    -0.230893753743E+04    0.57427E-05   -0.22089E-05  2875   0.399E-03
 193 F= -.23297529E+04 E0= -.23297529E+04  d E =-.303176E-03  mag=     4.0000
       N       E                     dE             d eps       ncg     rms          rms(c)
DAV:   1    -0.230893721544E+04    0.32774E-03   -0.21463E-02  4560   0.142E-01    0.562E-02
RMM:   2    -0.230893757626E+04   -0.36083E-03   -0.36229E-03  6223   0.331E-02    0.585E-02
RMM:   3    -0.230893758505E+04   -0.87854E-05   -0.38337E-04  2975   0.125E-02    0.372E-02
RMM:   4    -0.230893757235E+04    0.12700E-04   -0.41770E-05  2887   0.442E-03    0.151E-02
RMM:   5    -0.230893757167E+04    0.68307E-06   -0.11601E-05  2847   0.264E-03
 194 F= -.23297530E+04 E0= -.23297530E+04  d E =-.327264E-03  mag=     4.0000
       N       E                     dE             d eps       ncg     rms          rms(c)
DAV:   1    -0.230893671798E+04    0.85437E-03   -0.56716E-02  4456   0.222E-01    0.817E-02
RMM:   2    -0.230893771160E+04   -0.99362E-03   -0.10464E-02  6209   0.510E-02    0.485E-02
RMM:   3    -0.230893779091E+04   -0.79313E-04   -0.10013E-03  3258   0.193E-02    0.462E-02
RMM:   4    -0.230893777761E+04    0.13303E-04   -0.11548E-04  2914   0.578E-03    0.250E-02
RMM:   5    -0.230893777162E+04    0.59863E-05   -0.19531E-05  2840   0.358E-03
 195 F= -.23297532E+04 E0= -.23297532E+04  d E =-.224232E-03  mag=     4.0000
       N       E                     dE             d eps       ncg     rms          rms(c)
DAV:   1    -0.230893719377E+04    0.58384E-03   -0.31716E-02  4512   0.166E-01    0.622E-02
RMM:   2    -0.230893775727E+04   -0.56350E-03   -0.59101E-03  6314   0.393E-02    0.415E-02
RMM:   3    -0.230893779666E+04   -0.39391E-04   -0.58982E-04  3043   0.143E-02    0.335E-02
RMM:   4    -0.230893778809E+04    0.85741E-05   -0.64991E-05  2903   0.485E-03
 196 F= -.23297532E+04 E0= -.23297532E+04  d E =-.258966E-03  mag=     4.0000
       N       E                     dE             d eps       ncg     rms          rms(c)
DAV:   1    -0.230893706283E+04    0.73383E-03   -0.52198E-02  4456   0.214E-01    0.782E-02
RMM:   2    -0.230893797601E+04   -0.91318E-03   -0.96066E-03  6216   0.489E-02    0.399E-02
RMM:   3    -0.230893804722E+04   -0.71218E-04   -0.93245E-04  3275   0.187E-02    0.344E-02
RMM:   4    -0.230893804576E+04    0.14652E-05   -0.10557E-04  2912   0.553E-03    0.240E-02
RMM:   5    -0.230893804119E+04    0.45715E-05   -0.18661E-05  2872   0.324E-03
 197 F= -.23297535E+04 E0= -.23297535E+04  d E =-.250562E-03  mag=     4.0000
       N       E                     dE             d eps       ncg     rms          rms(c)
DAV:   1    -0.230893700817E+04    0.10376E-02   -0.59688E-02  4456   0.229E-01    0.863E-02
RMM:   2    -0.230893806592E+04   -0.10578E-02   -0.10996E-02  6292   0.533E-02    0.636E-02
RMM:   3    -0.230893814496E+04   -0.79033E-04   -0.10750E-03  3276   0.194E-02    0.566E-02
RMM:   4    -0.230893812027E+04    0.24683E-04   -0.11977E-04  2897   0.605E-03    0.251E-02
RMM:   5    -0.230893811775E+04    0.25184E-05   -0.25250E-05  2868   0.364E-03
 198 F= -.23297535E+04 E0= -.23297535E+04  d E =-.324341E-03  mag=     4.0000
       N       E                     dE             d eps       ncg     rms          rms(c)
DAV:   1    -0.230893709536E+04    0.10249E-02   -0.70109E-02  4456   0.247E-01    0.909E-02
RMM:   2    -0.230893835818E+04   -0.12628E-02   -0.13279E-02  6286   0.573E-02    0.542E-02
RMM:   3    -0.230893845863E+04   -0.10046E-03   -0.12996E-03  3424   0.215E-02    0.470E-02
RMM:   4    -0.230893844670E+04    0.11931E-04   -0.14248E-04  2912   0.621E-03    0.262E-02
RMM:   5    -0.230893844023E+04    0.64769E-05   -0.23404E-05  2856   0.380E-03
 199 F= -.23297538E+04 E0= -.23297538E+04  d E =-.280292E-03  mag=     4.0000
       N       E                     dE             d eps       ncg     rms          rms(c)
DAV:   1    -0.230893748772E+04    0.95898E-03   -0.54535E-02  4464   0.217E-01    0.808E-02
RMM:   2    -0.230893847268E+04   -0.98496E-03   -0.10349E-02  6347   0.512E-02    0.482E-02
RMM:   3    -0.230893855508E+04   -0.82399E-04   -0.10502E-03  3358   0.192E-02    0.458E-02
RMM:   4    -0.230893854039E+04    0.14695E-04   -0.11557E-04  2917   0.614E-03    0.245E-02
RMM:   5    -0.230893853770E+04    0.26840E-05   -0.20464E-05  2887   0.319E-03
 200 F= -.23297539E+04 E0= -.23297539E+04  d E =-.340409E-03  mag=     4.0000
       N       E                     dE             d eps       ncg     rms          rms(c)
DAV:   1    -0.230893719993E+04    0.13405E-02   -0.86409E-02  4456   0.271E-01    0.101E-01
RMM:   2    -0.230893876639E+04   -0.15665E-02   -0.16415E-02  6270   0.636E-02    0.630E-02
RMM:   3    -0.230893889663E+04   -0.13024E-03   -0.16096E-03  3558   0.238E-02    0.589E-02
RMM:   4    -0.230893887615E+04    0.20484E-04   -0.17989E-04  2920   0.671E-03    0.316E-02
RMM:   5    -0.230893886973E+04    0.64119E-05   -0.28564E-05  2857   0.401E-03
 201 F= -.23297542E+04 E0= -.23297542E+04  d E =-.310966E-03  mag=     4.0000
