       N       E                     dE             d eps       ncg     rms          rms(c)
DAV:   1     0.126787279410E+05    0.12679E+05   -0.83517E+05  4560   0.142E+03
DAV:   2    -0.114104962242E+04   -0.13820E+05   -0.13228E+05  5160   0.324E+02
DAV:   3    -0.248862918897E+04   -0.13476E+04   -0.13351E+04  5480   0.108E+02
DAV:   4    -0.252367068000E+04   -0.35041E+02   -0.34854E+02  5920   0.237E+01
DAV:   5    -0.252468707852E+04   -0.10164E+01   -0.10143E+01  5720   0.313E+00    0.170E+02
RMM:   6    -0.149244840758E+04    0.10322E+04   -0.19133E+03  4510   0.378E+01    0.727E+01
RMM:   7    -0.165113573008E+04   -0.15869E+03   -0.28120E+02  5150   0.142E+01    0.504E+01
RMM:   8    -0.170699836896E+04   -0.55863E+02   -0.69051E+01  5296   0.782E+00    0.408E+01
RMM:   9    -0.179095793874E+04   -0.83960E+02   -0.56450E+01  5235   0.688E+00    0.340E+01
RMM:  10    -0.193238866396E+04   -0.14143E+03   -0.61732E+01  5354   0.730E+00    0.207E+01
RMM:  11    -0.203408807509E+04   -0.10170E+03   -0.47108E+01  4998   0.552E+00    0.156E+01
RMM:  12    -0.213294409472E+04   -0.98856E+02   -0.50313E+01  4747   0.527E+00    0.128E+01
RMM:  13    -0.222210026419E+04   -0.89156E+02   -0.60656E+01  4797   0.586E+00    0.117E+01
RMM:  14    -0.228786013764E+04   -0.65760E+02   -0.59014E+01  4797   0.553E+00    0.789E+00
RMM:  15    -0.230030318201E+04   -0.12443E+02   -0.13155E+01  4916   0.322E+00    0.554E+00
RMM:  16    -0.231014424974E+04   -0.98411E+01   -0.97776E+00  4523   0.181E+00    0.376E+00
RMM:  17    -0.231336672437E+04   -0.32225E+01   -0.27106E+00  4619   0.140E+00    0.232E+00
RMM:  18    -0.231459852027E+04   -0.12318E+01   -0.11383E+00  4996   0.523E-01    0.151E+00
RMM:  19    -0.231519575469E+04   -0.59723E+00   -0.50293E-01  4661   0.455E-01    0.663E-01
RMM:  20    -0.231542987021E+04   -0.23412E+00   -0.26871E-01  4765   0.276E-01    0.505E-01
RMM:  21    -0.231547852921E+04   -0.48659E-01   -0.47295E-02  4896   0.164E-01    0.264E-01
RMM:  22    -0.231551460000E+04   -0.36071E-01   -0.19871E-02  4533   0.824E-02    0.169E-01
RMM:  23    -0.231553651367E+04   -0.21914E-01   -0.70898E-03  4576   0.690E-02    0.126E-01
RMM:  24    -0.231554799289E+04   -0.11479E-01   -0.32824E-03  4659   0.405E-02    0.633E-02
RMM:  25    -0.231555577582E+04   -0.77829E-02   -0.17605E-03  4528   0.334E-02    0.410E-02
RMM:  26    -0.231556124135E+04   -0.54655E-02   -0.14828E-03  4468   0.257E-02    0.248E-02
RMM:  27    -0.231556321124E+04   -0.19699E-02   -0.64302E-04  4324   0.210E-02    0.188E-02
RMM:  28    -0.231556368958E+04   -0.47834E-03   -0.19226E-04  4190   0.944E-03    0.715E-03
RMM:  29    -0.231556386664E+04   -0.17706E-03   -0.41253E-05  3482   0.645E-03    0.462E-03
RMM:  30    -0.231556393702E+04   -0.70375E-04   -0.14954E-05  3012   0.340E-03    0.251E-03
RMM:  31    -0.231556397999E+04   -0.42971E-04   -0.87803E-06  2912   0.292E-03    0.136E-03
RMM:  32    -0.231556399270E+04   -0.12711E-04   -0.44746E-06  2754   0.245E-03    0.812E-04
RMM:  33    -0.231556399549E+04   -0.27892E-05   -0.22966E-06  2510   0.178E-03
   1 F= -.23364334E+04 E0= -.23364334E+04  d E =-.153223E-10  mag=     4.0000
       N       E                     dE             d eps       ncg     rms          rms(c)
DAV:   1    -0.231555675249E+04    0.72402E-02   -0.19181E+00  4480   0.442E-01    0.223E-01
RMM:   2    -0.231555702439E+04   -0.27190E-03   -0.10337E-02  4466   0.369E-02    0.176E-01
RMM:   3    -0.231555693605E+04    0.88345E-04   -0.14816E-03  4015   0.177E-02    0.201E-01
RMM:   4    -0.231555656728E+04    0.36876E-03   -0.68363E-04  3745   0.987E-03    0.542E-02
RMM:   5    -0.231555657067E+04   -0.33911E-05   -0.13512E-04  3133   0.612E-03    0.450E-02
RMM:   6    -0.231555655077E+04    0.19906E-04   -0.46315E-05  2808   0.422E-03    0.225E-02
RMM:   7    -0.231555654743E+04    0.33420E-05   -0.12063E-05  2677   0.255E-03
   2 F= -.23364272E+04 E0= -.23364272E+04  d E =-.165918E-11  mag=     4.0000
       N       E                     dE             d eps       ncg     rms          rms(c)
DAV:   1    -0.231555827577E+04   -0.17250E-02   -0.77194E+00  4560   0.880E-01    0.443E-01
RMM:   2    -0.231555950235E+04   -0.12266E-02   -0.41394E-02  4531   0.761E-02    0.357E-01
RMM:   3    -0.231555914930E+04    0.35305E-03   -0.61476E-03  4661   0.370E-02    0.394E-01
RMM:   4    -0.231555773450E+04    0.14148E-02   -0.28258E-03  4689   0.189E-02    0.105E-01
RMM:   5    -0.231555776852E+04   -0.34027E-04   -0.51326E-04  3704   0.111E-02    0.893E-02
RMM:   6    -0.231555768593E+04    0.82591E-04   -0.17021E-04  3183   0.694E-03    0.417E-02
RMM:   7    -0.231555767922E+04    0.67133E-05   -0.44571E-05  2934   0.433E-03
   3 F= -.23364258E+04 E0= -.23364258E+04  d E =-.166722E-10  mag=     4.0000
       N       E                     dE             d eps       ncg     rms          rms(c)
DAV:   1    -0.231556072135E+04   -0.30354E-02   -0.36629E+00  4480   0.634E-01    0.346E-01
RMM:   2    -0.231556146158E+04   -0.74023E-03   -0.18701E-02  5118   0.533E-02    0.328E-01
RMM:   3    -0.231556071029E+04    0.75129E-03   -0.35448E-03  4626   0.255E-02    0.245E-01
RMM:   4    -0.231556008381E+04    0.62648E-03   -0.98688E-04  4155   0.124E-02    0.800E-02
RMM:   5    -0.231556014235E+04   -0.58538E-04   -0.29490E-04  3231   0.855E-03    0.925E-02
RMM:   6    -0.231556005511E+04    0.87235E-04   -0.10602E-04  3005   0.587E-03    0.244E-02
RMM:   7    -0.231556005630E+04   -0.11923E-05   -0.20046E-05  2820   0.297E-03
   4 F= -.23364305E+04 E0= -.23364305E+04  d E =-.398670E-11  mag=     4.0000
       N       E                     dE             d eps       ncg     rms          rms(c)
DAV:   1    -0.231556223151E+04   -0.21764E-02   -0.71672E+00  4480   0.886E-01    0.490E-01
RMM:   2    -0.231556425043E+04   -0.20189E-02   -0.35361E-02  5404   0.711E-02    0.441E-01
RMM:   3    -0.231556285940E+04    0.13910E-02   -0.77065E-03  5083   0.378E-02    0.357E-01
RMM:   4    -0.231556133715E+04    0.15222E-02   -0.19394E-03  4718   0.191E-02    0.811E-02
RMM:   5    -0.231556135595E+04   -0.18791E-04   -0.37095E-04  3401   0.870E-03    0.473E-02
RMM:   6    -0.231556137084E+04   -0.14892E-04   -0.10549E-04  2988   0.532E-03    0.571E-02
RMM:   7    -0.231556134601E+04    0.24824E-04   -0.42509E-05  2907   0.370E-03    0.181E-02
RMM:   8    -0.231556134454E+04    0.14748E-05   -0.86150E-06  2777   0.235E-03
   5 F= -.23364297E+04 E0= -.23364297E+04  d E =-.218083E-11  mag=     4.0000
       N       E                     dE             d eps       ncg     rms          rms(c)
DAV:   1    -0.231555064556E+04    0.10700E-01   -0.35298E+00  4480   0.687E-01    0.352E-01
RMM:   2    -0.231555136331E+04   -0.71775E-03   -0.17110E-02  5073   0.513E-02    0.275E-01
RMM:   3    -0.231555149212E+04   -0.12881E-03   -0.35009E-03  4556   0.244E-02    0.314E-01
RMM:   4    -0.231555059532E+04    0.89679E-03   -0.11529E-03  4070   0.137E-02    0.785E-02
RMM:   5    -0.231555069131E+04   -0.95987E-04   -0.40762E-04  3483   0.913E-03    0.958E-02
RMM:   6    -0.231555059378E+04    0.97526E-04   -0.10829E-04  3023   0.602E-03    0.240E-02
RMM:   7    -0.231555059848E+04   -0.46923E-05   -0.24096E-05  2819   0.304E-03
   6 F= -.23364221E+04 E0= -.23364221E+04  d E =-.256009E-10  mag=     4.0000
       N       E                     dE             d eps       ncg     rms          rms(c)
DAV:   1    -0.231555653504E+04   -0.59413E-02   -0.78288E+00  4480   0.105E+00    0.587E-01
RMM:   2    -0.231556022826E+04   -0.36932E-02   -0.53499E-02  4911   0.857E-02    0.470E-01
RMM:   3    -0.231556049198E+04   -0.26373E-03   -0.10936E-02  4829   0.478E-02    0.572E-01
RMM:   4    -0.231555737137E+04    0.31206E-02   -0.31159E-03  4537   0.241E-02    0.161E-01
RMM:   5    -0.231555738540E+04   -0.14030E-04   -0.11642E-03  3998   0.151E-02    0.167E-01
RMM:   6    -0.231555717106E+04    0.21434E-03   -0.34484E-04  3392   0.841E-03    0.553E-02
RMM:   7    -0.231555715027E+04    0.20795E-04   -0.91087E-05  3021   0.562E-03    0.227E-02
RMM:   8    -0.231555716016E+04   -0.98949E-05   -0.28422E-05  2946   0.344E-03
   7 F= -.23364241E+04 E0= -.23364241E+04  d E =-.322116E-12  mag=     4.0000
       N       E                     dE             d eps       ncg     rms          rms(c)
DAV:   1    -0.231555764626E+04   -0.49599E-03   -0.39162E+00  4560   0.864E-01    0.419E-01
RMM:   2    -0.231555877891E+04   -0.11327E-02   -0.23865E-02  4704   0.685E-02    0.297E-01
RMM:   3    -0.231555926748E+04   -0.48857E-03   -0.53256E-03  4600   0.352E-02    0.377E-01
RMM:   4    -0.231555763112E+04    0.16364E-02   -0.16702E-03  4332   0.193E-02    0.106E-01
RMM:   5    -0.231555769807E+04   -0.66956E-04   -0.64048E-04  3758   0.104E-02    0.123E-01
RMM:   6    -0.231555758391E+04    0.11416E-03   -0.18526E-04  3061   0.667E-03    0.347E-02
RMM:   7    -0.231555757248E+04    0.11432E-04   -0.35619E-05  2854   0.352E-03    0.133E-02
RMM:   8    -0.231555757252E+04   -0.48487E-07   -0.91834E-06  2737   0.221E-03
   8 F= -.23364263E+04 E0= -.23364263E+04  d E =-.764651E-12  mag=     4.0000
       N       E                     dE             d eps       ncg     rms          rms(c)
DAV:   1    -0.231555807256E+04   -0.50009E-03   -0.79661E+00  4480   0.122E+00    0.601E-01
RMM:   2    -0.231555718200E+04    0.89056E-03   -0.30192E-02  4334   0.903E-02    0.376E-01
RMM:   3    -0.231555827087E+04   -0.10889E-02   -0.82356E-03  4175   0.507E-02    0.505E-01
RMM:   4    -0.231555592243E+04    0.23484E-02   -0.37084E-03  4726   0.265E-02    0.148E-01
RMM:   5    -0.231555602094E+04   -0.98510E-04   -0.85167E-04  4198   0.151E-02    0.124E-01
RMM:   6    -0.231555590564E+04    0.11530E-03   -0.25746E-04  3361   0.806E-03    0.481E-02
RMM:   7    -0.231555589618E+04    0.94629E-05   -0.46555E-05  3019   0.470E-03
   9 F= -.23364260E+04 E0= -.23364260E+04  d E =-.134901E-10  mag=     4.0000
       N       E                     dE             d eps       ncg     rms          rms(c)
DAV:   1    -0.231554602227E+04    0.98834E-02   -0.39609E+00  4480   0.100E+00    0.433E-01
RMM:   2    -0.231554626132E+04   -0.23906E-03   -0.16379E-02  4149   0.702E-02    0.315E-01
RMM:   3    -0.231554677925E+04   -0.51793E-03   -0.46179E-03  4770   0.372E-02    0.348E-01
RMM:   4    -0.231554517769E+04    0.16016E-02   -0.27538E-03  4592   0.228E-02    0.658E-02
RMM:   5    -0.231554521325E+04   -0.35563E-04   -0.37024E-04  3350   0.127E-02    0.778E-02
RMM:   6    -0.231554516014E+04    0.53110E-04   -0.85679E-05  2917   0.464E-03    0.272E-02
RMM:   7    -0.231554515070E+04    0.94405E-05   -0.29112E-05  2861   0.293E-03
  10 F= -.23364136E+04 E0= -.23364136E+04  d E =-.130478E-10  mag=     4.0000
       N       E                     dE             d eps       ncg     rms          rms(c)
DAV:   1    -0.231554511077E+04    0.49374E-04   -0.85320E+00  4480   0.150E+00    0.756E-01
RMM:   2    -0.231554372818E+04    0.13826E-02   -0.49148E-02  4378   0.114E-01    0.503E-01
RMM:   3    -0.231554464370E+04   -0.91552E-03   -0.12151E-02  5157   0.620E-02    0.546E-01
RMM:   4    -0.231554102807E+04    0.36156E-02   -0.68921E-03  5150   0.363E-02    0.244E-01
RMM:   5    -0.231554069471E+04    0.33336E-03   -0.16060E-03  4473   0.224E-02    0.150E-01
RMM:   6    -0.231554053845E+04    0.15626E-03   -0.40668E-04  3431   0.947E-03    0.632E-02
RMM:   7    -0.231554054086E+04   -0.24068E-05   -0.84939E-05  3194   0.570E-03
  11 F= -.23364110E+04 E0= -.23364110E+04  d E =-.117963E-11  mag=     4.0000
       N       E                     dE             d eps       ncg     rms          rms(c)
DAV:   1    -0.231555537429E+04   -0.14836E-01   -0.39875E+00  4480   0.969E-01    0.491E-01
RMM:   2    -0.231555549156E+04   -0.11727E-03   -0.26028E-02  4477   0.828E-02    0.339E-01
RMM:   3    -0.231555543821E+04    0.53349E-04   -0.47200E-03  4816   0.404E-02    0.329E-01
RMM:   4    -0.231555421493E+04    0.12233E-02   -0.27451E-03  4875   0.228E-02    0.178E-01
RMM:   5    -0.231555401102E+04    0.20391E-03   -0.84115E-04  4308   0.141E-02    0.113E-01
RMM:   6    -0.231555390970E+04    0.10132E-03   -0.19979E-04  3090   0.693E-03    0.431E-02
RMM:   7    -0.231555390403E+04    0.56669E-05   -0.33705E-05  2864   0.355E-03
  12 F= -.23364209E+04 E0= -.23364209E+04  d E =-.394304E-11  mag=     4.0000
       N       E                     dE             d eps       ncg     rms          rms(c)
DAV:   1    -0.231555258432E+04    0.13254E-02   -0.78781E+00  4480   0.141E+00    0.648E-01
RMM:   2    -0.231555109991E+04    0.14844E-02   -0.37596E-02  4355   0.102E-01    0.411E-01
RMM:   3    -0.231555047772E+04    0.62220E-03   -0.64016E-03  4863   0.462E-02    0.338E-01
RMM:   4    -0.231555048307E+04   -0.53523E-05   -0.55169E-03  5129   0.306E-02    0.308E-01
RMM:   5    -0.231554923562E+04    0.12474E-02   -0.12823E-03  4454   0.188E-02    0.436E-02
RMM:   6    -0.231554922925E+04    0.63731E-05   -0.17226E-04  3154   0.583E-03    0.479E-02
RMM:   7    -0.231554920757E+04    0.21681E-04   -0.45852E-05  2800   0.375E-03    0.263E-02
RMM:   8    -0.231554919880E+04    0.87653E-05   -0.52628E-05  2996   0.308E-03
  13 F= -.23364207E+04 E0= -.23364207E+04  d E =-.514495E-11  mag=     4.0000
       N       E                     dE             d eps       ncg     rms          rms(c)
DAV:   1    -0.231556394306E+04   -0.14735E-01   -0.22736E+00  4480   0.753E-01    0.376E-01
RMM:   2    -0.231556361986E+04    0.32321E-03   -0.11236E-02  4019   0.539E-02    0.224E-01
RMM:   3    -0.231556342272E+04    0.19714E-03   -0.17872E-03  3997   0.271E-02    0.186E-01
RMM:   4    -0.231556351782E+04   -0.95097E-04   -0.15796E-03  4387   0.167E-02    0.189E-01
RMM:   5    -0.231556312227E+04    0.39555E-03   -0.40275E-04  3638   0.109E-02    0.376E-02
RMM:   6    -0.231556311578E+04    0.64879E-05   -0.68761E-05  2892   0.441E-03
  14 F= -.23364323E+04 E0= -.23364323E+04  d E =-.348779E-11  mag=     4.0000
       N       E                     dE             d eps       ncg     rms          rms(c)
DAV:   1    -0.231556327760E+04   -0.15534E-03   -0.12133E+00  4480   0.527E-01    0.359E-01
RMM:   2    -0.231556322634E+04    0.51261E-04   -0.54001E-03  3870   0.351E-02    0.213E-01
RMM:   3    -0.231556332284E+04   -0.96500E-04   -0.15429E-03  4249   0.224E-02    0.149E-01
RMM:   4    -0.231556307813E+04    0.24471E-03   -0.51800E-04  3665   0.109E-02    0.554E-02
RMM:   5    -0.231556304652E+04    0.31608E-04   -0.49341E-05  2941   0.434E-03    0.174E-02
RMM:   6    -0.231556304578E+04    0.74084E-06   -0.13993E-05  2726   0.258E-03
  15 F= -.23364326E+04 E0= -.23364326E+04  d E =-.600660E-11  mag=     4.0000
       N       E                     dE             d eps       ncg     rms          rms(c)
DAV:   1    -0.231555289083E+04    0.10156E-01   -0.66100E-01  4840   0.382E-01    0.398E-01
RMM:   2    -0.231555103419E+04    0.18566E-02   -0.93308E-03  4451   0.423E-02    0.245E-01
RMM:   3    -0.231555057460E+04    0.45959E-03   -0.14518E-03  3697   0.244E-02    0.165E-01
RMM:   4    -0.231555078812E+04   -0.21352E-03   -0.11102E-03  3789   0.129E-02    0.215E-01
RMM:   5    -0.231555040440E+04    0.38372E-03   -0.49506E-04  3530   0.108E-02    0.548E-02
RMM:   6    -0.231555038122E+04    0.23174E-04   -0.51632E-05  2951   0.459E-03    0.158E-02
RMM:   7    -0.231555038385E+04   -0.26291E-05   -0.18063E-05  2701   0.291E-03
  16 F= -.23364191E+04 E0= -.23364191E+04  d E =-.441083E-11  mag=     4.0000
       N       E                     dE             d eps       ncg     rms          rms(c)
DAV:   1    -0.231555901056E+04   -0.86293E-02   -0.13666E+00  5120   0.549E-01    0.661E-01
RMM:   2    -0.231555262533E+04    0.63852E-02   -0.30372E-02  4598   0.748E-02    0.404E-01
RMM:   3    -0.231555110238E+04    0.15229E-02   -0.42890E-03  3964   0.454E-02    0.266E-01
RMM:   4    -0.231555150710E+04   -0.40472E-03   -0.28941E-03  4392   0.207E-02    0.333E-01
RMM:   5    -0.231555058731E+04    0.91979E-03   -0.13525E-03  4511   0.174E-02    0.103E-01
RMM:   6    -0.231555051629E+04    0.71017E-04   -0.19412E-04  3402   0.723E-03    0.438E-02
RMM:   7    -0.231555050222E+04    0.14078E-04   -0.67434E-05  2932   0.519E-03    0.302E-02
RMM:   8    -0.231555049028E+04    0.11931E-04   -0.15224E-05  2695   0.299E-03    0.827E-03
RMM:   9    -0.231555049037E+04   -0.85478E-07   -0.74887E-06  2596   0.195E-03
  17 F= -.23364206E+04 E0= -.23364206E+04  d E =-.624499E-11  mag=     4.0000
       N       E                     dE             d eps       ncg     rms          rms(c)
DAV:   1    -0.231556190709E+04   -0.11417E-01   -0.61283E-01  4720   0.378E-01    0.307E-01
RMM:   2    -0.231556121625E+04    0.69083E-03   -0.54653E-03  4235   0.331E-02    0.188E-01
RMM:   3    -0.231556109849E+04    0.11776E-03   -0.10085E-03  3654   0.191E-02    0.157E-01
RMM:   4    -0.231556110060E+04   -0.21019E-05   -0.83783E-04  3950   0.126E-02    0.137E-01
RMM:   5    -0.231556089350E+04    0.20710E-03   -0.26777E-04  3644   0.898E-03    0.349E-02
RMM:   6    -0.231556089634E+04   -0.28400E-05   -0.45098E-05  2772   0.393E-03
  18 F= -.23364305E+04 E0= -.23364305E+04  d E =-.568048E-11  mag=     4.0000
       N       E                     dE             d eps       ncg     rms          rms(c)
DAV:   1    -0.231556247401E+04   -0.15805E-02   -0.12270E+00  4720   0.529E-01    0.388E-01
RMM:   2    -0.231556198966E+04    0.48436E-03   -0.77827E-03  4120   0.423E-02    0.244E-01
RMM:   3    -0.231556218868E+04   -0.19902E-03   -0.19021E-03  4375   0.251E-02    0.237E-01
RMM:   4    -0.231556191068E+04    0.27800E-03   -0.14529E-03  4467   0.168E-02    0.169E-01
RMM:   5    -0.231556161931E+04    0.29137E-03   -0.35683E-04  3503   0.101E-02    0.529E-02
RMM:   6    -0.231556160393E+04    0.15372E-04   -0.81058E-05  2909   0.501E-03    0.365E-02
RMM:   7    -0.231556159006E+04    0.13875E-04   -0.14712E-05  2638   0.267E-03    0.801E-03
RMM:   8    -0.231556158944E+04    0.61751E-06   -0.66888E-06  2579   0.167E-03
  19 F= -.23364308E+04 E0= -.23364308E+04  d E =-.484946E-11  mag=     4.0000
       N       E                     dE             d eps       ncg     rms          rms(c)
DAV:   1    -0.231556047715E+04    0.11129E-02   -0.62367E-01  4720   0.374E-01    0.319E-01
RMM:   2    -0.231555947748E+04    0.99967E-03   -0.69758E-03  4063   0.357E-02    0.191E-01
RMM:   3    -0.231555913424E+04    0.34324E-03   -0.80311E-04  3593   0.203E-02    0.109E-01
RMM:   4    -0.231555913060E+04    0.36406E-05   -0.48298E-04  3615   0.908E-03    0.689E-02
RMM:   5    -0.231555912728E+04    0.33176E-05   -0.15070E-04  3057   0.717E-03    0.640E-02
RMM:   6    -0.231555908787E+04    0.39406E-04   -0.43917E-05  2739   0.380E-03    0.137E-02
RMM:   7    -0.231555908902E+04   -0.11465E-05   -0.11473E-05  2545   0.229E-03
  20 F= -.23364285E+04 E0= -.23364285E+04  d E =-.623110E-11  mag=     4.0000
       N       E                     dE             d eps       ncg     rms          rms(c)
DAV:   1    -0.231556229882E+04   -0.32109E-02   -0.12372E+00  4760   0.516E-01    0.470E-01
RMM:   2    -0.231556039166E+04    0.19072E-02   -0.11452E-02  4370   0.483E-02    0.289E-01
RMM:   3    -0.231556006005E+04    0.33160E-03   -0.20020E-03  4007   0.275E-02    0.218E-01
RMM:   4    -0.231556029524E+04   -0.23519E-03   -0.18872E-03  4582   0.193E-02    0.228E-01
RMM:   5    -0.231555963848E+04    0.65676E-03   -0.67322E-04  4244   0.130E-02    0.620E-02
RMM:   6    -0.231555963195E+04    0.65347E-05   -0.11186E-04  2993   0.525E-03    0.534E-02
RMM:   7    -0.231555960746E+04    0.24490E-04   -0.39247E-05  2649   0.370E-03    0.156E-02
RMM:   8    -0.231555960457E+04    0.28909E-05   -0.82484E-06  2600   0.217E-03
  21 F= -.23364291E+04 E0= -.23364291E+04  d E =-.432474E-11  mag=     4.0000
       N       E                     dE             d eps       ncg     rms          rms(c)
DAV:   1    -0.231556383883E+04   -0.42314E-02   -0.60727E-01  4880   0.352E-01    0.351E-01
RMM:   2    -0.231556255238E+04    0.12864E-02   -0.72215E-03  4304   0.357E-02    0.218E-01
RMM:   3    -0.231556218034E+04    0.37205E-03   -0.98508E-04  3646   0.195E-02    0.144E-01
RMM:   4    -0.231556234458E+04   -0.16425E-03   -0.90275E-04  3779   0.123E-02    0.172E-01
RMM:   5    -0.231556206033E+04    0.28425E-03   -0.38744E-04  3596   0.965E-03    0.505E-02
RMM:   6    -0.231556204683E+04    0.13502E-04   -0.57298E-05  2757   0.438E-03    0.311E-02
RMM:   7    -0.231556203608E+04    0.10746E-04   -0.15230E-05  2506   0.269E-03    0.116E-02
RMM:   8    -0.231556203457E+04    0.15152E-05   -0.48597E-06  2362   0.168E-03
  22 F= -.23364313E+04 E0= -.23364313E+04  d E =-.691981E-11  mag=     4.0000
       N       E                     dE             d eps       ncg     rms          rms(c)
DAV:   1    -0.231556222071E+04   -0.18462E-03   -0.12059E+00  4560   0.498E-01    0.363E-01
RMM:   2    -0.231556185099E+04    0.36972E-03   -0.77244E-03  4537   0.404E-02    0.240E-01
RMM:   3    -0.231556183197E+04    0.19024E-04   -0.16467E-03  3759   0.255E-02    0.225E-01
RMM:   4    -0.231556185009E+04   -0.18118E-04   -0.13131E-03  4046   0.142E-02    0.195E-01
RMM:   5    -0.231556154450E+04    0.30559E-03   -0.39106E-04  3682   0.106E-02    0.318E-02
RMM:   6    -0.231556153595E+04    0.85507E-05   -0.30004E-05  2774   0.361E-03
  23 F= -.23364310E+04 E0= -.23364310E+04  d E =-.391908E-11  mag=     4.0000
       N       E                     dE             d eps       ncg     rms          rms(c)
DAV:   1    -0.231555620548E+04    0.53390E-02   -0.62317E-01  4600   0.359E-01    0.302E-01
RMM:   2    -0.231555568768E+04    0.51780E-03   -0.46690E-03  4164   0.311E-02    0.178E-01
RMM:   3    -0.231555557192E+04    0.11575E-03   -0.87988E-04  3830   0.170E-02    0.138E-01
RMM:   4    -0.231555565029E+04   -0.78366E-04   -0.72384E-04  3753   0.112E-02    0.150E-01
RMM:   5    -0.231555541563E+04    0.23465E-03   -0.24534E-04  3122   0.839E-03    0.302E-02
RMM:   6    -0.231555541635E+04   -0.71994E-06   -0.42180E-05  2707   0.370E-03
  24 F= -.23364247E+04 E0= -.23364247E+04  d E =-.897713E-11  mag=     4.0000
       N       E                     dE             d eps       ncg     rms          rms(c)
DAV:   1    -0.231556187872E+04   -0.64631E-02   -0.12644E+00  4960   0.507E-01    0.596E-01
RMM:   2    -0.231555720123E+04    0.46775E-02   -0.22388E-02  4618   0.640E-02    0.366E-01
RMM:   3    -0.231555611023E+04    0.10910E-02   -0.37029E-03  4042   0.380E-02    0.282E-01
RMM:   4    -0.231555630848E+04   -0.19825E-03   -0.26154E-03  4499   0.192E-02    0.308E-01
RMM:   5    -0.231555542662E+04    0.88187E-03   -0.10630E-03  4305   0.155E-02    0.734E-02
RMM:   6    -0.231555538229E+04    0.44332E-04   -0.12400E-04  3164   0.582E-03    0.247E-02
RMM:   7    -0.231555538600E+04   -0.37154E-05   -0.36354E-05  2757   0.409E-03
  25 F= -.23364249E+04 E0= -.23364249E+04  d E =-.387064E-11  mag=     4.0000
