       N       E                     dE             d eps       ncg     rms          rms(c)
DAV:   1     0.125260326705E+05    0.12526E+05   -0.81851E+05  4376   0.143E+03
DAV:   2    -0.107426867237E+04   -0.13600E+05   -0.13049E+05  5344   0.329E+02
DAV:   3    -0.246679201471E+04   -0.13925E+04   -0.13813E+04  5264   0.109E+02
DAV:   4    -0.250472994463E+04   -0.37938E+02   -0.37753E+02  6264   0.252E+01
DAV:   5    -0.250551692354E+04   -0.78698E+00   -0.78599E+00  5512   0.296E+00    0.170E+02
RMM:   6    -0.146232292075E+04    0.10432E+04   -0.19297E+03  4331   0.388E+01    0.721E+01
RMM:   7    -0.163965936648E+04   -0.17734E+03   -0.27035E+02  4758   0.137E+01    0.475E+01
RMM:   8    -0.168603764363E+04   -0.46378E+02   -0.27728E+01  4810   0.673E+00    0.334E+01
RMM:   9    -0.186377715520E+04   -0.17774E+03   -0.78463E+01  4489   0.901E+00    0.212E+01
RMM:  10    -0.198784631123E+04   -0.12407E+03   -0.53941E+01  4532   0.677E+00    0.157E+01
RMM:  11    -0.209608566736E+04   -0.10824E+03   -0.54118E+01  4353   0.570E+00    0.128E+01
RMM:  12    -0.225262402040E+04   -0.15654E+03   -0.15144E+02  4359   0.854E+00    0.674E+00
RMM:  13    -0.228939588443E+04   -0.36772E+02   -0.39530E+01  4487   0.562E+00    0.407E+00
RMM:  14    -0.229961096543E+04   -0.10215E+02   -0.15476E+01  4711   0.269E+00    0.279E+00
RMM:  15    -0.230174210360E+04   -0.21311E+01   -0.23745E+00  4840   0.144E+00    0.235E+00
RMM:  16    -0.230242952536E+04   -0.68742E+00   -0.62455E-01  4708   0.530E-01    0.168E+00
RMM:  17    -0.230329749502E+04   -0.86797E+00   -0.29725E-01  4587   0.457E-01    0.997E-01
RMM:  18    -0.230347695497E+04   -0.17946E+00   -0.11003E-01  4572   0.290E-01    0.867E-01
RMM:  19    -0.230348984017E+04   -0.12885E-01   -0.20896E-02  4767   0.150E-01    0.618E-01
RMM:  20    -0.230353828244E+04   -0.48442E-01   -0.18257E-02  4329   0.104E-01    0.479E-01
RMM:  21    -0.230355287288E+04   -0.14590E-01   -0.80191E-03  4717   0.831E-02    0.367E-01
RMM:  22    -0.230356261359E+04   -0.97407E-02   -0.42759E-03  4378   0.615E-02    0.235E-01
RMM:  23    -0.230357935727E+04   -0.16744E-01   -0.85371E-03  4332   0.725E-02    0.145E-01
RMM:  24    -0.230358315422E+04   -0.37970E-02   -0.40085E-03  4387   0.624E-02    0.918E-02
RMM:  25    -0.230358469444E+04   -0.15402E-02   -0.18438E-03  4478   0.396E-02    0.479E-02
RMM:  26    -0.230358528467E+04   -0.59023E-03   -0.79283E-04  4191   0.276E-02    0.192E-02
RMM:  27    -0.230358542208E+04   -0.13741E-03   -0.24674E-04  3781   0.166E-02    0.122E-02
RMM:  28    -0.230358552265E+04   -0.10057E-03   -0.95181E-05  3556   0.973E-03    0.621E-03
RMM:  29    -0.230358555355E+04   -0.30906E-04   -0.40616E-05  3245   0.666E-03    0.469E-03
RMM:  30    -0.230358557876E+04   -0.25213E-04   -0.13346E-05  2872   0.400E-03    0.283E-03
RMM:  31    -0.230358559454E+04   -0.15780E-04   -0.86281E-06  2821   0.304E-03    0.165E-03
RMM:  32    -0.230358559671E+04   -0.21672E-05   -0.37062E-06  2485   0.246E-03
   1 F= -.23235548E+04 E0= -.23235548E+04  d E =-.232355E+04  mag=     2.0000
