       N       E                     dE             d eps       ncg     rms          rms(c)
DAV:   1     0.126941904117E+05    0.12694E+05   -0.82797E+05  4432   0.143E+03
DAV:   2    -0.106684044896E+04   -0.13761E+05   -0.13180E+05  5320   0.329E+02
DAV:   3    -0.247113684390E+04   -0.14043E+04   -0.13913E+04  5360   0.111E+02
DAV:   4    -0.251755877764E+04   -0.46422E+02   -0.46204E+02  6672   0.301E+01
DAV:   5    -0.251846282616E+04   -0.90405E+00   -0.90272E+00  5632   0.332E+00    0.171E+02
RMM:   6    -0.147911145029E+04    0.10394E+04   -0.19582E+03  4391   0.390E+01    0.741E+01
RMM:   7    -0.166023751147E+04   -0.18113E+03   -0.30715E+02  5025   0.144E+01    0.555E+01
RMM:   8    -0.169041303206E+04   -0.30176E+02   -0.74916E+01  5176   0.822E+00    0.397E+01
RMM:   9    -0.179793753044E+04   -0.10752E+03   -0.74489E+01  4936   0.826E+00    0.345E+01
RMM:  10    -0.191831000300E+04   -0.12037E+03   -0.55747E+01  5159   0.726E+00    0.189E+01
RMM:  11    -0.204069294059E+04   -0.12238E+03   -0.56108E+01  4821   0.592E+00    0.144E+01
RMM:  12    -0.215546458834E+04   -0.11477E+03   -0.71713E+01  4526   0.630E+00    0.110E+01
RMM:  13    -0.226673529869E+04   -0.11127E+03   -0.10227E+02  4436   0.699E+00    0.798E+00
RMM:  14    -0.229205773587E+04   -0.25322E+02   -0.23311E+01  4618   0.416E+00    0.493E+00
RMM:  15    -0.230273873854E+04   -0.10681E+02   -0.11478E+01  4580   0.233E+00    0.278E+00
RMM:  16    -0.230919414056E+04   -0.64554E+01   -0.51508E+00  4582   0.176E+00    0.190E+00
RMM:  17    -0.231046239833E+04   -0.12683E+01   -0.17462E+00  5033   0.829E-01    0.232E+00
RMM:  18    -0.231059428119E+04   -0.13188E+00   -0.24825E-01  5785   0.288E-01    0.266E+00
RMM:  19    -0.231060850576E+04   -0.14225E-01   -0.16629E-01  4486   0.199E-01    0.226E+00
RMM:  20    -0.231045687547E+04    0.15163E+00   -0.50725E-01  4433   0.323E-01    0.175E+00
RMM:  21    -0.231035387667E+04    0.10300E+00   -0.35148E-01  4462   0.263E-01    0.211E+00
RMM:  22    -0.230925745323E+04    0.10964E+01   -0.99774E-01  4702   0.392E-01    0.280E+00
RMM:  23    -0.230925645774E+04    0.99548E-03   -0.35963E-02  5251   0.930E-02    0.284E+00
RMM:  24    -0.230946161685E+04   -0.20516E+00   -0.25059E-02  4320   0.613E-02    0.275E+00
RMM:  25    -0.231089695235E+04   -0.14353E+01   -0.17286E+00  4479   0.454E-01    0.160E+00
RMM:  26    -0.231144857172E+04   -0.55162E+00   -0.19121E+00  4660   0.396E-01    0.251E+00
RMM:  27    -0.231154923990E+04   -0.10067E+00   -0.36181E-01  4627   0.275E-01    0.300E+00
RMM:  28    -0.231155988010E+04   -0.10640E-01   -0.13015E-01  5004   0.135E-01    0.250E+00
RMM:  29    -0.231156421705E+04   -0.43370E-02   -0.29011E-02  4986   0.795E-02    0.216E+00
RMM:  30    -0.231157480096E+04   -0.10584E-01   -0.10024E-02  4660   0.532E-02    0.196E+00
RMM:  31    -0.231159440864E+04   -0.19608E-01   -0.24729E-02  4602   0.829E-02    0.143E+00
RMM:  32    -0.231161177349E+04   -0.17365E-01   -0.17080E-02  4587   0.821E-02    0.112E+00
RMM:  33    -0.231162644724E+04   -0.14674E-01   -0.16334E-02  4575   0.698E-02    0.903E-01
RMM:  34    -0.231164068548E+04   -0.14238E-01   -0.19934E-02  4537   0.803E-02    0.724E-01
RMM:  35    -0.231164665746E+04   -0.59720E-02   -0.71385E-03  4741   0.550E-02    0.747E-01
RMM:  36    -0.231165075159E+04   -0.40941E-02   -0.25198E-03  4286   0.295E-02    0.823E-01
RMM:  37    -0.231165476855E+04   -0.40170E-02   -0.16423E-03  4253   0.280E-02    0.917E-01
RMM:  38    -0.231165609751E+04   -0.13290E-02   -0.58929E-04  4364   0.166E-02    0.952E-01
RMM:  39    -0.231165607373E+04    0.23781E-04   -0.18840E-04  3809   0.898E-03    0.939E-01
RMM:  40    -0.231165557005E+04    0.50368E-03   -0.35308E-04  3760   0.104E-02    0.909E-01
RMM:  41    -0.231165548682E+04    0.83228E-04   -0.76609E-05  2997   0.666E-03    0.896E-01
RMM:  42    -0.231165579764E+04   -0.31081E-03   -0.45471E-05  2989   0.449E-03    0.883E-01
RMM:  43    -0.231165597230E+04   -0.17467E-03   -0.31201E-05  3069   0.432E-03    0.870E-01
RMM:  44    -0.231165604291E+04   -0.70607E-04   -0.18659E-05  2854   0.383E-03    0.860E-01
RMM:  45    -0.231165612330E+04   -0.80395E-04   -0.29441E-05  2878   0.399E-03    0.841E-01
RMM:  46    -0.231165616703E+04   -0.43725E-04   -0.25760E-05  2827   0.404E-03    0.823E-01
RMM:  47    -0.231165612485E+04    0.42183E-04   -0.31991E-05  2842   0.374E-03    0.795E-01
RMM:  48    -0.231165604813E+04    0.76713E-04   -0.63129E-05  2933   0.464E-03    0.752E-01
RMM:  49    -0.231165592174E+04    0.12639E-03   -0.22625E-04  3411   0.765E-03    0.668E-01
RMM:  50    -0.231165566854E+04    0.25319E-03   -0.44717E-04  3863   0.104E-02    0.549E-01
RMM:  51    -0.231165547514E+04    0.19341E-03   -0.73005E-04  4201   0.128E-02    0.399E-01
RMM:  52    -0.231165541395E+04    0.61183E-04   -0.70675E-04  4048   0.130E-02    0.260E-01
RMM:  53    -0.231165541507E+04   -0.11191E-05   -0.39033E-04  3663   0.104E-02    0.170E-01
RMM:  54    -0.231165542936E+04   -0.14290E-04   -0.14406E-04  3120   0.716E-03    0.123E-01
RMM:  55    -0.231165543682E+04   -0.74624E-05   -0.89328E-05  3001   0.626E-03
   1 F= -.23321803E+04 E0= -.23321803E+04  d E =-.233218E+04  mag=     2.9994
       N       E                     dE             d eps       ncg     rms          rms(c)
DAV:   1    -0.231096299975E+04    0.69243E+00   -0.95402E+01  4536   0.678E+00    0.352E+00
RMM:   2    -0.231287668426E+04   -0.19137E+01   -0.19302E+01  6454   0.224E+00    0.324E+00
RMM:   3    -0.231282232858E+04    0.54356E-01   -0.18929E+00  4776   0.737E-01    0.245E+00
RMM:   4    -0.231278866430E+04    0.33664E-01   -0.19077E-01  5551   0.151E-01    0.112E+00
RMM:   5    -0.231277266407E+04    0.16000E-01   -0.51279E-02  5369   0.959E-02    0.601E-01
RMM:   6    -0.231276818589E+04    0.44782E-02   -0.10309E-02  5040   0.623E-02    0.263E-01
RMM:   7    -0.231276778476E+04    0.40113E-03   -0.24835E-03  5093   0.359E-02    0.119E-01
RMM:   8    -0.231276775245E+04    0.32309E-04   -0.73647E-04  4760   0.172E-02    0.560E-02
RMM:   9    -0.231276772016E+04    0.32286E-04   -0.14687E-04  3804   0.108E-02    0.307E-02
RMM:  10    -0.231276770726E+04    0.12907E-04   -0.82050E-05  3494   0.653E-03    0.216E-02
RMM:  11    -0.231276770582E+04    0.14335E-05   -0.18285E-05  2849   0.491E-03
   2 F= -.23332906E+04 E0= -.23332906E+04  d E =-.111034E+01  mag=     2.9999
       N       E                     dE             d eps       ncg     rms          rms(c)
DAV:   1    -0.231275160410E+04    0.16103E-01   -0.23647E+00  4752   0.109E+00    0.528E-01
RMM:   2    -0.231279097901E+04   -0.39375E-01   -0.42263E-01  6342   0.324E-01    0.311E-01
RMM:   3    -0.231279419786E+04   -0.32188E-02   -0.53510E-02  5469   0.123E-01    0.188E-01
RMM:   4    -0.231279430223E+04   -0.10438E-03   -0.41900E-03  4814   0.220E-02    0.157E-01
RMM:   5    -0.231279414941E+04    0.15283E-03   -0.91601E-04  4639   0.146E-02    0.115E-01
RMM:   6    -0.231279402118E+04    0.12822E-03   -0.21904E-04  3690   0.851E-03    0.576E-02
RMM:   7    -0.231279400357E+04    0.17619E-04   -0.76664E-05  3168   0.658E-03    0.225E-02
RMM:   8    -0.231279399857E+04    0.49977E-05   -0.22652E-05  2853   0.467E-03
   3 F= -.23333166E+04 E0= -.23333166E+04  d E =-.113631E+01  mag=     3.0000
       N       E                     dE             d eps       ncg     rms          rms(c)
DAV:   1    -0.231273830843E+04    0.55695E-01   -0.12709E+01  4496   0.347E+00    0.141E+00
RMM:   2    -0.231291200685E+04   -0.17370E+00   -0.18629E+00  6144   0.739E-01    0.963E-01
RMM:   3    -0.231292734401E+04   -0.15337E-01   -0.23603E-01  5754   0.285E-01    0.920E-01
RMM:   4    -0.231292089645E+04    0.64476E-02   -0.21019E-02  5994   0.687E-02    0.295E-01
RMM:   5    -0.231291925533E+04    0.16411E-02   -0.46908E-03  4920   0.400E-02    0.149E-01
RMM:   6    -0.231291902782E+04    0.22751E-03   -0.17777E-03  5009   0.316E-02    0.113E-01
RMM:   7    -0.231291889818E+04    0.12964E-03   -0.36202E-04  4891   0.155E-02    0.399E-02
RMM:   8    -0.231291886933E+04    0.28848E-04   -0.91797E-05  3184   0.690E-03    0.220E-02
RMM:   9    -0.231291885451E+04    0.14826E-04   -0.31872E-05  2935   0.505E-03    0.111E-02
RMM:  10    -0.231291884919E+04    0.53140E-05   -0.16231E-05  2848   0.427E-03
   4 F= -.23334399E+04 E0= -.23334399E+04  d E =-.123380E+00  mag=     3.0000
       N       E                     dE             d eps       ncg     rms          rms(c)
DAV:   1    -0.231286948472E+04    0.49370E-01   -0.51900E+00  4560   0.221E+00    0.900E-01
RMM:   2    -0.231294026829E+04   -0.70784E-01   -0.75322E-01  6151   0.472E-01    0.664E-01
RMM:   3    -0.231294553546E+04   -0.52672E-02   -0.91373E-02  5713   0.182E-01    0.591E-01
RMM:   4    -0.231294294415E+04    0.25913E-02   -0.84130E-03  5764   0.438E-02    0.184E-01
RMM:   5    -0.231294226116E+04    0.68299E-03   -0.18228E-03  4895   0.264E-02    0.894E-02
RMM:   6    -0.231294217273E+04    0.88433E-04   -0.64362E-04  4865   0.199E-02    0.685E-02
RMM:   7    -0.231294212352E+04    0.49208E-04   -0.13902E-04  3965   0.956E-03    0.232E-02
RMM:   8    -0.231294211130E+04    0.12216E-04   -0.36645E-05  2932   0.530E-03    0.145E-02
RMM:   9    -0.231294210609E+04    0.52080E-05   -0.14104E-05  2857   0.381E-03
   5 F= -.23334622E+04 E0= -.23334622E+04  d E =-.145668E+00  mag=     3.0000
       N       E                     dE             d eps       ncg     rms          rms(c)
DAV:   1    -0.231290518144E+04    0.36930E-01   -0.84980E+00  4448   0.274E+00    0.972E-01
RMM:   2    -0.231302114320E+04   -0.11596E+00   -0.11981E+00  6294   0.612E-01    0.953E-01
RMM:   3    -0.231302667392E+04   -0.55307E-02   -0.14787E-01  5701   0.212E-01    0.659E-01
RMM:   4    -0.231302427489E+04    0.23990E-02   -0.12247E-02  5489   0.465E-02    0.240E-01
RMM:   5    -0.231302332948E+04    0.94541E-03   -0.18230E-03  5055   0.286E-02    0.132E-01
RMM:   6    -0.231302313969E+04    0.18979E-03   -0.11264E-03  4820   0.235E-02    0.587E-02
RMM:   7    -0.231302310382E+04    0.35876E-04   -0.15613E-04  4138   0.125E-02    0.326E-02
RMM:   8    -0.231302308443E+04    0.19389E-04   -0.42579E-05  3083   0.476E-03    0.151E-02
RMM:   9    -0.231302307766E+04    0.67699E-05   -0.14733E-05  2853   0.377E-03
   6 F= -.23335426E+04 E0= -.23335426E+04  d E =-.803313E-01  mag=     3.0000
       N       E                     dE             d eps       ncg     rms          rms(c)
DAV:   1    -0.231296975949E+04    0.53325E-01   -0.53598E+00  4496   0.218E+00    0.776E-01
RMM:   2    -0.231304291721E+04   -0.73158E-01   -0.74985E-01  6275   0.485E-01    0.805E-01
RMM:   3    -0.231304512642E+04   -0.22092E-02   -0.87933E-02  5658   0.165E-01    0.526E-01
RMM:   4    -0.231304367459E+04    0.14518E-02   -0.78768E-03  5260   0.369E-02    0.194E-01
RMM:   5    -0.231304305781E+04    0.61678E-03   -0.12002E-03  5049   0.239E-02    0.115E-01
RMM:   6    -0.231304288985E+04    0.16796E-03   -0.78404E-04  4788   0.190E-02    0.394E-02
RMM:   7    -0.231304287566E+04    0.14189E-04   -0.10023E-04  3747   0.103E-02    0.346E-02
RMM:   8    -0.231304285895E+04    0.16718E-04   -0.33445E-05  2961   0.416E-03    0.168E-02
RMM:   9    -0.231304285294E+04    0.60085E-05   -0.14229E-05  2841   0.356E-03
   7 F= -.23335618E+04 E0= -.23335618E+04  d E =-.995908E-01  mag=     3.0000
       N       E                     dE             d eps       ncg     rms          rms(c)
DAV:   1    -0.231306545440E+04   -0.22595E-01   -0.42249E+00  4512   0.187E+00    0.500E-01
RMM:   2    -0.231308410939E+04   -0.18655E-01   -0.19910E-01  5979   0.321E-01    0.413E-01
RMM:   3    -0.231308418358E+04   -0.74191E-04   -0.15071E-02  5655   0.975E-02    0.359E-01
RMM:   4    -0.231308315194E+04    0.10316E-02   -0.23576E-03  5287   0.284E-02    0.130E-01
RMM:   5    -0.231308290581E+04    0.24613E-03   -0.92080E-04  4810   0.213E-02    0.535E-02
RMM:   6    -0.231308289331E+04    0.12501E-04   -0.20269E-04  4471   0.136E-02    0.266E-02
RMM:   7    -0.231308288321E+04    0.10103E-04   -0.34229E-05  3082   0.543E-03    0.138E-02
RMM:   8    -0.231308287920E+04    0.40106E-05   -0.93335E-06  2845   0.388E-03
   8 F= -.23336023E+04 E0= -.23336023E+04  d E =-.405208E-01  mag=     3.0000
       N       E                     dE             d eps       ncg     rms          rms(c)
DAV:   1    -0.231307756336E+04    0.53198E-02   -0.45866E+00  4464   0.195E+00    0.523E-01
RMM:   2    -0.231309804878E+04   -0.20485E-01   -0.21759E-01  5970   0.336E-01    0.458E-01
RMM:   3    -0.231309785635E+04    0.19243E-03   -0.16505E-02  5660   0.101E-01    0.366E-01
RMM:   4    -0.231309676681E+04    0.10895E-02   -0.25233E-03  5178   0.294E-02    0.134E-01
RMM:   5    -0.231309649921E+04    0.26760E-03   -0.10251E-03  4846   0.226E-02    0.543E-02
RMM:   6    -0.231309649015E+04    0.90508E-05   -0.19458E-04  4534   0.139E-02    0.268E-02
RMM:   7    -0.231309648126E+04    0.88988E-05   -0.35174E-05  3092   0.536E-03
   9 F= -.23336164E+04 E0= -.23336164E+04  d E =-.545621E-01  mag=     3.0000
       N       E                     dE             d eps       ncg     rms          rms(c)
DAV:   1    -0.231310364216E+04   -0.71520E-02   -0.42333E+00  4432   0.194E+00    0.526E-01
RMM:   2    -0.231313028048E+04   -0.26638E-01   -0.28696E-01  6241   0.363E-01    0.361E-01
RMM:   3    -0.231313110554E+04   -0.82505E-03   -0.24821E-02  5626   0.108E-01    0.331E-01
RMM:   4    -0.231313035135E+04    0.75419E-03   -0.28649E-03  5461   0.286E-02    0.148E-01
RMM:   5    -0.231313000238E+04    0.34896E-03   -0.11193E-03  4875   0.228E-02    0.615E-02
RMM:   6    -0.231312995997E+04    0.42408E-04   -0.22142E-04  4527   0.142E-02    0.425E-02
RMM:   7    -0.231312994111E+04    0.18863E-04   -0.63958E-05  3424   0.640E-03    0.143E-02
RMM:   8    -0.231312993579E+04    0.53198E-05   -0.15478E-05  2870   0.512E-03
  10 F= -.23336506E+04 E0= -.23336506E+04  d E =-.342067E-01  mag=     3.0000
       N       E                     dE             d eps       ncg     rms          rms(c)
DAV:   1    -0.231311114847E+04    0.18793E-01   -0.49518E+00  4408   0.210E+00    0.571E-01
RMM:   2    -0.231314216149E+04   -0.31013E-01   -0.33537E-01  6217   0.396E-01    0.389E-01
RMM:   3    -0.231314309936E+04   -0.93786E-03   -0.29647E-02  5632   0.120E-01    0.348E-01
RMM:   4    -0.231314223728E+04    0.86208E-03   -0.33532E-03  5492   0.312E-02    0.158E-01
RMM:   5    -0.231314179946E+04    0.43781E-03   -0.13427E-03  4982   0.248E-02    0.659E-02
RMM:   6    -0.231314174016E+04    0.59301E-04   -0.25444E-04  4644   0.147E-02    0.477E-02
RMM:   7    -0.231314171172E+04    0.28444E-04   -0.77371E-05  3506   0.688E-03    0.211E-02
RMM:   8    -0.231314169719E+04    0.14528E-04   -0.28806E-05  2966   0.582E-03    0.128E-02
RMM:   9    -0.231314169386E+04    0.33348E-05   -0.15066E-05  2854   0.421E-03
  11 F= -.23336631E+04 E0= -.23336631E+04  d E =-.466983E-01  mag=     3.0000
       N       E                     dE             d eps       ncg     rms          rms(c)
DAV:   1    -0.231313067465E+04    0.11023E-01   -0.40878E+00  4484   0.198E+00    0.585E-01
RMM:   2    -0.231316085133E+04   -0.30177E-01   -0.32320E-01  6206   0.379E-01    0.298E-01
RMM:   3    -0.231316228222E+04   -0.14309E-02   -0.33255E-02  5531   0.118E-01    0.230E-01
RMM:   4    -0.231316211828E+04    0.16394E-03   -0.32189E-03  5314   0.282E-02    0.180E-01
RMM:   5    -0.231316181527E+04    0.30301E-03   -0.99798E-04  5189   0.207E-02    0.102E-01
RMM:   6    -0.231316172279E+04    0.92475E-04   -0.30184E-04  4512   0.118E-02    0.540E-02
RMM:   7    -0.231316171788E+04    0.49067E-05   -0.59618E-05  3099   0.765E-03
  12 F= -.23336834E+04 E0= -.23336834E+04  d E =-.203117E-01  mag=     3.0000
       N       E                     dE             d eps       ncg     rms          rms(c)
DAV:   1    -0.231315736491E+04    0.43579E-02   -0.80282E-01  4608   0.877E-01    0.261E-01
RMM:   2    -0.231316328921E+04   -0.59243E-02   -0.63393E-02  6196   0.168E-01    0.139E-01
RMM:   3    -0.231316355478E+04   -0.26556E-03   -0.62944E-03  5235   0.513E-02    0.122E-01
RMM:   4    -0.231316348314E+04    0.71631E-04   -0.63979E-04  4271   0.130E-02    0.826E-02
RMM:   5    -0.231316340762E+04    0.75523E-04   -0.20816E-04  4086   0.105E-02    0.353E-02
RMM:   6    -0.231316339107E+04    0.16548E-04   -0.67824E-05  3325   0.731E-03    0.187E-02
RMM:   7    -0.231316338842E+04    0.26491E-05   -0.15255E-05  2849   0.511E-03
  13 F= -.23336852E+04 E0= -.23336852E+04  d E =-.220966E-01  mag=     3.0000
       N       E                     dE             d eps       ncg     rms          rms(c)
DAV:   1    -0.231316859020E+04   -0.51991E-02   -0.27285E+00  4420   0.158E+00    0.364E-01
RMM:   2    -0.231317927934E+04   -0.10689E-01   -0.11524E-01  5727   0.252E-01    0.216E-01
RMM:   3    -0.231317959522E+04   -0.31588E-03   -0.10284E-02  5289   0.861E-02    0.221E-01
RMM:   4    -0.231317925583E+04    0.33938E-03   -0.12275E-03  5048   0.208E-02    0.106E-01
RMM:   5    -0.231317908013E+04    0.17571E-03   -0.57340E-04  4601   0.177E-02    0.466E-02
RMM:   6    -0.231317907066E+04    0.94655E-05   -0.11446E-04  4065   0.113E-02    0.227E-02
RMM:   7    -0.231317906664E+04    0.40191E-05   -0.21785E-05  2928   0.450E-03
  14 F= -.23337008E+04 E0= -.23337007E+04  d E =-.155793E-01  mag=     3.0000
       N       E                     dE             d eps       ncg     rms          rms(c)
DAV:   1    -0.231315453748E+04    0.24533E-01   -0.82315E+00  4408   0.274E+00    0.633E-01
RMM:   2    -0.231318691559E+04   -0.32378E-01   -0.34957E-01  5689   0.437E-01    0.366E-01
RMM:   3    -0.231318783826E+04   -0.92267E-03   -0.30487E-02  5261   0.149E-01    0.382E-01
RMM:   4    -0.231318682595E+04    0.10123E-02   -0.36651E-03  5485   0.359E-02    0.186E-01
RMM:   5    -0.231318626788E+04    0.55807E-03   -0.17308E-03  4692   0.300E-02    0.754E-02
RMM:   6    -0.231318624300E+04    0.24877E-04   -0.34374E-04  4679   0.183E-02    0.333E-02
RMM:   7    -0.231318623378E+04    0.92233E-05   -0.53335E-05  3362   0.653E-03
  15 F= -.23337077E+04 E0= -.23337077E+04  d E =-.225028E-01  mag=     3.0000
       N       E                     dE             d eps       ncg     rms          rms(c)
DAV:   1    -0.231319037965E+04   -0.41367E-02   -0.66546E-01  4624   0.782E-01    0.171E-01
RMM:   2    -0.231319360711E+04   -0.32275E-02   -0.34416E-02  6057   0.130E-01    0.108E-01
RMM:   3    -0.231319373640E+04   -0.12929E-03   -0.30099E-03  5015   0.396E-02    0.844E-02
RMM:   4    -0.231319371073E+04    0.25673E-04   -0.34890E-04  3445   0.104E-02    0.605E-02
RMM:   5    -0.231319367516E+04    0.35568E-04   -0.13217E-04  3792   0.893E-03    0.314E-02
RMM:   6    -0.231319366876E+04    0.64019E-05   -0.35855E-05  3003   0.649E-03
  16 F= -.23337150E+04 E0= -.23337150E+04  d E =-.735608E-02  mag=     3.0000
       N       E                     dE             d eps       ncg     rms          rms(c)
DAV:   1    -0.231318134988E+04    0.12325E-01   -0.59823E+00  4408   0.234E+00    0.509E-01
RMM:   2    -0.231321020532E+04   -0.28855E-01   -0.30881E-01  5951   0.386E-01    0.312E-01
RMM:   3    -0.231321147224E+04   -0.12669E-02   -0.27903E-02  5334   0.119E-01    0.258E-01
RMM:   4    -0.231321119509E+04    0.27715E-03   -0.31117E-03  5280   0.292E-02    0.179E-01
RMM:   5    -0.231321081944E+04    0.37565E-03   -0.11014E-03  4731   0.229E-02    0.826E-02
RMM:   6    -0.231321076422E+04    0.55224E-04   -0.33977E-04  4693   0.162E-02    0.342E-02
RMM:   7    -0.231321076346E+04    0.75171E-06   -0.34580E-05  2995   0.624E-03
  17 F= -.23337318E+04 E0= -.23337318E+04  d E =-.241614E-01  mag=     3.0000
       N       E                     dE             d eps       ncg     rms          rms(c)
DAV:   1    -0.231310293372E+04    0.10783E+00   -0.23906E+01  4408   0.468E+00    0.101E+00
RMM:   2    -0.231321838088E+04   -0.11545E+00   -0.12375E+00  5876   0.766E-01    0.602E-01
RMM:   3    -0.231322454831E+04   -0.61674E-02   -0.12286E-01  5225   0.256E-01    0.513E-01
RMM:   4    -0.231322356186E+04    0.98645E-03   -0.12694E-02  5593   0.584E-02    0.372E-01
RMM:   5    -0.231322208010E+04    0.14818E-02   -0.40596E-03  4793   0.437E-02    0.169E-01
RMM:   6    -0.231322185021E+04    0.22989E-03   -0.16594E-03  5244   0.320E-02    0.795E-02
RMM:   7    -0.231322183056E+04    0.19642E-04   -0.15202E-04  4316   0.123E-02    0.749E-02
RMM:   8    -0.231322183151E+04   -0.94411E-06   -0.18614E-05  2889   0.388E-03
  18 F= -.23337421E+04 E0= -.23337420E+04  d E =-.344088E-01  mag=     3.0000
       N       E                     dE             d eps       ncg     rms          rms(c)
DAV:   1    -0.231322443623E+04   -0.26057E-02   -0.14241E+00  4576   0.115E+00    0.345E-01
RMM:   2    -0.231323394577E+04   -0.95095E-02   -0.10380E-01  6051   0.211E-01    0.193E-01
RMM:   3    -0.231323440074E+04   -0.45497E-03   -0.10856E-02  5428   0.679E-02    0.133E-01
RMM:   4    -0.231323434311E+04    0.57638E-04   -0.11678E-03  4715   0.177E-02    0.101E-01
RMM:   5    -0.231323429289E+04    0.50214E-04   -0.40311E-04  4537   0.140E-02    0.743E-02
RMM:   6    -0.231323423283E+04    0.60063E-04   -0.12234E-04  3945   0.838E-03    0.273E-02
RMM:   7    -0.231323422710E+04    0.57336E-05   -0.19199E-05  2878   0.555E-03
  19 F= -.23337544E+04 E0= -.23337543E+04  d E =-.122733E-01  mag=     3.0000
       N       E                     dE             d eps       ncg     rms          rms(c)
DAV:   1    -0.231322603071E+04    0.82021E-02   -0.17439E+00  4496   0.127E+00    0.375E-01
RMM:   2    -0.231323762929E+04   -0.11599E-01   -0.12661E-01  6022   0.232E-01    0.202E-01
RMM:   3    -0.231323813005E+04   -0.50077E-03   -0.13159E-02  5378   0.747E-02    0.130E-01
RMM:   4    -0.231323804513E+04    0.84922E-04   -0.13556E-03  4681   0.192E-02    0.941E-02
RMM:   5    -0.231323800185E+04    0.43286E-04   -0.43993E-04  4624   0.156E-02    0.848E-02
RMM:   6    -0.231323792994E+04    0.71902E-04   -0.14552E-04  4007   0.866E-03    0.439E-02
RMM:   7    -0.231323791531E+04    0.14633E-04   -0.31210E-05  2876   0.590E-03    0.280E-02
RMM:   8    -0.231323790393E+04    0.11381E-04   -0.36756E-05  2865   0.417E-03    0.141E-02
RMM:   9    -0.231323790384E+04    0.85201E-07   -0.12632E-05  2841   0.347E-03
  20 F= -.23337579E+04 E0= -.23337578E+04  d E =-.157928E-01  mag=     3.0000
       N       E                     dE             d eps       ncg     rms          rms(c)
DAV:   1    -0.231323962011E+04   -0.17162E-02   -0.81705E-01  4496   0.885E-01    0.249E-01
RMM:   2    -0.231324573762E+04   -0.61175E-02   -0.62455E-02  5988   0.155E-01    0.245E-01
RMM:   3    -0.231324580218E+04   -0.64552E-04   -0.63652E-03  5122   0.529E-02    0.156E-01
RMM:   4    -0.231324562478E+04    0.17739E-03   -0.67804E-04  4339   0.136E-02    0.614E-02
RMM:   5    -0.231324556374E+04    0.61044E-04   -0.17726E-04  4226   0.113E-02    0.332E-02
RMM:   6    -0.231324555987E+04    0.38679E-05   -0.60160E-05  3247   0.769E-03
  21 F= -.23337655E+04 E0= -.23337654E+04  d E =-.761749E-02  mag=     3.0000
       N       E                     dE             d eps       ncg     rms          rms(c)
DAV:   1    -0.231323280016E+04    0.12764E-01   -0.23802E+00  4420   0.151E+00    0.425E-01
RMM:   2    -0.231325070338E+04   -0.17903E-01   -0.18302E-01  6001   0.266E-01    0.413E-01
RMM:   3    -0.231325094727E+04   -0.24389E-03   -0.18406E-02  5300   0.862E-02    0.274E-01
RMM:   4    -0.231325039855E+04    0.54872E-03   -0.19784E-03  4736   0.228E-02    0.107E-01
RMM:   5    -0.231325022297E+04    0.17558E-03   -0.56167E-04  5038   0.184E-02    0.607E-02
RMM:   6    -0.231325020023E+04    0.22738E-04   -0.17008E-04  4415   0.110E-02    0.188E-02
RMM:   7    -0.231325019752E+04    0.27061E-05   -0.24104E-05  2909   0.494E-03
  22 F= -.23337700E+04 E0= -.23337700E+04  d E =-.121573E-01  mag=     3.0000
       N       E                     dE             d eps       ncg     rms          rms(c)
DAV:   1    -0.231324748388E+04    0.27163E-02   -0.15268E+00  4432   0.128E+00    0.362E-01
RMM:   2    -0.231325960881E+04   -0.12125E-01   -0.12236E-01  5824   0.218E-01    0.377E-01
RMM:   3    -0.231325934576E+04    0.26305E-03   -0.10573E-02  5044   0.802E-02    0.216E-01
RMM:   4    -0.231325897756E+04    0.36820E-03   -0.13017E-03  4618   0.194E-02    0.803E-02
RMM:   5    -0.231325886409E+04    0.11347E-03   -0.32230E-04  4833   0.150E-02    0.493E-02
RMM:   6    -0.231325884971E+04    0.14386E-04   -0.12426E-04  4315   0.959E-03    0.159E-02
RMM:   7    -0.231325884731E+04    0.23924E-05   -0.15456E-05  2860   0.502E-03
  23 F= -.23337787E+04 E0= -.23337787E+04  d E =-.869116E-02  mag=     3.0000
       N       E                     dE             d eps       ncg     rms          rms(c)
DAV:   1    -0.231323705143E+04    0.21798E-01   -0.35657E+00  4408   0.195E+00    0.552E-01
RMM:   2    -0.231326539845E+04   -0.28347E-01   -0.28586E-01  5770   0.333E-01    0.577E-01
RMM:   3    -0.231326482374E+04    0.57471E-03   -0.25106E-02  5059   0.123E-01    0.339E-01
RMM:   4    -0.231326390674E+04    0.91700E-03   -0.30374E-03  4740   0.296E-02    0.122E-01
RMM:   5    -0.231326364138E+04    0.26536E-03   -0.77094E-04  5163   0.226E-02    0.791E-02
RMM:   6    -0.231326359530E+04    0.46083E-04   -0.28357E-04  4724   0.140E-02    0.220E-02
RMM:   7    -0.231326358921E+04    0.60862E-05   -0.32251E-05  3033   0.627E-03
  24 F= -.23337835E+04 E0= -.23337834E+04  d E =-.134461E-01  mag=     3.0000
       N       E                     dE             d eps       ncg     rms          rms(c)
DAV:   1    -0.231325989886E+04    0.36964E-02   -0.11418E+00  4528   0.109E+00    0.302E-01
RMM:   2    -0.231327138286E+04   -0.11484E-01   -0.11374E-01  5855   0.195E-01    0.377E-01
RMM:   3    -0.231327101305E+04    0.36981E-03   -0.10192E-02  5145   0.747E-02    0.159E-01
RMM:   4    -0.231327086862E+04    0.14443E-03   -0.11748E-03  4459   0.158E-02    0.746E-02
RMM:   5    -0.231327080171E+04    0.66913E-04   -0.21045E-04  4296   0.118E-02    0.675E-02
RMM:   6    -0.231327076982E+04    0.31886E-04   -0.16469E-04  3859   0.984E-03    0.204E-02
RMM:   7    -0.231327076636E+04    0.34631E-05   -0.18023E-05  2866   0.549E-03
  25 F= -.23337908E+04 E0= -.23337907E+04  d E =-.730003E-02  mag=     3.0000
       N       E                     dE             d eps       ncg     rms          rms(c)
DAV:   1    -0.231320528223E+04    0.65488E-01   -0.75935E+00  4408   0.281E+00    0.785E-01
RMM:   2    -0.231328206131E+04   -0.76779E-01   -0.75825E-01  5888   0.506E-01    0.990E-01
RMM:   3    -0.231327957379E+04    0.24875E-02   -0.71481E-02  5212   0.192E-01    0.433E-01
RMM:   4    -0.231327841752E+04    0.11563E-02   -0.78120E-03  4695   0.406E-02    0.191E-01
RMM:   5    -0.231327799354E+04    0.42398E-03   -0.14285E-03  5128   0.291E-02    0.185E-01
RMM:   6    -0.231327774640E+04    0.24714E-03   -0.10443E-03  5124   0.221E-02    0.816E-02
RMM:   7    -0.231327772533E+04    0.21073E-04   -0.12262E-04  3254   0.888E-03    0.707E-02
RMM:   8    -0.231327771157E+04    0.13764E-04   -0.76582E-05  2912   0.520E-03    0.607E-02
RMM:   9    -0.231327767707E+04    0.34492E-04   -0.29787E-04  3460   0.801E-03    0.336E-02
RMM:  10    -0.231327768862E+04   -0.11550E-04   -0.43995E-05  2894   0.530E-03    0.316E-02
RMM:  11    -0.231327769004E+04   -0.14103E-05   -0.33300E-05  2850   0.402E-03
  26 F= -.23337979E+04 E0= -.23337978E+04  d E =-.144521E-01  mag=     3.0000
       N       E                     dE             d eps       ncg     rms          rms(c)
DAV:   1    -0.231325737684E+04    0.20312E-01   -0.23032E+00  4420   0.152E+00    0.448E-01
RMM:   2    -0.231328754011E+04   -0.30163E-01   -0.29007E-01  6129   0.296E-01    0.686E-01
RMM:   3    -0.231328541577E+04    0.21243E-02   -0.27388E-02  5278   0.991E-02    0.208E-01
RMM:   4    -0.231328534630E+04    0.69471E-04   -0.31940E-03  4607   0.221E-02    0.123E-01
RMM:   5    -0.231328526220E+04    0.84095E-04   -0.44132E-04  4656   0.144E-02    0.136E-01
RMM:   6    -0.231328509709E+04    0.16512E-03   -0.54697E-04  4672   0.155E-02    0.355E-02
RMM:   7    -0.231328509044E+04    0.66443E-05   -0.52851E-05  2945   0.691E-03
  27 F= -.23338057E+04 E0= -.23338056E+04  d E =-.779178E-02  mag=     3.0000
       N       E                     dE             d eps       ncg     rms          rms(c)
DAV:   1    -0.231323741290E+04    0.47684E-01   -0.42118E+00  4408   0.205E+00    0.604E-01
RMM:   2    -0.231329259173E+04   -0.55179E-01   -0.53239E-01  6156   0.403E-01    0.912E-01
RMM:   3    -0.231328891302E+04    0.36787E-02   -0.50558E-02  5384   0.133E-01    0.284E-01
RMM:   4    -0.231328874957E+04    0.16346E-03   -0.58453E-03  4716   0.300E-02    0.163E-01
RMM:   5    -0.231328858240E+04    0.16717E-03   -0.80241E-04  5011   0.189E-02    0.173E-01
RMM:   6    -0.231328829806E+04    0.28434E-03   -0.92524E-04  5053   0.201E-02    0.461E-02
RMM:   7    -0.231328828972E+04    0.83391E-05   -0.94889E-05  3117   0.867E-03
  28 F= -.23338094E+04 E0= -.23338092E+04  d E =-.114525E-01  mag=     3.0000
       N       E                     dE             d eps       ncg     rms          rms(c)
DAV:   1    -0.231326273494E+04    0.25563E-01   -0.30071E+00  4408   0.172E+00    0.498E-01
RMM:   2    -0.231329905154E+04   -0.36317E-01   -0.35650E-01  6120   0.329E-01    0.701E-01
RMM:   3    -0.231329720470E+04    0.18468E-02   -0.31247E-02  5491   0.107E-01    0.249E-01
RMM:   4    -0.231329698116E+04    0.22354E-03   -0.37188E-03  4570   0.244E-02    0.133E-01
RMM:   5    -0.231329683646E+04    0.14470E-03   -0.57763E-04  4893   0.170E-02    0.139E-01
RMM:   6    -0.231329668202E+04    0.15444E-03   -0.61701E-04  4778   0.170E-02    0.454E-02
RMM:   7    -0.231329666505E+04    0.16972E-04   -0.52642E-05  3022   0.713E-03    0.212E-02
RMM:   8    -0.231329666235E+04    0.26991E-05   -0.18721E-05  2868   0.377E-03
  29 F= -.23338183E+04 E0= -.23338181E+04  d E =-.892197E-02  mag=     3.0000
       N       E                     dE             d eps       ncg     rms          rms(c)
DAV:   1    -0.231320926505E+04    0.87400E-01   -0.80385E+00  4408   0.282E+00    0.822E-01
RMM:   2    -0.231330691045E+04   -0.97645E-01   -0.95508E-01  6099   0.540E-01    0.118E+00
RMM:   3    -0.231330159124E+04    0.53192E-02   -0.87377E-02  5477   0.184E-01    0.410E-01
RMM:   4    -0.231330092465E+04    0.66659E-03   -0.99623E-03  4724   0.404E-02    0.213E-01
RMM:   5    -0.231330056809E+04    0.35657E-03   -0.13846E-03  5093   0.263E-02    0.226E-01
RMM:   6    -0.231330015681E+04    0.41128E-03   -0.13308E-03  5116   0.247E-02    0.944E-02
RMM:   7    -0.231330012347E+04    0.33335E-04   -0.22241E-04  3701   0.110E-02    0.702E-02
RMM:   8    -0.231330008855E+04    0.34920E-04   -0.21459E-04  3470   0.792E-03    0.316E-02
RMM:   9    -0.231330009278E+04   -0.42300E-05   -0.46260E-05  2903   0.508E-03
  30 F= -.23338225E+04 E0= -.23338223E+04  d E =-.131162E-01  mag=     3.0000
       N       E                     dE             d eps       ncg     rms          rms(c)
DAV:   1    -0.231326702959E+04    0.33059E-01   -0.36115E+00  4440   0.188E+00    0.552E-01
RMM:   2    -0.231330948126E+04   -0.42452E-01   -0.41412E-01  6099   0.357E-01    0.777E-01
RMM:   3    -0.231330729036E+04    0.21909E-02   -0.36091E-02  5428   0.121E-01    0.277E-01
RMM:   4    -0.231330695083E+04    0.33954E-03   -0.42750E-03  4636   0.273E-02    0.140E-01
RMM:   5    -0.231330679934E+04    0.15149E-03   -0.63793E-04  4952   0.183E-02    0.147E-01
RMM:   6    -0.231330665175E+04    0.14759E-03   -0.59101E-04  4726   0.163E-02    0.608E-02
RMM:   7    -0.231330664157E+04    0.10180E-04   -0.87001E-05  2983   0.764E-03    0.471E-02
RMM:   8    -0.231330662982E+04    0.11751E-04   -0.10504E-04  2978   0.561E-03    0.174E-02
RMM:   9    -0.231330663419E+04   -0.43742E-05   -0.15707E-05  2848   0.358E-03
  31 F= -.23338293E+04 E0= -.23338292E+04  d E =-.683203E-02  mag=     3.0000
       N       E                     dE             d eps       ncg     rms          rms(c)
DAV:   1    -0.231328011135E+04    0.26518E-01   -0.25591E+00  4464   0.159E+00    0.463E-01
RMM:   2    -0.231331016055E+04   -0.30049E-01   -0.29283E-01  6093   0.299E-01    0.658E-01
RMM:   3    -0.231330855544E+04    0.16051E-02   -0.25159E-02  5399   0.101E-01    0.229E-01
RMM:   4    -0.231330833010E+04    0.22534E-03   -0.30228E-03  4591   0.229E-02    0.120E-01
RMM:   5    -0.231330822224E+04    0.10785E-03   -0.46386E-04  4768   0.157E-02    0.128E-01
RMM:   6    -0.231330810905E+04    0.11319E-03   -0.46968E-04  4531   0.145E-02    0.497E-02
RMM:   7    -0.231330809847E+04    0.10586E-04   -0.63375E-05  2921   0.704E-03    0.336E-02
RMM:   8    -0.231330809424E+04    0.42240E-05   -0.41967E-05  2888   0.415E-03
  32 F= -.23338310E+04 E0= -.23338308E+04  d E =-.847812E-02  mag=     3.0000
       N       E                     dE             d eps       ncg     rms          rms(c)
DAV:   1    -0.231330173732E+04    0.63611E-02   -0.11390E+00  4544   0.108E+00    0.324E-01
RMM:   2    -0.231331456814E+04   -0.12831E-01   -0.12809E-01  6122   0.208E-01    0.387E-01
RMM:   3    -0.231331420170E+04    0.36643E-03   -0.10694E-02  5229   0.707E-02    0.189E-01
RMM:   4    -0.231331399802E+04    0.20369E-03   -0.13245E-03  4524   0.169E-02    0.812E-02
RMM:   5    -0.231331392572E+04    0.72299E-04   -0.23905E-04  4362   0.123E-02    0.660E-02
RMM:   6    -0.231331388865E+04    0.37073E-04   -0.17102E-04  4105   0.103E-02    0.240E-02
RMM:   7    -0.231331388567E+04    0.29766E-05   -0.19315E-05  2845   0.584E-03
  33 F= -.23338367E+04 E0= -.23338365E+04  d E =-.565869E-02  mag=     3.0000
       N       E                     dE             d eps       ncg     rms          rms(c)
DAV:   1    -0.231330714468E+04    0.67440E-02   -0.77039E-01  4496   0.888E-01    0.267E-01
RMM:   2    -0.231331580852E+04   -0.86638E-02   -0.86791E-02  6117   0.172E-01    0.313E-01
RMM:   3    -0.231331560340E+04    0.20512E-03   -0.72154E-03  5196   0.578E-02    0.157E-01
RMM:   4    -0.231331546614E+04    0.13726E-03   -0.88964E-04  4374   0.140E-02    0.697E-02
RMM:   5    -0.231331541793E+04    0.48210E-04   -0.17124E-04  4118   0.105E-02    0.551E-02
RMM:   6    -0.231331539315E+04    0.24777E-04   -0.12044E-04  3795   0.903E-03    0.190E-02
RMM:   7    -0.231331538993E+04    0.32183E-05   -0.15509E-05  2849   0.545E-03
  34 F= -.23338380E+04 E0= -.23338379E+04  d E =-.703826E-02  mag=     3.0000
       N       E                     dE             d eps       ncg     rms          rms(c)
DAV:   1    -0.231331159550E+04    0.37977E-02   -0.10130E+00  4432   0.103E+00    0.278E-01
RMM:   2    -0.231331958032E+04   -0.79848E-02   -0.83746E-02  5681   0.175E-01    0.234E-01
RMM:   3    -0.231331988137E+04   -0.30105E-03   -0.72875E-03  5128   0.696E-02    0.191E-01
RMM:   4    -0.231331962862E+04    0.25275E-03   -0.89358E-04  4663   0.160E-02    0.784E-02
RMM:   5    -0.231331955030E+04    0.78321E-04   -0.24193E-04  4344   0.123E-02    0.411E-02
RMM:   6    -0.231331954663E+04    0.36663E-05   -0.90330E-05  3941   0.877E-03
  35 F= -.23338421E+04 E0= -.23338420E+04  d E =-.406752E-02  mag=     3.0000
       N       E                     dE             d eps       ncg     rms          rms(c)
DAV:   1    -0.231331341528E+04    0.61350E-02   -0.83899E-01  4432   0.935E-01    0.255E-01
RMM:   2    -0.231332007710E+04   -0.66618E-02   -0.69623E-02  5830   0.160E-01    0.225E-01
RMM:   3    -0.231332029884E+04   -0.22174E-03   -0.60694E-03  5352   0.624E-02    0.178E-01
RMM:   4    -0.231332007664E+04    0.22220E-03   -0.73374E-04  4538   0.146E-02    0.715E-02
RMM:   5    -0.231332000685E+04    0.69792E-04   -0.20931E-04  4250   0.115E-02    0.349E-02
RMM:   6    -0.231332000185E+04    0.50024E-05   -0.71182E-05  3771   0.857E-03
  36 F= -.23338425E+04 E0= -.23338423E+04  d E =-.442844E-02  mag=     3.0000
       N       E                     dE             d eps       ncg     rms          rms(c)
DAV:   1    -0.231331950539E+04    0.50146E-03   -0.88002E-02  4672   0.302E-01    0.812E-02
RMM:   2    -0.231332019530E+04   -0.68991E-03   -0.72244E-03  6016   0.534E-02    0.694E-02
RMM:   3    -0.231332021612E+04   -0.20823E-04   -0.60879E-04  3643   0.192E-02    0.532E-02
RMM:   4    -0.231332019653E+04    0.19592E-04   -0.69272E-05  2879   0.588E-03    0.238E-02
RMM:   5    -0.231332018935E+04    0.71818E-05   -0.22908E-05  2865   0.461E-03
  37 F= -.23338427E+04 E0= -.23338426E+04  d E =-.464772E-02  mag=     3.0000
       N       E                     dE             d eps       ncg     rms          rms(c)
DAV:   1    -0.231331644452E+04    0.37520E-02   -0.97730E-01  4432   0.101E+00    0.234E-01
RMM:   2    -0.231332323012E+04   -0.67856E-02   -0.70868E-02  5704   0.166E-01    0.202E-01
RMM:   3    -0.231332359951E+04   -0.36939E-03   -0.68198E-03  4839   0.698E-02    0.166E-01
RMM:   4    -0.231332341566E+04    0.18386E-03   -0.77018E-04  4623   0.145E-02    0.818E-02
RMM:   5    -0.231332333069E+04    0.84970E-04   -0.23822E-04  4293   0.120E-02    0.455E-02
RMM:   6    -0.231332331859E+04    0.12095E-04   -0.96533E-05  3874   0.904E-03    0.265E-02
RMM:   7    -0.231332331469E+04    0.39004E-05   -0.29735E-05  2870   0.567E-03
  38 F= -.23338459E+04 E0= -.23338457E+04  d E =-.317741E-02  mag=     3.0000
       N       E                     dE             d eps       ncg     rms          rms(c)
DAV:   1    -0.231331930009E+04    0.40185E-02   -0.65703E-01  4432   0.826E-01    0.192E-01
RMM:   2    -0.231332389488E+04   -0.45948E-02   -0.47916E-02  5776   0.137E-01    0.170E-01
RMM:   3    -0.231332412476E+04   -0.22988E-03   -0.45042E-03  4895   0.532E-02    0.138E-01
RMM:   4    -0.231332399556E+04    0.12920E-03   -0.50705E-04  4245   0.119E-02    0.629E-02
RMM:   5    -0.231332393747E+04    0.58086E-04   -0.16414E-04  4109   0.103E-02    0.320E-02
RMM:   6    -0.231332393260E+04    0.48696E-05   -0.58188E-05  3439   0.787E-03
  39 F= -.23338465E+04 E0= -.23338464E+04  d E =-.382866E-02  mag=     3.0000
       N       E                     dE             d eps       ncg     rms          rms(c)
DAV:   1    -0.231332033545E+04    0.36020E-02   -0.85238E-01  4464   0.950E-01    0.226E-01
RMM:   2    -0.231332647993E+04   -0.61445E-02   -0.64851E-02  5947   0.161E-01    0.154E-01
RMM:   3    -0.231332694455E+04   -0.46462E-03   -0.63025E-03  5036   0.585E-02    0.160E-01
RMM:   4    -0.231332679944E+04    0.14512E-03   -0.69475E-04  4269   0.129E-02    0.771E-02
RMM:   5    -0.231332673713E+04    0.62303E-04   -0.19753E-04  4119   0.105E-02    0.382E-02
RMM:   6    -0.231332673323E+04    0.38993E-05   -0.75689E-05  3682   0.868E-03
  40 F= -.23338494E+04 E0= -.23338493E+04  d E =-.288624E-02  mag=     3.0000
       N       E                     dE             d eps       ncg     rms          rms(c)
DAV:   1    -0.231331493760E+04    0.11800E-01   -0.17288E+00  4452   0.135E+00    0.322E-01
RMM:   2    -0.231332739551E+04   -0.12458E-01   -0.13115E-01  5912   0.229E-01    0.230E-01
RMM:   3    -0.231332838302E+04   -0.98750E-03   -0.13346E-02  5009   0.911E-02    0.242E-01
RMM:   4    -0.231332802739E+04    0.35563E-03   -0.14434E-03  5118   0.190E-02    0.103E-01
RMM:   5    -0.231332791263E+04    0.11475E-03   -0.37941E-04  4444   0.138E-02    0.559E-02
RMM:   6    -0.231332789607E+04    0.16560E-04   -0.15676E-04  4232   0.115E-02    0.208E-02
RMM:   7    -0.231332789453E+04    0.15426E-05   -0.24078E-05  2871   0.578E-03
  41 F= -.23338507E+04 E0= -.23338506E+04  d E =-.415073E-02  mag=     3.0000
       N       E                     dE             d eps       ncg     rms          rms(c)
DAV:   1    -0.231331962269E+04    0.82734E-02   -0.12621E+00  4496   0.114E+00    0.281E-01
RMM:   2    -0.231332999783E+04   -0.10375E-01   -0.10878E-01  5746   0.192E-01    0.183E-01
RMM:   3    -0.231333096007E+04   -0.96224E-03   -0.11862E-02  4944   0.812E-02    0.189E-01
RMM:   4    -0.231333081282E+04    0.14725E-03   -0.12347E-03  4785   0.162E-02    0.973E-02
RMM:   5    -0.231333073624E+04    0.76581E-04   -0.23082E-04  4121   0.113E-02    0.579E-02
RMM:   6    -0.231333073221E+04    0.40252E-05   -0.15113E-04  4073   0.990E-03    0.376E-02
RMM:   7    -0.231333072575E+04    0.64646E-05   -0.35022E-05  2921   0.652E-03
  42 F= -.23338536E+04 E0= -.23338535E+04  d E =-.296635E-02  mag=     3.0000
       N       E                     dE             d eps       ncg     rms          rms(c)
DAV:   1    -0.231332129227E+04    0.94399E-02   -0.11492E+00  4496   0.109E+00    0.268E-01
RMM:   2    -0.231333074405E+04   -0.94518E-02   -0.99361E-02  5779   0.185E-01    0.166E-01
RMM:   3    -0.231333160569E+04   -0.86164E-03   -0.10767E-02  5041   0.752E-02    0.167E-01
RMM:   4    -0.231333150361E+04    0.10209E-03   -0.11121E-03  4570   0.150E-02    0.909E-02
RMM:   5    -0.231333143404E+04    0.69569E-04   -0.19621E-04  4019   0.108E-02    0.523E-02
RMM:   6    -0.231333143015E+04    0.38923E-05   -0.13551E-04  4021   0.914E-03    0.375E-02
RMM:   7    -0.231333142213E+04    0.80176E-05   -0.31786E-05  2909   0.653E-03
  43 F= -.23338544E+04 E0= -.23338544E+04  d E =-.377690E-02  mag=     3.0000
       N       E                     dE             d eps       ncg     rms          rms(c)
DAV:   1    -0.231331700469E+04    0.14425E-01   -0.17370E+00  4452   0.132E+00    0.340E-01
RMM:   2    -0.231333333674E+04   -0.16332E-01   -0.17130E-01  5889   0.233E-01    0.199E-01
RMM:   3    -0.231333505638E+04   -0.17196E-02   -0.20081E-02  5070   0.984E-02    0.216E-01
RMM:   4    -0.231333488854E+04    0.16785E-03   -0.19276E-03  4889   0.185E-02    0.107E-01
RMM:   5    -0.231333477366E+04    0.11488E-03   -0.27432E-04  4212   0.121E-02    0.581E-02
RMM:   6    -0.231333476301E+04    0.10643E-04   -0.19457E-04  4268   0.106E-02    0.379E-02
RMM:   7    -0.231333475255E+04    0.10463E-04   -0.40413E-05  2957   0.739E-03    0.213E-02
RMM:   8    -0.231333475096E+04    0.15893E-05   -0.12625E-05  2842   0.383E-03
  44 F= -.23338579E+04 E0= -.23338578E+04  d E =-.345943E-02  mag=     3.0000
       N       E                     dE             d eps       ncg     rms          rms(c)
DAV:   1    -0.231330230145E+04    0.32451E-01   -0.31652E+00  4440   0.178E+00    0.461E-01
RMM:   2    -0.231333200232E+04   -0.29701E-01   -0.31137E-01  5850   0.313E-01    0.271E-01
RMM:   3    -0.231333524692E+04   -0.32446E-02   -0.37471E-02  5056   0.138E-01    0.303E-01
RMM:   4    -0.231333489296E+04    0.35395E-03   -0.35837E-03  5487   0.251E-02    0.145E-01
RMM:   5    -0.231333468099E+04    0.21198E-03   -0.49972E-04  4585   0.154E-02    0.802E-02
RMM:   6    -0.231333465034E+04    0.30646E-04   -0.36872E-04  4728   0.137E-02    0.477E-02
RMM:   7    -0.231333462881E+04    0.21532E-04   -0.77535E-05  3305   0.889E-03    0.245E-02
RMM:   8    -0.231333462593E+04    0.28742E-05   -0.18001E-05  2846   0.443E-03
  45 F= -.23338579E+04 E0= -.23338578E+04  d E =-.347194E-02  mag=     3.0000
       N       E                     dE             d eps       ncg     rms          rms(c)
DAV:   1    -0.231332779983E+04    0.68290E-02   -0.74797E-01  4464   0.867E-01    0.225E-01
RMM:   2    -0.231333487790E+04   -0.70781E-02   -0.73652E-02  5966   0.153E-01    0.160E-01
RMM:   3    -0.231333549395E+04   -0.61605E-03   -0.79813E-03  5039   0.562E-02    0.148E-01
RMM:   4    -0.231333541569E+04    0.78260E-04   -0.80330E-04  3931   0.125E-02    0.693E-02
RMM:   5    -0.231333536934E+04    0.46352E-04   -0.14319E-04  3687   0.874E-03    0.410E-02
RMM:   6    -0.231333536387E+04    0.54673E-05   -0.73824E-05  3427   0.727E-03
  46 F= -.23338586E+04 E0= -.23338585E+04  d E =-.414848E-02  mag=     3.0000
       N       E                     dE             d eps       ncg     rms          rms(c)
DAV:   1    -0.231331537126E+04    0.19998E-01   -0.20481E+00  4452   0.143E+00    0.376E-01
RMM:   2    -0.231333635377E+04   -0.20983E-01   -0.22146E-01  6044   0.261E-01    0.199E-01
RMM:   3    -0.231333854088E+04   -0.21871E-02   -0.26250E-02  5339   0.107E-01    0.175E-01
RMM:   4    -0.231333857709E+04   -0.36205E-04   -0.25025E-03  4803   0.198E-02    0.135E-01
RMM:   5    -0.231333840769E+04    0.16939E-03   -0.32152E-04  4318   0.124E-02    0.656E-02
RMM:   6    -0.231333837768E+04    0.30017E-04   -0.23700E-04  4366   0.109E-02    0.421E-02
RMM:   7    -0.231333835562E+04    0.22055E-04   -0.58605E-05  3063   0.829E-03    0.179E-02
RMM:   8    -0.231333835336E+04    0.22667E-05   -0.14468E-05  2843   0.417E-03
  47 F= -.23338616E+04 E0= -.23338615E+04  d E =-.302298E-02  mag=     3.0000
       N       E                     dE             d eps       ncg     rms          rms(c)
DAV:   1    -0.231333358982E+04    0.47658E-02   -0.44537E-01  4560   0.666E-01    0.176E-01
RMM:   2    -0.231333817423E+04   -0.45844E-02   -0.48302E-02  6020   0.122E-01    0.980E-02
RMM:   3    -0.231333865152E+04   -0.47729E-03   -0.55425E-03  4851   0.509E-02    0.100E-01
RMM:   4    -0.231333863345E+04    0.18077E-04   -0.54071E-04  3161   0.971E-03    0.564E-02
RMM:   5    -0.231333859683E+04    0.36613E-04   -0.70550E-05  3143   0.703E-03    0.273E-02
RMM:   6    -0.231333859218E+04    0.46524E-05   -0.51380E-05  3317   0.679E-03
  48 F= -.23338618E+04 E0= -.23338618E+04  d E =-.326587E-02  mag=     3.0000
       N       E                     dE             d eps       ncg     rms          rms(c)
DAV:   1    -0.231332001041E+04    0.18586E-01   -0.18747E+00  4472   0.134E+00    0.347E-01
RMM:   2    -0.231333953711E+04   -0.19527E-01   -0.20663E-01  5999   0.241E-01    0.191E-01
RMM:   3    -0.231334160505E+04   -0.20679E-02   -0.24484E-02  5343   0.965E-02    0.122E-01
RMM:   4    -0.231334168985E+04   -0.84798E-04   -0.23130E-03  4590   0.196E-02    0.933E-02
RMM:   5    -0.231334159900E+04    0.90849E-04   -0.25013E-04  4145   0.111E-02    0.540E-02
RMM:   6    -0.231334158910E+04    0.98967E-05   -0.15210E-04  4137   0.100E-02    0.342E-02
RMM:   7    -0.231334158807E+04    0.10301E-05   -0.37585E-05  2846   0.658E-03
  49 F= -.23338648E+04 E0= -.23338647E+04  d E =-.291820E-02  mag=     3.0000
       N       E                     dE             d eps       ncg     rms          rms(c)
DAV:   1    -0.231332693086E+04    0.14658E-01   -0.13417E+00  4484   0.114E+00    0.294E-01
RMM:   2    -0.231334090675E+04   -0.13976E-01   -0.14810E-01  6013   0.204E-01    0.159E-01
RMM:   3    -0.231334239683E+04   -0.14901E-02   -0.17579E-02  5327   0.835E-02    0.101E-01
RMM:   4    -0.231334246102E+04   -0.64190E-04   -0.16444E-03  4352   0.167E-02    0.768E-02
RMM:   5    -0.231334240058E+04    0.60440E-04   -0.17572E-04  3848   0.951E-03    0.476E-02
RMM:   6    -0.231334241294E+04   -0.12362E-04   -0.13399E-04  3864   0.883E-03    0.623E-02
RMM:   7    -0.231334238667E+04    0.26272E-04   -0.38241E-05  2850   0.597E-03    0.203E-02
RMM:   8    -0.231334238548E+04    0.11867E-05   -0.12113E-05  2843   0.295E-03
  50 F= -.23338655E+04 E0= -.23338654E+04  d E =-.362401E-02  mag=     3.0000
       N       E                     dE             d eps       ncg     rms          rms(c)
DAV:   1    -0.231331820041E+04    0.24186E-01   -0.21869E+00  4472   0.144E+00    0.408E-01
RMM:   2    -0.231334289559E+04   -0.24695E-01   -0.26243E-01  6098   0.274E-01    0.206E-01
RMM:   3    -0.231334549457E+04   -0.25990E-02   -0.31417E-02  5501   0.105E-01    0.137E-01
RMM:   4    -0.231334561330E+04   -0.11873E-03   -0.30040E-03  4801   0.217E-02    0.126E-01
RMM:   5    -0.231334550170E+04    0.11159E-03   -0.32857E-04  4032   0.118E-02    0.880E-02
RMM:   6    -0.231334547057E+04    0.31139E-04   -0.27883E-04  4290   0.103E-02    0.608E-02
RMM:   7    -0.231334543342E+04    0.37150E-04   -0.80924E-05  3141   0.838E-03    0.221E-02
RMM:   8    -0.231334543282E+04    0.59260E-06   -0.15355E-05  2851   0.438E-03
  51 F= -.23338683E+04 E0= -.23338682E+04  d E =-.282081E-02  mag=     3.0000
       N       E                     dE             d eps       ncg     rms          rms(c)
DAV:   1    -0.231334392898E+04    0.15044E-02   -0.12931E-01  4704   0.351E-01    0.101E-01
RMM:   2    -0.231334539865E+04   -0.14697E-02   -0.15649E-02  6172   0.675E-02    0.509E-02
RMM:   3    -0.231334554616E+04   -0.14751E-03   -0.17756E-03  3842   0.259E-02    0.308E-02
RMM:   4    -0.231334555260E+04   -0.64409E-05   -0.17293E-04  2917   0.634E-03    0.237E-02
RMM:   5    -0.231334554926E+04    0.33431E-05   -0.23815E-05  2869   0.434E-03
  52 F= -.23338683E+04 E0= -.23338683E+04  d E =-.287617E-02  mag=     3.0000
       N       E                     dE             d eps       ncg     rms          rms(c)
DAV:   1    -0.231332442841E+04    0.21124E-01   -0.18938E+00  4472   0.136E+00    0.381E-01
RMM:   2    -0.231334607828E+04   -0.21650E-01   -0.22885E-01  6171   0.259E-01    0.192E-01
RMM:   3    -0.231334844369E+04   -0.23654E-02   -0.27659E-02  5514   0.973E-02    0.165E-01
RMM:   4    -0.231334852404E+04   -0.80349E-04   -0.26048E-03  4621   0.190E-02    0.136E-01
RMM:   5    -0.231334837587E+04    0.14817E-03   -0.30292E-04  4135   0.113E-02    0.668E-02
RMM:   6    -0.231334835322E+04    0.22647E-04   -0.21529E-04  4245   0.998E-03    0.449E-02
RMM:   7    -0.231334833332E+04    0.19901E-04   -0.64060E-05  3076   0.807E-03    0.216E-02
RMM:   8    -0.231334833323E+04    0.92274E-07   -0.12906E-05  2845   0.421E-03
  53 F= -.23338710E+04 E0= -.23338709E+04  d E =-.260745E-02  mag=     3.0000
       N       E                     dE             d eps       ncg     rms          rms(c)
DAV:   1    -0.231331770680E+04    0.30627E-01   -0.24381E+00  4472   0.154E+00    0.435E-01
RMM:   2    -0.231334560529E+04   -0.27898E-01   -0.29518E-01  6138   0.294E-01    0.214E-01
RMM:   3    -0.231334857270E+04   -0.29674E-02   -0.35623E-02  5524   0.110E-01    0.152E-01
RMM:   4    -0.231334872726E+04   -0.15456E-03   -0.33836E-03  4872   0.221E-02    0.144E-01
RMM:   5    -0.231334857636E+04    0.15091E-03   -0.38059E-04  4076   0.120E-02    0.864E-02
RMM:   6    -0.231334854083E+04    0.35529E-04   -0.28685E-04  4318   0.106E-02    0.575E-02
RMM:   7    -0.231334850462E+04    0.36208E-04   -0.95232E-05  3266   0.897E-03    0.232E-02
RMM:   8    -0.231334850656E+04   -0.19409E-05   -0.16500E-05  2852   0.452E-03
  54 F= -.23338709E+04 E0= -.23338709E+04  d E =-.254515E-02  mag=     3.0000
       N       E                     dE             d eps       ncg     rms          rms(c)
DAV:   1    -0.231334177891E+04    0.67257E-02   -0.56437E-01  4496   0.743E-01    0.207E-01
RMM:   2    -0.231334822751E+04   -0.64486E-02   -0.67954E-02  6174   0.141E-01    0.114E-01
RMM:   3    -0.231334886007E+04   -0.63256E-03   -0.74018E-03  5171   0.495E-02    0.105E-01
RMM:   4    -0.231334886636E+04   -0.62863E-05   -0.73149E-04  3218   0.107E-02    0.663E-02
RMM:   5    -0.231334882568E+04    0.40676E-04   -0.10114E-04  3133   0.750E-03    0.340E-02
RMM:   6    -0.231334881949E+04    0.61958E-05   -0.52901E-05  3200   0.662E-03
  55 F= -.23338713E+04 E0= -.23338713E+04  d E =-.297602E-02  mag=     3.0000
       N       E                     dE             d eps       ncg     rms          rms(c)
DAV:   1    -0.231333489692E+04    0.13929E-01   -0.12513E+00  4440   0.109E+00    0.302E-01
RMM:   2    -0.231334960326E+04   -0.14706E-01   -0.15533E-01  6164   0.208E-01    0.156E-01
RMM:   3    -0.231335128040E+04   -0.16771E-02   -0.19104E-02  5395   0.836E-02    0.137E-01
RMM:   4    -0.231335132694E+04   -0.46541E-04   -0.17421E-03  3882   0.156E-02    0.106E-01
RMM:   5    -0.231335124102E+04    0.85924E-04   -0.17654E-04  3475   0.939E-03    0.559E-02
RMM:   6    -0.231335122666E+04    0.14362E-04   -0.14412E-04  3965   0.861E-03    0.454E-02
RMM:   7    -0.231335120787E+04    0.18785E-04   -0.48742E-05  2972   0.691E-03    0.218E-02
RMM:   8    -0.231335120441E+04    0.34638E-05   -0.14905E-05  2843   0.425E-03
  56 F= -.23338736E+04 E0= -.23338736E+04  d E =-.231614E-02  mag=     3.0000
       N       E                     dE             d eps       ncg     rms          rms(c)
DAV:   1    -0.231332219144E+04    0.29016E-01   -0.22874E+00  4440   0.147E+00    0.410E-01
RMM:   2    -0.231334920280E+04   -0.27011E-01   -0.28514E-01  6121   0.279E-01    0.212E-01
RMM:   3    -0.231335230060E+04   -0.30978E-02   -0.35669E-02  5447   0.108E-01    0.174E-01
RMM:   4    -0.231335242086E+04   -0.12027E-03   -0.32622E-03  4677   0.206E-02    0.147E-01
RMM:   5    -0.231335226271E+04    0.15815E-03   -0.34104E-04  4069   0.116E-02    0.793E-02
RMM:   6    -0.231335223149E+04    0.31223E-04   -0.26356E-04  4355   0.105E-02    0.621E-02
RMM:   7    -0.231335219603E+04    0.35457E-04   -0.98919E-05  3322   0.910E-03    0.303E-02
RMM:   8    -0.231335219219E+04    0.38367E-05   -0.20548E-05  2849   0.471E-03
  57 F= -.23338745E+04 E0= -.23338745E+04  d E =-.318159E-02  mag=     3.0000
       N       E                     dE             d eps       ncg     rms          rms(c)
DAV:   1    -0.231332877857E+04    0.23417E-01   -0.18754E+00  4440   0.133E+00    0.376E-01
RMM:   2    -0.231335207020E+04   -0.23292E-01   -0.24599E-01  6201   0.260E-01    0.203E-01
RMM:   3    -0.231335479477E+04   -0.27246E-02   -0.30748E-02  5487   0.944E-02    0.207E-01
RMM:   4    -0.231335477757E+04    0.17201E-04   -0.27834E-03  4367   0.185E-02    0.120E-01
RMM:   5    -0.231335464675E+04    0.13081E-03   -0.27517E-04  3995   0.110E-02    0.668E-02
RMM:   6    -0.231335462829E+04    0.18467E-04   -0.21993E-04  4251   0.102E-02    0.525E-02
RMM:   7    -0.231335460703E+04    0.21256E-04   -0.65798E-05  3029   0.808E-03    0.318E-02
RMM:   8    -0.231335460413E+04    0.29047E-05   -0.13805E-05  2844   0.396E-03
  58 F= -.23338768E+04 E0= -.23338768E+04  d E =-.230244E-02  mag=     3.0000
       N       E                     dE             d eps       ncg     rms          rms(c)
DAV:   1    -0.231334320838E+04    0.11399E-01   -0.86508E-01  4464   0.902E-01    0.256E-01
RMM:   2    -0.231335395510E+04   -0.10747E-01   -0.11340E-01  6162   0.176E-01    0.142E-01
RMM:   3    -0.231335521269E+04   -0.12576E-02   -0.14095E-02  5247   0.672E-02    0.151E-01
RMM:   4    -0.231335518509E+04    0.27600E-04   -0.12844E-03  3467   0.130E-02    0.791E-02
RMM:   5    -0.231335512320E+04    0.61884E-04   -0.12761E-04  3362   0.830E-03    0.437E-02
RMM:   6    -0.231335511684E+04    0.63615E-05   -0.10211E-04  3768   0.795E-03    0.367E-02
RMM:   7    -0.231335510848E+04    0.83660E-05   -0.26896E-05  2887   0.597E-03
  59 F= -.23338772E+04 E0= -.23338772E+04  d E =-.271657E-02  mag=     3.0000
       N       E                     dE             d eps       ncg     rms          rms(c)
DAV:   1    -0.231333908827E+04    0.16029E-01   -0.13993E+00  4472   0.117E+00    0.335E-01
RMM:   2    -0.231335579084E+04   -0.16703E-01   -0.17728E-01  6248   0.232E-01    0.178E-01
RMM:   3    -0.231335758940E+04   -0.17986E-02   -0.21026E-02  5539   0.794E-02    0.195E-01
RMM:   4    -0.231335752513E+04    0.64271E-04   -0.19616E-03  4183   0.163E-02    0.994E-02
RMM:   5    -0.231335741987E+04    0.10525E-03   -0.22179E-04  3985   0.104E-02    0.537E-02
RMM:   6    -0.231335740311E+04    0.16761E-04   -0.16355E-04  4098   0.962E-03    0.378E-02
RMM:   7    -0.231335739391E+04    0.92007E-05   -0.35930E-05  2923   0.727E-03
  60 F= -.23338795E+04 E0= -.23338795E+04  d E =-.224551E-02  mag=     3.0000
       N       E                     dE             d eps       ncg     rms          rms(c)
DAV:   1    -0.231335237770E+04    0.50254E-02   -0.40207E-01  4544   0.626E-01    0.182E-01
RMM:   2    -0.231335717736E+04   -0.47997E-02   -0.51073E-02  6225   0.125E-01    0.935E-02
RMM:   3    -0.231335767977E+04   -0.50241E-03   -0.59650E-03  5145   0.422E-02    0.936E-02
RMM:   4    -0.231335768013E+04   -0.36185E-06   -0.56849E-04  2980   0.916E-03    0.571E-02
RMM:   5    -0.231335764736E+04    0.32764E-04   -0.65095E-05  2975   0.633E-03    0.288E-02
RMM:   6    -0.231335764278E+04    0.45824E-05   -0.50736E-05  3177   0.629E-03
  61 F= -.23338797E+04 E0= -.23338797E+04  d E =-.246621E-02  mag=     3.0000
       N       E                     dE             d eps       ncg     rms          rms(c)
DAV:   1    -0.231334196231E+04    0.15685E-01   -0.15834E+00  4472   0.125E+00    0.338E-01
RMM:   2    -0.231335836522E+04   -0.16403E-01   -0.17450E-01  6185   0.238E-01    0.175E-01
RMM:   3    -0.231336001229E+04   -0.16471E-02   -0.19724E-02  5546   0.766E-02    0.181E-01
RMM:   4    -0.231335998407E+04    0.28214E-04   -0.19233E-03  4215   0.165E-02    0.106E-01
RMM:   5    -0.231335987310E+04    0.11097E-03   -0.23345E-04  4021   0.107E-02    0.535E-02
RMM:   6    -0.231335986275E+04    0.10348E-04   -0.16343E-04  4146   0.968E-03    0.405E-02
RMM:   7    -0.231335985035E+04    0.12406E-04   -0.37296E-05  2921   0.703E-03    0.219E-02
RMM:   8    -0.231335984774E+04    0.26073E-05   -0.89742E-06  2838   0.332E-03
  62 F= -.23338819E+04 E0= -.23338819E+04  d E =-.219000E-02  mag=     3.0000
       N       E                     dE             d eps       ncg     rms          rms(c)
DAV:   1    -0.231335395984E+04    0.58905E-02   -0.55323E-01  4496   0.739E-01    0.199E-01
RMM:   2    -0.231335970662E+04   -0.57468E-02   -0.60914E-02  6215   0.140E-01    0.110E-01
RMM:   3    -0.231336029057E+04   -0.58395E-03   -0.68402E-03  5151   0.480E-02    0.123E-01
RMM:   4    -0.231336025245E+04    0.38116E-04   -0.66854E-04  3159   0.104E-02    0.580E-02
RMM:   5    -0.231336021366E+04    0.38793E-04   -0.82349E-05  3228   0.731E-03    0.302E-02
RMM:   6    -0.231336021126E+04    0.24026E-05   -0.56106E-05  3314   0.680E-03
  63 F= -.23338822E+04 E0= -.23338822E+04  d E =-.253820E-02  mag=     3.0000
       N       E                     dE             d eps       ncg     rms          rms(c)
DAV:   1    -0.231334991363E+04    0.10300E-01   -0.12110E+00  4472   0.112E+00    0.307E-01
RMM:   2    -0.231336155681E+04   -0.11643E-01   -0.12498E-01  6194   0.214E-01    0.152E-01
RMM:   3    -0.231336254621E+04   -0.98940E-03   -0.13132E-02  5499   0.679E-02    0.152E-01
RMM:   4    -0.231336252619E+04    0.20027E-04   -0.13178E-03  4091   0.152E-02    0.101E-01
RMM:   5    -0.231336242093E+04    0.10526E-03   -0.23092E-04  4170   0.110E-02    0.437E-02
RMM:   6    -0.231336241327E+04    0.76623E-05   -0.11409E-04  4036   0.903E-03    0.340E-02
RMM:   7    -0.231336240655E+04    0.67202E-05   -0.23261E-05  2874   0.611E-03
  64 F= -.23338843E+04 E0= -.23338843E+04  d E =-.206329E-02  mag=     3.0000
       N       E                     dE             d eps       ncg     rms          rms(c)
DAV:   1    -0.231336085788E+04    0.15554E-02   -0.16612E-01  4656   0.415E-01    0.115E-01
RMM:   2    -0.231336245410E+04   -0.15962E-02   -0.17164E-02  6216   0.803E-02    0.547E-02
RMM:   3    -0.231336259059E+04   -0.13649E-03   -0.18660E-03  4326   0.263E-02    0.426E-02
RMM:   4    -0.231336259796E+04   -0.73669E-05   -0.18790E-04  2908   0.676E-03    0.420E-02
RMM:   5    -0.231336258344E+04    0.14516E-04   -0.36954E-05  2865   0.489E-03    0.191E-02
RMM:   6    -0.231336258198E+04    0.14580E-05   -0.20118E-05  2884   0.464E-03
  65 F= -.23338844E+04 E0= -.23338844E+04  d E =-.218699E-02  mag=     3.0000
       N       E                     dE             d eps       ncg     rms          rms(c)
DAV:   1    -0.231335601213E+04    0.65713E-02   -0.82311E-01  4472   0.924E-01    0.236E-01
RMM:   2    -0.231336396759E+04   -0.79555E-02   -0.84736E-02  6183   0.177E-01    0.123E-01
RMM:   3    -0.231336460616E+04   -0.63857E-03   -0.86268E-03  5361   0.553E-02    0.120E-01
RMM:   4    -0.231336460395E+04    0.22095E-05   -0.85709E-04  3486   0.122E-02    0.812E-02
RMM:   5    -0.231336453777E+04    0.66179E-04   -0.14775E-04  3718   0.905E-03    0.355E-02
RMM:   6    -0.231336453518E+04    0.25886E-05   -0.67528E-05  3491   0.739E-03
  66 F= -.23338862E+04 E0= -.23338862E+04  d E =-.183051E-02  mag=     3.0000
       N       E                     dE             d eps       ncg     rms          rms(c)
DAV:   1    -0.231334933290E+04    0.15205E-01   -0.15544E+00  4472   0.127E+00    0.326E-01
RMM:   2    -0.231336434406E+04   -0.15011E-01   -0.15999E-01  6217   0.244E-01    0.169E-01
RMM:   3    -0.231336559061E+04   -0.12465E-02   -0.16973E-02  5563   0.771E-02    0.158E-01
RMM:   4    -0.231336560691E+04   -0.16307E-04   -0.16925E-03  4338   0.165E-02    0.115E-01
RMM:   5    -0.231336547839E+04    0.12852E-03   -0.29022E-04  4232   0.117E-02    0.511E-02
RMM:   6    -0.231336547372E+04    0.46730E-05   -0.14392E-04  4068   0.938E-03    0.438E-02
RMM:   7    -0.231336546069E+04    0.13028E-04   -0.32052E-05  2904   0.633E-03    0.266E-02
RMM:   8    -0.231336545684E+04    0.38481E-05   -0.10393E-05  2837   0.331E-03
  67 F= -.23338870E+04 E0= -.23338870E+04  d E =-.257147E-02  mag=     3.0000
       N       E                     dE             d eps       ncg     rms          rms(c)
DAV:   1    -0.231335934540E+04    0.61153E-02   -0.85516E-01  4484   0.940E-01    0.236E-01
RMM:   2    -0.231336682523E+04   -0.74798E-02   -0.79357E-02  6206   0.177E-01    0.122E-01
RMM:   3    -0.231336741192E+04   -0.58669E-03   -0.81651E-03  5392   0.557E-02    0.120E-01
RMM:   4    -0.231336740626E+04    0.56553E-05   -0.83795E-04  3515   0.124E-02    0.810E-02
RMM:   5    -0.231336733906E+04    0.67206E-04   -0.15069E-04  3836   0.938E-03    0.348E-02
RMM:   6    -0.231336733877E+04    0.29063E-06   -0.64980E-05  3358   0.739E-03
  68 F= -.23338888E+04 E0= -.23338888E+04  d E =-.184696E-02  mag=     3.0000
       N       E                     dE             d eps       ncg     rms          rms(c)
DAV:   1    -0.231335215880E+04    0.15180E-01   -0.16871E+00  4472   0.132E+00    0.334E-01
RMM:   2    -0.231336691380E+04   -0.14755E-01   -0.15704E-01  6172   0.249E-01    0.165E-01
RMM:   3    -0.231336801411E+04   -0.11003E-02   -0.16175E-02  5579   0.785E-02    0.129E-01
RMM:   4    -0.231336808956E+04   -0.75443E-04   -0.17098E-03  4590   0.176E-02    0.129E-01
RMM:   5    -0.231336795383E+04    0.13573E-03   -0.29831E-04  4291   0.118E-02    0.558E-02
RMM:   6    -0.231336794399E+04    0.98346E-05   -0.15207E-04  4133   0.910E-03    0.427E-02
RMM:   7    -0.231336792702E+04    0.16971E-04   -0.37141E-05  2908   0.670E-03    0.236E-02
RMM:   8    -0.231336792276E+04    0.42635E-05   -0.12036E-05  2839   0.332E-03
  69 F= -.23338894E+04 E0= -.23338894E+04  d E =-.237206E-02  mag=     3.0000
       N       E                     dE             d eps       ncg     rms          rms(c)
DAV:   1    -0.231336004660E+04    0.78804E-02   -0.97359E-01  4472   0.996E-01    0.251E-01
RMM:   2    -0.231336886181E+04   -0.88152E-02   -0.93354E-02  6224   0.189E-01    0.130E-01
RMM:   3    -0.231336957029E+04   -0.70848E-03   -0.96303E-03  5455   0.596E-02    0.129E-01
RMM:   4    -0.231336956503E+04    0.52653E-05   -0.97891E-04  3525   0.129E-02    0.842E-02
RMM:   5    -0.231336949584E+04    0.69190E-04   -0.15614E-04  3791   0.940E-03    0.377E-02
RMM:   6    -0.231336949514E+04    0.69744E-06   -0.73673E-05  3484   0.764E-03
  70 F= -.23338910E+04 E0= -.23338910E+04  d E =-.165340E-02  mag=     3.0000
       N       E                     dE             d eps       ncg     rms          rms(c)
DAV:   1    -0.231333683540E+04    0.32660E-01   -0.34006E+00  4472   0.186E+00    0.471E-01
RMM:   2    -0.231336767789E+04   -0.30842E-01   -0.32752E-01  6202   0.353E-01    0.233E-01
RMM:   3    -0.231337005798E+04   -0.23801E-02   -0.34052E-02  5652   0.111E-01    0.185E-01
RMM:   4    -0.231337022430E+04   -0.16632E-03   -0.35422E-03  5090   0.241E-02    0.178E-01
RMM:   5    -0.231336997725E+04    0.24705E-03   -0.56105E-04  4738   0.149E-02    0.809E-02
RMM:   6    -0.231336996370E+04    0.13549E-04   -0.31144E-04  4550   0.119E-02    0.640E-02
RMM:   7    -0.231336992315E+04    0.40551E-04   -0.82300E-05  3110   0.857E-03    0.321E-02
RMM:   8    -0.231336991548E+04    0.76642E-05   -0.25305E-05  2860   0.430E-03
  71 F= -.23338916E+04 E0= -.23338916E+04  d E =-.221090E-02  mag=     3.0000
       N       E                     dE             d eps       ncg     rms          rms(c)
DAV:   1    -0.231335421340E+04    0.15710E-01   -0.15791E+00  4472   0.127E+00    0.355E-01
RMM:   2    -0.231337041177E+04   -0.16198E-01   -0.17116E-01  6247   0.250E-01    0.175E-01
RMM:   3    -0.231337166234E+04   -0.12506E-02   -0.17376E-02  5572   0.798E-02    0.168E-01
RMM:   4    -0.231337166796E+04   -0.56257E-05   -0.17209E-03  4403   0.171E-02    0.116E-01
RMM:   5    -0.231337154065E+04    0.12731E-03   -0.29717E-04  4253   0.118E-02    0.504E-02
RMM:   6    -0.231337153762E+04    0.30323E-05   -0.12674E-04  3976   0.916E-03    0.445E-02
RMM:   7    -0.231337152569E+04    0.11926E-04   -0.28103E-05  2888   0.597E-03    0.272E-02
RMM:   8    -0.231337152048E+04    0.52102E-05   -0.15922E-05  2844   0.353E-03
  72 F= -.23338934E+04 E0= -.23338934E+04  d E =-.181827E-02  mag=     3.0000
       N       E                     dE             d eps       ncg     rms          rms(c)
DAV:   1    -0.231337058888E+04    0.93681E-03   -0.84505E-02  4720   0.294E-01    0.830E-02
RMM:   2    -0.231337145688E+04   -0.86800E-03   -0.91373E-03  6191   0.577E-02    0.466E-02
RMM:   3    -0.231337152902E+04   -0.72138E-04   -0.92941E-04  3426   0.199E-02    0.552E-02
RMM:   4    -0.231337151832E+04    0.10704E-04   -0.95890E-05  2883   0.571E-03    0.240E-02
RMM:   5    -0.231337151162E+04    0.66967E-05   -0.17451E-05  2871   0.368E-03
  73 F= -.23338934E+04 E0= -.23338934E+04  d E =-.185770E-02  mag=     3.0000
       N       E                     dE             d eps       ncg     rms          rms(c)
DAV:   1    -0.231336959388E+04    0.19244E-02   -0.26162E-01  4464   0.529E-01    0.170E-01
RMM:   2    -0.231337249136E+04   -0.28975E-02   -0.30515E-02  6217   0.107E-01    0.840E-02
RMM:   3    -0.231337270177E+04   -0.21041E-03   -0.31103E-03  5276   0.376E-02    0.680E-02
RMM:   4    -0.231337270147E+04    0.30349E-06   -0.32776E-04  3134   0.929E-03    0.571E-02
RMM:   5    -0.231337267149E+04    0.29979E-04   -0.75848E-05  3215   0.721E-03    0.281E-02
RMM:   6    -0.231337266740E+04    0.40912E-05   -0.26433E-05  2889   0.571E-03
  74 F= -.23338947E+04 E0= -.23338947E+04  d E =-.131492E-02  mag=     3.0000
       N       E                     dE             d eps       ncg     rms          rms(c)
DAV:   1    -0.231337046546E+04    0.22060E-02   -0.19816E-01  4448   0.460E-01    0.148E-01
RMM:   2    -0.231337265993E+04   -0.21945E-02   -0.23180E-02  6172   0.928E-02    0.686E-02
RMM:   3    -0.231337280225E+04   -0.14232E-03   -0.23258E-03  4996   0.328E-02    0.423E-02
RMM:   4    -0.231337280699E+04   -0.47376E-05   -0.24372E-04  3250   0.833E-03    0.392E-02
RMM:   5    -0.231337279837E+04    0.86159E-05   -0.56778E-05  2907   0.633E-03
  75 F= -.23338950E+04 E0= -.23338950E+04  d E =-.158358E-02  mag=     3.0000
       N       E                     dE             d eps       ncg     rms          rms(c)
DAV:   1    -0.231337043526E+04    0.23717E-02   -0.28836E-01  4432   0.554E-01    0.161E-01
RMM:   2    -0.231337362600E+04   -0.31907E-02   -0.33320E-02  6118   0.106E-01    0.937E-02
RMM:   3    -0.231337388105E+04   -0.25505E-03   -0.33634E-03  5079   0.416E-02    0.909E-02
RMM:   4    -0.231337384664E+04    0.34413E-04   -0.35051E-04  3086   0.913E-03    0.472E-02
RMM:   5    -0.231337382692E+04    0.19717E-04   -0.61468E-05  3033   0.652E-03    0.283E-02
RMM:   6    -0.231337382422E+04    0.26986E-05   -0.27760E-05  2893   0.544E-03
  76 F= -.23338962E+04 E0= -.23338962E+04  d E =-.119644E-02  mag=     3.0000
       N       E                     dE             d eps       ncg     rms          rms(c)
DAV:   1    -0.231336375102E+04    0.10076E-01   -0.88746E-01  4408   0.972E-01    0.283E-01
RMM:   2    -0.231337351655E+04   -0.97655E-02   -0.10229E-01  6133   0.188E-01    0.152E-01
RMM:   3    -0.231337426085E+04   -0.74430E-03   -0.10182E-02  5607   0.667E-02    0.137E-01
RMM:   4    -0.231337422272E+04    0.38133E-04   -0.10972E-03  3941   0.148E-02    0.887E-02
RMM:   5    -0.231337415071E+04    0.72006E-04   -0.18711E-04  3959   0.996E-03    0.480E-02
RMM:   6    -0.231337414102E+04    0.96973E-05   -0.66197E-05  3261   0.748E-03
  77 F= -.23338968E+04 E0= -.23338968E+04  d E =-.180816E-02  mag=     3.0000
       N       E                     dE             d eps       ncg     rms          rms(c)
DAV:   1    -0.231337192448E+04    0.22262E-02   -0.28662E-01  4512   0.555E-01    0.157E-01
RMM:   2    -0.231337501377E+04   -0.30893E-02   -0.32415E-02  6212   0.108E-01    0.929E-02
RMM:   3    -0.231337523823E+04   -0.22446E-03   -0.30434E-03  5233   0.380E-02    0.908E-02
RMM:   4    -0.231337520247E+04    0.35765E-04   -0.33665E-04  3018   0.898E-03    0.469E-02
RMM:   5    -0.231337518072E+04    0.21752E-04   -0.59349E-05  3114   0.669E-03    0.233E-02
RMM:   6    -0.231337517795E+04    0.27650E-05   -0.24347E-05  2908   0.572E-03
  78 F= -.23338980E+04 E0= -.23338980E+04  d E =-.117295E-02  mag=     3.0000
       N       E                     dE             d eps       ncg     rms          rms(c)
DAV:   1    -0.231336324184E+04    0.11939E-01   -0.10956E+00  4408   0.108E+00    0.307E-01
RMM:   2    -0.231337505300E+04   -0.11811E-01   -0.12381E-01  6158   0.210E-01    0.184E-01
RMM:   3    -0.231337593582E+04   -0.88282E-03   -0.11818E-02  5734   0.731E-02    0.185E-01
RMM:   4    -0.231337576777E+04    0.16805E-03   -0.12875E-03  4390   0.169E-02    0.877E-02
RMM:   5    -0.231337568854E+04    0.79230E-04   -0.21597E-04  4080   0.108E-02    0.468E-02
RMM:   6    -0.231337567757E+04    0.10972E-04   -0.71760E-05  3437   0.826E-03    0.233E-02
RMM:   7    -0.231337567440E+04    0.31625E-05   -0.18545E-05  2857   0.526E-03
  79 F= -.23338987E+04 E0= -.23338987E+04  d E =-.192970E-02  mag=     3.0000
       N       E                     dE             d eps       ncg     rms          rms(c)
DAV:   1    -0.231337199494E+04    0.36826E-02   -0.42887E-01  4452   0.671E-01    0.199E-01
RMM:   2    -0.231337667040E+04   -0.46755E-02   -0.48818E-02  6156   0.132E-01    0.137E-01
RMM:   3    -0.231337700647E+04   -0.33607E-03   -0.46430E-03  5559   0.462E-02    0.137E-01
RMM:   4    -0.231337688791E+04    0.11855E-03   -0.50967E-04  3350   0.112E-02    0.533E-02
RMM:   5    -0.231337685620E+04    0.31714E-04   -0.10743E-04  3642   0.814E-03    0.270E-02
RMM:   6    -0.231337685358E+04    0.26221E-05   -0.27691E-05  2882   0.606E-03
  80 F= -.23339000E+04 E0= -.23339000E+04  d E =-.127693E-02  mag=     3.0000
       N       E                     dE             d eps       ncg     rms          rms(c)
DAV:   1    -0.231337413889E+04    0.27173E-02   -0.25037E-01  4480   0.512E-01    0.153E-01
RMM:   2    -0.231337686544E+04   -0.27265E-02   -0.28565E-02  6153   0.100E-01    0.102E-01
RMM:   3    -0.231337706052E+04   -0.19508E-03   -0.26994E-03  5130   0.360E-02    0.103E-01
RMM:   4    -0.231337699469E+04    0.65826E-04   -0.29615E-04  3039   0.880E-03    0.407E-02
RMM:   5    -0.231337697471E+04    0.19982E-04   -0.61449E-05  3128   0.650E-03    0.204E-02
RMM:   6    -0.231337697128E+04    0.34359E-05   -0.21959E-05  2875   0.552E-03
  81 F= -.23339002E+04 E0= -.23339002E+04  d E =-.146713E-02  mag=     3.0000
       N       E                     dE             d eps       ncg     rms          rms(c)
DAV:   1    -0.231337417050E+04    0.28042E-02   -0.32400E-01  4432   0.581E-01    0.173E-01
RMM:   2    -0.231337781289E+04   -0.36424E-02   -0.37992E-02  6146   0.114E-01    0.125E-01
RMM:   3    -0.231337807169E+04   -0.25879E-03   -0.36058E-03  5355   0.420E-02    0.123E-01
RMM:   4    -0.231337797897E+04    0.92712E-04   -0.39559E-04  3142   0.100E-02    0.433E-02
RMM:   5    -0.231337795830E+04    0.20677E-04   -0.71079E-05  3301   0.713E-03    0.246E-02
RMM:   6    -0.231337795485E+04    0.34451E-05   -0.24169E-05  2869   0.578E-03
  82 F= -.23339013E+04 E0= -.23339013E+04  d E =-.106845E-02  mag=     3.0000
       N       E                     dE             d eps       ncg     rms          rms(c)
DAV:   1    -0.231337459815E+04    0.33601E-02   -0.30310E-01  4420   0.562E-01    0.168E-01
RMM:   2    -0.231337801306E+04   -0.34149E-02   -0.35599E-02  6169   0.110E-01    0.124E-01
RMM:   3    -0.231337825085E+04   -0.23779E-03   -0.33793E-03  5276   0.399E-02    0.120E-01
RMM:   4    -0.231337816266E+04    0.88195E-04   -0.37178E-04  3110   0.973E-03    0.428E-02
RMM:   5    -0.231337814224E+04    0.20419E-04   -0.67373E-05  3253   0.709E-03    0.242E-02
RMM:   6    -0.231337813859E+04    0.36519E-05   -0.24172E-05  2864   0.577E-03
  83 F= -.23339015E+04 E0= -.23339015E+04  d E =-.133072E-02  mag=     3.0000
       N       E                     dE             d eps       ncg     rms          rms(c)
DAV:   1    -0.231337539883E+04    0.27434E-02   -0.30018E-01  4432   0.561E-01    0.168E-01
RMM:   2    -0.231337897597E+04   -0.35771E-02   -0.37290E-02  6191   0.111E-01    0.118E-01
RMM:   3    -0.231337924861E+04   -0.27264E-03   -0.36229E-03  5293   0.418E-02    0.115E-01
RMM:   4    -0.231337917302E+04    0.75588E-04   -0.39116E-04  3091   0.973E-03    0.442E-02
RMM:   5    -0.231337915266E+04    0.20362E-04   -0.62305E-05  3145   0.694E-03    0.269E-02
RMM:   6    -0.231337914808E+04    0.45781E-05   -0.25697E-05  2880   0.576E-03
  84 F= -.23339027E+04 E0= -.23339027E+04  d E =-.115046E-02  mag=     3.0000
       N       E                     dE             d eps       ncg     rms          rms(c)
DAV:   1    -0.231337241106E+04    0.67416E-02   -0.56049E-01  4408   0.767E-01    0.230E-01
RMM:   2    -0.231337907981E+04   -0.66688E-02   -0.69684E-02  6156   0.152E-01    0.157E-01
RMM:   3    -0.231337958577E+04   -0.50596E-03   -0.67666E-03  5619   0.549E-02    0.155E-01
RMM:   4    -0.231337945283E+04    0.13294E-03   -0.73567E-04  3639   0.129E-02    0.614E-02
RMM:   5    -0.231337941248E+04    0.40353E-04   -0.11956E-04  3774   0.877E-03    0.383E-02
RMM:   6    -0.231337940066E+04    0.11822E-04   -0.43279E-05  3026   0.663E-03    0.195E-02
RMM:   7    -0.231337939758E+04    0.30759E-05   -0.14864E-05  2846   0.516E-03
  85 F= -.23339031E+04 E0= -.23339031E+04  d E =-.158764E-02  mag=     3.0000
       N       E                     dE             d eps       ncg     rms          rms(c)
DAV:   1    -0.231337544917E+04    0.39515E-02   -0.36726E-01  4420   0.617E-01    0.188E-01
RMM:   2    -0.231338005391E+04   -0.46047E-02   -0.47913E-02  6191   0.125E-01    0.114E-01
RMM:   3    -0.231338043117E+04   -0.37726E-03   -0.47864E-03  5402   0.463E-02    0.112E-01
RMM:   4    -0.231338037413E+04    0.57040E-04   -0.49283E-04  3146   0.104E-02    0.528E-02
RMM:   5    -0.231338035158E+04    0.22556E-04   -0.78473E-05  3144   0.722E-03    0.337E-02
RMM:   6    -0.231338034925E+04    0.23264E-05   -0.31159E-05  2879   0.563E-03
  86 F= -.23339043E+04 E0= -.23339043E+04  d E =-.114226E-02  mag=     3.0000
       N       E                     dE             d eps       ncg     rms          rms(c)
DAV:   1    -0.231337006785E+04    0.10284E-01   -0.78420E-01  4408   0.902E-01    0.275E-01
RMM:   2    -0.231337988852E+04   -0.98207E-02   -0.10238E-01  6190   0.182E-01    0.161E-01
RMM:   3    -0.231338066629E+04   -0.77777E-03   -0.10088E-02  5679   0.631E-02    0.155E-01
RMM:   4    -0.231338057690E+04    0.89393E-04   -0.10538E-03  3800   0.145E-02    0.785E-02
RMM:   5    -0.231338052538E+04    0.51517E-04   -0.17033E-04  3845   0.949E-03    0.500E-02
RMM:   6    -0.231338051390E+04    0.11479E-04   -0.65498E-05  3126   0.718E-03    0.254E-02
RMM:   7    -0.231338051087E+04    0.30379E-05   -0.21852E-05  2861   0.550E-03
  87 F= -.23339047E+04 E0= -.23339047E+04  d E =-.157769E-02  mag=     3.0000
       N       E                     dE             d eps       ncg     rms          rms(c)
DAV:   1    -0.231337492755E+04    0.55864E-02   -0.48463E-01  4420   0.697E-01    0.218E-01
RMM:   2    -0.231338103219E+04   -0.61046E-02   -0.63960E-02  6194   0.143E-01    0.125E-01
RMM:   3    -0.231338153808E+04   -0.50589E-03   -0.64289E-03  5583   0.520E-02    0.125E-01
RMM:   4    -0.231338147568E+04    0.62402E-04   -0.66959E-04  3255   0.117E-02    0.607E-02
RMM:   5    -0.231338144581E+04    0.29871E-04   -0.10110E-04  3391   0.796E-03    0.402E-02
RMM:   6    -0.231338144147E+04    0.43402E-05   -0.42090E-05  2906   0.610E-03
  88 F= -.23339059E+04 E0= -.23339059E+04  d E =-.118590E-02  mag=     3.0000
       N       E                     dE             d eps       ncg     rms          rms(c)
DAV:   1    -0.231337438436E+04    0.70614E-02   -0.52982E-01  4408   0.729E-01    0.228E-01
RMM:   2    -0.231338104030E+04   -0.66559E-02   -0.69930E-02  6201   0.149E-01    0.122E-01
RMM:   3    -0.231338156260E+04   -0.52229E-03   -0.68649E-03  5583   0.509E-02    0.115E-01
RMM:   4    -0.231338153381E+04    0.28784E-04   -0.73064E-04  3318   0.117E-02    0.673E-02
RMM:   5    -0.231338149606E+04    0.37756E-04   -0.11440E-04  3464   0.818E-03    0.432E-02
RMM:   6    -0.231338148774E+04    0.83128E-05   -0.52844E-05  3062   0.650E-03
  89 F= -.23339062E+04 E0= -.23339062E+04  d E =-.149517E-02  mag=     3.0000
       N       E                     dE             d eps       ncg     rms          rms(c)
DAV:   1    -0.231337508405E+04    0.64120E-02   -0.58484E-01  4408   0.754E-01    0.239E-01
RMM:   2    -0.231338221531E+04   -0.71313E-02   -0.75723E-02  6258   0.157E-01    0.114E-01
RMM:   3    -0.231338273422E+04   -0.51891E-03   -0.72067E-03  5629   0.521E-02    0.937E-02
RMM:   4    -0.231338275478E+04   -0.20558E-04   -0.79241E-04  3373   0.122E-02    0.748E-02
RMM:   5    -0.231338271166E+04    0.43118E-04   -0.13530E-04  3427   0.857E-03    0.488E-02
RMM:   6    -0.231338270260E+04    0.90546E-05   -0.53854E-05  2980   0.659E-03
  90 F= -.23339078E+04 E0= -.23339078E+04  d E =-.157068E-02  mag=     3.0000
       N       E                     dE             d eps       ncg     rms          rms(c)
DAV:   1    -0.231337580732E+04    0.69043E-02   -0.53194E-01  4420   0.720E-01    0.229E-01
RMM:   2    -0.231338228717E+04   -0.64799E-02   -0.68855E-02  6275   0.149E-01    0.109E-01
RMM:   3    -0.231338275556E+04   -0.46839E-03   -0.65532E-03  5637   0.491E-02    0.894E-02
RMM:   4    -0.231338277317E+04   -0.17609E-04   -0.72209E-04  3312   0.116E-02    0.722E-02
RMM:   5    -0.231338273054E+04    0.42632E-04   -0.12616E-04  3380   0.831E-03    0.469E-02
RMM:   6    -0.231338272038E+04    0.10154E-04   -0.51081E-05  2988   0.646E-03    0.225E-02
RMM:   7    -0.231338271456E+04    0.58265E-05   -0.18611E-05  2852   0.511E-03
  91 F= -.23339081E+04 E0= -.23339081E+04  d E =-.191843E-02  mag=     3.0000
       N       E                     dE             d eps       ncg     rms          rms(c)
DAV:   1    -0.231337622842E+04    0.64920E-02   -0.55764E-01  4440   0.736E-01    0.229E-01
RMM:   2    -0.231338322401E+04   -0.69956E-02   -0.74125E-02  6265   0.155E-01    0.106E-01
RMM:   3    -0.231338371410E+04   -0.49009E-03   -0.69850E-03  5629   0.483E-02    0.717E-02
RMM:   4    -0.231338375840E+04   -0.44303E-04   -0.75368E-04  3460   0.118E-02    0.677E-02
RMM:   5    -0.231338372964E+04    0.28760E-04   -0.12745E-04  3128   0.816E-03    0.571E-02
RMM:   6    -0.231338371664E+04    0.13006E-04   -0.44890E-05  2890   0.577E-03    0.250E-02
RMM:   7    -0.231338371185E+04    0.47892E-05   -0.17545E-05  2854   0.441E-03
  92 F= -.23339095E+04 E0= -.23339095E+04  d E =-.139457E-02  mag=     3.0000
       N       E                     dE             d eps       ncg     rms          rms(c)
DAV:   1    -0.231337353998E+04    0.10177E-01   -0.76078E-01  4440   0.859E-01    0.267E-01
RMM:   2    -0.231338309303E+04   -0.95530E-02   -0.10121E-01  6243   0.181E-01    0.124E-01
[...]
RMM:   5    -0.231344804325E+04    0.29981E-04   -0.52352E-05  2910   0.640E-03    0.203E-02
RMM:   6    -0.231344804118E+04    0.20769E-05   -0.26839E-05  2920   0.533E-03
 168 F= -.23339907E+04 E0= -.23339907E+04  d E =-.532014E-03  mag=     3.0000
       N       E                     dE             d eps       ncg     rms          rms(c)
DAV:   1    -0.231344791591E+04    0.12734E-03   -0.22998E-02  4704   0.156E-01    0.464E-02
RMM:   2    -0.231344808223E+04   -0.16632E-03   -0.17978E-03  6206   0.310E-02    0.235E-02
RMM:   3    -0.231344808346E+04   -0.12360E-05   -0.12367E-04  2950   0.925E-03    0.169E-02
RMM:   4    -0.231344808251E+04    0.95580E-06   -0.18687E-05  2859   0.324E-03
 169 F= -.23339907E+04 E0= -.23339907E+04  d E =-.545055E-03  mag=     3.0000
       N       E                     dE             d eps       ncg     rms          rms(c)
DAV:   1    -0.231344719790E+04    0.88557E-03   -0.23028E-01  4452   0.496E-01    0.145E-01
RMM:   2    -0.231344870859E+04   -0.15107E-02   -0.16419E-02  6174   0.904E-02    0.742E-02
RMM:   3    -0.231344870952E+04   -0.92780E-06   -0.10463E-03  4688   0.249E-02    0.617E-02
RMM:   4    -0.231344869427E+04    0.15248E-04   -0.16709E-04  3088   0.849E-03    0.487E-02
RMM:   5    -0.231344866881E+04    0.25463E-04   -0.76598E-05  3535   0.740E-03    0.215E-02
RMM:   6    -0.231344866330E+04    0.55074E-05   -0.22729E-05  2881   0.567E-03
 170 F= -.23339912E+04 E0= -.23339912E+04  d E =-.495096E-03  mag=     3.0000
       N       E                     dE             d eps       ncg     rms          rms(c)
DAV:   1    -0.231344848839E+04    0.18042E-03   -0.24793E-02  4792   0.163E-01    0.483E-02
RMM:   2    -0.231344865497E+04   -0.16658E-03   -0.18055E-03  6168   0.310E-02    0.229E-02
RMM:   3    -0.231344865462E+04    0.35654E-06   -0.12069E-04  3023   0.989E-03    0.148E-02
RMM:   4    -0.231344865217E+04    0.24499E-05   -0.18144E-05  2864   0.341E-03
 171 F= -.23339912E+04 E0= -.23339912E+04  d E =-.455689E-03  mag=     3.0000
       N       E                     dE             d eps       ncg     rms          rms(c)
DAV:   1    -0.231344860155E+04    0.53071E-04   -0.10676E-02  4490   0.107E-01    0.322E-02
RMM:   2    -0.231344867569E+04   -0.74144E-04   -0.76422E-04  5993   0.211E-02    0.283E-02
RMM:   3    -0.231344867571E+04   -0.19339E-07   -0.71926E-05  2890   0.711E-03
 172 F= -.23339912E+04 E0= -.23339912E+04  d E =-.497491E-03  mag=     3.0000
       N       E                     dE             d eps       ncg     rms          rms(c)
DAV:   1    -0.231344745951E+04    0.12162E-02   -0.23267E-01  4452   0.498E-01    0.147E-01
RMM:   2    -0.231344916667E+04   -0.17072E-02   -0.18352E-02  6198   0.928E-02    0.679E-02
RMM:   3    -0.231344918997E+04   -0.23300E-04   -0.12480E-03  4619   0.247E-02    0.429E-02
RMM:   4    -0.231344917357E+04    0.16395E-04   -0.15805E-04  3323   0.805E-03    0.267E-02
RMM:   5    -0.231344917033E+04    0.32415E-05   -0.51994E-05  3192   0.688E-03
 173 F= -.23339917E+04 E0= -.23339917E+04  d E =-.480004E-03  mag=     3.0000
       N       E                     dE             d eps       ncg     rms          rms(c)
DAV:   1    -0.231344905963E+04    0.11394E-03   -0.13502E-02  4864   0.121E-01    0.381E-02
RMM:   2    -0.231344916340E+04   -0.10377E-03   -0.10804E-03  6042   0.241E-02    0.314E-02
RMM:   3    -0.231344916888E+04   -0.54851E-05   -0.12232E-04  2909   0.855E-03    0.295E-02
RMM:   4    -0.231344916212E+04    0.67680E-05   -0.14358E-05  2848   0.331E-03
 174 F= -.23339917E+04 E0= -.23339917E+04  d E =-.468181E-03  mag=     3.0000
       N       E                     dE             d eps       ncg     rms          rms(c)
DAV:   1    -0.231344793214E+04    0.12367E-02   -0.22637E-01  4452   0.490E-01    0.144E-01
RMM:   2    -0.231344966888E+04   -0.17367E-02   -0.18615E-02  6238   0.922E-02    0.703E-02
RMM:   3    -0.231344968938E+04   -0.20499E-04   -0.12198E-03  4626   0.242E-02    0.431E-02
RMM:   4    -0.231344966958E+04    0.19798E-04   -0.17330E-04  3628   0.827E-03    0.234E-02
RMM:   5    -0.231344966730E+04    0.22835E-05   -0.37471E-05  3035   0.660E-03
 175 F= -.23339922E+04 E0= -.23339922E+04  d E =-.536082E-03  mag=     3.0000
       N       E                     dE             d eps       ncg     rms          rms(c)
DAV:   1    -0.231344933312E+04    0.33647E-03   -0.41426E-02  4528   0.210E-01    0.628E-02
RMM:   2    -0.231344965806E+04   -0.32495E-03   -0.34742E-03  6243   0.410E-02    0.337E-02
RMM:   3    -0.231344966779E+04   -0.97299E-05   -0.24667E-04  3255   0.129E-02    0.307E-02
RMM:   4    -0.231344966374E+04    0.40508E-05   -0.36083E-05  2855   0.428E-03
 176 F= -.23339922E+04 E0= -.23339922E+04  d E =-.545789E-03  mag=     3.0000
       N       E                     dE             d eps       ncg     rms          rms(c)
DAV:   1    -0.231344873195E+04    0.93584E-03   -0.19253E-01  4452   0.447E-01    0.128E-01
RMM:   2    -0.231345015142E+04   -0.14195E-02   -0.15219E-02  6277   0.838E-02    0.641E-02
RMM:   3    -0.231345016781E+04   -0.16395E-04   -0.99057E-04  4430   0.223E-02    0.395E-02
RMM:   4    -0.231345015100E+04    0.16812E-04   -0.13907E-04  3389   0.767E-03    0.213E-02
RMM:   5    -0.231345014761E+04    0.33923E-05   -0.30507E-05  2975   0.609E-03
 177 F= -.23339927E+04 E0= -.23339927E+04  d E =-.495336E-03  mag=     3.0000
       N       E                     dE             d eps       ncg     rms          rms(c)
DAV:   1    -0.231344936126E+04    0.78974E-03   -0.11126E-01  4432   0.340E-01    0.982E-02
RMM:   2    -0.231345019689E+04   -0.83562E-03   -0.89032E-03  6220   0.654E-02    0.519E-02
RMM:   3    -0.231345021825E+04   -0.21361E-04   -0.62940E-04  3978   0.198E-02    0.502E-02
RMM:   4    -0.231345020354E+04    0.14704E-04   -0.91804E-05  2876   0.604E-03    0.316E-02
RMM:   5    -0.231345019161E+04    0.11935E-04   -0.26045E-05  2891   0.452E-03    0.140E-02
RMM:   6    -0.231345018948E+04    0.21253E-05   -0.14793E-05  2854   0.432E-03
 178 F= -.23339928E+04 E0= -.23339928E+04  d E =-.545909E-03  mag=     3.0000
       N       E                     dE             d eps       ncg     rms          rms(c)
DAV:   1    -0.231344922405E+04    0.96756E-03   -0.19406E-01  4452   0.442E-01    0.126E-01
RMM:   2    -0.231345073357E+04   -0.15095E-02   -0.16126E-02  6256   0.846E-02    0.632E-02
RMM:   3    -0.231345076089E+04   -0.27313E-04   -0.10802E-03  4441   0.232E-02    0.413E-02
RMM:   4    -0.231345075650E+04    0.43922E-05   -0.15988E-04  3066   0.740E-03    0.424E-02
RMM:   5    -0.231345074210E+04    0.14393E-04   -0.47940E-05  2870   0.583E-03    0.266E-02
RMM:   6    -0.231345073807E+04    0.40282E-05   -0.18759E-05  2872   0.463E-03
 179 F= -.23339933E+04 E0= -.23339933E+04  d E =-.536780E-03  mag=     3.0000
       N       E                     dE             d eps       ncg     rms          rms(c)
DAV:   1    -0.231345007906E+04    0.66304E-03   -0.93945E-02  4480   0.308E-01    0.882E-02
RMM:   2    -0.231345081634E+04   -0.73728E-03   -0.78749E-03  6154   0.594E-02    0.448E-02
RMM:   3    -0.231345082685E+04   -0.10510E-04   -0.52175E-04  3804   0.183E-02    0.290E-02
RMM:   4    -0.231345082441E+04    0.24406E-05   -0.77256E-05  2910   0.563E-03
 180 F= -.23339934E+04 E0= -.23339934E+04  d E =-.614903E-03  mag=     3.0000
       N       E                     dE             d eps       ncg     rms          rms(c)
DAV:   1    -0.231344990791E+04    0.91894E-03   -0.18876E-01  4452   0.439E-01    0.135E-01
RMM:   2    -0.231345143825E+04   -0.15303E-02   -0.16367E-02  6267   0.852E-02    0.745E-02
RMM:   3    -0.231345149761E+04   -0.59360E-04   -0.13573E-03  4658   0.261E-02    0.812E-02
RMM:   4    -0.231345145364E+04    0.43962E-04   -0.18554E-04  2940   0.742E-03    0.409E-02
RMM:   5    -0.231345143236E+04    0.21287E-04   -0.53837E-05  3215   0.600E-03    0.184E-02
RMM:   6    -0.231345142889E+04    0.34708E-05   -0.25892E-05  2876   0.601E-03
 181 F= -.23339940E+04 E0= -.23339940E+04  d E =-.580610E-03  mag=     3.0000
       N       E                     dE             d eps       ncg     rms          rms(c)
DAV:   1    -0.231345080441E+04    0.62794E-03   -0.82436E-02  4464   0.290E-01    0.890E-02
RMM:   2    -0.231345148238E+04   -0.67796E-03   -0.72793E-03  6248   0.577E-02    0.428E-02
RMM:   3    -0.231345149485E+04   -0.12473E-04   -0.51676E-04  3754   0.173E-02    0.286E-02
RMM:   4    -0.231345149298E+04    0.18695E-05   -0.74888E-05  2887   0.558E-03
 182 F= -.23339940E+04 E0= -.23339940E+04  d E =-.628921E-03  mag=     3.0000
       N       E                     dE             d eps       ncg     rms          rms(c)
DAV:   1    -0.231345019272E+04    0.13021E-02   -0.20649E-01  4452   0.457E-01    0.137E-01
RMM:   2    -0.231345201064E+04   -0.18179E-02   -0.19280E-02  6288   0.893E-02    0.759E-02
RMM:   3    -0.231345207217E+04   -0.61534E-04   -0.14854E-03  4688   0.270E-02    0.732E-02
RMM:   4    -0.231345204224E+04    0.29936E-04   -0.20041E-04  2955   0.738E-03    0.466E-02
RMM:   5    -0.231345201809E+04    0.24150E-04   -0.49541E-05  3034   0.589E-03    0.204E-02
RMM:   6    -0.231345201480E+04    0.32873E-05   -0.32068E-05  2925   0.599E-03
 183 F= -.23339945E+04 E0= -.23339945E+04  d E =-.508582E-03  mag=     3.0000
       N       E                     dE             d eps       ncg     rms          rms(c)
DAV:   1    -0.231345092703E+04    0.10911E-02   -0.12869E-01  4452   0.361E-01    0.108E-01
RMM:   2    -0.231345207280E+04   -0.11458E-02   -0.12173E-02  6237   0.719E-02    0.538E-02
RMM:   3    -0.231345210067E+04   -0.27867E-04   -0.86317E-04  4218   0.215E-02    0.364E-02
RMM:   4    -0.231345209970E+04    0.97229E-06   -0.11961E-04  2917   0.632E-03    0.390E-02
RMM:   5    -0.231345208576E+04    0.13939E-04   -0.31912E-05  2844   0.486E-03    0.195E-02
RMM:   6    -0.231345208333E+04    0.24261E-05   -0.16180E-05  2865   0.412E-03
 184 F= -.23339946E+04 E0= -.23339946E+04  d E =-.566771E-03  mag=     3.0000
       N       E                     dE             d eps       ncg     rms          rms(c)
DAV:   1    -0.231345094906E+04    0.11367E-02   -0.19285E-01  4452   0.444E-01    0.134E-01
RMM:   2    -0.231345264041E+04   -0.16913E-02   -0.17999E-02  6270   0.867E-02    0.669E-02
RMM:   3    -0.231345267263E+04   -0.32221E-04   -0.12180E-03  4586   0.256E-02    0.453E-02
RMM:   4    -0.231345267101E+04    0.16177E-05   -0.17941E-04  3043   0.750E-03    0.487E-02
RMM:   5    -0.231345264934E+04    0.21674E-04   -0.48663E-05  2875   0.604E-03    0.234E-02
RMM:   6    -0.231345264614E+04    0.31988E-05   -0.23929E-05  2885   0.506E-03
 185 F= -.23339952E+04 E0= -.23339952E+04  d E =-.574800E-03  mag=     3.0000
       N       E                     dE             d eps       ncg     rms          rms(c)
DAV:   1    -0.231345188241E+04    0.76693E-03   -0.93431E-02  4496   0.309E-01    0.937E-02
RMM:   2    -0.231345270736E+04   -0.82495E-03   -0.87701E-03  6217   0.614E-02    0.465E-02
RMM:   3    -0.231345272249E+04   -0.15131E-04   -0.59785E-04  3856   0.186E-02    0.289E-02
RMM:   4    -0.231345271844E+04    0.40567E-05   -0.82407E-05  2901   0.573E-03
 186 F= -.23339952E+04 E0= -.23339952E+04  d E =-.655525E-03  mag=     3.0000
       N       E                     dE             d eps       ncg     rms          rms(c)
DAV:   1    -0.231345212997E+04    0.59252E-03   -0.13636E-01  4452   0.379E-01    0.123E-01
RMM:   2    -0.231345320870E+04   -0.10787E-02   -0.11479E-02  6224   0.730E-02    0.750E-02
RMM:   3    -0.231345325551E+04   -0.46811E-04   -0.98266E-04  4375   0.241E-02    0.868E-02
RMM:   4    -0.231345319823E+04    0.57281E-04   -0.14122E-04  2926   0.733E-03    0.320E-02
RMM:   5    -0.231345318494E+04    0.13288E-04   -0.51477E-05  3181   0.578E-03    0.167E-02
RMM:   6    -0.231345318208E+04    0.28548E-05   -0.20417E-05  2865   0.560E-03
 187 F= -.23339957E+04 E0= -.23339957E+04  d E =-.500848E-03  mag=     3.0000
       N       E                     dE             d eps       ncg     rms          rms(c)
DAV:   1    -0.231345288462E+04    0.30032E-03   -0.38747E-02  4608   0.202E-01    0.649E-02
RMM:   2    -0.231345319452E+04   -0.30990E-03   -0.33354E-03  6220   0.401E-02    0.297E-02
RMM:   3    -0.231345319878E+04   -0.42589E-05   -0.23503E-04  3290   0.126E-02    0.194E-02
RMM:   4    -0.231345319776E+04    0.10266E-05   -0.36076E-05  2870   0.434E-03
 188 F= -.23339958E+04 E0= -.23339958E+04  d E =-.536339E-03  mag=     3.0000
       N       E                     dE             d eps       ncg     rms          rms(c)
DAV:   1    -0.231345259005E+04    0.60874E-03   -0.12454E-01  4420   0.361E-01    0.111E-01
RMM:   2    -0.231345356772E+04   -0.97767E-03   -0.10523E-02  6269   0.701E-02    0.592E-02
RMM:   3    -0.231345359495E+04   -0.27235E-04   -0.82960E-04  4166   0.215E-02    0.578E-02
RMM:   4    -0.231345357534E+04    0.19612E-04   -0.11540E-04  2900   0.662E-03    0.367E-02
RMM:   5    -0.231345355839E+04    0.16953E-04   -0.38444E-05  2999   0.554E-03    0.152E-02
RMM:   6    -0.231345355627E+04    0.21175E-05   -0.17615E-05  2855   0.519E-03
 189 F= -.23339962E+04 E0= -.23339962E+04  d E =-.390001E-03  mag=     3.0000
       N       E                     dE             d eps       ncg     rms          rms(c)
DAV:   1    -0.231345341749E+04    0.14090E-03   -0.17129E-02  4720   0.134E-01    0.417E-02
RMM:   2    -0.231345355573E+04   -0.13824E-03   -0.14879E-03  6175   0.270E-02    0.204E-02
RMM:   3    -0.231345355808E+04   -0.23504E-05   -0.10935E-04  2925   0.875E-03    0.128E-02
RMM:   4    -0.231345355631E+04    0.17717E-05   -0.14358E-05  2864   0.295E-03
 190 F= -.23339962E+04 E0= -.23339962E+04  d E =-.401777E-03  mag=     3.0000
       N       E                     dE             d eps       ncg     rms          rms(c)
DAV:   1    -0.231345310322E+04    0.45485E-03   -0.12384E-01  4420   0.364E-01    0.116E-01
RMM:   2    -0.231345399576E+04   -0.89254E-03   -0.97816E-03  6261   0.704E-02    0.548E-02
RMM:   3    -0.231345399857E+04   -0.28141E-05   -0.68664E-04  4154   0.198E-02    0.351E-02
RMM:   4    -0.231345398995E+04    0.86240E-05   -0.96147E-05  3071   0.708E-03
 191 F= -.23339966E+04 E0= -.23339966E+04  d E =-.433210E-03  mag=     3.0000
       N       E                     dE             d eps       ncg     rms          rms(c)
DAV:   1    -0.231345384750E+04    0.15108E-03   -0.19254E-02  4816   0.144E-01    0.515E-02
RMM:   2    -0.231345399656E+04   -0.14907E-03   -0.15649E-03  6246   0.289E-02    0.524E-02
RMM:   3    -0.231345398976E+04    0.68047E-05   -0.14877E-04  2981   0.994E-03    0.331E-02
RMM:   4    -0.231345397868E+04    0.11079E-04   -0.21621E-05  2849   0.435E-03    0.130E-02
RMM:   5    -0.231345397576E+04    0.29155E-05   -0.13398E-05  2849   0.341E-03
 192 F= -.23339966E+04 E0= -.23339966E+04  d E =-.418839E-03  mag=     3.0000
       N       E                     dE             d eps       ncg     rms          rms(c)
DAV:   1    -0.231345348211E+04    0.49657E-03   -0.11493E-01  4420   0.343E-01    0.101E-01
RMM:   2    -0.231345434207E+04   -0.85996E-03   -0.92531E-03  6249   0.664E-02    0.528E-02
RMM:   3    -0.231345435704E+04   -0.14970E-04   -0.65277E-04  3966   0.185E-02    0.444E-02
RMM:   4    -0.231345434827E+04    0.87697E-05   -0.95255E-05  2901   0.622E-03
 193 F= -.23339970E+04 E0= -.23339970E+04  d E =-.366327E-03  mag=     3.0000
       N       E                     dE             d eps       ncg     rms          rms(c)
DAV:   1    -0.231345414487E+04    0.21218E-03   -0.27731E-02  4512   0.169E-01    0.526E-02
RMM:   2    -0.231345434344E+04   -0.19858E-03   -0.21902E-03  6172   0.325E-02    0.310E-02
RMM:   3    -0.231345435176E+04   -0.83208E-05   -0.21373E-04  3053   0.112E-02    0.318E-02
RMM:   4    -0.231345434562E+04    0.61406E-05   -0.29340E-05  2853   0.398E-03
 194 F= -.23339970E+04 E0= -.23339970E+04  d E =-.360617E-03  mag=     3.0000
       N       E                     dE             d eps       ncg     rms          rms(c)
DAV:   1    -0.231345378678E+04    0.56498E-03   -0.13985E-01  4420   0.382E-01    0.117E-01
RMM:   2    -0.231345480733E+04   -0.10206E-02   -0.11143E-02  6248   0.736E-02    0.566E-02
RMM:   3    -0.231345481309E+04   -0.57538E-05   -0.78699E-04  4229   0.208E-02    0.378E-02
RMM:   4    -0.231345481055E+04    0.25356E-05   -0.12699E-04  3133   0.729E-03    0.445E-02
RMM:   5    -0.231345479174E+04    0.18814E-04   -0.41271E-05  2860   0.590E-03    0.192E-02
RMM:   6    -0.231345478917E+04    0.25682E-05   -0.18797E-05  2871   0.456E-03
 195 F= -.23339974E+04 E0= -.23339974E+04  d E =-.425968E-03  mag=     3.0000
       N       E                     dE             d eps       ncg     rms          rms(c)
DAV:   1    -0.231345473266E+04    0.59076E-04   -0.90647E-03  4896   0.975E-02    0.304E-02
RMM:   2    -0.231345480155E+04   -0.68884E-04   -0.74755E-04  6010   0.202E-02    0.149E-02
RMM:   3    -0.231345480188E+04   -0.33708E-06   -0.55549E-05  2865   0.668E-03
 196 F= -.23339974E+04 E0= -.23339974E+04  d E =-.434171E-03  mag=     3.0000
       N       E                     dE             d eps       ncg     rms          rms(c)
DAV:   1    -0.231345448360E+04    0.31795E-03   -0.92085E-02  4420   0.314E-01    0.102E-01
RMM:   2    -0.231345518759E+04   -0.70399E-03   -0.76755E-03  6242   0.619E-02    0.520E-02
RMM:   3    -0.231345519592E+04   -0.83342E-05   -0.56609E-04  3854   0.168E-02    0.507E-02
RMM:   4    -0.231345517897E+04    0.16949E-04   -0.90393E-05  2890   0.637E-03    0.330E-02
RMM:   5    -0.231345516557E+04    0.13402E-04   -0.32885E-05  2925   0.510E-03    0.129E-02
RMM:   6    -0.231345516344E+04    0.21332E-05   -0.14674E-05  2849   0.481E-03
 197 F= -.23339978E+04 E0= -.23339977E+04  d E =-.350121E-03  mag=     3.0000
       N       E                     dE             d eps       ncg     rms          rms(c)
DAV:   1    -0.231345512921E+04    0.36354E-04   -0.45899E-03  5184   0.706E-02    0.233E-02
RMM:   2    -0.231345516530E+04   -0.36085E-04   -0.39211E-04  5664   0.148E-02    0.110E-02
RMM:   3    -0.231345516608E+04   -0.77783E-06   -0.35563E-05  2844   0.555E-03
 198 F= -.23339978E+04 E0= -.23339977E+04  d E =-.350175E-03  mag=     3.0000
       N       E                     dE             d eps       ncg     rms          rms(c)
DAV:   1    -0.231345480753E+04    0.35777E-03   -0.78805E-02  4420   0.289E-01    0.937E-02
RMM:   2    -0.231345542714E+04   -0.61961E-03   -0.67131E-03  6227   0.564E-02    0.475E-02
RMM:   3    -0.231345543427E+04   -0.71332E-05   -0.48941E-04  3652   0.161E-02    0.428E-02
RMM:   4    -0.231345542357E+04    0.10694E-04   -0.80541E-05  2879   0.607E-03    0.325E-02
RMM:   5    -0.231345541128E+04    0.12291E-04   -0.26690E-05  2875   0.468E-03    0.123E-02
RMM:   6    -0.231345540913E+04    0.21496E-05   -0.14056E-05  2859   0.440E-03
 199 F= -.23339980E+04 E0= -.23339980E+04  d E =-.252638E-03  mag=     3.0000
       N       E                     dE             d eps       ncg     rms          rms(c)
DAV:   1    -0.231345538419E+04    0.27092E-04   -0.25110E-03  5232   0.521E-02    0.173E-02
RMM:   2    -0.231345540459E+04   -0.20401E-04   -0.22068E-04  4575   0.111E-02    0.830E-03
RMM:   3    -0.231345540534E+04   -0.74266E-06   -0.21602E-05  2807   0.517E-03
 200 F= -.23339980E+04 E0= -.23339980E+04  d E =-.250566E-03  mag=     3.0000
       N       E                     dE             d eps       ncg     rms          rms(c)
DAV:   1    -0.231345510458E+04    0.30001E-03   -0.77786E-02  4420   0.289E-01    0.972E-02
RMM:   2    -0.231345565427E+04   -0.54969E-03   -0.60438E-03  6149   0.547E-02    0.445E-02
RMM:   3    -0.231345565684E+04   -0.25678E-05   -0.43700E-04  3758   0.167E-02    0.371E-02
RMM:   4    -0.231345565117E+04    0.56626E-05   -0.75764E-05  2887   0.612E-03
 201 F= -.23339983E+04 E0= -.23339983E+04  d E =-.261986E-03  mag=     3.0000
