       N       E                     dE             d eps       ncg     rms          rms(c)
DAV:   1     0.126343605255E+05    0.12634E+05   -0.82579E+05  4440   0.143E+03
DAV:   2    -0.107463004466E+04   -0.13709E+05   -0.13127E+05  5288   0.329E+02
DAV:   3    -0.246495921922E+04   -0.13903E+04   -0.13776E+04  5328   0.110E+02
DAV:   4    -0.251019197337E+04   -0.45233E+02   -0.45016E+02  6632   0.297E+01
DAV:   5    -0.251106265723E+04   -0.87068E+00   -0.86934E+00  5560   0.328E+00    0.170E+02
RMM:   6    -0.146694424723E+04    0.10441E+04   -0.19439E+03  4377   0.387E+01    0.723E+01
RMM:   7    -0.163790914246E+04   -0.17096E+03   -0.27710E+02  4952   0.139E+01    0.472E+01
RMM:   8    -0.169485086482E+04   -0.56942E+02   -0.29612E+01  5129   0.641E+00    0.351E+01
RMM:   9    -0.185449049250E+04   -0.15964E+03   -0.84543E+01  4939   0.880E+00    0.349E+01
RMM:  10    -0.193091323749E+04   -0.76423E+02   -0.37874E+01  5232   0.576E+00    0.191E+01
RMM:  11    -0.204849070372E+04   -0.11758E+03   -0.53064E+01  4597   0.567E+00    0.166E+01
RMM:  12    -0.213162353060E+04   -0.83133E+02   -0.43331E+01  4645   0.506E+00    0.119E+01
RMM:  13    -0.224899748690E+04   -0.11737E+03   -0.10331E+02  4438   0.724E+00    0.107E+01
RMM:  14    -0.229001926633E+04   -0.41022E+02   -0.42036E+01  4460   0.502E+00    0.839E+00
RMM:  15    -0.229944005450E+04   -0.94208E+01   -0.12658E+01  4796   0.261E+00    0.754E+00
RMM:  16    -0.230002886249E+04   -0.58881E+00   -0.14728E+00  5348   0.104E+00    0.631E+00
RMM:  17    -0.230117722871E+04   -0.11484E+01   -0.80845E-01  4463   0.546E-01    0.569E+00
RMM:  18    -0.230345749338E+04   -0.22803E+01   -0.18235E+00  4464   0.746E-01    0.332E+00
RMM:  19    -0.230471649235E+04   -0.12590E+01   -0.87482E-01  4577   0.513E-01    0.206E+00
RMM:  20    -0.230505967845E+04   -0.34319E+00   -0.36560E-01  4952   0.395E-01    0.797E-01
RMM:  21    -0.230519281474E+04   -0.13314E+00   -0.10628E-01  4785   0.183E-01    0.476E-01
RMM:  22    -0.230526119061E+04   -0.68376E-01   -0.26031E-02  4479   0.103E-01    0.239E-01
RMM:  23    -0.230529497667E+04   -0.33786E-01   -0.10048E-02  4489   0.707E-02    0.187E-01
RMM:  24    -0.230531303530E+04   -0.18059E-01   -0.49484E-03  4528   0.497E-02    0.101E-01
RMM:  25    -0.230532616596E+04   -0.13131E-01   -0.36947E-03  4441   0.453E-02    0.719E-02
RMM:  26    -0.230533193886E+04   -0.57729E-02   -0.12583E-03  4536   0.329E-02    0.526E-02
RMM:  27    -0.230533738134E+04   -0.54425E-02   -0.12264E-03  4225   0.232E-02    0.287E-02
RMM:  28    -0.230533998824E+04   -0.26069E-02   -0.69881E-04  4117   0.211E-02    0.246E-02
RMM:  29    -0.230534069152E+04   -0.70329E-03   -0.27029E-04  4166   0.117E-02    0.130E-02
RMM:  30    -0.230534090613E+04   -0.21461E-03   -0.57962E-05  3515   0.639E-03    0.707E-03
RMM:  31    -0.230534100440E+04   -0.98267E-04   -0.21955E-05  3001   0.447E-03    0.530E-03
RMM:  32    -0.230534104054E+04   -0.36144E-04   -0.99324E-06  2824   0.366E-03    0.186E-03
RMM:  33    -0.230534106173E+04   -0.21188E-04   -0.63610E-06  2779   0.273E-03    0.126E-03
RMM:  34    -0.230534106841E+04   -0.66772E-05   -0.32388E-06  2409   0.221E-03
   1 F= -.23257292E+04 E0= -.23257292E+04  d E =-.232573E+04  mag=     3.0000
       N       E                     dE             d eps       ncg     rms          rms(c)
DAV:   1    -0.230526342855E+04    0.77633E-01   -0.96112E+00  4992   0.196E+00    0.101E+00
RMM:   2    -0.230550289947E+04   -0.23947E+00   -0.23835E+00  6151   0.532E-01    0.150E+00
RMM:   3    -0.230550956050E+04   -0.66610E-02   -0.24490E-01  5707   0.196E-01    0.858E-01
RMM:   4    -0.230550743953E+04    0.21210E-02   -0.24359E-02  5183   0.472E-02    0.496E-01
RMM:   5    -0.230550512646E+04    0.23131E-02   -0.54144E-03  5375   0.302E-02    0.219E-01
RMM:   6    -0.230550479556E+04    0.33091E-03   -0.22535E-03  5003   0.204E-02    0.146E-01
RMM:   7    -0.230550468116E+04    0.11439E-03   -0.40886E-04  4443   0.130E-02    0.435E-02
RMM:   8    -0.230550465877E+04    0.22394E-04   -0.92842E-05  3126   0.650E-03    0.221E-02
RMM:   9    -0.230550465697E+04    0.18009E-05   -0.43303E-05  2885   0.513E-03
   2 F= -.23258891E+04 E0= -.23258891E+04  d E =-.159898E+00  mag=     3.0000
       N       E                     dE             d eps       ncg     rms          rms(c)
DAV:   1    -0.230516916458E+04    0.33549E+00   -0.16558E+01  4576   0.258E+00    0.134E+00
RMM:   2    -0.230557576396E+04   -0.40660E+00   -0.41374E+00  6176   0.703E-01    0.131E+00
RMM:   3    -0.230559939898E+04   -0.23635E-01   -0.36773E-01  5712   0.252E-01    0.145E+00
RMM:   4    -0.230559129442E+04    0.81046E-02   -0.41424E-02  5584   0.652E-02    0.637E-01
RMM:   5    -0.230558767459E+04    0.36198E-02   -0.92891E-03  5482   0.378E-02    0.330E-01
RMM:   6    -0.230558658336E+04    0.10912E-02   -0.51104E-03  4957   0.280E-02    0.155E-01
RMM:   7    -0.230558646726E+04    0.11610E-03   -0.76876E-04  4641   0.197E-02    0.610E-02
RMM:   8    -0.230558642646E+04    0.40792E-04   -0.20172E-04  3790   0.807E-03    0.335E-02
RMM:   9    -0.230558641178E+04    0.14685E-04   -0.72140E-05  2975   0.703E-03    0.205E-02
RMM:  10    -0.230558641897E+04   -0.71894E-05   -0.38237E-05  2974   0.447E-03
   3 F= -.23259690E+04 E0= -.23259690E+04  d E =-.239833E+00  mag=     3.0000
       N       E                     dE             d eps       ncg     rms          rms(c)
DAV:   1    -0.230553550379E+04    0.50908E-01   -0.79425E+00  4608   0.279E+00    0.132E+00
RMM:   2    -0.230562081427E+04   -0.85310E-01   -0.84642E-01  5668   0.568E-01    0.155E+00
RMM:   3    -0.230562353775E+04   -0.27235E-02   -0.94153E-02  5456   0.222E-01    0.131E+00
RMM:   4    -0.230560807913E+04    0.15459E-01   -0.14147E-02  5096   0.755E-02    0.260E-01
RMM:   5    -0.230560679724E+04    0.12819E-02   -0.57613E-03  5291   0.551E-02    0.119E-01
RMM:   6    -0.230560656355E+04    0.23370E-03   -0.96159E-04  5244   0.252E-02    0.740E-02
RMM:   7    -0.230560645269E+04    0.11086E-03   -0.25944E-04  4406   0.123E-02    0.341E-02
RMM:   8    -0.230560641005E+04    0.42644E-04   -0.66709E-05  3771   0.735E-03    0.179E-02
RMM:   9    -0.230560639156E+04    0.18490E-04   -0.30759E-05  3155   0.588E-03    0.853E-03
RMM:  10    -0.230560638639E+04    0.51675E-05   -0.16560E-05  2870   0.475E-03
   4 F= -.23259887E+04 E0= -.23259887E+04  d E =-.197369E-01  mag=     3.0000
       N       E                     dE             d eps       ncg     rms          rms(c)
DAV:   1    -0.230560809745E+04   -0.17059E-02   -0.11357E+00  4592   0.107E+00    0.509E-01
RMM:   2    -0.230562183967E+04   -0.13742E-01   -0.12822E-01  5718   0.220E-01    0.659E-01
RMM:   3    -0.230562050643E+04    0.13332E-02   -0.13459E-02  5499   0.819E-02    0.453E-01
RMM:   4    -0.230561878083E+04    0.17256E-02   -0.19942E-03  4760   0.276E-02    0.101E-01
RMM:   5    -0.230561858014E+04    0.20070E-03   -0.77882E-04  5103   0.211E-02    0.591E-02
RMM:   6    -0.230561853020E+04    0.49933E-04   -0.14768E-04  4712   0.103E-02    0.181E-02
RMM:   7    -0.230561851799E+04    0.12213E-04   -0.28312E-05  3006   0.539E-03    0.972E-03
RMM:   8    -0.230561851058E+04    0.74144E-05   -0.12144E-05  2831   0.376E-03
   5 F= -.23260009E+04 E0= -.23260009E+04  d E =-.319456E-01  mag=     3.0000
       N       E                     dE             d eps       ncg     rms          rms(c)
DAV:   1    -0.230560261002E+04    0.15908E-01   -0.15397E+00  4504   0.976E-01    0.522E-01
RMM:   2    -0.230565212098E+04   -0.49511E-01   -0.38732E-01  6211   0.285E-01    0.160E+00
RMM:   3    -0.230563957034E+04    0.12551E-01   -0.36859E-02  5553   0.940E-02    0.305E-01
RMM:   4    -0.230563928005E+04    0.29029E-03   -0.54832E-03  5059   0.250E-02    0.146E-01
RMM:   5    -0.230563927058E+04    0.94681E-05   -0.77952E-04  4791   0.161E-02    0.230E-01
RMM:   6    -0.230563888937E+04    0.38121E-03   -0.64482E-04  4800   0.147E-02    0.282E-02
RMM:   7    -0.230563889338E+04   -0.40141E-05   -0.80774E-05  2927   0.662E-03
   6 F= -.23260220E+04 E0= -.23260220E+04  d E =-.210217E-01  mag=     3.0000
       N       E                     dE             d eps       ncg     rms          rms(c)
DAV:   1    -0.230562141222E+04    0.17477E-01   -0.96358E-01  4528   0.770E-01    0.418E-01
RMM:   2    -0.230565315491E+04   -0.31743E-01   -0.24194E-01  6197   0.225E-01    0.133E+00
RMM:   3    -0.230564426208E+04    0.88928E-02   -0.22597E-02  5435   0.718E-02    0.262E-01
RMM:   4    -0.230564402228E+04    0.23980E-03   -0.34754E-03  4870   0.200E-02    0.117E-01
RMM:   5    -0.230564404512E+04   -0.22846E-04   -0.50150E-04  4427   0.130E-02    0.192E-01
RMM:   6    -0.230564379470E+04    0.25042E-03   -0.42127E-04  4470   0.123E-02    0.228E-02
RMM:   7    -0.230564379760E+04   -0.29041E-05   -0.54970E-05  2884   0.595E-03
   7 F= -.23260274E+04 E0= -.23260274E+04  d E =-.264261E-01  mag=     3.0000
       N       E                     dE             d eps       ncg     rms          rms(c)
DAV:   1    -0.230562942513E+04    0.14370E-01   -0.14941E+00  4496   0.117E+00    0.524E-01
RMM:   2    -0.230566434933E+04   -0.34924E-01   -0.27217E-01  5930   0.281E-01    0.144E+00
RMM:   3    -0.230565378922E+04    0.10560E-01   -0.24390E-02  5399   0.910E-02    0.213E-01
RMM:   4    -0.230565360020E+04    0.18902E-03   -0.37953E-03  4784   0.263E-02    0.154E-01
RMM:   5    -0.230565347499E+04    0.12521E-03   -0.84588E-04  5305   0.200E-02    0.183E-01
RMM:   6    -0.230565322150E+04    0.25349E-03   -0.39190E-04  4862   0.136E-02    0.215E-02
RMM:   7    -0.230565321791E+04    0.35862E-05   -0.46264E-05  2952   0.649E-03
   8 F= -.23260374E+04 E0= -.23260374E+04  d E =-.100368E-01  mag=     3.0000
       N       E                     dE             d eps       ncg     rms          rms(c)
DAV:   1    -0.230565309738E+04    0.12412E-03   -0.70082E-03  5388   0.810E-02    0.386E-02
RMM:   2    -0.230565328487E+04   -0.18749E-03   -0.13704E-03  5638   0.206E-02    0.110E-01
RMM:   3    -0.230565321325E+04    0.71616E-04   -0.11520E-04  2862   0.730E-03    0.164E-02
RMM:   4    -0.230565321166E+04    0.15969E-05   -0.21091E-05  2856   0.254E-03
   9 F= -.23260374E+04 E0= -.23260374E+04  d E =-.100722E-01  mag=     3.0000
       N       E                     dE             d eps       ncg     rms          rms(c)
DAV:   1    -0.230565135862E+04    0.18546E-02   -0.71904E-01  4480   0.829E-01    0.336E-01
RMM:   2    -0.230565993411E+04   -0.85755E-02   -0.93681E-02  5836   0.178E-01    0.397E-01
RMM:   3    -0.230566019197E+04   -0.25786E-03   -0.78321E-03  5365   0.564E-02    0.397E-01
RMM:   4    -0.230565913025E+04    0.10617E-02   -0.12646E-03  4881   0.178E-02    0.798E-02
RMM:   5    -0.230565903962E+04    0.90635E-04   -0.33708E-04  4485   0.129E-02    0.445E-02
RMM:   6    -0.230565901410E+04    0.25513E-04   -0.87995E-05  4044   0.878E-03    0.212E-02
RMM:   7    -0.230565900936E+04    0.47423E-05   -0.18855E-05  2904   0.508E-03
  10 F= -.23260434E+04 E0= -.23260434E+04  d E =-.595451E-02  mag=     3.0000
       N       E                     dE             d eps       ncg     rms          rms(c)
DAV:   1    -0.230565871887E+04    0.29523E-03   -0.44978E-02  4976   0.208E-01    0.855E-02
RMM:   2    -0.230565927597E+04   -0.55710E-03   -0.59737E-03  5871   0.462E-02    0.111E-01
RMM:   3    -0.230565926730E+04    0.86663E-05   -0.50836E-04  3445   0.155E-02    0.959E-02
RMM:   4    -0.230565920391E+04    0.63388E-04   -0.79674E-05  2873   0.556E-03    0.207E-02
RMM:   5    -0.230565919534E+04    0.85684E-05   -0.24749E-05  2893   0.408E-03
  11 F= -.23260436E+04 E0= -.23260436E+04  d E =-.617821E-02  mag=     3.0000
       N       E                     dE             d eps       ncg     rms          rms(c)
DAV:   1    -0.230565459235E+04    0.46116E-02   -0.71949E-01  4432   0.802E-01    0.300E-01
RMM:   2    -0.230566378977E+04   -0.91974E-02   -0.10124E-01  5960   0.180E-01    0.178E-01
RMM:   3    -0.230566471694E+04   -0.92716E-03   -0.10212E-02  5449   0.650E-02    0.281E-01
RMM:   4    -0.230566424345E+04    0.47348E-03   -0.11056E-03  4255   0.158E-02    0.107E-01
RMM:   5    -0.230566413529E+04    0.10816E-03   -0.40191E-04  4463   0.130E-02    0.508E-02
RMM:   6    -0.230566411716E+04    0.18131E-04   -0.10954E-04  3647   0.918E-03    0.145E-02
RMM:   7    -0.230566411552E+04    0.16411E-05   -0.17681E-05  2862   0.486E-03
  12 F= -.23260483E+04 E0= -.23260483E+04  d E =-.473363E-02  mag=     3.0000
       N       E                     dE             d eps       ncg     rms          rms(c)
DAV:   1    -0.230566369424E+04    0.42292E-03   -0.51359E-02  4560   0.215E-01    0.810E-02
RMM:   2    -0.230566436035E+04   -0.66611E-03   -0.73215E-03  6034   0.493E-02    0.520E-02
RMM:   3    -0.230566443134E+04   -0.70990E-04   -0.74709E-04  3361   0.175E-02    0.824E-02
RMM:   4    -0.230566438854E+04    0.42804E-04   -0.83813E-05  2878   0.543E-03    0.278E-02
RMM:   5    -0.230566437953E+04    0.90059E-05   -0.32248E-05  2897   0.428E-03
  13 F= -.23260486E+04 E0= -.23260486E+04  d E =-.494541E-02  mag=     3.0000
       N       E                     dE             d eps       ncg     rms          rms(c)
DAV:   1    -0.230566334327E+04    0.10453E-02   -0.47709E-01  4464   0.667E-01    0.224E-01
RMM:   2    -0.230566912986E+04   -0.57866E-02   -0.51835E-02  5891   0.138E-01    0.391E-01
RMM:   3    -0.230566833858E+04    0.79128E-03   -0.41850E-03  5231   0.434E-02    0.138E-01
RMM:   4    -0.230566819343E+04    0.14515E-03   -0.54513E-04  4216   0.119E-02    0.498E-02
RMM:   5    -0.230566817248E+04    0.20955E-04   -0.10317E-04  3889   0.970E-03    0.498E-02
RMM:   6    -0.230566815869E+04    0.13785E-04   -0.58181E-05  3150   0.720E-03    0.892E-03
RMM:   7    -0.230566815885E+04   -0.15360E-06   -0.84961E-06  2829   0.462E-03
  14 F= -.23260521E+04 E0= -.23260521E+04  d E =-.353673E-02  mag=     3.0000
       N       E                     dE             d eps       ncg     rms          rms(c)
DAV:   1    -0.230566523305E+04    0.29256E-02   -0.41795E-01  4464   0.624E-01    0.210E-01
RMM:   2    -0.230567032312E+04   -0.50901E-02   -0.45601E-02  5845   0.127E-01    0.364E-01
RMM:   3    -0.230566962744E+04    0.69568E-03   -0.36763E-03  5083   0.405E-02    0.128E-01
RMM:   4    -0.230566949734E+04    0.13011E-03   -0.48179E-04  4103   0.111E-02    0.466E-02
RMM:   5    -0.230566947623E+04    0.21105E-04   -0.90619E-05  3762   0.924E-03    0.465E-02
RMM:   6    -0.230566946361E+04    0.12623E-04   -0.51246E-05  3091   0.684E-03    0.780E-03
RMM:   7    -0.230566946380E+04   -0.19558E-06   -0.78902E-06  2822   0.453E-03
  15 F= -.23260532E+04 E0= -.23260532E+04  d E =-.460783E-02  mag=     3.0000
       N       E                     dE             d eps       ncg     rms          rms(c)
DAV:   1    -0.230566823640E+04    0.12272E-02   -0.35625E-01  4464   0.573E-01    0.203E-01
RMM:   2    -0.230567303496E+04   -0.47986E-02   -0.42541E-02  5877   0.120E-01    0.367E-01
RMM:   3    -0.230567231656E+04    0.71840E-03   -0.33696E-03  5058   0.374E-02    0.122E-01
RMM:   4    -0.230567220641E+04    0.11015E-03   -0.43992E-04  4074   0.103E-02    0.430E-02
RMM:   5    -0.230567219058E+04    0.15833E-04   -0.76799E-05  3727   0.842E-03    0.483E-02
RMM:   6    -0.230567217624E+04    0.14343E-04   -0.50808E-05  3059   0.673E-03    0.785E-03
RMM:   7    -0.230567217606E+04    0.17468E-06   -0.75990E-06  2825   0.448E-03
  16 F= -.23260556E+04 E0= -.23260556E+04  d E =-.246340E-02  mag=     3.0000
       N       E                     dE             d eps       ncg     rms          rms(c)
DAV:   1    -0.230567035534E+04    0.18209E-02   -0.23427E-01  4464   0.465E-01    0.165E-01
RMM:   2    -0.230567351644E+04   -0.31611E-02   -0.28064E-02  5867   0.975E-02    0.297E-01
RMM:   3    -0.230567304903E+04    0.46741E-03   -0.22272E-03  4706   0.311E-02    0.997E-02
RMM:   4    -0.230567297568E+04    0.73357E-04   -0.28795E-04  3630   0.867E-03    0.352E-02
RMM:   5    -0.230567296447E+04    0.11211E-04   -0.52279E-05  3390   0.707E-03    0.396E-02
RMM:   6    -0.230567295436E+04    0.10106E-04   -0.34571E-05  2904   0.611E-03    0.636E-03
RMM:   7    -0.230567295424E+04    0.12312E-06   -0.62007E-06  2814   0.397E-03
  17 F= -.23260562E+04 E0= -.23260562E+04  d E =-.303658E-02  mag=     3.0000
       N       E                     dE             d eps       ncg     rms          rms(c)
DAV:   1    -0.230567170065E+04    0.12537E-02   -0.25128E-01  4464   0.457E-01    0.171E-01
RMM:   2    -0.230567532866E+04   -0.36280E-02   -0.32521E-02  6006   0.988E-02    0.307E-01
RMM:   3    -0.230567490270E+04    0.42596E-03   -0.26879E-03  4892   0.309E-02    0.112E-01
RMM:   4    -0.230567481662E+04    0.86084E-04   -0.33053E-04  3385   0.845E-03    0.388E-02
RMM:   5    -0.230567480169E+04    0.14931E-04   -0.54933E-05  3213   0.632E-03    0.420E-02
RMM:   6    -0.230567479080E+04    0.10886E-04   -0.39794E-05  2879   0.623E-03    0.701E-03
RMM:   7    -0.230567479072E+04    0.79934E-07   -0.64056E-06  2816   0.377E-03
  18 F= -.23260579E+04 E0= -.23260579E+04  d E =-.173058E-02  mag=     3.0000
       N       E                     dE             d eps       ncg     rms          rms(c)
DAV:   1    -0.230566944023E+04    0.53506E-02   -0.51297E-01  4464   0.652E-01    0.244E-01
RMM:   2    -0.230567686380E+04   -0.74236E-02   -0.66353E-02  6037   0.141E-01    0.441E-01
RMM:   3    -0.230567598122E+04    0.88259E-03   -0.54739E-03  5403   0.435E-02    0.161E-01
RMM:   4    -0.230567580527E+04    0.17594E-03   -0.67559E-04  4235   0.116E-02    0.555E-02
RMM:   5    -0.230567577449E+04    0.30788E-04   -0.10812E-04  3849   0.866E-03    0.597E-02
RMM:   6    -0.230567575196E+04    0.22523E-04   -0.80212E-05  3154   0.787E-03    0.103E-02
RMM:   7    -0.230567575123E+04    0.73438E-06   -0.10903E-05  2840   0.475E-03
  19 F= -.23260587E+04 E0= -.23260587E+04  d E =-.253630E-02  mag=     3.0000
       N       E                     dE             d eps       ncg     rms          rms(c)
DAV:   1    -0.230567484084E+04    0.91113E-03   -0.22495E-01  4432   0.426E-01    0.156E-01
RMM:   2    -0.230567780843E+04   -0.29676E-02   -0.25909E-02  6018   0.918E-02    0.305E-01
RMM:   3    -0.230567731868E+04    0.48975E-03   -0.22136E-03  4706   0.278E-02    0.966E-02
RMM:   4    -0.230567724731E+04    0.71370E-04   -0.25832E-04  3225   0.778E-03    0.350E-02
RMM:   5    -0.230567723677E+04    0.10538E-04   -0.45105E-05  3107   0.590E-03    0.414E-02
RMM:   6    -0.230567722568E+04    0.11089E-04   -0.35553E-05  2858   0.601E-03    0.611E-03
RMM:   7    -0.230567722579E+04   -0.11305E-06   -0.60169E-06  2814   0.353E-03
  20 F= -.23260602E+04 E0= -.23260602E+04  d E =-.142583E-02  mag=     3.0000
       N       E                     dE             d eps       ncg     rms          rms(c)
DAV:   1    -0.230567286312E+04    0.43626E-02   -0.48718E-01  4416   0.627E-01    0.230E-01
RMM:   2    -0.230567925962E+04   -0.63965E-02   -0.55902E-02  6039   0.135E-01    0.446E-01
RMM:   3    -0.230567823257E+04    0.10270E-02   -0.47888E-03  5343   0.397E-02    0.142E-01
RMM:   4    -0.230567807180E+04    0.16078E-03   -0.57693E-04  4112   0.110E-02    0.514E-02
RMM:   5    -0.230567804513E+04    0.26670E-04   -0.93041E-05  3747   0.826E-03    0.566E-02
RMM:   6    -0.230567802426E+04    0.20861E-04   -0.70163E-05  3076   0.773E-03    0.932E-03
RMM:   7    -0.230567802393E+04    0.33747E-06   -0.99213E-06  2832   0.457E-03
  21 F= -.23260609E+04 E0= -.23260609E+04  d E =-.215075E-02  mag=     3.0000
       N       E                     dE             d eps       ncg     rms          rms(c)
DAV:   1    -0.230567750345E+04    0.52081E-03   -0.14047E-01  4432   0.346E-01    0.132E-01
RMM:   2    -0.230567980080E+04   -0.22973E-02   -0.18649E-02  5977   0.792E-02    0.307E-01
RMM:   3    -0.230567918663E+04    0.61416E-03   -0.13029E-03  4140   0.224E-02    0.621E-02
RMM:   4    -0.230567916341E+04    0.23226E-04   -0.16264E-04  3026   0.706E-03    0.316E-02
RMM:   5    -0.230567915731E+04    0.61021E-05   -0.38178E-05  3029   0.583E-03
  22 F= -.23260620E+04 E0= -.23260620E+04  d E =-.106656E-02  mag=     3.0000
       N       E                     dE             d eps       ncg     rms          rms(c)
DAV:   1    -0.230567762613E+04    0.15373E-02   -0.16969E-01  4432   0.381E-01    0.145E-01
RMM:   2    -0.230568034459E+04   -0.27185E-02   -0.22105E-02  6188   0.877E-02    0.332E-01
RMM:   3    -0.230567964335E+04    0.70124E-03   -0.15884E-03  4415   0.249E-02    0.688E-02
RMM:   4    -0.230567961769E+04    0.25661E-04   -0.20704E-04  3139   0.784E-03    0.344E-02
RMM:   5    -0.230567960872E+04    0.89704E-05   -0.46520E-05  3221   0.651E-03
  23 F= -.23260623E+04 E0= -.23260623E+04  d E =-.144415E-02  mag=     3.0000
       N       E                     dE             d eps       ncg     rms          rms(c)
DAV:   1    -0.230567809743E+04    0.15203E-02   -0.20566E-01  4416   0.431E-01    0.167E-01
RMM:   2    -0.230568190223E+04   -0.38048E-02   -0.30727E-02  6168   0.986E-02    0.399E-01
RMM:   3    -0.230568088877E+04    0.10135E-02   -0.23538E-03  4655   0.290E-02    0.757E-02
RMM:   4    -0.230568086094E+04    0.27831E-04   -0.33314E-04  3114   0.816E-03    0.406E-02
RMM:   5    -0.230568085225E+04    0.86835E-05   -0.48781E-05  3034   0.601E-03
  24 F= -.23260634E+04 E0= -.23260634E+04  d E =-.107416E-02  mag=     3.0000
       N       E                     dE             d eps       ncg     rms          rms(c)
DAV:   1    -0.230567840384E+04    0.24571E-02   -0.22033E-01  4416   0.446E-01    0.174E-01
RMM:   2    -0.230568249235E+04   -0.40885E-02   -0.32956E-02  6154   0.102E-01    0.416E-01
RMM:   3    -0.230568139039E+04    0.11020E-02   -0.24677E-03  4750   0.304E-02    0.788E-02
RMM:   4    -0.230568136829E+04    0.22095E-04   -0.36638E-04  3163   0.840E-03    0.428E-02
RMM:   5    -0.230568136020E+04    0.80895E-05   -0.52121E-05  3066   0.620E-03
  25 F= -.23260637E+04 E0= -.23260637E+04  d E =-.140669E-02  mag=     3.0000
       N       E                     dE             d eps       ncg     rms          rms(c)
DAV:   1    -0.230567973304E+04    0.16353E-02   -0.23368E-01  4432   0.470E-01    0.177E-01
RMM:   2    -0.230568360247E+04   -0.38694E-02   -0.31104E-02  6107   0.102E-01    0.414E-01
RMM:   3    -0.230568256358E+04    0.10389E-02   -0.25185E-03  4923   0.320E-02    0.896E-02
RMM:   4    -0.230568251375E+04    0.49829E-04   -0.30087E-04  3293   0.853E-03    0.397E-02
RMM:   5    -0.230568250894E+04    0.48079E-05   -0.56126E-05  3153   0.663E-03
  26 F= -.23260647E+04 E0= -.23260647E+04  d E =-.955554E-03  mag=     3.0000
       N       E                     dE             d eps       ncg     rms          rms(c)
DAV:   1    -0.230568071723E+04    0.17965E-02   -0.18464E-01  4416   0.418E-01    0.156E-01
RMM:   2    -0.230568374721E+04   -0.30300E-02   -0.24614E-02  6125   0.906E-02    0.361E-01
RMM:   3    -0.230568297242E+04    0.77478E-03   -0.19901E-03  4612   0.286E-02    0.827E-02
RMM:   4    -0.230568293118E+04    0.41243E-04   -0.23706E-04  3094   0.778E-03    0.361E-02
RMM:   5    -0.230568292641E+04    0.47711E-05   -0.45918E-05  3042   0.605E-03
  27 F= -.23260649E+04 E0= -.23260649E+04  d E =-.120119E-02  mag=     3.0000
       N       E                     dE             d eps       ncg     rms          rms(c)
DAV:   1    -0.230568117834E+04    0.17528E-02   -0.28253E-01  4400   0.517E-01    0.183E-01
RMM:   2    -0.230568514594E+04   -0.39676E-02   -0.32728E-02  6115   0.107E-01    0.402E-01
RMM:   3    -0.230568421630E+04    0.92964E-03   -0.26604E-03  5105   0.333E-02    0.987E-02
RMM:   4    -0.230568415728E+04    0.59024E-04   -0.32382E-04  3507   0.920E-03    0.399E-02
RMM:   5    -0.230568415162E+04    0.56538E-05   -0.61494E-05  3419   0.713E-03
  28 F= -.23260661E+04 E0= -.23260661E+04  d E =-.118938E-02  mag=     3.0000
       N       E                     dE             d eps       ncg     rms          rms(c)
DAV:   1    -0.230567851467E+04    0.56426E-02   -0.59481E-01  4392   0.751E-01    0.268E-01
RMM:   2    -0.230568699799E+04   -0.84833E-02   -0.69252E-02  6026   0.156E-01    0.596E-01
RMM:   3    -0.230568490131E+04    0.20967E-02   -0.57051E-03  5495   0.495E-02    0.140E-01
RMM:   4    -0.230568478652E+04    0.11479E-03   -0.67903E-04  4278   0.127E-02    0.585E-02
RMM:   5    -0.230568477903E+04    0.74843E-05   -0.12491E-04  4026   0.990E-03    0.805E-02
RMM:   6    -0.230568473800E+04    0.41036E-04   -0.81206E-05  3124   0.786E-03    0.951E-03
RMM:   7    -0.230568473726E+04    0.73362E-06   -0.11130E-05  2840   0.464E-03
  29 F= -.23260667E+04 E0= -.23260667E+04  d E =-.172345E-02  mag=     3.0000
       N       E                     dE             d eps       ncg     rms          rms(c)
DAV:   1    -0.230568422786E+04    0.51014E-03   -0.13054E-01  4432   0.346E-01    0.118E-01
RMM:   2    -0.230568607191E+04   -0.18441E-02   -0.14850E-02  6019   0.718E-02    0.284E-01
RMM:   3    -0.230568559059E+04    0.48132E-03   -0.11637E-03  4110   0.214E-02    0.550E-02
RMM:   4    -0.230568557270E+04    0.17895E-04   -0.12707E-04  2944   0.618E-03    0.269E-02
RMM:   5    -0.230568557081E+04    0.18889E-05   -0.26233E-05  2932   0.467E-03
  30 F= -.23260675E+04 E0= -.23260675E+04  d E =-.835116E-03  mag=     3.0000
       N       E                     dE             d eps       ncg     rms          rms(c)
DAV:   1    -0.230567493456E+04    0.10638E-01   -0.11710E+00  4392   0.104E+00    0.352E-01
RMM:   2    -0.230569119655E+04   -0.16262E-01   -0.13166E-01  6077   0.213E-01    0.821E-01
RMM:   3    -0.230568713767E+04    0.40589E-02   -0.10686E-02  5659   0.610E-02    0.165E-01
RMM:   4    -0.230568698043E+04    0.15725E-03   -0.11492E-03  4504   0.159E-02    0.785E-02
RMM:   5    -0.230568696454E+04    0.15891E-04   -0.21184E-04  4365   0.120E-02    0.105E-01
RMM:   6    -0.230568689807E+04    0.66463E-04   -0.15267E-04  3652   0.100E-02    0.134E-02
RMM:   7    -0.230568689711E+04    0.96642E-06   -0.17308E-05  2853   0.466E-03
  31 F= -.23260688E+04 E0= -.23260688E+04  d E =-.216725E-02  mag=     3.0000
       N       E                     dE             d eps       ncg     rms          rms(c)
DAV:   1    -0.230568700387E+04   -0.10580E-03   -0.14953E-01  4416   0.381E-01    0.132E-01
RMM:   2    -0.230568881541E+04   -0.18115E-02   -0.14826E-02  5908   0.780E-02    0.279E-01
RMM:   3    -0.230568836449E+04    0.45091E-03   -0.12017E-03  4275   0.231E-02    0.684E-02
RMM:   4    -0.230568832337E+04    0.41128E-04   -0.14650E-04  3166   0.724E-03    0.308E-02
RMM:   5    -0.230568831574E+04    0.76288E-05   -0.42063E-05  3225   0.618E-03
  32 F= -.23260702E+04 E0= -.23260702E+04  d E =-.138601E-02  mag=     3.0000
       N       E                     dE             d eps       ncg     rms          rms(c)
DAV:   1    -0.230568536047E+04    0.29629E-02   -0.44523E-01  4392   0.657E-01    0.228E-01
RMM:   2    -0.230569065160E+04   -0.52911E-02   -0.43569E-02  6000   0.133E-01    0.469E-01
RMM:   3    -0.230568940351E+04    0.12481E-02   -0.35707E-03  5229   0.437E-02    0.119E-01
RMM:   4    -0.230568927962E+04    0.12389E-03   -0.45006E-04  4260   0.120E-02    0.523E-02
RMM:   5    -0.230568924940E+04    0.30221E-04   -0.11756E-04  4113   0.101E-02    0.492E-02
RMM:   6    -0.230568923507E+04    0.14331E-04   -0.43313E-05  2961   0.707E-03    0.740E-03
RMM:   7    -0.230568923479E+04    0.27983E-06   -0.83369E-06  2827   0.421E-03
  33 F= -.23260711E+04 E0= -.23260711E+04  d E =-.224945E-02  mag=     3.0000
       N       E                     dE             d eps       ncg     rms          rms(c)
DAV:   1    -0.230568878361E+04    0.45146E-03   -0.18838E-01  4416   0.412E-01    0.139E-01
RMM:   2    -0.230569091791E+04   -0.21343E-02   -0.17669E-02  5977   0.825E-02    0.296E-01
RMM:   3    -0.230569040391E+04    0.51401E-03   -0.13904E-03  4281   0.246E-02    0.682E-02
RMM:   4    -0.230569036861E+04    0.35294E-04   -0.18143E-04  3173   0.738E-03    0.341E-02
RMM:   5    -0.230569036237E+04    0.62388E-05   -0.48711E-05  3257   0.631E-03
  34 F= -.23260722E+04 E0= -.23260722E+04  d E =-.110289E-02  mag=     3.0000
       N       E                     dE             d eps       ncg     rms          rms(c)
DAV:   1    -0.230568755328E+04    0.28153E-02   -0.40628E-01  4392   0.605E-01    0.205E-01
RMM:   2    -0.230569214905E+04   -0.45958E-02   -0.37921E-02  6111   0.121E-01    0.435E-01
RMM:   3    -0.230569104206E+04    0.11070E-02   -0.30032E-03  5076   0.370E-02    0.101E-01
RMM:   4    -0.230569096571E+04    0.76358E-04   -0.37933E-04  3935   0.103E-02    0.496E-02
RMM:   5    -0.230569094783E+04    0.17877E-04   -0.98563E-05  3868   0.879E-03    0.509E-02
RMM:   6    -0.230569093209E+04    0.15739E-04   -0.40973E-05  2872   0.670E-03    0.743E-03
RMM:   7    -0.230569093183E+04    0.26243E-06   -0.79452E-06  2826   0.362E-03
  35 F= -.23260727E+04 E0= -.23260727E+04  d E =-.163733E-02  mag=     3.0000
       N       E                     dE             d eps       ncg     rms          rms(c)
DAV:   1    -0.230569044599E+04    0.48610E-03   -0.21723E-01  4400   0.441E-01    0.151E-01
RMM:   2    -0.230569259544E+04   -0.21495E-02   -0.18492E-02  5885   0.880E-02    0.287E-01
RMM:   3    -0.230569212658E+04    0.46886E-03   -0.14084E-03  4576   0.265E-02    0.909E-02
RMM:   4    -0.230569206448E+04    0.62092E-04   -0.18231E-04  3621   0.838E-03    0.356E-02
RMM:   5    -0.230569205618E+04    0.83065E-05   -0.56413E-05  3462   0.734E-03
  36 F= -.23260739E+04 E0= -.23260739E+04  d E =-.115430E-02  mag=     3.0000
       N       E                     dE             d eps       ncg     rms          rms(c)
DAV:   1    -0.230569106875E+04    0.99574E-03   -0.16262E-01  4448   0.382E-01    0.132E-01
RMM:   2    -0.230569267265E+04   -0.16039E-02   -0.13728E-02  6009   0.768E-02    0.249E-01
RMM:   3    -0.230569233461E+04    0.33804E-03   -0.11374E-03  4296   0.255E-02    0.795E-02
RMM:   4    -0.230569228675E+04    0.47865E-04   -0.13325E-04  3232   0.775E-03    0.313E-02
RMM:   5    -0.230569228005E+04    0.66919E-05   -0.45305E-05  3303   0.675E-03
  37 F= -.23260741E+04 E0= -.23260741E+04  d E =-.140455E-02  mag=     3.0000
       N       E                     dE             d eps       ncg     rms          rms(c)
DAV:   1    -0.230569136562E+04    0.92112E-03   -0.24925E-01  4400   0.482E-01    0.173E-01
RMM:   2    -0.230569373674E+04   -0.23711E-02   -0.20801E-02  5976   0.959E-02    0.297E-01
RMM:   3    -0.230569330251E+04    0.43423E-03   -0.18118E-03  4894   0.325E-02    0.125E-01
RMM:   4    -0.230569318264E+04    0.11988E-03   -0.22649E-04  3989   0.979E-03    0.381E-02
RMM:   5    -0.230569317204E+04    0.10597E-04   -0.70679E-05  3688   0.805E-03    0.335E-02
RMM:   6    -0.230569316639E+04    0.56501E-05   -0.20149E-05  2839   0.569E-03
  38 F= -.23260751E+04 E0= -.23260751E+04  d E =-.950448E-03  mag=     3.0000
       N       E                     dE             d eps       ncg     rms          rms(c)
DAV:   1    -0.230569069921E+04    0.24728E-02   -0.30973E-01  4392   0.537E-01    0.194E-01
RMM:   2    -0.230569374809E+04   -0.30489E-02   -0.26261E-02  5881   0.107E-01    0.347E-01
RMM:   3    -0.230569311134E+04    0.63675E-03   -0.22156E-03  5073   0.327E-02    0.135E-01
RMM:   4    -0.230569296782E+04    0.14353E-03   -0.28613E-04  4192   0.104E-02    0.426E-02
RMM:   5    -0.230569295353E+04    0.14288E-04   -0.83874E-05  3817   0.866E-03    0.391E-02
RMM:   6    -0.230569294503E+04    0.84956E-05   -0.25746E-05  2855   0.591E-03
  39 F= -.23260749E+04 E0= -.23260749E+04  d E =-.800555E-03  mag=     3.0000
       N       E                     dE             d eps       ncg     rms          rms(c)
DAV:   1    -0.230569251875E+04    0.43478E-03   -0.99811E-02  4432   0.304E-01    0.107E-01
RMM:   2    -0.230569342948E+04   -0.91073E-03   -0.82111E-03  6082   0.601E-02    0.179E-01
RMM:   3    -0.230569328220E+04    0.14729E-03   -0.68850E-04  3806   0.185E-02    0.794E-02
RMM:   4    -0.230569323144E+04    0.50760E-04   -0.85943E-05  3047   0.667E-03    0.235E-02
RMM:   5    -0.230569322644E+04    0.49971E-05   -0.33978E-05  3072   0.571E-03
  40 F= -.23260752E+04 E0= -.23260752E+04  d E =-.104150E-02  mag=     3.0000
       N       E                     dE             d eps       ncg     rms          rms(c)
DAV:   1    -0.230569134182E+04    0.18896E-02   -0.30791E-01  4392   0.528E-01    0.193E-01
RMM:   2    -0.230569519659E+04   -0.38548E-02   -0.32015E-02  6068   0.110E-01    0.402E-01
RMM:   3    -0.230569425767E+04    0.93892E-03   -0.26384E-03  5170   0.330E-02    0.109E-01
RMM:   4    -0.230569416977E+04    0.87901E-04   -0.33195E-04  3886   0.971E-03    0.443E-02
RMM:   5    -0.230569415817E+04    0.11603E-04   -0.80155E-05  3626   0.778E-03    0.528E-02
RMM:   6    -0.230569414111E+04    0.17061E-04   -0.37064E-05  2865   0.645E-03    0.718E-03
RMM:   7    -0.230569414080E+04    0.30771E-06   -0.65394E-06  2826   0.346E-03
  41 F= -.23260761E+04 E0= -.23260761E+04  d E =-.946454E-03  mag=     3.0000
       N       E                     dE             d eps       ncg     rms          rms(c)
DAV:   1    -0.230569365336E+04    0.48775E-03   -0.60244E-02  4432   0.234E-01    0.860E-02
RMM:   2    -0.230569441389E+04   -0.76053E-03   -0.63024E-03  6016   0.489E-02    0.180E-01
RMM:   3    -0.230569423006E+04    0.18383E-03   -0.52026E-04  3491   0.155E-02    0.501E-02
RMM:   4    -0.230569421264E+04    0.17418E-04   -0.64661E-05  2907   0.513E-03    0.205E-02
RMM:   5    -0.230569421027E+04    0.23697E-05   -0.18363E-05  2881   0.401E-03
  42 F= -.23260762E+04 E0= -.23260762E+04  d E =-.103023E-02  mag=     3.0000
       N       E                     dE             d eps       ncg     rms          rms(c)
DAV:   1    -0.230569206045E+04    0.21522E-02   -0.34733E-01  4392   0.579E-01    0.210E-01
RMM:   2    -0.230569661670E+04   -0.45563E-02   -0.36989E-02  5985   0.122E-01    0.451E-01
RMM:   3    -0.230569539847E+04    0.12182E-02   -0.30854E-03  5244   0.369E-02    0.111E-01
RMM:   4    -0.230569531890E+04    0.79567E-04   -0.40114E-04  4087   0.105E-02    0.501E-02
RMM:   5    -0.230569530480E+04    0.14101E-04   -0.92048E-05  3836   0.845E-03    0.589E-02
RMM:   6    -0.230569528286E+04    0.21939E-04   -0.46549E-05  2883   0.684E-03    0.770E-03
RMM:   7    -0.230569528267E+04    0.18510E-06   -0.81100E-06  2824   0.402E-03
  43 F= -.23260772E+04 E0= -.23260772E+04  d E =-.104478E-02  mag=     3.0000
       N       E                     dE             d eps       ncg     rms          rms(c)
DAV:   1    -0.230569478599E+04    0.49687E-03   -0.63916E-02  4512   0.249E-01    0.907E-02
RMM:   2    -0.230569564617E+04   -0.86018E-03   -0.69091E-03  5925   0.523E-02    0.201E-01
RMM:   3    -0.230569540315E+04    0.24302E-03   -0.56069E-04  3668   0.173E-02    0.474E-02
RMM:   4    -0.230569538885E+04    0.14296E-04   -0.72396E-05  2905   0.530E-03    0.223E-02
RMM:   5    -0.230569538586E+04    0.29915E-05   -0.19267E-05  2879   0.418E-03
  44 F= -.23260773E+04 E0= -.23260773E+04  d E =-.113608E-02  mag=     3.0000
       N       E                     dE             d eps       ncg     rms          rms(c)
DAV:   1    -0.230569200503E+04    0.33838E-02   -0.39603E-01  4392   0.610E-01    0.225E-01
RMM:   2    -0.230569807743E+04   -0.60724E-02   -0.49366E-02  6005   0.133E-01    0.517E-01
RMM:   3    -0.230569644150E+04    0.16359E-02   -0.37572E-03  5257   0.402E-02    0.108E-01
RMM:   4    -0.230569639251E+04    0.48996E-04   -0.58267E-04  4091   0.111E-02    0.600E-02
RMM:   5    -0.230569637744E+04    0.15067E-04   -0.11548E-04  3820   0.883E-03    0.706E-02
RMM:   6    -0.230569634549E+04    0.31951E-04   -0.68868E-05  2995   0.742E-03    0.975E-03
RMM:   7    -0.230569634548E+04    0.12806E-07   -0.10504E-05  2831   0.440E-03
  45 F= -.23260783E+04 E0= -.23260783E+04  d E =-.934266E-03  mag=     3.0000
       N       E                     dE             d eps       ncg     rms          rms(c)
DAV:   1    -0.230569591341E+04    0.43208E-03   -0.44393E-02  4528   0.204E-01    0.767E-02
RMM:   2    -0.230569661605E+04   -0.70264E-03   -0.56037E-03  5910   0.447E-02    0.182E-01
RMM:   3    -0.230569641386E+04    0.20219E-03   -0.42976E-04  3214   0.147E-02    0.360E-02
RMM:   4    -0.230569640989E+04    0.39705E-05   -0.65916E-05  2891   0.457E-03
  46 F= -.23260783E+04 E0= -.23260783E+04  d E =-.990172E-03  mag=     3.0000
       N       E                     dE             d eps       ncg     rms          rms(c)
DAV:   1    -0.230569234549E+04    0.40684E-02   -0.40854E-01  4392   0.603E-01    0.220E-01
RMM:   2    -0.230569856836E+04   -0.62229E-02   -0.54207E-02  5939   0.134E-01    0.460E-01
RMM:   3    -0.230569736503E+04    0.12033E-02   -0.41792E-03  5119   0.383E-02    0.119E-01
RMM:   4    -0.230569730955E+04    0.55482E-04   -0.60206E-04  4046   0.109E-02    0.636E-02
RMM:   5    -0.230569729621E+04    0.13334E-04   -0.12116E-04  3796   0.863E-03    0.739E-02
RMM:   6    -0.230569726276E+04    0.33451E-04   -0.82734E-05  2985   0.774E-03    0.129E-02
RMM:   7    -0.230569726199E+04    0.76764E-06   -0.11622E-05  2836   0.449E-03
  47 F= -.23260792E+04 E0= -.23260792E+04  d E =-.866079E-03  mag=     3.0000
       N       E                     dE             d eps       ncg     rms          rms(c)
DAV:   1    -0.230569670287E+04    0.55989E-03   -0.47836E-02  4512   0.207E-01    0.806E-02
RMM:   2    -0.230569753575E+04   -0.83288E-03   -0.65743E-03  5945   0.466E-02    0.203E-01
RMM:   3    -0.230569728549E+04    0.25026E-03   -0.49698E-04  3263   0.149E-02    0.369E-02
RMM:   4    -0.230569728240E+04    0.30887E-05   -0.78664E-05  2901   0.472E-03
  48 F= -.23260792E+04 E0= -.23260792E+04  d E =-.891308E-03  mag=     3.0000
       N       E                     dE             d eps       ncg     rms          rms(c)
DAV:   1    -0.230569450639E+04    0.27791E-02   -0.32126E-01  4392   0.524E-01    0.186E-01
RMM:   2    -0.230569907124E+04   -0.45649E-02   -0.39934E-02  5977   0.113E-01    0.396E-01
RMM:   3    -0.230569822540E+04    0.84584E-03   -0.31819E-03  4886   0.330E-02    0.104E-01
RMM:   4    -0.230569818586E+04    0.39532E-04   -0.44189E-04  3400   0.924E-03    0.548E-02
RMM:   5    -0.230569817866E+04    0.71980E-05   -0.92604E-05  3471   0.733E-03
  49 F= -.23260801E+04 E0= -.23260801E+04  d E =-.872169E-03  mag=     3.0000
       N       E                     dE             d eps       ncg     rms          rms(c)
DAV:   1    -0.230569501336E+04    0.31725E-02   -0.31014E-01  4392   0.515E-01    0.199E-01
RMM:   2    -0.230570007060E+04   -0.50572E-02   -0.39356E-02  6168   0.113E-01    0.505E-01
RMM:   3    -0.230569852462E+04    0.15460E-02   -0.32907E-03  5140   0.351E-02    0.886E-02
RMM:   4    -0.230569850533E+04    0.19283E-04   -0.45187E-04  3341   0.947E-03    0.529E-02
RMM:   5    -0.230569849835E+04    0.69817E-05   -0.80776E-05  3330   0.714E-03
  50 F= -.23260804E+04 E0= -.23260804E+04  d E =-.116827E-02  mag=     3.0000
       N       E                     dE             d eps       ncg     rms          rms(c)
DAV:   1    -0.230569603408E+04    0.24713E-02   -0.35567E-01  4392   0.557E-01    0.207E-01
RMM:   2    -0.230570092014E+04   -0.48861E-02   -0.40592E-02  6076   0.117E-01    0.462E-01
RMM:   3    -0.230569975635E+04    0.11638E-02   -0.36114E-03  5256   0.393E-02    0.114E-01
RMM:   4    -0.230569969514E+04    0.61211E-04   -0.44061E-04  3808   0.100E-02    0.535E-02
RMM:   5    -0.230569968250E+04    0.12641E-04   -0.10004E-04  3690   0.808E-03    0.548E-02
RMM:   6    -0.230569966737E+04    0.15130E-04   -0.48417E-05  2897   0.676E-03    0.127E-02
RMM:   7    -0.230569966707E+04    0.29996E-06   -0.96346E-06  2829   0.401E-03
  51 F= -.23260815E+04 E0= -.23260815E+04  d E =-.115640E-02  mag=     3.0000
       N       E                     dE             d eps       ncg     rms          rms(c)
DAV:   1    -0.230569590786E+04    0.37595E-02   -0.40338E-01  4392   0.593E-01    0.218E-01
RMM:   2    -0.230570151335E+04   -0.56055E-02   -0.46617E-02  5928   0.125E-01    0.493E-01
RMM:   3    -0.230570015475E+04    0.13586E-02   -0.40888E-03  5300   0.395E-02    0.119E-01
RMM:   4    -0.230570008741E+04    0.67335E-04   -0.50620E-04  3959   0.102E-02    0.581E-02
RMM:   5    -0.230570007307E+04    0.14339E-04   -0.11331E-04  3748   0.842E-03    0.659E-02
RMM:   6    -0.230570004808E+04    0.24992E-04   -0.63743E-05  2944   0.722E-03    0.137E-02
RMM:   7    -0.230570004735E+04    0.73221E-06   -0.11285E-05  2832   0.436E-03
  52 F= -.23260819E+04 E0= -.23260819E+04  d E =-.152344E-02  mag=     3.0000
       N       E                     dE             d eps       ncg     rms          rms(c)
DAV:   1    -0.230569766113E+04    0.23869E-02   -0.27855E-01  4396   0.469E-01    0.174E-01
RMM:   2    -0.230570192660E+04   -0.42655E-02   -0.36259E-02  6055   0.101E-01    0.410E-01
RMM:   3    -0.230570103764E+04    0.88896E-03   -0.32465E-03  4920   0.319E-02    0.931E-02
RMM:   4    -0.230570101558E+04    0.22056E-04   -0.39890E-04  3119   0.798E-03    0.508E-02
RMM:   5    -0.230570100868E+04    0.69076E-05   -0.74632E-05  3106   0.621E-03
  53 F= -.23260829E+04 E0= -.23260829E+04  d E =-.981381E-03  mag=     3.0000
       N       E                     dE             d eps       ncg     rms          rms(c)
DAV:   1    -0.230567488757E+04    0.26128E-01   -0.22808E+00  4392   0.134E+00    0.510E-01
RMM:   2    -0.230571080499E+04   -0.35917E-01   -0.29945E-01  6129   0.289E-01    0.121E+00
RMM:   3    -0.230570246460E+04    0.83404E-02   -0.26889E-02  5791   0.893E-02    0.256E-01
RMM:   4    -0.230570229924E+04    0.16536E-03   -0.32997E-03  4681   0.219E-02    0.141E-01
RMM:   5    -0.230570224933E+04    0.49913E-04   -0.60688E-04  4764   0.162E-02    0.160E-01
RMM:   6    -0.230570211504E+04    0.13428E-03   -0.37900E-04  4348   0.129E-02    0.384E-02
RMM:   7    -0.230570210990E+04    0.51453E-05   -0.47627E-05  2866   0.539E-03
  54 F= -.23260840E+04 E0= -.23260840E+04  d E =-.213935E-02  mag=     3.0000
       N       E                     dE             d eps       ncg     rms          rms(c)
DAV:   1    -0.230569985864E+04    0.22564E-02   -0.25217E-01  4464   0.441E-01    0.173E-01
RMM:   2    -0.230570422295E+04   -0.43643E-02   -0.36994E-02  6101   0.987E-02    0.417E-01
RMM:   3    -0.230570330709E+04    0.91587E-03   -0.33198E-03  4774   0.301E-02    0.922E-02
RMM:   4    -0.230570329805E+04    0.90340E-05   -0.42712E-04  3083   0.800E-03    0.549E-02
RMM:   5    -0.230570329225E+04    0.58027E-05   -0.75048E-05  3047   0.595E-03
  55 F= -.23260852E+04 E0= -.23260852E+04  d E =-.120580E-02  mag=     3.0000
       N       E                     dE             d eps       ncg     rms          rms(c)
DAV:   1    -0.230567497554E+04    0.28323E-01   -0.22598E+00  4392   0.132E+00    0.522E-01
RMM:   2    -0.230571449383E+04   -0.39518E-01   -0.33200E-01  6174   0.294E-01    0.125E+00
RMM:   3    -0.230570567121E+04    0.88226E-02   -0.29932E-02  5834   0.895E-02    0.260E-01
RMM:   4    -0.230570557877E+04    0.92447E-04   -0.37265E-03  4702   0.221E-02    0.150E-01
RMM:   5    -0.230570553411E+04    0.44657E-04   -0.60922E-04  4780   0.158E-02    0.174E-01
RMM:   6    -0.230570537124E+04    0.16287E-03   -0.46373E-04  4479   0.134E-02    0.417E-02
RMM:   7    -0.230570536294E+04    0.83089E-05   -0.49058E-05  2867   0.565E-03
  56 F= -.23260874E+04 E0= -.23260874E+04  d E =-.334465E-02  mag=     3.0000
       N       E                     dE             d eps       ncg     rms          rms(c)
DAV:   1    -0.230557994687E+04    0.12542E+00   -0.90620E+00  4392   0.265E+00    0.108E+00
RMM:   2    -0.230574770853E+04   -0.16776E+00   -0.13710E+00  6101   0.604E-01    0.265E+00
RMM:   3    -0.230570398996E+04    0.43719E-01   -0.12698E-01  5879   0.181E-01    0.486E-01
RMM:   4    -0.230570385612E+04    0.13384E-03   -0.16585E-02  4936   0.443E-02    0.298E-01
RMM:   5    -0.230570380862E+04    0.47507E-04   -0.22989E-03  5325   0.299E-02    0.383E-01
RMM:   6    -0.230570294467E+04    0.86395E-03   -0.19974E-03  5376   0.251E-02    0.735E-02
RMM:   7    -0.230570294887E+04   -0.41995E-05   -0.22349E-04  3305   0.898E-03    0.677E-02
RMM:   8    -0.230570292663E+04    0.22234E-04   -0.45677E-05  2843   0.509E-03    0.281E-02
RMM:   9    -0.230570292697E+04   -0.33560E-06   -0.17077E-05  2839   0.336E-03
  57 F= -.23260851E+04 E0= -.23260851E+04  d E =-.103996E-02  mag=     3.0000
       N       E                     dE             d eps       ncg     rms          rms(c)
DAV:   1    -0.230563757547E+04    0.65351E-01   -0.50249E+00  4392   0.197E+00    0.723E-01
RMM:   2    -0.230571729734E+04   -0.79722E-01   -0.71857E-01  6071   0.430E-01    0.171E+00
RMM:   3    -0.230570698095E+04    0.10316E-01   -0.63193E-02  5792   0.133E-01    0.494E-01
RMM:   4    -0.230570624617E+04    0.73478E-03   -0.77966E-03  5019   0.327E-02    0.251E-01
RMM:   5    -0.230570593086E+04    0.31531E-03   -0.13556E-03  5204   0.225E-02    0.231E-01
RMM:   6    -0.230570564224E+04    0.28862E-03   -0.89530E-04  5039   0.184E-02    0.636E-02
RMM:   7    -0.230570561879E+04    0.23446E-04   -0.74099E-05  3015   0.721E-03    0.225E-02
RMM:   8    -0.230570561532E+04    0.34698E-05   -0.19351E-05  2847   0.374E-03
  58 F= -.23260877E+04 E0= -.23260877E+04  d E =-.363091E-02  mag=     3.0000
       N       E                     dE             d eps       ncg     rms          rms(c)
DAV:   1    -0.230570246963E+04    0.31492E-02   -0.30767E-01  4400   0.478E-01    0.179E-01
RMM:   2    -0.230570781528E+04   -0.53456E-02   -0.47964E-02  6141   0.107E-01    0.412E-01
RMM:   3    -0.230570705356E+04    0.76172E-03   -0.42363E-03  4845   0.320E-02    0.102E-01
RMM:   4    -0.230570704321E+04    0.10347E-04   -0.53509E-04  3141   0.826E-03    0.570E-02
RMM:   5    -0.230570703206E+04    0.11152E-04   -0.80624E-05  3066   0.588E-03    0.666E-02
RMM:   6    -0.230570700777E+04    0.24286E-04   -0.67587E-05  2922   0.608E-03    0.163E-02
RMM:   7    -0.230570700643E+04    0.13445E-05   -0.78393E-06  2827   0.343E-03
  59 F= -.23260890E+04 E0= -.23260890E+04  d E =-.137077E-02  mag=     3.0000
       N       E                     dE             d eps       ncg     rms          rms(c)
DAV:   1    -0.230566951863E+04    0.37489E-01   -0.27729E+00  4392   0.143E+00    0.575E-01
RMM:   2    -0.230572223751E+04   -0.52719E-01   -0.44584E-01  6191   0.328E-01    0.143E+00
RMM:   3    -0.230571086212E+04    0.11375E-01   -0.40889E-02  5871   0.975E-02    0.280E-01
RMM:   4    -0.230571091334E+04   -0.51219E-04   -0.52755E-03  4820   0.235E-02    0.179E-01
RMM:   5    -0.230571086540E+04    0.47940E-04   -0.76529E-04  4710   0.159E-02    0.212E-01
RMM:   6    -0.230571061097E+04    0.25443E-03   -0.65458E-04  4514   0.146E-02    0.401E-02
RMM:   7    -0.230571060702E+04    0.39508E-05   -0.71030E-05  2883   0.606E-03
  60 F= -.23260926E+04 E0= -.23260926E+04  d E =-.490783E-02  mag=     3.0000
       N       E                     dE             d eps       ncg     rms          rms(c)
DAV:   1    -0.230554898979E+04    0.16162E+00   -0.11090E+01  4392   0.287E+00    0.121E+00
RMM:   2    -0.230577662745E+04   -0.22764E+00   -0.18531E+00  6185   0.669E-01    0.310E+00
RMM:   3    -0.230571568999E+04    0.60937E-01   -0.17442E-01  5891   0.202E-01    0.524E-01
RMM:   4    -0.230571605337E+04   -0.36338E-03   -0.23303E-02  5147   0.485E-02    0.350E-01
RMM:   5    -0.230571607946E+04   -0.26084E-04   -0.27689E-03  5183   0.295E-02    0.458E-01
RMM:   6    -0.230571483690E+04    0.12426E-02   -0.26012E-03  5362   0.272E-02    0.702E-02
RMM:   7    -0.230571486819E+04   -0.31295E-04   -0.33928E-04  3417   0.102E-02    0.758E-02
RMM:   8    -0.230571484521E+04    0.22985E-04   -0.48415E-05  2845   0.512E-03    0.349E-02
RMM:   9    -0.230571484553E+04   -0.32487E-06   -0.17506E-05  2839   0.318E-03
  61 F= -.23260967E+04 E0= -.23260967E+04  d E =-.901359E-02  mag=     3.0000
       N       E                     dE             d eps       ncg     rms          rms(c)
DAV:   1    -0.230570415743E+04    0.10688E-01   -0.95163E-01  4448   0.837E-01    0.339E-01
RMM:   2    -0.230572244410E+04   -0.18287E-01   -0.15641E-01  6140   0.192E-01    0.856E-01
RMM:   3    -0.230571876319E+04    0.36809E-02   -0.14346E-02  5646   0.574E-02    0.180E-01
RMM:   4    -0.230571878932E+04   -0.26125E-04   -0.18838E-03  4115   0.139E-02    0.117E-01
RMM:   5    -0.230571875831E+04    0.31004E-04   -0.26676E-04  3795   0.951E-03    0.127E-01
RMM:   6    -0.230571866548E+04    0.92834E-04   -0.22531E-04  3533   0.950E-03    0.218E-02
RMM:   7    -0.230571866449E+04    0.98842E-06   -0.24434E-05  2849   0.492E-03
  62 F= -.23261004E+04 E0= -.23261004E+04  d E =-.369983E-02  mag=     3.0000
       N       E                     dE             d eps       ncg     rms          rms(c)
DAV:   1    -0.230559578403E+04    0.12288E+00   -0.85504E+00  4392   0.251E+00    0.106E+00
RMM:   2    -0.230577093210E+04   -0.17515E+00   -0.14590E+00  6181   0.588E-01    0.270E+00
RMM:   3    -0.230572825425E+04    0.42678E-01   -0.13947E-01  5893   0.181E-01    0.493E-01
RMM:   4    -0.230572855537E+04   -0.30113E-03   -0.18651E-02  5159   0.422E-02    0.328E-01
RMM:   5    -0.230572847355E+04    0.81828E-04   -0.22465E-03  5150   0.262E-02    0.416E-01
RMM:   6    -0.230572745659E+04    0.10170E-02   -0.19571E-03  5311   0.238E-02    0.582E-02
RMM:   7    -0.230572747001E+04   -0.13426E-04   -0.25291E-04  3240   0.937E-03    0.518E-02
RMM:   8    -0.230572745760E+04    0.12416E-04   -0.33353E-05  2837   0.457E-03    0.271E-02
RMM:   9    -0.230572745800E+04   -0.40281E-06   -0.12062E-05  2836   0.281E-03
  63 F= -.23261088E+04 E0= -.23261088E+04  d E =-.121361E-01  mag=     3.0000
       N       E                     dE             d eps       ncg     rms          rms(c)
DAV:   1    -0.230519462910E+04    0.53283E+00   -0.34177E+01  4392   0.503E+00    0.231E+00
RMM:   2    -0.230600918977E+04   -0.81456E+00   -0.63522E+00  6245   0.122E+00    0.616E+00
RMM:   3    -0.230573425010E+04    0.27494E+00   -0.61135E-01  5880   0.375E-01    0.887E-01
RMM:   4    -0.230573486305E+04   -0.61295E-03   -0.83014E-02  5328   0.897E-02    0.582E-01
RMM:   5    -0.230573606633E+04   -0.12033E-02   -0.76732E-03  5111   0.500E-02    0.924E-01
RMM:   6    -0.230573145550E+04    0.46108E-02   -0.69446E-03  5685   0.430E-02    0.202E-01
RMM:   7    -0.230573152943E+04   -0.73935E-04   -0.16500E-03  4813   0.183E-02    0.175E-01
RMM:   8    -0.230573143921E+04    0.90221E-04   -0.19668E-04  3345   0.919E-03    0.556E-02
RMM:   9    -0.230573144902E+04   -0.98062E-05   -0.43561E-05  2864   0.524E-03
  64 F= -.23261121E+04 E0= -.23261121E+04  d E =-.154279E-01  mag=     3.0000
       N       E                     dE             d eps       ncg     rms          rms(c)
DAV:   1    -0.230566454618E+04    0.66893E-01   -0.44015E+00  4392   0.181E+00    0.651E-01
RMM:   2    -0.230573801212E+04   -0.73466E-01   -0.69885E-01  6149   0.394E-01    0.142E+00
RMM:   3    -0.230573392369E+04    0.40884E-02   -0.65555E-02  5822   0.129E-01    0.556E-01
RMM:   4    -0.230573288348E+04    0.10402E-02   -0.72368E-03  5183   0.299E-02    0.231E-01
RMM:   5    -0.230573253838E+04    0.34509E-03   -0.10649E-03  4835   0.190E-02    0.211E-01
RMM:   6    -0.230573232159E+04    0.21679E-03   -0.79018E-04  4850   0.174E-02    0.490E-02
RMM:   7    -0.230573230393E+04    0.17659E-04   -0.65671E-05  2966   0.710E-03    0.176E-02
RMM:   8    -0.230573230041E+04    0.35196E-05   -0.15602E-05  2847   0.343E-03
  65 F= -.23261132E+04 E0= -.23261132E+04  d E =-.165265E-01  mag=     3.0000
       N       E                     dE             d eps       ncg     rms          rms(c)
DAV:   1    -0.230570268901E+04    0.29615E-01   -0.22370E+00  4412   0.126E+00    0.501E-01
RMM:   2    -0.230574510068E+04   -0.42412E-01   -0.37545E-01  6215   0.288E-01    0.126E+00
RMM:   3    -0.230573821243E+04    0.68882E-02   -0.36126E-02  5841   0.888E-02    0.297E-01
RMM:   4    -0.230573821215E+04    0.27605E-06   -0.44397E-03  4742   0.207E-02    0.174E-01
RMM:   5    -0.230573815375E+04    0.58403E-04   -0.62800E-04  4342   0.138E-02    0.210E-01
RMM:   6    -0.230573791158E+04    0.24217E-03   -0.52191E-04  4364   0.129E-02    0.297E-02
RMM:   7    -0.230573790927E+04    0.23082E-05   -0.52538E-05  2880   0.566E-03
  66 F= -.23261186E+04 E0= -.23261186E+04  d E =-.540718E-02  mag=     3.0000
       N       E                     dE             d eps       ncg     rms          rms(c)
DAV:   1    -0.230542718094E+04    0.31073E+00   -0.20120E+01  4392   0.378E+00    0.168E+00
RMM:   2    -0.230588007815E+04   -0.45290E+00   -0.36842E+00  6286   0.899E-01    0.456E+00
RMM:   3    -0.230575115956E+04    0.12892E+00   -0.35237E-01  5897   0.279E-01    0.728E-01
RMM:   4    -0.230575244655E+04   -0.12870E-02   -0.47668E-02  5320   0.658E-02    0.502E-01
RMM:   5    -0.230575295400E+04   -0.50745E-03   -0.50464E-03  5122   0.377E-02    0.741E-01
RMM:   6    -0.230575002817E+04    0.29258E-02   -0.45921E-03  5568   0.344E-02    0.146E-01
RMM:   7    -0.230575004097E+04   -0.12793E-04   -0.86926E-04  4283   0.140E-02    0.987E-02
RMM:   8    -0.230575000935E+04    0.31617E-04   -0.88524E-05  2896   0.658E-03    0.369E-02
RMM:   9    -0.230575001505E+04   -0.57002E-05   -0.24756E-05  2855   0.387E-03
  67 F= -.23261301E+04 E0= -.23261301E+04  d E =-.169176E-01  mag=     3.0000
       N       E                     dE             d eps       ncg     rms          rms(c)
DAV:   1    -0.230440471737E+04    0.13453E+01   -0.80384E+01  4392   0.759E+00    0.382E+00
RMM:   2    -0.230663988893E+04   -0.22352E+01   -0.16810E+01  6363   0.193E+00    0.100E+01
RMM:   3    -0.230574355124E+04    0.89634E+00   -0.16468E+00  5827   0.622E-01    0.140E+00
RMM:   4    -0.230574937100E+04   -0.58198E-02   -0.23018E-01  5550   0.146E-01    0.881E-01
RMM:   5    -0.230575589995E+04   -0.65289E-02   -0.16268E-02  4818   0.708E-02    0.155E+00
RMM:   6    -0.230574328240E+04    0.12618E-01   -0.18774E-02  5749   0.638E-02    0.335E-01
RMM:   7    -0.230574490617E+04   -0.16238E-02   -0.56207E-03  5223   0.319E-02    0.602E-01
RMM:   8    -0.230574375249E+04    0.11537E-02   -0.11948E-03  4789   0.189E-02    0.184E-01
RMM:   9    -0.230574373562E+04    0.16873E-04   -0.32022E-04  3378   0.923E-03    0.113E-01
RMM:  10    -0.230574372141E+04    0.14207E-04   -0.11373E-04  3084   0.599E-03    0.593E-02
RMM:  11    -0.230574371675E+04    0.46616E-05   -0.63567E-05  2923   0.489E-03
  68 F= -.23261227E+04 E0= -.23261227E+04  d E =-.944920E-02  mag=     3.0000
       N       E                     dE             d eps       ncg     rms          rms(c)
DAV:   1    -0.230509868708E+04    0.64503E+00   -0.39627E+01  4392   0.534E+00    0.181E+00
RMM:   2    -0.230572140117E+04   -0.62271E+00   -0.65692E+00  6261   0.118E+00    0.239E+00
RMM:   3    -0.230580108224E+04   -0.79681E-01   -0.67005E-01  5953   0.386E-01    0.294E+00
RMM:   4    -0.230575813060E+04    0.42952E-01   -0.66180E-02  5970   0.971E-02    0.734E-01
RMM:   5    -0.230575406184E+04    0.40688E-02   -0.11975E-02  5077   0.507E-02    0.394E-01
RMM:   6    -0.230575388472E+04    0.17712E-03   -0.73027E-03  4969   0.457E-02    0.386E-01
RMM:   7    -0.230575321650E+04    0.66822E-03   -0.99902E-04  4945   0.271E-02    0.891E-02
RMM:   8    -0.230575312529E+04    0.91210E-04   -0.32249E-04  3513   0.854E-03    0.364E-02
RMM:   9    -0.230575312474E+04    0.55219E-06   -0.62256E-05  2924   0.530E-03
  69 F= -.23261329E+04 E0= -.23261329E+04  d E =-.196774E-01  mag=     3.0000
       N       E                     dE             d eps       ncg     rms          rms(c)
DAV:   1    -0.230573073451E+04    0.22391E-01   -0.22040E+00  4432   0.127E+00    0.505E-01
RMM:   2    -0.230576773539E+04   -0.37001E-01   -0.35657E-01  6017   0.292E-01    0.987E-01
RMM:   3    -0.230576587776E+04    0.18576E-02   -0.35329E-02  5757   0.958E-02    0.479E-01
RMM:   4    -0.230576515788E+04    0.71988E-03   -0.38173E-03  5064   0.229E-02    0.175E-01
RMM:   5    -0.230576495333E+04    0.20455E-03   -0.66054E-04  4592   0.158E-02    0.134E-01
RMM:   6    -0.230576487309E+04    0.80239E-04   -0.35395E-04  4383   0.127E-02    0.312E-02
RMM:   7    -0.230576486730E+04    0.57957E-05   -0.33981E-05  2876   0.609E-03
  70 F= -.23261444E+04 E0= -.23261444E+04  d E =-.115069E-01  mag=     3.0000
       N       E                     dE             d eps       ncg     rms          rms(c)
DAV:   1    -0.230555271659E+04    0.21216E+00   -0.14374E+01  4424   0.324E+00    0.137E+00
RMM:   2    -0.230582284466E+04   -0.27013E+00   -0.24485E+00  6038   0.764E-01    0.311E+00
RMM:   3    -0.230578173759E+04    0.41107E-01   -0.24183E-01  5790   0.254E-01    0.946E-01
RMM:   4    -0.230578021697E+04    0.15206E-02   -0.27884E-02  5213   0.585E-02    0.470E-01
RMM:   5    -0.230577978702E+04    0.42995E-03   -0.42267E-03  5134   0.400E-02    0.520E-01
RMM:   6    -0.230577841796E+04    0.13691E-02   -0.36700E-03  5618   0.330E-02    0.138E-01
RMM:   7    -0.230577834529E+04    0.72670E-04   -0.36468E-04  4036   0.133E-02    0.503E-02
RMM:   8    -0.230577833886E+04    0.64315E-05   -0.59307E-05  2904   0.586E-03
  71 F= -.23261573E+04 E0= -.23261573E+04  d E =-.243645E-01  mag=     3.0000
       N       E                     dE             d eps       ncg     rms          rms(c)
DAV:   1    -0.230574425147E+04    0.34094E-01   -0.30909E+00  4432   0.143E+00    0.575E-01
RMM:   2    -0.230579355836E+04   -0.49307E-01   -0.50410E-01  6178   0.330E-01    0.870E-01
RMM:   3    -0.230579561307E+04   -0.20547E-02   -0.52674E-02  5865   0.110E-01    0.680E-01
RMM:   4    -0.230579402173E+04    0.15913E-02   -0.53902E-03  5315   0.262E-02    0.198E-01
RMM:   5    -0.230579376306E+04    0.25867E-03   -0.85314E-04  4390   0.158E-02    0.108E-01
RMM:   6    -0.230579374803E+04    0.15024E-04   -0.40023E-04  4155   0.136E-02    0.618E-02
RMM:   7    -0.230579373824E+04    0.97920E-05   -0.61303E-05  3006   0.688E-03
  72 F= -.23261722E+04 E0= -.23261722E+04  d E =-.149516E-01  mag=     3.0000
       N       E                     dE             d eps       ncg     rms          rms(c)
DAV:   1    -0.230537106055E+04    0.42269E+00   -0.27709E+01  4392   0.430E+00    0.175E+00
RMM:   2    -0.230584116755E+04   -0.47011E+00   -0.47155E+00  6245   0.102E+00    0.290E+00
RMM:   3    -0.230583213774E+04    0.90298E-02   -0.49309E-01  5962   0.334E-01    0.147E+00
RMM:   4    -0.230582562614E+04    0.65116E-02   -0.49086E-02  5736   0.764E-02    0.544E-01
RMM:   5    -0.230582362752E+04    0.19986E-02   -0.68239E-03  4779   0.439E-02    0.340E-01
RMM:   6    -0.230582317830E+04    0.44922E-03   -0.44205E-03  4851   0.410E-02    0.144E-01
RMM:   7    -0.230582312470E+04    0.53599E-04   -0.60286E-04  4795   0.174E-02    0.569E-02
RMM:   8    -0.230582311957E+04    0.51346E-05   -0.10223E-04  3136   0.607E-03    0.393E-02
RMM:   9    -0.230582311079E+04    0.87812E-05   -0.27907E-05  2859   0.443E-03
  73 F= -.23262002E+04 E0= -.23262002E+04  d E =-.429125E-01  mag=     3.0000
       N       E                     dE             d eps       ncg     rms          rms(c)
DAV:   1    -0.230391904588E+04    0.19041E+01   -0.11006E+02  4392   0.862E+00    0.359E+00
RMM:   2    -0.230603710653E+04   -0.21181E+01   -0.20746E+01  6330   0.212E+00    0.630E+00
RMM:   3    -0.230581668484E+04    0.22042E+00   -0.20420E+00  5841   0.687E-01    0.184E+00
RMM:   4    -0.230581668851E+04   -0.36631E-05   -0.22178E-01  5636   0.153E-01    0.105E+00
RMM:   5    -0.230581305832E+04    0.36302E-02   -0.22962E-02  4659   0.813E-02    0.852E-01
RMM:   6    -0.230580959357E+04    0.34648E-02   -0.26854E-02  5438   0.857E-02    0.596E-01
RMM:   7    -0.230580796092E+04    0.16326E-02   -0.40166E-03  5399   0.428E-02    0.151E-01
RMM:   8    -0.230580811226E+04   -0.15134E-03   -0.73768E-04  4452   0.128E-02    0.861E-02
RMM:   9    -0.230580808724E+04    0.25022E-04   -0.11897E-04  3293   0.908E-03    0.362E-02
RMM:  10    -0.230580808147E+04    0.57736E-05   -0.87597E-05  3591   0.625E-03
  74 F= -.23261817E+04 E0= -.23261817E+04  d E =-.244398E-01  mag=     3.0000
       N       E                     dE             d eps       ncg     rms          rms(c)
DAV:   1    -0.230491970547E+04    0.88838E+00   -0.54121E+01  4408   0.606E+00    0.226E+00
RMM:   2    -0.230577691942E+04   -0.85721E+00   -0.93295E+00  6218   0.137E+00    0.188E+00
RMM:   3    -0.230585110031E+04   -0.74181E-01   -0.96797E-01  6019   0.462E-01    0.189E+00
RMM:   4    -0.230583849691E+04    0.12603E-01   -0.95594E-02  6271   0.112E-01    0.108E+00
RMM:   5    -0.230583180752E+04    0.66894E-02   -0.19455E-02  5462   0.617E-02    0.549E-01
RMM:   6    -0.230582944096E+04    0.23666E-02   -0.98620E-03  4985   0.470E-02    0.171E-01
RMM:   7    -0.230582936377E+04    0.77191E-04   -0.13081E-03  4764   0.318E-02    0.950E-02
RMM:   8    -0.230582932191E+04    0.41856E-04   -0.32066E-04  4100   0.106E-02    0.427E-02
RMM:   9    -0.230582930163E+04    0.20285E-04   -0.79861E-05  2960   0.802E-03    0.232E-02
RMM:  10    -0.230582929476E+04    0.68622E-05   -0.46949E-05  2985   0.453E-03
  75 F= -.23262054E+04 E0= -.23262054E+04  d E =-.481690E-01  mag=     3.0000
       N       E                     dE             d eps       ncg     rms          rms(c)
DAV:   1    -0.230575522583E+04    0.74076E-01   -0.60898E+00  4408   0.201E+00    0.756E-01
RMM:   2    -0.230584269138E+04   -0.87466E-01   -0.95603E-01  6159   0.449E-01    0.584E-01
RMM:   3    -0.230585171584E+04   -0.90245E-02   -0.97243E-02  5910   0.148E-01    0.745E-01
RMM:   4    -0.230584951790E+04    0.21979E-02   -0.10473E-02  5971   0.371E-02    0.291E-01
RMM:   5    -0.230584903331E+04    0.48459E-03   -0.20164E-03  5202   0.222E-02    0.193E-01
RMM:   6    -0.230584877148E+04    0.26183E-03   -0.85626E-04  4837   0.164E-02    0.611E-02
RMM:   7    -0.230584876292E+04    0.85580E-05   -0.96815E-05  3295   0.101E-02
  76 F= -.23262241E+04 E0= -.23262241E+04  d E =-.187217E-01  mag=     3.0000
       N       E                     dE             d eps       ncg     rms          rms(c)
DAV:   1    -0.230541695420E+04    0.43182E+00   -0.28430E+01  4392   0.437E+00    0.165E+00
RMM:   2    -0.230584102198E+04   -0.42407E+00   -0.45899E+00  6189   0.100E+00    0.153E+00
RMM:   3    -0.230587650203E+04   -0.35480E-01   -0.49539E-01  5961   0.331E-01    0.140E+00
RMM:   4    -0.230586838104E+04    0.81210E-02   -0.48712E-02  6153   0.807E-02    0.627E-01
RMM:   5    -0.230586610603E+04    0.22750E-02   -0.99135E-03  5535   0.475E-02    0.386E-01
RMM:   6    -0.230586493277E+04    0.11733E-02   -0.41385E-03  4832   0.340E-02    0.122E-01
RMM:   7    -0.230586492488E+04    0.78964E-05   -0.61973E-04  4555   0.230E-02    0.621E-02
RMM:   8    -0.230586490362E+04    0.21259E-04   -0.13735E-04  3444   0.752E-03    0.261E-02
RMM:   9    -0.230586490172E+04    0.18940E-05   -0.38493E-05  2884   0.563E-03
  77 F= -.23262384E+04 E0= -.23262384E+04  d E =-.329731E-01  mag=     3.0000
       N       E                     dE             d eps       ncg     rms          rms(c)
DAV:   1    -0.230578539424E+04    0.79509E-01   -0.58290E+00  4476   0.196E+00    0.756E-01
RMM:   2    -0.230587166134E+04   -0.86267E-01   -0.95674E-01  6129   0.435E-01    0.424E-01
RMM:   3    -0.230588014263E+04   -0.84813E-02   -0.10282E-01  5688   0.147E-01    0.343E-01
RMM:   4    -0.230588068408E+04   -0.54145E-03   -0.10082E-02  5771   0.335E-02    0.329E-01
RMM:   5    -0.230588012492E+04    0.55916E-03   -0.21423E-03  5275   0.213E-02    0.225E-01
RMM:   6    -0.230587971807E+04    0.40686E-03   -0.86789E-04  4869   0.159E-02    0.457E-02
RMM:   7    -0.230587972388E+04   -0.58089E-05   -0.97596E-05  3200   0.103E-02
  78 F= -.23262521E+04 E0= -.23262521E+04  d E =-.137480E-01  mag=     3.0000
       N       E                     dE             d eps       ncg     rms          rms(c)
DAV:   1    -0.230567496327E+04    0.20475E+00   -0.12800E+01  4392   0.291E+00    0.112E+00
RMM:   2    -0.230586713368E+04   -0.19217E+00   -0.21279E+00  6139   0.650E-01    0.682E-01
RMM:   3    -0.230588697907E+04   -0.19845E-01   -0.23944E-01  5793   0.224E-01    0.622E-01
RMM:   4    -0.230588719517E+04   -0.21610E-03   -0.22945E-02  6174   0.512E-02    0.482E-01
RMM:   5    -0.230588571777E+04    0.14774E-02   -0.47210E-03  5559   0.307E-02    0.292E-01
RMM:   6    -0.230588497093E+04    0.74684E-03   -0.20756E-03  4865   0.235E-02    0.738E-02
RMM:   7    -0.230588497249E+04   -0.15623E-05   -0.30103E-04  4032   0.161E-02    0.355E-02
RMM:   8    -0.230588496953E+04    0.29599E-05   -0.72572E-05  3101   0.552E-03
  79 F= -.23262556E+04 E0= -.23262556E+04  d E =-.172407E-01  mag=     3.0000
       N       E                     dE             d eps       ncg     rms          rms(c)
DAV:   1    -0.230576168254E+04    0.12329E+00   -0.82687E+00  4456   0.231E+00    0.904E-01
RMM:   2    -0.230589202646E+04   -0.13034E+00   -0.14348E+00  6242   0.519E-01    0.493E-01
RMM:   3    -0.230590503509E+04   -0.13009E-01   -0.16069E-01  5663   0.174E-01    0.363E-01
RMM:   4    -0.230590536642E+04   -0.33133E-03   -0.15055E-02  5654   0.403E-02    0.275E-01
RMM:   5    -0.230590568345E+04   -0.31703E-03   -0.32723E-03  5405   0.253E-02    0.365E-01
RMM:   6    -0.230590458371E+04    0.10997E-02   -0.13462E-03  5193   0.180E-02    0.646E-02
RMM:   7    -0.230590460614E+04   -0.22424E-04   -0.24293E-04  3670   0.927E-03    0.330E-02
RMM:   8    -0.230590460974E+04   -0.35996E-05   -0.40175E-05  2860   0.553E-03
  80 F= -.23262734E+04 E0= -.23262734E+04  d E =-.178040E-01  mag=     3.0000
       N       E                     dE             d eps       ncg     rms          rms(c)
DAV:   1    -0.230564571674E+04    0.25889E+00   -0.15472E+01  4392   0.317E+00    0.124E+00
RMM:   2    -0.230589321992E+04   -0.24750E+00   -0.27182E+00  6253   0.720E-01    0.706E-01
RMM:   3    -0.230591774112E+04   -0.24521E-01   -0.30698E-01  5722   0.242E-01    0.554E-01
RMM:   4    -0.230591824763E+04   -0.50651E-03   -0.28239E-02  6031   0.559E-02    0.425E-01
RMM:   5    -0.230591787092E+04    0.37671E-03   -0.63675E-03  5616   0.334E-02    0.409E-01
RMM:   6    -0.230591635925E+04    0.15117E-02   -0.24184E-03  5416   0.244E-02    0.877E-02
RMM:   7    -0.230591639487E+04   -0.35615E-04   -0.42630E-04  4252   0.135E-02    0.435E-02
RMM:   8    -0.230591639427E+04    0.59292E-06   -0.81528E-05  2962   0.688E-03
  81 F= -.23262826E+04 E0= -.23262826E+04  d E =-.269926E-01  mag=     3.0000
       N       E                     dE             d eps       ncg     rms          rms(c)
DAV:   1    -0.230583875383E+04    0.77641E-01   -0.61952E+00  4476   0.223E+00    0.901E-01
RMM:   2    -0.230593360157E+04   -0.94848E-01   -0.10422E+00  6069   0.507E-01    0.415E-01
RMM:   3    -0.230594224269E+04   -0.86411E-02   -0.11321E-01  5486   0.176E-01    0.314E-01
RMM:   4    -0.230594231372E+04   -0.71034E-04   -0.11748E-02  5616   0.434E-02    0.274E-01
RMM:   5    -0.230594209038E+04    0.22335E-03   -0.24583E-03  5310   0.251E-02    0.228E-01
RMM:   6    -0.230594162158E+04    0.46879E-03   -0.92554E-04  5282   0.176E-02    0.694E-02
RMM:   7    -0.230594159814E+04    0.23448E-04   -0.14918E-04  3550   0.102E-02    0.299E-02
RMM:   8    -0.230594160332E+04   -0.51859E-05   -0.44009E-05  2950   0.517E-03
  82 F= -.23263063E+04 E0= -.23263063E+04  d E =-.236827E-01  mag=     3.0000
       N       E                     dE             d eps       ncg     rms          rms(c)
DAV:   1    -0.230591922389E+04    0.22374E-01   -0.15752E+00  4496   0.112E+00    0.457E-01
RMM:   2    -0.230594338094E+04   -0.24157E-01   -0.26523E-01  6096   0.253E-01    0.211E-01
RMM:   3    -0.230594553002E+04   -0.21491E-02   -0.27553E-02  5532   0.881E-02    0.166E-01
RMM:   4    -0.230594557107E+04   -0.41049E-04   -0.29783E-03  5094   0.217E-02    0.160E-01
RMM:   5    -0.230594538906E+04    0.18200E-03   -0.62997E-04  4526   0.140E-02    0.824E-02
RMM:   6    -0.230594532503E+04    0.64033E-04   -0.19130E-04  4522   0.929E-03    0.280E-02
RMM:   7    -0.230594532238E+04    0.26515E-05   -0.30929E-05  2846   0.638E-03
  83 F= -.23263093E+04 E0= -.23263093E+04  d E =-.266460E-01  mag=     3.0000
       N       E                     dE             d eps       ncg     rms          rms(c)
DAV:   1    -0.230584458401E+04    0.10074E+00   -0.65728E+00  4392   0.226E+00    0.902E-01
RMM:   2    -0.230595680952E+04   -0.11223E+00   -0.12181E+00  6177   0.529E-01    0.450E-01
RMM:   3    -0.230596840232E+04   -0.11593E-01   -0.13705E-01  5763   0.180E-01    0.416E-01
RMM:   4    -0.230596766551E+04    0.73681E-03   -0.12878E-02  5994   0.416E-02    0.286E-01
RMM:   5    -0.230596708625E+04    0.57926E-03   -0.25179E-03  5259   0.243E-02    0.169E-01
RMM:   6    -0.230596684329E+04    0.24296E-03   -0.10458E-03  5158   0.179E-02    0.706E-02
RMM:   7    -0.230596681413E+04    0.29161E-04   -0.15168E-04  3661   0.111E-02    0.351E-02
RMM:   8    -0.230596681131E+04    0.28132E-05   -0.68327E-05  3023   0.557E-03
  84 F= -.23263295E+04 E0= -.23263295E+04  d E =-.202296E-01  mag=     3.0000
       N       E                     dE             d eps       ncg     rms          rms(c)
DAV:   1    -0.230592233799E+04    0.44476E-01   -0.26190E+00  4448   0.143E+00    0.571E-01
RMM:   2    -0.230596709167E+04   -0.44754E-01   -0.48536E-01  6187   0.333E-01    0.286E-01
RMM:   3    -0.230597162532E+04   -0.45337E-02   -0.53702E-02  5765   0.114E-01    0.252E-01
RMM:   4    -0.230597140465E+04    0.22067E-03   -0.52552E-03  5499   0.268E-02    0.180E-01
RMM:   5    -0.230597116927E+04    0.23538E-03   -0.10311E-03  4688   0.166E-02    0.101E-01
RMM:   6    -0.230597107650E+04    0.92772E-04   -0.37631E-04  4838   0.117E-02    0.403E-02
RMM:   7    -0.230597106553E+04    0.10972E-04   -0.54589E-05  2904   0.783E-03    0.200E-02
RMM:   8    -0.230597106469E+04    0.83332E-06   -0.26853E-05  2853   0.425E-03
  85 F= -.23263330E+04 E0= -.23263330E+04  d E =-.237239E-01  mag=     3.0000
       N       E                     dE             d eps       ncg     rms          rms(c)
DAV:   1    -0.230586795666E+04    0.10311E+00   -0.65383E+00  4392   0.225E+00    0.871E-01
RMM:   2    -0.230598235804E+04   -0.11440E+00   -0.12275E+00  6260   0.512E-01    0.511E-01
RMM:   3    -0.230599488235E+04   -0.12524E-01   -0.13826E-01  5926   0.176E-01    0.491E-01
RMM:   4    -0.230599307924E+04    0.18031E-02   -0.13243E-02  6019   0.421E-02    0.256E-01
RMM:   5    -0.230599252139E+04    0.55786E-03   -0.21886E-03  5139   0.231E-02    0.147E-01
RMM:   6    -0.230599235858E+04    0.16281E-03   -0.10886E-03  5039   0.177E-02    0.607E-02
RMM:   7    -0.230599233936E+04    0.19216E-04   -0.12643E-04  3374   0.108E-02    0.289E-02
RMM:   8    -0.230599233707E+04    0.22898E-05   -0.52836E-05  2887   0.467E-03
  86 F= -.23263534E+04 E0= -.23263534E+04  d E =-.204388E-01  mag=     3.0000
       N       E                     dE             d eps       ncg     rms          rms(c)
DAV:   1    -0.230557645429E+04    0.41589E+00   -0.22149E+01  4392   0.416E+00    0.159E+00
RMM:   2    -0.230596951060E+04   -0.39306E+00   -0.42359E+00  6269   0.951E-01    0.846E-01
RMM:   3    -0.230601278178E+04   -0.43271E-01   -0.48974E-01  5827   0.325E-01    0.738E-01
RMM:   4    -0.230600984721E+04    0.29346E-02   -0.44548E-02  6151   0.761E-02    0.479E-01
RMM:   5    -0.230600818960E+04    0.16576E-02   -0.73745E-03  5585   0.396E-02    0.317E-01
RMM:   6    -0.230600721428E+04    0.97532E-03   -0.41827E-03  5118   0.326E-02    0.130E-01
RMM:   7    -0.230600714745E+04    0.66829E-04   -0.52362E-04  4605   0.198E-02    0.576E-02
RMM:   8    -0.230600713488E+04    0.12570E-04   -0.18531E-04  3451   0.784E-03    0.331E-02
RMM:   9    -0.230600714050E+04   -0.56115E-05   -0.88403E-05  2952   0.652E-03
  87 F= -.23263669E+04 E0= -.23263669E+04  d E =-.338646E-01  mag=     3.0000
       N       E                     dE             d eps       ncg     rms          rms(c)
DAV:   1    -0.230594972931E+04    0.57406E-01   -0.36859E+00  4496   0.170E+00    0.647E-01
RMM:   2    -0.230601390107E+04   -0.64172E-01   -0.68521E-01  6254   0.388E-01    0.385E-01
RMM:   3    -0.230602048752E+04   -0.65864E-02   -0.76205E-02  5904   0.131E-01    0.324E-01
RMM:   4    -0.230601972830E+04    0.75921E-03   -0.75075E-03  5643   0.311E-02    0.185E-01
RMM:   5    -0.230601940077E+04    0.32753E-03   -0.11007E-03  4674   0.178E-02    0.101E-01
RMM:   6    -0.230601932872E+04    0.72051E-04   -0.61029E-04  4944   0.144E-02    0.362E-02
RMM:   7    -0.230601932391E+04    0.48089E-05   -0.55330E-05  2960   0.780E-03
  88 F= -.23263785E+04 E0= -.23263785E+04  d E =-.116302E-01  mag=     3.0000
       N       E                     dE             d eps       ncg     rms          rms(c)
DAV:   1    -0.230589730704E+04    0.12202E+00   -0.67525E+00  4392   0.231E+00    0.874E-01
RMM:   2    -0.230601548904E+04   -0.11818E+00   -0.12665E+00  6259   0.525E-01    0.505E-01
RMM:   3    -0.230602795902E+04   -0.12470E-01   -0.14213E-01  5925   0.177E-01    0.434E-01
RMM:   4    -0.230602661136E+04    0.13477E-02   -0.13931E-02  5988   0.420E-02    0.251E-01
RMM:   5    -0.230602603145E+04    0.57990E-03   -0.20411E-03  5069   0.226E-02    0.146E-01
RMM:   6    -0.230602584792E+04    0.18353E-03   -0.12014E-03  5127   0.189E-02    0.536E-02
RMM:   7    -0.230602583222E+04    0.15702E-04   -0.12730E-04  3580   0.107E-02    0.247E-02
RMM:   8    -0.230602582399E+04    0.82275E-05   -0.47863E-05  2862   0.472E-03
  89 F= -.23263843E+04 E0= -.23263843E+04  d E =-.174293E-01  mag=     3.0000
       N       E                     dE             d eps       ncg     rms          rms(c)
DAV:   1    -0.230602933212E+04   -0.34999E-02   -0.37136E-01  4624   0.601E-01    0.231E-01
RMM:   2    -0.230603427613E+04   -0.49440E-02   -0.52522E-02  6023   0.135E-01    0.146E-01
RMM:   3    -0.230603454880E+04   -0.27267E-03   -0.50561E-03  5631   0.475E-02    0.119E-01
RMM:   4    -0.230603438804E+04    0.16076E-03   -0.64406E-04  4284   0.127E-02    0.556E-02
RMM:   5    -0.230603434913E+04    0.38906E-04   -0.15857E-04  3952   0.101E-02    0.256E-02
RMM:   6    -0.230603434464E+04    0.44944E-05   -0.46168E-05  2972   0.678E-03
  90 F= -.23263927E+04 E0= -.23263927E+04  d E =-.842015E-02  mag=     3.0000
       N       E                     dE             d eps       ncg     rms          rms(c)
DAV:   1    -0.230601023807E+04    0.24111E-01   -0.21172E+00  4396   0.143E+00    0.553E-01
RMM:   2    -0.230603860506E+04   -0.28367E-01   -0.30157E-01  6019   0.324E-01    0.348E-01
RMM:   3    -0.230604014869E+04   -0.15436E-02   -0.29849E-02  5800   0.110E-01    0.286E-01
RMM:   4    -0.230603922490E+04    0.92379E-03   -0.36593E-03  5647   0.295E-02    0.134E-01
RMM:   5    -0.230603900442E+04    0.22049E-03   -0.10187E-03  5108   0.221E-02    0.622E-02
RMM:   6    -0.230603897428E+04    0.30142E-04   -0.25831E-04  4679   0.122E-02    0.305E-02
RMM:   7    -0.230603896488E+04    0.93987E-05   -0.41032E-05  3142   0.658E-03
  91 F= -.23263971E+04 E0= -.23263971E+04  d E =-.128102E-01  mag=     3.0000
       N       E                     dE             d eps       ncg     rms          rms(c)
DAV:   1    -0.230603739619E+04    0.15781E-02   -0.18644E-01  4560   0.425E-01    0.163E-01
RMM:   2    -0.230603985031E+04   -0.24541E-02   -0.26098E-02  6088   0.949E-02    0.978E-02
RMM:   3    -0.230603999323E+04   -0.14292E-03   -0.24635E-03  5250   0.330E-02    0.812E-02
RMM:   4    -0.230603991635E+04    0.76880E-04   -0.30309E-04  3279   0.913E-03    0.389E-02
RMM:   5    -0.230603989991E+04    0.16445E-04   -0.72398E-05  3230   0.742E-03    0.168E-02
RMM:   6    -0.230603990067E+04   -0.76547E-06   -0.22229E-05  2840   0.577E-03
  92 F= -.23263981E+04 E0= -.23263981E+04  d E =-.138129E-01  mag=     3.0000
       N       E                     dE             d eps       ncg     rms          rms(c)
DAV:   1    -0.230603710352E+04    0.27964E-02   -0.56086E-01  4432   0.745E-01    0.277E-01
RMM:   2    -0.230604624168E+04   -0.91382E-02   -0.94754E-02  6108   0.169E-01    0.202E-01
RMM:   3    -0.230604662589E+04   -0.38421E-03   -0.91368E-03  5654   0.630E-02    0.131E-01
RMM:   4    -0.230604643216E+04    0.19373E-03   -0.10680E-03  4715   0.144E-02    0.592E-02
RMM:   5    -0.230604637121E+04    0.60951E-04   -0.16428E-04  4033   0.964E-03    0.302E-02
RMM:   6    -0.230604635835E+04    0.12858E-04   -0.71257E-05  3526   0.764E-03    0.114E-02
RMM:   7    -0.230604635638E+04    0.19693E-05   -0.14102E-05  2842   0.546E-03
  93 F= -.23264046E+04 E0= -.23264046E+04  d E =-.652107E-02  mag=     3.0000
       N       E                     dE             d eps       ncg     rms          rms(c)
DAV:   1    -0.230602703363E+04    0.19325E-01   -0.13826E+00  4400   0.117E+00    0.436E-01
RMM:   2    -0.230604966386E+04   -0.22630E-01   -0.23500E-01  6024   0.266E-01    0.318E-01
RMM:   3    -0.230605056226E+04   -0.89839E-03   -0.22948E-02  5710   0.987E-02    0.203E-01
RMM:   4    -0.230605010602E+04    0.45624E-03   -0.26693E-03  5464   0.225E-02    0.935E-02
RMM:   5    -0.230604995326E+04    0.15276E-03   -0.43652E-04  4710   0.144E-02    0.475E-02
RMM:   6    -0.230604991891E+04    0.34343E-04   -0.17341E-04  4342   0.105E-02    0.189E-02
RMM:   7    -0.230604991251E+04    0.63992E-05   -0.29285E-05  2957   0.663E-03
  94 F= -.23264083E+04 E0= -.23264083E+04  d E =-.101885E-01  mag=     3.0000
       N       E                     dE             d eps       ncg     rms          rms(c)
DAV:   1    -0.230604808855E+04    0.18304E-02   -0.49485E-01  4496   0.702E-01    0.236E-01
RMM:   2    -0.230605566185E+04   -0.75733E-02   -0.77392E-02  6106   0.149E-01    0.200E-01
RMM:   3    -0.230605586444E+04   -0.20260E-03   -0.73544E-03  5486   0.510E-02    0.105E-01
RMM:   4    -0.230605576600E+04    0.98441E-04   -0.85756E-04  3876   0.119E-02    0.541E-02
RMM:   5    -0.230605573670E+04    0.29306E-04   -0.79584E-05  3118   0.768E-03    0.347E-02
RMM:   6    -0.230605573422E+04    0.24823E-05   -0.78113E-05  3368   0.764E-03
  95 F= -.23264141E+04 E0= -.23264141E+04  d E =-.578707E-02  mag=     3.0000
       N       E                     dE             d eps       ncg     rms          rms(c)
DAV:   1    -0.230599658491E+04    0.59152E-01   -0.44457E+00  4392   0.211E+00    0.709E-01
RMM:   2    -0.230606466974E+04   -0.68085E-01   -0.69732E-01  6085   0.445E-01    0.596E-01
RMM:   3    -0.230606652050E+04   -0.18508E-02   -0.68102E-02  5766   0.151E-01    0.314E-01
RMM:   4    -0.230606564429E+04    0.87621E-03   -0.77482E-03  5592   0.350E-02    0.160E-01
RMM:   5    -0.230606535603E+04    0.28826E-03   -0.80328E-04  4845   0.199E-02    0.101E-01
RMM:   6    -0.230606530318E+04    0.52855E-04   -0.58930E-04  4634   0.180E-02    0.435E-02
RMM:   7    -0.230606529969E+04    0.34832E-05   -0.11293E-04  3366   0.945E-03    0.242E-02
RMM:   8    -0.230606529576E+04    0.39307E-05   -0.29757E-05  2845   0.470E-03
  96 F= -.23264236E+04 E0= -.23264236E+04  d E =-.152651E-01  mag=     3.0000
       N       E                     dE             d eps       ncg     rms          rms(c)
DAV:   1    -0.230605466346E+04    0.10636E-01   -0.12588E+00  4400   0.110E+00    0.378E-01
RMM:   2    -0.230607510974E+04   -0.20446E-01   -0.21248E-01  6041   0.234E-01    0.281E-01
RMM:   3    -0.230607616927E+04   -0.10595E-02   -0.19573E-02  5688   0.797E-02    0.187E-01
RMM:   4    -0.230607589516E+04    0.27411E-03   -0.22185E-03  5113   0.184E-02    0.112E-01
RMM:   5    -0.230607581719E+04    0.77968E-04   -0.26030E-04  4060   0.114E-02    0.828E-02
[...]
 171 F= -.23267392E+04 E0= -.23267392E+04  d E =-.283197E-02  mag=     3.0000
       N       E                     dE             d eps       ncg     rms          rms(c)
DAV:   1    -0.230641101899E+04    0.14927E-02   -0.69939E-01  4400   0.825E-01    0.227E-01
RMM:   2    -0.230641467069E+04   -0.36517E-02   -0.40146E-02  5663   0.144E-01    0.112E-01
RMM:   3    -0.230641472405E+04   -0.53362E-04   -0.32972E-03  4869   0.515E-02    0.848E-02
RMM:   4    -0.230641472615E+04   -0.20987E-05   -0.51956E-04  4527   0.146E-02    0.890E-02
RMM:   5    -0.230641462842E+04    0.97731E-04   -0.24078E-04  4316   0.119E-02    0.221E-02
RMM:   6    -0.230641462857E+04   -0.14990E-06   -0.32391E-05  2875   0.648E-03
 172 F= -.23267411E+04 E0= -.23267411E+04  d E =-.193339E-02  mag=     3.0000
       N       E                     dE             d eps       ncg     rms          rms(c)
DAV:   1    -0.230641438282E+04    0.24559E-03   -0.76194E-02  4592   0.273E-01    0.764E-02
RMM:   2    -0.230641479144E+04   -0.40862E-03   -0.44740E-03  5834   0.484E-02    0.377E-02
RMM:   3    -0.230641479236E+04   -0.92221E-06   -0.33837E-04  3738   0.172E-02    0.241E-02
RMM:   4    -0.230641478706E+04    0.53021E-05   -0.61351E-05  3035   0.590E-03
 173 F= -.23267412E+04 E0= -.23267412E+04  d E =-.202965E-02  mag=     3.0000
       N       E                     dE             d eps       ncg     rms          rms(c)
DAV:   1    -0.230641405869E+04    0.73368E-03   -0.54498E-01  4400   0.740E-01    0.193E-01
RMM:   2    -0.230641670440E+04   -0.26457E-02   -0.28887E-02  5639   0.126E-01    0.105E-01
RMM:   3    -0.230641675441E+04   -0.50008E-04   -0.23140E-03  5031   0.481E-02    0.989E-02
RMM:   4    -0.230641667378E+04    0.80625E-04   -0.33850E-04  4095   0.121E-02    0.616E-02
RMM:   5    -0.230641662481E+04    0.48974E-04   -0.19639E-04  4210   0.113E-02    0.165E-02
RMM:   6    -0.230641662484E+04   -0.25990E-07   -0.19271E-05  2853   0.696E-03
 174 F= -.23267430E+04 E0= -.23267430E+04  d E =-.175361E-02  mag=     3.0000
       N       E                     dE             d eps       ncg     rms          rms(c)
DAV:   1    -0.230641564013E+04    0.98468E-03   -0.23865E-01  4416   0.490E-01    0.128E-01
RMM:   2    -0.230641680882E+04   -0.11687E-02   -0.12778E-02  5658   0.838E-02    0.648E-02
RMM:   3    -0.230641680721E+04    0.16180E-05   -0.90860E-04  4590   0.279E-02    0.481E-02
RMM:   4    -0.230641680660E+04    0.60612E-06   -0.16032E-04  3350   0.862E-03    0.506E-02
RMM:   5    -0.230641677550E+04    0.31099E-04   -0.84553E-05  3501   0.791E-03    0.130E-02
RMM:   6    -0.230641677543E+04    0.75874E-07   -0.13889E-05  2839   0.508E-03
 175 F= -.23267431E+04 E0= -.23267431E+04  d E =-.184950E-02  mag=     3.0000
       N       E                     dE             d eps       ncg     rms          rms(c)
DAV:   1    -0.230641627422E+04    0.50128E-03   -0.37299E-01  4400   0.616E-01    0.154E-01
RMM:   2    -0.230641812575E+04   -0.18515E-02   -0.20122E-02  5700   0.103E-01    0.764E-02
RMM:   3    -0.230641813059E+04   -0.48374E-05   -0.13981E-03  4819   0.338E-02    0.561E-02
RMM:   4    -0.230641813399E+04   -0.33980E-05   -0.23960E-04  3691   0.998E-03    0.602E-02
RMM:   5    -0.230641809170E+04    0.42289E-04   -0.11797E-04  3759   0.901E-03    0.162E-02
RMM:   6    -0.230641809136E+04    0.33787E-06   -0.18425E-05  2841   0.533E-03
 176 F= -.23267443E+04 E0= -.23267443E+04  d E =-.128057E-02  mag=     3.0000
       N       E                     dE             d eps       ncg     rms          rms(c)
DAV:   1    -0.230641551462E+04    0.25771E-02   -0.63527E-01  4396   0.804E-01    0.201E-01
RMM:   2    -0.230641867810E+04   -0.31635E-02   -0.34347E-02  5658   0.135E-01    0.100E-01
RMM:   3    -0.230641868037E+04   -0.22705E-05   -0.23677E-03  4998   0.433E-02    0.736E-02
RMM:   4    -0.230641868532E+04   -0.49430E-05   -0.40903E-04  4313   0.127E-02    0.783E-02
RMM:   5    -0.230641861285E+04    0.72470E-04   -0.19931E-04  4236   0.110E-02    0.207E-02
RMM:   6    -0.230641861152E+04    0.13223E-05   -0.28357E-05  2860   0.602E-03
 177 F= -.23267448E+04 E0= -.23267448E+04  d E =-.175568E-02  mag=     3.0000
       N       E                     dE             d eps       ncg     rms          rms(c)
DAV:   1    -0.230641794187E+04    0.67097E-03   -0.36793E-01  4400   0.617E-01    0.173E-01
RMM:   2    -0.230642008956E+04   -0.21477E-02   -0.23370E-02  5648   0.107E-01    0.798E-02
RMM:   3    -0.230642010292E+04   -0.13354E-04   -0.18192E-03  4861   0.377E-02    0.501E-02
RMM:   4    -0.230642008758E+04    0.15333E-04   -0.31845E-04  4302   0.122E-02    0.382E-02
RMM:   5    -0.230642008016E+04    0.74274E-05   -0.75570E-05  3022   0.857E-03
 178 F= -.23267464E+04 E0= -.23267464E+04  d E =-.154819E-02  mag=     3.0000
       N       E                     dE             d eps       ncg     rms          rms(c)
DAV:   1    -0.230641934841E+04    0.73917E-03   -0.14673E-01  4560   0.390E-01    0.110E-01
RMM:   2    -0.230642021015E+04   -0.86173E-03   -0.93669E-03  5677   0.696E-02    0.520E-02
RMM:   3    -0.230642022601E+04   -0.15863E-04   -0.80983E-04  4369   0.253E-02    0.345E-02
RMM:   4    -0.230642022451E+04    0.14970E-05   -0.12008E-04  3304   0.749E-03    0.342E-02
RMM:   5    -0.230642021434E+04    0.10169E-04   -0.46958E-05  2929   0.634E-03    0.168E-02
RMM:   6    -0.230642021170E+04    0.26394E-05   -0.10103E-05  2836   0.395E-03
 179 F= -.23267465E+04 E0= -.23267465E+04  d E =-.173031E-02  mag=     3.0000
       N       E                     dE             d eps       ncg     rms          rms(c)
DAV:   1    -0.230641939044E+04    0.82391E-03   -0.27070E-01  4400   0.535E-01    0.149E-01
RMM:   2    -0.230642128079E+04   -0.18904E-02   -0.20294E-02  5679   0.937E-02    0.716E-02
RMM:   3    -0.230642133693E+04   -0.56140E-04   -0.18215E-03  4794   0.364E-02    0.462E-02
RMM:   4    -0.230642133006E+04    0.68674E-05   -0.24213E-04  4017   0.997E-03    0.397E-02
RMM:   5    -0.230642132009E+04    0.99707E-05   -0.74382E-05  3068   0.793E-03
 180 F= -.23267478E+04 E0= -.23267478E+04  d E =-.121672E-02  mag=     3.0000
       N       E                     dE             d eps       ncg     rms          rms(c)
DAV:   1    -0.230642016663E+04    0.11634E-02   -0.17746E-01  4400   0.434E-01    0.122E-01
RMM:   2    -0.230642141575E+04   -0.12491E-02   -0.13423E-02  5676   0.773E-02    0.595E-02
RMM:   3    -0.230642146408E+04   -0.48336E-04   -0.13105E-03  4538   0.310E-02    0.379E-02
RMM:   4    -0.230642145747E+04    0.66115E-05   -0.16662E-04  3601   0.853E-03    0.277E-02
RMM:   5    -0.230642145528E+04    0.21973E-05   -0.45066E-05  2891   0.647E-03
 181 F= -.23267480E+04 E0= -.23267480E+04  d E =-.143992E-02  mag=     3.0000
       N       E                     dE             d eps       ncg     rms          rms(c)
DAV:   1    -0.230642067020E+04    0.78727E-03   -0.31560E-01  4396   0.587E-01    0.156E-01
RMM:   2    -0.230642259593E+04   -0.19257E-02   -0.20743E-02  5629   0.101E-01    0.749E-02
RMM:   3    -0.230642264409E+04   -0.48159E-04   -0.18393E-03  4808   0.408E-02    0.477E-02
RMM:   4    -0.230642263006E+04    0.14033E-04   -0.26031E-04  4194   0.108E-02    0.369E-02
RMM:   5    -0.230642262493E+04    0.51287E-05   -0.71347E-05  2957   0.831E-03
 182 F= -.23267492E+04 E0= -.23267492E+04  d E =-.126209E-02  mag=     3.0000
       N       E                     dE             d eps       ncg     rms          rms(c)
DAV:   1    -0.230642138153E+04    0.12485E-02   -0.22156E-01  4448   0.492E-01    0.132E-01
RMM:   2    -0.230642274421E+04   -0.13627E-02   -0.14677E-02  5625   0.851E-02    0.630E-02
RMM:   3    -0.230642277655E+04   -0.32344E-04   -0.12932E-03  4664   0.317E-02    0.401E-02
RMM:   4    -0.230642276098E+04    0.15569E-04   -0.18214E-04  3845   0.936E-03    0.220E-02
RMM:   5    -0.230642275923E+04    0.17504E-05   -0.32650E-05  2897   0.661E-03
 183 F= -.23267495E+04 E0= -.23267495E+04  d E =-.147395E-02  mag=     3.0000
       N       E                     dE             d eps       ncg     rms          rms(c)
DAV:   1    -0.230642235726E+04    0.40372E-03   -0.30211E-01  4428   0.569E-01    0.142E-01
RMM:   2    -0.230642398504E+04   -0.16278E-02   -0.17554E-02  5589   0.959E-02    0.740E-02
RMM:   3    -0.230642401003E+04   -0.24992E-04   -0.14060E-03  4779   0.376E-02    0.570E-02
RMM:   4    -0.230642400255E+04    0.74804E-05   -0.20828E-04  3537   0.958E-03    0.553E-02
RMM:   5    -0.230642396380E+04    0.38753E-04   -0.10481E-04  3650   0.866E-03    0.143E-02
RMM:   6    -0.230642396358E+04    0.21998E-06   -0.18440E-05  2849   0.569E-03
 184 F= -.23267507E+04 E0= -.23267507E+04  d E =-.125087E-02  mag=     3.0000
       N       E                     dE             d eps       ncg     rms          rms(c)
DAV:   1    -0.230642253175E+04    0.14321E-02   -0.32937E-01  4428   0.595E-01    0.148E-01
RMM:   2    -0.230642431295E+04   -0.17812E-02   -0.19176E-02  5603   0.996E-02    0.744E-02
RMM:   3    -0.230642431868E+04   -0.57342E-05   -0.14647E-03  4788   0.352E-02    0.480E-02
RMM:   4    -0.230642431563E+04    0.30492E-05   -0.26200E-04  4258   0.107E-02    0.516E-02
RMM:   5    -0.230642428751E+04    0.28116E-04   -0.87622E-05  3039   0.830E-03    0.212E-02
RMM:   6    -0.230642428367E+04    0.38416E-05   -0.16534E-05  2848   0.437E-03
 185 F= -.23267511E+04 E0= -.23267511E+04  d E =-.161974E-02  mag=     3.0000
       N       E                     dE             d eps       ncg     rms          rms(c)
DAV:   1    -0.230642369604E+04    0.59148E-03   -0.39487E-01  4396   0.653E-01    0.172E-01
RMM:   2    -0.230642557829E+04   -0.18823E-02   -0.20418E-02  5545   0.110E-01    0.883E-02
RMM:   3    -0.230642558567E+04   -0.73808E-05   -0.16237E-03  4881   0.448E-02    0.746E-02
RMM:   4    -0.230642554306E+04    0.42616E-04   -0.23476E-04  4062   0.107E-02    0.550E-02
RMM:   5    -0.230642550247E+04    0.40590E-04   -0.14514E-04  4083   0.103E-02    0.147E-02
RMM:   6    -0.230642550224E+04    0.22388E-06   -0.20968E-05  2858   0.578E-03
 186 F= -.23267523E+04 E0= -.23267523E+04  d E =-.126637E-02  mag=     3.0000
       N       E                     dE             d eps       ncg     rms          rms(c)
DAV:   1    -0.230642525314E+04    0.24933E-03   -0.65886E-02  4640   0.267E-01    0.706E-02
RMM:   2    -0.230642557534E+04   -0.32220E-03   -0.34899E-03  5615   0.461E-02    0.359E-02
RMM:   3    -0.230642557305E+04    0.22901E-05   -0.26140E-04  3674   0.169E-02    0.297E-02
RMM:   4    -0.230642556711E+04    0.59392E-05   -0.40137E-05  2861   0.513E-03
 187 F= -.23267524E+04 E0= -.23267524E+04  d E =-.135090E-02  mag=     3.0000
       N       E                     dE             d eps       ncg     rms          rms(c)
DAV:   1    -0.230642534913E+04    0.22391E-03   -0.22953E-01  4428   0.503E-01    0.143E-01
RMM:   2    -0.230642651715E+04   -0.11680E-02   -0.12436E-02  5596   0.856E-02    0.914E-02
RMM:   3    -0.230642653351E+04   -0.16365E-04   -0.10961E-03  4714   0.350E-02    0.862E-02
RMM:   4    -0.230642644591E+04    0.87603E-04   -0.15655E-04  3736   0.911E-03    0.352E-02
RMM:   5    -0.230642642740E+04    0.18510E-04   -0.91479E-05  3847   0.859E-03    0.974E-03
RMM:   6    -0.230642642760E+04   -0.19858E-06   -0.10710E-05  2846   0.524E-03
 188 F= -.23267533E+04 E0= -.23267533E+04  d E =-.865493E-03  mag=     3.0000
       N       E                     dE             d eps       ncg     rms          rms(c)
DAV:   1    -0.230642626466E+04    0.16274E-03   -0.48147E-02  4560   0.231E-01    0.654E-02
RMM:   2    -0.230642651763E+04   -0.25298E-03   -0.26768E-03  5741   0.404E-02    0.408E-02
RMM:   3    -0.230642651892E+04   -0.12856E-05   -0.21523E-04  3407   0.143E-02    0.384E-02
RMM:   4    -0.230642650192E+04    0.16999E-04   -0.31741E-05  2845   0.500E-03    0.165E-02
RMM:   5    -0.230642649759E+04    0.43328E-05   -0.21556E-05  2874   0.437E-03
 189 F= -.23267534E+04 E0= -.23267534E+04  d E =-.937778E-03  mag=     3.0000
       N       E                     dE             d eps       ncg     rms          rms(c)
DAV:   1    -0.230642557244E+04    0.92948E-03   -0.28534E-01  4396   0.560E-01    0.151E-01
RMM:   2    -0.230642737414E+04   -0.18017E-02   -0.18565E-02  5801   0.995E-02    0.113E-01
RMM:   3    -0.230642737215E+04    0.19950E-05   -0.15716E-03  4920   0.347E-02    0.875E-02
RMM:   4    -0.230642728086E+04    0.91290E-04   -0.19017E-04  3734   0.933E-03    0.382E-02
RMM:   5    -0.230642725642E+04    0.24432E-04   -0.10978E-04  3949   0.873E-03    0.120E-02
RMM:   6    -0.230642725678E+04   -0.35440E-06   -0.14843E-05  2863   0.579E-03
 190 F= -.23267542E+04 E0= -.23267542E+04  d E =-.865632E-03  mag=     3.0000
       N       E                     dE             d eps       ncg     rms          rms(c)
DAV:   1    -0.230642700843E+04    0.24799E-03   -0.42816E-02  4608   0.217E-01    0.591E-02
RMM:   2    -0.230642728465E+04   -0.27621E-03   -0.28388E-03  5956   0.392E-02    0.443E-02
RMM:   3    -0.230642728336E+04    0.12864E-05   -0.23462E-04  3279   0.132E-02    0.346E-02
RMM:   4    -0.230642726933E+04    0.14027E-04   -0.28751E-05  2845   0.468E-03    0.151E-02
RMM:   5    -0.230642726552E+04    0.38073E-05   -0.19386E-05  2872   0.396E-03
 191 F= -.23267543E+04 E0= -.23267543E+04  d E =-.915652E-03  mag=     3.0000
       N       E                     dE             d eps       ncg     rms          rms(c)
DAV:   1    -0.230642598410E+04    0.12852E-02   -0.32764E-01  4428   0.599E-01    0.164E-01
RMM:   2    -0.230642801956E+04   -0.20355E-02   -0.21216E-02  5825   0.105E-01    0.116E-01
RMM:   3    -0.230642804489E+04   -0.25335E-04   -0.18637E-03  5026   0.370E-02    0.956E-02
RMM:   4    -0.230642793761E+04    0.10728E-03   -0.22566E-04  3982   0.100E-02    0.408E-02
RMM:   5    -0.230642791128E+04    0.26330E-04   -0.11998E-04  3976   0.917E-03    0.126E-02
RMM:   6    -0.230642791188E+04   -0.59964E-06   -0.16629E-05  2865   0.586E-03
 192 F= -.23267551E+04 E0= -.23267551E+04  d E =-.847419E-03  mag=     3.0000
       N       E                     dE             d eps       ncg     rms          rms(c)
DAV:   1    -0.230642737371E+04    0.53757E-03   -0.72154E-02  4528   0.281E-01    0.775E-02
RMM:   2    -0.230642783031E+04   -0.45660E-03   -0.47453E-03  5943   0.501E-02    0.547E-02
RMM:   3    -0.230642783429E+04   -0.39767E-05   -0.40654E-04  3587   0.169E-02    0.457E-02
RMM:   4    -0.230642781012E+04    0.24164E-04   -0.48971E-05  2874   0.581E-03    0.195E-02
RMM:   5    -0.230642780425E+04    0.58706E-05   -0.31050E-05  2937   0.500E-03
 193 F= -.23267551E+04 E0= -.23267551E+04  d E =-.834186E-03  mag=     3.0000
       N       E                     dE             d eps       ncg     rms          rms(c)
DAV:   1    -0.230642701909E+04    0.79103E-03   -0.23917E-01  4428   0.506E-01    0.129E-01
RMM:   2    -0.230642838981E+04   -0.13707E-02   -0.14416E-02  5932   0.877E-02    0.891E-02
RMM:   3    -0.230642842885E+04   -0.39042E-04   -0.13021E-03  4755   0.301E-02    0.763E-02
RMM:   4    -0.230642836266E+04    0.66189E-04   -0.14758E-04  3142   0.844E-03    0.347E-02
RMM:   5    -0.230642834585E+04    0.16807E-04   -0.86749E-05  3740   0.761E-03    0.105E-02
RMM:   6    -0.230642834648E+04   -0.63200E-06   -0.11402E-05  2851   0.566E-03
 194 F= -.23267558E+04 E0= -.23267558E+04  d E =-.663885E-03  mag=     3.0000
       N       E                     dE             d eps       ncg     rms          rms(c)
DAV:   1    -0.230642744958E+04    0.89628E-03   -0.16703E-01  4428   0.423E-01    0.108E-01
RMM:   2    -0.230642841307E+04   -0.96350E-03   -0.10104E-02  5724   0.717E-02    0.755E-02
RMM:   3    -0.230642843465E+04   -0.21572E-04   -0.89722E-04  4242   0.253E-02    0.640E-02
RMM:   4    -0.230642838825E+04    0.46397E-04   -0.10353E-04  3002   0.724E-03    0.289E-02
RMM:   5    -0.230642837634E+04    0.11910E-04   -0.61158E-05  3390   0.652E-03    0.857E-03
RMM:   6    -0.230642837672E+04   -0.37902E-06   -0.88551E-06  2840   0.494E-03
 195 F= -.23267559E+04 E0= -.23267559E+04  d E =-.795915E-03  mag=     3.0000
       N       E                     dE             d eps       ncg     rms          rms(c)
DAV:   1    -0.230642815763E+04    0.21871E-03   -0.22803E-01  4396   0.500E-01    0.142E-01
RMM:   2    -0.230642933070E+04   -0.11731E-02   -0.12836E-02  5612   0.851E-02    0.752E-02
RMM:   3    -0.230642937058E+04   -0.39877E-04   -0.11484E-03  4751   0.303E-02    0.734E-02
RMM:   4    -0.230642931323E+04    0.57346E-04   -0.15551E-04  3478   0.866E-03    0.392E-02
RMM:   5    -0.230642929150E+04    0.21735E-04   -0.82649E-05  3736   0.807E-03    0.101E-02
RMM:   6    -0.230642929147E+04    0.24971E-07   -0.12763E-05  2850   0.545E-03
 196 F= -.23267568E+04 E0= -.23267568E+04  d E =-.925777E-03  mag=     3.0000
       N       E                     dE             d eps       ncg     rms          rms(c)
DAV:   1    -0.230642912043E+04    0.17107E-03   -0.47997E-02  4560   0.230E-01    0.653E-02
RMM:   2    -0.230642937193E+04   -0.25151E-03   -0.27440E-03  5613   0.396E-02    0.344E-02
RMM:   3    -0.230642937865E+04   -0.67162E-05   -0.24423E-04  3447   0.149E-02    0.334E-02
RMM:   4    -0.230642936697E+04    0.11677E-04   -0.33453E-05  2846   0.490E-03    0.184E-02
RMM:   5    -0.230642936176E+04    0.52144E-05   -0.18966E-05  2850   0.415E-03
 197 F= -.23267569E+04 E0= -.23267569E+04  d E =-.100126E-02  mag=     3.0000
       N       E                     dE             d eps       ncg     rms          rms(c)
DAV:   1    -0.230642893610E+04    0.43087E-03   -0.18651E-01  4428   0.451E-01    0.130E-01
RMM:   2    -0.230643005572E+04   -0.11196E-02   -0.12257E-02  5736   0.792E-02    0.616E-02
RMM:   3    -0.230643009989E+04   -0.44168E-04   -0.11261E-03  4579   0.307E-02    0.471E-02
RMM:   4    -0.230643009473E+04    0.51635E-05   -0.15409E-04  3195   0.824E-03    0.463E-02
RMM:   5    -0.230643006824E+04    0.26491E-04   -0.64716E-05  3261   0.718E-03    0.115E-02
RMM:   6    -0.230643006835E+04   -0.10824E-06   -0.13978E-05  2858   0.517E-03
 198 F= -.23267576E+04 E0= -.23267576E+04  d E =-.724503E-03  mag=     3.0000
       N       E                     dE             d eps       ncg     rms          rms(c)
DAV:   1    -0.230642983753E+04    0.23071E-03   -0.46372E-02  4528   0.225E-01    0.649E-02
RMM:   2    -0.230643012005E+04   -0.28252E-03   -0.30893E-03  5815   0.396E-02    0.304E-02
RMM:   3    -0.230643012806E+04   -0.80120E-05   -0.27771E-04  3386   0.146E-02    0.216E-02
RMM:   4    -0.230643012864E+04   -0.57482E-06   -0.40099E-05  2862   0.469E-03
 199 F= -.23267577E+04 E0= -.23267577E+04  d E =-.793867E-03  mag=     3.0000
       N       E                     dE             d eps       ncg     rms          rms(c)
DAV:   1    -0.230642927863E+04    0.84944E-03   -0.20719E-01  4428   0.475E-01    0.138E-01
RMM:   2    -0.230643069494E+04   -0.14163E-02   -0.15445E-02  5721   0.833E-02    0.665E-02
RMM:   3    -0.230643076155E+04   -0.66613E-04   -0.14942E-03  4707   0.337E-02    0.494E-02
RMM:   4    -0.230643076588E+04   -0.43241E-05   -0.20550E-04  3379   0.874E-03    0.539E-02
RMM:   5    -0.230643073035E+04    0.35532E-04   -0.67276E-05  3118   0.744E-03    0.137E-02
RMM:   6    -0.230643073061E+04   -0.26613E-06   -0.18690E-05  2858   0.520E-03
 200 F= -.23267584E+04 E0= -.23267584E+04  d E =-.680494E-03  mag=     3.0000
       N       E                     dE             d eps       ncg     rms          rms(c)
DAV:   1    -0.230643050926E+04    0.22109E-03   -0.30550E-02  4656   0.183E-01    0.530E-02
RMM:   2    -0.230643072320E+04   -0.21394E-03   -0.23222E-03  5969   0.341E-02    0.249E-02
RMM:   3    -0.230643073173E+04   -0.85286E-05   -0.21312E-04  3084   0.118E-02    0.163E-02
RMM:   4    -0.230643073253E+04   -0.79360E-06   -0.28048E-05  2859   0.399E-03
 201 F= -.23267584E+04 E0= -.23267584E+04  d E =-.712704E-03  mag=     3.0000
