       N       E                     dE             d eps       ncg     rms          rms(c)
DAV:   1     0.126717854844E+05    0.12672E+05   -0.83356E+05  4560   0.141E+03
DAV:   2    -0.113720937189E+04   -0.13809E+05   -0.13229E+05  5120   0.324E+02
DAV:   3    -0.248058323416E+04   -0.13434E+04   -0.13308E+04  5480   0.108E+02
DAV:   4    -0.251511263084E+04   -0.34529E+02   -0.34334E+02  5880   0.235E+01
DAV:   5    -0.251613302213E+04   -0.10204E+01   -0.10183E+01  5720   0.314E+00    0.170E+02
RMM:   6    -0.148125214672E+04    0.10349E+04   -0.18997E+03  4503   0.376E+01    0.726E+01
RMM:   7    -0.165598634127E+04   -0.17473E+03   -0.28373E+02  5114   0.146E+01    0.523E+01
RMM:   8    -0.170406988145E+04   -0.48084E+02   -0.63691E+01  5371   0.779E+00    0.445E+01
RMM:   9    -0.177304197268E+04   -0.68972E+02   -0.64891E+01  5021   0.742E+00    0.339E+01
RMM:  10    -0.190911897407E+04   -0.13608E+03   -0.61700E+01  5427   0.751E+00    0.304E+01
RMM:  11    -0.196835003761E+04   -0.59231E+02   -0.27063E+01  5590   0.446E+00    0.206E+01
RMM:  12    -0.206804210590E+04   -0.99692E+02   -0.42212E+01  4741   0.491E+00    0.142E+01
RMM:  13    -0.216744994562E+04   -0.99408E+02   -0.58294E+01  4692   0.574E+00    0.103E+01
RMM:  14    -0.227754313082E+04   -0.11009E+03   -0.10461E+02  4556   0.690E+00    0.676E+00
RMM:  15    -0.230037862082E+04   -0.22835E+02   -0.26064E+01  4573   0.426E+00    0.405E+00
RMM:  16    -0.230711806784E+04   -0.67394E+01   -0.98378E+00  4844   0.200E+00    0.232E+00
RMM:  17    -0.230956237506E+04   -0.24443E+01   -0.21801E+00  4953   0.116E+00    0.131E+00
RMM:  18    -0.231021799720E+04   -0.65562E+00   -0.46785E-01  5262   0.493E-01    0.756E-01
RMM:  19    -0.231046327422E+04   -0.24528E+00   -0.12443E-01  4919   0.240E-01    0.403E-01
RMM:  20    -0.231053740637E+04   -0.74132E-01   -0.40529E-02  4864   0.151E-01    0.229E-01
RMM:  21    -0.231056375403E+04   -0.26348E-01   -0.12961E-02  4645   0.928E-02    0.132E-01
RMM:  22    -0.231058016726E+04   -0.16413E-01   -0.59394E-03  4551   0.635E-02    0.838E-02
RMM:  23    -0.231059240658E+04   -0.12239E-01   -0.42756E-03  4511   0.544E-02    0.497E-02
RMM:  24    -0.231059940449E+04   -0.69979E-02   -0.24997E-03  4635   0.404E-02    0.409E-02
RMM:  25    -0.231060301657E+04   -0.36121E-02   -0.14670E-03  4589   0.287E-02    0.176E-02
RMM:  26    -0.231060394197E+04   -0.92540E-03   -0.38719E-04  4201   0.178E-02    0.101E-02
RMM:  27    -0.231060434113E+04   -0.39917E-03   -0.13549E-04  3774   0.909E-03    0.582E-03
RMM:  28    -0.231060448130E+04   -0.14016E-03   -0.35490E-05  3420   0.649E-03    0.372E-03
RMM:  29    -0.231060457106E+04   -0.89757E-04   -0.21940E-05  3200   0.413E-03    0.208E-03
RMM:  30    -0.231060460501E+04   -0.33951E-04   -0.96211E-06  2917   0.352E-03    0.126E-03
RMM:  31    -0.231060461367E+04   -0.86649E-05   -0.48481E-06  2574   0.251E-03
   1 F= -.23313994E+04 E0= -.23313994E+04  d E =-.385247E-05  mag=     3.0000
       N       E                     dE             d eps       ncg     rms          rms(c)
DAV:   1    -0.231059674129E+04    0.78637E-02   -0.20446E+00  4480   0.598E-01    0.304E-01
RMM:   2    -0.231059845917E+04   -0.17179E-02   -0.12981E-02  5014   0.503E-02    0.396E-01
RMM:   3    -0.231059667958E+04    0.17796E-02   -0.30502E-03  4842   0.284E-02    0.187E-01
RMM:   4    -0.231059635995E+04    0.31963E-03   -0.72988E-04  4270   0.126E-02    0.652E-02
RMM:   5    -0.231059636689E+04   -0.69407E-05   -0.18246E-04  3579   0.678E-03    0.549E-02
RMM:   6    -0.231059634186E+04    0.25032E-04   -0.53694E-05  2857   0.436E-03    0.216E-02
RMM:   7    -0.231059633957E+04    0.22947E-05   -0.11391E-05  2764   0.225E-03
   2 F= -.23313915E+04 E0= -.23313915E+04  d E =-.856856E-05  mag=     3.0000
       N       E                     dE             d eps       ncg     rms          rms(c)
DAV:   1    -0.231059870677E+04   -0.23649E-02   -0.81414E+00  4560   0.119E+00    0.610E-01
RMM:   2    -0.231060512752E+04   -0.64208E-02   -0.47070E-02  5462   0.103E-01    0.807E-01
RMM:   3    -0.231059833555E+04    0.67920E-02   -0.11180E-02  5766   0.515E-02    0.383E-01
RMM:   4    -0.231059720673E+04    0.11288E-02   -0.35815E-03  5060   0.249E-02    0.180E-01
RMM:   5    -0.231059726448E+04   -0.57754E-04   -0.12113E-03  4190   0.158E-02    0.179E-01
RMM:   6    -0.231059692423E+04    0.34025E-03   -0.39612E-04  3868   0.995E-03    0.440E-02
RMM:   7    -0.231059691442E+04    0.98140E-05   -0.60924E-05  3185   0.475E-03
   3 F= -.23313912E+04 E0= -.23313912E+04  d E =-.154971E-05  mag=     3.0000
       N       E                     dE             d eps       ncg     rms          rms(c)
DAV:   1    -0.231059650514E+04    0.41909E-03   -0.37650E+00  4480   0.847E-01    0.403E-01
RMM:   2    -0.231059804678E+04   -0.15416E-02   -0.17778E-02  4983   0.614E-02    0.402E-01
RMM:   3    -0.231059683764E+04    0.12091E-02   -0.46275E-03  5094   0.341E-02    0.302E-01
RMM:   4    -0.231059601281E+04    0.82483E-03   -0.12298E-03  4451   0.171E-02    0.111E-01
RMM:   5    -0.231059603849E+04   -0.25681E-04   -0.41286E-04  3542   0.964E-03    0.106E-01
RMM:   6    -0.231059592491E+04    0.11358E-03   -0.11440E-04  3151   0.590E-03    0.227E-02
RMM:   7    -0.231059592554E+04   -0.63200E-06   -0.23746E-05  2915   0.320E-03
   4 F= -.23313901E+04 E0= -.23313901E+04  d E =-.273447E-05  mag=     3.0000
       N       E                     dE             d eps       ncg     rms          rms(c)
DAV:   1    -0.231059730611E+04   -0.13812E-02   -0.74596E+00  4480   0.133E+00    0.609E-01
RMM:   2    -0.231059935472E+04   -0.20486E-02   -0.42674E-02  4961   0.105E-01    0.615E-01
RMM:   3    -0.231059706540E+04    0.22893E-02   -0.10238E-02  5108   0.531E-02    0.456E-01
RMM:   4    -0.231059531891E+04    0.17465E-02   -0.36390E-03  4890   0.263E-02    0.153E-01
RMM:   5    -0.231059546689E+04   -0.14798E-03   -0.12488E-03  4602   0.183E-02    0.176E-01
RMM:   6    -0.231059509203E+04    0.37486E-03   -0.33130E-04  3652   0.919E-03    0.365E-02
RMM:   7    -0.231059508566E+04    0.63668E-05   -0.60356E-05  3114   0.413E-03
   5 F= -.23313903E+04 E0= -.23313903E+04  d E =-.530787E-05  mag=     3.0000
       N       E                     dE             d eps       ncg     rms          rms(c)
DAV:   1    -0.231058868964E+04    0.64024E-02   -0.41912E+00  4480   0.993E-01    0.452E-01
RMM:   2    -0.231058968860E+04   -0.99896E-03   -0.29389E-02  4641   0.835E-02    0.409E-01
RMM:   3    -0.231058871614E+04    0.97246E-03   -0.49784E-03  4677   0.405E-02    0.366E-01
RMM:   4    -0.231058736534E+04    0.13508E-02   -0.27702E-03  4949   0.229E-02    0.903E-02
RMM:   5    -0.231058741274E+04   -0.47398E-04   -0.52296E-04  3977   0.116E-02    0.987E-02
RMM:   6    -0.231058729556E+04    0.11718E-03   -0.15714E-04  3221   0.660E-03    0.326E-02
RMM:   7    -0.231058727833E+04    0.17232E-04   -0.36923E-05  3025   0.345E-03    0.100E-02
RMM:   8    -0.231058727885E+04   -0.52011E-06   -0.46655E-06  2676   0.217E-03
   6 F= -.23313822E+04 E0= -.23313822E+04  d E =-.367974E-05  mag=     3.0000
       N       E                     dE             d eps       ncg     rms          rms(c)
DAV:   1    -0.231059034178E+04   -0.30635E-02   -0.82068E+00  4480   0.140E+00    0.603E-01
RMM:   2    -0.231058990791E+04    0.43388E-03   -0.43423E-02  4578   0.107E-01    0.376E-01
RMM:   3    -0.231059110187E+04   -0.11940E-02   -0.85153E-03  5095   0.521E-02    0.553E-01
RMM:   4    -0.231058826243E+04    0.28394E-02   -0.54341E-03  5216   0.297E-02    0.172E-01
RMM:   5    -0.231058809992E+04    0.16250E-03   -0.73076E-04  4113   0.133E-02    0.111E-01
RMM:   6    -0.231058797656E+04    0.12336E-03   -0.25988E-04  3450   0.791E-03    0.583E-02
RMM:   7    -0.231058793235E+04    0.44212E-04   -0.51762E-05  3190   0.457E-03    0.125E-02
RMM:   8    -0.231058793294E+04   -0.59215E-06   -0.10699E-05  2790   0.235E-03
   7 F= -.23313825E+04 E0= -.23313825E+04  d E =-.414249E-05  mag=     3.0000
       N       E                     dE             d eps       ncg     rms          rms(c)
DAV:   1    -0.231060331170E+04   -0.15379E-01   -0.25312E+00  4480   0.761E-01    0.388E-01
RMM:   2    -0.231060324455E+04    0.67155E-04   -0.17070E-02  4350   0.655E-02    0.263E-01
RMM:   3    -0.231060391506E+04   -0.67051E-03   -0.35309E-03  4753   0.325E-02    0.376E-01
RMM:   4    -0.231060239904E+04    0.15160E-02   -0.23075E-03  4959   0.220E-02    0.103E-01
RMM:   5    -0.231060228909E+04    0.10994E-03   -0.25518E-04  3623   0.785E-03    0.239E-02
RMM:   6    -0.231060228289E+04    0.62070E-05   -0.35017E-05  2961   0.357E-03
   8 F= -.23313971E+04 E0= -.23313971E+04  d E =-.358250E-05  mag=     3.0000
       N       E                     dE             d eps       ncg     rms          rms(c)
DAV:   1    -0.231060364025E+04   -0.13512E-02   -0.11862E+00  4680   0.459E-01    0.386E-01
RMM:   2    -0.231060374092E+04   -0.10066E-03   -0.82139E-03  4726   0.399E-02    0.321E-01
RMM:   3    -0.231060406898E+04   -0.32806E-03   -0.34961E-03  5140   0.294E-02    0.352E-01
RMM:   4    -0.231060280341E+04    0.12656E-02   -0.12534E-03  4679   0.189E-02    0.898E-02
RMM:   5    -0.231060278905E+04    0.14360E-04   -0.27026E-04  3418   0.798E-03    0.711E-02
RMM:   6    -0.231060274178E+04    0.47264E-04   -0.91183E-05  2934   0.579E-03    0.281E-02
RMM:   7    -0.231060273340E+04    0.83872E-05   -0.10176E-05  2647   0.243E-03
   9 F= -.23313974E+04 E0= -.23313974E+04  d E =-.386172E-05  mag=     3.0000
       N       E                     dE             d eps       ncg     rms          rms(c)
DAV:   1    -0.231060069740E+04    0.20444E-02   -0.59612E-01  4600   0.324E-01    0.274E-01
RMM:   2    -0.231060063704E+04    0.60360E-04   -0.27349E-03  4268   0.255E-02    0.194E-01
RMM:   3    -0.231060131233E+04   -0.67529E-03   -0.18458E-03  4792   0.204E-02    0.287E-01
RMM:   4    -0.231060037380E+04    0.93853E-03   -0.76235E-04  4390   0.142E-02    0.439E-02
RMM:   5    -0.231060037670E+04   -0.28955E-05   -0.13199E-04  3160   0.585E-03    0.537E-02
RMM:   6    -0.231060034565E+04    0.31049E-04   -0.33574E-05  2621   0.353E-03    0.992E-03
RMM:   7    -0.231060034464E+04    0.10119E-05   -0.59703E-06  2444   0.151E-03
  10 F= -.23313944E+04 E0= -.23313944E+04  d E =-.383970E-05  mag=     3.0000
       N       E                     dE             d eps       ncg     rms          rms(c)
DAV:   1    -0.231060213408E+04   -0.17884E-02   -0.12002E+00  5040   0.460E-01    0.473E-01
RMM:   2    -0.231059982880E+04    0.23053E-02   -0.11482E-02  4515   0.481E-02    0.272E-01
RMM:   3    -0.231059967841E+04    0.15038E-03   -0.25869E-03  4368   0.301E-02    0.251E-01
RMM:   4    -0.231059961920E+04    0.59210E-04   -0.18499E-03  4741   0.184E-02    0.234E-01
RMM:   5    -0.231059905109E+04    0.56811E-03   -0.48028E-04  3947   0.116E-02    0.400E-02
RMM:   6    -0.231059907828E+04   -0.27185E-04   -0.12077E-04  3042   0.569E-03    0.560E-02
RMM:   7    -0.231059903761E+04    0.40665E-04   -0.31239E-05  2650   0.381E-03    0.101E-02
RMM:   8    -0.231059903662E+04    0.99161E-06   -0.62727E-06  2474   0.174E-03
  11 F= -.23313945E+04 E0= -.23313945E+04  d E =-.389953E-05  mag=     3.0000
       N       E                     dE             d eps       ncg     rms          rms(c)
DAV:   1    -0.231059945472E+04   -0.41710E-03   -0.64422E-01  5040   0.347E-01    0.429E-01
RMM:   2    -0.231059682064E+04    0.26341E-02   -0.11595E-02  4627   0.447E-02    0.238E-01
RMM:   3    -0.231059628730E+04    0.53334E-03   -0.19397E-03  4033   0.270E-02    0.171E-01
RMM:   4    -0.231059660592E+04   -0.31862E-03   -0.14128E-03  4564   0.158E-02    0.238E-01
RMM:   5    -0.231059597964E+04    0.62628E-03   -0.49442E-04  3758   0.113E-02    0.289E-02
RMM:   6    -0.231059600247E+04   -0.22832E-04   -0.91842E-05  3013   0.494E-03    0.474E-02
RMM:   7    -0.231059597376E+04    0.28713E-04   -0.28838E-05  2609   0.359E-03    0.939E-03
RMM:   8    -0.231059597242E+04    0.13387E-05   -0.56253E-06  2443   0.165E-03
  12 F= -.23313906E+04 E0= -.23313906E+04  d E =-.355594E-05  mag=     3.0000
       N       E                     dE             d eps       ncg     rms          rms(c)
DAV:   1    -0.231060034970E+04   -0.43759E-02   -0.12329E+00  4960   0.470E-01    0.526E-01
RMM:   2    -0.231059694436E+04    0.34053E-02   -0.16728E-02  4572   0.551E-02    0.292E-01
RMM:   3    -0.231059606993E+04    0.87442E-03   -0.24305E-03  4101   0.329E-02    0.163E-01
RMM:   4    -0.231059621640E+04   -0.14646E-03   -0.13984E-03  4584   0.165E-02    0.180E-01
RMM:   5    -0.231059586453E+04    0.35187E-03   -0.48340E-04  3564   0.113E-02    0.429E-02
RMM:   6    -0.231059584677E+04    0.17760E-04   -0.35327E-05  2961   0.386E-03    0.151E-02
RMM:   7    -0.231059584918E+04   -0.24096E-05   -0.13976E-05  2676   0.256E-03
  13 F= -.23313908E+04 E0= -.23313908E+04  d E =-.434022E-05  mag=     3.0000
       N       E                     dE             d eps       ncg     rms          rms(c)
DAV:   1    -0.231060399845E+04   -0.81517E-02   -0.58218E-01  4600   0.373E-01    0.300E-01
RMM:   2    -0.231060360723E+04    0.39122E-03   -0.71596E-03  4410   0.428E-02    0.269E-01
RMM:   3    -0.231060352163E+04    0.85598E-04   -0.22692E-03  4673   0.254E-02    0.265E-01
RMM:   4    -0.231060273770E+04    0.78393E-03   -0.82191E-04  4372   0.139E-02    0.768E-02
RMM:   5    -0.231060268511E+04    0.52596E-04   -0.18137E-04  3855   0.649E-03    0.295E-02
RMM:   6    -0.231060269220E+04   -0.70953E-05   -0.50583E-05  2776   0.408E-03
  14 F= -.23313972E+04 E0= -.23313972E+04  d E =-.552104E-05  mag=     3.0000
       N       E                     dE             d eps       ncg     rms          rms(c)
DAV:   1    -0.231060343409E+04   -0.74898E-03   -0.11120E+00  4480   0.465E-01    0.317E-01
RMM:   2    -0.231060525080E+04   -0.18167E-02   -0.99075E-03  4971   0.481E-02    0.472E-01
RMM:   3    -0.231060271152E+04    0.25393E-02   -0.26954E-03  5179   0.265E-02    0.171E-01
RMM:   4    -0.231060240979E+04    0.30173E-03   -0.64464E-04  4491   0.116E-02    0.550E-02
RMM:   5    -0.231060239437E+04    0.15415E-04   -0.92214E-05  3470   0.527E-03    0.206E-02
RMM:   6    -0.231060239221E+04    0.21649E-05   -0.17156E-05  2748   0.312E-03
  15 F= -.23313974E+04 E0= -.23313974E+04  d E =-.302628E-05  mag=     3.0000
       N       E                     dE             d eps       ncg     rms          rms(c)
DAV:   1    -0.231060331168E+04   -0.91731E-03   -0.53880E-01  4480   0.338E-01    0.204E-01
RMM:   2    -0.231060469005E+04   -0.13784E-02   -0.56134E-03  4639   0.375E-02    0.350E-01
RMM:   3    -0.231060323750E+04    0.14526E-02   -0.12511E-03  4563   0.189E-02    0.100E-01
RMM:   4    -0.231060317173E+04    0.65770E-04   -0.22923E-04  3632   0.786E-03    0.502E-02
RMM:   5    -0.231060320134E+04   -0.29610E-04   -0.14989E-04  3323   0.594E-03    0.661E-02
RMM:   6    -0.231060314998E+04    0.51353E-04   -0.42371E-05  2759   0.411E-03    0.115E-02
RMM:   7    -0.231060314871E+04    0.12773E-05   -0.48719E-06  2484   0.166E-03
  16 F= -.23313987E+04 E0= -.23313987E+04  d E =-.166321E-05  mag=     3.0000
       N       E                     dE             d eps       ncg     rms          rms(c)
DAV:   1    -0.231060508323E+04   -0.19332E-02   -0.10427E+00  4480   0.460E-01    0.249E-01
RMM:   2    -0.231060571351E+04   -0.63028E-03   -0.65642E-03  4503   0.420E-02    0.257E-01
RMM:   3    -0.231060526198E+04    0.45153E-03   -0.16633E-03  4773   0.215E-02    0.187E-01
RMM:   4    -0.231060488997E+04    0.37200E-03   -0.38087E-04  4184   0.105E-02    0.637E-02
RMM:   5    -0.231060494750E+04   -0.57530E-04   -0.22743E-04  3306   0.733E-03    0.861E-02
RMM:   6    -0.231060486842E+04    0.79083E-04   -0.65380E-05  2905   0.496E-03    0.137E-02
RMM:   7    -0.231060486758E+04    0.84117E-06   -0.85653E-06  2709   0.216E-03
  17 F= -.23313987E+04 E0= -.23313987E+04  d E =-.853508E-05  mag=     3.0000
       N       E                     dE             d eps       ncg     rms          rms(c)
DAV:   1    -0.231060303959E+04    0.18288E-02   -0.53586E-01  4480   0.332E-01    0.158E-01
RMM:   2    -0.231060300624E+04    0.33352E-04   -0.24152E-03  3887   0.230E-02    0.988E-02
RMM:   3    -0.231060320763E+04   -0.20139E-03   -0.66463E-04  3805   0.155E-02    0.161E-01
RMM:   4    -0.231060290517E+04    0.30246E-03   -0.30368E-04  3820   0.868E-03    0.317E-02
RMM:   5    -0.231060290185E+04    0.33247E-05   -0.32332E-05  2839   0.333E-03
  18 F= -.23313975E+04 E0= -.23313975E+04  d E =-.661616E-05  mag=     3.0000
       N       E                     dE             d eps       ncg     rms          rms(c)
DAV:   1    -0.231060275790E+04    0.14727E-03   -0.10796E+00  4480   0.474E-01    0.220E-01
RMM:   2    -0.231060388775E+04   -0.11299E-02   -0.63514E-03  4442   0.416E-02    0.318E-01
RMM:   3    -0.231060279260E+04    0.10952E-02   -0.12610E-03  4369   0.203E-02    0.118E-01
RMM:   4    -0.231060270241E+04    0.90190E-04   -0.43889E-04  4269   0.961E-03    0.668E-02
RMM:   5    -0.231060270843E+04   -0.60171E-05   -0.18294E-04  3249   0.638E-03    0.631E-02
RMM:   6    -0.231060266337E+04    0.45058E-04   -0.30590E-05  2772   0.378E-03    0.106E-02
RMM:   7    -0.231060266255E+04    0.81424E-06   -0.65039E-06  2654   0.185E-03
  19 F= -.23313976E+04 E0= -.23313976E+04  d E =-.229073E-05  mag=     3.0000
       N       E                     dE             d eps       ncg     rms          rms(c)
DAV:   1    -0.231060362742E+04   -0.96405E-03   -0.56995E-01  4480   0.358E-01    0.185E-01
RMM:   2    -0.231060411076E+04   -0.48334E-03   -0.35352E-03  4433   0.323E-02    0.245E-01
RMM:   3    -0.231060350281E+04    0.60795E-03   -0.80411E-04  4334   0.151E-02    0.111E-01
RMM:   4    -0.231060339948E+04    0.10333E-03   -0.26687E-04  3989   0.813E-03    0.406E-02
RMM:   5    -0.231060340568E+04   -0.61996E-05   -0.64599E-05  3081   0.482E-03
  20 F= -.23313981E+04 E0= -.23313981E+04  d E =-.294972E-05  mag=     3.0000
       N       E                     dE             d eps       ncg     rms          rms(c)
DAV:   1    -0.231060450814E+04   -0.11087E-02   -0.12140E+00  4480   0.449E-01    0.299E-01
RMM:   2    -0.231060458027E+04   -0.72131E-04   -0.55735E-03  4761   0.358E-02    0.307E-01
RMM:   3    -0.231060402239E+04    0.55788E-03   -0.20272E-03  4735   0.211E-02    0.238E-01
RMM:   4    -0.231060348807E+04    0.53432E-03   -0.64837E-04  4583   0.127E-02    0.769E-02
RMM:   5    -0.231060354495E+04   -0.56883E-04   -0.26860E-04  3760   0.859E-03    0.965E-02
RMM:   6    -0.231060343074E+04    0.11421E-03   -0.12369E-04  3334   0.643E-03    0.211E-02
RMM:   7    -0.231060342548E+04    0.52607E-05   -0.14573E-05  2764   0.279E-03
  21 F= -.23313982E+04 E0= -.23313982E+04  d E =-.442155E-05  mag=     3.0000
       N       E                     dE             d eps       ncg     rms          rms(c)
DAV:   1    -0.231060459686E+04   -0.11661E-02   -0.60935E-01  4480   0.306E-01    0.207E-01
RMM:   2    -0.231060458498E+04    0.11883E-04   -0.23013E-03  4394   0.236E-02    0.172E-01
RMM:   3    -0.231060464620E+04   -0.61219E-04   -0.93531E-04  4494   0.142E-02    0.201E-01
RMM:   4    -0.231060422293E+04    0.42327E-03   -0.39521E-04  4136   0.987E-03    0.397E-02
RMM:   5    -0.231060423235E+04   -0.94252E-05   -0.93950E-05  3069   0.515E-03
  22 F= -.23313990E+04 E0= -.23313990E+04  d E =-.210371E-05  mag=     3.0000
       N       E                     dE             d eps       ncg     rms          rms(c)
DAV:   1    -0.231060487451E+04   -0.65158E-03   -0.12003E+00  4480   0.438E-01    0.302E-01
RMM:   2    -0.231060506506E+04   -0.19055E-03   -0.43990E-03  4503   0.312E-02    0.247E-01
RMM:   3    -0.231060513910E+04   -0.74038E-04   -0.19586E-03  4900   0.197E-02    0.255E-01
RMM:   4    -0.231060441850E+04    0.72060E-03   -0.99810E-04  4938   0.142E-02    0.832E-02
RMM:   5    -0.231060442756E+04   -0.90511E-05   -0.21743E-04  3379   0.739E-03    0.786E-02
RMM:   6    -0.231060435918E+04    0.68380E-04   -0.73235E-05  2947   0.502E-03    0.236E-02
RMM:   7    -0.231060435272E+04    0.64575E-05   -0.11198E-05  2754   0.243E-03
  23 F= -.23313990E+04 E0= -.23313990E+04  d E =-.606473E-05  mag=     3.0000
       N       E                     dE             d eps       ncg     rms          rms(c)
DAV:   1    -0.231059914220E+04    0.52170E-02   -0.61366E-01  4480   0.318E-01    0.265E-01
RMM:   2    -0.231060132337E+04   -0.21812E-02   -0.76330E-03  5333   0.428E-02    0.476E-01
RMM:   3    -0.231059864693E+04    0.26764E-02   -0.22778E-03  4949   0.242E-02    0.126E-01
RMM:   4    -0.231059858067E+04    0.66252E-04   -0.57798E-04  4480   0.114E-02    0.109E-01
RMM:   5    -0.231059849828E+04    0.82395E-04   -0.26965E-04  3456   0.749E-03    0.633E-02
RMM:   6    -0.231059845132E+04    0.46955E-04   -0.35766E-05  2909   0.402E-03    0.123E-02
RMM:   7    -0.231059844794E+04    0.33833E-05   -0.90550E-06  2731   0.223E-03
  24 F= -.23313934E+04 E0= -.23313934E+04  d E =-.527278E-05  mag=     3.0000
       N       E                     dE             d eps       ncg     rms          rms(c)
DAV:   1    -0.231060129403E+04   -0.28427E-02   -0.12132E+00  4480   0.473E-01    0.404E-01
RMM:   2    -0.231060772685E+04   -0.64328E-02   -0.20754E-02  5631   0.683E-02    0.794E-01
RMM:   3    -0.231059982067E+04    0.79062E-02   -0.55182E-03  5561   0.373E-02    0.177E-01
RMM:   4    -0.231059979932E+04    0.21352E-04   -0.15085E-03  5025   0.174E-02    0.197E-01
RMM:   5    -0.231059946318E+04    0.33614E-03   -0.81866E-04  4299   0.119E-02    0.974E-02
RMM:   6    -0.231059934488E+04    0.11829E-03   -0.10349E-04  3285   0.561E-03    0.141E-02
RMM:   7    -0.231059933913E+04    0.57567E-05   -0.18122E-05  2933   0.343E-03
  25 F= -.23313939E+04 E0= -.23313939E+04  d E =-.282171E-05  mag=     3.0000
