       N       E                     dE             d eps       ncg     rms          rms(c)
DAV:   1     0.131233485887E+05    0.13123E+05   -0.84153E+05  4536   0.144E+03
DAV:   2    -0.996425652003E+03   -0.14120E+05   -0.13486E+05  4920   0.331E+02
DAV:   3    -0.247470434827E+04   -0.14783E+04   -0.14595E+04  5520   0.115E+02
DAV:   4    -0.252142924889E+04   -0.46725E+02   -0.46465E+02  6736   0.297E+01
DAV:   5    -0.252232734467E+04   -0.89810E+00   -0.89619E+00  6328   0.352E+00    0.170E+02
RMM:   6    -0.149046568190E+04    0.10319E+04   -0.19510E+03  4460   0.382E+01    0.722E+01
RMM:   7    -0.166175031001E+04   -0.17128E+03   -0.29881E+02  5100   0.142E+01    0.467E+01
RMM:   8    -0.171970523361E+04   -0.57955E+02   -0.30552E+01  5420   0.642E+00    0.345E+01
RMM:   9    -0.187258879691E+04   -0.15288E+03   -0.77932E+01  4993   0.873E+00    0.304E+01
RMM:  10    -0.195642629781E+04   -0.83838E+02   -0.38451E+01  5086   0.593E+00    0.189E+01
RMM:  11    -0.206216802864E+04   -0.10574E+03   -0.46689E+01  4692   0.534E+00    0.167E+01
RMM:  12    -0.211031126304E+04   -0.48143E+02   -0.18576E+01  5230   0.366E+00    0.140E+01
RMM:  13    -0.225660441855E+04   -0.14629E+03   -0.13279E+02  4443   0.805E+00    0.771E+00
RMM:  14    -0.229558533765E+04   -0.38981E+02   -0.37815E+01  4490   0.441E+00    0.682E+00
RMM:  15    -0.230632152184E+04   -0.10736E+02   -0.12890E+01  5151   0.260E+00    0.463E+00
RMM:  16    -0.231400737435E+04   -0.76859E+01   -0.63715E+00  4564   0.158E+00    0.310E+00
RMM:  17    -0.231628273555E+04   -0.22754E+01   -0.17242E+00  4912   0.103E+00    0.497E+00
RMM:  18    -0.231632067191E+04   -0.37936E-01   -0.34479E-01  5708   0.327E-01    0.477E+00
RMM:  19    -0.231664985489E+04   -0.32918E+00   -0.31264E-01  4754   0.304E-01    0.418E+00
RMM:  20    -0.231728834138E+04   -0.63849E+00   -0.18229E+00  4450   0.583E-01    0.458E+00
RMM:  21    -0.231618469014E+04    0.11037E+01   -0.10474E+00  4550   0.440E-01    0.555E+00
RMM:  22    -0.231651821917E+04   -0.33353E+00   -0.84413E-02  5659   0.112E-01    0.545E+00
RMM:  23    -0.231650552830E+04    0.12691E-01   -0.10065E-02  5550   0.353E-02    0.544E+00
RMM:  24    -0.231494793306E+04    0.15576E+01   -0.11130E+00  4508   0.375E-01    0.639E+00
RMM:  25    -0.231584927765E+04   -0.90134E+00   -0.22731E-01  4641   0.161E-01    0.597E+00
RMM:  26    -0.231604919558E+04   -0.19992E+00   -0.43998E-02  4541   0.989E-02    0.549E+00
RMM:  27    -0.231845440494E+04   -0.24052E+01   -0.36262E+00  4490   0.700E-01    0.722E+00
RMM:  28    -0.231855121846E+04   -0.96814E-01   -0.30970E-01  4588   0.337E-01    0.664E+00
RMM:  29    -0.231848581078E+04    0.65408E-01   -0.26380E-01  4561   0.161E-01    0.659E+00
RMM:  30    -0.231843927944E+04    0.46531E-01   -0.38475E-02  4569   0.971E-02    0.661E+00
RMM:  31    -0.231836736493E+04    0.71915E-01   -0.15036E-01  4453   0.112E-01    0.613E+00
RMM:  32    -0.231833558551E+04    0.31779E-01   -0.28390E-01  4653   0.173E-01    0.561E+00
RMM:  33    -0.231808128062E+04    0.25430E+00   -0.25554E-01  4665   0.198E-01    0.468E+00
RMM:  34    -0.231827259679E+04   -0.19132E+00   -0.13634E-01  5167   0.165E-01    0.367E+00
RMM:  35    -0.231857972505E+04   -0.30713E+00   -0.22329E-01  4507   0.151E-01    0.276E+00
RMM:  36    -0.231893834822E+04   -0.35862E+00   -0.61825E-01  4601   0.244E-01    0.148E+00
RMM:  37    -0.231904063615E+04   -0.10229E+00   -0.12033E-01  4675   0.183E-01    0.978E-01
RMM:  38    -0.231911521056E+04   -0.74574E-01   -0.45069E-02  4631   0.105E-01    0.853E-01
RMM:  39    -0.231915948244E+04   -0.44272E-01   -0.33387E-02  4722   0.109E-01    0.514E-01
RMM:  40    -0.231917801559E+04   -0.18533E-01   -0.17130E-02  5319   0.694E-02    0.552E-01
RMM:  41    -0.231918965866E+04   -0.11643E-01   -0.55395E-03  4649   0.417E-02    0.546E-01
RMM:  42    -0.231920070977E+04   -0.11051E-01   -0.73007E-03  4538   0.463E-02    0.604E-01
RMM:  43    -0.231920997314E+04   -0.92634E-02   -0.95026E-03  4633   0.503E-02    0.809E-01
RMM:  44    -0.231921097098E+04   -0.99784E-03   -0.48064E-03  4806   0.421E-02    0.956E-01
RMM:  45    -0.231921133590E+04   -0.36491E-03   -0.28610E-04  4201   0.121E-02    0.929E-01
RMM:  46    -0.231921199931E+04   -0.66341E-03   -0.76948E-04  4052   0.129E-02    0.836E-01
RMM:  47    -0.231921820811E+04   -0.62088E-02   -0.13544E-02  4725   0.485E-02    0.466E-01
RMM:  48    -0.231922507472E+04   -0.68666E-02   -0.97434E-03  4651   0.482E-02    0.273E-01
RMM:  49    -0.231922764883E+04   -0.25741E-02   -0.16135E-03  4517   0.222E-02    0.257E-01
RMM:  50    -0.231923061102E+04   -0.29622E-02   -0.28893E-03  4343   0.233E-02    0.189E-01
RMM:  51    -0.231923234126E+04   -0.17302E-02   -0.14667E-03  4283   0.209E-02    0.150E-01
RMM:  52    -0.231923327472E+04   -0.93345E-03   -0.12567E-03  4353   0.175E-02    0.126E-01
RMM:  53    -0.231923360123E+04   -0.32651E-03   -0.54969E-04  3973   0.137E-02    0.131E-01
RMM:  54    -0.231923378469E+04   -0.18347E-03   -0.13256E-04  3537   0.698E-03    0.928E-02
RMM:  55    -0.231923385592E+04   -0.71226E-04   -0.60688E-05  2988   0.565E-03    0.627E-02
RMM:  56    -0.231923391274E+04   -0.56822E-04   -0.54469E-05  3025   0.459E-03    0.387E-02
RMM:  57    -0.231923393573E+04   -0.22992E-04   -0.95891E-05  2994   0.526E-03    0.745E-03
RMM:  58    -0.231923393694E+04   -0.12121E-05   -0.11384E-05  2840   0.358E-03
   1 F= -.23406586E+04 E0= -.23406586E+04  d E =-.234066E+04  mag=     3.9995
       N       E                     dE             d eps       ncg     rms          rms(c)
DAV:   1    -0.232025589786E+04   -0.10220E+01   -0.10293E+02  4608   0.849E+00    0.210E+00
RMM:   2    -0.232046225584E+04   -0.20636E+00   -0.24699E+00  4500   0.126E+00    0.112E+00
RMM:   3    -0.232043625350E+04    0.26002E-01   -0.94377E-02  4489   0.503E-01    0.763E-01
RMM:   4    -0.232045772848E+04   -0.21475E-01   -0.71535E-02  4670   0.189E-01    0.161E+00
RMM:   5    -0.232042965054E+04    0.28078E-01   -0.27300E-02  5661   0.147E-01    0.204E-01
RMM:   6    -0.232042907513E+04    0.57541E-03   -0.22475E-03  5454   0.339E-02    0.206E-01
RMM:   7    -0.232042842079E+04    0.65434E-03   -0.23557E-03  4945   0.305E-02    0.982E-02
RMM:   8    -0.232042846942E+04   -0.48638E-04   -0.44079E-04  4614   0.191E-02    0.992E-02
RMM:   9    -0.232042835241E+04    0.11702E-03   -0.16989E-04  3643   0.896E-03    0.304E-02
RMM:  10    -0.232042834821E+04    0.41958E-05   -0.79390E-05  3666   0.744E-03
   2 F= -.23418536E+04 E0= -.23418536E+04  d E =-.119504E+01  mag=     3.9999
       N       E                     dE             d eps       ncg     rms          rms(c)
DAV:   1    -0.232061578168E+04   -0.18743E+00   -0.88637E+01  4528   0.790E+00    0.200E+00
RMM:   2    -0.232077824120E+04   -0.16246E+00   -0.19924E+00  4493   0.106E+00    0.103E+00
RMM:   3    -0.232075720914E+04    0.21032E-01   -0.81169E-02  4485   0.441E-01    0.692E-01
RMM:   4    -0.232077557804E+04   -0.18369E-01   -0.60783E-02  4747   0.168E-01    0.148E+00
RMM:   5    -0.232075175633E+04    0.23822E-01   -0.22989E-02  5620   0.132E-01    0.186E-01
RMM:   6    -0.232075128970E+04    0.46663E-03   -0.18957E-03  5416   0.296E-02    0.193E-01
RMM:   7    -0.232075072749E+04    0.56221E-03   -0.18376E-03  4972   0.262E-02    0.844E-02
RMM:   8    -0.232075073036E+04   -0.28714E-05   -0.33099E-04  4584   0.163E-02    0.669E-02
RMM:   9    -0.232075068835E+04    0.42008E-04   -0.12481E-04  3254   0.767E-03    0.383E-02
RMM:  10    -0.232075067591E+04    0.12444E-04   -0.88373E-05  3716   0.741E-03    0.174E-02
RMM:  11    -0.232075066288E+04    0.13025E-04   -0.30443E-05  3120   0.636E-03    0.581E-03
RMM:  12    -0.232075066359E+04   -0.70457E-06   -0.25559E-05  3090   0.448E-03
   3 F= -.23421772E+04 E0= -.23421772E+04  d E =-.151869E+01  mag=     4.0000
       N       E                     dE             d eps       ncg     rms          rms(c)
DAV:   1    -0.232117029644E+04   -0.41963E+00   -0.14890E+02  4536   0.103E+01    0.340E+00
RMM:   2    -0.232141557512E+04   -0.24528E+00   -0.33872E+00  4508   0.144E+00    0.142E+00
RMM:   3    -0.232135946793E+04    0.56107E-01   -0.17865E-01  4486   0.639E-01    0.865E-01
RMM:   4    -0.232138034614E+04   -0.20878E-01   -0.16952E-01  4564   0.270E-01    0.176E+00
RMM:   5    -0.232134342137E+04    0.36925E-01   -0.30887E-02  4947   0.189E-01    0.232E-01
RMM:   6    -0.232134195391E+04    0.14675E-02   -0.35138E-03  5874   0.351E-02    0.170E-01
RMM:   7    -0.232134150597E+04    0.44794E-03   -0.26271E-03  4946   0.323E-02    0.172E-01
RMM:   8    -0.232134117905E+04    0.32692E-03   -0.10842E-03  5346   0.265E-02    0.145E-01
RMM:   9    -0.232134089810E+04    0.28094E-03   -0.37431E-04  4595   0.131E-02    0.780E-02
RMM:  10    -0.232134073783E+04    0.16027E-03   -0.32916E-04  4539   0.125E-02    0.237E-02
RMM:  11    -0.232134068657E+04    0.51265E-04   -0.84742E-05  4154   0.917E-03    0.146E-02
RMM:  12    -0.232134066775E+04    0.18818E-04   -0.75180E-05  3940   0.638E-03    0.138E-02
RMM:  13    -0.232134066634E+04    0.14041E-05   -0.29035E-05  3135   0.622E-03
   4 F= -.23427690E+04 E0= -.23427690E+04  d E =-.591760E+00  mag=     4.0000
       N       E                     dE             d eps       ncg     rms          rms(c)
DAV:   1    -0.232134138860E+04   -0.72086E-03   -0.36974E-01  5200   0.509E-01    0.168E-01
RMM:   2    -0.232134189479E+04   -0.50618E-03   -0.71821E-03  4786   0.671E-02    0.662E-02
RMM:   3    -0.232134176690E+04    0.12789E-03   -0.45342E-04  4631   0.334E-02    0.409E-02
RMM:   4    -0.232134182795E+04   -0.61055E-04   -0.31802E-04  4081   0.117E-02    0.908E-02
RMM:   5    -0.232134173033E+04    0.97627E-04   -0.86400E-05  3379   0.968E-03    0.105E-02
RMM:   6    -0.232134172880E+04    0.15246E-05   -0.94650E-06  2858   0.332E-03
   5 F= -.23427701E+04 E0= -.23427701E+04  d E =-.592889E+00  mag=     4.0000
       N       E                     dE             d eps       ncg     rms          rms(c)
DAV:   1    -0.232153912283E+04   -0.19739E+00   -0.24002E+01  4560   0.432E+00    0.111E+00
RMM:   2    -0.232158109310E+04   -0.41970E-01   -0.56677E-01  4611   0.617E-01    0.639E-01
RMM:   3    -0.232157092069E+04    0.10172E-01   -0.30500E-02  4563   0.268E-01    0.390E-01
RMM:   4    -0.232157647056E+04   -0.55499E-02   -0.27802E-02  4555   0.111E-01    0.813E-01
RMM:   5    -0.232156898738E+04    0.74832E-02   -0.58227E-03  4938   0.749E-02    0.125E-01
RMM:   6    -0.232156872764E+04    0.25974E-03   -0.10957E-03  5311   0.194E-02    0.115E-01
RMM:   7    -0.232156866189E+04    0.65755E-04   -0.72791E-04  5454   0.185E-02    0.100E-01
RMM:   8    -0.232156855573E+04    0.10616E-03   -0.11188E-04  3786   0.877E-03    0.310E-02
RMM:   9    -0.232156855861E+04   -0.28863E-05   -0.84751E-05  3458   0.755E-03
   6 F= -.23429972E+04 E0= -.23429972E+04  d E =-.227114E+00  mag=     4.0000
       N       E                     dE             d eps       ncg     rms          rms(c)
DAV:   1    -0.232160073396E+04   -0.32178E-01   -0.13575E+01  4560   0.333E+00    0.827E-01
RMM:   2    -0.232162521535E+04   -0.24481E-01   -0.32155E-01  4636   0.475E-01    0.469E-01
RMM:   3    -0.232161972987E+04    0.54855E-02   -0.17225E-02  4553   0.209E-01    0.299E-01
RMM:   4    -0.232162330078E+04   -0.35709E-02   -0.13578E-02  4604   0.790E-02    0.654E-01
RMM:   5    -0.232161848090E+04    0.48199E-02   -0.40016E-03  5248   0.580E-02    0.979E-02
RMM:   6    -0.232161837769E+04    0.10321E-03   -0.57431E-04  4829   0.141E-02    0.988E-02
RMM:   7    -0.232161827240E+04    0.10529E-03   -0.43594E-04  5150   0.140E-02    0.568E-02
RMM:   8    -0.232161826719E+04    0.52070E-05   -0.10623E-04  3411   0.800E-03    0.513E-02
RMM:   9    -0.232161823359E+04    0.33608E-04   -0.39853E-05  2930   0.546E-03    0.180E-02
RMM:  10    -0.232161823074E+04    0.28494E-05   -0.41265E-05  3366   0.545E-03
   7 F= -.23430470E+04 E0= -.23430470E+04  d E =-.276887E+00  mag=     4.0000
       N       E                     dE             d eps       ncg     rms          rms(c)
DAV:   1    -0.232172816907E+04   -0.10994E+00   -0.16858E+01  4504   0.404E+00    0.130E+00
RMM:   2    -0.232176715347E+04   -0.38984E-01   -0.48973E-01  4813   0.603E-01    0.568E-01
RMM:   3    -0.232175932578E+04    0.78277E-02   -0.29356E-02  4543   0.286E-01    0.341E-01
RMM:   4    -0.232176285868E+04   -0.35329E-02   -0.18719E-02  4575   0.997E-02    0.665E-01
RMM:   5    -0.232175789955E+04    0.49591E-02   -0.46200E-03  4880   0.744E-02    0.103E-01
RMM:   6    -0.232175774248E+04    0.15708E-03   -0.54368E-04  5253   0.144E-02    0.869E-02
RMM:   7    -0.232175768031E+04    0.62171E-04   -0.23112E-04  4270   0.111E-02    0.767E-02
RMM:   8    -0.232175760167E+04    0.78637E-04   -0.24129E-04  4424   0.110E-02    0.328E-02
RMM:   9    -0.232175759554E+04    0.61252E-05   -0.54976E-05  2989   0.928E-03
   8 F= -.23431865E+04 E0= -.23431865E+04  d E =-.139448E+00  mag=     4.0000
       N       E                     dE             d eps       ncg     rms          rms(c)
DAV:   1    -0.232176637676E+04   -0.87751E-02   -0.37014E+00  4656   0.190E+00    0.603E-01
RMM:   2    -0.232177480358E+04   -0.84268E-02   -0.10612E-01  4778   0.281E-01    0.260E-01
RMM:   3    -0.232177312778E+04    0.16758E-02   -0.63860E-03  4546   0.133E-01    0.165E-01
RMM:   4    -0.232177407864E+04   -0.95086E-03   -0.36853E-03  4660   0.435E-02    0.341E-01
RMM:   5    -0.232177275214E+04    0.13265E-02   -0.12550E-03  5249   0.350E-02    0.473E-02
RMM:   6    -0.232177273248E+04    0.19661E-04   -0.13448E-04  3624   0.762E-03    0.502E-02
RMM:   7    -0.232177270336E+04    0.29121E-04   -0.48882E-05  3002   0.637E-03    0.287E-02
RMM:   8    -0.232177269793E+04    0.54313E-05   -0.72715E-05  3846   0.654E-03
   9 F= -.23432015E+04 E0= -.23432015E+04  d E =-.154519E+00  mag=     4.0000
       N       E                     dE             d eps       ncg     rms          rms(c)
DAV:   1    -0.232186858915E+04   -0.95886E-01   -0.77278E+00  4532   0.273E+00    0.745E-01
RMM:   2    -0.232188686224E+04   -0.18273E-01   -0.21733E-01  4939   0.386E-01    0.359E-01
RMM:   3    -0.232188428891E+04    0.25733E-02   -0.13698E-02  4596   0.185E-01    0.216E-01
RMM:   4    -0.232188498318E+04   -0.69428E-03   -0.71138E-03  4534   0.624E-02    0.312E-01
RMM:   5    -0.232188385318E+04    0.11300E-02   -0.12458E-03  4546   0.416E-02    0.757E-02
RMM:   6    -0.232188381656E+04    0.36624E-04   -0.23765E-04  4565   0.926E-03    0.603E-02
RMM:   7    -0.232188378182E+04    0.34736E-04   -0.10796E-04  3361   0.811E-03    0.379E-02
RMM:   8    -0.232188378816E+04   -0.63346E-05   -0.67722E-05  3431   0.681E-03
  10 F= -.23433124E+04 E0= -.23433124E+04  d E =-.110886E+00  mag=     4.0000
       N       E                     dE             d eps       ncg     rms          rms(c)
DAV:   1    -0.232190780132E+04   -0.24019E-01   -0.63664E+01  4504   0.782E+00    0.209E+00
RMM:   2    -0.232205582396E+04   -0.14802E+00   -0.17605E+00  4907   0.110E+00    0.103E+00
RMM:   3    -0.232203736662E+04    0.18457E-01   -0.11504E-01  4568   0.532E-01    0.707E-01
RMM:   4    -0.232205254359E+04   -0.15177E-01   -0.46835E-02  4851   0.151E-01    0.136E+00
RMM:   5    -0.232203213585E+04    0.20408E-01   -0.20663E-02  5552   0.126E-01    0.229E-01
RMM:   6    -0.232203230316E+04   -0.16730E-03   -0.26655E-03  6053   0.341E-02    0.260E-01
RMM:   7    -0.232203154903E+04    0.75412E-03   -0.90988E-04  5720   0.174E-02    0.927E-02
RMM:   8    -0.232203145509E+04    0.93942E-04   -0.44124E-04  4725   0.141E-02    0.388E-02
RMM:   9    -0.232203146095E+04   -0.58560E-05   -0.96840E-05  3374   0.102E-02
  11 F= -.23434593E+04 E0= -.23434593E+04  d E =-.257793E+00  mag=     4.0000
       N       E                     dE             d eps       ncg     rms          rms(c)
DAV:   1    -0.232214218234E+04   -0.11073E+00   -0.18315E+01  4520   0.424E+00    0.124E+00
RMM:   2    -0.232218218823E+04   -0.40006E-01   -0.51466E-01  4818   0.620E-01    0.583E-01
RMM:   3    -0.232217485454E+04    0.73337E-02   -0.35015E-02  4598   0.299E-01    0.407E-01
RMM:   4    -0.232217975231E+04   -0.48978E-02   -0.15892E-02  4811   0.887E-02    0.793E-01
RMM:   5    -0.232217268815E+04    0.70642E-02   -0.76402E-03  5555   0.773E-02    0.134E-01
RMM:   6    -0.232217265814E+04    0.30006E-04   -0.95918E-04  5665   0.210E-02    0.144E-01
RMM:   7    -0.232217240040E+04    0.25774E-03   -0.34108E-04  5120   0.121E-02    0.546E-02
RMM:   8    -0.232217236616E+04    0.34236E-04   -0.19961E-04  4618   0.103E-02    0.460E-02
RMM:   9    -0.232217234160E+04    0.24561E-04   -0.65308E-05  2982   0.717E-03    0.280E-02
RMM:  10    -0.232217232387E+04    0.17730E-04   -0.29707E-05  3088   0.518E-03    0.971E-03
RMM:  11    -0.232217231791E+04    0.59634E-05   -0.10375E-05  2884   0.415E-03
  12 F= -.23435994E+04 E0= -.23435994E+04  d E =-.140109E+00  mag=     4.0000
       N       E                     dE             d eps       ncg     rms          rms(c)
DAV:   1    -0.232218755344E+04   -0.15230E-01   -0.89734E+00  4608   0.300E+00    0.872E-01
RMM:   2    -0.232220700925E+04   -0.19456E-01   -0.25189E-01  4796   0.435E-01    0.410E-01
RMM:   3    -0.232220333035E+04    0.36789E-02   -0.16852E-02  4578   0.207E-01    0.277E-01
RMM:   4    -0.232220581264E+04   -0.24823E-02   -0.83452E-03  4731   0.641E-02    0.559E-01
RMM:   5    -0.232220233702E+04    0.34756E-02   -0.36353E-03  5509   0.540E-02    0.110E-01
RMM:   6    -0.232220224142E+04    0.95606E-04   -0.50577E-04  5070   0.145E-02    0.813E-02
RMM:   7    -0.232220214990E+04    0.91515E-04   -0.18494E-04  4369   0.103E-02    0.467E-02
RMM:   8    -0.232220214840E+04    0.14996E-05   -0.11490E-04  3654   0.798E-03    0.534E-02
RMM:   9    -0.232220211001E+04    0.38393E-04   -0.42416E-05  3085   0.649E-03    0.134E-02
RMM:  10    -0.232220210394E+04    0.60694E-05   -0.17292E-05  2937   0.494E-03
  13 F= -.23436287E+04 E0= -.23436287E+04  d E =-.169394E+00  mag=     4.0000
       N       E                     dE             d eps       ncg     rms          rms(c)
DAV:   1    -0.232225793450E+04   -0.55824E-01   -0.10671E+01  4504   0.330E+00    0.939E-01
RMM:   2    -0.232228563244E+04   -0.27698E-01   -0.33467E-01  4845   0.492E-01    0.471E-01
RMM:   3    -0.232228180389E+04    0.38285E-02   -0.22957E-02  4602   0.236E-01    0.345E-01
RMM:   4    -0.232228435799E+04   -0.25541E-02   -0.90603E-03  4920   0.666E-02    0.587E-01
RMM:   5    -0.232228056060E+04    0.37974E-02   -0.46405E-03  5554   0.582E-02    0.114E-01
RMM:   6    -0.232228055534E+04    0.52539E-05   -0.59737E-04  5123   0.175E-02    0.123E-01
RMM:   7    -0.232228036593E+04    0.18941E-03   -0.20784E-04  4407   0.980E-03    0.382E-02
RMM:   8    -0.232228035515E+04    0.10777E-04   -0.11612E-04  4078   0.819E-03    0.340E-02
RMM:   9    -0.232228034366E+04    0.11494E-04   -0.38116E-05  2919   0.618E-03    0.191E-02
RMM:  10    -0.232228033693E+04    0.67234E-05   -0.11881E-05  2890   0.367E-03
  14 F= -.23437066E+04 E0= -.23437066E+04  d E =-.778901E-01  mag=     4.0000
       N       E                     dE             d eps       ncg     rms          rms(c)
DAV:   1    -0.232228428178E+04   -0.39381E-02   -0.60933E+00  4576   0.249E+00    0.710E-01
RMM:   2    -0.232230039687E+04   -0.16115E-01   -0.19406E-01  4837   0.373E-01    0.359E-01
RMM:   3    -0.232229818091E+04    0.22160E-02   -0.13181E-02  4592   0.177E-01    0.262E-01
RMM:   4    -0.232229970203E+04   -0.15211E-02   -0.53408E-03  4847   0.509E-02    0.451E-01
RMM:   5    -0.232229745063E+04    0.22514E-02   -0.27263E-03  5600   0.447E-02    0.869E-02
RMM:   6    -0.232229743853E+04    0.12097E-04   -0.33515E-04  4561   0.130E-02    0.914E-02
RMM:   7    -0.232229733197E+04    0.10656E-03   -0.11758E-04  3659   0.809E-03    0.299E-02
RMM:   8    -0.232229732660E+04    0.53736E-05   -0.77997E-05  3675   0.715E-03
  15 F= -.23437234E+04 E0= -.23437234E+04  d E =-.946395E-01  mag=     4.0000
       N       E                     dE             d eps       ncg     rms          rms(c)
DAV:   1    -0.232234650661E+04   -0.49175E-01   -0.15989E+01  4504   0.401E+00    0.986E-01
RMM:   2    -0.232238674877E+04   -0.40242E-01   -0.47559E-01  4825   0.581E-01    0.536E-01
RMM:   3    -0.232238138324E+04    0.53655E-02   -0.32080E-02  4539   0.276E-01    0.358E-01
RMM:   4    -0.232238491491E+04   -0.35317E-02   -0.13105E-02  4764   0.795E-02    0.667E-01
RMM:   5    -0.232237977680E+04    0.51381E-02   -0.53063E-03  5619   0.640E-02    0.989E-02
RMM:   6    -0.232237968912E+04    0.87679E-04   -0.51633E-04  4988   0.154E-02    0.656E-02
RMM:   7    -0.232237965418E+04    0.34940E-04   -0.17673E-04  3583   0.955E-03    0.517E-02
RMM:   8    -0.232237961516E+04    0.39019E-04   -0.99525E-05  4019   0.779E-03    0.185E-02
RMM:   9    -0.232237961764E+04   -0.24843E-05   -0.23261E-05  2924   0.663E-03
  16 F= -.23438048E+04 E0= -.23438048E+04  d E =-.813961E-01  mag=     4.0000
       N       E                     dE             d eps       ncg     rms          rms(c)
DAV:   1    -0.232238142235E+04   -0.18072E-02   -0.11980E+01  4504   0.347E+00    0.851E-01
RMM:   2    -0.232241117124E+04   -0.29749E-01   -0.35285E-01  4815   0.504E-01    0.464E-01
RMM:   3    -0.232240733367E+04    0.38376E-02   -0.23758E-02  4549   0.238E-01    0.338E-01
RMM:   4    -0.232240990270E+04   -0.25690E-02   -0.89412E-03  4892   0.646E-02    0.592E-01
RMM:   5    -0.232240595523E+04    0.39475E-02   -0.44780E-03  5585   0.550E-02    0.119E-01
RMM:   6    -0.232240595812E+04   -0.28939E-05   -0.60835E-04  5103   0.175E-02    0.125E-01
RMM:   7    -0.232240576993E+04    0.18819E-03   -0.17179E-04  3904   0.864E-03    0.355E-02
RMM:   8    -0.232240575456E+04    0.15369E-04   -0.10074E-04  3945   0.752E-03    0.286E-02
RMM:   9    -0.232240574824E+04    0.63265E-05   -0.34219E-05  2913   0.613E-03
  17 F= -.23438301E+04 E0= -.23438301E+04  d E =-.106762E+00  mag=     4.0000
       N       E                     dE             d eps       ncg     rms          rms(c)
DAV:   1    -0.232246157487E+04   -0.55820E-01   -0.13239E+01  4504   0.359E+00    0.919E-01
RMM:   2    -0.232249069821E+04   -0.29123E-01   -0.35351E-01  4762   0.516E-01    0.468E-01
RMM:   3    -0.232248696557E+04    0.37326E-02   -0.24196E-02  4550   0.241E-01    0.392E-01
RMM:   4    -0.232248777915E+04   -0.81358E-03   -0.77553E-03  5176   0.609E-02    0.492E-01
RMM:   5    -0.232248493838E+04    0.28408E-02   -0.50502E-03  5600   0.550E-02    0.699E-02
RMM:   6    -0.232248484756E+04    0.90822E-04   -0.32772E-04  5067   0.191E-02    0.475E-02
RMM:   7    -0.232248486250E+04   -0.14945E-04   -0.11945E-04  3460   0.673E-03    0.666E-02
RMM:   8    -0.232248480667E+04    0.55830E-04   -0.66743E-05  3369   0.636E-03    0.148E-02
RMM:   9    -0.232248480464E+04    0.20304E-05   -0.14161E-05  2915   0.488E-03
  18 F= -.23439078E+04 E0= -.23439078E+04  d E =-.776322E-01  mag=     4.0000
       N       E                     dE             d eps       ncg     rms          rms(c)
DAV:   1    -0.232248762131E+04   -0.28146E-02   -0.23050E+01  4504   0.478E+00    0.121E+00
RMM:   2    -0.232253793989E+04   -0.50319E-01   -0.61227E-01  4754   0.680E-01    0.616E-01
RMM:   3    -0.232253179161E+04    0.61483E-02   -0.42251E-02  4548   0.316E-01    0.530E-01
RMM:   4    -0.232253270927E+04   -0.91766E-03   -0.13112E-02  5192   0.792E-02    0.630E-01
RMM:   5    -0.232252804908E+04    0.46602E-02   -0.88013E-03  5571   0.721E-02    0.105E-01
RMM:   6    -0.232252792613E+04    0.12295E-03   -0.75723E-04  5596   0.269E-02    0.962E-02
RMM:   7    -0.232252782416E+04    0.10197E-03   -0.23926E-04  3855   0.876E-03    0.519E-02
RMM:   8    -0.232252781525E+04    0.89105E-05   -0.12305E-04  3797   0.798E-03    0.609E-02
RMM:   9    -0.232252777286E+04    0.42381E-04   -0.54400E-05  2970   0.656E-03    0.212E-02
RMM:  10    -0.232252776254E+04    0.10324E-04   -0.15908E-05  2908   0.400E-03    0.669E-03
RMM:  11    -0.232252775980E+04    0.27431E-05   -0.72671E-06  2865   0.349E-03
  19 F= -.23439488E+04 E0= -.23439488E+04  d E =-.118719E+00  mag=     4.0000
       N       E                     dE             d eps       ncg     rms          rms(c)
DAV:   1    -0.232257451769E+04   -0.46755E-01   -0.13274E+01  4504   0.356E+00    0.862E-01
RMM:   2    -0.232260387481E+04   -0.29357E-01   -0.34767E-01  4758   0.509E-01    0.499E-01
RMM:   3    -0.232260153202E+04    0.23428E-02   -0.24403E-02  4526   0.237E-01    0.495E-01
RMM:   4    -0.232260050213E+04    0.10299E-02   -0.72635E-03  5315   0.604E-02    0.426E-01
RMM:   5    -0.232259844641E+04    0.20557E-02   -0.51006E-03  5351   0.550E-02    0.973E-02
RMM:   6    -0.232259841567E+04    0.30739E-04   -0.61031E-04  5202   0.249E-02    0.107E-01
RMM:   7    -0.232259829399E+04    0.12168E-03   -0.18739E-04  3961   0.837E-03    0.486E-02
RMM:   8    -0.232259829124E+04    0.27454E-05   -0.78141E-05  2978   0.624E-03
  20 F= -.23440177E+04 E0= -.23440177E+04  d E =-.688614E-01  mag=     4.0000
       N       E                     dE             d eps       ncg     rms          rms(c)
DAV:   1    -0.232259887073E+04   -0.57674E-03   -0.18810E+01  4504   0.423E+00    0.103E+00
RMM:   2    -0.232264201141E+04   -0.43141E-01   -0.50555E-01  4732   0.607E-01    0.598E-01
RMM:   3    -0.232263874788E+04    0.32635E-02   -0.35253E-02  4550   0.281E-01    0.604E-01
RMM:   4    -0.232263698527E+04    0.17626E-02   -0.10284E-02  5378   0.718E-02    0.500E-01
RMM:   5    -0.232263421810E+04    0.27672E-02   -0.72721E-03  5313   0.648E-02    0.143E-01
RMM:   6    -0.232263417354E+04    0.44562E-04   -0.10141E-03  5412   0.309E-02    0.152E-01
RMM:   7    -0.232263393408E+04    0.23946E-03   -0.29593E-04  4447   0.103E-02    0.644E-02
RMM:   8    -0.232263390839E+04    0.25690E-04   -0.11932E-04  3036   0.750E-03    0.496E-02
RMM:   9    -0.232263387530E+04    0.33093E-04   -0.44061E-05  3083   0.548E-03    0.138E-02
RMM:  10    -0.232263387031E+04    0.49876E-05   -0.18697E-05  2967   0.464E-03
  21 F= -.23440513E+04 E0= -.23440513E+04  d E =-.102445E+00  mag=     4.0000
       N       E                     dE             d eps       ncg     rms          rms(c)
DAV:   1    -0.232267713404E+04   -0.43259E-01   -0.18308E+01  4504   0.416E+00    0.106E+00
RMM:   2    -0.232271614372E+04   -0.39010E-01   -0.46094E-01  4691   0.589E-01    0.567E-01
RMM:   3    -0.232271317213E+04    0.29716E-02   -0.32460E-02  4534   0.274E-01    0.595E-01
RMM:   4    -0.232271109833E+04    0.20738E-02   -0.93993E-03  5548   0.679E-02    0.466E-01
RMM:   5    -0.232270872938E+04    0.23690E-02   -0.66247E-03  5263   0.603E-02    0.164E-01
RMM:   6    -0.232270848975E+04    0.23962E-03   -0.10359E-03  5336   0.304E-02    0.106E-01
RMM:   7    -0.232270833555E+04    0.15420E-03   -0.20259E-04  4247   0.901E-03    0.413E-02
RMM:   8    -0.232270835627E+04   -0.20724E-04   -0.97781E-05  3071   0.710E-03    0.651E-02
RMM:   9    -0.232270830646E+04    0.49812E-04   -0.52523E-05  2983   0.554E-03    0.150E-02
RMM:  10    -0.232270830097E+04    0.54897E-05   -0.15723E-05  2913   0.448E-03
  22 F= -.23441242E+04 E0= -.23441242E+04  d E =-.728901E-01  mag=     4.0000
       N       E                     dE             d eps       ncg     rms          rms(c)
DAV:   1    -0.232270899953E+04   -0.69307E-03   -0.14296E+01  4504   0.367E+00    0.935E-01
RMM:   2    -0.232273913511E+04   -0.30136E-01   -0.35748E-01  4693   0.522E-01    0.500E-01
RMM:   3    -0.232273679871E+04    0.23364E-02   -0.25355E-02  4508   0.243E-01    0.520E-01
RMM:   4    -0.232273527645E+04    0.15223E-02   -0.73920E-03  5491   0.603E-02    0.415E-01
RMM:   5    -0.232273338211E+04    0.18943E-02   -0.52396E-03  5282   0.538E-02    0.144E-01
RMM:   6    -0.232273318934E+04    0.19277E-03   -0.79461E-04  5268   0.267E-02    0.922E-02
RMM:   7    -0.232273306969E+04    0.11964E-03   -0.15876E-04  4051   0.814E-03    0.361E-02
RMM:   8    -0.232273308519E+04   -0.15502E-04   -0.76807E-05  3041   0.648E-03    0.574E-02
RMM:   9    -0.232273304674E+04    0.38456E-04   -0.41644E-05  2958   0.512E-03    0.138E-02
RMM:  10    -0.232273304225E+04    0.44849E-05   -0.13479E-05  2903   0.409E-03
  23 F= -.23441475E+04 E0= -.23441475E+04  d E =-.962210E-01  mag=     4.0000
       N       E                     dE             d eps       ncg     rms          rms(c)
DAV:   1    -0.232276987774E+04   -0.36831E-01   -0.17973E+01  4504   0.405E+00    0.937E-01
RMM:   2    -0.232280771043E+04   -0.37833E-01   -0.43806E-01  4667   0.575E-01    0.584E-01
RMM:   3    -0.232280599344E+04    0.17170E-02   -0.32202E-02  4523   0.265E-01    0.671E-01
RMM:   4    -0.232280204880E+04    0.39446E-02   -0.90890E-03  5443   0.677E-02    0.411E-01
RMM:   5    -0.232280065029E+04    0.13985E-02   -0.66938E-03  5212   0.588E-02    0.211E-01
RMM:   6    -0.232280014494E+04    0.50535E-03   -0.11447E-03  5339   0.301E-02    0.941E-02
RMM:   7    -0.232280006465E+04    0.80292E-04   -0.22163E-04  4280   0.902E-03    0.736E-02
RMM:   8    -0.232280002002E+04    0.44626E-04   -0.90309E-05  2979   0.688E-03    0.436E-02
RMM:   9    -0.232279999908E+04    0.20939E-04   -0.41884E-05  3171   0.490E-03    0.117E-02
RMM:  10    -0.232279999811E+04    0.97600E-06   -0.97639E-06  2906   0.426E-03
  24 F= -.23442128E+04 E0= -.23442128E+04  d E =-.652453E-01  mag=     4.0000
       N       E                     dE             d eps       ncg     rms          rms(c)
DAV:   1    -0.232279359829E+04    0.64008E-02   -0.19700E+01  4504   0.425E+00    0.980E-01
RMM:   2    -0.232283619989E+04   -0.42602E-01   -0.49128E-01  4641   0.606E-01    0.615E-01
RMM:   3    -0.232283402475E+04    0.21751E-02   -0.35656E-02  4526   0.281E-01    0.702E-01
RMM:   4    -0.232282974686E+04    0.42779E-02   -0.10085E-02  5399   0.716E-02    0.433E-01
RMM:   5    -0.232282818017E+04    0.15667E-02   -0.76118E-03  5263   0.626E-02    0.219E-01
RMM:   6    -0.232282763151E+04    0.54866E-03   -0.12497E-03  5472   0.311E-02    0.103E-01
RMM:   7    -0.232282754279E+04    0.88713E-04   -0.26232E-04  4405   0.964E-03    0.838E-02
RMM:   8    -0.232282747822E+04    0.64577E-04   -0.10818E-04  3013   0.739E-03    0.437E-02
RMM:   9    -0.232282745698E+04    0.21240E-04   -0.49174E-05  3259   0.528E-03    0.125E-02
RMM:  10    -0.232282745577E+04    0.12114E-05   -0.10583E-05  2904   0.458E-03
  25 F= -.23442384E+04 E0= -.23442384E+04  d E =-.908388E-01  mag=     4.0000
       N       E                     dE             d eps       ncg     rms          rms(c)
DAV:   1    -0.232285090786E+04   -0.23451E-01   -0.20252E+01  4504   0.439E+00    0.109E+00
RMM:   2    -0.232289349645E+04   -0.42589E-01   -0.50314E-01  4674   0.626E-01    0.613E-01
RMM:   3    -0.232289261935E+04    0.87711E-03   -0.37634E-02  4509   0.301E-01    0.785E-01
RMM:   4    -0.232288632583E+04    0.62935E-02   -0.10523E-02  5611   0.737E-02    0.397E-01
RMM:   5    -0.232288479310E+04    0.15327E-02   -0.79431E-03  5140   0.646E-02    0.205E-01
RMM:   6    -0.232288428708E+04    0.50602E-03   -0.11771E-03  5361   0.333E-02    0.872E-02
RMM:   7    -0.232288416455E+04    0.12253E-03   -0.14809E-04  4013   0.821E-03    0.334E-02
RMM:   8    -0.232288415578E+04    0.87653E-05   -0.77247E-05  3274   0.699E-03
  26 F= -.23442928E+04 E0= -.23442928E+04  d E =-.544782E-01  mag=     4.0000
       N       E                     dE             d eps       ncg     rms          rms(c)
DAV:   1    -0.232288539226E+04   -0.12277E-02   -0.51190E+00  4576   0.219E+00    0.548E-01
RMM:   2    -0.232289583391E+04   -0.10442E-01   -0.12333E-01  4712   0.312E-01    0.324E-01
RMM:   3    -0.232289630572E+04   -0.47181E-03   -0.10300E-02  4530   0.153E-01    0.471E-01
RMM:   4    -0.232289387620E+04    0.24295E-02   -0.29177E-03  5455   0.378E-02    0.187E-01
RMM:   5    -0.232289405327E+04   -0.17707E-03   -0.20776E-03  5204   0.320E-02    0.243E-01
RMM:   6    -0.232289339549E+04    0.65778E-03   -0.60622E-04  4977   0.178E-02    0.499E-02
RMM:   7    -0.232289338718E+04    0.83103E-05   -0.11261E-04  3126   0.602E-03    0.489E-02
RMM:   8    -0.232289335224E+04    0.34941E-04   -0.35469E-05  2920   0.467E-03    0.144E-02
RMM:   9    -0.232289334357E+04    0.86673E-05   -0.19098E-05  3020   0.364E-03
  27 F= -.23443009E+04 E0= -.23443009E+04  d E =-.625057E-01  mag=     4.0000
       N       E                     dE             d eps       ncg     rms          rms(c)
DAV:   1    -0.232291441381E+04   -0.21062E-01   -0.18859E+01  4504   0.424E+00    0.100E+00
RMM:   2    -0.232295635098E+04   -0.41937E-01   -0.48033E-01  4718   0.604E-01    0.609E-01
RMM:   3    -0.232295681797E+04   -0.46699E-03   -0.36662E-02  4507   0.288E-01    0.816E-01
RMM:   4    -0.232294971657E+04    0.71014E-02   -0.99273E-03  5701   0.719E-02    0.359E-01
RMM:   5    -0.232294844608E+04    0.12705E-02   -0.60767E-03  4971   0.589E-02    0.161E-01
RMM:   6    -0.232294826458E+04    0.18150E-03   -0.10443E-03  5088   0.326E-02    0.112E-01
RMM:   7    -0.232294814080E+04    0.12378E-03   -0.20514E-04  3867   0.851E-03    0.631E-02
RMM:   8    -0.232294811594E+04    0.24866E-04   -0.78291E-05  2934   0.629E-03    0.447E-02
RMM:   9    -0.232294809186E+04    0.24074E-04   -0.37207E-05  3047   0.464E-03    0.135E-02
RMM:  10    -0.232294808968E+04    0.21772E-05   -0.11470E-05  2924   0.410E-03
  28 F= -.23443532E+04 E0= -.23443532E+04  d E =-.523165E-01  mag=     4.0000
       N       E                     dE             d eps       ncg     rms          rms(c)
DAV:   1    -0.232294634424E+04    0.17476E-02   -0.83085E+00  4516   0.280E+00    0.665E-01
RMM:   2    -0.232296482233E+04   -0.18478E-01   -0.21167E-01  4714   0.400E-01    0.403E-01
RMM:   3    -0.232296497562E+04   -0.15329E-03   -0.16079E-02  4515   0.191E-01    0.538E-01
RMM:   4    -0.232296189670E+04    0.30789E-02   -0.43860E-03  5655   0.477E-02    0.239E-01
RMM:   5    -0.232296130165E+04    0.59504E-03   -0.26549E-03  4970   0.391E-02    0.982E-02
RMM:   6    -0.232296124765E+04    0.54007E-04   -0.44250E-04  4587   0.218E-02    0.767E-02
RMM:   7    -0.232296118692E+04    0.60724E-04   -0.89861E-05  3183   0.595E-03    0.398E-02
RMM:   8    -0.232296117862E+04    0.83020E-05   -0.35555E-05  2902   0.435E-03
  29 F= -.23443646E+04 E0= -.23443646E+04  d E =-.637338E-01  mag=     4.0000
       N       E                     dE             d eps       ncg     rms          rms(c)
DAV:   1    -0.232297181284E+04   -0.10626E-01   -0.21356E+01  4504   0.452E+00    0.111E+00
RMM:   2    -0.232302382227E+04   -0.52009E-01   -0.58588E-01  4729   0.665E-01    0.682E-01
RMM:   3    -0.232302582029E+04   -0.19980E-02   -0.46619E-02  4532   0.310E-01    0.958E-01
RMM:   4    -0.232301548533E+04    0.10335E-01   -0.12100E-02  5559   0.795E-02    0.367E-01
RMM:   5    -0.232301405525E+04    0.14301E-02   -0.72219E-03  5076   0.652E-02    0.125E-01
RMM:   6    -0.232301406971E+04   -0.14455E-04   -0.10753E-03  5341   0.340E-02    0.139E-01
RMM:   7    -0.232301385714E+04    0.21257E-03   -0.29223E-04  4096   0.955E-03    0.649E-02
RMM:   8    -0.232301383393E+04    0.23214E-04   -0.10157E-04  2948   0.671E-03    0.530E-02
RMM:   9    -0.232301379753E+04    0.36398E-04   -0.49787E-05  3100   0.536E-03    0.162E-02
RMM:  10    -0.232301379091E+04    0.66221E-05   -0.17615E-05  2955   0.482E-03
  30 F= -.23444148E+04 E0= -.23444148E+04  d E =-.502455E-01  mag=     4.0000
       N       E                     dE             d eps       ncg     rms          rms(c)
DAV:   1    -0.232301339922E+04    0.39831E-03   -0.33079E+00  4592   0.179E+00    0.437E-01
RMM:   2    -0.232302137081E+04   -0.79716E-02   -0.90217E-02  4784   0.262E-01    0.266E-01
RMM:   3    -0.232302161425E+04   -0.24344E-03   -0.70830E-03  4546   0.122E-01    0.370E-01
RMM:   4    -0.232302008581E+04    0.15284E-02   -0.18638E-03  5473   0.312E-02    0.147E-01
RMM:   5    -0.232301984909E+04    0.23672E-03   -0.11461E-03  5053   0.259E-02    0.531E-02
RMM:   6    -0.232301986997E+04   -0.20873E-04   -0.16662E-04  3901   0.136E-02    0.729E-02
RMM:   7    -0.232301981077E+04    0.59198E-04   -0.48929E-05  2951   0.468E-03    0.213E-02
RMM:   8    -0.232301980842E+04    0.23510E-05   -0.18414E-05  2897   0.330E-03
  31 F= -.23444199E+04 E0= -.23444199E+04  d E =-.553031E-01  mag=     4.0000
       N       E                     dE             d eps       ncg     rms          rms(c)
DAV:   1    -0.232301529280E+04    0.45180E-02   -0.25471E+01  4504   0.497E+00    0.118E+00
RMM:   2    -0.232307870816E+04   -0.63415E-01   -0.71100E-01  4762   0.732E-01    0.739E-01
RMM:   3    -0.232307997660E+04   -0.12684E-02   -0.55357E-02  4532   0.338E-01    0.102E+00
RMM:   4    -0.232306843548E+04    0.11541E-01   -0.14246E-02  5572   0.859E-02    0.402E-01
RMM:   5    -0.232306713629E+04    0.12992E-02   -0.88798E-03  5024   0.723E-02    0.247E-01
RMM:   6    -0.232306679559E+04    0.34070E-03   -0.16509E-03  5388   0.397E-02    0.181E-01
RMM:   7    -0.232306643282E+04    0.36277E-03   -0.29267E-04  4515   0.108E-02    0.464E-02
RMM:   8    -0.232306642765E+04    0.51718E-05   -0.11353E-04  3157   0.803E-03    0.484E-02
RMM:   9    -0.232306639827E+04    0.29375E-04   -0.61883E-05  3055   0.605E-03    0.208E-02
RMM:  10    -0.232306638941E+04    0.88641E-05   -0.23032E-05  3008   0.505E-03
  32 F= -.23444643E+04 E0= -.23444643E+04  d E =-.444340E-01  mag=     4.0000
       N       E                     dE             d eps       ncg     rms          rms(c)
DAV:   1    -0.232306617019E+04    0.22808E-03   -0.13669E+00  4688   0.115E+00    0.273E-01
RMM:   2    -0.232306944109E+04   -0.32709E-02   -0.37048E-02  4890   0.169E-01    0.169E-01
RMM:   3    -0.232306954290E+04   -0.10181E-03   -0.30499E-03  4608   0.829E-02    0.231E-01
RMM:   4    -0.232306895706E+04    0.58583E-03   -0.75514E-04  5375   0.199E-02    0.946E-02
RMM:   5    -0.232306886944E+04    0.87619E-04   -0.45788E-04  4850   0.169E-02    0.499E-02
RMM:   6    -0.232306886410E+04    0.53427E-05   -0.84112E-05  3196   0.958E-03
  33 F= -.23444663E+04 E0= -.23444663E+04  d E =-.463954E-01  mag=     4.0000
       N       E                     dE             d eps       ncg     rms          rms(c)
DAV:   1    -0.232306691792E+04    0.19515E-02   -0.19276E+01  4504   0.440E+00    0.104E+00
RMM:   2    -0.232311539702E+04   -0.48479E-01   -0.54768E-01  4758   0.648E-01    0.618E-01
RMM:   3    -0.232311597980E+04   -0.58278E-03   -0.42857E-02  4538   0.305E-01    0.861E-01
RMM:   4    -0.232310799663E+04    0.79832E-02   -0.10347E-02  5742   0.737E-02    0.355E-01
RMM:   5    -0.232310760638E+04    0.39025E-03   -0.69411E-03  5013   0.618E-02    0.327E-01
RMM:   6    -0.232310654274E+04    0.10636E-02   -0.15347E-03  5257   0.352E-02    0.123E-01
RMM:   7    -0.232310642282E+04    0.11992E-03   -0.24823E-04  4264   0.932E-03    0.646E-02
RMM:   8    -0.232310638275E+04    0.40071E-04   -0.10243E-04  2963   0.721E-03    0.382E-02
RMM:   9    -0.232310636462E+04    0.18123E-04   -0.43956E-05  3180   0.541E-03    0.143E-02
RMM:  10    -0.232310636355E+04    0.10775E-05   -0.13899E-05  2947   0.479E-03
  34 F= -.23445023E+04 E0= -.23445023E+04  d E =-.359747E-01  mag=     4.0000
       N       E                     dE             d eps       ncg     rms          rms(c)
DAV:   1    -0.232310576223E+04    0.60239E-03   -0.16079E+00  4576   0.127E+00    0.299E-01
RMM:   2    -0.232310972970E+04   -0.39675E-02   -0.45050E-02  4851   0.187E-01    0.180E-01
RMM:   3    -0.232310981755E+04   -0.87850E-04   -0.35632E-03  4569   0.887E-02    0.251E-01
RMM:   4    -0.232310912572E+04    0.69183E-03   -0.87229E-04  5480   0.214E-02    0.102E-01
RMM:   5    -0.232310907812E+04    0.47607E-04   -0.59171E-04  4917   0.184E-02    0.866E-02
RMM:   6    -0.232310900398E+04    0.74140E-04   -0.11536E-04  3401   0.104E-02    0.360E-02
RMM:   7    -0.232310899291E+04    0.11064E-04   -0.18797E-05  2930   0.357E-03    0.167E-02
RMM:   8    -0.232310899095E+04    0.19653E-05   -0.90353E-06  2870   0.268E-03
  35 F= -.23445044E+04 E0= -.23445044E+04  d E =-.381492E-01  mag=     4.0000
       N       E                     dE             d eps       ncg     rms          rms(c)
DAV:   1    -0.232309591630E+04    0.13077E-01   -0.21375E+01  4504   0.471E+00    0.111E+00
RMM:   2    -0.232315172086E+04   -0.55805E-01   -0.62239E-01  4761   0.696E-01    0.659E-01
RMM:   3    -0.232315347604E+04   -0.17552E-02   -0.49277E-02  4551   0.320E-01    0.956E-01
RMM:   4    -0.232314329653E+04    0.10180E-01   -0.11302E-02  5765   0.779E-02    0.362E-01
RMM:   5    -0.232314298975E+04    0.30678E-03   -0.73204E-03  4923   0.654E-02    0.360E-01
RMM:   6    -0.232314169249E+04    0.12973E-02   -0.18149E-03  5197   0.389E-02    0.126E-01
RMM:   7    -0.232314154249E+04    0.15000E-03   -0.22341E-04  4116   0.935E-03    0.451E-02
RMM:   8    -0.232314153693E+04    0.55597E-05   -0.93460E-05  3006   0.775E-03
  36 F= -.23445357E+04 E0= -.23445357E+04  d E =-.312397E-01  mag=     4.0000
       N       E                     dE             d eps       ncg     rms          rms(c)
DAV:   1    -0.232314153807E+04    0.44203E-05   -0.25743E-01  5032   0.517E-01    0.126E-01
RMM:   2    -0.232314223120E+04   -0.69314E-03   -0.73610E-03  5361   0.785E-02    0.908E-02
RMM:   3    -0.232314231152E+04   -0.80318E-04   -0.68462E-04  4619   0.346E-02    0.127E-01
RMM:   4    -0.232314212428E+04    0.18724E-03   -0.14404E-04  3666   0.932E-03    0.390E-02
RMM:   5    -0.232314215996E+04   -0.35682E-04   -0.10973E-04  3538   0.840E-03    0.691E-02
RMM:   6    -0.232314210612E+04    0.53842E-04   -0.48413E-05  2998   0.656E-03    0.128E-02
RMM:   7    -0.232314210712E+04   -0.10024E-05   -0.12198E-05  2903   0.400E-03
  37 F= -.23445361E+04 E0= -.23445361E+04  d E =-.316626E-01  mag=     4.0000
       N       E                     dE             d eps       ncg     rms          rms(c)
DAV:   1    -0.232313653614E+04    0.55700E-02   -0.16852E+01  4504   0.417E+00    0.919E-01
RMM:   2    -0.232317953307E+04   -0.42997E-01   -0.47936E-01  4762   0.608E-01    0.558E-01
RMM:   3    -0.232317995495E+04   -0.42188E-03   -0.36833E-02  4559   0.288E-01    0.770E-01
RMM:   4    -0.232317368551E+04    0.62694E-02   -0.79188E-03  5859   0.663E-02    0.327E-01
RMM:   5    -0.232317353269E+04    0.15282E-03   -0.55818E-03  4910   0.561E-02    0.328E-01
RMM:   6    -0.232317243727E+04    0.10954E-02   -0.14549E-03  5095   0.334E-02    0.109E-01
RMM:   7    -0.232317233676E+04    0.10050E-03   -0.19675E-04  3900   0.874E-03    0.492E-02
RMM:   8    -0.232317231830E+04    0.18466E-04   -0.81186E-05  2934   0.701E-03    0.372E-02
RMM:   9    -0.232317229893E+04    0.19368E-04   -0.33790E-05  3013   0.493E-03    0.131E-02
RMM:  10    -0.232317229541E+04    0.35191E-05   -0.12067E-05  2925   0.430E-03
  38 F= -.23445657E+04 E0= -.23445657E+04  d E =-.296066E-01  mag=     4.0000
       N       E                     dE             d eps       ncg     rms          rms(c)
DAV:   1    -0.232316997617E+04    0.23228E-02   -0.26655E+00  4516   0.165E+00    0.364E-01
RMM:   2    -0.232317672047E+04   -0.67443E-02   -0.75302E-02  4812   0.242E-01    0.221E-01
RMM:   3    -0.232317678854E+04   -0.68070E-04   -0.58130E-03  4537   0.116E-01    0.301E-01
RMM:   4    -0.232317583215E+04    0.95639E-03   -0.12531E-03  5683   0.263E-02    0.131E-01
RMM:   5    -0.232317579749E+04    0.34653E-04   -0.91308E-04  4901   0.228E-02    0.129E-01
RMM:   6    -0.232317562306E+04    0.17443E-03   -0.22062E-04  3762   0.134E-02    0.425E-02
RMM:   7    -0.232317560807E+04    0.14989E-04   -0.29979E-05  2948   0.415E-03    0.205E-02
RMM:   8    -0.232317560450E+04    0.35734E-05   -0.13899E-05  2903   0.321E-03
  39 F= -.23445688E+04 E0= -.23445688E+04  d E =-.326679E-01  mag=     4.0000
       N       E                     dE             d eps       ncg     rms          rms(c)
DAV:   1    -0.232317029525E+04    0.53128E-02   -0.15253E+01  4504   0.395E+00    0.884E-01
RMM:   2    -0.232320841240E+04   -0.38117E-01   -0.43002E-01  4725   0.575E-01    0.518E-01
RMM:   3    -0.232320875106E+04   -0.33866E-03   -0.32315E-02  4560   0.267E-01    0.744E-01
RMM:   4    -0.232320290122E+04    0.58498E-02   -0.72834E-03  5814   0.623E-02    0.308E-01
RMM:   5    -0.232320288864E+04    0.12583E-04   -0.54371E-03  4989   0.536E-02    0.333E-01
RMM:   6    -0.232320169714E+04    0.11915E-02   -0.13787E-03  5185   0.307E-02    0.915E-02
RMM:   7    -0.232320161850E+04    0.78639E-04   -0.14500E-04  3768   0.813E-03    0.345E-02
RMM:   8    -0.232320161750E+04    0.99777E-06   -0.60006E-05  2959   0.666E-03
  40 F= -.23445946E+04 E0= -.23445946E+04  d E =-.258740E-01  mag=     4.0000
       N       E                     dE             d eps       ncg     rms          rms(c)
DAV:   1    -0.232320043848E+04    0.11800E-02   -0.17008E+00  4608   0.132E+00    0.297E-01
RMM:   2    -0.232320472139E+04   -0.42829E-02   -0.47686E-02  4851   0.193E-01    0.184E-01
RMM:   3    -0.232320495929E+04   -0.23791E-03   -0.38846E-03  4569   0.914E-02    0.276E-01
RMM:   4    -0.232320412540E+04    0.83390E-03   -0.84235E-04  5498   0.213E-02    0.992E-02
RMM:   5    -0.232320420336E+04   -0.77965E-04   -0.64783E-04  4922   0.184E-02    0.135E-01
RMM:   6    -0.232320399482E+04    0.20854E-03   -0.19806E-04  3886   0.111E-02    0.282E-02
RMM:   7    -0.232320399363E+04    0.11940E-05   -0.32550E-05  2956   0.437E-03
  41 F= -.23445970E+04 E0= -.23445970E+04  d E =-.281960E-01  mag=     4.0000
       N       E                     dE             d eps       ncg     rms          rms(c)
DAV:   1    -0.232320404132E+04   -0.46500E-04   -0.76985E+00  4504   0.284E+00    0.644E-01
RMM:   2    -0.232322441823E+04   -0.20377E-01   -0.22738E-01  4771   0.419E-01    0.371E-01
RMM:   3    -0.232322450225E+04   -0.84025E-04   -0.16846E-02  4562   0.198E-01    0.519E-01
RMM:   4    -0.232322178959E+04    0.27127E-02   -0.36857E-03  5794   0.451E-02    0.235E-01
RMM:   5    -0.232322148373E+04    0.30586E-03   -0.25934E-03  4892   0.397E-02    0.192E-01
RMM:   6    -0.232322111887E+04    0.36486E-03   -0.61917E-04  4782   0.224E-02    0.793E-02
RMM:   7    -0.232322105596E+04    0.62909E-04   -0.82909E-05  3289   0.631E-03    0.281E-02
RMM:   8    -0.232322105506E+04    0.90702E-06   -0.37203E-05  2927   0.526E-03
  42 F= -.23446140E+04 E0= -.23446140E+04  d E =-.170655E-01  mag=     4.0000
       N       E                     dE             d eps       ncg     rms          rms(c)
DAV:   1    -0.232322051680E+04    0.53917E-03   -0.82022E-01  4656   0.925E-01    0.212E-01
RMM:   2    -0.232322271567E+04   -0.21989E-02   -0.24229E-02  4834   0.137E-01    0.129E-01
RMM:   3    -0.232322283178E+04   -0.11611E-03   -0.19313E-03  4546   0.652E-02    0.196E-01
RMM:   4    -0.232322241531E+04    0.41647E-03   -0.41809E-04  5099   0.152E-02    0.718E-02
RMM:   5    -0.232322241361E+04    0.17017E-05   -0.29508E-04  4578   0.139E-02    0.773E-02
RMM:   6    -0.232322234694E+04    0.66665E-04   -0.81064E-05  3085   0.827E-03    0.227E-02
RMM:   7    -0.232322234430E+04    0.26411E-05   -0.15009E-05  2916   0.375E-03
  43 F= -.23446153E+04 E0= -.23446153E+04  d E =-.183508E-01  mag=     4.0000
       N       E                     dE             d eps       ncg     rms          rms(c)
DAV:   1    -0.232322059667E+04    0.17503E-02   -0.61752E+00  4504   0.256E+00    0.569E-01
RMM:   2    -0.232323711822E+04   -0.16522E-01   -0.18390E-01  4806   0.379E-01    0.328E-01
RMM:   3    -0.232323743127E+04   -0.31305E-03   -0.13997E-02  4558   0.179E-01    0.485E-01
RMM:   4    -0.232323498072E+04    0.24506E-02   -0.28687E-03  5753   0.400E-02    0.199E-01
RMM:   5    -0.232323451538E+04    0.46533E-03   -0.19900E-03  4891   0.355E-02    0.866E-02
RMM:   6    -0.232323454044E+04   -0.25055E-04   -0.36117E-04  4469   0.191E-02    0.949E-02
RMM:   7    -0.232323443720E+04    0.10324E-03   -0.79591E-05  3056   0.569E-03    0.223E-02
RMM:   8    -0.232323443656E+04    0.64023E-06   -0.27273E-05  2936   0.452E-03
  44 F= -.23446274E+04 E0= -.23446274E+04  d E =-.120703E-01  mag=     4.0000
       N       E                     dE             d eps       ncg     rms          rms(c)
DAV:   1    -0.232323407237E+04    0.36483E-03   -0.49548E-01  4688   0.726E-01    0.163E-01
RMM:   2    -0.232323542488E+04   -0.13525E-02   -0.14748E-02  4909   0.108E-01    0.104E-01
RMM:   3    -0.232323553414E+04   -0.10926E-03   -0.12570E-03  4556   0.526E-02    0.164E-01
RMM:   4    -0.232323523316E+04    0.30098E-03   -0.25523E-04  4511   0.119E-02    0.529E-02
RMM:   5    -0.232323523283E+04    0.32489E-06   -0.18673E-04  4239   0.111E-02    0.564E-02
RMM:   6    -0.232323519367E+04    0.39162E-04   -0.58375E-05  3017   0.719E-03    0.139E-02
RMM:   7    -0.232323519369E+04   -0.13999E-07   -0.99356E-06  2904   0.367E-03
  45 F= -.23446281E+04 E0= -.23446281E+04  d E =-.128158E-01  mag=     4.0000
       N       E                     dE             d eps       ncg     rms          rms(c)
DAV:   1    -0.232323206647E+04    0.31272E-02   -0.69403E+00  4504   0.271E+00    0.554E-01
RMM:   2    -0.232325056346E+04   -0.18497E-01   -0.20510E-01  4819   0.400E-01    0.344E-01
RMM:   3    -0.232325088388E+04   -0.32042E-03   -0.15798E-02  4559   0.192E-01    0.499E-01
RMM:   4    -0.232324823632E+04    0.26476E-02   -0.30161E-03  5773   0.416E-02    0.203E-01
RMM:   5    -0.232324766459E+04    0.57173E-03   -0.23227E-03  4855   0.372E-02    0.640E-02
RMM:   6    -0.232324770062E+04   -0.36025E-04   -0.33618E-04  4513   0.205E-02    0.803E-02
RMM:   7    -0.232324762980E+04    0.70812E-04   -0.87395E-05  3114   0.569E-03    0.278E-02
RMM:   8    -0.232324762783E+04    0.19765E-05   -0.30403E-05  2949   0.451E-03
  46 F= -.23446404E+04 E0= -.23446404E+04  d E =-.122560E-01  mag=     4.0000
       N       E                     dE             d eps       ncg     rms          rms(c)
DAV:   1    -0.232324680487E+04    0.82494E-03   -0.88112E-01  4560   0.967E-01    0.200E-01
RMM:   2    -0.232324916818E+04   -0.23633E-02   -0.25892E-02  4904   0.143E-01    0.134E-01
RMM:   3    -0.232324929298E+04   -0.12480E-03   -0.21047E-03  4596   0.674E-02    0.201E-01
RMM:   4    -0.232324883839E+04    0.45459E-03   -0.40554E-04  5031   0.153E-02    0.682E-02
RMM:   5    -0.232324878752E+04    0.50868E-04   -0.31259E-04  4606   0.142E-02    0.434E-02
RMM:   6    -0.232324877094E+04    0.16582E-04   -0.68597E-05  3081   0.876E-03    0.245E-02
RMM:   7    -0.232324876413E+04    0.68094E-05   -0.11044E-05  2897   0.326E-03
  47 F= -.23446415E+04 E0= -.23446415E+04  d E =-.133219E-01  mag=     4.0000
       N       E                     dE             d eps       ncg     rms          rms(c)
DAV:   1    -0.232324430864E+04    0.44623E-02   -0.55881E+00  4504   0.247E+00    0.566E-01
RMM:   2    -0.232325980568E+04   -0.15497E-01   -0.17322E-01  4773   0.371E-01    0.323E-01
RMM:   3    -0.232326050790E+04   -0.70222E-03   -0.13696E-02  4558   0.180E-01    0.509E-01
RMM:   4    -0.232325767411E+04    0.28338E-02   -0.29680E-03  5717   0.401E-02    0.182E-01
RMM:   5    -0.232325741624E+04    0.25787E-03   -0.19558E-03  4946   0.346E-02    0.145E-01
RMM:   6    -0.232325722574E+04    0.19051E-03   -0.43682E-04  4697   0.193E-02    0.742E-02
RMM:   7    -0.232325717066E+04    0.55074E-04   -0.64889E-05  3127   0.560E-03    0.260E-02
RMM:   8    -0.232325716752E+04    0.31382E-05   -0.27127E-05  2915   0.455E-03
  48 F= -.23446496E+04 E0= -.23446496E+04  d E =-.811902E-02  mag=     4.0000
       N       E                     dE             d eps       ncg     rms          rms(c)
DAV:   1    -0.232325714955E+04    0.21117E-04   -0.14898E-03  5608   0.412E-02    0.116E-02
RMM:   2    -0.232325715409E+04   -0.45426E-05   -0.42190E-05  3189   0.751E-03
  49 F= -.23446496E+04 E0= -.23446496E+04  d E =-.811049E-02  mag=     4.0000
       N       E                     dE             d eps       ncg     rms          rms(c)
DAV:   1    -0.232325591947E+04    0.12301E-02   -0.30288E+00  4504   0.184E+00    0.406E-01
RMM:   2    -0.232326540103E+04   -0.94816E-02   -0.10169E-01  4925   0.281E-01    0.274E-01
RMM:   3    -0.232326613462E+04   -0.73359E-03   -0.87018E-03  4564   0.139E-01    0.414E-01
RMM:   4    -0.232326416094E+04    0.19737E-02   -0.16770E-03  5613   0.309E-02    0.127E-01
RMM:   5    -0.232326417800E+04   -0.17063E-04   -0.10478E-03  4989   0.251E-02    0.150E-01
RMM:   6    -0.232326393393E+04    0.24407E-03   -0.33286E-04  4569   0.149E-02    0.492E-02
RMM:   7    -0.232326391642E+04    0.17504E-04   -0.46498E-05  3026   0.503E-03    0.250E-02
RMM:   8    -0.232326391139E+04    0.50362E-05   -0.19361E-05  2906   0.392E-03
  50 F= -.23446561E+04 E0= -.23446561E+04  d E =-.652210E-02  mag=     4.0000
       N       E                     dE             d eps       ncg     rms          rms(c)
DAV:   1    -0.232326367295E+04    0.24347E-03   -0.28669E-01  4640   0.567E-01    0.126E-01
RMM:   2    -0.232326458738E+04   -0.91443E-03   -0.97557E-03  4963   0.869E-02    0.873E-02
RMM:   3    -0.232326465762E+04   -0.70245E-04   -0.82107E-04  4455   0.403E-02    0.131E-01
RMM:   4    -0.232326446050E+04    0.19712E-03   -0.16218E-04  3824   0.957E-03    0.396E-02
RMM:   5    -0.232326446742E+04   -0.69154E-05   -0.10096E-04  3859   0.875E-03    0.526E-02
RMM:   6    -0.232326443646E+04    0.30954E-04   -0.37831E-05  2942   0.621E-03    0.136E-02
RMM:   7    -0.232326443509E+04    0.13769E-05   -0.68727E-06  2896   0.332E-03
  51 F= -.23446565E+04 E0= -.23446565E+04  d E =-.697230E-02  mag=     4.0000
       N       E                     dE             d eps       ncg     rms          rms(c)
DAV:   1    -0.232326209427E+04    0.23422E-02   -0.32199E+00  4504   0.190E+00    0.443E-01
RMM:   2    -0.232327247382E+04   -0.10380E-01   -0.11168E-01  5010   0.291E-01    0.293E-01
RMM:   3    -0.232327349446E+04   -0.10206E-02   -0.98824E-03  4626   0.143E-01    0.450E-01
RMM:   4    -0.232327111652E+04    0.23779E-02   -0.19380E-03  5550   0.325E-02    0.132E-01
RMM:   5    -0.232327129656E+04   -0.18003E-03   -0.11909E-03  5151   0.256E-02    0.192E-01
RMM:   6    -0.232327088184E+04    0.41472E-03   -0.42864E-04  4991   0.151E-02    0.434E-02
RMM:   7    -0.232327087117E+04    0.10668E-04   -0.45020E-05  3030   0.544E-03    0.208E-02
RMM:   8    -0.232327087026E+04    0.90554E-06   -0.20101E-05  2912   0.397E-03
  52 F= -.23446626E+04 E0= -.23446626E+04  d E =-.611039E-02  mag=     4.0000
       N       E                     dE             d eps       ncg     rms          rms(c)
DAV:   1    -0.232327082894E+04    0.42226E-04   -0.87387E-02  4832   0.312E-01    0.747E-02
RMM:   2    -0.232327112726E+04   -0.29831E-03   -0.30651E-03  5234   0.488E-02    0.582E-02
RMM:   3    -0.232327115418E+04   -0.26927E-04   -0.27884E-04  3943   0.217E-02    0.793E-02
RMM:   4    -0.232327107993E+04    0.74259E-04   -0.53692E-05  2957   0.603E-03    0.219E-02
RMM:   5    -0.232327108962E+04   -0.96933E-05   -0.33985E-05  2940   0.491E-03
  53 F= -.23446628E+04 E0= -.23446628E+04  d E =-.627582E-02  mag=     4.0000
       N       E                     dE             d eps       ncg     rms          rms(c)
DAV:   1    -0.232326895198E+04    0.21279E-02   -0.24386E+00  4504   0.165E+00    0.392E-01
RMM:   2    -0.232327753427E+04   -0.85823E-02   -0.91309E-02  5239   0.260E-01    0.278E-01
RMM:   3    -0.232327836723E+04   -0.83296E-03   -0.79743E-03  4773   0.119E-01    0.402E-01
RMM:   4    -0.232327646004E+04    0.19072E-02   -0.15470E-03  5409   0.291E-02    0.119E-01
RMM:   5    -0.232327656776E+04   -0.10773E-03   -0.95844E-04  5177   0.237E-02    0.164E-01
RMM:   6    -0.232327627201E+04    0.29575E-03   -0.33824E-04  4900   0.132E-02    0.451E-02
RMM:   7    -0.232327625400E+04    0.18012E-04   -0.33190E-05  3009   0.509E-03    0.140E-02
RMM:   8    -0.232327625268E+04    0.13227E-05   -0.10846E-05  2923   0.360E-03
  54 F= -.23446674E+04 E0= -.23446674E+04  d E =-.461410E-02  mag=     4.0000
       N       E                     dE             d eps       ncg     rms          rms(c)
DAV:   1    -0.232327627168E+04   -0.17680E-04   -0.38438E-02  5000   0.207E-01    0.508E-02
RMM:   2    -0.232327641940E+04   -0.14772E-03   -0.14623E-03  5664   0.336E-02    0.453E-02
RMM:   3    -0.232327642388E+04   -0.44825E-05   -0.13479E-04  3392   0.132E-02    0.504E-02
RMM:   4    -0.232327639429E+04    0.29587E-04   -0.23657E-05  2910   0.448E-03    0.179E-02
RMM:   5    -0.232327639580E+04   -0.15087E-05   -0.15390E-05  2894   0.330E-03
  55 F= -.23446675E+04 E0= -.23446675E+04  d E =-.468819E-02  mag=     4.0000
       N       E                     dE             d eps       ncg     rms          rms(c)
DAV:   1    -0.232327475918E+04    0.16351E-02   -0.17100E+00  4504   0.139E+00    0.347E-01
RMM:   2    -0.232328148596E+04   -0.67268E-02   -0.70197E-02  5257   0.222E-01    0.258E-01
RMM:   3    -0.232328213232E+04   -0.64636E-03   -0.64030E-03  4736   0.102E-01    0.355E-01
RMM:   4    -0.232328063031E+04    0.15020E-02   -0.12074E-03  5271   0.250E-02    0.103E-01
RMM:   5    -0.232328078679E+04   -0.15648E-03   -0.70804E-04  5112   0.199E-02    0.162E-01
RMM:   6    -0.232328048707E+04    0.29972E-03   -0.30968E-04  4873   0.120E-02    0.360E-02
RMM:   7    -0.232328047909E+04    0.79857E-05   -0.34472E-05  2998   0.573E-03
  56 F= -.23446711E+04 E0= -.23446711E+04  d E =-.357071E-02  mag=     4.0000
       N       E                     dE             d eps       ncg     rms          rms(c)
DAV:   1    -0.232328047799E+04    0.90808E-05   -0.29731E-02  5184   0.184E-01    0.494E-02
RMM:   2    -0.232328060411E+04   -0.12611E-03   -0.12669E-03  5719   0.310E-02    0.407E-02
RMM:   3    -0.232328060493E+04   -0.82419E-06   -0.12674E-04  3335   0.129E-02    0.397E-02
RMM:   4    -0.232328058719E+04    0.17744E-04   -0.20778E-05  2902   0.428E-03    0.188E-02
RMM:   5    -0.232328058748E+04   -0.28929E-06   -0.11872E-05  2893   0.292E-03
  57 F= -.23446711E+04 E0= -.23446711E+04  d E =-.361118E-02  mag=     4.0000
       N       E                     dE             d eps       ncg     rms          rms(c)
DAV:   1    -0.232327846610E+04    0.21211E-02   -0.16249E+00  4504   0.136E+00    0.312E-01
RMM:   2    -0.232328528116E+04   -0.68151E-02   -0.70178E-02  5319   0.215E-01    0.261E-01
RMM:   3    -0.232328557584E+04   -0.29469E-03   -0.62599E-03  4809   0.980E-02    0.300E-01
RMM:   4    -0.232328447927E+04    0.10966E-02   -0.96773E-04  5226   0.233E-02    0.101E-01
RMM:   5    -0.232328464976E+04   -0.17049E-03   -0.67211E-04  4986   0.189E-02    0.166E-01
RMM:   6    -0.232328434402E+04    0.30574E-03   -0.32276E-04  4755   0.122E-02    0.347E-02
RMM:   7    -0.232328433477E+04    0.92527E-05   -0.30371E-05  3006   0.626E-03
  58 F= -.23446744E+04 E0= -.23446744E+04  d E =-.333722E-02  mag=     4.0000
       N       E                     dE             d eps       ncg     rms          rms(c)
DAV:   1    -0.232328394636E+04    0.39767E-03   -0.19490E-01  4648   0.470E-01    0.109E-01
RMM:   2    -0.232328480193E+04   -0.85558E-03   -0.86109E-03  5571   0.756E-02    0.991E-02
RMM:   3    -0.232328482738E+04   -0.25445E-04   -0.73910E-04  4367   0.303E-02    0.106E-01
RMM:   4    -0.232328469075E+04    0.13662E-03   -0.11094E-04  3212   0.850E-03    0.357E-02
RMM:   5    -0.232328471837E+04   -0.27614E-04   -0.80248E-05  3047   0.714E-03    0.624E-02
RMM:   6    -0.232328467385E+04    0.44520E-04   -0.48848E-05  3016   0.647E-03    0.105E-02
RMM:   7    -0.232328467367E+04    0.18164E-06   -0.85129E-06  2901   0.427E-03
  59 F= -.23446746E+04 E0= -.23446746E+04  d E =-.353321E-02  mag=     4.0000
       N       E                     dE             d eps       ncg     rms          rms(c)
DAV:   1    -0.232328359438E+04    0.10795E-02   -0.13759E+00  4536   0.123E+00    0.280E-01
RMM:   2    -0.232328919439E+04   -0.56000E-02   -0.58267E-02  5366   0.193E-01    0.222E-01
RMM:   3    -0.232328950743E+04   -0.31304E-03   -0.51954E-03  4836   0.890E-02    0.269E-01
RMM:   4    -0.232328862384E+04    0.88359E-03   -0.80188E-04  5194   0.206E-02    0.919E-02
RMM:   5    -0.232328874488E+04   -0.12104E-03   -0.53485E-04  4716   0.164E-02    0.146E-01
RMM:   6    -0.232328851032E+04    0.23456E-03   -0.26343E-04  4450   0.111E-02    0.325E-02
RMM:   7    -0.232328850393E+04    0.63822E-05   -0.28302E-05  2982   0.599E-03
  60 F= -.23446781E+04 E0= -.23446781E+04  d E =-.342163E-02  mag=     4.0000
       N       E                     dE             d eps       ncg     rms          rms(c)
DAV:   1    -0.232328229799E+04    0.62123E-02   -0.20521E+00  4536   0.151E+00    0.343E-01
RMM:   2    -0.232329066290E+04   -0.83649E-02   -0.87058E-02  5356   0.236E-01    0.270E-01
RMM:   3    -0.232329112429E+04   -0.46138E-03   -0.77389E-03  4856   0.108E-01    0.328E-01
RMM:   4    -0.232328981771E+04    0.13066E-02   -0.11980E-03  5347   0.251E-02    0.113E-01
RMM:   5    -0.232328999293E+04   -0.17522E-03   -0.80763E-04  4993   0.198E-02    0.175E-01
RMM:   6    -0.232328965110E+04    0.34183E-03   -0.39346E-04  4874   0.132E-02    0.459E-02
RMM:   7    -0.232328964820E+04    0.28957E-05   -0.75320E-05  3031   0.692E-03
  61 F= -.23446787E+04 E0= -.23446787E+04  d E =-.406098E-02  mag=     4.0000
       N       E                     dE             d eps       ncg     rms          rms(c)
DAV:   1    -0.232328894182E+04    0.70928E-03   -0.22013E-01  4592   0.492E-01    0.110E-01
RMM:   2    -0.232328981916E+04   -0.87734E-03   -0.90665E-03  5625   0.777E-02    0.953E-02
RMM:   3    -0.232328985489E+04   -0.35730E-04   -0.81786E-04  4495   0.328E-02    0.106E-01
RMM:   4    -0.232328971391E+04    0.14098E-03   -0.11357E-04  3224   0.850E-03    0.372E-02
RMM:   5    -0.232328973749E+04   -0.23578E-04   -0.83304E-05  3057   0.720E-03    0.617E-02
RMM:   6    -0.232328969371E+04    0.43777E-04   -0.52527E-05  3034   0.651E-03    0.118E-02
RMM:   7    -0.232328969474E+04   -0.10267E-05   -0.10765E-05  2904   0.448E-03
  62 F= -.23446789E+04 E0= -.23446789E+04  d E =-.427333E-02  mag=     4.0000
       N       E                     dE             d eps       ncg     rms          rms(c)
DAV:   1    -0.232328870556E+04    0.98816E-03   -0.12878E+00  4504   0.119E+00    0.261E-01
RMM:   2    -0.232329426923E+04   -0.55637E-02   -0.57668E-02  5373   0.187E-01    0.219E-01
RMM:   3    -0.232329448819E+04   -0.21897E-03   -0.50180E-03  4830   0.837E-02    0.247E-01
RMM:   4    -0.232329375001E+04    0.73819E-03   -0.72048E-04  5118   0.194E-02    0.923E-02
RMM:   5    -0.232329386898E+04   -0.11898E-03   -0.51646E-04  4636   0.158E-02    0.145E-01
RMM:   6    -0.232329363513E+04    0.23385E-03   -0.26779E-04  4409   0.111E-02    0.312E-02
RMM:   7    -0.232329362733E+04    0.78051E-05   -0.25953E-05  2979   0.589E-03
  63 F= -.23446823E+04 E0= -.23446823E+04  d E =-.341751E-02  mag=     4.0000
       N       E                     dE             d eps       ncg     rms          rms(c)
DAV:   1    -0.232329183581E+04    0.17993E-02   -0.83752E-01  4504   0.957E-01    0.213E-01
RMM:   2    -0.232329550246E+04   -0.36667E-02   -0.37784E-02  5449   0.152E-01    0.181E-01
RMM:   3    -0.232329565409E+04   -0.15163E-03   -0.33150E-03  4864   0.673E-02    0.202E-01
RMM:   4    -0.232329516623E+04    0.48786E-03   -0.47150E-04  4812   0.158E-02    0.749E-02
RMM:   5    -0.232329524854E+04   -0.82309E-04   -0.33198E-04  4204   0.131E-02    0.119E-01
RMM:   6    -0.232329509472E+04    0.15382E-03   -0.18710E-04  3919   0.945E-03    0.272E-02
RMM:   7    -0.232329509279E+04    0.19257E-05   -0.28035E-05  2959   0.623E-03
  64 F= -.23446834E+04 E0= -.23446834E+04  d E =-.446476E-02  mag=     4.0000
       N       E                     dE             d eps       ncg     rms          rms(c)
DAV:   1    -0.232329500048E+04    0.94235E-04   -0.97922E-01  4504   0.105E+00    0.255E-01
RMM:   2    -0.232329916956E+04   -0.41691E-02   -0.43942E-02  5376   0.168E-01    0.185E-01
RMM:   3    -0.232329955122E+04   -0.38166E-03   -0.39160E-03  4844   0.764E-02    0.251E-01
RMM:   4    -0.232329880826E+04    0.74296E-03   -0.64550E-04  5115   0.185E-02    0.820E-02
RMM:   5    -0.232329887112E+04   -0.62860E-04   -0.40015E-04  4680   0.151E-02    0.115E-01
RMM:   6    -0.232329872609E+04    0.14504E-03   -0.17739E-04  3934   0.963E-03    0.326E-02
RMM:   7    -0.232329871877E+04    0.73162E-05   -0.23542E-05  2958   0.543E-03
  65 F= -.23446865E+04 E0= -.23446865E+04  d E =-.315136E-02  mag=     4.0000
       N       E                     dE             d eps       ncg     rms          rms(c)
DAV:   1    -0.232329813782E+04    0.58827E-03   -0.36073E-01  4528   0.634E-01    0.156E-01
RMM:   2    -0.232329969370E+04   -0.15559E-02   -0.16267E-02  5416   0.102E-01    0.116E-01
RMM:   3    -0.232329982667E+04   -0.13297E-03   -0.14793E-03  4791   0.464E-02    0.153E-01
RMM:   4    -0.232329955315E+04    0.27352E-03   -0.24093E-04  4178   0.114E-02    0.520E-02
RMM:   5    -0.232329958087E+04   -0.27720E-04   -0.15086E-04  3304   0.952E-03    0.747E-02
RMM:   6    -0.232329952189E+04    0.58977E-04   -0.87337E-05  3329   0.778E-03    0.236E-02
RMM:   7    -0.232329952200E+04   -0.11578E-06   -0.23803E-05  2919   0.565E-03
  66 F= -.23446870E+04 E0= -.23446870E+04  d E =-.366478E-02  mag=     4.0000
       N       E                     dE             d eps       ncg     rms          rms(c)
DAV:   1    -0.232329819844E+04    0.13234E-02   -0.12873E+00  4504   0.118E+00    0.262E-01
RMM:   2    -0.232330334294E+04   -0.51445E-02   -0.53706E-02  5257   0.185E-01    0.206E-01
RMM:   3    -0.232330365071E+04   -0.30777E-03   -0.47009E-03  4752   0.841E-02    0.261E-01
RMM:   4    -0.232330283838E+04    0.81233E-03   -0.71212E-04  5062   0.195E-02    0.866E-02
RMM:   5    -0.232330289531E+04   -0.56927E-04   -0.48250E-04  4803   0.160E-02    0.121E-01
RMM:   6    -0.232330273808E+04    0.15724E-03   -0.20791E-04  4148   0.103E-02    0.363E-02
RMM:   7    -0.232330272650E+04    0.11572E-04   -0.22456E-05  2959   0.508E-03    0.113E-02
RMM:   8    -0.232330272634E+04    0.15998E-06   -0.81067E-06  2916   0.315E-03
  67 F= -.23446898E+04 E0= -.23446898E+04  d E =-.272163E-02  mag=     4.0000
       N       E                     dE             d eps       ncg     rms          rms(c)
DAV:   1    -0.232330190897E+04    0.81754E-03   -0.44261E-01  4504   0.694E-01    0.154E-01
RMM:   2    -0.232330370662E+04   -0.17977E-02   -0.18493E-02  5312   0.108E-01    0.130E-01
RMM:   3    -0.232330378787E+04   -0.81254E-04   -0.16120E-03  4614   0.456E-02    0.154E-01
RMM:   4    -0.232330350373E+04    0.28414E-03   -0.23845E-04  4130   0.114E-02    0.507E-02
RMM:   5    -0.232330353673E+04   -0.32996E-04   -0.16472E-04  3731   0.979E-03    0.784E-02
RMM:   6    -0.232330346666E+04    0.70071E-04   -0.85317E-05  3177   0.742E-03    0.193E-02
RMM:   7    -0.232330346599E+04    0.66508E-06   -0.16089E-05  2933   0.496E-03
  68 F= -.23446902E+04 E0= -.23446902E+04  d E =-.317593E-02  mag=     4.0000
       N       E                     dE             d eps       ncg     rms          rms(c)
DAV:   1    -0.232330247534E+04    0.99131E-03   -0.12819E+00  4504   0.118E+00    0.249E-01
RMM:   2    -0.232330749899E+04   -0.50236E-02   -0.52574E-02  5210   0.182E-01    0.207E-01
RMM:   3    -0.232330766160E+04   -0.16261E-03   -0.45656E-03  4780   0.852E-02    0.241E-01
RMM:   4    -0.232330696205E+04    0.69955E-03   -0.67029E-04  5086   0.190E-02    0.874E-02
RMM:   5    -0.232330705883E+04   -0.96777E-04   -0.49398E-04  4668   0.157E-02    0.135E-01
RMM:   6    -0.232330685220E+04    0.20662E-03   -0.24586E-04  4447   0.107E-02    0.339E-02
RMM:   7    -0.232330684921E+04    0.29894E-05   -0.41195E-05  2961   0.591E-03
  69 F= -.23446931E+04 E0= -.23446931E+04  d E =-.286681E-02  mag=     4.0000
       N       E                     dE             d eps       ncg     rms          rms(c)
DAV:   1    -0.232330449707E+04    0.23551E-02   -0.98674E-01  4504   0.103E+00    0.220E-01
RMM:   2    -0.232330834425E+04   -0.38472E-02   -0.40479E-02  5262   0.160E-01    0.177E-01
RMM:   3    -0.232330850565E+04   -0.16140E-03   -0.34764E-03  4787   0.724E-02    0.212E-01
RMM:   4    -0.232330796737E+04    0.53828E-03   -0.51628E-04  4902   0.166E-02    0.771E-02
RMM:   5    -0.232330802918E+04   -0.61801E-04   -0.37571E-04  4470   0.140E-02    0.115E-01
RMM:   6    -0.232330788066E+04    0.14851E-03   -0.17990E-04  3961   0.952E-03    0.307E-02
RMM:   7    -0.232330787562E+04    0.50423E-05   -0.28971E-05  2956   0.558E-03
  70 F= -.23446937E+04 E0= -.23446937E+04  d E =-.343558E-02  mag=     4.0000
       N       E                     dE             d eps       ncg     rms          rms(c)
DAV:   1    -0.232330669626E+04    0.11844E-02   -0.10855E+00  4504   0.109E+00    0.237E-01
RMM:   2    -0.232331109393E+04   -0.43977E-02   -0.46040E-02  5258   0.169E-01    0.185E-01
RMM:   3    -0.232331131138E+04   -0.21746E-03   -0.40260E-03  4825   0.793E-02    0.225E-01
RMM:   4    -0.232331070598E+04    0.60540E-03   -0.58053E-04  5072   0.176E-02    0.809E-02
RMM:   5    -0.232331078350E+04   -0.77520E-04   -0.40789E-04  4511   0.145E-02    0.121E-01
RMM:   6    -0.232331062531E+04    0.15819E-03   -0.19130E-04  3942   0.975E-03    0.335E-02
RMM:   7    -0.232331062214E+04    0.31689E-05   -0.35030E-05  2954   0.588E-03
  71 F= -.23446959E+04 E0= -.23446959E+04  d E =-.219952E-02  mag=     4.0000
       N       E                     dE             d eps       ncg     rms          rms(c)
DAV:   1    -0.232330891720E+04    0.17081E-02   -0.72738E-01  4528   0.890E-01    0.195E-01
RMM:   2    -0.232331186698E+04   -0.29498E-02   -0.30936E-02  5283   0.139E-01    0.150E-01
RMM:   3    -0.232331202206E+04   -0.15508E-03   -0.26795E-03  4825   0.631E-02    0.185E-01
RMM:   4    -0.232331161541E+04    0.40664E-03   -0.38762E-04  4760   0.144E-02    0.664E-02
RMM:   5    -0.232331166077E+04   -0.45355E-04   -0.26884E-04  4200   0.121E-02    0.965E-02
RMM:   6    -0.232331156060E+04    0.10016E-03   -0.12392E-04  3391   0.825E-03    0.285E-02
RMM:   7    -0.232331155751E+04    0.30978E-05   -0.23963E-05  2940   0.538E-03
  72 F= -.23446963E+04 E0= -.23446963E+04  d E =-.268408E-02  mag=     4.0000
       N       E                     dE             d eps       ncg     rms          rms(c)
DAV:   1    -0.232331181999E+04   -0.25938E-03   -0.59895E-01  4504   0.813E-01    0.204E-01
RMM:   2    -0.232331428362E+04   -0.24636E-02   -0.26485E-02  5341   0.131E-01    0.134E-01
RMM:   3    -0.232331449866E+04   -0.21504E-03   -0.23939E-03  4842   0.643E-02    0.187E-01
RMM:   4    -0.232331408865E+04    0.41001E-03   -0.39982E-04  5043   0.148E-02    0.642E-02
RMM:   5    -0.232331409639E+04   -0.77428E-05   -0.24215E-04  4316   0.125E-02    0.764E-02
RMM:   6    -0.232331404009E+04    0.56308E-04   -0.85057E-05  3041   0.772E-03    0.310E-02
RMM:   7    -0.232331403170E+04    0.83881E-05   -0.15884E-05  2929   0.450E-03
  73 F= -.23446984E+04 E0= -.23446984E+04  d E =-.204536E-02  mag=     4.0000
       N       E                     dE             d eps       ncg     rms          rms(c)
DAV:   1    -0.232331389788E+04    0.14220E-03   -0.17653E-01  4624   0.442E-01    0.111E-01
RMM:   2    -0.232331462196E+04   -0.72408E-03   -0.77812E-03  5568   0.721E-02    0.725E-02
RMM:   3    -0.232331469026E+04   -0.68297E-04   -0.70257E-04  4490   0.339E-02    0.100E-01
RMM:   4    -0.232331457315E+04    0.11711E-03   -0.11308E-04  3147   0.837E-03    0.357E-02
RMM:   5    -0.232331457683E+04   -0.36722E-05   -0.77137E-05  3213   0.753E-03
  74 F= -.23446987E+04 E0= -.23446987E+04  d E =-.235706E-02  mag=     4.0000
       N       E                     dE             d eps       ncg     rms          rms(c)
DAV:   1    -0.232331523380E+04   -0.66064E-03   -0.40459E-01  4504   0.664E-01    0.186E-01
RMM:   2    -0.232331675057E+04   -0.15168E-02   -0.16704E-02  5664   0.108E-01    0.112E-01
RMM:   3    -0.232331696812E+04   -0.21754E-03   -0.16186E-03  5145   0.507E-02    0.173E-01
RMM:   4    -0.232331660945E+04    0.35867E-03   -0.30255E-04  4640   0.128E-02    0.496E-02
RMM:   5    -0.232331657942E+04    0.30032E-04   -0.14866E-04  4160   0.105E-02    0.223E-02
RMM:   6    -0.232331658354E+04   -0.41256E-05   -0.38009E-05  2986   0.678E-03
  75 F= -.23447004E+04 E0= -.23447004E+04  d E =-.168204E-02  mag=     4.0000
       N       E                     dE             d eps       ncg     rms          rms(c)
DAV:   1    -0.232331360698E+04    0.29724E-02   -0.93205E-01  4504   0.101E+00    0.282E-01
RMM:   2    -0.232331722818E+04   -0.36212E-02   -0.38979E-02  5235   0.161E-01    0.185E-01
RMM:   3    -0.232331779471E+04   -0.56653E-03   -0.37553E-03  4726   0.738E-02    0.294E-01
RMM:   4    -0.232331677439E+04    0.10203E-02   -0.77688E-04  5005   0.193E-02    0.779E-02
RMM:   5    -0.232331682962E+04   -0.55232E-04   -0.41335E-04  4811   0.153E-02    0.111E-01
RMM:   6    -0.232331669004E+04    0.13958E-03   -0.16780E-04  3933   0.923E-03    0.308E-02
RMM:   7    -0.232331668660E+04    0.34425E-05   -0.30618E-05  2933   0.540E-03
  76 F= -.23447000E+04 E0= -.23447000E+04  d E =-.129168E-02  mag=     4.0000
       N       E                     dE             d eps       ncg     rms          rms(c)
DAV:   1    -0.232331599759E+04    0.69245E-03   -0.32741E-01  4516   0.597E-01    0.165E-01
RMM:   2    -0.232331722945E+04   -0.12319E-02   -0.13413E-02  5412   0.953E-02    0.108E-01
RMM:   3    -0.232331740902E+04   -0.17956E-03   -0.12736E-03  4724   0.417E-02    0.167E-01
RMM:   4    -0.232331707620E+04    0.33282E-03   -0.25405E-04  4233   0.114E-02    0.472E-02
RMM:   5    -0.232331710303E+04   -0.26827E-04   -0.14454E-04  3563   0.965E-03    0.699E-02
RMM:   6    -0.232331704671E+04    0.56311E-04   -0.68298E-05  3077   0.702E-03    0.187E-02
RMM:   7    -0.232331704794E+04   -0.12288E-05   -0.18061E-05  2917   0.502E-03
  77 F= -.23447006E+04 E0= -.23447006E+04  d E =-.194514E-02  mag=     4.0000
       N       E                     dE             d eps       ncg     rms          rms(c)
DAV:   1    -0.232331775757E+04   -0.71086E-03   -0.35599E-01  4504   0.618E-01    0.145E-01
RMM:   2    -0.232331913541E+04   -0.13778E-02   -0.14665E-02  5327   0.972E-02    0.108E-01
RMM:   3    -0.232331924123E+04   -0.10582E-03   -0.13129E-03  4625   0.448E-02    0.144E-01
RMM:   4    -0.232331899382E+04    0.24741E-03   -0.21409E-04  4013   0.108E-02    0.480E-02
RMM:   5    -0.232331901814E+04   -0.24322E-04   -0.14335E-04  3566   0.924E-03    0.725E-02
RMM:   6    -0.232331896103E+04    0.57111E-04   -0.70425E-05  3063   0.704E-03    0.176E-02
RMM:   7    -0.232331895948E+04    0.15556E-05   -0.11958E-05  2907   0.452E-03
  78 F= -.23447022E+04 E0= -.23447022E+04  d E =-.156642E-02  mag=     4.0000
       N       E                     dE             d eps       ncg     rms          rms(c)
DAV:   1    -0.232331762561E+04    0.13354E-02   -0.73048E-01  4504   0.886E-01    0.209E-01
RMM:   2    -0.232332045926E+04   -0.28336E-02   -0.30353E-02  5203   0.139E-01    0.147E-01
RMM:   3    -0.232332069359E+04   -0.23433E-03   -0.27434E-03  4761   0.672E-02    0.204E-01
RMM:   4    -0.232332020391E+04    0.48969E-03   -0.44921E-04  4952   0.154E-02    0.691E-02
RMM:   5    -0.232332023431E+04   -0.30407E-04   -0.29712E-04  4342   0.128E-02    0.938E-02
RMM:   6    -0.232332014000E+04    0.94310E-04   -0.11470E-04  3280   0.828E-03    0.276E-02
RMM:   7    -0.232332013214E+04    0.78662E-05   -0.14065E-05  2934   0.469E-03
  79 F= -.23447029E+04 E0= -.23447029E+04  d E =-.224419E-02  mag=     4.0000
       N       E                     dE             d eps       ncg     rms          rms(c)
DAV:   1    -0.232332083850E+04   -0.69850E-03   -0.32205E-01  4544   0.593E-01    0.142E-01
RMM:   2    -0.232332204147E+04   -0.12030E-02   -0.12877E-02  5283   0.932E-02    0.934E-02
RMM:   3    -0.232332217486E+04   -0.13339E-03   -0.11900E-03  4606   0.457E-02    0.140E-01
RMM:   4    -0.232332194717E+04    0.22770E-03   -0.19331E-04  3729   0.103E-02    0.448E-02
RMM:   5    -0.232332196214E+04   -0.14975E-04   -0.11875E-04  3598   0.888E-03    0.602E-02
RMM:   6    -0.232332192325E+04    0.38890E-04   -0.49580E-05  2988   0.652E-03    0.174E-02
RMM:   7    -0.232332192159E+04    0.16559E-05   -0.88308E-06  2902   0.377E-03
  80 F= -.23447043E+04 E0= -.23447043E+04  d E =-.145483E-02  mag=     4.0000
       N       E                     dE             d eps       ncg     rms          rms(c)
DAV:   1    -0.232332058136E+04    0.13419E-02   -0.80351E-01  4504   0.935E-01    0.224E-01
RMM:   2    -0.232332356870E+04   -0.29873E-02   -0.32136E-02  5173   0.147E-01    0.143E-01
RMM:   3    -0.232332385248E+04   -0.28378E-03   -0.28856E-03  4719   0.722E-02    0.213E-01
RMM:   4    -0.232332333116E+04    0.52132E-03   -0.49143E-04  5028   0.159E-02    0.732E-02
RMM:   5    -0.232332336216E+04   -0.30995E-04   -0.29951E-04  4267   0.128E-02    0.959E-02
RMM:   6    -0.232332326727E+04    0.94887E-04   -0.13381E-04  3342   0.877E-03    0.316E-02
RMM:   7    -0.232332326456E+04    0.27066E-05   -0.30047E-05  2935   0.551E-03
  81 F= -.23447052E+04 E0= -.23447052E+04  d E =-.226843E-02  mag=     4.0000
       N       E                     dE             d eps       ncg     rms          rms(c)
DAV:   1    -0.232332406118E+04   -0.79391E-03   -0.30506E-01  4528   0.570E-01    0.143E-01
RMM:   2    -0.232332511614E+04   -0.10550E-02   -0.11744E-02  5252   0.910E-02    0.824E-02
RMM:   3    -0.232332519086E+04   -0.74715E-04   -0.10490E-03  4613   0.454E-02    0.116E-01
RMM:   4    -0.232332505169E+04    0.13917E-03   -0.17695E-04  3703   0.102E-02    0.517E-02
RMM:   5    -0.232332503382E+04    0.17865E-04   -0.11776E-04  3947   0.949E-03    0.375E-02
RMM:   6    -0.232332502419E+04    0.96346E-05   -0.34140E-05  2958   0.634E-03
  82 F= -.23447066E+04 E0= -.23447066E+04  d E =-.142497E-02  mag=     4.0000
       N       E                     dE             d eps       ncg     rms          rms(c)
DAV:   1    -0.232332495747E+04    0.76353E-04   -0.20274E-01  4592   0.464E-01    0.117E-01
RMM:   2    -0.232332567266E+04   -0.71519E-03   -0.79512E-03  5175   0.739E-02    0.681E-02
RMM:   3    -0.232332570807E+04   -0.35414E-04   -0.67920E-04  4384   0.336E-02    0.940E-02
RMM:   4    -0.232332562134E+04    0.86735E-04   -0.11681E-04  3209   0.821E-03    0.446E-02
RMM:   5    -0.232332562160E+04   -0.26435E-06   -0.87151E-05  3165   0.751E-03
  83 F= -.23447069E+04 E0= -.23447069E+04  d E =-.174917E-02  mag=     4.0000
       N       E                     dE             d eps       ncg     rms          rms(c)
DAV:   1    -0.232332639376E+04   -0.77242E-03   -0.28974E-01  4504   0.552E-01    0.143E-01
RMM:   2    -0.232332732764E+04   -0.93388E-03   -0.10266E-02  5629   0.882E-02    0.894E-02
RMM:   3    -0.232332746394E+04   -0.13630E-03   -0.97209E-04  4867   0.394E-02    0.141E-01
RMM:   4    -0.232332723361E+04    0.23033E-03   -0.17671E-04  3531   0.102E-02    0.432E-02
RMM:   5    -0.232332724603E+04   -0.12416E-04   -0.12740E-04  3737   0.903E-03    0.552E-02
RMM:   6    -0.232332721122E+04    0.34807E-04   -0.43207E-05  2995   0.664E-03    0.174E-02
RMM:   7    -0.232332721118E+04    0.41968E-07   -0.12297E-05  2909   0.357E-03
  84 F= -.23447081E+04 E0= -.23447081E+04  d E =-.124174E-02  mag=     4.0000
       N       E                     dE             d eps       ncg     rms          rms(c)
DAV:   1    -0.232332718853E+04    0.22691E-04   -0.25556E-01  4528   0.518E-01    0.133E-01
RMM:   2    -0.232332800350E+04   -0.81497E-03   -0.90129E-03  5253   0.810E-02    0.775E-02
RMM:   3    -0.232332810744E+04   -0.10394E-03   -0.82278E-04  4486   0.401E-02    0.125E-01
[...]
RMM:   5    -0.232339187043E+04    0.87149E-06   -0.64504E-06  2871   0.238E-03
 260 F= -.23447465E+04 E0= -.23447465E+04  d E =-.178169E-03  mag=     4.0000
       N       E                     dE             d eps       ncg     rms          rms(c)
DAV:   1    -0.232339195810E+04   -0.86795E-04   -0.15397E-02  4528   0.103E-01    0.467E-02
RMM:   2    -0.232339200101E+04   -0.42914E-04   -0.47236E-04  5275   0.191E-02    0.344E-02
RMM:   3    -0.232339202097E+04   -0.19960E-04   -0.75483E-05  2993   0.929E-03    0.549E-02
RMM:   4    -0.232339198656E+04    0.34414E-04   -0.22820E-05  2917   0.405E-03    0.118E-02
RMM:   5    -0.232339198986E+04   -0.32957E-05   -0.12861E-05  2898   0.291E-03
 261 F= -.23447466E+04 E0= -.23447466E+04  d E =-.248404E-03  mag=     4.0000
       N       E                     dE             d eps       ncg     rms          rms(c)
DAV:   1    -0.232339216835E+04   -0.18179E-03   -0.14796E-02  4548   0.978E-02    0.444E-02
RMM:   2    -0.232339220561E+04   -0.37253E-04   -0.43904E-04  5024   0.183E-02    0.317E-02
RMM:   3    -0.232339222018E+04   -0.14575E-04   -0.66247E-05  2968   0.876E-03    0.489E-02
RMM:   4    -0.232339219467E+04    0.25511E-04   -0.22608E-05  2922   0.386E-03    0.152E-02
RMM:   5    -0.232339219561E+04   -0.93528E-06   -0.11866E-05  2863   0.268E-03
 262 F= -.23447467E+04 E0= -.23447467E+04  d E =-.140711E-03  mag=     4.0000
       N       E                     dE             d eps       ncg     rms          rms(c)
DAV:   1    -0.232339223118E+04   -0.36507E-04   -0.30438E-03  5168   0.448E-02    0.212E-02
RMM:   2    -0.232339224234E+04   -0.11160E-04   -0.92170E-05  3463   0.911E-03    0.231E-02
RMM:   3    -0.232339223983E+04    0.25071E-05   -0.17160E-05  2933   0.551E-03
 263 F= -.23447468E+04 E0= -.23447468E+04  d E =-.155074E-03  mag=     4.0000
       N       E                     dE             d eps       ncg     rms          rms(c)
DAV:   1    -0.232339248494E+04   -0.24260E-03   -0.16039E-02  4516   0.107E-01    0.502E-02
RMM:   2    -0.232339251345E+04   -0.28512E-04   -0.39846E-04  4891   0.187E-02    0.288E-02
RMM:   3    -0.232339253645E+04   -0.22998E-04   -0.58857E-05  3029   0.888E-03    0.555E-02
RMM:   4    -0.232339250209E+04    0.34362E-04   -0.30937E-05  2921   0.414E-03    0.128E-02
RMM:   5    -0.232339250523E+04   -0.31398E-05   -0.12367E-05  2895   0.301E-03
 264 F= -.23447469E+04 E0= -.23447469E+04  d E =-.160105E-03  mag=     4.0000
       N       E                     dE             d eps       ncg     rms          rms(c)
DAV:   1    -0.232339255964E+04   -0.57550E-04   -0.35621E-03  5040   0.509E-02    0.234E-02
RMM:   2    -0.232339256733E+04   -0.76984E-05   -0.91464E-05  3703   0.104E-02
 265 F= -.23447469E+04 E0= -.23447469E+04  d E =-.172118E-03  mag=     4.0000
       N       E                     dE             d eps       ncg     rms          rms(c)
DAV:   1    -0.232339278432E+04   -0.22468E-03   -0.14276E-02  4528   0.995E-02    0.546E-02
RMM:   2    -0.232339289809E+04   -0.11377E-03   -0.52271E-04  5231   0.215E-02    0.917E-02
RMM:   3    -0.232339281202E+04    0.86070E-04   -0.12025E-04  3026   0.914E-03    0.360E-02
RMM:   4    -0.232339280838E+04    0.36366E-05   -0.31033E-05  2943   0.443E-03
 266 F= -.23447471E+04 E0= -.23447471E+04  d E =-.143503E-03  mag=     4.0000
       N       E                     dE             d eps       ncg     rms          rms(c)
DAV:   1    -0.232339285939E+04   -0.47373E-04   -0.38955E-03  5112   0.530E-02    0.315E-02
RMM:   2    -0.232339288714E+04   -0.27748E-04   -0.12664E-04  3704   0.109E-02    0.490E-02
RMM:   3    -0.232339286565E+04    0.21492E-04   -0.35763E-05  2926   0.652E-03    0.217E-02
RMM:   4    -0.232339286233E+04    0.33161E-05   -0.84619E-06  2898   0.274E-03
 267 F= -.23447471E+04 E0= -.23447471E+04  d E =-.145787E-03  mag=     4.0000
       N       E                     dE             d eps       ncg     rms          rms(c)
DAV:   1    -0.232339303052E+04   -0.16487E-03   -0.16168E-02  4528   0.104E-01    0.484E-02
RMM:   2    -0.232339308562E+04   -0.55097E-04   -0.51241E-04  5472   0.194E-02    0.468E-02
RMM:   3    -0.232339308655E+04   -0.93505E-06   -0.77462E-05  2985   0.846E-03
 268 F= -.23447473E+04 E0= -.23447473E+04  d E =-.174779E-03  mag=     4.0000
       N       E                     dE             d eps       ncg     rms          rms(c)
DAV:   1    -0.232339309343E+04   -0.78121E-05   -0.38363E-03  4968   0.524E-02    0.318E-02
RMM:   2    -0.232339310401E+04   -0.10584E-04   -0.13460E-04  3850   0.105E-02    0.281E-02
RMM:   3    -0.232339310324E+04    0.77166E-06   -0.30867E-05  2937   0.571E-03
 269 F= -.23447472E+04 E0= -.23447472E+04  d E =-.166988E-03  mag=     4.0000
       N       E                     dE             d eps       ncg     rms          rms(c)
DAV:   1    -0.232339325782E+04   -0.15381E-03   -0.20725E-02  4504   0.120E-01    0.572E-02
RMM:   2    -0.232339331356E+04   -0.55736E-04   -0.56548E-04  5229   0.217E-02    0.499E-02
RMM:   3    -0.232339331509E+04   -0.15329E-05   -0.10059E-04  3071   0.103E-02    0.546E-02
RMM:   4    -0.232339328176E+04    0.33329E-04   -0.35182E-05  2933   0.505E-03    0.206E-02
RMM:   5    -0.232339328157E+04    0.18609E-06   -0.19420E-05  2902   0.363E-03
 270 F= -.23447474E+04 E0= -.23447474E+04  d E =-.137003E-03  mag=     4.0000
       N       E                     dE             d eps       ncg     rms          rms(c)
DAV:   1    -0.232339327948E+04    0.22859E-05   -0.10478E-04  5280   0.107E-02    0.860E-03
RMM:   2    -0.232339328721E+04   -0.77336E-05   -0.14098E-05  2681   0.296E-03
 271 F= -.23447474E+04 E0= -.23447474E+04  d E =-.139474E-03  mag=     4.0000
       N       E                     dE             d eps       ncg     rms          rms(c)
DAV:   1    -0.232339348513E+04   -0.20565E-03   -0.20591E-02  4504   0.119E-01    0.543E-02
RMM:   2    -0.232339351697E+04   -0.31839E-04   -0.48814E-04  5144   0.208E-02    0.273E-02
RMM:   3    -0.232339351705E+04   -0.80327E-07   -0.49726E-05  3253   0.111E-02
 272 F= -.23447475E+04 E0= -.23447475E+04  d E =-.139220E-03  mag=     4.0000
       N       E                     dE             d eps       ncg     rms          rms(c)
DAV:   1    -0.232339352518E+04   -0.82148E-05   -0.76747E-04  5544   0.265E-02    0.247E-02
RMM:   2    -0.232339355993E+04   -0.34746E-04   -0.60374E-05  2960   0.638E-03    0.582E-02
RMM:   3    -0.232339352159E+04    0.38331E-04   -0.23973E-05  2837   0.431E-03    0.119E-02
RMM:   4    -0.232339352315E+04   -0.15550E-05   -0.75466E-06  2789   0.204E-03
 273 F= -.23447475E+04 E0= -.23447475E+04  d E =-.127398E-03  mag=     4.0000
       N       E                     dE             d eps       ncg     rms          rms(c)
DAV:   1    -0.232339375593E+04   -0.23434E-03   -0.18714E-02  4504   0.113E-01    0.509E-02
RMM:   2    -0.232339378977E+04   -0.33841E-04   -0.46031E-04  5190   0.197E-02    0.306E-02
RMM:   3    -0.232339381516E+04   -0.25382E-04   -0.72361E-05  3112   0.106E-02    0.587E-02
RMM:   4    -0.232339377712E+04    0.38038E-04   -0.30780E-05  2923   0.433E-03    0.138E-02
RMM:   5    -0.232339377913E+04   -0.20135E-05   -0.13951E-05  2904   0.313E-03
 274 F= -.23447476E+04 E0= -.23447476E+04  d E =-.136741E-03  mag=     4.0000
       N       E                     dE             d eps       ncg     rms          rms(c)
DAV:   1    -0.232339379713E+04   -0.20008E-04   -0.55556E-04  5360   0.208E-02    0.973E-03
RMM:   2    -0.232339379948E+04   -0.23533E-05   -0.17584E-05  2769   0.463E-03
 275 F= -.23447476E+04 E0= -.23447476E+04  d E =-.136052E-03  mag=     4.0000
       N       E                     dE             d eps       ncg     rms          rms(c)
DAV:   1    -0.232339399224E+04   -0.19511E-03   -0.20970E-02  4536   0.131E-01    0.593E-02
RMM:   2    -0.232339404322E+04   -0.50985E-04   -0.66364E-04  5585   0.242E-02    0.332E-02
RMM:   3    -0.232339407358E+04   -0.30360E-04   -0.95717E-05  3226   0.111E-02    0.631E-02
RMM:   4    -0.232339402748E+04    0.46103E-04   -0.34235E-05  2926   0.506E-03    0.141E-02
RMM:   5    -0.232339403111E+04   -0.36297E-05   -0.16969E-05  2913   0.357E-03
 276 F= -.23447478E+04 E0= -.23447478E+04  d E =-.154125E-03  mag=     4.0000
       N       E                     dE             d eps       ncg     rms          rms(c)
DAV:   1    -0.232339403686E+04   -0.93795E-05   -0.50799E-04  5400   0.220E-02    0.104E-02
RMM:   2    -0.232339404035E+04   -0.34891E-05   -0.21279E-05  2796   0.499E-03
 277 F= -.23447478E+04 E0= -.23447478E+04  d E =-.150896E-03  mag=     4.0000
       N       E                     dE             d eps       ncg     rms          rms(c)
DAV:   1    -0.232339417540E+04   -0.13854E-03   -0.15988E-02  4504   0.108E-01    0.495E-02
RMM:   2    -0.232339421332E+04   -0.37919E-04   -0.51521E-04  5323   0.209E-02    0.258E-02
RMM:   3    -0.232339422153E+04   -0.82108E-05   -0.57803E-05  3061   0.965E-03
 278 F= -.23447479E+04 E0= -.23447479E+04  d E =-.125906E-03  mag=     4.0000
       N       E                     dE             d eps       ncg     rms          rms(c)
DAV:   1    -0.232339421265E+04    0.67300E-06   -0.27331E-04  5384   0.181E-02    0.179E-02
RMM:   2    -0.232339422533E+04   -0.12677E-04   -0.26850E-05  2900   0.425E-03    0.358E-02
RMM:   3    -0.232339421148E+04    0.13847E-04   -0.11365E-05  2535   0.293E-03    0.979E-03
RMM:   4    -0.232339421207E+04   -0.58726E-06   -0.43220E-06  2464   0.160E-03
 279 F= -.23447479E+04 E0= -.23447479E+04  d E =-.109120E-03  mag=     4.0000
       N       E                     dE             d eps       ncg     rms          rms(c)
DAV:   1    -0.232339438570E+04   -0.17423E-03   -0.15577E-02  4528   0.107E-01    0.490E-02
RMM:   2    -0.232339441461E+04   -0.28904E-04   -0.40755E-04  4931   0.183E-02    0.243E-02
RMM:   3    -0.232339442554E+04   -0.10932E-04   -0.48033E-05  3061   0.101E-02    0.420E-02
RMM:   4    -0.232339440663E+04    0.18907E-04   -0.20078E-05  2915   0.368E-03    0.135E-02
RMM:   5    -0.232339440670E+04   -0.61758E-07   -0.93080E-06  2873   0.290E-03
 280 F= -.23447480E+04 E0= -.23447480E+04  d E =-.117563E-03  mag=     4.0000
       N       E                     dE             d eps       ncg     rms          rms(c)
DAV:   1    -0.232339441555E+04   -0.89150E-05   -0.30020E-04  5328   0.160E-02    0.791E-03
RMM:   2    -0.232339441734E+04   -0.17887E-05   -0.10925E-05  2617   0.370E-03
 281 F= -.23447480E+04 E0= -.23447480E+04  d E =-.117179E-03  mag=     4.0000
       N       E                     dE             d eps       ncg     rms          rms(c)
DAV:   1    -0.232339458144E+04   -0.16589E-03   -0.12262E-02  4528   0.997E-02    0.465E-02
RMM:   2    -0.232339460998E+04   -0.28540E-04   -0.35934E-04  5007   0.185E-02    0.294E-02
RMM:   3    -0.232339463513E+04   -0.25144E-04   -0.68528E-05  3071   0.956E-03    0.570E-02
RMM:   4    -0.232339459827E+04    0.36854E-04   -0.25164E-05  2914   0.425E-03    0.105E-02
RMM:   5    -0.232339460185E+04   -0.35813E-05   -0.10978E-05  2891   0.284E-03
 282 F= -.23447481E+04 E0= -.23447481E+04  d E =-.109049E-03  mag=     4.0000
       N       E                     dE             d eps       ncg     rms          rms(c)
DAV:   1    -0.232339461540E+04   -0.17128E-04   -0.58785E-04  5440   0.231E-02    0.103E-02
RMM:   2    -0.232339461716E+04   -0.17614E-05   -0.19001E-05  2761   0.504E-03
 283 F= -.23447481E+04 E0= -.23447481E+04  d E =-.107309E-03  mag=     4.0000
       N       E                     dE             d eps       ncg     rms          rms(c)
DAV:   1    -0.232339473154E+04   -0.11614E-03   -0.10984E-02  4528   0.938E-02    0.423E-02
RMM:   2    -0.232339477026E+04   -0.38717E-04   -0.44975E-04  5364   0.191E-02    0.292E-02
RMM:   3    -0.232339478659E+04   -0.16331E-04   -0.65544E-05  2980   0.844E-03    0.467E-02
RMM:   4    -0.232339476132E+04    0.25264E-04   -0.19258E-05  2914   0.406E-03    0.121E-02
RMM:   5    -0.232339476506E+04   -0.37386E-05   -0.10425E-05  2888   0.276E-03
 284 F= -.23447482E+04 E0= -.23447482E+04  d E =-.101416E-03  mag=     4.0000
       N       E                     dE             d eps       ncg     rms          rms(c)
DAV:   1    -0.232339476803E+04   -0.67054E-05   -0.31373E-04  5336   0.170E-02    0.829E-03
RMM:   2    -0.232339477094E+04   -0.29096E-05   -0.18286E-05  2707   0.402E-03
 285 F= -.23447482E+04 E0= -.23447482E+04  d E =-.991338E-04  mag=     4.0000
       N       E                     dE             d eps       ncg     rms          rms(c)
DAV:   1    -0.232339487951E+04   -0.11148E-03   -0.95464E-03  4528   0.851E-02    0.392E-02
RMM:   2    -0.232339490832E+04   -0.28814E-04   -0.30624E-04  4791   0.167E-02    0.315E-02
RMM:   3    -0.232339492039E+04   -0.12068E-04   -0.56075E-05  2962   0.813E-03    0.462E-02
RMM:   4    -0.232339489628E+04    0.24110E-04   -0.16082E-05  2913   0.376E-03    0.931E-03
RMM:   5    -0.232339489890E+04   -0.26216E-05   -0.87529E-06  2874   0.259E-03
 286 F= -.23447483E+04 E0= -.23447483E+04  d E =-.977039E-04  mag=     4.0000
       N       E                     dE             d eps       ncg     rms          rms(c)
DAV:   1    -0.232339490666E+04   -0.10378E-04   -0.81005E-04  5304   0.256E-02    0.114E-02
RMM:   2    -0.232339490922E+04   -0.25646E-05   -0.27445E-05  2921   0.568E-03
 287 F= -.23447483E+04 E0= -.23447483E+04  d E =-.990190E-04  mag=     4.0000
       N       E                     dE             d eps       ncg     rms          rms(c)
DAV:   1    -0.232339504908E+04   -0.14242E-03   -0.10150E-02  4504   0.862E-02    0.416E-02
RMM:   2    -0.232339508322E+04   -0.34144E-04   -0.29673E-04  4757   0.177E-02    0.429E-02
RMM:   3    -0.232339507806E+04    0.51634E-05   -0.56315E-05  2991   0.787E-03
 288 F= -.23447484E+04 E0= -.23447484E+04  d E =-.113214E-03  mag=     4.0000
       N       E                     dE             d eps       ncg     rms          rms(c)
DAV:   1    -0.232339507762E+04    0.55968E-05   -0.53798E-04  5592   0.225E-02    0.192E-02
RMM:   2    -0.232339509287E+04   -0.15252E-04   -0.37119E-05  2940   0.514E-03    0.394E-02
RMM:   3    -0.232339507630E+04    0.16570E-04   -0.13249E-05  2613   0.349E-03    0.111E-02
RMM:   4    -0.232339507728E+04   -0.97131E-06   -0.57325E-06  2459   0.170E-03
 289 F= -.23447484E+04 E0= -.23447484E+04  d E =-.991355E-04  mag=     4.0000
       N       E                     dE             d eps       ncg     rms          rms(c)
DAV:   1    -0.232339521756E+04   -0.14126E-03   -0.91165E-03  4516   0.823E-02    0.365E-02
RMM:   2    -0.232339524085E+04   -0.23284E-04   -0.29943E-04  4884   0.153E-02    0.221E-02
RMM:   3    -0.232339525357E+04   -0.12725E-04   -0.39911E-05  2959   0.813E-03    0.410E-02
RMM:   4    -0.232339523470E+04    0.18871E-04   -0.15411E-05  2908   0.322E-03    0.101E-02
RMM:   5    -0.232339523561E+04   -0.90743E-06   -0.69754E-06  2827   0.236E-03
 290 F= -.23447485E+04 E0= -.23447485E+04  d E =-.858245E-04  mag=     4.0000
       N       E                     dE             d eps       ncg     rms          rms(c)
DAV:   1    -0.232339524879E+04   -0.14091E-04   -0.31431E-04  5304   0.161E-02    0.759E-03
RMM:   2    -0.232339525030E+04   -0.15052E-05   -0.12523E-05  2597   0.372E-03
 291 F= -.23447485E+04 E0= -.23447485E+04  d E =-.867358E-04  mag=     4.0000
       N       E                     dE             d eps       ncg     rms          rms(c)
DAV:   1    -0.232339538413E+04   -0.13533E-03   -0.96537E-03  4528   0.870E-02    0.398E-02
RMM:   2    -0.232339541262E+04   -0.28498E-04   -0.35672E-04  5048   0.174E-02    0.246E-02
RMM:   3    -0.232339542947E+04   -0.16848E-04   -0.51419E-05  2960   0.831E-03    0.463E-02
RMM:   4    -0.232339540499E+04    0.24480E-04   -0.18086E-05  2909   0.378E-03    0.102E-02
RMM:   5    -0.232339540652E+04   -0.15274E-05   -0.90563E-06  2875   0.259E-03
 292 F= -.23447486E+04 E0= -.23447486E+04  d E =-.963896E-04  mag=     4.0000
       N       E                     dE             d eps       ncg     rms          rms(c)
DAV:   1    -0.232339541597E+04   -0.10978E-04   -0.35727E-04  5312   0.176E-02    0.828E-03
RMM:   2    -0.232339541794E+04   -0.19714E-05   -0.15982E-05  2660   0.414E-03
 293 F= -.23447486E+04 E0= -.23447486E+04  d E =-.959775E-04  mag=     4.0000
       N       E                     dE             d eps       ncg     rms          rms(c)
DAV:   1    -0.232339552237E+04   -0.10640E-03   -0.76998E-03  4528   0.731E-02    0.341E-02
RMM:   2    -0.232339554197E+04   -0.19600E-04   -0.26287E-04  4631   0.153E-02    0.192E-02
RMM:   3    -0.232339554871E+04   -0.67383E-05   -0.33366E-05  2926   0.736E-03
 294 F= -.23447487E+04 E0= -.23447487E+04  d E =-.914809E-04  mag=     4.0000
       N       E                     dE             d eps       ncg     rms          rms(c)
DAV:   1    -0.232339554828E+04   -0.63083E-05   -0.34544E-04  5472   0.180E-02    0.141E-02
RMM:   2    -0.232339555341E+04   -0.51317E-05   -0.19320E-05  2801   0.411E-03
 295 F= -.23447487E+04 E0= -.23447487E+04  d E =-.877063E-04  mag=     4.0000
       N       E                     dE             d eps       ncg     rms          rms(c)
DAV:   1    -0.232339569822E+04   -0.14994E-03   -0.88123E-03  4504   0.794E-02    0.391E-02
RMM:   2    -0.232339571589E+04   -0.17672E-04   -0.26340E-04  4594   0.158E-02    0.218E-02
RMM:   3    -0.232339572447E+04   -0.85728E-05   -0.35508E-05  2957   0.811E-03
 296 F= -.23447488E+04 E0= -.23447488E+04  d E =-.109713E-03  mag=     4.0000
       N       E                     dE             d eps       ncg     rms          rms(c)
DAV:   1    -0.232339573215E+04   -0.16253E-04   -0.67543E-04  5576   0.247E-02    0.182E-02
RMM:   2    -0.232339574289E+04   -0.10743E-04   -0.32825E-05  2969   0.547E-03    0.321E-02
RMM:   3    -0.232339573234E+04    0.10548E-04   -0.12346E-05  2596   0.358E-03    0.110E-02
RMM:   4    -0.232339573183E+04    0.50571E-06   -0.36226E-06  2537   0.167E-03
 297 F= -.23447488E+04 E0= -.23447488E+04  d E =-.996949E-04  mag=     4.0000
       N       E                     dE             d eps       ncg     rms          rms(c)
DAV:   1    -0.232339585909E+04   -0.12675E-03   -0.89947E-03  4516   0.803E-02    0.362E-02
RMM:   2    -0.232339588328E+04   -0.24193E-04   -0.32457E-04  5104   0.154E-02    0.189E-02
RMM:   3    -0.232339588192E+04    0.13617E-05   -0.27767E-05  2938   0.790E-03
 298 F= -.23447489E+04 E0= -.23447489E+04  d E =-.835141E-04  mag=     4.0000
       N       E                     dE             d eps       ncg     rms          rms(c)
DAV:   1    -0.232339589369E+04   -0.10404E-04   -0.24984E-04  5392   0.154E-02    0.192E-02
RMM:   2    -0.232339592584E+04   -0.32149E-04   -0.49303E-05  2933   0.452E-03    0.542E-02
RMM:   3    -0.232339589116E+04    0.34672E-04   -0.17964E-05  2600   0.347E-03    0.738E-03
RMM:   4    -0.232339589239E+04   -0.12273E-05   -0.36922E-06  2309   0.135E-03
 299 F= -.23447489E+04 E0= -.23447489E+04  d E =-.826087E-04  mag=     4.0000
       N       E                     dE             d eps       ncg     rms          rms(c)
DAV:   1    -0.232339601109E+04   -0.11993E-03   -0.82550E-03  4528   0.784E-02    0.360E-02
RMM:   2    -0.232339603004E+04   -0.18950E-04   -0.25350E-04  4629   0.140E-02    0.217E-02
RMM:   3    -0.232339604515E+04   -0.15114E-04   -0.43672E-05  2945   0.849E-03    0.438E-02
RMM:   4    -0.232339602371E+04    0.21441E-04   -0.14585E-05  2904   0.311E-03    0.824E-03
RMM:   5    -0.232339602470E+04   -0.98618E-06   -0.55487E-06  2827   0.228E-03
 300 F= -.23447490E+04 E0= -.23447490E+04  d E =-.901074E-04  mag=     4.0000
       N       E                     dE             d eps       ncg     rms          rms(c)
DAV:   1    -0.232339603777E+04   -0.14055E-04   -0.78536E-04  5312   0.247E-02    0.115E-02
RMM:   2    -0.232339603984E+04   -0.20728E-05   -0.25392E-05  2916   0.537E-03
 301 F= -.23447490E+04 E0= -.23447490E+04  d E =-.920461E-04  mag=     4.0000
