       N       E                     dE             d eps       ncg     rms          rms(c)
DAV:   1     0.127034828883E+05    0.12703E+05   -0.83009E+05  4440   0.144E+03
DAV:   2    -0.108065672986E+04   -0.13784E+05   -0.13207E+05  5312   0.329E+02
DAV:   3    -0.248022537393E+04   -0.13996E+04   -0.13867E+04  5352   0.110E+02
DAV:   4    -0.252554944392E+04   -0.45324E+02   -0.45101E+02  6704   0.297E+01
DAV:   5    -0.252638359310E+04   -0.83415E+00   -0.83277E+00  5648   0.320E+00    0.171E+02
RMM:   6    -0.147625404143E+04    0.10501E+04   -0.19694E+03  4402   0.388E+01    0.726E+01
RMM:   7    -0.165011820234E+04   -0.17386E+03   -0.28565E+02  4942   0.139E+01    0.476E+01
RMM:   8    -0.170506639220E+04   -0.54948E+02   -0.34853E+01  5202   0.668E+00    0.368E+01
RMM:   9    -0.183732718944E+04   -0.13226E+03   -0.74732E+01  5002   0.850E+00    0.344E+01
RMM:  10    -0.194407184370E+04   -0.10674E+03   -0.52922E+01  5321   0.679E+00    0.198E+01
RMM:  11    -0.205852685027E+04   -0.11446E+03   -0.50871E+01  4785   0.559E+00    0.147E+01
RMM:  12    -0.219052404129E+04   -0.13200E+03   -0.93971E+01  4458   0.715E+00    0.100E+01
RMM:  13    -0.228863017657E+04   -0.98106E+02   -0.92132E+01  4503   0.665E+00    0.107E+01
RMM:  14    -0.231210907791E+04   -0.23479E+02   -0.26530E+01  4707   0.429E+00    0.527E+00
RMM:  15    -0.231554632957E+04   -0.34373E+01   -0.59138E+00  5509   0.162E+00    0.391E+00
RMM:  16    -0.231932240028E+04   -0.37761E+01   -0.34136E+00  4471   0.121E+00    0.220E+00
RMM:  17    -0.232208594622E+04   -0.27635E+01   -0.21752E+00  4479   0.967E-01    0.189E+00
RMM:  18    -0.232284720482E+04   -0.76126E+00   -0.59439E-01  4559   0.484E-01    0.160E+00
RMM:  19    -0.232322514806E+04   -0.37794E+00   -0.48437E-01  4632   0.416E-01    0.781E-01
RMM:  20    -0.232337659856E+04   -0.15145E+00   -0.13972E-01  4623   0.289E-01    0.550E-01
RMM:  21    -0.232344959487E+04   -0.72996E-01   -0.52054E-02  4672   0.136E-01    0.243E-01
RMM:  22    -0.232347792566E+04   -0.28331E-01   -0.12618E-02  4578   0.953E-02    0.170E-01
RMM:  23    -0.232350074261E+04   -0.22817E-01   -0.67113E-03  4461   0.633E-02    0.100E-01
RMM:  24    -0.232351600405E+04   -0.15261E-01   -0.40917E-03  4473   0.526E-02    0.627E-02
RMM:  25    -0.232352425949E+04   -0.82554E-02   -0.23673E-03  4634   0.375E-02    0.372E-02
RMM:  26    -0.232352840908E+04   -0.41496E-02   -0.12276E-03  4149   0.270E-02    0.265E-02
RMM:  27    -0.232352970858E+04   -0.12995E-02   -0.44273E-04  4156   0.166E-02    0.155E-02
RMM:  28    -0.232353012077E+04   -0.41219E-03   -0.15648E-04  3829   0.109E-02    0.859E-03
RMM:  29    -0.232353021859E+04   -0.97818E-04   -0.37576E-05  3348   0.684E-03    0.422E-03
RMM:  30    -0.232353026416E+04   -0.45566E-04   -0.13741E-05  2899   0.427E-03    0.309E-03
RMM:  31    -0.232353029231E+04   -0.28151E-04   -0.90305E-06  2823   0.358E-03    0.156E-03
RMM:  32    -0.232353030228E+04   -0.99708E-05   -0.49144E-06  2767   0.278E-03
   1 F= -.23441985E+04 E0= -.23441985E+04  d E =-.234420E+04  mag=     4.0000
       N       E                     dE             d eps       ncg     rms          rms(c)
DAV:   1    -0.232412171213E+04   -0.59142E+00   -0.14107E+02  4736   0.114E+01    0.488E+00
RMM:   2    -0.232441397110E+04   -0.29226E+00   -0.45450E+00  4999   0.193E+00    0.271E+00
RMM:   3    -0.232449195059E+04   -0.77979E-01   -0.52426E-01  4885   0.859E-01    0.549E+00
RMM:   4    -0.232428398603E+04    0.20796E+00   -0.19092E-01  5640   0.275E-01    0.116E+00
RMM:   5    -0.232425931317E+04    0.24673E-01   -0.95200E-02  5121   0.226E-01    0.407E-01
RMM:   6    -0.232425612416E+04    0.31890E-02   -0.83645E-03  5384   0.113E-01    0.388E-01
RMM:   7    -0.232425346201E+04    0.26622E-02   -0.41834E-03  4655   0.399E-02    0.885E-02
RMM:   8    -0.232425295502E+04    0.50699E-03   -0.88159E-04  5017   0.323E-02    0.118E-01
RMM:   9    -0.232425268324E+04    0.27178E-03   -0.55560E-04  4605   0.152E-02    0.319E-02
RMM:  10    -0.232425270115E+04   -0.17904E-04   -0.18867E-04  4563   0.137E-02    0.208E-02
RMM:  11    -0.232425283347E+04   -0.13232E-03   -0.17795E-04  4277   0.858E-03    0.948E-03
RMM:  12    -0.232425291753E+04   -0.84059E-04   -0.31221E-05  3312   0.760E-03    0.788E-03
RMM:  13    -0.232425299083E+04   -0.73306E-04   -0.19778E-05  3025   0.383E-03    0.379E-03
RMM:  14    -0.232425303633E+04   -0.45496E-04   -0.70702E-06  2807   0.357E-03    0.209E-03
RMM:  15    -0.232425306439E+04   -0.28056E-04   -0.60455E-06  2814   0.252E-03    0.160E-03
RMM:  16    -0.232425307730E+04   -0.12918E-04   -0.30751E-06  2687   0.227E-03    0.966E-04
RMM:  17    -0.232425308885E+04   -0.11544E-04   -0.33958E-06  2343   0.162E-03    0.678E-04
RMM:  18    -0.232425309067E+04   -0.18199E-05   -0.12675E-06  2258   0.162E-03
   2 F= -.23449221E+04 E0= -.23449221E+04  d E =-.723600E+00  mag=     4.0000
       N       E                     dE             d eps       ncg     rms          rms(c)
DAV:   1    -0.232460544251E+04   -0.35235E+00   -0.23016E+01  4624   0.493E+00    0.209E+00
RMM:   2    -0.232464946257E+04   -0.44020E-01   -0.76510E-01  5279   0.818E-01    0.768E-01
RMM:   3    -0.232463083939E+04    0.18623E-01   -0.49846E-02  4644   0.321E-01    0.423E-01
RMM:   4    -0.232462954362E+04    0.12958E-02   -0.34882E-02  4701   0.144E-01    0.890E-01
RMM:   5    -0.232462443478E+04    0.51088E-02   -0.61578E-03  4950   0.990E-02    0.127E-01
RMM:   6    -0.232462388077E+04    0.55401E-03   -0.11402E-03  5194   0.187E-02    0.817E-02
RMM:   7    -0.232462324203E+04    0.63874E-03   -0.10199E-03  4952   0.235E-02    0.716E-02
RMM:   8    -0.232462300519E+04    0.23684E-03   -0.29418E-04  4887   0.177E-02    0.443E-02
RMM:   9    -0.232462295394E+04    0.51250E-04   -0.13907E-04  4326   0.889E-03    0.160E-02
RMM:  10    -0.232462295897E+04   -0.50250E-05   -0.64616E-05  3857   0.834E-03
   3 F= -.23452921E+04 E0= -.23452921E+04  d E =-.369938E+00  mag=     4.0000
       N       E                     dE             d eps       ncg     rms          rms(c)
DAV:   1    -0.232470512274E+04   -0.82169E-01   -0.20185E+00  4800   0.142E+00    0.501E-01
RMM:   2    -0.232470975053E+04   -0.46278E-02   -0.70062E-02  5480   0.229E-01    0.238E-01
RMM:   3    -0.232471015428E+04   -0.40375E-03   -0.67299E-03  5001   0.977E-02    0.478E-01
RMM:   4    -0.232470870565E+04    0.14486E-02   -0.16233E-03  5477   0.268E-02    0.118E-01
RMM:   5    -0.232470840232E+04    0.30332E-03   -0.87563E-04  4899   0.225E-02    0.470E-02
RMM:   6    -0.232470834716E+04    0.55166E-04   -0.12389E-04  4356   0.115E-02    0.192E-02
RMM:   7    -0.232470831750E+04    0.29658E-04   -0.46273E-05  3497   0.497E-03    0.110E-02
RMM:   8    -0.232470830009E+04    0.17407E-04   -0.16946E-05  2878   0.494E-03    0.547E-03
RMM:   9    -0.232470829451E+04    0.55782E-05   -0.12001E-05  2827   0.406E-03
   4 F= -.23453779E+04 E0= -.23453779E+04  d E =-.858319E-01  mag=     4.0000
       N       E                     dE             d eps       ncg     rms          rms(c)
DAV:   1    -0.232481431176E+04   -0.10601E+00   -0.38277E+00  4544   0.191E+00    0.465E-01
RMM:   2    -0.232482816833E+04   -0.13857E-01   -0.15707E-01  5692   0.294E-01    0.340E-01
RMM:   3    -0.232482938757E+04   -0.12192E-02   -0.13003E-02  5416   0.994E-02    0.537E-01
RMM:   4    -0.232482767023E+04    0.17173E-02   -0.20718E-03  5556   0.284E-02    0.143E-01
RMM:   5    -0.232482751404E+04    0.15619E-03   -0.86081E-04  4650   0.216E-02    0.491E-02
RMM:   6    -0.232482752478E+04   -0.10740E-04   -0.12792E-04  3854   0.132E-02    0.172E-02
RMM:   7    -0.232482752470E+04    0.80705E-07   -0.21577E-05  2940   0.428E-03
   5 F= -.23454978E+04 E0= -.23454978E+04  d E =-.119912E+00  mag=     4.0000
       N       E                     dE             d eps       ncg     rms          rms(c)
DAV:   1    -0.232493059755E+04   -0.10307E+00   -0.56026E+00  4544   0.236E+00    0.558E-01
RMM:   2    -0.232495375529E+04   -0.23158E-01   -0.24952E-01  5862   0.374E-01    0.361E-01
RMM:   3    -0.232495542120E+04   -0.16659E-02   -0.20649E-02  5546   0.118E-01    0.536E-01
RMM:   4    -0.232495388370E+04    0.15375E-02   -0.28647E-03  5593   0.327E-02    0.206E-01
RMM:   5    -0.232495359387E+04    0.28983E-03   -0.13979E-03  4624   0.262E-02    0.691E-02
RMM:   6    -0.232495360740E+04   -0.13532E-04   -0.21861E-04  4179   0.156E-02    0.264E-02
RMM:   7    -0.232495360365E+04    0.37558E-05   -0.26249E-05  2952   0.477E-03
   6 F= -.23456251E+04 E0= -.23456251E+04  d E =-.127244E+00  mag=     4.0000
       N       E                     dE             d eps       ncg     rms          rms(c)
DAV:   1    -0.232506504745E+04   -0.11144E+00   -0.19088E+01  4512   0.437E+00    0.100E+00
RMM:   2    -0.232515654455E+04   -0.91497E-01   -0.97122E-01  5936   0.703E-01    0.670E-01
RMM:   3    -0.232516333116E+04   -0.67866E-02   -0.87624E-02  5608   0.216E-01    0.904E-01
RMM:   4    -0.232515949742E+04    0.38337E-02   -0.10592E-02  5722   0.580E-02    0.414E-01
RMM:   5    -0.232515846849E+04    0.10289E-02   -0.43871E-03  4675   0.448E-02    0.175E-01
RMM:   6    -0.232515846326E+04    0.52280E-05   -0.96282E-04  4629   0.288E-02    0.734E-02
RMM:   7    -0.232515844025E+04    0.23008E-04   -0.11920E-04  3688   0.923E-03    0.242E-02
RMM:   8    -0.232515843520E+04    0.50505E-05   -0.31746E-05  2994   0.615E-03
   7 F= -.23458322E+04 E0= -.23458322E+04  d E =-.207157E+00  mag=     4.0000
       N       E                     dE             d eps       ncg     rms          rms(c)
DAV:   1    -0.232518988565E+04   -0.31445E-01   -0.30351E+01  4480   0.557E+00    0.128E+00
RMM:   2    -0.232535619090E+04   -0.16631E+00   -0.17520E+00  5899   0.898E-01    0.863E-01
RMM:   3    -0.232536998299E+04   -0.13792E-01   -0.17943E-01  5511   0.302E-01    0.112E+00
RMM:   4    -0.232536471472E+04    0.52683E-02   -0.18595E-02  5780   0.730E-02    0.558E-01
RMM:   5    -0.232536286588E+04    0.18488E-02   -0.68025E-03  4809   0.531E-02    0.260E-01
RMM:   6    -0.232536276966E+04    0.96215E-04   -0.20672E-03  4892   0.360E-02    0.115E-01
RMM:   7    -0.232536270512E+04    0.64542E-04   -0.24224E-04  4269   0.138E-02    0.339E-02
RMM:   8    -0.232536269909E+04    0.60307E-05   -0.58431E-05  3193   0.593E-03
   8 F= -.23460399E+04 E0= -.23460399E+04  d E =-.207701E+00  mag=     4.0000
       N       E                     dE             d eps       ncg     rms          rms(c)
DAV:   1    -0.232539553269E+04   -0.32828E-01   -0.62686E+00  4528   0.255E+00    0.615E-01
RMM:   2    -0.232543627674E+04   -0.40744E-01   -0.42659E-01  5854   0.423E-01    0.392E-01
RMM:   3    -0.232543966321E+04   -0.33865E-02   -0.45746E-02  5424   0.154E-01    0.480E-01
RMM:   4    -0.232543880987E+04    0.85334E-03   -0.45986E-03  5621   0.338E-02    0.275E-01
RMM:   5    -0.232543829238E+04    0.51749E-03   -0.15515E-03  4885   0.254E-02    0.131E-01
RMM:   6    -0.232543823371E+04    0.58666E-04   -0.44973E-04  4592   0.174E-02    0.533E-02
RMM:   7    -0.232543822053E+04    0.13186E-04   -0.49612E-05  3151   0.688E-03    0.151E-02
RMM:   8    -0.232543822059E+04   -0.66546E-07   -0.15985E-05  2890   0.427E-03
   9 F= -.23461168E+04 E0= -.23461168E+04  d E =-.769255E-01  mag=     4.0000
       N       E                     dE             d eps       ncg     rms          rms(c)
DAV:   1    -0.232530684410E+04    0.13138E+00   -0.46843E+01  4480   0.693E+00    0.158E+00
RMM:   2    -0.232557567632E+04   -0.26883E+00   -0.28255E+00  5803   0.111E+00    0.106E+00
RMM:   3    -0.232559943199E+04   -0.23756E-01   -0.30081E-01  5418   0.405E-01    0.141E+00
RMM:   4    -0.232559131402E+04    0.81180E-02   -0.29707E-02  5876   0.890E-02    0.705E-01
RMM:   5    -0.232558821602E+04    0.30980E-02   -0.98756E-03  4813   0.622E-02    0.326E-01
RMM:   6    -0.232558801693E+04    0.19909E-03   -0.35184E-03  4961   0.454E-02    0.133E-01
RMM:   7    -0.232558793824E+04    0.78696E-04   -0.38998E-04  4764   0.191E-02    0.448E-02
RMM:   8    -0.232558793148E+04    0.67613E-05   -0.94831E-05  3490   0.653E-03
  10 F= -.23462706E+04 E0= -.23462706E+04  d E =-.153724E+00  mag=     4.0000
       N       E                     dE             d eps       ncg     rms          rms(c)
DAV:   1    -0.232556523976E+04    0.22698E-01   -0.20872E+00  4576   0.142E+00    0.355E-01
RMM:   2    -0.232557432545E+04   -0.90857E-02   -0.10260E-01  5900   0.224E-01    0.246E-01
RMM:   3    -0.232557514080E+04   -0.81535E-03   -0.92420E-03  5575   0.702E-02    0.367E-01
RMM:   4    -0.232557445184E+04    0.68896E-03   -0.13287E-03  4960   0.204E-02    0.143E-01
RMM:   5    -0.232557434235E+04    0.10949E-03   -0.61716E-04  4444   0.161E-02    0.531E-02
RMM:   6    -0.232557434316E+04   -0.81134E-06   -0.94519E-05  3386   0.994E-03
  11 F= -.23462562E+04 E0= -.23462562E+04  d E =0.143754E-01  mag=     4.0000
       N       E                     dE             d eps       ncg     rms          rms(c)
DAV:   1    -0.232558832850E+04   -0.13986E-01   -0.69109E-01  4608   0.852E-01    0.223E-01
RMM:   2    -0.232559191072E+04   -0.35822E-02   -0.39006E-02  5846   0.141E-01    0.122E-01
RMM:   3    -0.232559218781E+04   -0.27709E-03   -0.38145E-03  5297   0.495E-02    0.185E-01
RMM:   4    -0.232559202255E+04    0.16526E-03   -0.43853E-04  3833   0.122E-02    0.847E-02
RMM:   5    -0.232559195087E+04    0.71680E-04   -0.21422E-04  4241   0.112E-02    0.316E-02
RMM:   6    -0.232559194342E+04    0.74437E-05   -0.42456E-05  3090   0.775E-03
  12 F= -.23462741E+04 E0= -.23462741E+04  d E =-.179315E-01  mag=     4.0000
       N       E                     dE             d eps       ncg     rms          rms(c)
DAV:   1    -0.232560052349E+04   -0.85726E-02   -0.25551E-01  4544   0.518E-01    0.131E-01
RMM:   2    -0.232560183880E+04   -0.13153E-02   -0.14299E-02  5837   0.861E-02    0.638E-02
RMM:   3    -0.232560189476E+04   -0.55968E-04   -0.13655E-03  4810   0.309E-02    0.456E-02
RMM:   4    -0.232560190809E+04   -0.13331E-04   -0.17253E-04  3292   0.827E-03    0.748E-02
RMM:   5    -0.232560187835E+04    0.29747E-04   -0.68049E-05  3012   0.665E-03    0.320E-02
RMM:   6    -0.232560187263E+04    0.57168E-05   -0.20210E-05  2874   0.491E-03
  13 F= -.23462843E+04 E0= -.23462843E+04  d E =-.101650E-01  mag=     4.0000
       N       E                     dE             d eps       ncg     rms          rms(c)
DAV:   1    -0.232561247617E+04   -0.10598E-01   -0.63477E+00  4464   0.255E+00    0.551E-01
RMM:   2    -0.232564859202E+04   -0.36116E-01   -0.38085E-01  5844   0.413E-01    0.325E-01
RMM:   3    -0.232565093534E+04   -0.23433E-02   -0.36957E-02  5361   0.130E-01    0.324E-01
RMM:   4    -0.232565090393E+04    0.31415E-04   -0.38088E-03  5571   0.303E-02    0.313E-01
RMM:   5    -0.232565020723E+04    0.69670E-03   -0.14759E-03  4706   0.248E-02    0.957E-02
RMM:   6    -0.232565018594E+04    0.21291E-04   -0.34614E-04  4415   0.169E-02    0.231E-02
RMM:   7    -0.232565018880E+04   -0.28628E-05   -0.35229E-05  3030   0.601E-03
  14 F= -.23463337E+04 E0= -.23463337E+04  d E =-.493944E-01  mag=     4.0000
       N       E                     dE             d eps       ncg     rms          rms(c)
DAV:   1    -0.232562602892E+04    0.24157E-01   -0.14082E+01  4448   0.380E+00    0.834E-01
RMM:   2    -0.232571101425E+04   -0.84985E-01   -0.89230E-01  5808   0.617E-01    0.520E-01
RMM:   3    -0.232571775198E+04   -0.67377E-02   -0.92616E-02  5359   0.202E-01    0.636E-01
RMM:   4    -0.232571645887E+04    0.12931E-02   -0.89736E-03  5853   0.453E-02    0.402E-01
RMM:   5    -0.232571516680E+04    0.12921E-02   -0.27906E-03  4652   0.349E-02    0.138E-01
RMM:   6    -0.232571515723E+04    0.95736E-05   -0.84088E-04  4664   0.255E-02    0.351E-02
RMM:   7    -0.232571516082E+04   -0.35947E-05   -0.92628E-05  3551   0.941E-03
  15 F= -.23464003E+04 E0= -.23464003E+04  d E =-.666547E-01  mag=     4.0000
       N       E                     dE             d eps       ncg     rms          rms(c)
DAV:   1    -0.232570885321E+04    0.63040E-02   -0.73159E+00  4432   0.274E+00    0.612E-01
RMM:   2    -0.232575558343E+04   -0.46730E-01   -0.48648E-01  5800   0.448E-01    0.451E-01
RMM:   3    -0.232576011954E+04   -0.45361E-02   -0.50313E-02  5472   0.144E-01    0.663E-01
RMM:   4    -0.232575793829E+04    0.21812E-02   -0.51222E-03  5644   0.345E-02    0.238E-01
RMM:   5    -0.232575739638E+04    0.54191E-03   -0.15889E-03  4619   0.265E-02    0.921E-02
RMM:   6    -0.232575739756E+04   -0.11752E-05   -0.39601E-04  4538   0.190E-02    0.243E-02
RMM:   7    -0.232575740192E+04   -0.43620E-05   -0.41804E-05  3145   0.649E-03
  16 F= -.23464438E+04 E0= -.23464438E+04  d E =-.434258E-01  mag=     4.0000
       N       E                     dE             d eps       ncg     rms          rms(c)
DAV:   1    -0.232576653928E+04   -0.91417E-02   -0.85858E-01  4544   0.936E-01    0.224E-01
RMM:   2    -0.232577224415E+04   -0.57049E-02   -0.56730E-02  5769   0.153E-01    0.283E-01
RMM:   3    -0.232577240969E+04   -0.16555E-03   -0.55291E-03  5400   0.500E-02    0.233E-01
RMM:   4    -0.232577210219E+04    0.30751E-03   -0.57287E-04  4259   0.130E-02    0.701E-02
RMM:   5    -0.232577204548E+04    0.56703E-04   -0.22972E-04  4205   0.110E-02    0.264E-02
RMM:   6    -0.232577204799E+04   -0.25027E-05   -0.39573E-05  3118   0.805E-03
  17 F= -.23464587E+04 E0= -.23464587E+04  d E =-.149316E-01  mag=     4.0000
       N       E                     dE             d eps       ncg     rms          rms(c)
DAV:   1    -0.232571929591E+04    0.52750E-01   -0.17435E+01  4416   0.421E+00    0.938E-01
RMM:   2    -0.232582660051E+04   -0.10730E+00   -0.11122E+00  5745   0.677E-01    0.784E-01
RMM:   3    -0.232583792721E+04   -0.11327E-01   -0.12018E-01  5434   0.229E-01    0.113E+00
RMM:   4    -0.232583122085E+04    0.67064E-02   -0.11929E-02  5763   0.544E-02    0.339E-01
RMM:   5    -0.232583004545E+04    0.11754E-02   -0.37968E-03  4609   0.397E-02    0.137E-01
RMM:   6    -0.232583006154E+04   -0.16095E-04   -0.99140E-04  4674   0.299E-02    0.400E-02
RMM:   7    -0.232583006842E+04   -0.68760E-05   -0.11644E-04  3816   0.978E-03    0.240E-02
RMM:   8    -0.232583006818E+04    0.23936E-06   -0.36049E-05  3095   0.566E-03
  18 F= -.23465183E+04 E0= -.23465183E+04  d E =-.595771E-01  mag=     4.0000
       N       E                     dE             d eps       ncg     rms          rms(c)
DAV:   1    -0.232583624929E+04   -0.61809E-02   -0.23042E+00  4448   0.152E+00    0.360E-01
RMM:   2    -0.232585156746E+04   -0.15318E-01   -0.15077E-01  5717   0.245E-01    0.492E-01
RMM:   3    -0.232585172813E+04   -0.16067E-03   -0.14121E-02  5399   0.839E-02    0.358E-01
RMM:   4    -0.232585102939E+04    0.69874E-03   -0.15139E-03  4968   0.206E-02    0.113E-01
RMM:   5    -0.232585087961E+04    0.14978E-03   -0.57711E-04  4673   0.168E-02    0.478E-02
RMM:   6    -0.232585088180E+04   -0.21942E-05   -0.10051E-04  3876   0.114E-02    0.137E-02
RMM:   7    -0.232585088289E+04   -0.10852E-05   -0.14695E-05  2894   0.409E-03
  19 F= -.23465396E+04 E0= -.23465396E+04  d E =-.213013E-01  mag=     4.0000
       N       E                     dE             d eps       ncg     rms          rms(c)
DAV:   1    -0.232585221948E+04   -0.13377E-02   -0.44996E-02  4808   0.224E-01    0.734E-02
RMM:   2    -0.232585260471E+04   -0.38523E-03   -0.32305E-03  5820   0.403E-02    0.140E-01
RMM:   3    -0.232585251537E+04    0.89338E-04   -0.29921E-04  3625   0.160E-02    0.515E-02
RMM:   4    -0.232585249725E+04    0.18116E-04   -0.36353E-05  2882   0.484E-03    0.169E-02
RMM:   5    -0.232585249427E+04    0.29823E-05   -0.17478E-05  2878   0.411E-03
  20 F= -.23465412E+04 E0= -.23465412E+04  d E =-.159258E-02  mag=     4.0000
       N       E                     dE             d eps       ncg     rms          rms(c)
DAV:   1    -0.232585615030E+04   -0.36530E-02   -0.32489E+00  4448   0.178E+00    0.435E-01
RMM:   2    -0.232587883488E+04   -0.22685E-01   -0.21539E-01  5748   0.288E-01    0.724E-01
RMM:   3    -0.232587764105E+04    0.11938E-02   -0.18963E-02  5403   0.961E-02    0.365E-01
RMM:   4    -0.232587692898E+04    0.71207E-03   -0.21999E-03  4861   0.234E-02    0.133E-01
RMM:   5    -0.232587676225E+04    0.16673E-03   -0.78441E-04  4862   0.193E-02    0.104E-01
RMM:   6    -0.232587671849E+04    0.43762E-04   -0.21781E-04  4230   0.131E-02    0.331E-02
RMM:   7    -0.232587671236E+04    0.61304E-05   -0.18059E-05  2895   0.452E-03
  21 F= -.23465658E+04 E0= -.23465658E+04  d E =-.246773E-01  mag=     4.0000
       N       E                     dE             d eps       ncg     rms          rms(c)
DAV:   1    -0.232585794679E+04    0.18772E-01   -0.84821E+00  4416   0.287E+00    0.704E-01
RMM:   2    -0.232591791693E+04   -0.59970E-01   -0.57480E-01  5727   0.466E-01    0.113E+00
RMM:   3    -0.232591601478E+04    0.19021E-02   -0.52573E-02  5407   0.156E-01    0.623E-01
RMM:   4    -0.232591398817E+04    0.20266E-02   -0.59128E-03  4991   0.379E-02    0.217E-01
RMM:   5    -0.232591352301E+04    0.46517E-03   -0.19893E-03  4865   0.302E-02    0.158E-01
RMM:   6    -0.232591343175E+04    0.91257E-04   -0.57742E-04  4705   0.215E-02    0.502E-02
RMM:   7    -0.232591341858E+04    0.13171E-04   -0.51565E-05  3132   0.630E-03    0.171E-02
RMM:   8    -0.232591341535E+04    0.32265E-05   -0.19954E-05  2920   0.443E-03
  22 F= -.23466032E+04 E0= -.23466032E+04  d E =-.373790E-01  mag=     4.0000
       N       E                     dE             d eps       ncg     rms          rms(c)
DAV:   1    -0.232591835884E+04   -0.49403E-02   -0.11268E+00  4448   0.104E+00    0.274E-01
RMM:   2    -0.232592746785E+04   -0.91090E-02   -0.84130E-02  5786   0.173E-01    0.501E-01
RMM:   3    -0.232592667209E+04    0.79576E-03   -0.74832E-03  5409   0.577E-02    0.202E-01
RMM:   4    -0.232592646482E+04    0.20727E-03   -0.88350E-04  4352   0.140E-02    0.821E-02
RMM:   5    -0.232592641042E+04    0.54402E-04   -0.27846E-04  4386   0.118E-02    0.783E-02
RMM:   6    -0.232592638328E+04    0.27136E-04   -0.11054E-04  3427   0.904E-03    0.277E-02
RMM:   7    -0.232592637885E+04    0.44287E-05   -0.10082E-05  2851   0.422E-03
  23 F= -.23466164E+04 E0= -.23466164E+04  d E =-.131429E-01  mag=     4.0000
       N       E                     dE             d eps       ncg     rms          rms(c)
DAV:   1    -0.232592582155E+04    0.56174E-03   -0.12828E-02  4856   0.121E-01    0.376E-02
RMM:   2    -0.232592585473E+04   -0.33186E-04   -0.41767E-04  5231   0.197E-02    0.165E-02
RMM:   3    -0.232592585377E+04    0.96575E-06   -0.35316E-05  2935   0.963E-03
  24 F= -.23466158E+04 E0= -.23466158E+04  d E =0.543008E-03  mag=     4.0000
       N       E                     dE             d eps       ncg     rms          rms(c)
DAV:   1    -0.232593047511E+04   -0.46204E-02   -0.66632E-01  4448   0.787E-01    0.210E-01
RMM:   2    -0.232593625268E+04   -0.57776E-02   -0.54097E-02  5808   0.134E-01    0.378E-01
RMM:   3    -0.232593585065E+04    0.40204E-03   -0.48806E-03  5327   0.416E-02    0.158E-01
RMM:   4    -0.232593573259E+04    0.11806E-03   -0.56575E-04  3741   0.107E-02    0.634E-02
RMM:   5    -0.232593569683E+04    0.35766E-04   -0.15597E-04  3912   0.874E-03    0.600E-02
RMM:   6    -0.232593568192E+04    0.14911E-04   -0.73551E-05  3153   0.752E-03    0.236E-02
RMM:   7    -0.232593567877E+04    0.31470E-05   -0.72360E-06  2829   0.379E-03
  25 F= -.23466258E+04 E0= -.23466258E+04  d E =-.993303E-02  mag=     4.0000
       N       E                     dE             d eps       ncg     rms          rms(c)
DAV:   1    -0.232593285381E+04    0.28281E-02   -0.29815E+00  4416   0.167E+00    0.448E-01
RMM:   2    -0.232595877577E+04   -0.25922E-01   -0.23956E-01  5808   0.281E-01    0.840E-01
RMM:   3    -0.232595655031E+04    0.22255E-02   -0.20891E-02  5523   0.906E-02    0.330E-01
RMM:   4    -0.232595601865E+04    0.53166E-03   -0.24584E-03  4815   0.222E-02    0.134E-01
RMM:   5    -0.232595587364E+04    0.14502E-03   -0.72654E-04  4877   0.177E-02    0.129E-01
RMM:   6    -0.232595579839E+04    0.75242E-04   -0.30630E-04  4243   0.130E-02    0.459E-02
RMM:   7    -0.232595578512E+04    0.13273E-04   -0.21587E-05  2900   0.501E-03    0.102E-02
RMM:   8    -0.232595578384E+04    0.12773E-05   -0.81818E-06  2865   0.282E-03
  26 F= -.23466461E+04 E0= -.23466461E+04  d E =-.203457E-01  mag=     4.0000
       N       E                     dE             d eps       ncg     rms          rms(c)
DAV:   1    -0.232594222560E+04    0.13560E-01   -0.49219E+00  4416   0.214E+00    0.575E-01
RMM:   2    -0.232598512363E+04   -0.42898E-01   -0.39999E-01  5801   0.361E-01    0.105E+00
RMM:   3    -0.232598200517E+04    0.31185E-02   -0.35300E-02  5517   0.113E-01    0.440E-01
RMM:   4    -0.232598104702E+04    0.95815E-03   -0.41005E-03  4908   0.282E-02    0.172E-01
RMM:   5    -0.232598078111E+04    0.26591E-03   -0.12006E-03  4952   0.224E-02    0.157E-01
RMM:   6    -0.232598067256E+04    0.10855E-03   -0.50063E-04  4560   0.166E-02    0.578E-02
RMM:   7    -0.232598065164E+04    0.20915E-04   -0.33837E-05  2958   0.571E-03    0.133E-02
RMM:   8    -0.232598064963E+04    0.20182E-05   -0.13810E-05  2884   0.342E-03
  27 F= -.23466712E+04 E0= -.23466712E+04  d E =-.250767E-01  mag=     4.0000
       N       E                     dE             d eps       ncg     rms          rms(c)
DAV:   1    -0.232597920620E+04    0.14454E-02   -0.27551E-02  4744   0.175E-01    0.551E-02
RMM:   2    -0.232597935166E+04   -0.14546E-03   -0.14843E-03  5636   0.300E-02    0.623E-02
RMM:   3    -0.232597935311E+04   -0.14484E-05   -0.13845E-04  3101   0.115E-02    0.625E-02
RMM:   4    -0.232597932785E+04    0.25262E-04   -0.23776E-05  2845   0.436E-03    0.127E-02
RMM:   5    -0.232597932494E+04    0.29124E-05   -0.13214E-05  2856   0.359E-03
  28 F= -.23466699E+04 E0= -.23466699E+04  d E =0.131838E-02  mag=     4.0000
       N       E                     dE             d eps       ncg     rms          rms(c)
DAV:   1    -0.232598240944E+04   -0.30816E-02   -0.14829E-01  4448   0.368E-01    0.102E-01
RMM:   2    -0.232598377355E+04   -0.13641E-02   -0.12596E-02  5999   0.639E-02    0.194E-01
RMM:   3    -0.232598365059E+04    0.12297E-03   -0.11308E-03  4073   0.202E-02    0.726E-02
RMM:   4    -0.232598362473E+04    0.25852E-04   -0.13274E-04  2956   0.590E-03    0.307E-02
RMM:   5    -0.232598361668E+04    0.80571E-05   -0.38617E-05  3119   0.467E-03
  29 F= -.23466742E+04 E0= -.23466742E+04  d E =-.431461E-02  mag=     4.0000
       N       E                     dE             d eps       ncg     rms          rms(c)
DAV:   1    -0.232598406160E+04   -0.43686E-03   -0.17313E-03  4872   0.400E-02    0.182E-02
RMM:   2    -0.232598409379E+04   -0.32194E-04   -0.15902E-04  3499   0.839E-03    0.593E-02
RMM:   3    -0.232598407493E+04    0.18862E-04   -0.25057E-05  2713   0.436E-03    0.552E-03
RMM:   4    -0.232598407516E+04   -0.22880E-06   -0.33252E-06  2551   0.176E-03
  30 F= -.23466746E+04 E0= -.23466746E+04  d E =-.461283E-03  mag=     4.0000
       N       E                     dE             d eps       ncg     rms          rms(c)
DAV:   1    -0.232598748573E+04   -0.34108E-02   -0.44715E-01  4448   0.629E-01    0.186E-01
RMM:   2    -0.232599207321E+04   -0.45875E-02   -0.42152E-02  5869   0.111E-01    0.358E-01
RMM:   3    -0.232599165150E+04    0.42170E-03   -0.38053E-03  5148   0.359E-02    0.131E-01
RMM:   4    -0.232599157581E+04    0.75692E-04   -0.45063E-04  3406   0.914E-03    0.556E-02
RMM:   5    -0.232599155370E+04    0.22108E-04   -0.11497E-04  3624   0.742E-03    0.571E-02
RMM:   6    -0.232599153892E+04    0.14786E-04   -0.59343E-05  3034   0.664E-03    0.221E-02
RMM:   7    -0.232599153612E+04    0.27989E-05   -0.60749E-06  2819   0.350E-03
  31 F= -.23466821E+04 E0= -.23466821E+04  d E =-.746899E-02  mag=     4.0000
       N       E                     dE             d eps       ncg     rms          rms(c)
DAV:   1    -0.232597667543E+04    0.14863E-01   -0.41463E+00  4416   0.192E+00    0.557E-01
RMM:   2    -0.232601807937E+04   -0.41404E-01   -0.38173E-01  5862   0.335E-01    0.106E+00
RMM:   3    -0.232601460480E+04    0.34746E-02   -0.34316E-02  5568   0.110E-01    0.404E-01
RMM:   4    -0.232601386926E+04    0.73554E-03   -0.39807E-03  4951   0.263E-02    0.164E-01
RMM:   5    -0.232601366377E+04    0.20549E-03   -0.10106E-03  4935   0.199E-02    0.164E-01
RMM:   6    -0.232601354064E+04    0.12313E-03   -0.50235E-04  4486   0.153E-02    0.616E-02
RMM:   7    -0.232601351645E+04    0.24189E-04   -0.32152E-05  2929   0.570E-03    0.127E-02
RMM:   8    -0.232601351460E+04    0.18541E-05   -0.12093E-05  2868   0.311E-03
  32 F= -.23467041E+04 E0= -.23467041E+04  d E =-.219914E-01  mag=     4.0000
       N       E                     dE             d eps       ncg     rms          rms(c)
DAV:   1    -0.232599008938E+04    0.23427E-01   -0.51967E+00  4416   0.214E+00    0.629E-01
RMM:   2    -0.232604291887E+04   -0.52829E-01   -0.48655E-01  5871   0.374E-01    0.120E+00
RMM:   3    -0.232603852947E+04    0.43894E-02   -0.44247E-02  5623   0.120E-01    0.455E-01
RMM:   4    -0.232603760749E+04    0.92198E-03   -0.51030E-03  4972   0.292E-02    0.185E-01
RMM:   5    -0.232603735150E+04    0.25599E-03   -0.12714E-03  4953   0.220E-02    0.188E-01
RMM:   6    -0.232603718878E+04    0.16272E-03   -0.65484E-04  4654   0.171E-02    0.713E-02
RMM:   7    -0.232603715613E+04    0.32657E-04   -0.41937E-05  2965   0.605E-03    0.145E-02
RMM:   8    -0.232603715392E+04    0.22071E-05   -0.16099E-05  2892   0.344E-03
  33 F= -.23467276E+04 E0= -.23467276E+04  d E =-.235436E-01  mag=     4.0000
       N       E                     dE             d eps       ncg     rms          rms(c)
DAV:   1    -0.232602932089E+04    0.78352E-02   -0.27827E-01  4448   0.500E-01    0.166E-01
RMM:   2    -0.232603262091E+04   -0.33000E-02   -0.29397E-02  5842   0.930E-02    0.341E-01
RMM:   3    -0.232603214097E+04    0.47994E-03   -0.26467E-03  4966   0.297E-02    0.106E-01
RMM:   4    -0.232603208850E+04    0.52469E-04   -0.32523E-04  3370   0.860E-03    0.471E-02
RMM:   5    -0.232603207277E+04    0.15733E-04   -0.84303E-05  3567   0.732E-03    0.521E-02
RMM:   6    -0.232603205845E+04    0.14319E-04   -0.46349E-05  2953   0.636E-03    0.192E-02
RMM:   7    -0.232603205588E+04    0.25687E-05   -0.59440E-06  2827   0.357E-03
  34 F= -.23467226E+04 E0= -.23467226E+04  d E =0.503632E-02  mag=     4.0000
       N       E                     dE             d eps       ncg     rms          rms(c)
DAV:   1    -0.232602732458E+04    0.47339E-02   -0.22892E+00  4416   0.142E+00    0.416E-01
RMM:   2    -0.232605012877E+04   -0.22804E-01   -0.20962E-01  5863   0.248E-01    0.797E-01
RMM:   3    -0.232604806810E+04    0.20607E-02   -0.18900E-02  5592   0.769E-02    0.294E-01
RMM:   4    -0.232604766630E+04    0.40180E-03   -0.22236E-03  4634   0.193E-02    0.122E-01
RMM:   5    -0.232604755435E+04    0.11195E-03   -0.58059E-04  4737   0.151E-02    0.125E-01
RMM:   6    -0.232604748049E+04    0.73857E-04   -0.28610E-04  4029   0.117E-02    0.470E-02
RMM:   7    -0.232604746639E+04    0.14107E-04   -0.19184E-05  2885   0.492E-03    0.960E-03
RMM:   8    -0.232604746514E+04    0.12446E-05   -0.70474E-06  2854   0.254E-03
  35 F= -.23467379E+04 E0= -.23467379E+04  d E =-.153355E-01  mag=     4.0000
       N       E                     dE             d eps       ncg     rms          rms(c)
DAV:   1    -0.232605019481E+04   -0.27284E-02   -0.15382E-01  4448   0.374E-01    0.107E-01
RMM:   2    -0.232605153834E+04   -0.13435E-02   -0.12410E-02  5832   0.648E-02    0.195E-01
RMM:   3    -0.232605141297E+04    0.12537E-03   -0.11084E-03  4044   0.203E-02    0.787E-02
RMM:   4    -0.232605138052E+04    0.32450E-04   -0.13534E-04  2979   0.614E-03    0.318E-02
RMM:   5    -0.232605137158E+04    0.89423E-05   -0.44038E-05  3179   0.514E-03
  36 F= -.23467418E+04 E0= -.23467418E+04  d E =-.388098E-02  mag=     4.0000
       N       E                     dE             d eps       ncg     rms          rms(c)
DAV:   1    -0.232605260849E+04   -0.12280E-02   -0.10730E+00  4432   0.974E-01    0.283E-01
RMM:   2    -0.232606284156E+04   -0.10233E-01   -0.92783E-02  5990   0.169E-01    0.562E-01
RMM:   3    -0.232606170919E+04    0.11324E-02   -0.80558E-03  5558   0.536E-02    0.193E-01
RMM:   4    -0.232606152970E+04    0.17949E-03   -0.96380E-04  4105   0.136E-02    0.829E-02
RMM:   5    -0.232606148143E+04    0.48273E-04   -0.27212E-04  4239   0.109E-02    0.831E-02
RMM:   6    -0.232606144870E+04    0.32727E-04   -0.11414E-04  3384   0.866E-03    0.279E-02
RMM:   7    -0.232606144430E+04    0.44037E-05   -0.97534E-06  2857   0.409E-03
  37 F= -.23467518E+04 E0= -.23467518E+04  d E =-.100205E-01  mag=     4.0000
       N       E                     dE             d eps       ncg     rms          rms(c)
DAV:   1    -0.232606429261E+04   -0.28439E-02   -0.22419E-01  4448   0.451E-01    0.127E-01
RMM:   2    -0.232606620077E+04   -0.19082E-02   -0.17847E-02  5873   0.781E-02    0.221E-01
RMM:   3    -0.232606606021E+04    0.14056E-03   -0.16009E-03  4646   0.265E-02    0.970E-02
RMM:   4    -0.232606601175E+04    0.48463E-04   -0.19294E-04  3060   0.703E-03    0.381E-02
RMM:   5    -0.232606599859E+04    0.13159E-04   -0.61432E-05  3334   0.585E-03    0.324E-02
RMM:   6    -0.232606599454E+04    0.40462E-05   -0.21585E-05  2876   0.525E-03
  38 F= -.23467564E+04 E0= -.23467564E+04  d E =-.452580E-02  mag=     4.0000
       N       E                     dE             d eps       ncg     rms          rms(c)
DAV:   1    -0.232605334256E+04    0.12656E-01   -0.37073E+00  4416   0.181E+00    0.512E-01
RMM:   2    -0.232608733061E+04   -0.33988E-01   -0.31688E-01  5842   0.312E-01    0.932E-01
RMM:   3    -0.232608483974E+04    0.24909E-02   -0.27894E-02  5586   0.943E-02    0.385E-01
RMM:   4    -0.232608412099E+04    0.71875E-03   -0.33015E-03  4874   0.243E-02    0.154E-01
RMM:   5    -0.232608391986E+04    0.20113E-03   -0.93800E-04  4884   0.191E-02    0.141E-01
RMM:   6    -0.232608383390E+04    0.85960E-04   -0.39706E-04  4327   0.144E-02    0.511E-02
RMM:   7    -0.232608381761E+04    0.16293E-04   -0.27018E-05  2927   0.514E-03    0.117E-02
RMM:   8    -0.232608381611E+04    0.14980E-05   -0.10763E-05  2874   0.303E-03
  39 F= -.23467741E+04 E0= -.23467741E+04  d E =-.177014E-01  mag=     4.0000
       N       E                     dE             d eps       ncg     rms          rms(c)
DAV:   1    -0.232608307375E+04    0.74386E-03   -0.14138E+00  4416   0.111E+00    0.320E-01
RMM:   2    -0.232609598948E+04   -0.12916E-01   -0.11966E-01  5882   0.193E-01    0.589E-01
RMM:   3    -0.232609491090E+04    0.10786E-02   -0.10671E-02  5545   0.591E-02    0.233E-01
RMM:   4    -0.232609464189E+04    0.26901E-03   -0.12863E-03  4371   0.154E-02    0.963E-02
RMM:   5    -0.232609456708E+04    0.74809E-04   -0.38474E-04  4514   0.126E-02    0.920E-02
RMM:   6    -0.232609452879E+04    0.38292E-04   -0.15407E-04  3576   0.966E-03    0.325E-02
RMM:   7    -0.232609452229E+04    0.65004E-05   -0.12221E-05  2854   0.433E-03
  40 F= -.23467847E+04 E0= -.23467847E+04  d E =-.105994E-01  mag=     4.0000
       N       E                     dE             d eps       ncg     rms          rms(c)
DAV:   1    -0.232609171864E+04    0.28101E-02   -0.72590E-02  4544   0.260E-01    0.785E-02
RMM:   2    -0.232609240759E+04   -0.68895E-03   -0.64088E-03  5874   0.465E-02    0.139E-01
RMM:   3    -0.232609234619E+04    0.61394E-04   -0.58012E-04  3466   0.158E-02    0.581E-02
RMM:   4    -0.232609232658E+04    0.19619E-04   -0.68793E-05  2904   0.493E-03    0.214E-02
RMM:   5    -0.232609232086E+04    0.57136E-05   -0.21831E-05  2959   0.389E-03
  41 F= -.23467825E+04 E0= -.23467825E+04  d E =0.216434E-02  mag=     4.0000
       N       E                     dE             d eps       ncg     rms          rms(c)
DAV:   1    -0.232609425940E+04   -0.19328E-02   -0.70436E-01  4432   0.781E-01    0.221E-01
RMM:   2    -0.232610043853E+04   -0.61791E-02   -0.58119E-02  5925   0.135E-01    0.388E-01
RMM:   3    -0.232610002591E+04    0.41262E-03   -0.51751E-03  5344   0.424E-02    0.168E-01
RMM:   4    -0.232609988425E+04    0.14166E-03   -0.63109E-04  3733   0.110E-02    0.680E-02
RMM:   5    -0.232609984153E+04    0.42715E-04   -0.19591E-04  3971   0.925E-03    0.600E-02
RMM:   6    -0.232609982664E+04    0.14895E-04   -0.70521E-05  3135   0.754E-03    0.215E-02
RMM:   7    -0.232609982394E+04    0.26917E-05   -0.70684E-06  2835   0.347E-03
  42 F= -.23467899E+04 E0= -.23467899E+04  d E =-.744319E-02  mag=     4.0000
       N       E                     dE             d eps       ncg     rms          rms(c)
DAV:   1    -0.232608345935E+04    0.16367E-01   -0.43499E+00  4416   0.194E+00    0.548E-01
RMM:   2    -0.232612132842E+04   -0.37869E-01   -0.35639E-01  5895   0.334E-01    0.959E-01
RMM:   3    -0.232611895967E+04    0.23688E-02   -0.31298E-02  5621   0.104E-01    0.429E-01
RMM:   4    -0.232611802276E+04    0.93691E-03   -0.37376E-03  4946   0.266E-02    0.167E-01
RMM:   5    -0.232611777496E+04    0.24780E-03   -0.11660E-03  4909   0.211E-02    0.140E-01
RMM:   6    -0.232611769258E+04    0.82377E-04   -0.39991E-04  4349   0.153E-02    0.469E-02
RMM:   7    -0.232611767903E+04    0.13553E-04   -0.29451E-05  2943   0.510E-03    0.125E-02
RMM:   8    -0.232611767714E+04    0.18940E-05   -0.12758E-05  2890   0.320E-03
  43 F= -.23468076E+04 E0= -.23468076E+04  d E =-.176803E-01  mag=     4.0000
       N       E                     dE             d eps       ncg     rms          rms(c)
DAV:   1    -0.232611984769E+04   -0.21687E-02   -0.17890E-01  4448   0.395E-01    0.117E-01
RMM:   2    -0.232612140926E+04   -0.15616E-02   -0.14597E-02  5883   0.695E-02    0.203E-01
RMM:   3    -0.232612128628E+04    0.12298E-03   -0.13217E-03  4204   0.218E-02    0.893E-02
RMM:   4    -0.232612124360E+04    0.42676E-04   -0.16479E-04  3036   0.654E-03    0.353E-02
RMM:   5    -0.232612123153E+04    0.12075E-04   -0.56848E-05  3290   0.565E-03    0.296E-02
RMM:   6    -0.232612122802E+04    0.35093E-05   -0.17577E-05  2865   0.491E-03
  44 F= -.23468111E+04 E0= -.23468111E+04  d E =-.350209E-02  mag=     4.0000
       N       E                     dE             d eps       ncg     rms          rms(c)
DAV:   1    -0.232612131353E+04   -0.82003E-04   -0.14066E-03  5160   0.413E-02    0.164E-02
RMM:   2    -0.232612131719E+04   -0.36585E-05   -0.52623E-05  3498   0.854E-03
  45 F= -.23468112E+04 E0= -.23468112E+04  d E =-.933196E-04  mag=     4.0000
       N       E                     dE             d eps       ncg     rms          rms(c)
DAV:   1    -0.232612307222E+04   -0.17587E-02   -0.75687E-02  4448   0.255E-01    0.697E-02
RMM:   2    -0.232612363157E+04   -0.55935E-03   -0.58686E-03  6107   0.470E-02    0.504E-02
RMM:   3    -0.232612368178E+04   -0.50207E-04   -0.55983E-04  3377   0.150E-02    0.695E-02
RMM:   4    -0.232612365963E+04    0.22155E-04   -0.67622E-05  2866   0.519E-03    0.288E-02
RMM:   5    -0.232612365362E+04    0.60059E-05   -0.27128E-05  2913   0.385E-03
  46 F= -.23468135E+04 E0= -.23468135E+04  d E =-.230905E-02  mag=     4.0000
       N       E                     dE             d eps       ncg     rms          rms(c)
DAV:   1    -0.232612582461E+04   -0.21650E-02   -0.16877E-01  4448   0.382E-01    0.106E-01
RMM:   2    -0.232612715311E+04   -0.13285E-02   -0.13076E-02  6008   0.666E-02    0.149E-01
RMM:   3    -0.232612715316E+04   -0.48662E-07   -0.12222E-03  4125   0.213E-02    0.978E-02
RMM:   4    -0.232612710390E+04    0.49257E-04   -0.14804E-04  2985   0.642E-03    0.337E-02
RMM:   5    -0.232612709103E+04    0.12865E-04   -0.51588E-05  3215   0.517E-03    0.145E-02
RMM:   6    -0.232612709175E+04   -0.71898E-06   -0.99396E-06  2846   0.418E-03
  47 F= -.23468169E+04 E0= -.23468169E+04  d E =-.339440E-02  mag=     4.0000
       N       E                     dE             d eps       ncg     rms          rms(c)
DAV:   1    -0.232612927837E+04   -0.21873E-02   -0.36458E-01  4432   0.562E-01    0.158E-01
RMM:   2    -0.232613227289E+04   -0.29945E-02   -0.28508E-02  5891   0.964E-02    0.260E-01
RMM:   3    -0.232613212249E+04    0.15041E-03   -0.25563E-03  4954   0.297E-02    0.129E-01
RMM:   4    -0.232613203486E+04    0.87623E-04   -0.30967E-04  3226   0.817E-03    0.487E-02
RMM:   5    -0.232613201160E+04    0.23269E-04   -0.10532E-04  3592   0.694E-03    0.339E-02
RMM:   6    -0.232613200804E+04    0.35548E-05   -0.24964E-05  2918   0.565E-03
  48 F= -.23468218E+04 E0= -.23468218E+04  d E =-.485906E-02  mag=     4.0000
       N       E                     dE             d eps       ncg     rms          rms(c)
DAV:   1    -0.232613221140E+04   -0.19981E-03   -0.10366E+00  4416   0.946E-01    0.266E-01
RMM:   2    -0.232614077998E+04   -0.85686E-02   -0.81958E-02  5837   0.162E-01    0.432E-01
RMM:   3    -0.232614039694E+04    0.38304E-03   -0.71214E-03  5500   0.494E-02    0.221E-01
RMM:   4    -0.232614014140E+04    0.25554E-03   -0.87968E-04  4079   0.131E-02    0.820E-02
RMM:   5    -0.232614007250E+04    0.68902E-04   -0.28979E-04  4211   0.109E-02    0.548E-02
RMM:   6    -0.232614006306E+04    0.94397E-05   -0.68182E-05  3197   0.827E-03
  49 F= -.23468297E+04 E0= -.23468297E+04  d E =-.794064E-02  mag=     4.0000
       N       E                     dE             d eps       ncg     rms          rms(c)
DAV:   1    -0.232613948756E+04    0.58493E-03   -0.11536E+00  4416   0.100E+00    0.280E-01
RMM:   2    -0.232614899663E+04   -0.95091E-02   -0.91056E-02  5850   0.172E-01    0.452E-01
RMM:   3    -0.232614858821E+04    0.40841E-03   -0.79215E-03  5510   0.520E-02    0.234E-01
RMM:   4    -0.232614830648E+04    0.28174E-03   -0.97919E-04  4202   0.139E-02    0.863E-02
RMM:   5    -0.232614823073E+04    0.75751E-04   -0.31560E-04  4291   0.113E-02    0.568E-02
RMM:   6    -0.232614822109E+04    0.96311E-05   -0.74337E-05  3246   0.867E-03
  50 F= -.23468377E+04 E0= -.23468377E+04  d E =-.801386E-02  mag=     4.0000
       N       E                     dE             d eps       ncg     rms          rms(c)
DAV:   1    -0.232614716776E+04    0.10630E-02   -0.12181E+00  4416   0.103E+00    0.287E-01
RMM:   2    -0.232615715691E+04   -0.99892E-02   -0.95540E-02  5874   0.176E-01    0.466E-01
RMM:   3    -0.232615671057E+04    0.44634E-03   -0.83233E-03  5565   0.548E-02    0.239E-01
RMM:   4    -0.232615641879E+04    0.29178E-03   -0.10325E-03  4239   0.143E-02    0.886E-02
RMM:   5    -0.232615634093E+04    0.77865E-04   -0.33303E-04  4296   0.116E-02    0.598E-02
RMM:   6    -0.232615632990E+04    0.11022E-04   -0.82046E-05  3275   0.884E-03    0.166E-02
RMM:   7    -0.232615632904E+04    0.86341E-06   -0.99122E-06  2865   0.369E-03
  51 F= -.23468457E+04 E0= -.23468457E+04  d E =-.794539E-02  mag=     4.0000
       N       E                     dE             d eps       ncg     rms          rms(c)
DAV:   1    -0.232615412737E+04    0.22025E-02   -0.14431E+00  4416   0.111E+00    0.314E-01
RMM:   2    -0.232616595535E+04   -0.11828E-01   -0.11239E-01  5911   0.191E-01    0.523E-01
RMM:   3    -0.232616529807E+04    0.65728E-03   -0.95902E-03  5547   0.587E-02    0.255E-01
RMM:   4    -0.232616496727E+04    0.33080E-03   -0.12167E-03  4445   0.156E-02    0.964E-02
RMM:   5    -0.232616487877E+04    0.88498E-04   -0.41232E-04  4454   0.129E-02    0.721E-02
RMM:   6    -0.232616485929E+04    0.19479E-04   -0.10610E-04  3377   0.943E-03    0.214E-02
RMM:   7    -0.232616485721E+04    0.20824E-05   -0.11431E-05  2867   0.391E-03
  52 F= -.23468540E+04 E0= -.23468540E+04  d E =-.834606E-02  mag=     4.0000
       N       E                     dE             d eps       ncg     rms          rms(c)
DAV:   1    -0.232616587813E+04   -0.10188E-02   -0.57213E-01  4432   0.700E-01    0.199E-01
RMM:   2    -0.232617053837E+04   -0.46602E-02   -0.44228E-02  5896   0.121E-01    0.331E-01
RMM:   3    -0.232617026778E+04    0.27059E-03   -0.39202E-03  5291   0.393E-02    0.160E-01
RMM:   4    -0.232617013838E+04    0.12940E-03   -0.49264E-04  3576   0.102E-02    0.611E-02
RMM:   5    -0.232617010386E+04    0.34519E-04   -0.16604E-04  3853   0.864E-03    0.468E-02
RMM:   6    -0.232617009570E+04    0.81552E-05   -0.43122E-05  2990   0.689E-03
  53 F= -.23468591E+04 E0= -.23468591E+04  d E =-.508070E-02  mag=     4.0000
       N       E                     dE             d eps       ncg     rms          rms(c)
DAV:   1    -0.232612320499E+04    0.46899E-01   -0.88253E+00  4416   0.275E+00    0.763E-01
RMM:   2    -0.232619375425E+04   -0.70549E-01   -0.68333E-01  5886   0.469E-01    0.118E+00
RMM:   3    -0.232619208034E+04    0.16739E-02   -0.61118E-02  5645   0.141E-01    0.676E-01
RMM:   4    -0.232618966206E+04    0.24183E-02   -0.72919E-03  5156   0.377E-02    0.236E-01
RMM:   5    -0.232618906960E+04    0.59245E-03   -0.24065E-03  4824   0.293E-02    0.147E-01
RMM:   6    -0.232618900665E+04    0.62951E-04   -0.60612E-04  4600   0.218E-02    0.407E-02
RMM:   7    -0.232618900214E+04    0.45086E-05   -0.65323E-05  3149   0.593E-03
  54 F= -.23468774E+04 E0= -.23468774E+04  d E =-.182668E-01  mag=     4.0000
       N       E                     dE             d eps       ncg     rms          rms(c)
DAV:   1    -0.232619001947E+04   -0.10128E-02   -0.32348E-01  4560   0.527E-01    0.158E-01
RMM:   2    -0.232619281742E+04   -0.27980E-02   -0.25858E-02  5906   0.924E-02    0.281E-01
RMM:   3    -0.232619256519E+04    0.25223E-03   -0.23335E-03  4991   0.302E-02    0.119E-01
RMM:   4    -0.232619249723E+04    0.67964E-04   -0.29428E-04  3212   0.814E-03    0.478E-02
RMM:   5    -0.232619248152E+04    0.15708E-04   -0.98083E-05  3572   0.696E-03    0.417E-02
RMM:   6    -0.232619247434E+04    0.71825E-05   -0.29095E-05  2898   0.576E-03
  55 F= -.23468807E+04 E0= -.23468807E+04  d E =-.328966E-02  mag=     4.0000
       N       E                     dE             d eps       ncg     rms          rms(c)
DAV:   1    -0.232619167142E+04    0.81010E-03   -0.18231E-02  4784   0.130E-01    0.388E-02
RMM:   2    -0.232619182150E+04   -0.15008E-03   -0.14288E-03  5793   0.239E-02    0.629E-02
RMM:   3    -0.232619181053E+04    0.10972E-04   -0.12969E-04  2900   0.883E-03    0.314E-02
RMM:   4    -0.232619180408E+04    0.64537E-05   -0.15916E-05  2866   0.298E-03
  56 F= -.23468800E+04 E0= -.23468800E+04  d E =0.646776E-03  mag=     4.0000
       N       E                     dE             d eps       ncg     rms          rms(c)
DAV:   1    -0.232619273096E+04   -0.92043E-03   -0.41013E-02  4480   0.188E-01    0.562E-02
RMM:   2    -0.232619307557E+04   -0.34462E-03   -0.30820E-03  5878   0.333E-02    0.109E-01
RMM:   3    -0.232619302913E+04    0.46441E-04   -0.28293E-04  3029   0.110E-02    0.386E-02
RMM:   4    -0.232619302128E+04    0.78542E-05   -0.34483E-05  2881   0.375E-03
  57 F= -.23468812E+04 E0= -.23468812E+04  d E =-.116258E-02  mag=     4.0000
       N       E                     dE             d eps       ncg     rms          rms(c)
DAV:   1    -0.232619403008E+04   -0.10009E-02   -0.49510E-02  4448   0.207E-01    0.559E-02
RMM:   2    -0.232619434314E+04   -0.31306E-03   -0.33290E-03  5940   0.349E-02    0.401E-02
RMM:   3    -0.232619436996E+04   -0.26822E-04   -0.31191E-04  3027   0.119E-02    0.570E-02
RMM:   4    -0.232619435440E+04    0.15561E-04   -0.42530E-05  2864   0.389E-03    0.237E-02
RMM:   5    -0.232619435060E+04    0.38055E-05   -0.19949E-05  2890   0.324E-03
  58 F= -.23468824E+04 E0= -.23468824E+04  d E =-.125645E-02  mag=     4.0000
       N       E                     dE             d eps       ncg     rms          rms(c)
DAV:   1    -0.232619539710E+04   -0.10427E-02   -0.64319E-02  4448   0.234E-01    0.652E-02
RMM:   2    -0.232619587294E+04   -0.47584E-03   -0.47173E-03  5978   0.419E-02    0.878E-02
RMM:   3    -0.232619587762E+04   -0.46853E-05   -0.45526E-04  3211   0.131E-02    0.622E-02
RMM:   4    -0.232619585736E+04    0.20259E-04   -0.54221E-05  2888   0.451E-03    0.207E-02
RMM:   5    -0.232619585287E+04    0.44975E-05   -0.20438E-05  2924   0.341E-03
  59 F= -.23468839E+04 E0= -.23468839E+04  d E =-.141555E-02  mag=     4.0000
       N       E                     dE             d eps       ncg     rms          rms(c)
DAV:   1    -0.232619697743E+04   -0.11201E-02   -0.11330E-01  4448   0.310E-01    0.868E-02
RMM:   2    -0.232619783760E+04   -0.86017E-03   -0.84989E-03  6063   0.546E-02    0.120E-01
RMM:   3    -0.232619784092E+04   -0.33123E-05   -0.79345E-04  3644   0.168E-02    0.828E-02
RMM:   4    -0.232619780492E+04    0.35995E-04   -0.95248E-05  2913   0.563E-03    0.273E-02
RMM:   5    -0.232619779705E+04    0.78705E-05   -0.36321E-05  3080   0.436E-03
  60 F= -.23468857E+04 E0= -.23468857E+04  d E =-.184205E-02  mag=     4.0000
       N       E                     dE             d eps       ncg     rms          rms(c)
DAV:   1    -0.232619886689E+04   -0.10620E-02   -0.16542E-01  4432   0.375E-01    0.105E-01
RMM:   2    -0.232620014598E+04   -0.12791E-02   -0.12627E-02  6104   0.662E-02    0.146E-01
RMM:   3    -0.232620015294E+04   -0.69630E-05   -0.11917E-03  4060   0.204E-02    0.100E-01
RMM:   4    -0.232620009848E+04    0.54456E-04   -0.13867E-04  2955   0.644E-03    0.330E-02
RMM:   5    -0.232620008706E+04    0.11422E-04   -0.53710E-05  3185   0.516E-03    0.134E-02
RMM:   6    -0.232620008797E+04   -0.91241E-06   -0.98809E-06  2845   0.409E-03
  61 F= -.23468879E+04 E0= -.23468879E+04  d E =-.218222E-02  mag=     4.0000
       N       E                     dE             d eps       ncg     rms          rms(c)
DAV:   1    -0.232620101791E+04   -0.93084E-03   -0.99396E-02  4448   0.292E-01    0.819E-02
RMM:   2    -0.232620183227E+04   -0.81436E-03   -0.80125E-03  5956   0.512E-02    0.117E-01
RMM:   3    -0.232620183351E+04   -0.12425E-05   -0.73124E-04  3523   0.160E-02    0.780E-02
RMM:   4    -0.232620180130E+04    0.32214E-04   -0.86380E-05  2895   0.515E-03    0.256E-02
RMM:   5    -0.232620179389E+04    0.74132E-05   -0.31147E-05  3008   0.397E-03
  62 F= -.23468895E+04 E0= -.23468895E+04  d E =-.162858E-02  mag=     4.0000
       N       E                     dE             d eps       ncg     rms          rms(c)
DAV:   1    -0.232620182524E+04   -0.23939E-04   -0.49441E-01  4416   0.647E-01    0.181E-01
RMM:   2    -0.232620572227E+04   -0.38970E-02   -0.38591E-02  5994   0.113E-01    0.250E-01
RMM:   3    -0.232620574981E+04   -0.27543E-04   -0.34378E-03  5276   0.338E-02    0.175E-01
RMM:   4    -0.232620558758E+04    0.16224E-03   -0.42126E-04  3328   0.966E-03    0.570E-02
RMM:   5    -0.232620555066E+04    0.36920E-04   -0.15249E-04  3768   0.821E-03    0.232E-02
RMM:   6    -0.232620555261E+04   -0.19476E-05   -0.24994E-05  2954   0.621E-03
  63 F= -.23468931E+04 E0= -.23468931E+04  d E =-.355158E-02  mag=     4.0000
       N       E                     dE             d eps       ncg     rms          rms(c)
DAV:   1    -0.232620431841E+04    0.12322E-02   -0.70840E-01  4416   0.776E-01    0.216E-01
RMM:   2    -0.232621005446E+04   -0.57360E-02   -0.56756E-02  5908   0.135E-01    0.300E-01
RMM:   3    -0.232621009458E+04   -0.40120E-04   -0.50268E-03  5388   0.401E-02    0.210E-01
RMM:   4    -0.232620986291E+04    0.23167E-03   -0.61442E-04  3604   0.112E-02    0.680E-02
RMM:   5    -0.232620980911E+04    0.53804E-04   -0.21289E-04  3936   0.936E-03    0.280E-02
RMM:   6    -0.232620981153E+04   -0.24178E-05   -0.36053E-05  3039   0.699E-03
  64 F= -.23468971E+04 E0= -.23468971E+04  d E =-.405107E-02  mag=     4.0000
       N       E                     dE             d eps       ncg     rms          rms(c)
DAV:   1    -0.232621055274E+04   -0.74363E-03   -0.10622E-01  4480   0.302E-01    0.857E-02
RMM:   2    -0.232621143755E+04   -0.88482E-03   -0.87872E-03  5948   0.540E-02    0.114E-01
RMM:   3    -0.232621145435E+04   -0.16794E-04   -0.80685E-04  3717   0.176E-02    0.860E-02
RMM:   4    -0.232621141586E+04    0.38485E-04   -0.96741E-05  2897   0.549E-03    0.267E-02
RMM:   5    -0.232621140826E+04    0.76039E-05   -0.33404E-05  2994   0.414E-03
  65 F= -.23468986E+04 E0= -.23468986E+04  d E =-.151261E-02  mag=     4.0000
       N       E                     dE             d eps       ncg     rms          rms(c)
DAV:   1    -0.232621212654E+04   -0.71067E-03   -0.78755E-02  4448   0.259E-01    0.735E-02
RMM:   2    -0.232621275921E+04   -0.63267E-03   -0.64376E-03  6123   0.470E-02    0.833E-02
RMM:   3    -0.232621279678E+04   -0.37567E-04   -0.63048E-04  3379   0.150E-02    0.811E-02
RMM:   4    -0.232621276142E+04    0.35360E-04   -0.74671E-05  2875   0.520E-03    0.239E-02
RMM:   5    -0.232621275536E+04    0.60577E-05   -0.28195E-05  2946   0.387E-03
  66 F= -.23468999E+04 E0= -.23468999E+04  d E =-.128919E-02  mag=     4.0000
       N       E                     dE             d eps       ncg     rms          rms(c)
DAV:   1    -0.232619072022E+04    0.22041E-01   -0.39468E+00  4416   0.182E+00    0.506E-01
RMM:   2    -0.232622253227E+04   -0.31812E-01   -0.31918E-01  5948   0.316E-01    0.649E-01
RMM:   3    -0.232622351874E+04   -0.98647E-03   -0.28637E-02  5660   0.990E-02    0.528E-01
RMM:   4    -0.232622205215E+04    0.14666E-02   -0.35489E-03  5256   0.262E-02    0.161E-01
RMM:   5    -0.232622173738E+04    0.31477E-03   -0.12174E-03  4682   0.200E-02    0.620E-02
RMM:   6    -0.232622174977E+04   -0.12395E-04   -0.20359E-04  4001   0.141E-02    0.220E-02
RMM:   7    -0.232622175092E+04   -0.11503E-05   -0.29435E-05  3001   0.458E-03
  67 F= -.23469084E+04 E0= -.23469084E+04  d E =-.846409E-02  mag=     4.0000
       N       E                     dE             d eps       ncg     rms          rms(c)
DAV:   1    -0.232622167480E+04    0.74972E-04   -0.48091E-03  5104   0.759E-02    0.242E-02
RMM:   2    -0.232622168876E+04   -0.13961E-04   -0.17349E-04  4696   0.143E-02    0.120E-02
RMM:   3    -0.232622168714E+04    0.16189E-05   -0.13620E-05  2833   0.708E-03
  68 F= -.23469083E+04 E0= -.23469083E+04  d E =0.531881E-04  mag=     4.0000
       N       E                     dE             d eps       ncg     rms          rms(c)
DAV:   1    -0.232622209746E+04   -0.40869E-03   -0.14125E-02  4592   0.109E-01    0.370E-02
RMM:   2    -0.232622224525E+04   -0.14779E-03   -0.11932E-03  5711   0.205E-02    0.875E-02
RMM:   3    -0.232622220916E+04    0.36088E-04   -0.10948E-04  2874   0.648E-03    0.208E-02
RMM:   4    -0.232622220681E+04    0.23540E-05   -0.13956E-05  2842   0.252E-03
  69 F= -.23469088E+04 E0= -.23469088E+04  d E =-.497002E-03  mag=     4.0000
       N       E                     dE             d eps       ncg     rms          rms(c)
DAV:   1    -0.232622238271E+04   -0.17355E-03   -0.19487E-03  4704   0.418E-02    0.138E-02
RMM:   2    -0.232622239852E+04   -0.15808E-04   -0.13408E-04  3476   0.762E-03    0.271E-02
RMM:   3    -0.232622239589E+04    0.26294E-05   -0.16809E-05  2697   0.422E-03
  70 F= -.23469090E+04 E0= -.23469090E+04  d E =-.175355E-03  mag=     4.0000
       N       E                     dE             d eps       ncg     rms          rms(c)
DAV:   1    -0.232622271381E+04   -0.31529E-03   -0.82644E-03  4480   0.838E-02    0.250E-02
RMM:   2    -0.232622277334E+04   -0.59530E-04   -0.61571E-04  5239   0.152E-02    0.244E-02
RMM:   3    -0.232622277834E+04   -0.49985E-05   -0.60956E-05  2819   0.566E-03
  71 F= -.23469094E+04 E0= -.23469094E+04  d E =-.369797E-03  mag=     4.0000
       N       E                     dE             d eps       ncg     rms          rms(c)
DAV:   1    -0.232622326432E+04   -0.49098E-03   -0.28085E-02  4480   0.154E-01    0.464E-02
RMM:   2    -0.232622347892E+04   -0.21459E-03   -0.21697E-03  5827   0.277E-02    0.545E-02
RMM:   3    -0.232622348608E+04   -0.71638E-05   -0.21618E-04  2912   0.881E-03    0.465E-02
RMM:   4    -0.232622347475E+04    0.11330E-04   -0.27827E-05  2860   0.339E-03    0.159E-02
RMM:   5    -0.232622347216E+04    0.25925E-05   -0.13715E-05  2860   0.277E-03
  72 F= -.23469100E+04 E0= -.23469100E+04  d E =-.657329E-03  mag=     4.0000
       N       E                     dE             d eps       ncg     rms          rms(c)
DAV:   1    -0.232622368752E+04   -0.21277E-03   -0.35364E-03  4480   0.544E-02    0.163E-02
RMM:   2    -0.232622371741E+04   -0.29895E-04   -0.31571E-04  4224   0.111E-02    0.891E-03
RMM:   3    -0.232622372000E+04   -0.25911E-05   -0.35680E-05  2692   0.495E-03
  73 F= -.23469103E+04 E0= -.23469103E+04  d E =-.239492E-03  mag=     4.0000
       N       E                     dE             d eps       ncg     rms          rms(c)
DAV:   1    -0.232622392057E+04   -0.20316E-03   -0.20561E-01  4448   0.410E-01    0.117E-01
RMM:   2    -0.232622559912E+04   -0.16785E-02   -0.17099E-02  5957   0.724E-02    0.133E-01
RMM:   3    -0.232622568519E+04   -0.86075E-04   -0.15474E-03  4239   0.222E-02    0.128E-01
RMM:   4    -0.232622559855E+04    0.86641E-04   -0.19503E-04  2963   0.684E-03    0.395E-02
RMM:   5    -0.232622558105E+04    0.17498E-04   -0.77595E-05  3276   0.577E-03    0.156E-02
RMM:   6    -0.232622558257E+04   -0.15167E-05   -0.14881E-05  2879   0.442E-03
  74 F= -.23469120E+04 E0= -.23469120E+04  d E =-.176596E-02  mag=     4.0000
       N       E                     dE             d eps       ncg     rms          rms(c)
DAV:   1    -0.232622573439E+04   -0.15334E-03   -0.19805E-01  4432   0.404E-01    0.116E-01
RMM:   2    -0.232622738393E+04   -0.16495E-02   -0.16493E-02  5951   0.714E-02    0.151E-01
RMM:   3    -0.232622742509E+04   -0.41161E-04   -0.15019E-03  4371   0.220E-02    0.119E-01
RMM:   4    -0.232622734848E+04    0.76610E-04   -0.18085E-04  2953   0.655E-03    0.368E-02
RMM:   5    -0.232622733324E+04    0.15238E-04   -0.67540E-05  3217   0.536E-03    0.144E-02
RMM:   6    -0.232622733453E+04   -0.12904E-05   -0.12615E-05  2870   0.421E-03
  75 F= -.23469137E+04 E0= -.23469137E+04  d E =-.166037E-02  mag=     4.0000
       N       E                     dE             d eps       ncg     rms          rms(c)
DAV:   1    -0.232622661398E+04    0.71925E-03   -0.23495E-02  4448   0.143E-01    0.401E-02
RMM:   2    -0.232622677972E+04   -0.16574E-03   -0.16709E-03  5865   0.257E-02    0.526E-02
RMM:   3    -0.232622678095E+04   -0.12287E-05   -0.16418E-04  2891   0.895E-03    0.386E-02
RMM:   4    -0.232622677222E+04    0.87366E-05   -0.20018E-05  2852   0.315E-03
  76 F= -.23469132E+04 E0= -.23469132E+04  d E =0.531715E-03  mag=     4.0000
       N       E                     dE             d eps       ncg     rms          rms(c)
DAV:   1    -0.232622023296E+04    0.65480E-02   -0.12824E+00  4416   0.102E+00    0.293E-01
RMM:   2    -0.232623128124E+04   -0.11048E-01   -0.11142E-01  5966   0.181E-01    0.364E-01
RMM:   3    -0.232623171003E+04   -0.42879E-03   -0.98905E-03  5590   0.554E-02    0.314E-01
RMM:   4    -0.232623118605E+04    0.52398E-03   -0.12177E-03  4199   0.151E-02    0.935E-02
RMM:   5    -0.232623107796E+04    0.10810E-03   -0.41338E-04  4221   0.119E-02    0.362E-02
RMM:   6    -0.232623108279E+04   -0.48393E-05   -0.75947E-05  3296   0.865E-03
  77 F= -.23469172E+04 E0= -.23469172E+04  d E =-.407374E-02  mag=     4.0000
       N       E                     dE             d eps       ncg     rms          rms(c)
DAV:   1    -0.232622605134E+04    0.50266E-02   -0.35229E-01  4416   0.534E-01    0.153E-01
RMM:   2    -0.232622894863E+04   -0.28973E-02   -0.29061E-02  6108   0.957E-02    0.204E-01
RMM:   3    -0.232622901785E+04   -0.69221E-04   -0.30235E-03  4944   0.315E-02    0.148E-01
RMM:   4    -0.232622889795E+04    0.11990E-03   -0.33203E-04  3165   0.856E-03    0.497E-02
RMM:   5    -0.232622886553E+04    0.32425E-04   -0.13107E-04  3554   0.744E-03    0.190E-02
RMM:   6    -0.232622886535E+04    0.18165E-06   -0.26372E-05  2937   0.549E-03
  78 F= -.23469151E+04 E0= -.23469151E+04  d E =0.207840E-02  mag=     4.0000
       N       E                     dE             d eps       ncg     rms          rms(c)
DAV:   1    -0.232622560281E+04    0.32627E-02   -0.73892E-01  4416   0.764E-01    0.224E-01
RMM:   2    -0.232623218033E+04   -0.65775E-02   -0.66490E-02  6084   0.137E-01    0.276E-01
RMM:   3    -0.232623245748E+04   -0.27716E-03   -0.60026E-03  5384   0.433E-02    0.240E-01
RMM:   4    -0.232623215138E+04    0.30610E-03   -0.73015E-04  3543   0.118E-02    0.722E-02
RMM:   5    -0.232623208517E+04    0.66214E-04   -0.24662E-04  3931   0.959E-03    0.278E-02
RMM:   6    -0.232623208838E+04   -0.32069E-05   -0.45335E-05  3082   0.705E-03
  79 F= -.23469182E+04 E0= -.23469182E+04  d E =-.304809E-02  mag=     4.0000
       N       E                     dE             d eps       ncg     rms          rms(c)
DAV:   1    -0.232623151235E+04    0.57282E-03   -0.27491E-01  4416   0.469E-01    0.139E-01
RMM:   2    -0.232623399127E+04   -0.24789E-02   -0.24851E-02  6005   0.849E-02    0.178E-01
RMM:   3    -0.232623407396E+04   -0.82691E-04   -0.22394E-03  4746   0.259E-02    0.147E-01
RMM:   4    -0.232623396090E+04    0.11306E-03   -0.27229E-04  3004   0.754E-03    0.438E-02
RMM:   5    -0.232623393995E+04    0.20956E-04   -0.90156E-05  3315   0.603E-03    0.176E-02
RMM:   6    -0.232623394169E+04   -0.17440E-05   -0.18066E-05  2891   0.471E-03
  80 F= -.23469199E+04 E0= -.23469199E+04  d E =-.174711E-02  mag=     4.0000
       N       E                     dE             d eps       ncg     rms          rms(c)
DAV:   1    -0.232623101466E+04    0.29253E-02   -0.17480E-01  4416   0.376E-01    0.109E-01
RMM:   2    -0.232623250286E+04   -0.14882E-02   -0.14917E-02  6081   0.677E-02    0.145E-01
RMM:   3    -0.232623254237E+04   -0.39502E-04   -0.15291E-03  4133   0.216E-02    0.107E-01
RMM:   4    -0.232623248071E+04    0.61656E-04   -0.16946E-04  2945   0.643E-03    0.353E-02
RMM:   5    -0.232623246489E+04    0.15824E-04   -0.65131E-05  3203   0.537E-03    0.137E-02
RMM:   6    -0.232623246485E+04    0.39887E-07   -0.14276E-05  2875   0.419E-03
  81 F= -.23469186E+04 E0= -.23469186E+04  d E =0.137485E-02  mag=     4.0000
       N       E                     dE             d eps       ncg     rms          rms(c)
DAV:   1    -0.232623144425E+04    0.10206E-02   -0.35372E-01  4416   0.527E-01    0.156E-01
RMM:   2    -0.232623461165E+04   -0.31674E-02   -0.32021E-02  6099   0.955E-02    0.192E-01
RMM:   3    -0.232623474112E+04   -0.12947E-03   -0.28902E-03  4909   0.292E-02    0.166E-01
RMM:   4    -0.232623459409E+04    0.14703E-03   -0.35105E-04  3095   0.847E-03    0.501E-02
RMM:   5    -0.232623456203E+04    0.32060E-04   -0.12138E-04  3508   0.703E-03    0.197E-02
RMM:   6    -0.232623456379E+04   -0.17617E-05   -0.24455E-05  2932   0.534E-03
  82 F= -.23469205E+04 E0= -.23469205E+04  d E =-.198211E-02  mag=     4.0000
       N       E                     dE             d eps       ncg     rms          rms(c)
DAV:   1    -0.232623477277E+04   -0.21074E-03   -0.88643E-02  4480   0.266E-01    0.795E-02
RMM:   2    -0.232623558215E+04   -0.80938E-03   -0.81063E-03  6032   0.487E-02    0.101E-01
RMM:   3    -0.232623561202E+04   -0.29873E-04   -0.77327E-04  3446   0.156E-02    0.844E-02
RMM:   4    -0.232623557493E+04    0.37087E-04   -0.91699E-05  2877   0.506E-03    0.250E-02
RMM:   5    -0.232623556818E+04    0.67513E-05   -0.29112E-05  2943   0.363E-03
  83 F= -.23469215E+04 E0= -.23469215E+04  d E =-.946537E-03  mag=     4.0000
       N       E                     dE             d eps       ncg     rms          rms(c)
DAV:   1    -0.232623476089E+04    0.81404E-03   -0.28160E-01  4448   0.471E-01    0.140E-01
RMM:   2    -0.232623729519E+04   -0.25343E-02   -0.25737E-02  6091   0.860E-02    0.163E-01
RMM:   3    -0.232623743703E+04   -0.14184E-03   -0.24391E-03  4627   0.259E-02    0.155E-01
RMM:   4    -0.232623730995E+04    0.12708E-03   -0.29213E-04  3003   0.773E-03    0.451E-02
RMM:   5    -0.232623728703E+04    0.22918E-04   -0.98782E-05  3336   0.621E-03    0.187E-02
RMM:   6    -0.232623728796E+04   -0.93353E-06   -0.21909E-05  2911   0.480E-03
  84 F= -.23469231E+04 E0= -.23469231E+04  d E =-.162198E-02  mag=     4.0000
       N       E                     dE             d eps       ncg     rms          rms(c)
DAV:   1    -0.232623629088E+04    0.99615E-03   -0.38073E-02  4464   0.171E-01    0.541E-02
RMM:   2    -0.232623665965E+04   -0.36878E-03   -0.37053E-03  6034   0.330E-02    0.705E-02
RMM:   3    -0.232623667153E+04   -0.11875E-04   -0.38601E-04  2970   0.112E-02    0.532E-02
RMM:   4    -0.232623665672E+04    0.14806E-04   -0.43084E-05  2870   0.391E-03    0.170E-02
RMM:   5    -0.232623665279E+04    0.39290E-05   -0.15069E-05  2877   0.291E-03
  85 F= -.23469225E+04 E0= -.23469225E+04  d E =0.581670E-03  mag=     4.0000
       N       E                     dE             d eps       ncg     rms          rms(c)
DAV:   1    -0.232623479342E+04    0.18633E-02   -0.44977E-01  4416   0.596E-01    0.175E-01
RMM:   2    -0.232623882946E+04   -0.40360E-02   -0.40649E-02  6115   0.107E-01    0.221E-01
RMM:   3    -0.232623897206E+04   -0.14260E-03   -0.35978E-03  5139   0.316E-02    0.185E-01
RMM:   4    -0.232623878834E+04    0.18371E-03   -0.43955E-04  3200   0.920E-03    0.559E-02
RMM:   5    -0.232623874867E+04    0.39679E-04   -0.14966E-04  3621   0.767E-03    0.219E-02
RMM:   6    -0.232623875072E+04   -0.20538E-05   -0.28742E-05  2968   0.578E-03
  86 F= -.23469245E+04 E0= -.23469245E+04  d E =-.198433E-02  mag=     4.0000
       N       E                     dE             d eps       ncg     rms          rms(c)
DAV:   1    -0.232623817031E+04    0.57836E-03   -0.22783E-01  4448   0.428E-01    0.125E-01
RMM:   2    -0.232624018013E+04   -0.20098E-02   -0.20281E-02  5957   0.771E-02    0.152E-01
RMM:   3    -0.232624026556E+04   -0.85433E-04   -0.18251E-03  4489   0.234E-02    0.136E-01
RMM:   4    -0.232624016805E+04    0.97512E-04   -0.22323E-04  2953   0.696E-03    0.399E-02
RMM:   5    -0.232624015045E+04    0.17599E-04   -0.74635E-05  3232   0.556E-03    0.164E-02
RMM:   6    -0.232624015185E+04   -0.13991E-05   -0.16102E-05  2879   0.436E-03
  87 F= -.23469258E+04 E0= -.23469258E+04  d E =-.132750E-02  mag=     4.0000
       N       E                     dE             d eps       ncg     rms          rms(c)
DAV:   1    -0.232623856361E+04    0.15868E-02   -0.83051E-02  4416   0.253E-01    0.765E-02
RMM:   2    -0.232623931563E+04   -0.75203E-03   -0.75918E-03  6106   0.470E-02    0.968E-02
RMM:   3    -0.232623934526E+04   -0.29621E-04   -0.78188E-04  3340   0.155E-02    0.774E-02
RMM:   4    -0.232623931314E+04    0.32116E-04   -0.87148E-05  2884   0.504E-03    0.248E-02
RMM:   5    -0.232623930527E+04    0.78702E-05   -0.31561E-05  2969   0.386E-03
  88 F= -.23469251E+04 E0= -.23469251E+04  d E =0.794939E-03  mag=     4.0000
       N       E                     dE             d eps       ncg     rms          rms(c)
DAV:   1    -0.232623444929E+04    0.48639E-02   -0.87195E-01  4416   0.836E-01    0.241E-01
RMM:   2    -0.232624209502E+04   -0.76457E-02   -0.77361E-02  6032   0.149E-01    0.292E-01
RMM:   3    -0.232624241684E+04   -0.32182E-03   -0.67780E-03  5453   0.452E-02    0.263E-01
RMM:   4    -0.232624204641E+04    0.37042E-03   -0.84172E-04  3688   0.125E-02    0.773E-02
RMM:   5    -0.232624197075E+04    0.75660E-04   -0.28543E-04  4016   0.102E-02    0.300E-02
RMM:   6    -0.232624197408E+04   -0.33241E-05   -0.53022E-05  3121   0.744E-03
  89 F= -.23469276E+04 E0= -.23469276E+04  d E =-.251481E-02  mag=     4.0000
       N       E                     dE             d eps       ncg     rms          rms(c)
DAV:   1    -0.232624198693E+04   -0.16181E-04   -0.73712E-04  5320   0.304E-02    0.106E-02
RMM:   2    -0.232624199000E+04   -0.30653E-05   -0.33592E-05  3013   0.640E-03
  90 F= -.23469276E+04 E0= -.23469276E+04  d E =-.248676E-04  mag=     4.0000
       N       E                     dE             d eps       ncg     rms          rms(c)
DAV:   1    -0.232624140520E+04    0.58174E-03   -0.20162E-01  4416   0.400E-01    0.121E-01
RMM:   2    -0.232624328355E+04   -0.18784E-02   -0.18442E-02  6255   0.738E-02    0.177E-01
RMM:   3    -0.232624328496E+04   -0.14096E-05   -0.17319E-03  4410   0.230E-02    0.116E-01
RMM:   4    -0.232624321408E+04    0.70876E-04   -0.20442E-04  2954   0.698E-03    0.374E-02
RMM:   5    -0.232624319755E+04    0.16537E-04   -0.70554E-05  3245   0.560E-03    0.158E-02
RMM:   6    -0.232624319839E+04   -0.84555E-06   -0.13234E-05  2868   0.441E-03
  91 F= -.23469287E+04 E0= -.23469287E+04  d E =-.114010E-02  mag=     4.0000
       N       E                     dE             d eps       ncg     rms          rms(c)
DAV:   1    -0.232624188607E+04    0.13115E-02   -0.73345E-02  4448   0.244E-01    0.701E-02
RMM:   2    -0.232624250272E+04   -0.61665E-03   -0.62160E-03  6042   0.441E-02    0.900E-02
RMM:   3    -0.232624252263E+04   -0.19906E-04   -0.62442E-04  3289   0.150E-02    0.708E-02
RMM:   4    -0.232624249580E+04    0.26835E-04   -0.71018E-05  2882   0.479E-03    0.226E-02
RMM:   5    -0.232624248915E+04    0.66429E-05   -0.27090E-05  2950   0.368E-03
  92 F= -.23469281E+04 E0= -.23469281E+04  d E =0.652359E-03  mag=     4.0000
       N       E                     dE             d eps       ncg     rms          rms(c)
DAV:   1    -0.232624106089E+04    0.14349E-02   -0.33312E-01  4416   0.517E-01    0.149E-01
RMM:   2    -0.232624401600E+04   -0.29551E-02   -0.30086E-02  6049   0.926E-02    0.170E-01
RMM:   3    -0.232624418179E+04   -0.16579E-03   -0.27724E-03  4835   0.286E-02    0.167E-01
RMM:   4    -0.232624403107E+04    0.15072E-03   -0.33669E-04  3042   0.816E-03    0.488E-02
RMM:   5    -0.232624400136E+04    0.29714E-04   -0.11400E-04  3412   0.679E-03    0.200E-02
RMM:   6    -0.232624400189E+04   -0.53475E-06   -0.25453E-05  2923   0.523E-03
  93 F= -.23469295E+04 E0= -.23469295E+04  d E =-.143083E-02  mag=     4.0000
       N       E                     dE             d eps       ncg     rms          rms(c)
DAV:   1    -0.232624299534E+04    0.10060E-02   -0.25491E-01  4448   0.456E-01    0.131E-01
RMM:   2    -0.232624522106E+04   -0.22257E-02   -0.22797E-02  5915   0.818E-02    0.139E-01
RMM:   3    -0.232624538281E+04   -0.16176E-03   -0.21691E-03  4741   0.271E-02    0.153E-01
RMM:   4    -0.232624525984E+04    0.12298E-03   -0.26691E-04  2948   0.734E-03    0.431E-02
RMM:   5    -0.232624523941E+04    0.20421E-04   -0.87141E-05  3248   0.590E-03    0.190E-02
RMM:   6    -0.232624523984E+04   -0.42544E-06   -0.22048E-05  2892   0.458E-03
  94 F= -.23469307E+04 E0= -.23469307E+04  d E =-.116845E-02  mag=     4.0000
       N       E                     dE             d eps       ncg     rms          rms(c)
DAV:   1    -0.232624121297E+04    0.40264E-02   -0.30953E-01  4416   0.500E-01    0.143E-01
RMM:   2    -0.232624387989E+04   -0.26669E-02   -0.27175E-02  6104   0.904E-02    0.167E-01
RMM:   3    -0.232624402561E+04   -0.14572E-03   -0.26822E-03  4842   0.291E-02    0.155E-01
RMM:   4    -0.232624389846E+04    0.12715E-03   -0.30816E-04  3029   0.809E-03    0.473E-02
RMM:   5    -0.232624387182E+04    0.26634E-04   -0.10815E-04  3360   0.672E-03    0.208E-02
RMM:   6    -0.232624387066E+04    0.11662E-05   -0.26159E-05  2920   0.520E-03
  95 F= -.23469294E+04 E0= -.23469294E+04  d E =0.128100E-02  mag=     4.0000
       N       E                     dE             d eps       ncg     rms          rms(c)
DAV:   1    -0.232624386995E+04    0.18761E-05   -0.72948E-02  4416   0.241E-01    0.704E-02
RMM:   2    -0.232624452716E+04   -0.65721E-03   -0.68115E-03  6186   0.450E-02    0.664E-02
RMM:   3    -0.232624457998E+04   -0.52818E-04   -0.64539E-04  3303   0.145E-02    0.809E-02
RMM:   4    -0.232624454578E+04    0.34198E-04   -0.82111E-05  2871   0.496E-03    0.245E-02
RMM:   5    -0.232624453816E+04    0.76240E-05   -0.26081E-05  2918   0.363E-03
  96 F= -.23469300E+04 E0= -.23469300E+04  d E =-.639201E-03  mag=     4.0000
       N       E                     dE             d eps       ncg     rms          rms(c)
DAV:   1    -0.232624461584E+04   -0.70061E-04   -0.18754E-03  4648   0.422E-02    0.139E-02
RMM:   2    -0.232624463308E+04   -0.17237E-04   -0.18003E-04  3770   0.898E-03    0.129E-02
RMM:   3    -0.232624463556E+04   -0.24807E-05   -0.23471E-05  2584   0.479E-03
  97 F= -.23469301E+04 E0= -.23469301E+04  d E =-.950115E-04  mag=     4.0000
       N       E                     dE             d eps       ncg     rms          rms(c)
DAV:   1    -0.232624476613E+04   -0.13305E-03   -0.97350E-03  4448   0.881E-02    0.278E-02
RMM:   2    -0.232624485976E+04   -0.93632E-04   -0.98024E-04  5410   0.171E-02    0.203E-02
RMM:   3    -0.232624486954E+04   -0.97800E-05   -0.99815E-05  2819   0.618E-03
  98 F= -.23469304E+04 E0= -.23469304E+04  d E =-.230242E-03  mag=     4.0000
       N       E                     dE             d eps       ncg     rms          rms(c)
DAV:   1    -0.232624495442E+04   -0.94657E-04   -0.45573E-02  4464   0.190E-01    0.586E-02
RMM:   2    -0.232624537176E+04   -0.41734E-03   -0.43579E-03  6021   0.354E-02    0.443E-02
RMM:   3    -0.232624540837E+04   -0.36612E-04   -0.41496E-04  2985   0.108E-02    0.607E-02
RMM:   4    -0.232624539229E+04    0.16076E-04   -0.56381E-05  2862   0.392E-03    0.241E-02
RMM:   5    -0.232624538745E+04    0.48420E-05   -0.19479E-05  2862   0.297E-03
  99 F= -.23469309E+04 E0= -.23469309E+04  d E =-.493259E-03  mag=     4.0000
       N       E                     dE             d eps       ncg     rms          rms(c)
DAV:   1    -0.232624541914E+04   -0.26848E-04   -0.53483E-02  4448   0.206E-01    0.608E-02
RMM:   2    -0.232624591410E+04   -0.49496E-03   -0.52031E-03  6056   0.388E-02    0.405E-02
RMM:   3    -0.232624595742E+04   -0.43318E-04   -0.48749E-04  3026   0.118E-02    0.581E-02
RMM:   4    -0.232624594336E+04    0.14063E-04   -0.61144E-05  2865   0.395E-03    0.243E-02
RMM:   5    -0.232624593852E+04    0.48424E-05   -0.16412E-05  2803   0.268E-03
 100 F= -.23469314E+04 E0= -.23469314E+04  d E =-.530701E-03  mag=     4.0000
       N       E                     dE             d eps       ncg     rms          rms(c)
DAV:   1    -0.232624605441E+04   -0.11105E-03   -0.29018E-02  4464   0.152E-01    0.454E-02
RMM:   2    -0.232624632706E+04   -0.27265E-03   -0.28613E-03  5935   0.287E-02    0.333E-02
RMM:   3    -0.232624635385E+04   -0.26798E-04   -0.27489E-04  2905   0.924E-03    0.500E-02
RMM:   4    -0.232624634217E+04    0.11683E-04   -0.35386E-05  2838   0.324E-03    0.169E-02
RMM:   5    -0.232624633970E+04    0.24704E-05   -0.92797E-06  2646   0.206E-03
 101 F= -.23469318E+04 E0= -.23469318E+04  d E =-.385903E-03  mag=     4.0000
       N       E                     dE             d eps       ncg     rms          rms(c)
DAV:   1    -0.232624638505E+04   -0.42878E-04   -0.46976E-02  4448   0.193E-01    0.571E-02
RMM:   2    -0.232624682363E+04   -0.43858E-03   -0.45696E-03  5988   0.360E-02    0.476E-02
RMM:   3    -0.232624686545E+04   -0.41817E-04   -0.43481E-04  3005   0.114E-02    0.674E-02
RMM:   4    -0.232624684265E+04    0.22797E-04   -0.56666E-05  2856   0.402E-03    0.201E-02
RMM:   5    -0.232624683852E+04    0.41311E-05   -0.15405E-05  2782   0.260E-03
 102 F= -.23469323E+04 E0= -.23469323E+04  d E =-.481964E-03  mag=     4.0000
       N       E                     dE             d eps       ncg     rms          rms(c)
DAV:   1    -0.232624246674E+04    0.43759E-02   -0.31806E-01  4448   0.499E-01    0.148E-01
RMM:   2    -0.232624544435E+04   -0.29776E-02   -0.30737E-02  6054   0.915E-02    0.146E-01
RMM:   3    -0.232624569637E+04   -0.25202E-03   -0.30482E-03  4818   0.285E-02    0.174E-01
RMM:   4    -0.232624554051E+04    0.15586E-03   -0.36199E-04  2976   0.808E-03    0.510E-02
RMM:   5    -0.232624551185E+04    0.28658E-04   -0.11121E-04  3253   0.647E-03    0.247E-02
RMM:   6    -0.232624550850E+04    0.33547E-05   -0.37694E-05  2960   0.517E-03
 103 F= -.23469310E+04 E0= -.23469310E+04  d E =0.127285E-02  mag=     4.0000
       N       E                     dE             d eps       ncg     rms          rms(c)
DAV:   1    -0.232624393402E+04    0.15778E-02   -0.28090E-01  4448   0.467E-01    0.139E-01
RMM:   2    -0.232624665289E+04   -0.27189E-02   -0.28384E-02  6246   0.872E-02    0.108E-01
RMM:   3    -0.232624689019E+04   -0.23730E-03   -0.25472E-03  4553   0.266E-02    0.157E-01
RMM:   4    -0.232624676911E+04    0.12108E-03   -0.32529E-04  2927   0.778E-03    0.503E-02
RMM:   5    -0.232624674107E+04    0.28048E-04   -0.91162E-05  3209   0.599E-03    0.232E-02
RMM:   6    -0.232624673954E+04    0.15279E-05   -0.31699E-05  2942   0.481E-03
 104 F= -.23469322E+04 E0= -.23469322E+04  d E =-.120400E-02  mag=     4.0000
       N       E                     dE             d eps       ncg     rms          rms(c)
DAV:   1    -0.232624680810E+04   -0.67034E-04   -0.30757E-02  4448   0.157E-01    0.470E-02
RMM:   2    -0.232624710883E+04   -0.30073E-03   -0.31383E-03  5967   0.303E-02    0.339E-02
RMM:   3    -0.232624713955E+04   -0.30726E-04   -0.31667E-04  2908   0.994E-03    0.531E-02
RMM:   4    -0.232624712622E+04    0.13332E-04   -0.38531E-05  2841   0.352E-03    0.171E-02
RMM:   5    -0.232624712373E+04    0.24948E-05   -0.89802E-06  2715   0.215E-03
 105 F= -.23469326E+04 E0= -.23469326E+04  d E =-.379038E-03  mag=     4.0000
       N       E                     dE             d eps       ncg     rms          rms(c)
DAV:   1    -0.232624726423E+04   -0.13801E-03   -0.10400E-02  4480   0.943E-02    0.269E-02
RMM:   2    -0.232624735008E+04   -0.85846E-04   -0.87176E-04  5444   0.174E-02    0.318E-02
RMM:   3    -0.232624735442E+04   -0.43406E-05   -0.84703E-05  2822   0.603E-03
 106 F= -.23469328E+04 E0= -.23469328E+04  d E =-.216583E-03  mag=     4.0000
       N       E                     dE             d eps       ncg     rms          rms(c)
DAV:   1    -0.232624738687E+04   -0.36791E-04   -0.40015E-02  4464   0.179E-01    0.559E-02
RMM:   2    -0.232624777154E+04   -0.38467E-03   -0.39506E-03  5953   0.336E-02    0.533E-02
RMM:   3    -0.232624780283E+04   -0.31287E-04   -0.38809E-04  2947   0.108E-02    0.626E-02
RMM:   4    -0.232624778376E+04    0.19064E-04   -0.52948E-05  2864   0.400E-03    0.201E-02
RMM:   5    -0.232624777959E+04    0.41739E-05   -0.17402E-05  2852   0.290E-03
 107 F= -.23469332E+04 E0= -.23469332E+04  d E =-.417679E-03  mag=     4.0000
       N       E                     dE             d eps       ncg     rms          rms(c)
DAV:   1    -0.232624767906E+04    0.10470E-03   -0.65758E-02  4448   0.229E-01    0.676E-02
RMM:   2    -0.232624830239E+04   -0.62332E-03   -0.65299E-03  6020   0.430E-02    0.474E-02
RMM:   3    -0.232624835959E+04   -0.57208E-04   -0.61449E-04  3141   0.135E-02    0.705E-02
RMM:   4    -0.232624833689E+04    0.22708E-04   -0.77136E-05  2871   0.450E-03    0.254E-02
RMM:   5    -0.232624833109E+04    0.58007E-05   -0.19920E-05  2837   0.300E-03
 108 F= -.23469337E+04 E0= -.23469337E+04  d E =-.542710E-03  mag=     4.0000
       N       E                     dE             d eps       ncg     rms          rms(c)
DAV:   1    -0.232624818594E+04    0.15095E-03   -0.39464E-03  4576   0.606E-02    0.162E-02
RMM:   2    -0.232624821592E+04   -0.29980E-04   -0.31435E-04  4552   0.117E-02    0.122E-02
RMM:   3    -0.232624821892E+04   -0.30012E-05   -0.30496E-05  2729   0.511E-03
 109 F= -.23469336E+04 E0= -.23469336E+04  d E =0.105545E-03  mag=     4.0000
       N       E                     dE             d eps       ncg     rms          rms(c)
DAV:   1    -0.232624789334E+04    0.32258E-03   -0.10184E-01  4448   0.284E-01    0.832E-02
RMM:   2    -0.232624886523E+04   -0.97190E-03   -0.10052E-02  6046   0.521E-02    0.792E-02
[...]
 151 F= -.23469426E+04 E0= -.23469426E+04  d E =0.783340E-04  mag=     4.0000
       N       E                     dE             d eps       ncg     rms          rms(c)
DAV:   1    -0.232625748510E+04    0.67469E-04   -0.28137E-02  4416   0.146E-01    0.451E-02
RMM:   2    -0.232625778772E+04   -0.30262E-03   -0.31673E-03  5904   0.283E-02    0.347E-02
RMM:   3    -0.232625781952E+04   -0.31798E-04   -0.30554E-04  2892   0.915E-03    0.564E-02
RMM:   4    -0.232625780318E+04    0.16340E-04   -0.36099E-05  2777   0.325E-03    0.144E-02
RMM:   5    -0.232625780080E+04    0.23776E-05   -0.68144E-06  2458   0.181E-03
 152 F= -.23469429E+04 E0= -.23469429E+04  d E =-.239916E-03  mag=     4.0000
       N       E                     dE             d eps       ncg     rms          rms(c)
DAV:   1    -0.232625732461E+04    0.47857E-03   -0.25711E-02  4416   0.142E-01    0.419E-02
RMM:   2    -0.232625756581E+04   -0.24120E-03   -0.25474E-03  5873   0.262E-02    0.255E-02
RMM:   3    -0.232625758424E+04   -0.18427E-04   -0.23742E-04  2887   0.920E-03    0.330E-02
RMM:   4    -0.232625758099E+04    0.32491E-05   -0.28567E-05  2764   0.267E-03
 153 F= -.23469426E+04 E0= -.23469426E+04  d E =0.220370E-03  mag=     4.0000
       N       E                     dE             d eps       ncg     rms          rms(c)
DAV:   1    -0.232625748059E+04    0.10364E-03   -0.31253E-02  4416   0.155E-01    0.469E-02
RMM:   2    -0.232625781323E+04   -0.33263E-03   -0.34921E-03  5940   0.303E-02    0.277E-02
RMM:   3    -0.232625784238E+04   -0.29151E-04   -0.33606E-04  2925   0.968E-03    0.388E-02
RMM:   4    -0.232625783708E+04    0.53013E-05   -0.37635E-05  2715   0.293E-03
 154 F= -.23469429E+04 E0= -.23469429E+04  d E =-.256619E-03  mag=     4.0000
       N       E                     dE             d eps       ncg     rms          rms(c)
DAV:   1    -0.232625780124E+04    0.41139E-04   -0.24906E-02  4416   0.138E-01    0.447E-02
RMM:   2    -0.232625806388E+04   -0.26265E-03   -0.26945E-03  5818   0.258E-02    0.475E-02
RMM:   3    -0.232625808439E+04   -0.20505E-04   -0.26370E-04  2885   0.932E-03    0.545E-02
RMM:   4    -0.232625806853E+04    0.15855E-04   -0.33039E-05  2827   0.315E-03    0.158E-02
RMM:   5    -0.232625806572E+04    0.28151E-05   -0.11589E-05  2792   0.227E-03
 155 F= -.23469431E+04 E0= -.23469431E+04  d E =-.223820E-03  mag=     4.0000
       N       E                     dE             d eps       ncg     rms          rms(c)
DAV:   1    -0.232625784366E+04    0.22488E-03   -0.49744E-02  4448   0.196E-01    0.604E-02
RMM:   2    -0.232625836530E+04   -0.52165E-03   -0.54160E-03  5993   0.376E-02    0.519E-02
RMM:   3    -0.232625841650E+04   -0.51197E-04   -0.51848E-04  3030   0.120E-02    0.742E-02
RMM:   4    -0.232625838887E+04    0.27632E-04   -0.64700E-05  2860   0.413E-03    0.199E-02
RMM:   5    -0.232625838443E+04    0.44396E-05   -0.14622E-05  2788   0.256E-03
 156 F= -.23469434E+04 E0= -.23469434E+04  d E =-.316286E-03  mag=     4.0000
       N       E                     dE             d eps       ncg     rms          rms(c)
DAV:   1    -0.232625774478E+04    0.64409E-03   -0.35202E-02  4416   0.164E-01    0.493E-02
RMM:   2    -0.232625810222E+04   -0.35743E-03   -0.37208E-03  5920   0.309E-02    0.405E-02
RMM:   3    -0.232625813605E+04   -0.33838E-04   -0.35924E-04  2930   0.108E-02    0.579E-02
RMM:   4    -0.232625811966E+04    0.16398E-04   -0.43284E-05  2799   0.340E-03    0.172E-02
RMM:   5    -0.232625811637E+04    0.32874E-05   -0.10358E-05  2693   0.220E-03
 157 F= -.23469432E+04 E0= -.23469432E+04  d E =0.259943E-03  mag=     4.0000
       N       E                     dE             d eps       ncg     rms          rms(c)
DAV:   1    -0.232625811382E+04    0.58340E-05   -0.16592E-02  4400   0.112E-01    0.347E-02
RMM:   2    -0.232625829387E+04   -0.18005E-03   -0.18660E-03  5599   0.213E-02    0.281E-02
RMM:   3    -0.232625831149E+04   -0.17625E-04   -0.18301E-04  2893   0.870E-03    0.415E-02
RMM:   4    -0.232625830289E+04    0.86020E-05   -0.21788E-05  2584   0.247E-03
 158 F= -.23469434E+04 E0= -.23469434E+04  d E =-.184400E-03  mag=     4.0000
       N       E                     dE             d eps       ncg     rms          rms(c)
DAV:   1    -0.232625821715E+04    0.94340E-04   -0.23064E-03  4384   0.430E-02    0.169E-02
RMM:   2    -0.232625824474E+04   -0.27582E-04   -0.27676E-04  4003   0.986E-03    0.230E-02
RMM:   3    -0.232625824527E+04   -0.53903E-06   -0.34054E-05  2626   0.491E-03
 159 F= -.23469433E+04 E0= -.23469433E+04  d E =0.433781E-04  mag=     4.0000
       N       E                     dE             d eps       ncg     rms          rms(c)
DAV:   1    -0.232625823510E+04    0.96406E-05   -0.23124E-04  4408   0.163E-02    0.711E-03
RMM:   2    -0.232625823746E+04   -0.23600E-05   -0.20214E-05  2423   0.396E-03
 160 F= -.23469433E+04 E0= -.23469433E+04  d E =-.239360E-06  mag=     4.0000
       N       E                     dE             d eps       ncg     rms          rms(c)
DAV:   1    -0.232625814768E+04    0.87415E-04   -0.21421E-03  4320   0.404E-02    0.149E-02
RMM:   2    -0.232625817195E+04   -0.24271E-04   -0.23277E-04  3673   0.903E-03    0.253E-02
RMM:   3    -0.232625817076E+04    0.11952E-05   -0.23271E-05  2396   0.436E-03
 161 F= -.23469433E+04 E0= -.23469433E+04  d E =0.610977E-04  mag=     4.0000
       N       E                     dE             d eps       ncg     rms          rms(c)
DAV:   1    -0.232625812062E+04    0.51327E-04   -0.74847E-04  4128   0.239E-02    0.996E-03
RMM:   2    -0.232625812812E+04   -0.74988E-05   -0.76005E-05  2799   0.540E-03
 162 F= -.23469432E+04 E0= -.23469432E+04  d E =0.323769E-04  mag=     4.0000
       N       E                     dE             d eps       ncg     rms          rms(c)
DAV:   1    -0.232625816982E+04   -0.49197E-04   -0.73630E-03  4416   0.794E-02    0.236E-02
RMM:   2    -0.232625823894E+04   -0.69120E-04   -0.71359E-04  5160   0.163E-02    0.229E-02
RMM:   3    -0.232625824549E+04   -0.65498E-05   -0.75406E-05  2725   0.617E-03
 163 F= -.23469433E+04 E0= -.23469433E+04  d E =-.119909E-03  mag=     4.0000
       N       E                     dE             d eps       ncg     rms          rms(c)
DAV:   1    -0.232625825793E+04   -0.18984E-04   -0.49061E-04  4264   0.225E-02    0.879E-03
RMM:   2    -0.232625826173E+04   -0.38066E-05   -0.44277E-05  2604   0.521E-03
 164 F= -.23469434E+04 E0= -.23469434E+04  d E =-.264909E-04  mag=     4.0000
       N       E                     dE             d eps       ncg     rms          rms(c)
DAV:   1    -0.232625828144E+04   -0.23517E-04   -0.51577E-04  4112   0.226E-02    0.815E-03
RMM:   2    -0.232625828787E+04   -0.64280E-05   -0.55169E-05  2738   0.553E-03
 165 F= -.23469434E+04 E0= -.23469434E+04  d E =-.329116E-04  mag=     4.0000
       N       E                     dE             d eps       ncg     rms          rms(c)
DAV:   1    -0.232625831116E+04   -0.29718E-04   -0.44343E-04  4208   0.197E-02    0.788E-03
RMM:   2    -0.232625831676E+04   -0.55983E-05   -0.52060E-05  2576   0.519E-03
 166 F= -.23469434E+04 E0= -.23469434E+04  d E =-.296768E-04  mag=     4.0000
       N       E                     dE             d eps       ncg     rms          rms(c)
DAV:   1    -0.232625833997E+04   -0.28806E-04   -0.11074E-03  4336   0.319E-02    0.116E-02
RMM:   2    -0.232625835353E+04   -0.13564E-04   -0.12166E-04  3309   0.763E-03    0.214E-02
RMM:   3    -0.232625835235E+04    0.11771E-05   -0.15588E-05  2328   0.396E-03
 167 F= -.23469435E+04 E0= -.23469435E+04  d E =-.443009E-04  mag=     4.0000
       N       E                     dE             d eps       ncg     rms          rms(c)
DAV:   1    -0.232625837656E+04   -0.23026E-04   -0.36115E-04  4200   0.184E-02    0.687E-03
RMM:   2    -0.232625838014E+04   -0.35846E-05   -0.36713E-05  2508   0.435E-03
 168 F= -.23469435E+04 E0= -.23469435E+04  d E =-.290076E-04  mag=     4.0000
       N       E                     dE             d eps       ncg     rms          rms(c)
DAV:   1    -0.232625838871E+04   -0.12150E-04   -0.60858E-05  4144   0.798E-03    0.762E-03
RMM:   2    -0.232625839280E+04   -0.40884E-05   -0.13241E-05  2336   0.272E-03
 169 F= -.23469435E+04 E0= -.23469435E+04  d E =-.137308E-04  mag=     4.0000
       N       E                     dE             d eps       ncg     rms          rms(c)
DAV:   1    -0.232625839887E+04   -0.10159E-04   -0.91379E-05  4000   0.873E-03    0.371E-03
RMM:   2    -0.232625839976E+04   -0.89660E-06   -0.92342E-06  2280   0.232E-03
 170 F= -.23469435E+04 E0= -.23469435E+04  d E =-.821032E-05  mag=     4.0000
       N       E                     dE             d eps       ncg     rms          rms(c)
DAV:   1    -0.232625843140E+04   -0.32534E-04   -0.21628E-03  4336   0.442E-02    0.133E-02
RMM:   2    -0.232625845398E+04   -0.22580E-04   -0.22280E-04  3797   0.893E-03    0.179E-02
RMM:   3    -0.232625845470E+04   -0.72198E-06   -0.24829E-05  2317   0.460E-03
 171 F= -.23469436E+04 E0= -.23469436E+04  d E =-.635370E-04  mag=     4.0000
       N       E                     dE             d eps       ncg     rms          rms(c)
DAV:   1    -0.232625847169E+04   -0.17715E-04   -0.18778E-04  4336   0.134E-02    0.606E-03
RMM:   2    -0.232625847340E+04   -0.17104E-05   -0.19523E-05  2347   0.332E-03
 172 F= -.23469436E+04 E0= -.23469436E+04  d E =-.200433E-04  mag=     4.0000
       N       E                     dE             d eps       ncg     rms          rms(c)
DAV:   1    -0.232625848188E+04   -0.10190E-04   -0.63398E-05  3888   0.796E-03    0.744E-03
RMM:   2    -0.232625848626E+04   -0.43790E-05   -0.13973E-05  2319   0.256E-03
 173 F= -.23469436E+04 E0= -.23469436E+04  d E =-.153176E-04  mag=     4.0000
       N       E                     dE             d eps       ncg     rms          rms(c)
DAV:   1    -0.232625850198E+04   -0.20093E-04   -0.30795E-04  4184   0.164E-02    0.536E-03
RMM:   2    -0.232625850507E+04   -0.30949E-05   -0.32315E-05  2382   0.389E-03
 174 F= -.23469436E+04 E0= -.23469436E+04  d E =-.187149E-04  mag=     4.0000
       N       E                     dE             d eps       ncg     rms          rms(c)
DAV:   1    -0.232625853718E+04   -0.35201E-04   -0.18371E-03  4336   0.409E-02    0.123E-02
RMM:   2    -0.232625855562E+04   -0.18438E-04   -0.19180E-04  3635   0.900E-03    0.952E-03
RMM:   3    -0.232625855800E+04   -0.23867E-05   -0.24620E-05  2312   0.471E-03
 175 F= -.23469437E+04 E0= -.23469437E+04  d E =-.589267E-04  mag=     4.0000
       N       E                     dE             d eps       ncg     rms          rms(c)
DAV:   1    -0.232625857721E+04   -0.21596E-04   -0.33774E-04  4144   0.176E-02    0.704E-03
RMM:   2    -0.232625858058E+04   -0.33665E-05   -0.36474E-05  2500   0.418E-03
 176 F= -.23469437E+04 E0= -.23469437E+04  d E =-.271246E-04  mag=     4.0000
       N       E                     dE             d eps       ncg     rms          rms(c)
DAV:   1    -0.232625859637E+04   -0.19158E-04   -0.18502E-04  4344   0.130E-02    0.919E-03
RMM:   2    -0.232625860369E+04   -0.73228E-05   -0.29804E-05  2452   0.360E-03
 177 F= -.23469438E+04 E0= -.23469438E+04  d E =-.255624E-04  mag=     4.0000
       N       E                     dE             d eps       ncg     rms          rms(c)
DAV:   1    -0.232625860620E+04   -0.98282E-05   -0.95964E-05  3928   0.862E-03    0.402E-03
RMM:   2    -0.232625860713E+04   -0.92738E-06   -0.10252E-05  2278   0.246E-03
 178 F= -.23469438E+04 E0= -.23469438E+04  d E =-.566484E-05  mag=     4.0000
       N       E                     dE             d eps       ncg     rms          rms(c)
DAV:   1    -0.232625862760E+04   -0.21400E-04   -0.22664E-03  4352   0.452E-02    0.141E-02
RMM:   2    -0.232625865210E+04   -0.24503E-04   -0.25339E-04  3950   0.946E-03    0.120E-02
RMM:   3    -0.232625865459E+04   -0.24913E-05   -0.27216E-05  2404   0.480E-03
 179 F= -.23469438E+04 E0= -.23469438E+04  d E =-.627820E-04  mag=     4.0000
       N       E                     dE             d eps       ncg     rms          rms(c)
DAV:   1    -0.232625867917E+04   -0.27069E-04   -0.44515E-04  4184   0.207E-02    0.776E-03
RMM:   2    -0.232625868338E+04   -0.42084E-05   -0.46026E-05  2571   0.482E-03
 180 F= -.23469439E+04 E0= -.23469439E+04  d E =-.306974E-04  mag=     4.0000
       N       E                     dE             d eps       ncg     rms          rms(c)
DAV:   1    -0.232625869836E+04   -0.19185E-04   -0.15127E-04  4328   0.123E-02    0.619E-03
RMM:   2    -0.232625870122E+04   -0.28603E-05   -0.19497E-05  2356   0.325E-03
 181 F= -.23469439E+04 E0= -.23469439E+04  d E =-.199147E-04  mag=     4.0000
       N       E                     dE             d eps       ncg     rms          rms(c)
DAV:   1    -0.232625870567E+04   -0.73125E-05   -0.41782E-05  2976   0.628E-03    0.366E-03
RMM:   2    -0.232625870634E+04   -0.67413E-06   -0.63704E-06  2268   0.281E-03
 182 F= -.23469439E+04 E0= -.23469439E+04  d E =-.711807E-05  mag=     4.0000
       N       E                     dE             d eps       ncg     rms          rms(c)
DAV:   1    -0.232625872722E+04   -0.21551E-04   -0.59947E-04  4160   0.227E-02    0.774E-03
RMM:   2    -0.232625873427E+04   -0.70477E-05   -0.71819E-05  2731   0.510E-03
 183 F= -.23469439E+04 E0= -.23469439E+04  d E =-.323854E-04  mag=     4.0000
       N       E                     dE             d eps       ncg     rms          rms(c)
DAV:   1    -0.232625876293E+04   -0.35714E-04   -0.12888E-03  4288   0.336E-02    0.129E-02
RMM:   2    -0.232625878134E+04   -0.18402E-04   -0.15140E-04  3313   0.798E-03    0.288E-02
RMM:   3    -0.232625877831E+04    0.30219E-05   -0.19873E-05  2307   0.427E-03
 184 F= -.23469440E+04 E0= -.23469440E+04  d E =-.526173E-04  mag=     4.0000
       N       E                     dE             d eps       ncg     rms          rms(c)
DAV:   1    -0.232625879036E+04   -0.90231E-05   -0.10278E-04  4432   0.980E-03    0.531E-03
RMM:   2    -0.232625879173E+04   -0.13727E-05   -0.12387E-05  2320   0.263E-03
 185 F= -.23469440E+04 E0= -.23469440E+04  d E =-.160153E-04  mag=     4.0000
       N       E                     dE             d eps       ncg     rms          rms(c)
DAV:   1    -0.232625879337E+04   -0.30071E-05   -0.70300E-06  2416   0.270E-03    0.399E-03
RMM:   2    -0.232625879403E+04   -0.66312E-06   -0.18904E-06  2165   0.151E-03
 186 F= -.23469440E+04 E0= -.23469440E+04  d E =-.260686E-05  mag=     4.0000
       N       E                     dE             d eps       ncg     rms          rms(c)
DAV:   1    -0.232625879966E+04   -0.62893E-05   -0.45173E-05  3056   0.591E-03    0.286E-03
RMM:   2    -0.232625880027E+04   -0.61613E-06   -0.64158E-06  2247   0.183E-03
 187 F= -.23469440E+04 E0= -.23469440E+04  d E =-.847397E-05  mag=     4.0000
       N       E                     dE             d eps       ncg     rms          rms(c)
DAV:   1    -0.232625879969E+04   -0.31796E-07   -0.48445E-06  2304   0.262E-03    0.330E-03
RMM:   2    -0.232625880049E+04   -0.80111E-06   -0.17117E-06  2136   0.155E-03
 188 F= -.23469440E+04 E0= -.23469440E+04  d E =0.748954E-06  mag=     4.0000
       N       E                     dE             d eps       ncg     rms          rms(c)
DAV:   1    -0.232625882082E+04   -0.21129E-04   -0.26177E-03  4304   0.466E-02    0.149E-02
RMM:   2    -0.232625885145E+04   -0.30628E-04   -0.31593E-04  4038   0.956E-03    0.122E-02
RMM:   3    -0.232625885422E+04   -0.27710E-05   -0.32028E-05  2376   0.458E-03
 189 F= -.23469441E+04 E0= -.23469441E+04  d E =-.689542E-04  mag=     4.0000
       N       E                     dE             d eps       ncg     rms          rms(c)
DAV:   1    -0.232625887015E+04   -0.18701E-04   -0.20580E-04  4256   0.136E-02    0.657E-03
RMM:   2    -0.232625887220E+04   -0.20568E-05   -0.22579E-05  2380   0.336E-03
 190 F= -.23469441E+04 E0= -.23469441E+04  d E =-.204186E-04  mag=     4.0000
       N       E                     dE             d eps       ncg     rms          rms(c)
DAV:   1    -0.232625888678E+04   -0.16633E-04   -0.19398E-04  4160   0.129E-02    0.821E-03
RMM:   2    -0.232625889218E+04   -0.54053E-05   -0.28914E-05  2426   0.359E-03
 191 F= -.23469441E+04 E0= -.23469441E+04  d E =-.236319E-04  mag=     4.0000
       N       E                     dE             d eps       ncg     rms          rms(c)
DAV:   1    -0.232625890689E+04   -0.20106E-04   -0.43152E-04  4136   0.195E-02    0.703E-03
RMM:   2    -0.232625891154E+04   -0.46569E-05   -0.49470E-05  2586   0.492E-03
 192 F= -.23469441E+04 E0= -.23469441E+04  d E =-.247804E-04  mag=     4.0000
       N       E                     dE             d eps       ncg     rms          rms(c)
DAV:   1    -0.232625893796E+04   -0.31071E-04   -0.12396E-03  4304   0.343E-02    0.116E-02
RMM:   2    -0.232625895103E+04   -0.13072E-04   -0.13439E-04  3338   0.822E-03    0.114E-02
RMM:   3    -0.232625895279E+04   -0.17666E-05   -0.18839E-05  2322   0.466E-03
 193 F= -.23469442E+04 E0= -.23469442E+04  d E =-.485860E-04  mag=     4.0000
       N       E                     dE             d eps       ncg     rms          rms(c)
DAV:   1    -0.232625897478E+04   -0.23754E-04   -0.38502E-04  4144   0.190E-02    0.722E-03
RMM:   2    -0.232625897863E+04   -0.38521E-05   -0.41014E-05  2536   0.461E-03
 194 F= -.23469442E+04 E0= -.23469442E+04  d E =-.279201E-04  mag=     4.0000
       N       E                     dE             d eps       ncg     rms          rms(c)
DAV:   1    -0.232625899378E+04   -0.18993E-04   -0.20862E-04  4336   0.138E-02    0.959E-03
RMM:   2    -0.232625900234E+04   -0.85641E-05   -0.35542E-05  2455   0.384E-03
 195 F= -.23469442E+04 E0= -.23469442E+04  d E =-.275746E-04  mag=     4.0000
       N       E                     dE             d eps       ncg     rms          rms(c)
DAV:   1    -0.232625901363E+04   -0.19860E-04   -0.20292E-04  4392   0.129E-02    0.503E-03
RMM:   2    -0.232625901592E+04   -0.22867E-05   -0.23947E-05  2348   0.330E-03
 196 F= -.23469442E+04 E0= -.23469442E+04  d E =-.122444E-04  mag=     4.0000
       N       E                     dE             d eps       ncg     rms          rms(c)
DAV:   1    -0.232625904543E+04   -0.31797E-04   -0.16191E-03  4304   0.372E-02    0.130E-02
RMM:   2    -0.232625906525E+04   -0.19818E-04   -0.18315E-04  3423   0.834E-03    0.233E-02
RMM:   3    -0.232625906441E+04    0.83637E-06   -0.22015E-05  2295   0.428E-03
 197 F= -.23469443E+04 E0= -.23469443E+04  d E =-.571059E-04  mag=     4.0000
       N       E                     dE             d eps       ncg     rms          rms(c)
DAV:   1    -0.232625907823E+04   -0.12981E-04   -0.14287E-04  4336   0.114E-02    0.558E-03
RMM:   2    -0.232625907965E+04   -0.14220E-05   -0.16126E-05  2329   0.293E-03
 198 F= -.23469443E+04 E0= -.23469443E+04  d E =-.180292E-04  mag=     4.0000
       N       E                     dE             d eps       ncg     rms          rms(c)
DAV:   1    -0.232625908165E+04   -0.34148E-05   -0.51021E-06  2368   0.266E-03    0.529E-03
RMM:   2    -0.232625908361E+04   -0.19635E-05   -0.40116E-06  2195   0.158E-03
 199 F= -.23469443E+04 E0= -.23469443E+04  d E =-.447156E-05  mag=     4.0000
       N       E                     dE             d eps       ncg     rms          rms(c)
DAV:   1    -0.232625906920E+04    0.12451E-04   -0.25050E-04  4104   0.151E-02    0.595E-03
RMM:   2    -0.232625907475E+04   -0.55504E-05   -0.48095E-05  2384   0.360E-03
 200 F= -.23469443E+04 E0= -.23469443E+04  d E =-.314923E-05  mag=     4.0000
       N       E                     dE             d eps       ncg     rms          rms(c)
DAV:   1    -0.232625907564E+04   -0.64448E-05   -0.47040E-05  2792   0.542E-03    0.355E-03
RMM:   2    -0.232625907679E+04   -0.11451E-05   -0.99101E-06  2193   0.242E-03
 201 F= -.23469443E+04 E0= -.23469443E+04  d E =-.689337E-05  mag=     4.0000
