       N       E                     dE             d eps       ncg     rms          rms(c)
DAV:   1     0.125168288491E+05    0.12517E+05   -0.81773E+05  4376   0.143E+03
DAV:   2    -0.107204067316E+04   -0.13589E+05   -0.13045E+05  5320   0.330E+02
DAV:   3    -0.246271895458E+04   -0.13907E+04   -0.13796E+04  5248   0.109E+02
DAV:   4    -0.250068574041E+04   -0.37967E+02   -0.37798E+02  6240   0.251E+01
DAV:   5    -0.250144058508E+04   -0.75484E+00   -0.75383E+00  5448   0.293E+00    0.170E+02
RMM:   6    -0.146356554394E+04    0.10379E+04   -0.19163E+03  4324   0.389E+01    0.725E+01
RMM:   7    -0.163199008665E+04   -0.16842E+03   -0.27631E+02  4886   0.142E+01    0.494E+01
RMM:   8    -0.168425562042E+04   -0.52266E+02   -0.47571E+01  4863   0.743E+00    0.360E+01
RMM:   9    -0.182517896298E+04   -0.14092E+03   -0.69124E+01  4727   0.852E+00    0.236E+01
RMM:  10    -0.196195359545E+04   -0.13677E+03   -0.54930E+01  4788   0.696E+00    0.163E+01
RMM:  11    -0.207423166309E+04   -0.11228E+03   -0.57289E+01  4543   0.574E+00    0.128E+01
RMM:  12    -0.224682076029E+04   -0.17259E+03   -0.17758E+02  4321   0.896E+00    0.627E+00
RMM:  13    -0.228347309980E+04   -0.36652E+02   -0.40104E+01  4431   0.476E+00    0.661E+00
RMM:  14    -0.228558832902E+04   -0.21152E+01   -0.48576E+00  5112   0.211E+00    0.648E+00
RMM:  15    -0.228796220198E+04   -0.23739E+01   -0.21254E+00  4500   0.908E-01    0.470E+00
RMM:  16    -0.229222496643E+04   -0.42628E+01   -0.31529E+00  4363   0.133E+00    0.233E+00
RMM:  17    -0.229438294605E+04   -0.21580E+01   -0.89599E-01  4515   0.805E-01    0.157E+00
RMM:  18    -0.229478112220E+04   -0.39818E+00   -0.22093E-01  4717   0.341E-01    0.874E-01
RMM:  19    -0.229494778049E+04   -0.16666E+00   -0.63953E-02  4488   0.203E-01    0.464E-01
RMM:  20    -0.229508222092E+04   -0.13444E+00   -0.35339E-02  4355   0.149E-01    0.251E-01
RMM:  21    -0.229514949679E+04   -0.67276E-01   -0.19433E-02  4395   0.114E-01    0.183E-01
RMM:  22    -0.229517545650E+04   -0.25960E-01   -0.82781E-03  4661   0.763E-02    0.977E-02
RMM:  23    -0.229520360252E+04   -0.28146E-01   -0.76673E-03  4332   0.628E-02    0.556E-02
RMM:  24    -0.229521403480E+04   -0.10432E-01   -0.30059E-03  4473   0.457E-02    0.445E-02
RMM:  25    -0.229521821764E+04   -0.41828E-02   -0.14449E-03  4444   0.261E-02    0.216E-02
RMM:  26    -0.229521952228E+04   -0.13046E-02   -0.40197E-04  4089   0.176E-02    0.103E-02
RMM:  27    -0.229521994084E+04   -0.41856E-03   -0.13410E-04  3733   0.835E-03    0.610E-03
RMM:  28    -0.229522008909E+04   -0.14825E-03   -0.36174E-05  3236   0.603E-03    0.415E-03
RMM:  29    -0.229522016595E+04   -0.76856E-04   -0.18774E-05  2960   0.364E-03    0.243E-03
RMM:  30    -0.229522018788E+04   -0.21932E-04   -0.65449E-06  2772   0.303E-03    0.141E-03
RMM:  31    -0.229522019320E+04   -0.53178E-05   -0.33930E-06  2453   0.217E-03
   1 F= -.23151226E+04 E0= -.23151226E+04  d E =-.231512E+04  mag=     0.0000
       N       E                     dE             d eps       ncg     rms          rms(c)
DAV:   1    -0.229533082998E+04   -0.11064E+00   -0.14491E+01  4888   0.269E+00    0.109E+00
RMM:   2    -0.229544877970E+04   -0.11795E+00   -0.12198E+00  5803   0.636E-01    0.714E-01
RMM:   3    -0.229544929340E+04   -0.51371E-03   -0.12298E-01  5250   0.304E-01    0.473E-01
RMM:   4    -0.229544838198E+04    0.91142E-03   -0.19235E-02  4999   0.690E-02    0.280E-01
RMM:   5    -0.229544770239E+04    0.67959E-03   -0.40098E-03  4778   0.486E-02    0.109E-01
RMM:   6    -0.229544772695E+04   -0.24562E-04   -0.80105E-04  4839   0.156E-02    0.487E-02
RMM:   7    -0.229544779770E+04   -0.70748E-04   -0.12405E-04  3524   0.104E-02    0.244E-02
RMM:   8    -0.229544787337E+04   -0.75673E-04   -0.84890E-05  3543   0.647E-03    0.130E-02
RMM:   9    -0.229544789799E+04   -0.24619E-04   -0.18332E-05  2814   0.473E-03    0.715E-03
RMM:  10    -0.229544791733E+04   -0.19338E-04   -0.18502E-05  2826   0.348E-03    0.462E-03
RMM:  11    -0.229544792197E+04   -0.46396E-05   -0.39335E-06  2777   0.306E-03
   2 F= -.23153523E+04 E0= -.23153523E+04  d E =-.229673E+00  mag=     0.0000
       N       E                     dE             d eps       ncg     rms          rms(c)
DAV:   1    -0.229545034453E+04   -0.24272E-02   -0.56529E-01  4688   0.539E-01    0.204E-01
RMM:   2    -0.229545523823E+04   -0.48937E-02   -0.52045E-02  5847   0.131E-01    0.157E-01
RMM:   3    -0.229545505831E+04    0.17992E-03   -0.35548E-03  4916   0.519E-02    0.102E-01
RMM:   4    -0.229545497005E+04    0.88255E-04   -0.57047E-04  4654   0.123E-02    0.610E-02
RMM:   5    -0.229545492941E+04    0.40643E-04   -0.15227E-04  3597   0.968E-03    0.146E-02
RMM:   6    -0.229545493042E+04   -0.10088E-05   -0.31267E-05  2985   0.499E-03
   3 F= -.23153597E+04 E0= -.23153597E+04  d E =-.237081E+00  mag=     0.0000
       N       E                     dE             d eps       ncg     rms          rms(c)
DAV:   1    -0.229560091082E+04   -0.14598E+00   -0.66168E+00  4480   0.177E+00    0.577E-01
RMM:   2    -0.229562545348E+04   -0.24543E-01   -0.26907E-01  5977   0.360E-01    0.436E-01
RMM:   3    -0.229562292103E+04    0.25325E-02   -0.16092E-02  5494   0.926E-02    0.268E-01
RMM:   4    -0.229562213063E+04    0.79039E-03   -0.28368E-03  4605   0.292E-02    0.129E-01
RMM:   5    -0.229562197479E+04    0.15585E-03   -0.64524E-04  4608   0.212E-02    0.236E-02
RMM:   6    -0.229562197584E+04   -0.10473E-05   -0.80437E-05  3272   0.727E-03
   4 F= -.23155265E+04 E0= -.23155265E+04  d E =-.166850E+00  mag=     0.0000
       N       E                     dE             d eps       ncg     rms          rms(c)
DAV:   1    -0.229564129927E+04   -0.19324E-01   -0.40404E+01  4384   0.437E+00    0.140E+00
RMM:   2    -0.229579757794E+04   -0.15628E+00   -0.16789E+00  5996   0.919E-01    0.106E+00
RMM:   3    -0.229578868292E+04    0.88950E-02   -0.12162E-01  5534   0.234E-01    0.662E-01
RMM:   4    -0.229578411320E+04    0.45697E-02   -0.18755E-02  4963   0.758E-02    0.341E-01
RMM:   5    -0.229578314119E+04    0.97202E-03   -0.54595E-03  5071   0.530E-02    0.599E-02
RMM:   6    -0.229578309477E+04    0.46418E-04   -0.47890E-04  4674   0.184E-02    0.290E-02
RMM:   7    -0.229578308678E+04    0.79887E-05   -0.99857E-05  3660   0.809E-03
   5 F= -.23156872E+04 E0= -.23156872E+04  d E =-.327518E+00  mag=     0.0000
       N       E                     dE             d eps       ncg     rms          rms(c)
DAV:   1    -0.229585801689E+04   -0.74922E-01   -0.86747E+00  4384   0.216E+00    0.947E-01
RMM:   2    -0.229588623641E+04   -0.28220E-01   -0.33429E-01  5424   0.486E-01    0.862E-01
RMM:   3    -0.229587272264E+04    0.13514E-01   -0.29829E-02  5482   0.157E-01    0.383E-01
RMM:   4    -0.229587104274E+04    0.16799E-02   -0.63322E-03  4516   0.584E-02    0.175E-01
RMM:   5    -0.229587077166E+04    0.27108E-03   -0.13786E-03  4746   0.423E-02    0.487E-02
RMM:   6    -0.229587074633E+04    0.25329E-04   -0.34244E-04  4697   0.140E-02    0.217E-02
RMM:   7    -0.229587073793E+04    0.84013E-05   -0.51309E-05  3448   0.974E-03
   6 F= -.23157734E+04 E0= -.23157734E+04  d E =-.862247E-01  mag=     0.0000
       N       E                     dE             d eps       ncg     rms          rms(c)
DAV:   1    -0.229587161382E+04   -0.86749E-03   -0.97551E-02  5096   0.227E-01    0.979E-02
RMM:   2    -0.229587190439E+04   -0.29057E-03   -0.35215E-03  5358   0.506E-02    0.883E-02
RMM:   3    -0.229587176639E+04    0.13800E-03   -0.32890E-04  4008   0.170E-02    0.404E-02
RMM:   4    -0.229587174574E+04    0.20642E-04   -0.69995E-05  3635   0.692E-03    0.183E-02
RMM:   5    -0.229587174275E+04    0.29926E-05   -0.17413E-05  2812   0.547E-03
   7 F= -.23157743E+04 E0= -.23157743E+04  d E =-.870828E-01  mag=     0.0000
       N       E                     dE             d eps       ncg     rms          rms(c)
DAV:   1    -0.229587832651E+04   -0.65808E-02   -0.14037E+00  4448   0.123E+00    0.517E-01
RMM:   2    -0.229589074909E+04   -0.12423E-01   -0.14144E-01  5475   0.247E-01    0.218E-01
RMM:   3    -0.229589078677E+04   -0.37677E-04   -0.13903E-02  4769   0.120E-01    0.166E-01
RMM:   4    -0.229589060393E+04    0.18284E-03   -0.19403E-03  4988   0.288E-02    0.102E-01
RMM:   5    -0.229589040657E+04    0.19736E-03   -0.59046E-04  4699   0.202E-02    0.303E-02
RMM:   6    -0.229589038679E+04    0.19783E-04   -0.83843E-05  3902   0.866E-03    0.119E-02
RMM:   7    -0.229589038251E+04    0.42743E-05   -0.17918E-05  2887   0.644E-03
   8 F= -.23157920E+04 E0= -.23157920E+04  d E =-.177081E-01  mag=     0.0000
       N       E                     dE             d eps       ncg     rms          rms(c)
DAV:   1    -0.229589058964E+04   -0.20285E-03   -0.51175E-02  5264   0.234E-01    0.980E-02
RMM:   2    -0.229589103911E+04   -0.44948E-03   -0.51594E-03  5591   0.480E-02    0.415E-02
RMM:   3    -0.229589103625E+04    0.28620E-05   -0.48831E-04  3745   0.211E-02    0.323E-02
RMM:   4    -0.229589102772E+04    0.85262E-05   -0.67698E-05  3003   0.622E-03
   9 F= -.23157924E+04 E0= -.23157924E+04  d E =-.181745E-01  mag=     0.0000
       N       E                     dE             d eps       ncg     rms          rms(c)
DAV:   1    -0.229589183378E+04   -0.79753E-03   -0.57430E-01  4416   0.742E-01    0.197E-01
RMM:   2    -0.229589680444E+04   -0.49707E-02   -0.54517E-02  5690   0.144E-01    0.120E-01
RMM:   3    -0.229589705583E+04   -0.25139E-03   -0.57005E-03  4799   0.815E-02    0.852E-02
RMM:   4    -0.229589703769E+04    0.18140E-04   -0.71477E-04  4559   0.152E-02    0.644E-02
RMM:   5    -0.229589696864E+04    0.69053E-04   -0.26140E-04  4166   0.115E-02    0.169E-02
RMM:   6    -0.229589695938E+04    0.92593E-05   -0.27099E-05  2840   0.569E-03
  10 F= -.23157983E+04 E0= -.23157983E+04  d E =-.590648E-02  mag=     0.0000
       N       E                     dE             d eps       ncg     rms          rms(c)
DAV:   1    -0.229589691851E+04    0.50131E-04   -0.17838E-02  5024   0.131E-01    0.355E-02
RMM:   2    -0.229589707505E+04   -0.15654E-03   -0.17281E-03  5689   0.267E-02    0.215E-02
RMM:   3    -0.229589708285E+04   -0.78048E-05   -0.17979E-04  3079   0.139E-02    0.153E-02
RMM:   4    -0.229589708181E+04    0.10407E-05   -0.24269E-05  2840   0.350E-03
  11 F= -.23157985E+04 E0= -.23157985E+04  d E =-.602438E-02  mag=     0.0000
       N       E                     dE             d eps       ncg     rms          rms(c)
DAV:   1    -0.229589960779E+04   -0.25249E-02   -0.75394E-01  4400   0.869E-01    0.183E-01
RMM:   2    -0.229590229842E+04   -0.26906E-02   -0.30796E-02  5308   0.140E-01    0.117E-01
RMM:   3    -0.229590213693E+04    0.16149E-03   -0.25063E-03  4938   0.530E-02    0.745E-02
RMM:   4    -0.229590206450E+04    0.72425E-04   -0.29826E-04  4398   0.121E-02    0.499E-02
RMM:   5    -0.229590201407E+04    0.50434E-04   -0.19001E-04  4165   0.122E-02    0.125E-02
RMM:   6    -0.229590200945E+04    0.46147E-05   -0.19217E-05  2873   0.622E-03
  12 F= -.23158034E+04 E0= -.23158034E+04  d E =-.497780E-02  mag=     0.0000
       N       E                     dE             d eps       ncg     rms          rms(c)
DAV:   1    -0.229590096674E+04    0.10473E-02   -0.83490E-01  4384   0.914E-01    0.194E-01
RMM:   2    -0.229590397832E+04   -0.30116E-02   -0.34278E-02  5287   0.147E-01    0.125E-01
RMM:   3    -0.229590377797E+04    0.20036E-03   -0.27101E-03  4968   0.511E-02    0.790E-02
RMM:   4    -0.229590369583E+04    0.82136E-04   -0.32475E-04  4429   0.125E-02    0.530E-02
RMM:   5    -0.229590363852E+04    0.57310E-04   -0.21510E-04  4244   0.127E-02    0.128E-02
RMM:   6    -0.229590363323E+04    0.52925E-05   -0.20433E-05  2875   0.663E-03
  13 F= -.23158051E+04 E0= -.23158051E+04  d E =-.665711E-02  mag=     0.0000
       N       E                     dE             d eps       ncg     rms          rms(c)
DAV:   1    -0.229590481920E+04   -0.11807E-02   -0.61912E-01  4384   0.802E-01    0.183E-01
RMM:   2    -0.229590763431E+04   -0.28151E-02   -0.31438E-02  5557   0.134E-01    0.941E-02
RMM:   3    -0.229590751355E+04    0.12076E-03   -0.21872E-03  4893   0.461E-02    0.592E-02
RMM:   4    -0.229590746619E+04    0.47355E-04   -0.27229E-04  4101   0.104E-02    0.379E-02
RMM:   5    -0.229590743993E+04    0.26267E-04   -0.11709E-04  3890   0.983E-03    0.103E-02
RMM:   6    -0.229590743871E+04    0.12122E-05   -0.12773E-05  2805   0.527E-03
  14 F= -.23158091E+04 E0= -.23158091E+04  d E =-.393802E-02  mag=     0.0000
       N       E                     dE             d eps       ncg     rms          rms(c)
DAV:   1    -0.229588960237E+04    0.17838E-01   -0.51695E+00  4368   0.232E+00    0.530E-01
RMM:   2    -0.229591313516E+04   -0.23533E-01   -0.26307E-01  5558   0.386E-01    0.274E-01
RMM:   3    -0.229591211559E+04    0.10196E-02   -0.18698E-02  5153   0.132E-01    0.171E-01
RMM:   4    -0.229591171168E+04    0.40391E-03   -0.22698E-03  4728   0.295E-02    0.109E-01
RMM:   5    -0.229591148955E+04    0.22214E-03   -0.10053E-03  4850   0.268E-02    0.306E-02
RMM:   6    -0.229591147393E+04    0.15616E-04   -0.95247E-05  4038   0.115E-02    0.149E-02
RMM:   7    -0.229591147171E+04    0.22233E-05   -0.22548E-05  2872   0.429E-03
  15 F= -.23158135E+04 E0= -.23158135E+04  d E =-.835595E-02  mag=     0.0000
       N       E                     dE             d eps       ncg     rms          rms(c)
DAV:   1    -0.229590969722E+04    0.17767E-02   -0.13786E+00  4384   0.119E+00    0.242E-01
RMM:   2    -0.229591617244E+04   -0.64752E-02   -0.71722E-02  5554   0.193E-01    0.129E-01
RMM:   3    -0.229591613505E+04    0.37392E-04   -0.55825E-03  5049   0.711E-02    0.850E-02
RMM:   4    -0.229591606145E+04    0.73595E-04   -0.63991E-04  4324   0.159E-02    0.495E-02
RMM:   5    -0.229591602224E+04    0.39215E-04   -0.18185E-04  4087   0.136E-02    0.163E-02
RMM:   6    -0.229591601960E+04    0.26337E-05   -0.23899E-05  2909   0.572E-03
  16 F= -.23158180E+04 E0= -.23158180E+04  d E =-.454291E-02  mag=    -0.0000
       N       E                     dE             d eps       ncg     rms          rms(c)
DAV:   1    -0.229589519040E+04    0.20832E-01   -0.51542E+00  4368   0.230E+00    0.473E-01
RMM:   2    -0.229591950363E+04   -0.24313E-01   -0.26934E-01  5553   0.377E-01    0.254E-01
RMM:   3    -0.229591932166E+04    0.18197E-03   -0.21029E-02  5158   0.134E-01    0.166E-01
RMM:   4    -0.229591904784E+04    0.27382E-03   -0.23738E-03  4497   0.298E-02    0.995E-02
RMM:   5    -0.229591888059E+04    0.16726E-03   -0.72851E-04  4580   0.251E-02    0.296E-02
RMM:   6    -0.229591887163E+04    0.89581E-05   -0.91482E-05  3891   0.104E-02
  17 F= -.23158209E+04 E0= -.23158209E+04  d E =-.739555E-02  mag=    -0.0000
       N       E                     dE             d eps       ncg     rms          rms(c)
DAV:   1    -0.229591782024E+04    0.10603E-02   -0.15193E+00  4416   0.126E+00    0.238E-01
RMM:   2    -0.229592311909E+04   -0.52988E-02   -0.58387E-02  5319   0.190E-01    0.123E-01
RMM:   3    -0.229592291330E+04    0.20579E-03   -0.34811E-03  4883   0.720E-02    0.829E-02
RMM:   4    -0.229592281002E+04    0.10328E-03   -0.67158E-04  4412   0.198E-02    0.302E-02
RMM:   5    -0.229592280039E+04    0.96274E-05   -0.10355E-04  3725   0.141E-02    0.172E-02
RMM:   6    -0.229592279656E+04    0.38325E-05   -0.18548E-05  2813   0.422E-03
  18 F= -.23158246E+04 E0= -.23158246E+04  d E =-.369637E-02  mag=    -0.0000
       N       E                     dE             d eps       ncg     rms          rms(c)
DAV:   1    -0.229592149794E+04    0.13025E-02   -0.65833E-01  4448   0.828E-01    0.156E-01
RMM:   2    -0.229592378793E+04   -0.22900E-02   -0.25261E-02  5285   0.125E-01    0.815E-02
RMM:   3    -0.229592369251E+04    0.95413E-04   -0.14662E-03  4747   0.468E-02    0.550E-02
RMM:   4    -0.229592364185E+04    0.50663E-04   -0.31693E-04  4317   0.140E-02    0.168E-02
RMM:   5    -0.229592363605E+04    0.58030E-05   -0.28784E-05  2964   0.882E-03
  19 F= -.23158253E+04 E0= -.23158253E+04  d E =-.438674E-02  mag=    -0.0000
       N       E                     dE             d eps       ncg     rms          rms(c)
DAV:   1    -0.229592293593E+04    0.70592E-03   -0.13737E+00  4384   0.119E+00    0.214E-01
RMM:   2    -0.229592795171E+04   -0.50158E-02   -0.54251E-02  5398   0.185E-01    0.115E-01
RMM:   3    -0.229592776765E+04    0.18406E-03   -0.31628E-03  4969   0.628E-02    0.776E-02
RMM:   4    -0.229592770742E+04    0.60237E-04   -0.73247E-04  4521   0.197E-02    0.421E-02
RMM:   5    -0.229592767747E+04    0.29948E-04   -0.10317E-04  3369   0.119E-02    0.151E-02
RMM:   6    -0.229592767513E+04    0.23396E-05   -0.15647E-05  2811   0.356E-03
  20 F= -.23158293E+04 E0= -.23158293E+04  d E =-.400396E-02  mag=    -0.0000
       N       E                     dE             d eps       ncg     rms          rms(c)
DAV:   1    -0.229592605358E+04    0.16239E-02   -0.74632E-01  4384   0.881E-01    0.158E-01
RMM:   2    -0.229592877605E+04   -0.27225E-02   -0.29473E-02  5500   0.137E-01    0.856E-02
RMM:   3    -0.229592868314E+04    0.92911E-04   -0.17220E-03  4914   0.473E-02    0.580E-02
RMM:   4    -0.229592865867E+04    0.24470E-04   -0.38585E-04  4453   0.143E-02    0.386E-02
RMM:   5    -0.229592863132E+04    0.27355E-04   -0.72398E-05  3159   0.936E-03    0.994E-03
RMM:   6    -0.229592863071E+04    0.60629E-06   -0.11408E-05  2797   0.370E-03
  21 F= -.23158302E+04 E0= -.23158302E+04  d E =-.493377E-02  mag=    -0.0000
       N       E                     dE             d eps       ncg     rms          rms(c)
DAV:   1    -0.229592791465E+04    0.71666E-03   -0.15791E+00  4368   0.127E+00    0.253E-01
RMM:   2    -0.229593247832E+04   -0.45637E-02   -0.50443E-02  5169   0.200E-01    0.134E-01
RMM:   3    -0.229593224201E+04    0.23631E-03   -0.30618E-03  4952   0.719E-02    0.944E-02
RMM:   4    -0.229593213092E+04    0.11109E-03   -0.44025E-04  4719   0.169E-02    0.644E-02
RMM:   5    -0.229593206720E+04    0.63720E-04   -0.27961E-04  4497   0.154E-02    0.127E-02
RMM:   6    -0.229593206487E+04    0.23331E-05   -0.24324E-05  2900   0.681E-03
  22 F= -.23158334E+04 E0= -.23158334E+04  d E =-.320820E-02  mag=     0.0000
       N       E                     dE             d eps       ncg     rms          rms(c)
DAV:   1    -0.229593134817E+04    0.71903E-03   -0.37467E-01  4512   0.621E-01    0.124E-01
RMM:   2    -0.229593244556E+04   -0.10974E-02   -0.12110E-02  5171   0.972E-02    0.653E-02
RMM:   3    -0.229593238117E+04    0.64389E-04   -0.69058E-04  4579   0.308E-02    0.459E-02
RMM:   4    -0.229593235451E+04    0.26664E-04   -0.10303E-04  3689   0.846E-03    0.317E-02
RMM:   5    -0.229593233870E+04    0.15802E-04   -0.65931E-05  3535   0.801E-03    0.636E-03
RMM:   6    -0.229593233847E+04    0.22915E-06   -0.75787E-06  2796   0.475E-03
  23 F= -.23158336E+04 E0= -.23158336E+04  d E =-.337140E-02  mag=     0.0000
       N       E                     dE             d eps       ncg     rms          rms(c)
DAV:   1    -0.229592837669E+04    0.39620E-02   -0.18016E+00  4352   0.138E+00    0.270E-01
RMM:   2    -0.229593562067E+04   -0.72440E-02   -0.78361E-02  5592   0.231E-01    0.154E-01
RMM:   3    -0.229593524507E+04    0.37560E-03   -0.45835E-03  5095   0.678E-02    0.995E-02
RMM:   4    -0.229593512936E+04    0.11571E-03   -0.68517E-04  4560   0.172E-02    0.621E-02
RMM:   5    -0.229593507216E+04    0.57192E-04   -0.29310E-04  4593   0.156E-02    0.176E-02
RMM:   6    -0.229593506651E+04    0.56516E-05   -0.23579E-05  2859   0.660E-03
  24 F= -.23158361E+04 E0= -.23158361E+04  d E =-.255249E-02  mag=     0.0000
       N       E                     dE             d eps       ncg     rms          rms(c)
DAV:   1    -0.229593210057E+04    0.29716E-02   -0.94019E-01  4368   0.999E-01    0.197E-01
RMM:   2    -0.229593588604E+04   -0.37855E-02   -0.40949E-02  5585   0.167E-01    0.112E-01
RMM:   3    -0.229593568840E+04    0.19764E-03   -0.23526E-03  5083   0.448E-02    0.722E-02
RMM:   4    -0.229593562759E+04    0.60814E-04   -0.35726E-04  4344   0.123E-02    0.451E-02
RMM:   5    -0.229593559742E+04    0.30164E-04   -0.15252E-04  4201   0.114E-02    0.125E-02
RMM:   6    -0.229593559472E+04    0.26968E-05   -0.12744E-05  2794   0.557E-03
  25 F= -.23158365E+04 E0= -.23158365E+04  d E =-.295511E-02  mag=    -0.0000
       N       E                     dE             d eps       ncg     rms          rms(c)
DAV:   1    -0.229593515747E+04    0.43996E-03   -0.85534E-01  4368   0.982E-01    0.220E-01
RMM:   2    -0.229593838301E+04   -0.32255E-02   -0.35226E-02  5451   0.159E-01    0.101E-01
RMM:   3    -0.229593817172E+04    0.21129E-03   -0.20305E-03  4823   0.539E-02    0.645E-02
RMM:   4    -0.229593811460E+04    0.57116E-04   -0.39708E-04  4360   0.147E-02    0.372E-02
RMM:   5    -0.229593809250E+04    0.22108E-04   -0.11721E-04  3991   0.123E-02    0.151E-02
RMM:   6    -0.229593808815E+04    0.43494E-05   -0.13847E-05  2792   0.430E-03
  26 F= -.23158389E+04 E0= -.23158389E+04  d E =-.239014E-02  mag=     0.0000
       N       E                     dE             d eps       ncg     rms          rms(c)
DAV:   1    -0.229593733184E+04    0.76065E-03   -0.35499E-01  4416   0.632E-01    0.142E-01
RMM:   2    -0.229593866792E+04   -0.13361E-02   -0.14601E-02  5435   0.103E-01    0.653E-02
RMM:   3    -0.229593858164E+04    0.86279E-04   -0.85760E-04  4583   0.355E-02    0.417E-02
RMM:   4    -0.229593855699E+04    0.24651E-04   -0.16756E-04  4114   0.987E-03    0.236E-02
RMM:   5    -0.229593854785E+04    0.91390E-05   -0.45091E-05  2990   0.843E-03
  27 F= -.23158393E+04 E0= -.23158393E+04  d E =-.278433E-02  mag=     0.0000
       N       E                     dE             d eps       ncg     rms          rms(c)
DAV:   1    -0.229593952665E+04   -0.96966E-03   -0.41093E-01  4384   0.670E-01    0.116E-01
RMM:   2    -0.229594070481E+04   -0.11782E-02   -0.12830E-02  5268   0.103E-01    0.670E-02
RMM:   3    -0.229594063218E+04    0.72625E-04   -0.73861E-04  4590   0.382E-02    0.463E-02
RMM:   4    -0.229594060690E+04    0.25283E-04   -0.10689E-04  3911   0.894E-03    0.317E-02
RMM:   5    -0.229594059022E+04    0.16677E-04   -0.74978E-05  3539   0.882E-03    0.866E-03
RMM:   6    -0.229594058937E+04    0.84667E-06   -0.86032E-06  2810   0.473E-03
  28 F= -.23158412E+04 E0= -.23158412E+04  d E =-.192468E-02  mag=     0.0000
       N       E                     dE             d eps       ncg     rms          rms(c)
DAV:   1    -0.229593761203E+04    0.29782E-02   -0.19479E+00  4352   0.146E+00    0.251E-01
RMM:   2    -0.229594326560E+04   -0.56536E-02   -0.61455E-02  5106   0.221E-01    0.150E-01
RMM:   3    -0.229594284527E+04    0.42033E-03   -0.31399E-03  4795   0.745E-02    0.106E-01
RMM:   4    -0.229594271198E+04    0.13329E-03   -0.50479E-04  4870   0.182E-02    0.735E-02
RMM:   5    -0.229594261137E+04    0.10061E-03   -0.41561E-04  4767   0.179E-02    0.147E-02
RMM:   6    -0.229594260603E+04    0.53413E-05   -0.32439E-05  2960   0.776E-03
  29 F= -.23158430E+04 E0= -.23158430E+04  d E =-.369059E-02  mag=     0.0000
       N       E                     dE             d eps       ncg     rms          rms(c)
DAV:   1    -0.229594293117E+04   -0.31980E-03   -0.53615E-01  4416   0.774E-01    0.149E-01
RMM:   2    -0.229594491941E+04   -0.19882E-02   -0.21565E-02  5330   0.124E-01    0.767E-02
RMM:   3    -0.229594479842E+04    0.12099E-03   -0.12929E-03  4693   0.391E-02    0.511E-02
RMM:   4    -0.229594476053E+04    0.37881E-04   -0.21758E-04  4143   0.109E-02    0.266E-02
RMM:   5    -0.229594474947E+04    0.11068E-04   -0.62791E-05  3305   0.917E-03    0.120E-02
RMM:   6    -0.229594474684E+04    0.26245E-05   -0.10357E-05  2780   0.444E-03
  30 F= -.23158451E+04 E0= -.23158451E+04  d E =-.209651E-02  mag=     0.0000
       N       E                     dE             d eps       ncg     rms          rms(c)
DAV:   1    -0.229594107941E+04    0.36701E-02   -0.14664E+00  4352   0.128E+00    0.246E-01
RMM:   2    -0.229594649262E+04   -0.54132E-02   -0.58745E-02  5378   0.204E-01    0.127E-01
RMM:   3    -0.229594616956E+04    0.32306E-03   -0.35533E-03  4830   0.689E-02    0.844E-02
RMM:   4    -0.229594607005E+04    0.99515E-04   -0.58494E-04  4384   0.177E-02    0.452E-02
RMM:   5    -0.229594603768E+04    0.32365E-04   -0.18496E-04  4263   0.148E-02    0.192E-02
RMM:   6    -0.229594603049E+04    0.71975E-05   -0.22316E-05  2839   0.536E-03
  31 F= -.23158463E+04 E0= -.23158463E+04  d E =-.331080E-02  mag=    -0.0000
       N       E                     dE             d eps       ncg     rms          rms(c)
DAV:   1    -0.229594580356E+04    0.23412E-03   -0.81176E-01  4368   0.942E-01    0.185E-01
RMM:   2    -0.229594872133E+04   -0.29178E-02   -0.31591E-02  5420   0.152E-01    0.109E-01
RMM:   3    -0.229594853600E+04    0.18532E-03   -0.19011E-03  4803   0.473E-02    0.697E-02
RMM:   4    -0.229594847161E+04    0.64392E-04   -0.25164E-04  4409   0.119E-02    0.442E-02
RMM:   5    -0.229594844196E+04    0.29651E-04   -0.14363E-04  4074   0.116E-02    0.110E-02
RMM:   6    -0.229594844035E+04    0.16130E-05   -0.12612E-05  2830   0.558E-03
  32 F= -.23158485E+04 E0= -.23158485E+04  d E =-.219854E-02  mag=    -0.0000
       N       E                     dE             d eps       ncg     rms          rms(c)
DAV:   1    -0.229594269515E+04    0.57468E-02   -0.22887E+00  4352   0.158E+00    0.310E-01
RMM:   2    -0.229595087365E+04   -0.81785E-02   -0.88657E-02  5469   0.257E-01    0.183E-01
RMM:   3    -0.229595040056E+04    0.47309E-03   -0.54779E-03  4890   0.822E-02    0.117E-01
RMM:   4    -0.229595021814E+04    0.18242E-03   -0.71820E-04  4655   0.198E-02    0.741E-02
RMM:   5    -0.229595012982E+04    0.88323E-04   -0.41194E-04  4504   0.191E-02    0.186E-02
RMM:   6    -0.229595012410E+04    0.57133E-05   -0.35742E-05  3116   0.826E-03
  33 F= -.23158498E+04 E0= -.23158498E+04  d E =-.353449E-02  mag=    -0.0000
       N       E                     dE             d eps       ncg     rms          rms(c)
DAV:   1    -0.229595049237E+04   -0.36255E-03   -0.61764E-01  4384   0.823E-01    0.195E-01
RMM:   2    -0.229595291779E+04   -0.24254E-02   -0.26585E-02  5549   0.140E-01    0.115E-01
RMM:   3    -0.229595272817E+04    0.18962E-03   -0.17347E-03  4910   0.428E-02    0.694E-02
RMM:   4    -0.229595265480E+04    0.73376E-04   -0.23703E-04  4337   0.114E-02    0.412E-02
RMM:   5    -0.229595262818E+04    0.26616E-04   -0.11602E-04  4002   0.108E-02    0.910E-03
RMM:   6    -0.229595262757E+04    0.61181E-06   -0.12673E-05  2820   0.539E-03
  34 F= -.23158520E+04 E0= -.23158520E+04  d E =-.212148E-02  mag=     0.0000
       N       E                     dE             d eps       ncg     rms          rms(c)
DAV:   1    -0.229595182791E+04    0.80027E-03   -0.47245E-01  4368   0.720E-01    0.170E-01
RMM:   2    -0.229595367939E+04   -0.18515E-02   -0.20305E-02  5535   0.122E-01    0.100E-01
RMM:   3    -0.229595353650E+04    0.14289E-03   -0.13413E-03  4795   0.401E-02    0.609E-02
RMM:   4    -0.229595347918E+04    0.57320E-04   -0.18361E-04  4279   0.102E-02    0.362E-02
RMM:   5    -0.229595345694E+04    0.22240E-04   -0.88155E-05  3810   0.967E-03    0.802E-03
RMM:   6    -0.229595345626E+04    0.67535E-06   -0.10700E-05  2814   0.491E-03
  35 F= -.23158525E+04 E0= -.23158525E+04  d E =-.261767E-02  mag=    -0.0000
       N       E                     dE             d eps       ncg     rms          rms(c)
DAV:   1    -0.229595189413E+04    0.15628E-02   -0.62021E-01  4352   0.829E-01    0.187E-01
RMM:   2    -0.229595554092E+04   -0.36468E-02   -0.39306E-02  5737   0.149E-01    0.999E-02
RMM:   3    -0.229595547901E+04    0.61907E-04   -0.28673E-03  5016   0.449E-02    0.643E-02
RMM:   4    -0.229595543566E+04    0.43357E-04   -0.36424E-04  4180   0.115E-02    0.369E-02
RMM:   5    -0.229595541599E+04    0.19670E-04   -0.98628E-05  3738   0.102E-02    0.107E-02
RMM:   6    -0.229595541474E+04    0.12443E-05   -0.12933E-05  2794   0.470E-03
  36 F= -.23158542E+04 E0= -.23158542E+04  d E =-.170812E-02  mag=    -0.0000
       N       E                     dE             d eps       ncg     rms          rms(c)
DAV:   1    -0.229595407501E+04    0.13410E-02   -0.32276E-01  4448   0.598E-01    0.136E-01
RMM:   2    -0.229595597335E+04   -0.18983E-02   -0.20469E-02  5773   0.108E-01    0.726E-02
RMM:   3    -0.229595594203E+04    0.31319E-04   -0.14821E-03  4682   0.328E-02    0.465E-02
RMM:   4    -0.229595591997E+04    0.22060E-04   -0.18661E-04  3692   0.851E-03    0.271E-02
RMM:   5    -0.229595590958E+04    0.10385E-04   -0.51699E-05  3121   0.766E-03    0.748E-03
RMM:   6    -0.229595590916E+04    0.42400E-06   -0.84206E-06  2780   0.458E-03
  37 F= -.23158545E+04 E0= -.23158545E+04  d E =-.202310E-02  mag=    -0.0000
       N       E                     dE             d eps       ncg     rms          rms(c)
DAV:   1    -0.229595615101E+04   -0.24142E-03   -0.73144E-01  4352   0.886E-01    0.186E-01
RMM:   2    -0.229595851569E+04   -0.23647E-02   -0.26013E-02  5363   0.142E-01    0.961E-02
RMM:   3    -0.229595839221E+04    0.12348E-03   -0.15888E-03  4830   0.474E-02    0.646E-02
RMM:   4    -0.229595834127E+04    0.50937E-04   -0.25148E-04  4391   0.123E-02    0.419E-02
RMM:   5    -0.229595831339E+04    0.27878E-04   -0.12735E-04  3960   0.112E-02    0.121E-02
RMM:   6    -0.229595831012E+04    0.32724E-05   -0.12063E-05  2809   0.479E-03
  38 F= -.23158566E+04 E0= -.23158566E+04  d E =-.209889E-02  mag=    -0.0000
       N       E                     dE             d eps       ncg     rms          rms(c)
DAV:   1    -0.229595674787E+04    0.15655E-02   -0.88344E-01  4352   0.975E-01    0.204E-01
RMM:   2    -0.229595960977E+04   -0.28619E-02   -0.31494E-02  5371   0.157E-01    0.106E-01
RMM:   3    -0.229595945267E+04    0.15709E-03   -0.18646E-03  4903   0.479E-02    0.709E-02
RMM:   4    -0.229595939045E+04    0.62219E-04   -0.30723E-04  4473   0.134E-02    0.461E-02
RMM:   5    -0.229595935555E+04    0.34902E-04   -0.15786E-04  4102   0.121E-02    0.139E-02
RMM:   6    -0.229595935075E+04    0.47972E-05   -0.14037E-05  2828   0.508E-03
  39 F= -.23158573E+04 E0= -.23158573E+04  d E =-.281030E-02  mag=    -0.0000
       N       E                     dE             d eps       ncg     rms          rms(c)
DAV:   1    -0.229595964395E+04   -0.28840E-03   -0.75524E-01  4352   0.900E-01    0.180E-01
RMM:   2    -0.229596192546E+04   -0.22815E-02   -0.25111E-02  5330   0.141E-01    0.899E-02
RMM:   3    -0.229596180360E+04    0.12186E-03   -0.14388E-03  4806   0.445E-02    0.594E-02
RMM:   4    -0.229596175568E+04    0.47922E-04   -0.33907E-04  4315   0.149E-02    0.225E-02
RMM:   5    -0.229596175110E+04    0.45752E-05   -0.50988E-05  3062   0.102E-02
  40 F= -.23158594E+04 E0= -.23158594E+04  d E =-.211868E-02  mag=    -0.0000
       N       E                     dE             d eps       ncg     rms          rms(c)
DAV:   1    -0.229595701811E+04    0.47376E-02   -0.22074E+00  4352   0.154E+00    0.308E-01
RMM:   2    -0.229596368471E+04   -0.66666E-02   -0.73456E-02  5302   0.241E-01    0.154E-01
RMM:   3    -0.229596333577E+04    0.34893E-03   -0.43281E-03  4891   0.755E-02    0.102E-01
RMM:   4    -0.229596318017E+04    0.15560E-03   -0.99804E-04  4409   0.255E-02    0.315E-02
RMM:   5    -0.229596317263E+04    0.75435E-05   -0.12042E-04  3907   0.165E-02    0.205E-02
RMM:   6    -0.229596316632E+04    0.63103E-05   -0.24529E-05  2823   0.427E-03
  41 F= -.23158603E+04 E0= -.23158603E+04  d E =-.305762E-02  mag=    -0.0000
       N       E                     dE             d eps       ncg     rms          rms(c)
DAV:   1    -0.229596188838E+04    0.12843E-02   -0.78186E-01  4352   0.919E-01    0.179E-01
RMM:   2    -0.229596534480E+04   -0.34564E-02   -0.37421E-02  5507   0.154E-01    0.945E-02
RMM:   3    -0.229596529837E+04    0.46426E-04   -0.25763E-03  5047   0.472E-02    0.644E-02
RMM:   4    -0.229596527699E+04    0.21380E-04   -0.48400E-04  4472   0.158E-02    0.384E-02
RMM:   5    -0.229596525316E+04    0.23831E-04   -0.82963E-05  3130   0.939E-03    0.139E-02
RMM:   6    -0.229596525177E+04    0.13891E-05   -0.17031E-05  2805   0.353E-03
  42 F= -.23158621E+04 E0= -.23158621E+04  d E =-.178641E-02  mag=    -0.0000
       N       E                     dE             d eps       ncg     rms          rms(c)
DAV:   1    -0.229596026415E+04    0.49890E-02   -0.14380E+00  4352   0.125E+00    0.243E-01
RMM:   2    -0.229596660865E+04   -0.63445E-02   -0.68775E-02  5578   0.209E-01    0.128E-01
RMM:   3    -0.229596654563E+04    0.63017E-04   -0.48422E-03  5060   0.655E-02    0.878E-02
RMM:   4    -0.229596650262E+04    0.43007E-04   -0.88267E-04  4540   0.210E-02    0.530E-02
RMM:   5    -0.229596645908E+04    0.43546E-04   -0.16488E-04  3688   0.129E-02    0.202E-02
RMM:   6    -0.229596645501E+04    0.40672E-05   -0.30906E-05  2830   0.453E-03
  43 F= -.23158629E+04 E0= -.23158629E+04  d E =-.258780E-02  mag=    -0.0000
       N       E                     dE             d eps       ncg     rms          rms(c)
DAV:   1    -0.229596519735E+04    0.12617E-02   -0.99695E-01  4352   0.104E+00    0.239E-01
RMM:   2    -0.229596956978E+04   -0.43724E-02   -0.48262E-02  5539   0.178E-01    0.125E-01
RMM:   3    -0.229596946920E+04    0.10058E-03   -0.35235E-03  5108   0.593E-02    0.827E-02
RMM:   4    -0.229596940189E+04    0.67311E-04   -0.46280E-04  4535   0.148E-02    0.517E-02
RMM:   5    -0.229596936806E+04    0.33834E-04   -0.18260E-04  4113   0.130E-02    0.169E-02
RMM:   6    -0.229596936265E+04    0.54091E-05   -0.19124E-05  2850   0.549E-03
  44 F= -.23158654E+04 E0= -.23158654E+04  d E =-.243641E-02  mag=    -0.0000
       N       E                     dE             d eps       ncg     rms          rms(c)
DAV:   1    -0.229596551408E+04    0.38540E-02   -0.10568E+00  4352   0.107E+00    0.246E-01
RMM:   2    -0.229597015842E+04   -0.46443E-02   -0.51237E-02  5527   0.183E-01    0.129E-01
RMM:   3    -0.229597004376E+04    0.11466E-03   -0.36394E-03  5118   0.535E-02    0.855E-02
RMM:   4    -0.229596997081E+04    0.72942E-04   -0.48631E-04  4571   0.149E-02    0.537E-02
RMM:   5    -0.229596993244E+04    0.38373E-04   -0.20075E-04  4182   0.133E-02    0.177E-02
RMM:   6    -0.229596992591E+04    0.65296E-05   -0.20277E-05  2866   0.565E-03
  45 F= -.23158654E+04 E0= -.23158654E+04  d E =-.251658E-02  mag=    -0.0000
       N       E                     dE             d eps       ncg     rms          rms(c)
DAV:   1    -0.229596918713E+04    0.74531E-03   -0.19661E-01  4448   0.460E-01    0.105E-01
RMM:   2    -0.229597003170E+04   -0.84457E-03   -0.93513E-03  5759   0.791E-02    0.544E-02
RMM:   3    -0.229597001252E+04    0.19179E-04   -0.66519E-04  4484   0.250E-02    0.361E-02
RMM:   4    -0.229596999952E+04    0.12997E-04   -0.84798E-05  3242   0.710E-03    0.228E-02
RMM:   5    -0.229596999275E+04    0.67682E-05   -0.37762E-05  2923   0.643E-03
  46 F= -.23158657E+04 E0= -.23158657E+04  d E =-.279135E-02  mag=    -0.0000
       N       E                     dE             d eps       ncg     rms          rms(c)
DAV:   1    -0.229596827797E+04    0.17215E-02   -0.52294E-01  4352   0.764E-01    0.199E-01
RMM:   2    -0.229597180516E+04   -0.35272E-02   -0.38694E-02  5816   0.144E-01    0.999E-02
RMM:   3    -0.229597179265E+04    0.12512E-04   -0.31304E-03  5168   0.448E-02    0.634E-02
RMM:   4    -0.229597174868E+04    0.43969E-04   -0.33740E-04  4153   0.110E-02    0.379E-02
RMM:   5    -0.229597172641E+04    0.22271E-04   -0.10077E-04  3841   0.970E-03    0.115E-02
RMM:   6    -0.229597172370E+04    0.27115E-05   -0.12356E-05  2788   0.495E-03
  47 F= -.23158673E+04 E0= -.23158673E+04  d E =-.157685E-02  mag=    -0.0000
       N       E                     dE             d eps       ncg     rms          rms(c)
DAV:   1    -0.229596768306E+04    0.40433E-02   -0.69727E-01  4352   0.882E-01    0.232E-01
RMM:   2    -0.229597243910E+04   -0.47560E-02   -0.52116E-02  5788   0.166E-01    0.117E-01
RMM:   3    -0.229597241582E+04    0.23275E-04   -0.42551E-03  5205   0.503E-02    0.738E-02
RMM:   4    -0.229597235899E+04    0.56837E-04   -0.46302E-04  4300   0.124E-02    0.441E-02
RMM:   5    -0.229597232957E+04    0.29414E-04   -0.13448E-04  4060   0.109E-02    0.134E-02
RMM:   6    -0.229597232576E+04    0.38154E-05   -0.15824E-05  2796   0.512E-03
  48 F= -.23158677E+04 E0= -.23158677E+04  d E =-.200233E-02  mag=     0.0000
       N       E                     dE             d eps       ncg     rms          rms(c)
DAV:   1    -0.229596935062E+04    0.29790E-02   -0.69855E-01  4352   0.882E-01    0.221E-01
RMM:   2    -0.229597401805E+04   -0.46674E-02   -0.50908E-02  5759   0.163E-01    0.112E-01
RMM:   3    -0.229597402583E+04   -0.77768E-05   -0.41482E-03  5172   0.488E-02    0.717E-02
RMM:   4    -0.229597397753E+04    0.48296E-04   -0.44658E-04  4267   0.123E-02    0.416E-02
RMM:   5    -0.229597395409E+04    0.23446E-04   -0.11887E-04  3917   0.106E-02    0.130E-02
RMM:   6    -0.229597395111E+04    0.29772E-05   -0.14590E-05  2791   0.501E-03
  49 F= -.23158692E+04 E0= -.23158692E+04  d E =-.152491E-02  mag=    -0.0000
       N       E                     dE             d eps       ncg     rms          rms(c)
DAV:   1    -0.229597190284E+04    0.20513E-02   -0.36579E-01  4384   0.638E-01    0.160E-01
RMM:   2    -0.229597434668E+04   -0.24438E-02   -0.26652E-02  5795   0.118E-01    0.812E-02
RMM:   3    -0.229597435168E+04   -0.50000E-05   -0.21577E-03  4896   0.360E-02    0.518E-02
RMM:   4    -0.229597432601E+04    0.25665E-04   -0.23306E-04  3875   0.922E-03    0.301E-02
RMM:   5    -0.229597431340E+04    0.12612E-04   -0.61561E-05  3233   0.808E-03    0.935E-03
RMM:   6    -0.229597431195E+04    0.14481E-05   -0.99065E-06  2783   0.481E-03
  50 F= -.23158695E+04 E0= -.23158695E+04  d E =-.181461E-02  mag=     0.0000
       N       E                     dE             d eps       ncg     rms          rms(c)
DAV:   1    -0.229597400433E+04    0.30907E-03   -0.55592E-01  4352   0.773E-01    0.180E-01
RMM:   2    -0.229597636518E+04   -0.23609E-02   -0.25971E-02  5383   0.131E-01    0.953E-02
RMM:   3    -0.229597632145E+04    0.43731E-04   -0.19530E-03  4884   0.440E-02    0.633E-02
RMM:   4    -0.229597628259E+04    0.38862E-04   -0.27706E-04  4362   0.121E-02    0.377E-02
RMM:   5    -0.229597626634E+04    0.16249E-04   -0.10100E-04  3373   0.102E-02    0.161E-02
RMM:   6    -0.229597626120E+04    0.51441E-05   -0.14286E-05  2816   0.452E-03
  51 F= -.23158713E+04 E0= -.23158713E+04  d E =-.173620E-02  mag=     0.0000
       N       E                     dE             d eps       ncg     rms          rms(c)
DAV:   1    -0.229597479248E+04    0.14739E-02   -0.39164E-01  4352   0.649E-01    0.151E-01
RMM:   2    -0.229597645611E+04   -0.16636E-02   -0.18314E-02  5442   0.111E-01    0.800E-02
RMM:   3    -0.229597642023E+04    0.35884E-04   -0.13611E-03  4846   0.370E-02    0.531E-02
RMM:   4    -0.229597639138E+04    0.28849E-04   -0.19484E-04  4261   0.104E-02    0.313E-02
RMM:   5    -0.229597637951E+04    0.11866E-04   -0.69083E-05  3045   0.871E-03    0.140E-02
RMM:   6    -0.229597637565E+04    0.38622E-05   -0.11536E-05  2795   0.442E-03
  52 F= -.23158712E+04 E0= -.23158712E+04  d E =-.167425E-02  mag=     0.0000
       N       E                     dE             d eps       ncg     rms          rms(c)
DAV:   1    -0.229597612718E+04    0.25233E-03   -0.92818E-02  4416   0.316E-01    0.730E-02
RMM:   2    -0.229597651025E+04   -0.38306E-03   -0.42214E-03  5577   0.537E-02    0.384E-02
RMM:   3    -0.229597650191E+04    0.83405E-05   -0.29663E-04  3892   0.179E-02    0.251E-02
RMM:   4    -0.229597649642E+04    0.54832E-05   -0.43742E-05  2940   0.576E-03
  53 F= -.23158714E+04 E0= -.23158714E+04  d E =-.188051E-02  mag=     0.0000
       N       E                     dE             d eps       ncg     rms          rms(c)
DAV:   1    -0.229597625756E+04    0.24435E-03   -0.30417E-01  4352   0.578E-01    0.133E-01
RMM:   2    -0.229597793826E+04   -0.16807E-02   -0.18322E-02  5739   0.101E-01    0.682E-02
RMM:   3    -0.229597794958E+04   -0.11320E-04   -0.14114E-03  4853   0.314E-02    0.458E-02
RMM:   4    -0.229597795318E+04   -0.35997E-05   -0.21609E-04  3830   0.104E-02    0.382E-02
RMM:   5    -0.229597792631E+04    0.26873E-04   -0.51749E-05  2960   0.671E-03    0.816E-03
RMM:   6    -0.229597792602E+04    0.28968E-06   -0.86793E-06  2789   0.396E-03
  54 F= -.23158728E+04 E0= -.23158728E+04  d E =-.134595E-02  mag=    -0.0000
       N       E                     dE             d eps       ncg     rms          rms(c)
DAV:   1    -0.229597522674E+04    0.26996E-02   -0.59834E-01  4352   0.811E-01    0.190E-01
RMM:   2    -0.229597856943E+04   -0.33427E-02   -0.36405E-02  5617   0.141E-01    0.965E-02
RMM:   3    -0.229597858602E+04   -0.16594E-04   -0.27858E-03  4999   0.441E-02    0.627E-02
RMM:   4    -0.229597857081E+04    0.15217E-04   -0.44133E-04  4343   0.146E-02    0.378E-02
RMM:   5    -0.229597854906E+04    0.21747E-04   -0.79533E-05  3128   0.899E-03    0.151E-02
RMM:   6    -0.229597854650E+04    0.25568E-05   -0.13774E-05  2793   0.355E-03
  55 F= -.23158733E+04 E0= -.23158733E+04  d E =-.185153E-02  mag=    -0.0000
       N       E                     dE             d eps       ncg     rms          rms(c)
DAV:   1    -0.229597757061E+04    0.97845E-03   -0.39378E-01  4352   0.656E-01    0.170E-01
RMM:   2    -0.229597994987E+04   -0.23793E-02   -0.26232E-02  5686   0.119E-01    0.845E-02
RMM:   3    -0.229597996537E+04   -0.15499E-04   -0.21856E-03  4917   0.381E-02    0.541E-02
RMM:   4    -0.229597993775E+04    0.27623E-04   -0.25326E-04  4115   0.103E-02    0.304E-02
RMM:   5    -0.229597992745E+04    0.10298E-04   -0.67380E-05  3073   0.870E-03    0.139E-02
RMM:   6    -0.229597992393E+04    0.35189E-05   -0.12121E-05  2781   0.465E-03
  56 F= -.23158745E+04 E0= -.23158745E+04  d E =-.125994E-02  mag=    -0.0000
       N       E                     dE             d eps       ncg     rms          rms(c)
DAV:   1    -0.229597862649E+04    0.13010E-02   -0.27320E-01  4384   0.547E-01    0.142E-01
RMM:   2    -0.229598028989E+04   -0.16634E-02   -0.18321E-02  5714   0.996E-02    0.704E-02
RMM:   3    -0.229598030063E+04   -0.10740E-04   -0.15514E-03  4804   0.326E-02    0.451E-02
RMM:   4    -0.229598028116E+04    0.19466E-04   -0.17507E-04  3856   0.866E-03    0.256E-02
RMM:   5    -0.229598027355E+04    0.76156E-05   -0.47724E-05  2904   0.734E-03
  57 F= -.23158748E+04 E0= -.23158748E+04  d E =-.151288E-02  mag=     0.0000
       N       E                     dE             d eps       ncg     rms          rms(c)
DAV:   1    -0.229597864961E+04    0.16316E-02   -0.29520E-01  4352   0.554E-01    0.168E-01
RMM:   2    -0.229598146619E+04   -0.28166E-02   -0.31154E-02  5848   0.112E-01    0.843E-02
RMM:   3    -0.229598153561E+04   -0.69420E-04   -0.28147E-03  4995   0.360E-02    0.524E-02
RMM:   4    -0.229598151537E+04    0.20235E-04   -0.28467E-04  3814   0.911E-03    0.312E-02
RMM:   5    -0.229598150225E+04    0.13127E-04   -0.64100E-05  3088   0.782E-03    0.110E-02
RMM:   6    -0.229598149991E+04    0.23355E-05   -0.11314E-05  2784   0.490E-03
  58 F= -.23158759E+04 E0= -.23158759E+04  d E =-.115334E-02  mag=    -0.0000
       N       E                     dE             d eps       ncg     rms          rms(c)
DAV:   1    -0.229598020498E+04    0.12973E-02   -0.16196E-01  4416   0.410E-01    0.125E-01
RMM:   2    -0.229598176293E+04   -0.15580E-02   -0.17210E-02  5949   0.837E-02    0.635E-02
RMM:   3    -0.229598179645E+04   -0.33511E-04   -0.15391E-03  4471   0.258E-02    0.394E-02
RMM:   4    -0.229598178267E+04    0.13776E-04   -0.15225E-04  3097   0.701E-03    0.239E-02
RMM:   5    -0.229598177398E+04    0.86880E-05   -0.39586E-05  2849   0.613E-03
  59 F= -.23158762E+04 E0= -.23158762E+04  d E =-.137381E-02  mag=    -0.0000
       N       E                     dE             d eps       ncg     rms          rms(c)
DAV:   1    -0.229597761688E+04    0.41658E-02   -0.40432E-01  4352   0.626E-01    0.192E-01
RMM:   2    -0.229598287017E+04   -0.52533E-02   -0.57626E-02  6134   0.137E-01    0.943E-02
RMM:   3    -0.229598312132E+04   -0.25115E-03   -0.54378E-03  5209   0.416E-02    0.596E-02
RMM:   4    -0.229598311614E+04    0.51862E-05   -0.53905E-04  3914   0.106E-02    0.286E-02
RMM:   5    -0.229598311261E+04    0.35242E-05   -0.58135E-05  2966   0.745E-03
  60 F= -.23158774E+04 E0= -.23158774E+04  d E =-.123557E-02  mag=    -0.0000
       N       E                     dE             d eps       ncg     rms          rms(c)
DAV:   1    -0.229598115725E+04    0.19589E-02   -0.16065E-01  4384   0.395E-01    0.122E-01
RMM:   2    -0.229598325929E+04   -0.21020E-02   -0.23079E-02  6091   0.862E-02    0.606E-02
RMM:   3    -0.229598333629E+04   -0.77000E-04   -0.18482E-03  4413   0.260E-02    0.382E-02
RMM:   4    -0.229598333380E+04    0.24913E-05   -0.19996E-04  2989   0.714E-03    0.207E-02
RMM:   5    -0.229598332932E+04    0.44871E-05   -0.29957E-05  2851   0.553E-03
  61 F= -.23158775E+04 E0= -.23158775E+04  d E =-.138749E-02  mag=    -0.0000
       N       E                     dE             d eps       ncg     rms          rms(c)
DAV:   1    -0.229598202857E+04    0.13052E-02   -0.23653E-01  4352   0.475E-01    0.132E-01
RMM:   2    -0.229598434592E+04   -0.23173E-02   -0.25605E-02  6040   0.944E-02    0.660E-02
RMM:   3    -0.229598449180E+04   -0.14587E-03   -0.25846E-03  4763   0.301E-02    0.436E-02
RMM:   4    -0.229598449364E+04   -0.18410E-05   -0.26391E-04  3546   0.881E-03    0.255E-02
RMM:   5    -0.229598448549E+04    0.81513E-05   -0.36293E-05  2866   0.593E-03
  62 F= -.23158785E+04 E0= -.23158785E+04  d E =-.957041E-03  mag=    -0.0000
       N       E                     dE             d eps       ncg     rms          rms(c)
DAV:   1    -0.229598044381E+04    0.40498E-02   -0.45610E-01  4352   0.660E-01    0.183E-01
RMM:   2    -0.229598492819E+04   -0.44844E-02   -0.49485E-02  5885   0.130E-01    0.919E-02
RMM:   3    -0.229598519225E+04   -0.26406E-03   -0.48471E-03  5133   0.409E-02    0.604E-02
RMM:   4    -0.229598518542E+04    0.68221E-05   -0.50532E-04  4142   0.116E-02    0.279E-02
RMM:   5    -0.229598518088E+04    0.45405E-05   -0.58877E-05  2957   0.745E-03
  63 F= -.23158789E+04 E0= -.23158789E+04  d E =-.137727E-02  mag=    -0.0000
       N       E                     dE             d eps       ncg     rms          rms(c)
DAV:   1    -0.229598362551E+04    0.15599E-02   -0.34084E-01  4384   0.584E-01    0.157E-01
RMM:   2    -0.229598658335E+04   -0.29578E-02   -0.32827E-02  5776   0.110E-01    0.806E-02
RMM:   3    -0.229598672319E+04   -0.13984E-03   -0.28914E-03  4980   0.342E-02    0.547E-02
RMM:   4    -0.229598673354E+04   -0.10349E-04   -0.34573E-04  3737   0.978E-03    0.445E-02
RMM:   5    -0.229598669977E+04    0.33765E-04   -0.78021E-05  3304   0.776E-03    0.922E-03
RMM:   6    -0.229598669932E+04    0.45540E-06   -0.12694E-05  2792   0.469E-03
  64 F= -.23158802E+04 E0= -.23158802E+04  d E =-.129038E-02  mag=    -0.0000
       N       E                     dE             d eps       ncg     rms          rms(c)
DAV:   1    -0.229598237923E+04    0.43205E-02   -0.57028E-01  4352   0.754E-01    0.201E-01
RMM:   2    -0.229598730665E+04   -0.49274E-02   -0.54635E-02  5797   0.141E-01    0.104E-01
RMM:   3    -0.229598755864E+04   -0.25199E-03   -0.50550E-03  5108   0.447E-02    0.722E-02
RMM:   4    -0.229598757180E+04   -0.13154E-04   -0.58198E-04  4138   0.123E-02    0.583E-02
RMM:   5    -0.229598751125E+04    0.60550E-04   -0.12963E-04  4012   0.945E-03    0.120E-02
RMM:   6    -0.229598750957E+04    0.16782E-05   -0.17620E-05  2802   0.494E-03
  65 F= -.23158807E+04 E0= -.23158807E+04  d E =-.180899E-02  mag=    -0.0000
       N       E                     dE             d eps       ncg     rms          rms(c)
DAV:   1    -0.229598610124E+04    0.14100E-02   -0.31646E-01  4384   0.572E-01    0.159E-01
RMM:   2    -0.229598865292E+04   -0.25517E-02   -0.28410E-02  5770   0.107E-01    0.773E-02
RMM:   3    -0.229598872986E+04   -0.76940E-04   -0.23592E-03  4993   0.335E-02    0.511E-02
RMM:   4    -0.229598874004E+04   -0.10177E-04   -0.31721E-04  3930   0.102E-02    0.440E-02
RMM:   5    -0.229598870475E+04    0.35284E-04   -0.67178E-05  3146   0.754E-03    0.867E-03
RMM:   6    -0.229598870456E+04    0.19303E-06   -0.13212E-05  2797   0.448E-03
  66 F= -.23158818E+04 E0= -.23158818E+04  d E =-.104214E-02  mag=    -0.0000
       N       E                     dE             d eps       ncg     rms          rms(c)
DAV:   1    -0.229598563346E+04    0.30713E-02   -0.37911E-01  4352   0.626E-01    0.174E-01
RMM:   2    -0.229598870966E+04   -0.30762E-02   -0.34206E-02  5782   0.118E-01    0.847E-02
RMM:   3    -0.229598880510E+04   -0.95436E-04   -0.28210E-03  5031   0.381E-02    0.567E-02
RMM:   4    -0.229598881674E+04   -0.11639E-04   -0.38889E-04  4026   0.112E-02    0.486E-02
RMM:   5    -0.229598877252E+04    0.44213E-04   -0.81443E-05  3397   0.821E-03    0.957E-03
RMM:   6    -0.229598877192E+04    0.60735E-06   -0.16330E-05  2802   0.484E-03
  67 F= -.23158817E+04 E0= -.23158817E+04  d E =-.944735E-03  mag=    -0.0000
       N       E                     dE             d eps       ncg     rms          rms(c)
DAV:   1    -0.229598805549E+04    0.71703E-03   -0.10366E-01  4416   0.327E-01    0.906E-02
RMM:   2    -0.229598888337E+04   -0.82788E-03   -0.92400E-03  5831   0.614E-02    0.442E-02
RMM:   3    -0.229598890658E+04   -0.23210E-04   -0.74617E-04  4015   0.204E-02    0.294E-02
RMM:   4    -0.229598890721E+04   -0.63094E-06   -0.97881E-05  2933   0.648E-03
  68 F= -.23158819E+04 E0= -.23158819E+04  d E =-.116570E-02  mag=     0.0000
       N       E                     dE             d eps       ncg     rms          rms(c)
DAV:   1    -0.229598768949E+04    0.12171E-02   -0.30880E-01  4352   0.556E-01    0.150E-01
RMM:   2    -0.229599000936E+04   -0.23199E-02   -0.25697E-02  5873   0.106E-01    0.751E-02
RMM:   3    -0.229599009249E+04   -0.83135E-04   -0.23023E-03  4914   0.332E-02    0.486E-02
RMM:   4    -0.229599007506E+04    0.17437E-04   -0.25457E-04  3984   0.961E-03    0.212E-02
RMM:   5    -0.229599007017E+04    0.48831E-05   -0.34089E-05  2845   0.706E-03
  69 F= -.23158829E+04 E0= -.23158829E+04  d E =-.101182E-02  mag=    -0.0000
       N       E                     dE             d eps       ncg     rms          rms(c)
DAV:   1    -0.229598931005E+04    0.76501E-03   -0.12262E-01  4384   0.351E-01    0.958E-02
RMM:   2    -0.229599022472E+04   -0.91467E-03   -0.10173E-02  5861   0.667E-02    0.483E-02
RMM:   3    -0.229599026496E+04   -0.40245E-04   -0.98397E-04  4205   0.218E-02    0.315E-02
RMM:   4    -0.229599025980E+04    0.51622E-05   -0.10584E-04  2997   0.673E-03    0.136E-02
RMM:   5    -0.229599025957E+04    0.23021E-06   -0.17134E-05  2822   0.479E-03
  70 F= -.23158830E+04 E0= -.23158830E+04  d E =-.110655E-02  mag=    -0.0000
       N       E                     dE             d eps       ncg     rms          rms(c)
DAV:   1    -0.229598875168E+04    0.15081E-02   -0.22093E-01  4352   0.476E-01    0.134E-01
RMM:   2    -0.229599109052E+04   -0.23388E-02   -0.25656E-02  5956   0.958E-02    0.640E-02
RMM:   3    -0.229599117861E+04   -0.88089E-04   -0.21007E-03  4710   0.289E-02    0.404E-02
RMM:   4    -0.229599117475E+04    0.38645E-05   -0.22332E-04  3337   0.799E-03    0.220E-02
RMM:   5    -0.229599117052E+04    0.42259E-05   -0.35352E-05  2839   0.619E-03
  71 F= -.23158839E+04 E0= -.23158839E+04  d E =-.860536E-03  mag=     0.0000
       N       E                     dE             d eps       ncg     rms          rms(c)
DAV:   1    -0.229598054526E+04    0.10629E-01   -0.10190E+00  4352   0.102E+00    0.287E-01
RMM:   2    -0.229599134242E+04   -0.10797E-01   -0.11842E-01  5902   0.205E-01    0.137E-01
RMM:   3    -0.229599182143E+04   -0.47901E-03   -0.10703E-02  5363   0.633E-02    0.862E-02
RMM:   4    -0.229599180022E+04    0.21207E-04   -0.10654E-03  4324   0.160E-02    0.386E-02
RMM:   5    -0.229599178299E+04    0.17231E-04   -0.96056E-05  3673   0.111E-02    0.865E-03
RMM:   6    -0.229599178342E+04   -0.42630E-06   -0.16760E-05  2802   0.436E-03
  72 F= -.23158844E+04 E0= -.23158844E+04  d E =-.136808E-02  mag=    -0.0000
       N       E                     dE             d eps       ncg     rms          rms(c)
DAV:   1    -0.229598823843E+04    0.35446E-02   -0.37066E-01  4416   0.598E-01    0.173E-01
RMM:   2    -0.229599273295E+04   -0.44945E-02   -0.49158E-02  5928   0.123E-01    0.845E-02
RMM:   3    -0.229599299548E+04   -0.26253E-03   -0.45873E-03  5063   0.416E-02    0.534E-02
RMM:   4    -0.229599299552E+04   -0.34372E-07   -0.44984E-04  4052   0.986E-03    0.270E-02
RMM:   5    -0.229599298695E+04    0.85631E-05   -0.51819E-05  2887   0.719E-03
  73 F= -.23158855E+04 E0= -.23158855E+04  d E =-.107845E-02  mag=    -0.0000
       N       E                     dE             d eps       ncg     rms          rms(c)
DAV:   1    -0.229598060582E+04    0.12390E-01   -0.10102E+00  4352   0.987E-01    0.287E-01
RMM:   2    -0.229599287048E+04   -0.12265E-01   -0.13413E-01  5896   0.202E-01    0.140E-01
RMM:   3    -0.229599359036E+04   -0.71988E-03   -0.12609E-02  5331   0.665E-02    0.883E-02
RMM:   4    -0.229599358426E+04    0.61038E-05   -0.12135E-03  4487   0.158E-02    0.416E-02
RMM:   5    -0.229599356206E+04    0.22199E-04   -0.12844E-04  3728   0.110E-02    0.150E-02
RMM:   6    -0.229599355915E+04    0.29092E-05   -0.23611E-05  2796   0.465E-03
  74 F= -.23158858E+04 E0= -.23158858E+04  d E =-.144950E-02  mag=     0.0000
       N       E                     dE             d eps       ncg     rms          rms(c)
DAV:   1    -0.229598707625E+04    0.64858E-02   -0.55571E-01  4384   0.709E-01    0.208E-01
RMM:   2    -0.229599427805E+04   -0.72018E-02   -0.78428E-02  5915   0.146E-01    0.104E-01
RMM:   3    -0.229599476293E+04   -0.48488E-03   -0.74626E-03  5171   0.508E-02    0.669E-02
RMM:   4    -0.229599476939E+04   -0.64529E-05   -0.75351E-04  4188   0.117E-02    0.288E-02
RMM:   5    -0.229599475437E+04    0.15021E-04   -0.50486E-05  2880   0.775E-03    0.615E-03
RMM:   6    -0.229599475475E+04   -0.38286E-06   -0.10282E-05  2794   0.382E-03
  75 F= -.23158868E+04 E0= -.23158868E+04  d E =-.100928E-02  mag=     0.0000
       N       E                     dE             d eps       ncg     rms          rms(c)
DAV:   1    -0.229599063190E+04    0.41225E-02   -0.32432E-01  4448   0.541E-01    0.158E-01
RMM:   2    -0.229599480543E+04   -0.41735E-02   -0.45453E-02  6000   0.111E-01    0.794E-02
RMM:   3    -0.229599509319E+04   -0.28776E-03   -0.43763E-03  4915   0.373E-02    0.510E-02
RMM:   4    -0.229599509635E+04   -0.31626E-05   -0.44041E-04  3900   0.901E-03    0.220E-02
RMM:   5    -0.229599508725E+04    0.91066E-05   -0.29927E-05  2809   0.610E-03
  76 F= -.23158870E+04 E0= -.23158870E+04  d E =-.120320E-02  mag=    -0.0000
       N       E                     dE             d eps       ncg     rms          rms(c)
DAV:   1    -0.229599413604E+04    0.96032E-03   -0.18643E-01  4416   0.444E-01    0.145E-01
RMM:   2    -0.229599597399E+04   -0.18380E-02   -0.20420E-02  5788   0.894E-02    0.621E-02
RMM:   3    -0.229599603105E+04   -0.57055E-04   -0.17346E-03  4857   0.322E-02    0.374E-02
RMM:   4    -0.229599602318E+04    0.78701E-05   -0.21034E-04  3904   0.915E-03    0.151E-02
RMM:   5    -0.229599602153E+04    0.16486E-05   -0.22490E-05  2806   0.639E-03
  77 F= -.23158880E+04 E0= -.23158880E+04  d E =-.966511E-03  mag=    -0.0000
       N       E                     dE             d eps       ncg     rms          rms(c)
DAV:   1    -0.229599479717E+04    0.12260E-02   -0.11406E-01  4512   0.347E-01    0.114E-01
RMM:   2    -0.229599592169E+04   -0.11245E-02   -0.12480E-02  5749   0.698E-02    0.492E-02
RMM:   3    -0.229599595584E+04   -0.34144E-04   -0.10516E-03  4434   0.249E-02    0.300E-02
RMM:   4    -0.229599595025E+04    0.55868E-05   -0.12677E-04  3462   0.720E-03    0.126E-02
RMM:   5    -0.229599594862E+04    0.16297E-05   -0.15436E-05  2791   0.540E-03
  78 F= -.23158879E+04 E0= -.23158879E+04  d E =-.919356E-03  mag=    -0.0000
       N       E                     dE             d eps       ncg     rms          rms(c)
DAV:   1    -0.229599580062E+04    0.14964E-03   -0.27836E-02  4512   0.171E-01    0.554E-02
RMM:   2    -0.229599606342E+04   -0.26280E-03   -0.29407E-03  5899   0.346E-02    0.242E-02
RMM:   3    -0.229599607289E+04   -0.94771E-05   -0.26778E-04  3149   0.124E-02    0.154E-02
RMM:   4    -0.229599607284E+04    0.52678E-07   -0.31123E-05  2802   0.417E-03
  79 F= -.23158881E+04 E0= -.23158881E+04  d E =-.103089E-02  mag=     0.0000
       N       E                     dE             d eps       ncg     rms          rms(c)
DAV:   1    -0.229599575893E+04    0.31397E-03   -0.18540E-01  4352   0.445E-01    0.124E-01
RMM:   2    -0.229599691227E+04   -0.11533E-02   -0.12996E-02  5656   0.803E-02    0.546E-02
RMM:   3    -0.229599693321E+04   -0.20940E-04   -0.98527E-04  4701   0.254E-02    0.347E-02
RMM:   4    -0.229599692255E+04    0.10661E-04   -0.16109E-04  4063   0.887E-03    0.129E-02
RMM:   5    -0.229599692079E+04    0.17606E-05   -0.16720E-05  2796   0.582E-03
  80 F= -.23158889E+04 E0= -.23158889E+04  d E =-.854979E-03  mag=     0.0000
       N       E                     dE             d eps       ncg     rms          rms(c)
DAV:   1    -0.229599640891E+04    0.51364E-03   -0.10108E-01  4416   0.329E-01    0.927E-02
RMM:   2    -0.229599704724E+04   -0.63832E-03   -0.71705E-03  5661   0.595E-02    0.416E-02
RMM:   3    -0.229599705778E+04   -0.10545E-04   -0.53343E-04  4067   0.181E-02    0.266E-02
RMM:   4    -0.229599705428E+04    0.35042E-05   -0.95523E-05  3651   0.721E-03
  81 F= -.23158891E+04 E0= -.23158891E+04  d E =-.994205E-03  mag=     0.0000
       N       E                     dE             d eps       ncg     rms          rms(c)
DAV:   1    -0.229599570923E+04    0.13485E-02   -0.26482E-01  4352   0.542E-01    0.159E-01
RMM:   2    -0.229599765714E+04   -0.19479E-02   -0.21898E-02  5956   0.104E-01    0.667E-02
RMM:   3    -0.229599768829E+04   -0.31155E-04   -0.16954E-03  5104   0.320E-02    0.412E-02
RMM:   4    -0.229599768065E+04    0.76467E-05   -0.23467E-04  4037   0.105E-02    0.243E-02
RMM:   5    -0.229599767108E+04    0.95712E-05   -0.34453E-05  2880   0.669E-03
  82 F= -.23158898E+04 E0= -.23158898E+04  d E =-.711440E-03  mag=    -0.0000
       N       E                     dE             d eps       ncg     rms          rms(c)
DAV:   1    -0.229599748832E+04    0.19233E-03   -0.18723E-02  4944   0.144E-01    0.428E-02
RMM:   2    -0.229599762775E+04   -0.13944E-03   -0.15647E-03  5770   0.286E-02    0.186E-02
RMM:   3    -0.229599763102E+04   -0.32663E-05   -0.12892E-04  2894   0.960E-03    0.119E-02
RMM:   4    -0.229599763028E+04    0.74079E-06   -0.17142E-05  2792   0.342E-03
  83 F= -.23158897E+04 E0= -.23158897E+04  d E =-.696055E-03  mag=    -0.0000
       N       E                     dE             d eps       ncg     rms          rms(c)
DAV:   1    -0.229599595107E+04    0.16799E-02   -0.22680E-01  4352   0.492E-01    0.139E-01
RMM:   2    -0.229599804921E+04   -0.20981E-02   -0.23283E-02  5758   0.948E-02    0.619E-02
RMM:   3    -0.229599811581E+04   -0.66603E-04   -0.17651E-03  4838   0.306E-02    0.393E-02
RMM:   4    -0.229599810860E+04    0.72141E-05   -0.21773E-04  3863   0.885E-03    0.216E-02
RMM:   5    -0.229599810384E+04    0.47595E-05   -0.34800E-05  2858   0.651E-03
  84 F= -.23158903E+04 E0= -.23158903E+04  d E =-.586471E-03  mag=    -0.0000
       N       E                     dE             d eps       ncg     rms          rms(c)
DAV:   1    -0.229599764127E+04    0.46733E-03   -0.44512E-02  4512   0.218E-01    0.619E-02
RMM:   2    -0.229599805873E+04   -0.41746E-03   -0.46241E-03  5780   0.430E-02    0.274E-02
RMM:   3    -0.229599807426E+04   -0.15527E-04   -0.35836E-04  3499   0.153E-02    0.173E-02
RMM:   4    -0.229599807277E+04    0.14834E-05   -0.43204E-05  2816   0.458E-03
  85 F= -.23158904E+04 E0= -.23158904E+04  d E =-.605942E-03  mag=    -0.0000
       N       E                     dE             d eps       ncg     rms          rms(c)
DAV:   1    -0.229599607657E+04    0.19977E-02   -0.27135E-01  4352   0.534E-01    0.143E-01
RMM:   2    -0.229599863888E+04   -0.25623E-02   -0.28183E-02  5784   0.101E-01    0.652E-02
RMM:   3    -0.229599873369E+04   -0.94807E-04   -0.20980E-03  4881   0.335E-02    0.420E-02
RMM:   4    -0.229599871781E+04    0.15883E-04   -0.26724E-04  4045   0.951E-03    0.157E-02
RMM:   5    -0.229599871419E+04    0.36149E-05   -0.21236E-05  2806   0.664E-03
  86 F= -.23158910E+04 E0= -.23158910E+04  d E =-.665414E-03  mag=     0.0000
       N       E                     dE             d eps       ncg     rms          rms(c)
DAV:   1    -0.229599824568E+04    0.47213E-03   -0.50068E-02  4576   0.230E-01    0.617E-02
RMM:   2    -0.229599871467E+04   -0.46900E-03   -0.51645E-03  5759   0.440E-02    0.283E-02
RMM:   3    -0.229599873191E+04   -0.17241E-04   -0.38628E-04  3510   0.155E-02    0.183E-02
RMM:   4    -0.229599872986E+04    0.20533E-05   -0.49312E-05  2830   0.459E-03
  87 F= -.23158910E+04 E0= -.23158910E+04  d E =-.691838E-03  mag=     0.0000
       N       E                     dE             d eps       ncg     rms          rms(c)
DAV:   1    -0.229599646573E+04    0.22662E-02   -0.28509E-01  4352   0.560E-01    0.147E-01
RMM:   2    -0.229599911922E+04   -0.26535E-02   -0.29191E-02  5725   0.105E-01    0.670E-02
RMM:   3    -0.229599920706E+04   -0.87845E-04   -0.22458E-03  4912   0.365E-02    0.430E-02
RMM:   4    -0.229599920901E+04   -0.19428E-05   -0.27409E-04  3913   0.945E-03    0.334E-02
RMM:   5    -0.229599918903E+04    0.19975E-04   -0.49121E-05  2942   0.709E-03    0.960E-03
RMM:   6    -0.229599918862E+04    0.40742E-06   -0.12765E-05  2804   0.412E-03
  88 F= -.23158915E+04 E0= -.23158915E+04  d E =-.496367E-03  mag=    -0.0000
       N       E                     dE             d eps       ncg     rms          rms(c)
DAV:   1    -0.229599907026E+04    0.11877E-03   -0.10663E-02  4960   0.109E-01    0.288E-02
RMM:   2    -0.229599917240E+04   -0.10214E-03   -0.11215E-03  5684   0.219E-02    0.128E-02
RMM:   3    -0.229599917512E+04   -0.27209E-05   -0.75302E-05  2820   0.710E-03
  89 F= -.23158915E+04 E0= -.23158915E+04  d E =-.490270E-03  mag=    -0.0000
       N       E                     dE             d eps       ncg     rms          rms(c)
DAV:   1    -0.229599835754E+04    0.81486E-03   -0.20148E-01  4352   0.479E-01    0.125E-01
RMM:   2    -0.229599959213E+04   -0.12346E-02   -0.13762E-02  5558   0.845E-02    0.540E-02
RMM:   3    -0.229599959411E+04   -0.19774E-05   -0.92818E-04  4654   0.270E-02    0.343E-02
RMM:   4    -0.229599958146E+04    0.12649E-04   -0.16413E-04  4070   0.911E-03    0.189E-02
RMM:   5    -0.229599957557E+04    0.58965E-05   -0.25443E-05  2823   0.660E-03
  90 F= -.23158920E+04 E0= -.23158920E+04  d E =-.421473E-03  mag=    -0.0000
       N       E                     dE             d eps       ncg     rms          rms(c)
DAV:   1    -0.229599907542E+04    0.50605E-03   -0.66453E-02  4480   0.276E-01    0.721E-02
RMM:   2    -0.229599948334E+04   -0.40792E-03   -0.45453E-03  5561   0.493E-02    0.309E-02
RMM:   3    -0.229599948477E+04   -0.14296E-05   -0.31093E-04  3791   0.169E-02    0.200E-02
RMM:   4    -0.229599948045E+04    0.43243E-05   -0.50368E-05  2899   0.573E-03
  91 F= -.23158919E+04 E0= -.23158919E+04  d E =-.338826E-03  mag=    -0.0000
       N       E                     dE             d eps       ncg     rms          rms(c)
DAV:   1    -0.229599938970E+04    0.95073E-04   -0.30206E-02  4432   0.185E-01    0.475E-02
RMM:   2    -0.229599956931E+04   -0.17961E-03   -0.20091E-03  5825   0.341E-02    0.199E-02
RMM:   3    -0.229599956972E+04   -0.41557E-06   -0.13879E-04  3186   0.117E-02    0.123E-02
RMM:   4    -0.229599956817E+04    0.15502E-05   -0.21745E-05  2795   0.418E-03
  92 F= -.23158920E+04 E0= -.23158920E+04  d E =-.418228E-03  mag=    -0.0000
       N       E                     dE             d eps       ncg     rms          rms(c)
DAV:   1    -0.229599902355E+04    0.54617E-03   -0.17688E-01  4352   0.451E-01    0.115E-01
RMM:   2    -0.229599990417E+04   -0.88062E-03   -0.99046E-03  5505   0.781E-02    0.493E-02
RMM:   3    -0.229599989429E+04    0.98780E-05   -0.67790E-04  4571   0.273E-02    0.328E-02
RMM:   4    -0.229599988481E+04    0.94854E-05   -0.10248E-04  3504   0.769E-03    0.225E-02
RMM:   5    -0.229599987608E+04    0.87240E-05   -0.32066E-05  2932   0.664E-03
  93 F= -.23158923E+04 E0= -.23158923E+04  d E =-.396530E-03  mag=     0.0000
       N       E                     dE             d eps       ncg     rms          rms(c)
DAV:   1    -0.229599975034E+04    0.13447E-03   -0.17821E-02  4672   0.144E-01    0.371E-02
RMM:   2    -0.229599984261E+04   -0.92271E-04   -0.10293E-03  5740   0.265E-02    0.157E-02
RMM:   3    -0.229599984217E+04    0.44450E-06   -0.69365E-05  2901   0.894E-03
  94 F= -.23158923E+04 E0= -.23158923E+04  d E =-.391129E-03  mag=     0.0000
       N       E                     dE             d eps       ncg     rms          rms(c)
DAV:   1    -0.229599906173E+04    0.78088E-03   -0.16395E-01  4352   0.435E-01    0.110E-01
RMM:   2    -0.229600008067E+04   -0.10189E-02   -0.11312E-02  5657   0.776E-02    0.488E-02
RMM:   3    -0.229600008291E+04   -0.22417E-05   -0.81295E-04  4510   0.247E-02    0.303E-02
RMM:   4    -0.229600007689E+04    0.60261E-05   -0.13516E-04  3941   0.858E-03    0.184E-02
RMM:   5    -0.229600007089E+04    0.59979E-05   -0.19013E-05  2802   0.566E-03
  95 F= -.23158926E+04 E0= -.23158926E+04  d E =-.285796E-03  mag=    -0.0000
       N       E                     dE             d eps       ncg     rms          rms(c)
DAV:   1    -0.229600007169E+04    0.51990E-05   -0.36898E-05  4488   0.676E-03    0.348E-03
RMM:   2    -0.229600007172E+04   -0.29046E-07   -0.28608E-06  2572   0.173E-03
  96 F= -.23158926E+04 E0= -.23158926E+04  d E =-.285925E-03  mag=    -0.0000
       N       E                     dE             d eps       ncg     rms          rms(c)
DAV:   1    -0.229599966131E+04    0.41037E-03   -0.11151E-01  4352   0.356E-01    0.966E-02
RMM:   2    -0.229600038490E+04   -0.72359E-03   -0.80795E-03  5475   0.636E-02    0.429E-02
RMM:   3    -0.229600038546E+04   -0.55913E-06   -0.56117E-04  4289   0.227E-02    0.281E-02
RMM:   4    -0.229600037880E+04    0.66575E-05   -0.88981E-05  3282   0.691E-03
  97 F= -.23158929E+04 E0= -.23158929E+04  d E =-.238450E-03  mag=    -0.0000
       N       E                     dE             d eps       ncg     rms          rms(c)
DAV:   1    -0.229600036993E+04    0.15533E-04   -0.13580E-04  5152   0.140E-02    0.620E-03
RMM:   2    -0.229600037032E+04   -0.39321E-06   -0.13271E-05  2696   0.337E-03
  98 F= -.23158929E+04 E0= -.23158929E+04  d E =-.231690E-03  mag=    -0.0000
       N       E                     dE             d eps       ncg     rms          rms(c)
DAV:   1    -0.229599984763E+04    0.52229E-03   -0.90211E-02  4352   0.320E-01    0.883E-02
RMM:   2    -0.229600059393E+04   -0.74630E-03   -0.82567E-03  5582   0.586E-02    0.377E-02
RMM:   3    -0.229600060690E+04   -0.12968E-04   -0.56437E-04  4130   0.215E-02    0.248E-02
RMM:   4    -0.229600060386E+04    0.30360E-05   -0.64791E-05  2913   0.622E-03
  99 F= -.23158931E+04 E0= -.23158931E+04  d E =-.213627E-03  mag=    -0.0000
       N       E                     dE             d eps       ncg     rms          rms(c)
DAV:   1    -0.229600055102E+04    0.55883E-04   -0.61025E-03  5024   0.835E-02    0.241E-02
RMM:   2    -0.229600060349E+04   -0.52472E-04   -0.58627E-04  5366   0.165E-02    0.119E-02
RMM:   3    -0.229600060537E+04   -0.18787E-05   -0.45684E-05  2811   0.627E-03
 100 F= -.23158931E+04 E0= -.23158931E+04  d E =-.209879E-03  mag=    -0.0000
       N       E                     dE             d eps       ncg     rms          rms(c)
DAV:   1    -0.229600008964E+04    0.51385E-03   -0.77655E-02  4352   0.297E-01    0.811E-02
RMM:   2    -0.229600074209E+04   -0.65245E-03   -0.72256E-03  5758   0.558E-02    0.361E-02
RMM:   3    -0.229600075513E+04   -0.13046E-04   -0.52656E-04  3821   0.177E-02    0.225E-02
RMM:   4    -0.229600075078E+04    0.43558E-05   -0.76504E-05  3215   0.620E-03
 101 F= -.23158932E+04 E0= -.23158932E+04  d E =-.163655E-03  mag=    -0.0000
       N       E                     dE             d eps       ncg     rms          rms(c)
DAV:   1    -0.229600073995E+04    0.15185E-04   -0.76646E-04  5272   0.300E-02    0.102E-02
RMM:   2    -0.229600074677E+04   -0.68207E-05   -0.75126E-05  3301   0.645E-03
 102 F= -.23158932E+04 E0= -.23158932E+04  d E =-.161516E-03  mag=    -0.0000
       N       E                     dE             d eps       ncg     rms          rms(c)
DAV:   1    -0.229600050286E+04    0.23709E-03   -0.68675E-02  4352   0.279E-01    0.715E-02
RMM:   2    -0.229600092754E+04   -0.42468E-03   -0.47237E-03  5800   0.511E-02    0.329E-02
RMM:   3    -0.229600093291E+04   -0.53676E-05   -0.33436E-04  3858   0.170E-02    0.219E-02
RMM:   4    -0.229600093013E+04    0.27842E-05   -0.49104E-05  2838   0.550E-03
 103 F= -.23158934E+04 E0= -.23158934E+04  d E =-.157475E-03  mag=     0.0000
       N       E                     dE             d eps       ncg     rms          rms(c)
DAV:   1    -0.229600090319E+04    0.29718E-04   -0.39192E-03  5008   0.669E-02    0.182E-02
RMM:   2    -0.229600092808E+04   -0.24886E-04   -0.28074E-04  4742   0.129E-02    0.931E-03
RMM:   3    -0.229600092898E+04   -0.90402E-06   -0.22721E-05  2776   0.529E-03
 104 F= -.23158934E+04 E0= -.23158934E+04  d E =-.149984E-03  mag=     0.0000
       N       E                     dE             d eps       ncg     rms          rms(c)
DAV:   1    -0.229600080555E+04    0.12253E-03   -0.44591E-02  4352   0.226E-01    0.570E-02
RMM:   2    -0.229600108213E+04   -0.27658E-03   -0.30847E-03  5724   0.406E-02    0.254E-02
RMM:   3    -0.229600108372E+04   -0.15838E-05   -0.21267E-04  3280   0.121E-02    0.159E-02
RMM:   4    -0.229600108140E+04    0.23200E-05   -0.34828E-05  2825   0.487E-03
 105 F= -.23158935E+04 E0= -.23158935E+04  d E =-.136367E-03  mag=    -0.0000
       N       E                     dE             d eps       ncg     rms          rms(c)
DAV:   1    -0.229600092309E+04    0.16063E-03   -0.30609E-02  4400   0.188E-01    0.472E-02
RMM:   2    -0.229600111266E+04   -0.18957E-03   -0.21074E-03  5759   0.342E-02    0.204E-02
RMM:   3    -0.229600111514E+04   -0.24786E-05   -0.15071E-04  3124   0.117E-02    0.131E-02
RMM:   4    -0.229600111504E+04    0.99302E-07   -0.21655E-05  2810   0.398E-03
 106 F= -.23158935E+04 E0= -.23158935E+04  d E =-.156760E-03  mag=    -0.0000
       N       E                     dE             d eps       ncg     rms          rms(c)
DAV:   1    -0.229600106357E+04    0.51571E-04   -0.40547E-02  4352   0.216E-01    0.579E-02
RMM:   2    -0.229600130773E+04   -0.24416E-03   -0.27502E-03  5793   0.394E-02    0.251E-02
RMM:   3    -0.229600130771E+04    0.20096E-07   -0.19129E-04  3315   0.128E-02    0.156E-02
RMM:   4    -0.229600130652E+04    0.11826E-05   -0.32702E-05  2832   0.495E-03
 107 F= -.23158937E+04 E0= -.23158937E+04  d E =-.152628E-03  mag=    -0.0000
       N       E                     dE             d eps       ncg     rms          rms(c)
DAV:   1    -0.229600127423E+04    0.33474E-04   -0.93137E-03  4688   0.103E-01    0.283E-02
RMM:   2    -0.229600133119E+04   -0.56956E-04   -0.64247E-04  5574   0.200E-02    0.127E-02
RMM:   3    -0.229600133157E+04   -0.38593E-06   -0.48478E-05  2807   0.709E-03
 108 F= -.23158937E+04 E0= -.23158937E+04  d E =-.159001E-03  mag=    -0.0000
       N       E                     dE             d eps       ncg     rms          rms(c)
DAV:   1    -0.229600129629E+04    0.34901E-04   -0.38109E-02  4352   0.207E-01    0.560E-02
RMM:   2    -0.229600153058E+04   -0.23429E-03   -0.26111E-03  5580   0.368E-02    0.256E-02
RMM:   3    -0.229600153111E+04   -0.52783E-06   -0.17677E-04  3242   0.117E-02    0.177E-02
RMM:   4    -0.229600152880E+04    0.23097E-05   -0.29780E-05  2810   0.455E-03
 109 F= -.23158938E+04 E0= -.23158938E+04  d E =-.126652E-03  mag=     0.0000
       N       E                     dE             d eps       ncg     rms          rms(c)
DAV:   1    -0.229600150300E+04    0.28105E-04   -0.10183E-02  4544   0.107E-01    0.288E-02
RMM:   2    -0.229600156521E+04   -0.62202E-04   -0.69376E-04  5464   0.194E-02    0.126E-02
RMM:   3    -0.229600156644E+04   -0.12311E-05   -0.51105E-05  2815   0.725E-03
 110 F= -.23158938E+04 E0= -.23158938E+04  d E =-.127312E-03  mag=    -0.0000
       N       E                     dE             d eps       ncg     rms          rms(c)
DAV:   1    -0.229600150415E+04    0.61055E-04   -0.26174E-02  4352   0.172E-01    0.455E-02
RMM:   2    -0.229600170245E+04   -0.19830E-03   -0.22067E-03  5761   0.316E-02    0.216E-02
RMM:   3    -0.229600170519E+04   -0.27389E-05   -0.15698E-04  2993   0.966E-03    0.143E-02
RMM:   4    -0.229600170546E+04   -0.27234E-06   -0.23791E-05  2806   0.393E-03
 111 F= -.23158939E+04 E0= -.23158939E+04  d E =-.981421E-04  mag=    -0.0000
       N       E                     dE             d eps       ncg     rms          rms(c)
DAV:   1    -0.229600163333E+04    0.71857E-04   -0.14472E-02  4544   0.128E-01    0.337E-02
RMM:   2    -0.229600174169E+04   -0.10836E-03   -0.12073E-03  5753   0.240E-02    0.152E-02
RMM:   3    -0.229600174431E+04   -0.26174E-05   -0.94625E-05  2863   0.846E-03
 112 F= -.23158939E+04 E0= -.23158939E+04  d E =-.106423E-03  mag=    -0.0000
       N       E                     dE             d eps       ncg     rms          rms(c)
DAV:   1    -0.229600163749E+04    0.10420E-03   -0.26504E-02  4384   0.173E-01    0.495E-02
RMM:   2    -0.229600186245E+04   -0.22496E-03   -0.24948E-03  5763   0.335E-02    0.236E-02
RMM:   3    -0.229600186538E+04   -0.29256E-05   -0.18383E-04  2996   0.103E-02    0.156E-02
RMM:   4    -0.229600186348E+04    0.19038E-05   -0.24956E-05  2796   0.416E-03
 113 F= -.23158941E+04 E0= -.23158941E+04  d E =-.121942E-03  mag=     0.0000
       N       E                     dE             d eps       ncg     rms          rms(c)
DAV:   1    -0.229600179672E+04    0.68657E-04   -0.89338E-03  4656   0.100E-01    0.285E-02
RMM:   2    -0.229600187131E+04   -0.74584E-04   -0.83416E-04  5598   0.197E-02    0.133E-02
RMM:   3    -0.229600187313E+04   -0.18261E-05   -0.62869E-05  2835   0.747E-03
 114 F= -.23158941E+04 E0= -.23158941E+04  d E =-.133286E-03  mag=     0.0000
       N       E                     dE             d eps       ncg     rms          rms(c)
DAV:   1    -0.229600180970E+04    0.61606E-04   -0.23245E-02  4384   0.161E-01    0.473E-02
RMM:   2    -0.229600196427E+04   -0.15457E-03   -0.17414E-03  5709   0.301E-02    0.217E-02
RMM:   3    -0.229600196440E+04   -0.12634E-06   -0.12799E-04  2984   0.928E-03    0.137E-02
RMM:   4    -0.229600196292E+04    0.14802E-05   -0.21806E-05  2812   0.408E-03
 115 F= -.23158942E+04 E0= -.23158942E+04  d E =-.920992E-04  mag=     0.0000
       N       E                     dE             d eps       ncg     rms          rms(c)
DAV:   1    -0.229600195109E+04    0.13314E-04   -0.16329E-03  5184   0.431E-02    0.133E-02
RMM:   2    -0.229600196207E+04   -0.10985E-04   -0.12605E-04  3832   0.853E-03    0.685E-03
RMM:   3    -0.229600196232E+04   -0.24664E-06   -0.93464E-06  2598   0.424E-03
 116 F= -.23158942E+04 E0= -.23158942E+04  d E =-.921404E-04  mag=    -0.0000
       N       E                     dE             d eps       ncg     rms          rms(c)
DAV:   1    -0.229600194500E+04    0.17066E-04   -0.17473E-02  4384   0.142E-01    0.409E-02
RMM:   2    -0.229600206959E+04   -0.12458E-03   -0.13923E-03  5672   0.270E-02    0.184E-02
RMM:   3    -0.229600206971E+04   -0.12426E-06   -0.10176E-04  2902   0.974E-03    0.115E-02
RMM:   4    -0.229600206866E+04    0.10492E-05   -0.16001E-05  2796   0.364E-03
 117 F= -.23158942E+04 E0= -.23158942E+04  d E =-.901640E-04  mag=    -0.0000
       N       E                     dE             d eps       ncg     rms          rms(c)
DAV:   1    -0.229600204048E+04    0.29227E-04   -0.67397E-03  4576   0.884E-02    0.260E-02
RMM:   2    -0.229600208862E+04   -0.48140E-04   -0.54206E-04  5425   0.171E-02    0.124E-02
RMM:   3    -0.229600208883E+04   -0.20555E-06   -0.40883E-05  2807   0.665E-03
 118 F= -.23158943E+04 E0= -.23158943E+04  d E =-.100191E-03  mag=    -0.0000
       N       E                     dE             d eps       ncg     rms          rms(c)
DAV:   1    -0.229600207332E+04    0.15299E-04   -0.19712E-02  4384   0.151E-01    0.425E-02
RMM:   2    -0.229600221062E+04   -0.13729E-03   -0.15382E-03  5715   0.283E-02    0.195E-02
RMM:   3    -0.229600221057E+04    0.48691E-07   -0.11507E-04  2889   0.858E-03    0.121E-02
RMM:   4    -0.229600220985E+04    0.72012E-06   -0.22203E-05  2812   0.400E-03
 119 F= -.23158943E+04 E0= -.23158943E+04  d E =-.782357E-04  mag=    -0.0000
       N       E                     dE             d eps       ncg     rms          rms(c)
DAV:   1    -0.229600221283E+04   -0.22608E-05   -0.72608E-04  5136   0.293E-02    0.871E-03
RMM:   2    -0.229600221768E+04   -0.48555E-05   -0.56526E-05  3241   0.614E-03
 120 F= -.23158943E+04 E0= -.23158943E+04  d E =-.777279E-04  mag=     0.0000
       N       E                     dE             d eps       ncg     rms          rms(c)
DAV:   1    -0.229600223122E+04   -0.18392E-04   -0.17650E-02  4384   0.143E-01    0.417E-02
RMM:   2    -0.229600233342E+04   -0.10220E-03   -0.11686E-03  5787   0.271E-02    0.183E-02
RMM:   3    -0.229600233094E+04    0.24786E-05   -0.77160E-05  2926   0.922E-03
 121 F= -.23158944E+04 E0= -.23158944E+04  d E =-.717716E-04  mag=     0.0000
       N       E                     dE             d eps       ncg     rms          rms(c)
DAV:   1    -0.229600233148E+04    0.19399E-05   -0.12677E-04  5088   0.126E-02    0.587E-03
RMM:   2    -0.229600233239E+04   -0.91226E-06   -0.14825E-05  2531   0.319E-03
 122 F= -.23158944E+04 E0= -.23158944E+04  d E =-.693385E-04  mag=     0.0000
       N       E                     dE             d eps       ncg     rms          rms(c)
DAV:   1    -0.229600229861E+04    0.32867E-04   -0.13967E-02  4384   0.126E-01    0.362E-02
RMM:   2    -0.229600238778E+04   -0.89171E-04   -0.10144E-03  5628   0.233E-02    0.163E-02
RMM:   3    -0.229600238834E+04   -0.56125E-06   -0.80815E-05  2849   0.904E-03
 123 F= -.23158945E+04 E0= -.23158945E+04  d E =-.618373E-04  mag=     0.0000
       N       E                     dE             d eps       ncg     rms          rms(c)
DAV:   1    -0.229600237511E+04    0.12673E-04   -0.15972E-03  5040   0.429E-02    0.148E-02
RMM:   2    -0.229600238593E+04   -0.10816E-04   -0.12927E-04  3759   0.819E-03    0.956E-03
RMM:   3    -0.229600238524E+04    0.69037E-06   -0.12081E-05  2689   0.410E-03
 124 F= -.23158945E+04 E0= -.23158945E+04  d E =-.607850E-04  mag=     0.0000
       N       E                     dE             d eps       ncg     rms          rms(c)
DAV:   1    -0.229600231412E+04    0.71808E-04   -0.15927E-02  4352   0.135E-01    0.414E-02
RMM:   2    -0.229600244777E+04   -0.13366E-03   -0.15005E-03  5759   0.263E-02    0.180E-02
RMM:   3    -0.229600244906E+04   -0.12902E-05   -0.11061E-04  2856   0.900E-03    0.111E-02
RMM:   4    -0.229600244806E+04    0.99989E-06   -0.17528E-05  2794   0.356E-03
 125 F= -.23158945E+04 E0= -.23158945E+04  d E =-.581989E-04  mag=     0.0000
       N       E                     dE             d eps       ncg     rms          rms(c)
DAV:   1    -0.229600244371E+04    0.53554E-05   -0.52191E-04  5088   0.247E-02    0.824E-03
RMM:   2    -0.229600244827E+04   -0.45587E-05   -0.53081E-05  3091   0.542E-03
 126 F= -.23158945E+04 E0= -.23158945E+04  d E =-.575425E-04  mag=     0.0000
       N       E                     dE             d eps       ncg     rms          rms(c)
DAV:   1    -0.229600241359E+04    0.30118E-04   -0.10977E-02  4416   0.110E-01    0.341E-02
RMM:   2    -0.229600251430E+04   -0.10071E-03   -0.11196E-03  5740   0.234E-02    0.162E-02
RMM:   3    -0.229600251683E+04   -0.25323E-05   -0.89797E-05  2836   0.797E-03
 127 F= -.23158946E+04 E0= -.23158946E+04  d E =-.566933E-04  mag=    -0.0000
       N       E                     dE             d eps       ncg     rms          rms(c)
DAV:   1    -0.229600248894E+04    0.25363E-04   -0.41297E-03  4512   0.673E-02    0.225E-02
RMM:   2    -0.229600252690E+04   -0.37964E-04   -0.43051E-04  5065   0.137E-02    0.118E-02
RMM:   3    -0.229600252774E+04   -0.83720E-06   -0.37942E-05  2789   0.502E-03
 128 F= -.23158946E+04 E0= -.23158946E+04  d E =-.602660E-04  mag=     0.0000
       N       E                     dE             d eps       ncg     rms          rms(c)
DAV:   1    -0.229600247865E+04    0.48248E-04   -0.13741E-02  4352   0.122E-01    0.399E-02
RMM:   2    -0.229600259574E+04   -0.11709E-03   -0.13116E-03  5662   0.250E-02    0.211E-02
RMM:   3    -0.229600259541E+04    0.32755E-06   -0.99930E-05  2908   0.790E-03
 129 F= -.23158946E+04 E0= -.23158946E+04  d E =-.599349E-04  mag=     0.0000
       N       E                     dE             d eps       ncg     rms          rms(c)
DAV:   1    -0.229600259074E+04    0.49942E-05   -0.39760E-04  5200   0.209E-02    0.110E-02
RMM:   2    -0.229600259361E+04   -0.28633E-05   -0.41520E-05  2871   0.442E-03
 130 F= -.23158946E+04 E0= -.23158946E+04  d E =-.567904E-04  mag=     0.0000
       N       E                     dE             d eps       ncg     rms          rms(c)
DAV:   1    -0.229600255983E+04    0.30913E-04   -0.89286E-03  4384   0.101E-01    0.339E-02
RMM:   2    -0.229600263540E+04   -0.75568E-04   -0.85609E-04  5635   0.209E-02    0.140E-02
RMM:   3    -0.229600263594E+04   -0.54084E-06   -0.63327E-05  2825   0.765E-03
 131 F= -.23158947E+04 E0= -.23158947E+04  d E =-.488992E-04  mag=    -0.0000
       N       E                     dE             d eps       ncg     rms          rms(c)
DAV:   1    -0.229600262726E+04    0.81392E-05   -0.83484E-04  5136   0.308E-02    0.119E-02
RMM:   2    -0.229600263510E+04   -0.78438E-05   -0.91440E-05  3394   0.672E-03
 132 F= -.23158947E+04 E0= -.23158947E+04  d E =-.501445E-04  mag=    -0.0000
       N       E                     dE             d eps       ncg     rms          rms(c)
DAV:   1    -0.229600259671E+04    0.30545E-04   -0.88287E-03  4352   0.991E-02    0.314E-02
RMM:   2    -0.229600267501E+04   -0.78293E-04   -0.87648E-04  5600   0.210E-02    0.147E-02
RMM:   3    -0.229600267628E+04   -0.12683E-05   -0.68003E-05  2837   0.748E-03
 133 F= -.23158947E+04 E0= -.23158947E+04  d E =-.456834E-04  mag=    -0.0000
       N       E                     dE             d eps       ncg     rms          rms(c)
DAV:   1    -0.229600266456E+04    0.10445E-04   -0.11073E-03  4992   0.352E-02    0.131E-02
RMM:   2    -0.229600267452E+04   -0.99606E-05   -0.11560E-04  3548   0.742E-03    0.819E-03
RMM:   3    -0.229600267441E+04    0.11627E-06   -0.11609E-05  2596   0.398E-03
 134 F= -.23158947E+04 E0= -.23158947E+04  d E =-.454396E-04  mag=    -0.0000
       N       E                     dE             d eps       ncg     rms          rms(c)
DAV:   1    -0.229600264564E+04    0.28886E-04   -0.98992E-03  4352   0.104E-01    0.319E-02
RMM:   2    -0.229600272098E+04   -0.75348E-04   -0.84860E-04  5589   0.203E-02    0.145E-02
RMM:   3    -0.229600272203E+04   -0.10494E-05   -0.66578E-05  2843   0.749E-03
 135 F= -.23158948E+04 E0= -.23158948E+04  d E =-.450286E-04  mag=    -0.0000
       N       E                     dE             d eps       ncg     rms          rms(c)
DAV:   1    -0.229600271251E+04    0.84780E-05   -0.14737E-03  4864   0.403E-02    0.147E-02
RMM:   2    -0.229600272392E+04   -0.11418E-04   -0.13479E-04  3704   0.799E-03    0.871E-03
RMM:   3    -0.229600272367E+04    0.25779E-06   -0.11962E-05  2675   0.389E-03
 136 F= -.23158948E+04 E0= -.23158948E+04  d E =-.456582E-04  mag=    -0.0000
       N       E                     dE             d eps       ncg     rms          rms(c)
DAV:   1    -0.229600268299E+04    0.40938E-04   -0.86829E-03  4352   0.970E-02    0.301E-02
RMM:   2    -0.229600275862E+04   -0.75632E-04   -0.84758E-04  5598   0.196E-02    0.142E-02
RMM:   3    -0.229600276013E+04   -0.15153E-05   -0.65979E-05  2822   0.703E-03
 137 F= -.23158948E+04 E0= -.23158948E+04  d E =-.479911E-04  mag=    -0.0000
       N       E                     dE             d eps       ncg     rms          rms(c)
DAV:   1    -0.229600273604E+04    0.22575E-04   -0.24140E-03  4688   0.512E-02    0.177E-02
RMM:   2    -0.229600275727E+04   -0.21224E-04   -0.24313E-04  4225   0.103E-02    0.970E-03
RMM:   3    -0.229600275756E+04   -0.29252E-06   -0.21223E-05  2765   0.434E-03
 138 F= -.23158948E+04 E0= -.23158948E+04  d E =-.515665E-04  mag=    -0.0000
       N       E                     dE             d eps       ncg     rms          rms(c)
DAV:   1    -0.229600268540E+04    0.71869E-04   -0.10358E-02  4352   0.106E-01    0.349E-02
RMM:   2    -0.229600278942E+04   -0.10402E-03   -0.11611E-03  5751   0.224E-02    0.167E-02
RMM:   3    -0.229600279120E+04   -0.17838E-05   -0.90694E-05  2826   0.758E-03
 139 F= -.23158949E+04 E0= -.23158949E+04  d E =-.476217E-04  mag=    -0.0000
       N       E                     dE             d eps       ncg     rms          rms(c)
DAV:   1    -0.229600277459E+04    0.14833E-04   -0.11747E-03  5072   0.359E-02    0.142E-02
RMM:   2    -0.229600278650E+04   -0.11911E-04   -0.13885E-04  3634   0.762E-03    0.839E-03
RMM:   3    -0.229600278668E+04   -0.18318E-06   -0.14470E-05  2628   0.415E-03
 140 F= -.23158949E+04 E0= -.23158949E+04  d E =-.478759E-04  mag=    -0.0000
       N       E                     dE             d eps       ncg     rms          rms(c)
DAV:   1    -0.229600271908E+04    0.67422E-04   -0.11720E-02  4352   0.113E-01    0.378E-02
RMM:   2    -0.229600282694E+04   -0.10787E-03   -0.12123E-03  5727   0.235E-02    0.180E-02
RMM:   3    -0.229600282790E+04   -0.95359E-06   -0.92135E-05  2867   0.823E-03
 141 F= -.23158949E+04 E0= -.23158949E+04  d E =-.471746E-04  mag=    -0.0000
       N       E                     dE             d eps       ncg     rms          rms(c)
DAV:   1    -0.229600282243E+04    0.45134E-05   -0.26697E-04  5184   0.173E-02    0.961E-03
RMM:   2    -0.229600282475E+04   -0.23201E-05   -0.32976E-05  2737   0.381E-03
 142 F= -.23158949E+04 E0= -.23158949E+04  d E =-.449405E-04  mag=    -0.0000
       N       E                     dE             d eps       ncg     rms          rms(c)
DAV:   1    -0.229600275995E+04    0.62476E-04   -0.10751E-02  4352   0.108E-01    0.351E-02
RMM:   2    -0.229600285715E+04   -0.97200E-04   -0.10873E-03  5713   0.224E-02    0.161E-02
RMM:   3    -0.229600285933E+04   -0.21760E-05   -0.87514E-05  2834   0.826E-03
 143 F= -.23158950E+04 E0= -.23158950E+04  d E =-.459383E-04  mag=    -0.0000
       N       E                     dE             d eps       ncg     rms          rms(c)
DAV:   1    -0.229600284612E+04    0.11032E-04   -0.96924E-04  5040   0.324E-02    0.124E-02
RMM:   2    -0.229600285517E+04   -0.90542E-05   -0.10559E-04  3449   0.673E-03    0.706E-03
RMM:   3    -0.229600285532E+04   -0.14414E-06   -0.10710E-05  2525   0.362E-03
 144 F= -.23158950E+04 E0= -.23158950E+04  d E =-.454108E-04  mag=     0.0000
       N       E                     dE             d eps       ncg     rms          rms(c)
DAV:   1    -0.229600277021E+04    0.84960E-04   -0.10784E-02  4352   0.109E-01    0.367E-02
RMM:   2    -0.229600287752E+04   -0.10731E-03   -0.12006E-03  5735   0.229E-02    0.169E-02
RMM:   3    -0.229600287878E+04   -0.12562E-05   -0.93377E-05  2837   0.821E-03
 145 F= -.23158950E+04 E0= -.23158950E+04  d E =-.445619E-04  mag=    -0.0000
       N       E                     dE             d eps       ncg     rms          rms(c)
DAV:   1    -0.229600287162E+04    0.58995E-05   -0.23847E-04  5136   0.164E-02    0.912E-03
RMM:   2    -0.229600287400E+04   -0.23739E-05   -0.31747E-05  2738   0.374E-03
 146 F= -.23158950E+04 E0= -.23158950E+04  d E =-.430025E-04  mag=     0.0000
       N       E                     dE             d eps       ncg     rms          rms(c)
DAV:   1    -0.229600282595E+04    0.45672E-04   -0.84279E-03  4352   0.968E-02    0.335E-02
RMM:   2    -0.229600290326E+04   -0.77306E-04   -0.87292E-04  5681   0.204E-02    0.149E-02
RMM:   3    -0.229600290453E+04   -0.12713E-05   -0.72887E-05  2812   0.777E-03
 147 F= -.23158950E+04 E0= -.23158950E+04  d E =-.356356E-04  mag=    -0.0000
       N       E                     dE             d eps       ncg     rms          rms(c)
DAV:   1    -0.229600290143E+04    0.18267E-05   -0.13861E-04  5104   0.126E-02    0.582E-03
RMM:   2    -0.229600290303E+04   -0.15985E-05   -0.19675E-05  2532   0.312E-03
 148 F= -.23158950E+04 E0= -.23158950E+04  d E =-.348348E-04  mag=    -0.0000
       N       E                     dE             d eps       ncg     rms          rms(c)
DAV:   1    -0.229600287880E+04    0.22634E-04   -0.73419E-03  4352   0.889E-02    0.289E-02
RMM:   2    -0.229600294403E+04   -0.65238E-04   -0.73436E-04  5537   0.186E-02    0.133E-02
RMM:   3    -0.229600294589E+04   -0.18538E-05   -0.63770E-05  2813   0.723E-03
 149 F= -.23158951E+04 E0= -.23158951E+04  d E =-.375364E-04  mag=    -0.0000
       N       E                     dE             d eps       ncg     rms          rms(c)
DAV:   1    -0.229600294438E+04   -0.34804E-06   -0.18637E-04  5088   0.143E-02    0.611E-03
RMM:   2    -0.229600294635E+04   -0.19682E-05   -0.23567E-05  2566   0.337E-03
 150 F= -.23158951E+04 E0= -.23158951E+04  d E =-.371214E-04  mag=    -0.0000
