       N       E                     dE             d eps       ncg     rms          rms(c)
DAV:   1     0.130478972292E+05    0.13048E+05   -0.84054E+05  4500   0.144E+03
DAV:   2    -0.104417833484E+04   -0.14092E+05   -0.13472E+05  4920   0.329E+02
DAV:   3    -0.247573242074E+04   -0.14316E+04   -0.14168E+04  5400   0.113E+02
DAV:   4    -0.251676740440E+04   -0.41035E+02   -0.40829E+02  6420   0.267E+01
DAV:   5    -0.251758351502E+04   -0.81611E+00   -0.81440E+00  5640   0.302E+00    0.170E+02
RMM:   6    -0.148941871634E+04    0.10282E+04   -0.19295E+03  4467   0.380E+01    0.723E+01
RMM:   7    -0.165832473537E+04   -0.16891E+03   -0.29108E+02  5151   0.145E+01    0.517E+01
RMM:   8    -0.171176455214E+04   -0.53440E+02   -0.73546E+01  5314   0.813E+00    0.453E+01
RMM:   9    -0.177517032901E+04   -0.63406E+02   -0.62587E+01  5166   0.738E+00    0.365E+01
RMM:  10    -0.189474910217E+04   -0.11958E+03   -0.66322E+01  5412   0.789E+00    0.299E+01
RMM:  11    -0.197435714447E+04   -0.79608E+02   -0.35288E+01  5370   0.537E+00    0.211E+01
RMM:  12    -0.203653822115E+04   -0.62181E+02   -0.23092E+01  5201   0.399E+00    0.187E+01
RMM:  13    -0.211141794249E+04   -0.74880E+02   -0.33732E+01  4950   0.451E+00    0.138E+01
RMM:  14    -0.221272891271E+04   -0.10131E+03   -0.71189E+01  4514   0.626E+00    0.898E+00
RMM:  15    -0.228577558976E+04   -0.73047E+02   -0.68759E+01  4673   0.582E+00    0.635E+00
RMM:  16    -0.230141401594E+04   -0.15638E+02   -0.18278E+01  4711   0.354E+00    0.343E+00
RMM:  17    -0.230639489324E+04   -0.49809E+01   -0.61619E+00  5195   0.151E+00    0.401E+00
RMM:  18    -0.230648299747E+04   -0.88104E-01   -0.39571E-01  5704   0.610E-01    0.363E+00
RMM:  19    -0.230742890001E+04   -0.94590E+00   -0.41275E-01  4491   0.406E-01    0.247E+00
RMM:  20    -0.230900205363E+04   -0.15732E+01   -0.10252E+00  4466   0.545E-01    0.120E+00
RMM:  21    -0.230941576855E+04   -0.41371E+00   -0.28254E-01  4643   0.364E-01    0.728E-01
RMM:  22    -0.230955682048E+04   -0.14105E+00   -0.11865E-01  5102   0.196E-01    0.464E-01
RMM:  23    -0.230961644638E+04   -0.59626E-01   -0.26288E-02  4856   0.106E-01    0.340E-01
RMM:  24    -0.230965936043E+04   -0.42914E-01   -0.13471E-02  4545   0.757E-02    0.206E-01
RMM:  25    -0.230968260478E+04   -0.23244E-01   -0.49951E-03  4643   0.534E-02    0.121E-01
RMM:  26    -0.230969585208E+04   -0.13247E-01   -0.27046E-03  4726   0.383E-02    0.890E-02
RMM:  27    -0.230970866749E+04   -0.12815E-01   -0.34507E-03  4503   0.404E-02    0.549E-02
RMM:  28    -0.230971314067E+04   -0.44732E-02   -0.14097E-03  4673   0.306E-02    0.299E-02
RMM:  29    -0.230971485074E+04   -0.17101E-02   -0.62706E-04  4210   0.160E-02    0.163E-02
RMM:  30    -0.230971533441E+04   -0.48367E-03   -0.15414E-04  3830   0.117E-02    0.122E-02
RMM:  31    -0.230971554434E+04   -0.20993E-03   -0.75917E-05  3561   0.667E-03    0.610E-03
RMM:  32    -0.230971561216E+04   -0.67818E-04   -0.23607E-05  3097   0.556E-03    0.375E-03
RMM:  33    -0.230971563549E+04   -0.23325E-04   -0.86561E-06  2869   0.326E-03    0.245E-03
RMM:  34    -0.230971564679E+04   -0.11307E-04   -0.37624E-06  2619   0.238E-03    0.115E-03
RMM:  35    -0.230971565421E+04   -0.74110E-05   -0.25124E-06  2486   0.179E-03
   1 F= -.23309453E+04 E0= -.23309453E+04  d E =-.516635E-05  mag=     3.0000
       N       E                     dE             d eps       ncg     rms          rms(c)
DAV:   1    -0.230970386465E+04    0.11782E-01   -0.17707E+00  4470   0.538E-01    0.264E-01
RMM:   2    -0.230970531806E+04   -0.14534E-02   -0.11865E-02  5347   0.532E-02    0.325E-01
RMM:   3    -0.230970434861E+04    0.96945E-03   -0.26804E-03  5121   0.227E-02    0.214E-01
RMM:   4    -0.230970453293E+04   -0.18432E-03   -0.95354E-04  4347   0.123E-02    0.244E-01
RMM:   5    -0.230970396949E+04    0.56344E-03   -0.44818E-04  3355   0.104E-02    0.552E-02
RMM:   6    -0.230970397228E+04   -0.27969E-05   -0.11301E-04  3026   0.578E-03    0.412E-02
RMM:   7    -0.230970395608E+04    0.16202E-04   -0.39480E-05  2763   0.395E-03    0.191E-02
RMM:   8    -0.230970395328E+04    0.27976E-05   -0.83130E-06  2614   0.205E-03
   2 F= -.23309342E+04 E0= -.23309342E+04  d E =-.395069E-05  mag=     3.0000
       N       E                     dE             d eps       ncg     rms          rms(c)
DAV:   1    -0.230972336111E+04   -0.19405E-01   -0.70275E+00  4440   0.107E+00    0.515E-01
RMM:   2    -0.230972877349E+04   -0.54124E-02   -0.43894E-02  5765   0.996E-02    0.621E-01
RMM:   3    -0.230972472137E+04    0.40521E-02   -0.94237E-03  5896   0.432E-02    0.366E-01
RMM:   4    -0.230972498979E+04   -0.26842E-03   -0.31738E-03  5553   0.223E-02    0.413E-01
RMM:   5    -0.230972352050E+04    0.14693E-02   -0.13825E-03  4716   0.168E-02    0.131E-01
RMM:   6    -0.230972351187E+04    0.86333E-05   -0.42626E-04  3531   0.949E-03    0.889E-02
RMM:   7    -0.230972342416E+04    0.87706E-04   -0.13956E-04  2961   0.677E-03    0.337E-02
RMM:   8    -0.230972341673E+04    0.74282E-05   -0.29545E-05  2929   0.334E-03
   3 F= -.23309525E+04 E0= -.23309525E+04  d E =-.660117E-05  mag=     3.0000
       N       E                     dE             d eps       ncg     rms          rms(c)
DAV:   1    -0.230972483596E+04   -0.14118E-02   -0.37357E+00  4440   0.770E-01    0.337E-01
RMM:   2    -0.230972650718E+04   -0.16712E-02   -0.22332E-02  5128   0.743E-02    0.297E-01
RMM:   3    -0.230972607006E+04    0.43712E-03   -0.40924E-03  5191   0.310E-02    0.258E-01
RMM:   4    -0.230972521117E+04    0.85889E-03   -0.12088E-03  4934   0.160E-02    0.933E-02
RMM:   5    -0.230972535523E+04   -0.14406E-03   -0.42987E-04  3288   0.971E-03    0.158E-01
RMM:   6    -0.230972519515E+04    0.16008E-03   -0.14800E-04  3097   0.665E-03    0.475E-02
RMM:   7    -0.230972518788E+04    0.72708E-05   -0.65457E-05  2923   0.492E-03
   4 F= -.23309546E+04 E0= -.23309546E+04  d E =-.292930E-05  mag=     3.0000
       N       E                     dE             d eps       ncg     rms          rms(c)
DAV:   1    -0.230969369117E+04    0.31504E-01   -0.75466E+00  4440   0.113E+00    0.477E-01
RMM:   2    -0.230969501055E+04   -0.13194E-02   -0.53626E-02  5452   0.109E-01    0.313E-01
RMM:   3    -0.230969632843E+04   -0.13179E-02   -0.75379E-03  5678   0.408E-02    0.609E-01
RMM:   4    -0.230969367375E+04    0.26547E-02   -0.27640E-03  5569   0.213E-02    0.208E-01
RMM:   5    -0.230969350356E+04    0.17019E-03   -0.11150E-03  4571   0.151E-02    0.127E-01
RMM:   6    -0.230969330394E+04    0.19962E-03   -0.39691E-04  3409   0.948E-03    0.484E-02
RMM:   7    -0.230969327647E+04    0.27474E-04   -0.46837E-05  2984   0.473E-03    0.199E-02
RMM:   8    -0.230969328163E+04   -0.51616E-05   -0.21081E-05  2892   0.326E-03
   5 F= -.23309231E+04 E0= -.23309231E+04  d E =-.825821E-05  mag=     3.0000
       N       E                     dE             d eps       ncg     rms          rms(c)
DAV:   1    -0.230970278961E+04   -0.95131E-02   -0.39214E+00  4440   0.778E-01    0.335E-01
RMM:   2    -0.230970382345E+04   -0.10338E-02   -0.27186E-02  5200   0.798E-02    0.198E-01
RMM:   3    -0.230970352714E+04    0.29632E-03   -0.31473E-03  4919   0.291E-02    0.235E-01
RMM:   4    -0.230970326674E+04    0.26039E-03   -0.14768E-03  5138   0.168E-02    0.184E-01
RMM:   5    -0.230970318908E+04    0.77666E-04   -0.51490E-04  4109   0.114E-02    0.146E-01
RMM:   6    -0.230970299790E+04    0.19117E-03   -0.21065E-04  3104   0.778E-03    0.379E-02
RMM:   7    -0.230970299532E+04    0.25799E-05   -0.52434E-05  2997   0.444E-03
   6 F= -.23309328E+04 E0= -.23309328E+04  d E =-.524584E-05  mag=     3.0000
       N       E                     dE             d eps       ncg     rms          rms(c)
DAV:   1    -0.230971807774E+04   -0.15080E-01   -0.71316E+00  4440   0.119E+00    0.479E-01
RMM:   2    -0.230972135184E+04   -0.32741E-02   -0.47466E-02  5530   0.110E-01    0.368E-01
RMM:   3    -0.230972256397E+04   -0.12121E-02   -0.73377E-03  5520   0.364E-02    0.623E-01
RMM:   4    -0.230972120437E+04    0.13596E-02   -0.42124E-03  5695   0.259E-02    0.351E-01
RMM:   5    -0.230971972730E+04    0.14771E-02   -0.15829E-03  4987   0.185E-02    0.763E-02
RMM:   6    -0.230971970910E+04    0.18208E-04   -0.19813E-04  3236   0.688E-03    0.367E-02
RMM:   7    -0.230971972226E+04   -0.13159E-04   -0.60451E-05  3013   0.496E-03    0.325E-02
RMM:   8    -0.230971971699E+04    0.52608E-05   -0.28716E-05  2867   0.382E-03
   7 F= -.23309492E+04 E0= -.23309492E+04  d E =-.447943E-05  mag=     3.0000
       N       E                     dE             d eps       ncg     rms          rms(c)
DAV:   1    -0.230971979283E+04   -0.70574E-04   -0.19968E+00  4500   0.629E-01    0.235E-01
RMM:   2    -0.230972063034E+04   -0.83751E-03   -0.12068E-02  4775   0.597E-02    0.169E-01
RMM:   3    -0.230972083106E+04   -0.20072E-03   -0.18305E-03  4425   0.201E-02    0.242E-01
RMM:   4    -0.230972062422E+04    0.20684E-03   -0.96216E-04  4453   0.127E-02    0.188E-01
RMM:   5    -0.230972031045E+04    0.31377E-03   -0.29451E-04  3219   0.887E-03    0.454E-02
RMM:   6    -0.230972030407E+04    0.63724E-05   -0.59161E-05  2923   0.508E-03
   8 F= -.23309495E+04 E0= -.23309495E+04  d E =-.575108E-05  mag=     3.0000
       N       E                     dE             d eps       ncg     rms          rms(c)
DAV:   1    -0.230970988738E+04    0.10423E-01   -0.10403E+00  4380   0.464E-01    0.220E-01
RMM:   2    -0.230971049041E+04   -0.60303E-03   -0.55676E-03  4674   0.407E-02    0.199E-01
RMM:   3    -0.230971037695E+04    0.11346E-03   -0.13653E-03  4375   0.194E-02    0.186E-01
RMM:   4    -0.230971027308E+04    0.10388E-03   -0.55932E-04  4007   0.108E-02    0.171E-01
RMM:   5    -0.230971007721E+04    0.19587E-03   -0.22282E-04  2988   0.773E-03    0.628E-02
RMM:   6    -0.230971005373E+04    0.23477E-04   -0.42083E-05  2909   0.433E-03    0.194E-02
RMM:   7    -0.230971005467E+04   -0.93738E-06   -0.17537E-05  2671   0.293E-03
   9 F= -.23309401E+04 E0= -.23309401E+04  d E =-.450684E-05  mag=     3.0000
       N       E                     dE             d eps       ncg     rms          rms(c)
DAV:   1    -0.230971533582E+04   -0.52821E-02   -0.53240E-01  4440   0.327E-01    0.173E-01
RMM:   2    -0.230971577610E+04   -0.44027E-03   -0.31271E-03  4660   0.299E-02    0.220E-01
RMM:   3    -0.230971562690E+04    0.14920E-03   -0.82196E-04  4045   0.143E-02    0.209E-01
RMM:   4    -0.230971549848E+04    0.12842E-03   -0.45109E-04  3376   0.908E-03    0.111E-01
RMM:   5    -0.230971535362E+04    0.14487E-03   -0.22194E-04  3132   0.751E-03    0.395E-02
RMM:   6    -0.230971534480E+04    0.88188E-05   -0.40574E-05  2795   0.444E-03
  10 F= -.23309450E+04 E0= -.23309450E+04  d E =-.495479E-05  mag=     3.0000
       N       E                     dE             d eps       ncg     rms          rms(c)
DAV:   1    -0.230971604436E+04   -0.69075E-03   -0.10491E+00  4440   0.473E-01    0.295E-01
RMM:   2    -0.230971640661E+04   -0.36225E-03   -0.94328E-03  5479   0.493E-02    0.347E-01
RMM:   3    -0.230971642271E+04   -0.16102E-04   -0.23834E-03  5144   0.213E-02    0.373E-01
RMM:   4    -0.230971542784E+04    0.99487E-03   -0.11491E-03  4835   0.142E-02    0.105E-01
RMM:   5    -0.230971536528E+04    0.62562E-04   -0.36130E-04  3251   0.889E-03    0.805E-02
RMM:   6    -0.230971527977E+04    0.85514E-04   -0.81371E-05  2927   0.629E-03    0.253E-02
RMM:   7    -0.230971527757E+04    0.22024E-05   -0.24018E-05  2858   0.306E-03
  11 F= -.23309449E+04 E0= -.23309449E+04  d E =-.533837E-05  mag=     3.0000
       N       E                     dE             d eps       ncg     rms          rms(c)
DAV:   1    -0.230972890134E+04   -0.13622E-01   -0.54339E-01  4440   0.341E-01    0.210E-01
RMM:   2    -0.230973038081E+04   -0.14795E-02   -0.58905E-03  5170   0.407E-02    0.404E-01
RMM:   3    -0.230972893915E+04    0.14417E-02   -0.13867E-03  4797   0.193E-02    0.186E-01
RMM:   4    -0.230972892778E+04    0.11369E-04   -0.69462E-04  3433   0.107E-02    0.138E-01
RMM:   5    -0.230972871246E+04    0.21532E-03   -0.32908E-04  3564   0.886E-03    0.354E-02
RMM:   6    -0.230972871295E+04   -0.49383E-06   -0.57882E-05  2833   0.496E-03
  12 F= -.23309577E+04 E0= -.23309577E+04  d E =-.457473E-05  mag=     3.0000
       N       E                     dE             d eps       ncg     rms          rms(c)
DAV:   1    -0.230969761117E+04    0.31101E-01   -0.10305E+00  4560   0.485E-01    0.316E-01
RMM:   2    -0.230970053459E+04   -0.29234E-02   -0.14116E-02  5468   0.592E-02    0.547E-01
RMM:   3    -0.230969766822E+04    0.28664E-02   -0.29525E-03  5586   0.275E-02    0.281E-01
RMM:   4    -0.230969766336E+04    0.48585E-05   -0.14612E-03  3928   0.144E-02    0.237E-01
RMM:   5    -0.230969707583E+04    0.58753E-03   -0.53229E-04  3687   0.113E-02    0.524E-02
RMM:   6    -0.230969711678E+04   -0.40951E-04   -0.18701E-04  3027   0.704E-03    0.678E-02
RMM:   7    -0.230969704907E+04    0.67709E-04   -0.55761E-05  2824   0.504E-03    0.106E-02
RMM:   8    -0.230969704778E+04    0.12892E-05   -0.88454E-06  2659   0.187E-03
  13 F= -.23309273E+04 E0= -.23309273E+04  d E =-.549981E-05  mag=     3.0000
