       N       E                     dE             d eps       ncg     rms          rms(c)
DAV:   1     0.126809105855E+05    0.12681E+05   -0.82907E+05  4448   0.143E+03
DAV:   2    -0.107320326374E+04   -0.13754E+05   -0.13174E+05  5320   0.329E+02
DAV:   3    -0.247578370259E+04   -0.14026E+04   -0.13897E+04  5360   0.110E+02
DAV:   4    -0.252155688735E+04   -0.45773E+02   -0.45558E+02  6680   0.298E+01
DAV:   5    -0.252240211669E+04   -0.84523E+00   -0.84396E+00  5608   0.327E+00    0.171E+02
RMM:   6    -0.147085313828E+04    0.10515E+04   -0.19644E+03  4401   0.387E+01    0.732E+01
RMM:   7    -0.165618090711E+04   -0.18533E+03   -0.29099E+02  4959   0.138E+01    0.508E+01
RMM:   8    -0.170435964594E+04   -0.48179E+02   -0.43569E+01  5280   0.683E+00    0.435E+01
RMM:   9    -0.177710951663E+04   -0.72750E+02   -0.61119E+01  4802   0.720E+00    0.351E+01
RMM:  10    -0.192985529777E+04   -0.15275E+03   -0.72998E+01  5276   0.834E+00    0.214E+01
RMM:  11    -0.202506285226E+04   -0.95208E+02   -0.39856E+01  5163   0.510E+00    0.165E+01
RMM:  12    -0.212098384422E+04   -0.95921E+02   -0.46721E+01  4455   0.519E+00    0.135E+01
RMM:  13    -0.224143021632E+04   -0.12045E+03   -0.99849E+01  4483   0.716E+00    0.960E+00
RMM:  14    -0.228706870637E+04   -0.45638E+02   -0.38248E+01  4478   0.490E+00    0.588E+00
RMM:  15    -0.231458316960E+04   -0.27514E+02   -0.29364E+01  4511   0.374E+00    0.276E+00
RMM:  16    -0.231762765687E+04   -0.30445E+01   -0.43056E+00  4642   0.216E+00    0.182E+00
RMM:  17    -0.231894478290E+04   -0.13171E+01   -0.17987E+00  4691   0.697E-01    0.158E+00
RMM:  18    -0.231944832511E+04   -0.50354E+00   -0.50980E-01  4609   0.623E-01    0.123E+00
RMM:  19    -0.231973164379E+04   -0.28332E+00   -0.18238E-01  4657   0.284E-01    0.100E+00
RMM:  20    -0.231985918098E+04   -0.12754E+00   -0.82102E-02  4697   0.224E-01    0.598E-01
RMM:  21    -0.231988064397E+04   -0.21463E-01   -0.23463E-02  4895   0.118E-01    0.415E-01
RMM:  22    -0.231989294620E+04   -0.12302E-01   -0.87656E-03  4550   0.736E-02    0.205E-01
RMM:  23    -0.231989975933E+04   -0.68131E-02   -0.27429E-03  4515   0.405E-02    0.110E-01
RMM:  24    -0.231990339587E+04   -0.36365E-02   -0.11743E-03  4312   0.275E-02    0.788E-02
RMM:  25    -0.231990687671E+04   -0.34808E-02   -0.85754E-04  4064   0.203E-02    0.860E-02
RMM:  26    -0.231990993684E+04   -0.30601E-02   -0.80221E-04  4070   0.197E-02    0.255E-02
RMM:  27    -0.231991098666E+04   -0.10498E-02   -0.38289E-04  4199   0.157E-02    0.243E-02
RMM:  28    -0.231991128921E+04   -0.30255E-03   -0.10235E-04  3850   0.742E-03    0.848E-03
RMM:  29    -0.231991145798E+04   -0.16877E-03   -0.30570E-05  3211   0.533E-03    0.621E-03
RMM:  30    -0.231991153440E+04   -0.76412E-04   -0.11805E-05  2860   0.358E-03    0.390E-03
RMM:  31    -0.231991161322E+04   -0.78819E-04   -0.14610E-05  2953   0.336E-03    0.267E-03
RMM:  32    -0.231991164404E+04   -0.30824E-04   -0.85343E-06  2805   0.319E-03    0.134E-03
RMM:  33    -0.231991164960E+04   -0.55642E-05   -0.41265E-06  2417   0.241E-03
   1 F= -.23404256E+04 E0= -.23404256E+04  d E =-.234043E+04  mag=     5.0000
       N       E                     dE             d eps       ncg     rms          rms(c)
DAV:   1    -0.232044847972E+04   -0.53684E+00   -0.28910E+01  4720   0.321E+00    0.126E+00
RMM:   2    -0.232054677614E+04   -0.98296E-01   -0.12065E+00  5816   0.549E-01    0.103E+00
RMM:   3    -0.232055351041E+04   -0.67343E-02   -0.11467E-01  5355   0.206E-01    0.142E+00
RMM:   4    -0.232054173137E+04    0.11779E-01   -0.22532E-02  5416   0.693E-02    0.478E-01
RMM:   5    -0.232053958325E+04    0.21481E-02   -0.12611E-02  4975   0.569E-02    0.156E-01
RMM:   6    -0.232053948456E+04    0.98692E-04   -0.14542E-03  4778   0.293E-02    0.124E-01
RMM:   7    -0.232053938211E+04    0.10245E-03   -0.38087E-04  4046   0.105E-02    0.408E-02
RMM:   8    -0.232053936358E+04    0.18528E-04   -0.70491E-05  3042   0.721E-03    0.186E-02
RMM:   9    -0.232053935691E+04    0.66716E-05   -0.31124E-05  2976   0.489E-03
   2 F= -.23410512E+04 E0= -.23410512E+04  d E =-.625575E+00  mag=     5.0000
       N       E                     dE             d eps       ncg     rms          rms(c)
DAV:   1    -0.232060005936E+04   -0.60696E-01   -0.66765E+00  4624   0.155E+00    0.617E-01
RMM:   2    -0.232062214606E+04   -0.22087E-01   -0.27347E-01  5857   0.264E-01    0.498E-01
RMM:   3    -0.232062399379E+04   -0.18477E-02   -0.26664E-02  5281   0.984E-02    0.708E-01
RMM:   4    -0.232062116775E+04    0.28260E-02   -0.52901E-03  5330   0.337E-02    0.246E-01
RMM:   5    -0.232062065295E+04    0.51479E-03   -0.30366E-03  4786   0.274E-02    0.681E-02
RMM:   6    -0.232062062525E+04    0.27707E-04   -0.28269E-04  3736   0.147E-02    0.536E-02
RMM:   7    -0.232062060471E+04    0.20533E-04   -0.82489E-05  3278   0.558E-03    0.162E-02
RMM:   8    -0.232062060121E+04    0.35084E-05   -0.15318E-05  2888   0.425E-03
   3 F= -.23411316E+04 E0= -.23411316E+04  d E =-.705938E+00  mag=     5.0000
       N       E                     dE             d eps       ncg     rms          rms(c)
DAV:   1    -0.232099146043E+04   -0.37086E+00   -0.17219E+01  4496   0.315E+00    0.137E+00
RMM:   2    -0.232112278620E+04   -0.13133E+00   -0.11752E+00  5939   0.582E-01    0.242E+00
RMM:   3    -0.232110073039E+04    0.22056E-01   -0.10461E-01  5685   0.194E-01    0.104E+00
RMM:   4    -0.232109617126E+04    0.45591E-02   -0.16031E-02  4776   0.567E-02    0.387E-01
RMM:   5    -0.232109587029E+04    0.30096E-03   -0.49636E-03  5400   0.464E-02    0.380E-01
RMM:   6    -0.232109516532E+04    0.70497E-03   -0.17089E-03  5488   0.238E-02    0.825E-02
RMM:   7    -0.232109511094E+04    0.54377E-04   -0.16699E-04  3399   0.926E-03    0.334E-02
RMM:   8    -0.232109510265E+04    0.82952E-05   -0.64494E-05  3292   0.603E-03
   4 F= -.23416051E+04 E0= -.23416051E+04  d E =-.473545E+00  mag=     5.0000
       N       E                     dE             d eps       ncg     rms          rms(c)
DAV:   1    -0.232111192257E+04   -0.16812E-01   -0.59090E+01  4432   0.586E+00    0.263E+00
RMM:   2    -0.232161850362E+04   -0.50658E+00   -0.42724E+00  5922   0.109E+00    0.541E+00
RMM:   3    -0.232148963715E+04    0.12887E+00   -0.41479E-01  5706   0.380E-01    0.169E+00
RMM:   4    -0.232147804218E+04    0.11595E-01   -0.60699E-02  4802   0.107E-01    0.783E-01
RMM:   5    -0.232147779254E+04    0.24964E-03   -0.18736E-02  5412   0.857E-02    0.880E-01
RMM:   6    -0.232147384622E+04    0.39463E-02   -0.81488E-03  5752   0.477E-02    0.214E-01
RMM:   7    -0.232147353765E+04    0.30857E-03   -0.72378E-04  4471   0.169E-02    0.728E-02
RMM:   8    -0.232147351138E+04    0.26267E-04   -0.26494E-04  4192   0.101E-02    0.397E-02
RMM:   9    -0.232147351119E+04    0.19494E-06   -0.54295E-05  3052   0.741E-03
   5 F= -.23419818E+04 E0= -.23419818E+04  d E =-.850263E+00  mag=     5.0000
       N       E                     dE             d eps       ncg     rms          rms(c)
DAV:   1    -0.232169003123E+04   -0.21652E+00   -0.14839E+01  4624   0.337E+00    0.154E+00
RMM:   2    -0.232179698487E+04   -0.10695E+00   -0.10392E+00  5784   0.620E-01    0.222E+00
RMM:   3    -0.232178222126E+04    0.14764E-01   -0.10540E-01  5516   0.225E-01    0.135E+00
RMM:   4    -0.232177114824E+04    0.11073E-01   -0.16959E-02  4586   0.739E-02    0.361E-01
RMM:   5    -0.232177002941E+04    0.11188E-02   -0.68091E-03  5411   0.611E-02    0.265E-01
RMM:   6    -0.232176956815E+04    0.46126E-03   -0.14763E-03  5402   0.269E-02    0.574E-02
RMM:   7    -0.232176949216E+04    0.75982E-04   -0.21289E-04  4335   0.133E-02    0.330E-02
RMM:   8    -0.232176945582E+04    0.36343E-04   -0.82150E-05  3884   0.729E-03    0.156E-02
RMM:   9    -0.232176944361E+04    0.12215E-04   -0.20682E-05  2900   0.587E-03    0.101E-02
RMM:  10    -0.232176943756E+04    0.60436E-05   -0.14748E-05  2848   0.403E-03
   6 F= -.23422771E+04 E0= -.23422771E+04  d E =-.295224E+00  mag=     5.0000
       N       E                     dE             d eps       ncg     rms          rms(c)
DAV:   1    -0.232179297394E+04   -0.23530E-01   -0.70393E+00  4520   0.235E+00    0.104E+00
RMM:   2    -0.232184208827E+04   -0.49114E-01   -0.48373E-01  5780   0.428E-01    0.147E+00
RMM:   3    -0.232183612588E+04    0.59624E-02   -0.48940E-02  5492   0.159E-01    0.924E-01
RMM:   4    -0.232183097710E+04    0.51488E-02   -0.83635E-03  4612   0.517E-02    0.237E-01
RMM:   5    -0.232183037170E+04    0.60540E-03   -0.31843E-03  5368   0.425E-02    0.140E-01
RMM:   6    -0.232183022330E+04    0.14841E-03   -0.55756E-04  5174   0.179E-02    0.345E-02
RMM:   7    -0.232183018865E+04    0.34641E-04   -0.95726E-05  3721   0.981E-03    0.204E-02
RMM:   8    -0.232183016977E+04    0.18883E-04   -0.39822E-05  3305   0.564E-03    0.112E-02
RMM:   9    -0.232183016345E+04    0.63269E-05   -0.13139E-05  2847   0.483E-03
   7 F= -.23423374E+04 E0= -.23423374E+04  d E =-.355594E+00  mag=     5.0000
       N       E                     dE             d eps       ncg     rms          rms(c)
DAV:   1    -0.232191755248E+04   -0.87383E-01   -0.51696E+00  4496   0.164E+00    0.669E-01
RMM:   2    -0.232194487082E+04   -0.27318E-01   -0.32012E-01  5701   0.300E-01    0.433E-01
RMM:   3    -0.232194663766E+04   -0.17668E-02   -0.34160E-02  5171   0.124E-01    0.571E-01
RMM:   4    -0.232194520296E+04    0.14347E-02   -0.50660E-03  5256   0.346E-02    0.302E-01
RMM:   5    -0.232194467603E+04    0.52693E-03   -0.31328E-03  5186   0.314E-02    0.145E-01
RMM:   6    -0.232194453623E+04    0.13980E-03   -0.44336E-04  4612   0.145E-02    0.732E-02
RMM:   7    -0.232194449772E+04    0.38511E-04   -0.13004E-04  3455   0.668E-03    0.186E-02
RMM:   8    -0.232194449142E+04    0.62990E-05   -0.23684E-05  2926   0.506E-03
   8 F= -.23424518E+04 E0= -.23424518E+04  d E =-.114409E+00  mag=     5.0000
       N       E                     dE             d eps       ncg     rms          rms(c)
DAV:   1    -0.232195354127E+04   -0.90436E-02   -0.17494E+00  4592   0.965E-01    0.389E-01
RMM:   2    -0.232196275392E+04   -0.92127E-02   -0.10827E-01  5717   0.177E-01    0.251E-01
RMM:   3    -0.232196340070E+04   -0.64677E-03   -0.11803E-02  5112   0.714E-02    0.332E-01
RMM:   4    -0.232196292549E+04    0.47521E-03   -0.17166E-03  4821   0.204E-02    0.178E-01
RMM:   5    -0.232196273032E+04    0.19517E-03   -0.10493E-03  4875   0.187E-02    0.771E-02
RMM:   6    -0.232196269080E+04    0.39518E-04   -0.13709E-04  3614   0.948E-03    0.422E-02
RMM:   7    -0.232196267703E+04    0.13769E-04   -0.44111E-05  3093   0.467E-03    0.103E-02
RMM:   8    -0.232196267505E+04    0.19856E-05   -0.91985E-06  2857   0.376E-03
   9 F= -.23424701E+04 E0= -.23424701E+04  d E =-.132675E+00  mag=     5.0000
       N       E                     dE             d eps       ncg     rms          rms(c)
DAV:   1    -0.232201164033E+04   -0.48963E-01   -0.22571E+00  4512   0.116E+00    0.406E-01
RMM:   2    -0.232202027585E+04   -0.86355E-02   -0.98238E-02  5591   0.170E-01    0.260E-01
RMM:   3    -0.232202080789E+04   -0.53204E-03   -0.96287E-03  5103   0.741E-02    0.307E-01
RMM:   4    -0.232202061548E+04    0.19240E-03   -0.19262E-03  4920   0.201E-02    0.229E-01
RMM:   5    -0.232202034159E+04    0.27389E-03   -0.10281E-03  4669   0.182E-02    0.902E-02
RMM:   6    -0.232202030850E+04    0.33090E-04   -0.13990E-04  3240   0.929E-03    0.222E-02
RMM:   7    -0.232202030244E+04    0.60624E-05   -0.25446E-05  2918   0.423E-03
  10 F= -.23425279E+04 E0= -.23425279E+04  d E =-.577672E-01  mag=     5.0000
       N       E                     dE             d eps       ncg     rms          rms(c)
DAV:   1    -0.232203166775E+04   -0.11359E-01   -0.24771E+00  4528   0.120E+00    0.425E-01
RMM:   2    -0.232204115350E+04   -0.94857E-02   -0.10744E-01  5620   0.178E-01    0.279E-01
RMM:   3    -0.232204189716E+04   -0.74367E-03   -0.10711E-02  5152   0.789E-02    0.364E-01
RMM:   4    -0.232204147363E+04    0.42353E-03   -0.20160E-03  4977   0.211E-02    0.223E-01
RMM:   5    -0.232204120817E+04    0.26546E-03   -0.11391E-03  4749   0.191E-02    0.844E-02
RMM:   6    -0.232204118205E+04    0.26116E-04   -0.14876E-04  3373   0.978E-03    0.226E-02
RMM:   7    -0.232204117426E+04    0.77929E-05   -0.28632E-05  2938   0.426E-03
  11 F= -.23425489E+04 E0= -.23425489E+04  d E =-.788081E-01  mag=     5.0000
       N       E                     dE             d eps       ncg     rms          rms(c)
DAV:   1    -0.232208054863E+04   -0.39367E-01   -0.15186E+00  4616   0.105E+00    0.387E-01
RMM:   2    -0.232208996407E+04   -0.94154E-02   -0.10218E-01  5736   0.166E-01    0.245E-01
RMM:   3    -0.232209106058E+04   -0.10965E-02   -0.11273E-02  5078   0.712E-02    0.353E-01
RMM:   4    -0.232209062370E+04    0.43687E-03   -0.16512E-03  4823   0.182E-02    0.169E-01
RMM:   5    -0.232209047484E+04    0.14886E-03   -0.57928E-04  4340   0.147E-02    0.878E-02
RMM:   6    -0.232209044422E+04    0.30624E-04   -0.14560E-04  3672   0.899E-03    0.394E-02
RMM:   7    -0.232209043828E+04    0.59444E-05   -0.25315E-05  2904   0.508E-03
  12 F= -.23425983E+04 E0= -.23425983E+04  d E =-.494280E-01  mag=     5.0000
       N       E                     dE             d eps       ncg     rms          rms(c)
DAV:   1    -0.232209479482E+04   -0.43506E-02   -0.36013E+00  4520   0.163E+00    0.595E-01
RMM:   2    -0.232211720223E+04   -0.22407E-01   -0.24284E-01  5652   0.254E-01    0.385E-01
RMM:   3    -0.232211991656E+04   -0.27143E-02   -0.27398E-02  5043   0.109E-01    0.564E-01
RMM:   4    -0.232211875265E+04    0.11639E-02   -0.39043E-03  5283   0.279E-02    0.256E-01
RMM:   5    -0.232211840311E+04    0.34954E-03   -0.13864E-03  4711   0.218E-02    0.147E-01
RMM:   6    -0.232211830958E+04    0.93533E-04   -0.39943E-04  4490   0.129E-02    0.618E-02
RMM:   7    -0.232211829363E+04    0.15944E-04   -0.60571E-05  3061   0.676E-03    0.141E-02
RMM:   8    -0.232211829507E+04   -0.14364E-05   -0.18141E-05  2885   0.348E-03
  13 F= -.23426265E+04 E0= -.23426265E+04  d E =-.775820E-01  mag=     5.0000
       N       E                     dE             d eps       ncg     rms          rms(c)
DAV:   1    -0.232212703309E+04   -0.87395E-02   -0.23172E+00  4480   0.129E+00    0.531E-01
RMM:   2    -0.232214475243E+04   -0.17719E-01   -0.18975E-01  5693   0.223E-01    0.475E-01
RMM:   3    -0.232214701724E+04   -0.22648E-02   -0.22919E-02  5260   0.947E-02    0.657E-01
RMM:   4    -0.232214479074E+04    0.22265E-02   -0.30903E-03  5019   0.273E-02    0.142E-01
RMM:   5    -0.232214453777E+04    0.25297E-03   -0.11124E-03  4869   0.208E-02    0.789E-02
RMM:   6    -0.232214450337E+04    0.34400E-04   -0.27861E-04  4474   0.118E-02    0.391E-02
RMM:   7    -0.232214449535E+04    0.80230E-05   -0.39174E-05  3059   0.670E-03
  14 F= -.23426529E+04 E0= -.23426529E+04  d E =-.263626E-01  mag=     5.0000
       N       E                     dE             d eps       ncg     rms          rms(c)
DAV:   1    -0.232214413723E+04    0.36614E-03   -0.31152E-01  4784   0.474E-01    0.194E-01
RMM:   2    -0.232214653104E+04   -0.23938E-02   -0.25499E-02  5757   0.827E-02    0.180E-01
RMM:   3    -0.232214682414E+04   -0.29310E-03   -0.30624E-03  4600   0.347E-02    0.239E-01
RMM:   4    -0.232214652871E+04    0.29542E-03   -0.41595E-04  3809   0.105E-02    0.520E-02
RMM:   5    -0.232214649257E+04    0.36142E-04   -0.15477E-04  3786   0.855E-03    0.283E-02
RMM:   6    -0.232214648778E+04    0.47922E-05   -0.37210E-05  3021   0.600E-03
  15 F= -.23426549E+04 E0= -.23426549E+04  d E =-.284183E-01  mag=     5.0000
       N       E                     dE             d eps       ncg     rms          rms(c)
DAV:   1    -0.232215055877E+04   -0.40662E-02   -0.13063E+00  4448   0.879E-01    0.323E-01
RMM:   2    -0.232216045578E+04   -0.98970E-02   -0.10163E-01  5845   0.152E-01    0.383E-01
RMM:   3    -0.232216106494E+04   -0.60916E-03   -0.11765E-02  5411   0.630E-02    0.346E-01
RMM:   4    -0.232216044584E+04    0.61910E-03   -0.14579E-03  4572   0.172E-02    0.106E-01
RMM:   5    -0.232216029819E+04    0.14766E-03   -0.64687E-04  4554   0.152E-02    0.571E-02
RMM:   6    -0.232216029002E+04    0.81662E-05   -0.14051E-04  3930   0.919E-03    0.391E-02
RMM:   7    -0.232216028419E+04    0.58356E-05   -0.28181E-05  2913   0.508E-03
  16 F= -.23426691E+04 E0= -.23426691E+04  d E =-.142291E-01  mag=     5.0000
       N       E                     dE             d eps       ncg     rms          rms(c)
DAV:   1    -0.232215938840E+04    0.90162E-03   -0.36143E-01  4600   0.465E-01    0.168E-01
RMM:   2    -0.232216211321E+04   -0.27248E-02   -0.28136E-02  5844   0.804E-02    0.190E-01
RMM:   3    -0.232216231198E+04   -0.19876E-03   -0.31434E-03  4576   0.338E-02    0.187E-01
RMM:   4    -0.232216213665E+04    0.17533E-03   -0.40112E-04  3391   0.962E-03    0.576E-02
RMM:   5    -0.232216209472E+04    0.41921E-04   -0.18851E-04  3752   0.859E-03    0.341E-02
RMM:   6    -0.232216209185E+04    0.28719E-05   -0.41444E-05  3002   0.642E-03
  17 F= -.23426712E+04 E0= -.23426712E+04  d E =-.162688E-01  mag=     5.0000
       N       E                     dE             d eps       ncg     rms          rms(c)
DAV:   1    -0.232216153441E+04    0.56031E-03   -0.10225E+00  4448   0.794E-01    0.308E-01
RMM:   2    -0.232217496730E+04   -0.13433E-01   -0.13769E-01  6000   0.146E-01    0.318E-01
RMM:   3    -0.232217645197E+04   -0.14847E-02   -0.16705E-02  5458   0.626E-02    0.330E-01
RMM:   4    -0.232217604050E+04    0.41147E-03   -0.17444E-03  3908   0.150E-02    0.109E-01
RMM:   5    -0.232217594094E+04    0.99563E-04   -0.34580E-04  3566   0.981E-03    0.808E-02
RMM:   6    -0.232217591473E+04    0.26209E-04   -0.20034E-04  3712   0.850E-03    0.631E-02
RMM:   7    -0.232217589786E+04    0.16869E-04   -0.40920E-05  2904   0.592E-03    0.133E-02
RMM:   8    -0.232217589704E+04    0.82335E-06   -0.87807E-06  2846   0.290E-03
  18 F= -.23426859E+04 E0= -.23426859E+04  d E =-.147159E-01  mag=     5.0000
       N       E                     dE             d eps       ncg     rms          rms(c)
DAV:   1    -0.232208411761E+04    0.91780E-01   -0.74795E+00  4416   0.214E+00    0.835E-01
RMM:   2    -0.232218409488E+04   -0.99977E-01   -0.10227E+00  5893   0.394E-01    0.914E-01
RMM:   3    -0.232219403791E+04   -0.99430E-02   -0.12934E-01  5599   0.173E-01    0.843E-01
RMM:   4    -0.232219134138E+04    0.26965E-02   -0.12452E-02  5272   0.396E-02    0.294E-01
RMM:   5    -0.232219058649E+04    0.75489E-03   -0.26380E-03  4770   0.246E-02    0.216E-01
RMM:   6    -0.232219035998E+04    0.22651E-03   -0.15377E-03  4805   0.193E-02    0.165E-01
RMM:   7    -0.232219024161E+04    0.11837E-03   -0.29482E-04  3978   0.126E-02    0.389E-02
RMM:   8    -0.232219023495E+04    0.66589E-05   -0.47576E-05  2937   0.468E-03
  19 F= -.23427027E+04 E0= -.23427027E+04  d E =-.315258E-01  mag=     5.0000
       N       E                     dE             d eps       ncg     rms          rms(c)
DAV:   1    -0.232219087571E+04   -0.63410E-03   -0.48875E-01  4584   0.540E-01    0.219E-01
RMM:   2    -0.232219815621E+04   -0.72805E-02   -0.75255E-02  6108   0.105E-01    0.173E-01
RMM:   3    -0.232219903939E+04   -0.88318E-03   -0.87671E-03  4873   0.469E-02    0.208E-01
RMM:   4    -0.232219890379E+04    0.13560E-03   -0.91716E-04  3123   0.105E-02    0.846E-02
RMM:   5    -0.232219885478E+04    0.49014E-04   -0.15316E-04  2990   0.664E-03    0.596E-02
RMM:   6    -0.232219883493E+04    0.19851E-04   -0.10824E-04  3276   0.628E-03    0.436E-02
RMM:   7    -0.232219882808E+04    0.68449E-05   -0.21399E-05  2864   0.509E-03
  20 F= -.23427119E+04 E0= -.23427119E+04  d E =-.916225E-02  mag=     5.0000
       N       E                     dE             d eps       ncg     rms          rms(c)
DAV:   1    -0.232214488485E+04    0.53950E-01   -0.43715E+00  4416   0.162E+00    0.661E-01
RMM:   2    -0.232221059960E+04   -0.65715E-01   -0.67798E-01  5965   0.316E-01    0.590E-01
RMM:   3    -0.232221870205E+04   -0.81024E-02   -0.84410E-02  5579   0.140E-01    0.674E-01
RMM:   4    -0.232221703883E+04    0.16632E-02   -0.83339E-03  5350   0.310E-02    0.247E-01
RMM:   5    -0.232221657069E+04    0.46814E-03   -0.14282E-03  4358   0.170E-02    0.170E-01
RMM:   6    -0.232221634820E+04    0.22249E-03   -0.98773E-04  4679   0.151E-02    0.107E-01
RMM:   7    -0.232221629512E+04    0.53078E-04   -0.17185E-04  3713   0.109E-02    0.243E-02
RMM:   8    -0.232221629274E+04    0.23759E-05   -0.34852E-05  2924   0.423E-03
  21 F= -.23427310E+04 E0= -.23427310E+04  d E =-.283115E-01  mag=     5.0000
       N       E                     dE             d eps       ncg     rms          rms(c)
DAV:   1    -0.232192303822E+04    0.29326E+00   -0.17381E+01  4416   0.324E+00    0.133E+00
RMM:   2    -0.232219300279E+04   -0.26996E+00   -0.27641E+00  5967   0.641E-01    0.127E+00
RMM:   3    -0.232222425314E+04   -0.31250E-01   -0.34804E-01  5707   0.265E-01    0.136E+00
RMM:   4    -0.232221702835E+04    0.72248E-02   -0.32697E-02  5673   0.618E-02    0.497E-01
RMM:   5    -0.232221508293E+04    0.19454E-02   -0.59677E-03  5050   0.328E-02    0.324E-01
RMM:   6    -0.232221415148E+04    0.93145E-03   -0.39149E-03  4819   0.287E-02    0.183E-01
RMM:   7    -0.232221400267E+04    0.14881E-03   -0.69460E-04  4555   0.206E-02    0.500E-02
RMM:   8    -0.232221399734E+04    0.53329E-05   -0.14221E-04  3507   0.694E-03    0.262E-02
RMM:   9    -0.232221398793E+04    0.94019E-05   -0.32100E-05  2891   0.522E-03
  22 F= -.23427320E+04 E0= -.23427320E+04  d E =-.292490E-01  mag=     5.0000
       N       E                     dE             d eps       ncg     rms          rms(c)
DAV:   1    -0.232215426983E+04    0.59728E-01   -0.41061E+00  4416   0.158E+00    0.628E-01
RMM:   2    -0.232221502436E+04   -0.60755E-01   -0.63253E-01  5946   0.304E-01    0.378E-01
RMM:   3    -0.232222196571E+04   -0.69414E-02   -0.74926E-02  5445   0.135E-01    0.350E-01
RMM:   4    -0.232222214277E+04   -0.17707E-03   -0.74988E-03  5127   0.265E-02    0.303E-01
RMM:   5    -0.232222157320E+04    0.56958E-03   -0.13161E-03  4680   0.162E-02    0.157E-01
RMM:   6    -0.232222142239E+04    0.15081E-03   -0.78475E-04  4736   0.137E-02    0.105E-01
RMM:   7    -0.232222136061E+04    0.61785E-04   -0.10973E-04  3012   0.915E-03    0.208E-02
RMM:   8    -0.232222136071E+04   -0.10536E-06   -0.29530E-05  2907   0.374E-03
  23 F= -.23427378E+04 E0= -.23427378E+04  d E =-.350693E-01  mag=     5.0000
       N       E                     dE             d eps       ncg     rms          rms(c)
DAV:   1    -0.232219151006E+04    0.29851E-01   -0.27465E+00  4416   0.124E+00    0.515E-01
RMM:   2    -0.232223417387E+04   -0.42664E-01   -0.44391E-01  6007   0.252E-01    0.306E-01
RMM:   3    -0.232223889937E+04   -0.47255E-02   -0.53599E-02  5419   0.107E-01    0.251E-01
RMM:   4    -0.232223899661E+04   -0.97237E-04   -0.49881E-03  4547   0.223E-02    0.231E-01
RMM:   5    -0.232223871328E+04    0.28333E-03   -0.76039E-04  3503   0.122E-02    0.152E-01
RMM:   6    -0.232223850366E+04    0.20961E-03   -0.64317E-04  4410   0.122E-02    0.562E-02
RMM:   7    -0.232223849131E+04    0.12354E-04   -0.92766E-05  3192   0.912E-03    0.332E-02
RMM:   8    -0.232223848579E+04    0.55141E-05   -0.25931E-05  2930   0.411E-03
  24 F= -.23427559E+04 E0= -.23427559E+04  d E =-.180904E-01  mag=     5.0000
       N       E                     dE             d eps       ncg     rms          rms(c)
DAV:   1    -0.232207247069E+04    0.16602E+00   -0.10262E+01  4424   0.240E+00    0.100E+00
RMM:   2    -0.232223400416E+04   -0.16153E+00   -0.16857E+00  6009   0.499E-01    0.588E-01
RMM:   3    -0.232225253906E+04   -0.18535E-01   -0.21194E-01  5478   0.198E-01    0.465E-01
RMM:   4    -0.232225271496E+04   -0.17590E-03   -0.18738E-02  5310   0.432E-02    0.426E-01
RMM:   5    -0.232225189338E+04    0.82158E-03   -0.27175E-03  4555   0.206E-02    0.322E-01
RMM:   6    -0.232225099550E+04    0.89788E-03   -0.25787E-03  4899   0.228E-02    0.105E-01
RMM:   7    -0.232225095125E+04    0.44244E-04   -0.48092E-04  4284   0.147E-02    0.715E-02
RMM:   8    -0.232225092924E+04    0.22011E-04   -0.10279E-04  3335   0.673E-03    0.277E-02
RMM:   9    -0.232225092182E+04    0.74192E-05   -0.28057E-05  2885   0.504E-03
  25 F= -.23427701E+04 E0= -.23427701E+04  d E =-.322979E-01  mag=     5.0000
       N       E                     dE             d eps       ncg     rms          rms(c)
DAV:   1    -0.232217746469E+04    0.73465E-01   -0.46522E+00  4432   0.157E+00    0.679E-01
RMM:   2    -0.232226179218E+04   -0.84327E-01   -0.87759E-01  6186   0.344E-01    0.437E-01
RMM:   3    -0.232227255577E+04   -0.10764E-01   -0.10811E-01  5579   0.136E-01    0.623E-01
RMM:   4    -0.232227154750E+04    0.10083E-02   -0.96603E-03  4921   0.284E-02    0.279E-01
RMM:   5    -0.232227092260E+04    0.62490E-03   -0.11899E-03  4037   0.145E-02    0.160E-01
RMM:   6    -0.232227062668E+04    0.29592E-03   -0.15338E-03  4478   0.173E-02    0.681E-02
RMM:   7    -0.232227058776E+04    0.38919E-04   -0.23429E-04  3757   0.119E-02    0.310E-02
RMM:   8    -0.232227058554E+04    0.22223E-05   -0.42079E-05  2980   0.470E-03
  26 F= -.23427909E+04 E0= -.23427909E+04  d E =-.207775E-01  mag=     5.0000
       N       E                     dE             d eps       ncg     rms          rms(c)
DAV:   1    -0.232203948747E+04    0.23110E+00   -0.12016E+01  4432   0.252E+00    0.110E+00
RMM:   2    -0.232226059737E+04   -0.22111E+00   -0.23025E+00  6173   0.559E-01    0.736E-01
RMM:   3    -0.232228929149E+04   -0.28694E-01   -0.28760E-01  5634   0.212E-01    0.107E+00
RMM:   4    -0.232228596578E+04    0.33257E-02   -0.25238E-02  5534   0.460E-02    0.456E-01
RMM:   5    -0.232228431854E+04    0.16472E-02   -0.32662E-03  4772   0.224E-02    0.270E-01
RMM:   6    -0.232228347233E+04    0.84621E-03   -0.40698E-03  4734   0.267E-02    0.126E-01
RMM:   7    -0.232228334989E+04    0.12244E-03   -0.72541E-04  4432   0.181E-02    0.585E-02
RMM:   8    -0.232228334274E+04    0.71506E-05   -0.11879E-04  3407   0.695E-03    0.287E-02
RMM:   9    -0.232228333622E+04    0.65212E-05   -0.30489E-05  2901   0.540E-03
  27 F= -.23428052E+04 E0= -.23428052E+04  d E =-.351393E-01  mag=     5.0000
       N       E                     dE             d eps       ncg     rms          rms(c)
DAV:   1    -0.232217695008E+04    0.10639E+00   -0.58103E+00  4472   0.176E+00    0.813E-01
RMM:   2    -0.232228601138E+04   -0.10906E+00   -0.11466E+00  6089   0.408E-01    0.506E-01
RMM:   3    -0.232230014618E+04   -0.14135E-01   -0.14567E-01  5510   0.163E-01    0.677E-01
RMM:   4    -0.232229897382E+04    0.11724E-02   -0.12950E-02  5299   0.343E-02    0.349E-01
RMM:   5    -0.232229803152E+04    0.94230E-03   -0.17225E-03  4574   0.183E-02    0.178E-01
RMM:   6    -0.232229763844E+04    0.39308E-03   -0.19681E-03  4791   0.206E-02    0.841E-02
RMM:   7    -0.232229756650E+04    0.71938E-04   -0.30007E-04  4376   0.131E-02    0.332E-02
RMM:   8    -0.232229755970E+04    0.68009E-05   -0.53708E-05  3157   0.531E-03
  28 F= -.23428205E+04 E0= -.23428205E+04  d E =-.152722E-01  mag=     5.0000
       N       E                     dE             d eps       ncg     rms          rms(c)
DAV:   1    -0.232229053719E+04    0.70293E-02   -0.35852E-01  4728   0.439E-01    0.202E-01
RMM:   2    -0.232229724843E+04   -0.67112E-02   -0.70785E-02  6195   0.999E-02    0.111E-01
RMM:   3    -0.232229796632E+04   -0.71789E-03   -0.74478E-03  4543   0.388E-02    0.119E-01
RMM:   4    -0.232229798112E+04   -0.14801E-04   -0.77513E-04  2950   0.870E-03    0.929E-02
RMM:   5    -0.232229791974E+04    0.61382E-04   -0.92234E-05  2912   0.537E-03    0.381E-02
RMM:   6    -0.232229789990E+04    0.19840E-04   -0.92310E-05  3217   0.573E-03    0.135E-02
RMM:   7    -0.232229789712E+04    0.27739E-05   -0.13174E-05  2848   0.502E-03
  29 F= -.23428211E+04 E0= -.23428211E+04  d E =-.158456E-01  mag=     5.0000
       N       E                     dE             d eps       ncg     rms          rms(c)
DAV:   1    -0.232221805509E+04    0.79845E-01   -0.40753E+00  4440   0.135E+00    0.650E-01
RMM:   2    -0.232230000527E+04   -0.81950E-01   -0.85749E-01  6289   0.323E-01    0.433E-01
RMM:   3    -0.232230995977E+04   -0.99545E-02   -0.99556E-02  5567   0.124E-01    0.556E-01
RMM:   4    -0.232230923792E+04    0.72185E-03   -0.94022E-03  4618   0.268E-02    0.272E-01
RMM:   5    -0.232230867284E+04    0.56508E-03   -0.94829E-04  3701   0.132E-02    0.144E-01
RMM:   6    -0.232230841824E+04    0.25460E-03   -0.12048E-03  4419   0.150E-02    0.674E-02
RMM:   7    -0.232230838528E+04    0.32963E-04   -0.19838E-04  3471   0.103E-02    0.281E-02
RMM:   8    -0.232230838649E+04   -0.12099E-05   -0.32649E-05  2940   0.476E-03
  30 F= -.23428323E+04 E0= -.23428323E+04  d E =-.111939E-01  mag=     5.0000
       N       E                     dE             d eps       ncg     rms          rms(c)
DAV:   1    -0.232224329768E+04    0.65088E-01   -0.30441E+00  4424   0.117E+00    0.562E-01
RMM:   2    -0.232230448750E+04   -0.61190E-01   -0.64083E-01  6205   0.279E-01    0.360E-01
RMM:   3    -0.232231174506E+04   -0.72576E-02   -0.73628E-02  5534   0.105E-01    0.436E-01
RMM:   4    -0.232231143835E+04    0.30671E-03   -0.69783E-03  4189   0.226E-02    0.239E-01
RMM:   5    -0.232231101426E+04    0.42408E-03   -0.71905E-04  3479   0.116E-02    0.124E-01
RMM:   6    -0.232231082688E+04    0.18738E-03   -0.86883E-04  4324   0.130E-02    0.574E-02
RMM:   7    -0.232231080336E+04    0.23523E-04   -0.13763E-04  3240   0.915E-03    0.228E-02
RMM:   8    -0.232231080432E+04   -0.96316E-06   -0.24693E-05  2915   0.435E-03
  31 F= -.23428352E+04 E0= -.23428352E+04  d E =-.141082E-01  mag=     5.0000
       N       E                     dE             d eps       ncg     rms          rms(c)
DAV:   1    -0.232220424807E+04    0.10656E+00   -0.49866E+00  4424   0.151E+00    0.723E-01
RMM:   2    -0.232231089223E+04   -0.10664E+00   -0.11072E+00  6235   0.359E-01    0.595E-01
RMM:   3    -0.232232400447E+04   -0.13112E-01   -0.13385E-01  5626   0.144E-01    0.730E-01
RMM:   4    -0.232232228550E+04    0.17190E-02   -0.12189E-02  5051   0.313E-02    0.280E-01
RMM:   5    -0.232232163679E+04    0.64871E-03   -0.13926E-03  4078   0.151E-02    0.164E-01
RMM:   6    -0.232232134595E+04    0.29084E-03   -0.13378E-03  4456   0.157E-02    0.942E-02
RMM:   7    -0.232232130414E+04    0.41814E-04   -0.27430E-04  3792   0.121E-02    0.445E-02
RMM:   8    -0.232232130180E+04    0.23313E-05   -0.51456E-05  2996   0.516E-03
  32 F= -.23428465E+04 E0= -.23428465E+04  d E =-.113164E-01  mag=     5.0000
       N       E                     dE             d eps       ncg     rms          rms(c)
DAV:   1    -0.232225817987E+04    0.63124E-01   -0.27677E+00  4472   0.113E+00    0.537E-01
RMM:   2    -0.232231716954E+04   -0.58990E-01   -0.61282E-01  6195   0.266E-01    0.429E-01
RMM:   3    -0.232232437325E+04   -0.72037E-02   -0.72033E-02  5544   0.105E-01    0.538E-01
RMM:   4    -0.232232344470E+04    0.92855E-03   -0.67560E-03  4414   0.231E-02    0.205E-01
RMM:   5    -0.232232309215E+04    0.35256E-03   -0.74105E-04  3606   0.115E-02    0.120E-01
RMM:   6    -0.232232294012E+04    0.15203E-03   -0.76590E-04  4251   0.122E-02    0.649E-02
RMM:   7    -0.232232291916E+04    0.20959E-04   -0.13866E-04  3220   0.945E-03    0.288E-02
RMM:   8    -0.232232291923E+04   -0.68263E-07   -0.28241E-05  2910   0.435E-03
  33 F= -.23428486E+04 E0= -.23428486E+04  d E =-.134299E-01  mag=     5.0000
       N       E                     dE             d eps       ncg     rms          rms(c)
DAV:   1    -0.232221685851E+04    0.10606E+00   -0.46864E+00  4424   0.148E+00    0.714E-01
RMM:   2    -0.232232168461E+04   -0.10483E+00   -0.10916E+00  6174   0.355E-01    0.586E-01
RMM:   3    -0.232233453047E+04   -0.12846E-01   -0.13197E-01  5610   0.144E-01    0.711E-01
RMM:   4    -0.232233298227E+04    0.15482E-02   -0.12172E-02  5089   0.310E-02    0.279E-01
RMM:   5    -0.232233234207E+04    0.64019E-03   -0.12833E-03  3937   0.145E-02    0.159E-01
RMM:   6    -0.232233205943E+04    0.28264E-03   -0.12761E-03  4453   0.154E-02    0.984E-02
RMM:   7    -0.232233201114E+04    0.48291E-04   -0.28298E-04  3812   0.120E-02    0.423E-02
RMM:   8    -0.232233200850E+04    0.26402E-05   -0.48569E-05  2987   0.508E-03
  34 F= -.23428582E+04 E0= -.23428582E+04  d E =-.958772E-02  mag=     5.0000
       N       E                     dE             d eps       ncg     rms          rms(c)
DAV:   1    -0.232226353299E+04    0.68478E-01   -0.28682E+00  4456   0.115E+00    0.557E-01
RMM:   2    -0.232232727550E+04   -0.63743E-01   -0.66469E-01  6165   0.275E-01    0.434E-01
RMM:   3    -0.232233505072E+04   -0.77752E-02   -0.78515E-02  5523   0.110E-01    0.539E-01
RMM:   4    -0.232233419919E+04    0.85153E-03   -0.73066E-03  4499   0.239E-02    0.219E-01
RMM:   5    -0.232233381762E+04    0.38157E-03   -0.75099E-04  3512   0.114E-02    0.122E-01
RMM:   6    -0.232233364951E+04    0.16810E-03   -0.78191E-04  4286   0.124E-02    0.741E-02
RMM:   7    -0.232233362220E+04    0.27318E-04   -0.15460E-04  3297   0.965E-03    0.302E-02
RMM:   8    -0.232233362159E+04    0.60596E-06   -0.29826E-05  2908   0.448E-03
  35 F= -.23428601E+04 E0= -.23428601E+04  d E =-.114826E-01  mag=     5.0000
       N       E                     dE             d eps       ncg     rms          rms(c)
DAV:   1    -0.232225500183E+04    0.78620E-01   -0.37211E+00  4432   0.134E+00    0.614E-01
RMM:   2    -0.232233334837E+04   -0.78347E-01   -0.81991E-01  6127   0.314E-01    0.460E-01
RMM:   3    -0.232234254083E+04   -0.91925E-02   -0.93313E-02  5567   0.124E-01    0.564E-01
RMM:   4    -0.232234171931E+04    0.82152E-03   -0.88992E-03  4884   0.265E-02    0.259E-01
RMM:   5    -0.232234121079E+04    0.50852E-03   -0.94702E-04  3701   0.131E-02    0.141E-01
RMM:   6    -0.232234097189E+04    0.23890E-03   -0.11015E-03  4441   0.150E-02    0.802E-02
RMM:   7    -0.232234093292E+04    0.38968E-04   -0.20444E-04  3651   0.113E-02    0.323E-02
RMM:   8    -0.232234093044E+04    0.24837E-05   -0.37723E-05  2938   0.484E-03
  36 F= -.23428675E+04 E0= -.23428675E+04  d E =-.738629E-02  mag=     5.0000
       N       E                     dE             d eps       ncg     rms          rms(c)
DAV:   1    -0.232233370692E+04    0.72260E-02   -0.33300E-01  4640   0.401E-01    0.183E-01
RMM:   2    -0.232234068784E+04   -0.69809E-02   -0.73312E-02  6208   0.924E-02    0.114E-01
RMM:   3    -0.232234140091E+04   -0.71306E-03   -0.72148E-03  4090   0.371E-02    0.119E-01
RMM:   4    -0.232234140270E+04   -0.17862E-05   -0.76716E-04  3003   0.817E-03    0.802E-02
RMM:   5    -0.232234135654E+04    0.46159E-04   -0.73196E-05  2881   0.466E-03    0.387E-02
RMM:   6    -0.232234133912E+04    0.17415E-04   -0.90321E-05  3061   0.505E-03    0.174E-02
RMM:   7    -0.232234133758E+04    0.15459E-05   -0.12361E-05  2844   0.422E-03
  37 F= -.23428679E+04 E0= -.23428679E+04  d E =-.779695E-02  mag=     5.0000
       N       E                     dE             d eps       ncg     rms          rms(c)
DAV:   1    -0.232230551570E+04    0.35823E-01   -0.18862E+00  4448   0.101E+00    0.434E-01
RMM:   2    -0.232234430356E+04   -0.38788E-01   -0.40517E-01  6081   0.224E-01    0.305E-01
RMM:   3    -0.232234844299E+04   -0.41394E-02   -0.41733E-02  5487   0.900E-02    0.369E-01
RMM:   4    -0.232234812221E+04    0.32078E-03   -0.42262E-03  3989   0.186E-02    0.175E-01
RMM:   5    -0.232234787989E+04    0.24232E-03   -0.45047E-04  3325   0.103E-02    0.960E-02
RMM:   6    -0.232234777852E+04    0.10137E-03   -0.52307E-04  4231   0.113E-02    0.515E-02
RMM:   7    -0.232234776442E+04    0.14101E-04   -0.76091E-05  2996   0.883E-03    0.188E-02
RMM:   8    -0.232234776573E+04   -0.13074E-05   -0.18353E-05  2875   0.378E-03
  38 F= -.23428743E+04 E0= -.23428743E+04  d E =-.645041E-02  mag=     5.0000
       N       E                     dE             d eps       ncg     rms          rms(c)
DAV:   1    -0.232231467169E+04    0.33093E-01   -0.15606E+00  4424   0.922E-01    0.394E-01
RMM:   2    -0.232234670869E+04   -0.32037E-01   -0.33502E-01  5991   0.203E-01    0.261E-01
RMM:   3    -0.232234999780E+04   -0.32891E-02   -0.33814E-02  5413   0.814E-02    0.291E-01
RMM:   4    -0.232234988843E+04    0.10937E-03   -0.34548E-03  3676   0.165E-02    0.165E-01
RMM:   5    -0.232234968253E+04    0.20590E-03   -0.36443E-04  3214   0.944E-03    0.884E-02
RMM:   6    -0.232234959876E+04    0.83762E-04   -0.42789E-04  4169   0.103E-02    0.470E-02
RMM:   7    -0.232234958692E+04    0.11845E-04   -0.60401E-05  2948   0.812E-03    0.160E-02
RMM:   8    -0.232234958846E+04   -0.15424E-05   -0.15473E-05  2874   0.354E-03
  39 F= -.23428761E+04 E0= -.23428761E+04  d E =-.825086E-02  mag=     5.0000
       N       E                     dE             d eps       ncg     rms          rms(c)
DAV:   1    -0.232232699611E+04    0.22591E-01   -0.11987E+00  4456   0.793E-01    0.342E-01
RMM:   2    -0.232235229669E+04   -0.25301E-01   -0.26498E-01  6088   0.174E-01    0.226E-01
RMM:   3    -0.232235491958E+04   -0.26229E-02   -0.26523E-02  5238   0.773E-02    0.242E-01
RMM:   4    -0.232235488314E+04    0.36440E-04   -0.27212E-03  3313   0.144E-02    0.141E-01
RMM:   5    -0.232235473867E+04    0.14447E-03   -0.25718E-04  3013   0.793E-03    0.782E-02
RMM:   6    -0.232235467772E+04    0.60955E-04   -0.29514E-04  3889   0.845E-03    0.430E-02
RMM:   7    -0.232235466866E+04    0.90644E-05   -0.45657E-05  2902   0.663E-03
  40 F= -.23428811E+04 E0= -.23428811E+04  d E =-.495465E-02  mag=     5.0000
       N       E                     dE             d eps       ncg     rms          rms(c)
DAV:   1    -0.232228457366E+04    0.70104E-01   -0.31480E+00  4416   0.128E+00    0.557E-01
RMM:   2    -0.232235136957E+04   -0.66796E-01   -0.69872E-01  6153   0.284E-01    0.413E-01
RMM:   3    -0.232235874937E+04   -0.73798E-02   -0.74219E-02  5469   0.119E-01    0.487E-01
RMM:   4    -0.232235820323E+04    0.54614E-03   -0.72414E-03  4637   0.239E-02    0.224E-01
RMM:   5    -0.232235782487E+04    0.37835E-03   -0.72297E-04  3548   0.120E-02    0.130E-01
RMM:   6    -0.232235764797E+04    0.17690E-03   -0.77613E-04  4317   0.130E-02    0.758E-02
RMM:   7    -0.232235761918E+04    0.28789E-04   -0.15461E-04  3359   0.101E-02    0.292E-02
RMM:   8    -0.232235762096E+04   -0.17804E-05   -0.28998E-05  2885   0.470E-03
  41 F= -.23428838E+04 E0= -.23428838E+04  d E =-.764007E-02  mag=     5.0000
       N       E                     dE             d eps       ncg     rms          rms(c)
DAV:   1    -0.232234436972E+04    0.13249E-01   -0.81732E-01  4488   0.723E-01    0.294E-01
RMM:   2    -0.232235933654E+04   -0.14967E-01   -0.15820E-01  5890   0.148E-01    0.180E-01
RMM:   3    -0.232236084689E+04   -0.15104E-02   -0.15769E-02  5143   0.646E-02    0.200E-01
RMM:   4    -0.232236080194E+04    0.44948E-04   -0.16693E-03  3345   0.130E-02    0.126E-01
RMM:   5    -0.232236068525E+04    0.11669E-03   -0.21856E-04  3163   0.834E-03    0.615E-02
RMM:   6    -0.232236064525E+04    0.40006E-04   -0.21714E-04  4017   0.873E-03    0.322E-02
RMM:   7    -0.232236063864E+04    0.66090E-05   -0.27841E-05  2869   0.685E-03
  42 F= -.23428866E+04 E0= -.23428866E+04  d E =-.283897E-02  mag=     5.0000
       N       E                     dE             d eps       ncg     rms          rms(c)
DAV:   1    -0.232235658720E+04    0.40581E-02   -0.21858E-01  4632   0.374E-01    0.152E-01
RMM:   2    -0.232236060407E+04   -0.40169E-02   -0.42440E-02  5815   0.766E-02    0.956E-02
RMM:   3    -0.232236101695E+04   -0.41288E-03   -0.41177E-03  4066   0.377E-02    0.119E-01
RMM:   4    -0.232236098436E+04    0.32586E-04   -0.45288E-04  3022   0.746E-03    0.601E-02
RMM:   5    -0.232236095467E+04    0.29694E-04   -0.55872E-05  2895   0.469E-03    0.292E-02
RMM:   6    -0.232236094433E+04    0.10338E-04   -0.53646E-05  2982   0.497E-03    0.135E-02
RMM:   7    -0.232236094319E+04    0.11433E-05   -0.84877E-06  2839   0.431E-03
  43 F= -.23428868E+04 E0= -.23428868E+04  d E =-.304563E-02  mag=     5.0000
       N       E                     dE             d eps       ncg     rms          rms(c)
DAV:   1    -0.232235384031E+04    0.71040E-02   -0.52354E-01  4448   0.601E-01    0.229E-01
RMM:   2    -0.232236252135E+04   -0.86810E-02   -0.91289E-02  5919   0.118E-01    0.159E-01
RMM:   3    -0.232236348372E+04   -0.96237E-03   -0.94446E-03  4949   0.522E-02    0.213E-01
RMM:   4    -0.232236333256E+04    0.15116E-03   -0.99551E-04  3150   0.111E-02    0.884E-02
RMM:   5    -0.232236326676E+04    0.65795E-04   -0.14028E-04  3019   0.720E-03    0.444E-02
RMM:   6    -0.232236324866E+04    0.18108E-04   -0.13667E-04  3708   0.763E-03    0.226E-02
RMM:   7    -0.232236324624E+04    0.24154E-05   -0.15526E-05  2857   0.562E-03
  44 F= -.23428890E+04 E0= -.23428890E+04  d E =-.217846E-02  mag=     5.0000
       N       E                     dE             d eps       ncg     rms          rms(c)
DAV:   1    -0.232235327443E+04    0.99742E-02   -0.57731E-01  4448   0.632E-01    0.241E-01
RMM:   2    -0.232236285799E+04   -0.95836E-02   -0.10079E-01  5848   0.124E-01    0.166E-01
RMM:   3    -0.232236391853E+04   -0.10605E-02   -0.10430E-02  4940   0.557E-02    0.224E-01
RMM:   4    -0.232236375527E+04    0.16326E-03   -0.10960E-03  3232   0.116E-02    0.941E-02
RMM:   5    -0.232236368301E+04    0.72267E-04   -0.15570E-04  3054   0.752E-03    0.476E-02
RMM:   6    -0.232236366264E+04    0.20364E-04   -0.15456E-04  3792   0.794E-03    0.248E-02
RMM:   7    -0.232236365961E+04    0.30294E-05   -0.17566E-05  2859   0.590E-03
  45 F= -.23428893E+04 E0= -.23428893E+04  d E =-.245385E-02  mag=     5.0000
       N       E                     dE             d eps       ncg     rms          rms(c)
DAV:   1    -0.232235611286E+04    0.75498E-02   -0.54373E-01  4440   0.640E-01    0.235E-01
RMM:   2    -0.232236465047E+04   -0.85376E-02   -0.89526E-02  5830   0.122E-01    0.177E-01
RMM:   3    -0.232236560330E+04   -0.95284E-03   -0.88319E-03  4963   0.525E-02    0.250E-01
RMM:   4    -0.232236535852E+04    0.24478E-03   -0.99976E-04  3281   0.116E-02    0.844E-02
RMM:   5    -0.232236529568E+04    0.62837E-04   -0.14817E-04  3120   0.768E-03    0.436E-02
RMM:   6    -0.232236527987E+04    0.15817E-04   -0.11675E-04  3680   0.763E-03    0.222E-02
RMM:   7    -0.232236527732E+04    0.25465E-05   -0.15035E-05  2849   0.549E-03
  46 F= -.23428908E+04 E0= -.23428908E+04  d E =-.156296E-02  mag=     5.0000
       N       E                     dE             d eps       ncg     rms          rms(c)
DAV:   1    -0.232236374664E+04    0.15332E-02   -0.94693E-02  4656   0.267E-01    0.986E-02
RMM:   2    -0.232236524470E+04   -0.14981E-02   -0.15695E-02  5887   0.514E-02    0.760E-02
RMM:   3    -0.232236540967E+04   -0.16496E-03   -0.14922E-03  3511   0.230E-02    0.108E-01
RMM:   4    -0.232236536316E+04    0.46507E-04   -0.17682E-04  2908   0.577E-03    0.342E-02
RMM:   5    -0.232236535261E+04    0.10552E-04   -0.27302E-05  2871   0.367E-03    0.175E-02
RMM:   6    -0.232236535003E+04    0.25823E-05   -0.17137E-05  2880   0.359E-03
  47 F= -.23428909E+04 E0= -.23428909E+04  d E =-.161086E-02  mag=     5.0000
       N       E                     dE             d eps       ncg     rms          rms(c)
DAV:   1    -0.232236420101E+04    0.11516E-02   -0.19407E-01  4448   0.412E-01    0.148E-01
RMM:   2    -0.232236645403E+04   -0.22530E-02   -0.24328E-02  5665   0.760E-02    0.104E-01
RMM:   3    -0.232236674347E+04   -0.28944E-03   -0.27082E-03  4185   0.354E-02    0.160E-01
RMM:   4    -0.232236662580E+04    0.11767E-03   -0.28742E-04  3052   0.804E-03    0.475E-02
RMM:   5    -0.232236659877E+04    0.27030E-04   -0.79749E-05  3269   0.647E-03    0.226E-02
RMM:   6    -0.232236659441E+04    0.43639E-05   -0.25178E-05  2920   0.562E-03
  48 F= -.23428922E+04 E0= -.23428922E+04  d E =-.133176E-02  mag=     5.0000
       N       E                     dE             d eps       ncg     rms          rms(c)
DAV:   1    -0.232236610108E+04    0.49769E-03   -0.40574E-02  4672   0.189E-01    0.682E-02
RMM:   2    -0.232236658170E+04   -0.48062E-03   -0.52072E-03  6057   0.369E-02    0.470E-02
RMM:   3    -0.232236664323E+04   -0.61537E-04   -0.57983E-04  3131   0.149E-02    0.731E-02
RMM:   4    -0.232236661887E+04    0.24369E-04   -0.61218E-05  2883   0.435E-03    0.224E-02
RMM:   5    -0.232236661278E+04    0.60824E-05   -0.17871E-05  2874   0.323E-03
  49 F= -.23428923E+04 E0= -.23428923E+04  d E =-.138965E-02  mag=     5.0000
       N       E                     dE             d eps       ncg     rms          rms(c)
DAV:   1    -0.232236575575E+04    0.86311E-03   -0.18274E-01  4448   0.421E-01    0.145E-01
RMM:   2    -0.232236747915E+04   -0.17234E-02   -0.18359E-02  5841   0.754E-02    0.110E-01
RMM:   3    -0.232236771779E+04   -0.23864E-03   -0.21259E-03  4187   0.313E-02    0.170E-01
RMM:   4    -0.232236757584E+04    0.14195E-03   -0.22318E-04  2970   0.839E-03    0.397E-02
RMM:   5    -0.232236756024E+04    0.15606E-04   -0.90252E-05  3264   0.668E-03    0.206E-02
RMM:   6    -0.232236755748E+04    0.27560E-05   -0.22137E-05  2901   0.559E-03
  50 F= -.23428933E+04 E0= -.23428933E+04  d E =-.100344E-02  mag=     5.0000
       N       E                     dE             d eps       ncg     rms          rms(c)
DAV:   1    -0.232236649989E+04    0.10603E-02   -0.10227E-01  4472   0.315E-01    0.110E-01
RMM:   2    -0.232236748648E+04   -0.98659E-03   -0.10394E-02  5921   0.567E-02    0.941E-02
RMM:   3    -0.232236761867E+04   -0.13218E-03   -0.12343E-03  3758   0.236E-02    0.133E-01
RMM:   4    -0.232236752974E+04    0.88929E-04   -0.12563E-04  2911   0.667E-03    0.287E-02
RMM:   5    -0.232236752076E+04    0.89816E-05   -0.50717E-05  2945   0.518E-03
  51 F= -.23428933E+04 E0= -.23428933E+04  d E =-.101023E-02  mag=     5.0000
       N       E                     dE             d eps       ncg     rms          rms(c)
DAV:   1    -0.232236743671E+04    0.93027E-04   -0.18104E-02  4576   0.132E-01    0.460E-02
RMM:   2    -0.232236761558E+04   -0.17887E-03   -0.18129E-03  5852   0.256E-02    0.541E-02
RMM:   3    -0.232236762659E+04   -0.11016E-04   -0.20047E-04  2915   0.100E-02    0.514E-02
RMM:   4    -0.232236761217E+04    0.14421E-04   -0.20795E-05  2839   0.353E-03    0.106E-02
RMM:   5    -0.232236761005E+04    0.21205E-05   -0.81342E-06  2787   0.242E-03
  52 F= -.23428934E+04 E0= -.23428934E+04  d E =-.108158E-02  mag=     5.0000
       N       E                     dE             d eps       ncg     rms          rms(c)
DAV:   1    -0.232236712878E+04    0.48339E-03   -0.12650E-01  4448   0.352E-01    0.124E-01
RMM:   2    -0.232236848837E+04   -0.13596E-02   -0.13610E-02  5806   0.646E-02    0.158E-01
RMM:   3    -0.232236853186E+04   -0.43489E-04   -0.13921E-03  3755   0.250E-02    0.128E-01
RMM:   4    -0.232236845034E+04    0.81523E-04   -0.15832E-04  2991   0.743E-03    0.318E-02
RMM:   5    -0.232236843523E+04    0.15111E-04   -0.50574E-05  3192   0.627E-03    0.146E-02
RMM:   6    -0.232236843360E+04    0.16284E-05   -0.13861E-05  2867   0.518E-03
  53 F= -.23428942E+04 E0= -.23428942E+04  d E =-.812384E-03  mag=     5.0000
       N       E                     dE             d eps       ncg     rms          rms(c)
DAV:   1    -0.232236835954E+04    0.75687E-04   -0.91729E-03  4920   0.950E-02    0.345E-02
RMM:   2    -0.232236846500E+04   -0.10546E-03   -0.10299E-03  5505   0.193E-02    0.498E-02
RMM:   3    -0.232236846464E+04    0.35668E-06   -0.10864E-04  2873   0.808E-03    0.330E-02
RMM:   4    -0.232236845929E+04    0.53561E-05   -0.12268E-05  2858   0.273E-03
  54 F= -.23428942E+04 E0= -.23428942E+04  d E =-.835058E-03  mag=     5.0000
       N       E                     dE             d eps       ncg     rms          rms(c)
DAV:   1    -0.232236754809E+04    0.91655E-03   -0.13630E-01  4448   0.359E-01    0.130E-01
RMM:   2    -0.232236926169E+04   -0.17136E-02   -0.17426E-02  5680   0.669E-02    0.146E-01
RMM:   3    -0.232236939543E+04   -0.13374E-03   -0.19260E-03  3896   0.290E-02    0.147E-01
RMM:   4    -0.232236929324E+04    0.10219E-03   -0.19406E-04  2993   0.738E-03    0.333E-02
RMM:   5    -0.232236927886E+04    0.14378E-04   -0.57556E-05  2977   0.554E-03    0.178E-02
RMM:   6    -0.232236927700E+04    0.18658E-05   -0.19461E-05  2896   0.497E-03
  55 F= -.23428950E+04 E0= -.23428950E+04  d E =-.828247E-03  mag=     5.0000
       N       E                     dE             d eps       ncg     rms          rms(c)
DAV:   1    -0.232236813636E+04    0.11425E-02   -0.10155E-01  4448   0.310E-01    0.114E-01
RMM:   2    -0.232236945362E+04   -0.13173E-02   -0.13127E-02  5793   0.585E-02    0.149E-01
RMM:   3    -0.232236951439E+04   -0.60763E-04   -0.14836E-03  3856   0.268E-02    0.120E-01
RMM:   4    -0.232236944598E+04    0.68407E-04   -0.14273E-04  2960   0.647E-03    0.280E-02
RMM:   5    -0.232236943542E+04    0.10564E-04   -0.41229E-05  2933   0.485E-03    0.143E-02
RMM:   6    -0.232236943365E+04    0.17696E-05   -0.13130E-05  2873   0.436E-03
  56 F= -.23428952E+04 E0= -.23428952E+04  d E =-.993721E-03  mag=     5.0000
       N       E                     dE             d eps       ncg     rms          rms(c)
DAV:   1    -0.232236923008E+04    0.20534E-03   -0.86536E-02  4448   0.283E-01    0.927E-02
RMM:   2    -0.232237009979E+04   -0.86971E-03   -0.88589E-03  5900   0.508E-02    0.108E-01
RMM:   3    -0.232237015778E+04   -0.57994E-04   -0.88952E-04  3609   0.214E-02    0.103E-01
RMM:   4    -0.232237010812E+04    0.49659E-04   -0.10233E-04  2951   0.587E-03    0.252E-02
RMM:   5    -0.232237010096E+04    0.71601E-05   -0.31945E-05  2938   0.449E-03
  57 F= -.23428959E+04 E0= -.23428959E+04  d E =-.690491E-03  mag=     5.0000
       N       E                     dE             d eps       ncg     rms          rms(c)
DAV:   1    -0.232236862252E+04    0.14856E-02   -0.17547E-01  4432   0.404E-01    0.131E-01
RMM:   2    -0.232237033820E+04   -0.17157E-02   -0.17918E-02  5989   0.731E-02    0.118E-01
RMM:   3    -0.232237052776E+04   -0.18956E-03   -0.17992E-03  4116   0.283E-02    0.157E-01
RMM:   4    -0.232237041228E+04    0.11548E-03   -0.21599E-04  2987   0.797E-03    0.384E-02
RMM:   5    -0.232237039776E+04    0.14513E-04   -0.65990E-05  3094   0.611E-03    0.214E-02
RMM:   6    -0.232237039525E+04    0.25179E-05   -0.21919E-05  2915   0.530E-03
  58 F= -.23428962E+04 E0= -.23428962E+04  d E =-.101730E-02  mag=     5.0000
       N       E                     dE             d eps       ncg     rms          rms(c)
DAV:   1    -0.232237032037E+04    0.77392E-04   -0.89990E-02  4480   0.296E-01    0.971E-02
RMM:   2    -0.232237115083E+04   -0.83046E-03   -0.87573E-03  5955   0.510E-02    0.781E-02
RMM:   3    -0.232237125528E+04   -0.10445E-03   -0.83563E-04  3648   0.201E-02    0.120E-01
RMM:   4    -0.232237118646E+04    0.68817E-04   -0.10610E-04  2900   0.590E-03    0.271E-02
RMM:   5    -0.232237118104E+04    0.54204E-05   -0.33458E-05  2885   0.440E-03
  59 F= -.23428970E+04 E0= -.23428970E+04  d E =-.837547E-03  mag=     5.0000
       N       E                     dE             d eps       ncg     rms          rms(c)
DAV:   1    -0.232236636009E+04    0.48264E-02   -0.58359E-01  4416   0.755E-01    0.245E-01
RMM:   2    -0.232237166183E+04   -0.53017E-02   -0.56482E-02  5756   0.128E-01    0.168E-01
RMM:   3    -0.232237228562E+04   -0.62379E-03   -0.51438E-03  5069   0.503E-02    0.269E-01
RMM:   4    -0.232237195548E+04    0.33014E-03   -0.68115E-04  3975   0.123E-02    0.753E-02
RMM:   5    -0.232237191316E+04    0.42325E-04   -0.17821E-04  3864   0.957E-03    0.429E-02
RMM:   6    -0.232237190544E+04    0.77160E-05   -0.63938E-05  3359   0.713E-03
  60 F= -.23428979E+04 E0= -.23428979E+04  d E =-.169110E-02  mag=     5.0000
       N       E                     dE             d eps       ncg     rms          rms(c)
DAV:   1    -0.232237172155E+04    0.19160E-03   -0.88584E-02  4560   0.286E-01    0.921E-02
RMM:   2    -0.232237261187E+04   -0.89032E-03   -0.94986E-03  6111   0.515E-02    0.648E-02
RMM:   3    -0.232237271862E+04   -0.10675E-03   -0.91818E-04  3574   0.192E-02    0.999E-02
RMM:   4    -0.232237267432E+04    0.44303E-04   -0.10778E-04  2901   0.568E-03    0.318E-02
RMM:   5    -0.232237266728E+04    0.70355E-05   -0.27567E-05  2881   0.404E-03
  61 F= -.23428988E+04 E0= -.23428988E+04  d E =-.875884E-03  mag=     5.0000
       N       E                     dE             d eps       ncg     rms          rms(c)
DAV:   1    -0.232236549216E+04    0.71822E-02   -0.74597E-01  4416   0.830E-01    0.264E-01
RMM:   2    -0.232237289872E+04   -0.74066E-02   -0.79003E-02  5640   0.141E-01    0.175E-01
RMM:   3    -0.232237368437E+04   -0.78565E-03   -0.74199E-03  4952   0.606E-02    0.246E-01
RMM:   4    -0.232237344956E+04    0.23481E-03   -0.90916E-04  4190   0.131E-02    0.976E-02
RMM:   5    -0.232237338553E+04    0.64028E-04   -0.21284E-04  3890   0.102E-02    0.596E-02
RMM:   6    -0.232237336997E+04    0.15563E-04   -0.94618E-05  3706   0.773E-03    0.433E-02
RMM:   7    -0.232237336033E+04    0.96448E-05   -0.19753E-05  2857   0.574E-03
  62 F= -.23428998E+04 E0= -.23428998E+04  d E =-.189818E-02  mag=     5.0000
       N       E                     dE             d eps       ncg     rms          rms(c)
DAV:   1    -0.232237282772E+04    0.54225E-03   -0.14077E-01  4496   0.353E-01    0.113E-01
RMM:   2    -0.232237419846E+04   -0.13707E-02   -0.14509E-02  5722   0.591E-02    0.813E-02
RMM:   3    -0.232237435028E+04   -0.15182E-03   -0.13031E-03  3938   0.257E-02    0.118E-01
RMM:   4    -0.232237428971E+04    0.60574E-04   -0.16974E-04  2918   0.647E-03    0.392E-02
RMM:   5    -0.232237427975E+04    0.99618E-05   -0.39151E-05  2890   0.461E-03
  63 F= -.23429008E+04 E0= -.23429008E+04  d E =-.104536E-02  mag=     5.0000
       N       E                     dE             d eps       ncg     rms          rms(c)
DAV:   1    -0.232236250888E+04    0.11781E-01   -0.12636E+00  4448   0.106E+00    0.336E-01
RMM:   2    -0.232237462593E+04   -0.12117E-01   -0.12935E-01  5713   0.175E-01    0.197E-01
RMM:   3    -0.232237578007E+04   -0.11541E-02   -0.11960E-02  5026   0.767E-02    0.235E-01
RMM:   4    -0.232237566439E+04    0.11568E-03   -0.14854E-03  4521   0.159E-02    0.149E-01
RMM:   5    -0.232237554161E+04    0.12277E-03   -0.35025E-04  4090   0.119E-02    0.803E-02
RMM:   6    -0.232237551611E+04    0.25500E-04   -0.14592E-04  4031   0.897E-03    0.587E-02
RMM:   7    -0.232237549955E+04    0.16562E-04   -0.26845E-05  2863   0.595E-03    0.812E-03
RMM:   8    -0.232237549905E+04    0.49868E-06   -0.69955E-06  2851   0.236E-03
  64 F= -.23429024E+04 E0= -.23429024E+04  d E =-.264056E-02  mag=     5.0000
       N       E                     dE             d eps       ncg     rms          rms(c)
DAV:   1    -0.232237346959E+04    0.20300E-02   -0.34909E-01  4448   0.550E-01    0.185E-01
RMM:   2    -0.232237693505E+04   -0.34655E-02   -0.37208E-02  5481   0.935E-02    0.117E-01
RMM:   3    -0.232237730147E+04   -0.36642E-03   -0.36309E-03  4585   0.446E-02    0.162E-01
RMM:   4    -0.232237720052E+04    0.10095E-03   -0.43845E-04  3322   0.935E-03    0.716E-02
RMM:   5    -0.232237716236E+04    0.38160E-04   -0.10921E-04  3223   0.742E-03    0.406E-02
RMM:   6    -0.232237715407E+04    0.82877E-05   -0.47444E-05  3100   0.636E-03
  65 F= -.23429042E+04 E0= -.23429042E+04  d E =-.176399E-02  mag=     5.0000
       N       E                     dE             d eps       ncg     rms          rms(c)
DAV:   1    -0.232237262240E+04    0.45400E-02   -0.46736E-01  4416   0.636E-01    0.215E-01
RMM:   2    -0.232237728324E+04   -0.46608E-02   -0.50060E-02  5625   0.109E-01    0.139E-01
RMM:   3    -0.232237781465E+04   -0.53141E-03   -0.49836E-03  4918   0.505E-02    0.207E-01
RMM:   4    -0.232237763108E+04    0.18358E-03   -0.59144E-04  3481   0.108E-02    0.802E-02
RMM:   5    -0.232237757725E+04    0.53830E-04   -0.15510E-04  3793   0.844E-03    0.363E-02
RMM:   6    -0.232237756717E+04    0.10080E-04   -0.49243E-05  3169   0.685E-03    0.198E-02
RMM:   7    -0.232237756454E+04    0.26276E-05   -0.10205E-05  2846   0.472E-03
  66 F= -.23429047E+04 E0= -.23429047E+04  d E =-.229946E-02  mag=     5.0000
       N       E                     dE             d eps       ncg     rms          rms(c)
DAV:   1    -0.232237436343E+04    0.32037E-02   -0.37688E-01  4448   0.556E-01    0.189E-01
RMM:   2    -0.232237834616E+04   -0.39827E-02   -0.41823E-02  5691   0.940E-02    0.150E-01
RMM:   3    -0.232237881604E+04   -0.46988E-03   -0.40818E-03  4625   0.422E-02    0.211E-01
RMM:   4    -0.232237862167E+04    0.19437E-03   -0.50874E-04  3247   0.976E-03    0.632E-02
RMM:   5    -0.232237859272E+04    0.28951E-04   -0.11110E-04  3121   0.693E-03    0.338E-02
RMM:   6    -0.232237858970E+04    0.30201E-05   -0.40694E-05  3009   0.605E-03
  67 F= -.23429059E+04 E0= -.23429059E+04  d E =-.117127E-02  mag=     5.0000
       N       E                     dE             d eps       ncg     rms          rms(c)
DAV:   1    -0.232237041646E+04    0.81763E-02   -0.74831E-01  4416   0.784E-01    0.267E-01
RMM:   2    -0.232237831386E+04   -0.78974E-02   -0.83170E-02  5661   0.133E-01    0.202E-01
RMM:   3    -0.232237926803E+04   -0.95417E-03   -0.81575E-03  5055   0.582E-02    0.297E-01
RMM:   4    -0.232237888452E+04    0.38351E-03   -0.10061E-03  3746   0.132E-02    0.912E-02
RMM:   5    -0.232237882504E+04    0.59477E-04   -0.22301E-04  3753   0.922E-03    0.446E-02
RMM:   6    -0.232237881827E+04    0.67702E-05   -0.74783E-05  3307   0.740E-03
  68 F= -.23429063E+04 E0= -.23429063E+04  d E =-.160341E-02  mag=     5.0000
       N       E                     dE             d eps       ncg     rms          rms(c)
DAV:   1    -0.232237474197E+04    0.40831E-02   -0.51210E-01  4464   0.654E-01    0.238E-01
RMM:   2    -0.232238005162E+04   -0.53097E-02   -0.56040E-02  5822   0.115E-01    0.189E-01
RMM:   3    -0.232238071730E+04   -0.66569E-03   -0.54301E-03  5108   0.518E-02    0.282E-01
RMM:   4    -0.232238034306E+04    0.37424E-03   -0.70757E-04  3805   0.123E-02    0.719E-02
RMM:   5    -0.232238030358E+04    0.39479E-04   -0.17900E-04  3878   0.896E-03    0.340E-02
RMM:   6    -0.232238029797E+04    0.56095E-05   -0.49619E-05  3108   0.683E-03
  69 F= -.23429081E+04 E0= -.23429081E+04  d E =-.173223E-02  mag=     5.0000
       N       E                     dE             d eps       ncg     rms          rms(c)
DAV:   1    -0.232237879300E+04    0.15106E-02   -0.14364E-01  4592   0.347E-01    0.126E-01
RMM:   2    -0.232238029586E+04   -0.15029E-02   -0.15845E-02  6062   0.628E-02    0.101E-01
RMM:   3    -0.232238048171E+04   -0.18585E-03   -0.15066E-03  3951   0.250E-02    0.150E-01
RMM:   4    -0.232238037468E+04    0.10702E-03   -0.19700E-04  2941   0.727E-03    0.383E-02
RMM:   5    -0.232238036319E+04    0.11497E-04   -0.52217E-05  2919   0.522E-03    0.175E-02
RMM:   6    -0.232238036155E+04    0.16323E-05   -0.15313E-05  2886   0.467E-03
  70 F= -.23429083E+04 E0= -.23429083E+04  d E =-.192852E-02  mag=     5.0000
       N       E                     dE             d eps       ncg     rms          rms(c)
DAV:   1    -0.232237678510E+04    0.35781E-02   -0.42637E-01  4416   0.588E-01    0.225E-01
RMM:   2    -0.232238153736E+04   -0.47523E-02   -0.50179E-02  5726   0.105E-01    0.195E-01
RMM:   3    -0.232238209167E+04   -0.55431E-03   -0.52435E-03  4900   0.494E-02    0.257E-01
RMM:   4    -0.232238178470E+04    0.30698E-03   -0.59393E-04  3669   0.115E-02    0.651E-02
RMM:   5    -0.232238174986E+04    0.34840E-04   -0.16749E-04  3648   0.866E-03    0.379E-02
RMM:   6    -0.232238174555E+04    0.43022E-05   -0.55560E-05  3125   0.664E-03
  71 F= -.23429099E+04 E0= -.23429099E+04  d E =-.160810E-02  mag=     5.0000
       N       E                     dE             d eps       ncg     rms          rms(c)
DAV:   1    -0.232237913276E+04    0.26171E-02   -0.21964E-01  4448   0.422E-01    0.162E-01
RMM:   2    -0.232238161351E+04   -0.24807E-02   -0.26138E-02  6031   0.773E-02    0.146E-01
RMM:   3    -0.232238189821E+04   -0.28471E-03   -0.27256E-03  4422   0.316E-02    0.191E-01
RMM:   4    -0.232238172375E+04    0.17446E-03   -0.30036E-04  3015   0.875E-03    0.462E-02
RMM:   5    -0.232238170527E+04    0.18480E-04   -0.97125E-05  3263   0.660E-03    0.229E-02
RMM:   6    -0.232238170233E+04    0.29384E-05   -0.23192E-05  2898   0.559E-03
  72 F= -.23429100E+04 E0= -.23429100E+04  d E =-.172467E-02  mag=     5.0000
       N       E                     dE             d eps       ncg     rms          rms(c)
DAV:   1    -0.232237837963E+04    0.33256E-02   -0.41421E-01  4416   0.564E-01    0.213E-01
RMM:   2    -0.232238280056E+04   -0.44209E-02   -0.44913E-02  5779   0.985E-02    0.249E-01
RMM:   3    -0.232238305414E+04   -0.25359E-03   -0.41905E-03  4815   0.444E-02    0.224E-01
RMM:   4    -0.232238281810E+04    0.23604E-03   -0.51266E-04  3519   0.106E-02    0.579E-02
RMM:   5    -0.232238278537E+04    0.32731E-04   -0.13323E-04  3496   0.794E-03    0.261E-02
RMM:   6    -0.232238278393E+04    0.14373E-05   -0.36665E-05  3010   0.628E-03
  73 F= -.23429112E+04 E0= -.23429112E+04  d E =-.123584E-02  mag=     5.0000
       N       E                     dE             d eps       ncg     rms          rms(c)
DAV:   1    -0.232238067825E+04    0.21071E-02   -0.20516E-01  4464   0.397E-01    0.150E-01
RMM:   2    -0.232238288822E+04   -0.22100E-02   -0.22407E-02  5992   0.707E-02    0.177E-01
RMM:   3    -0.232238300407E+04   -0.11585E-03   -0.20284E-03  4175   0.284E-02    0.159E-01
RMM:   4    -0.232238288690E+04    0.11717E-03   -0.25067E-04  3036   0.804E-03    0.408E-02
RMM:   5    -0.232238287097E+04    0.15924E-04   -0.68244E-05  3085   0.593E-03    0.184E-02
RMM:   6    -0.232238287006E+04    0.91559E-06   -0.18621E-05  2907   0.520E-03
  74 F= -.23429114E+04 E0= -.23429114E+04  d E =-.142961E-02  mag=     5.0000
       N       E                     dE             d eps       ncg     rms          rms(c)
DAV:   1    -0.232238029289E+04    0.25781E-02   -0.40227E-01  4416   0.570E-01    0.231E-01
RMM:   2    -0.232238480170E+04   -0.45088E-02   -0.44227E-02  5709   0.101E-01    0.314E-01
RMM:   3    -0.232238482210E+04   -0.20398E-04   -0.43838E-03  4904   0.451E-02    0.212E-01
RMM:   4    -0.232238459987E+04    0.22223E-03   -0.53650E-04  4174   0.116E-02    0.589E-02
RMM:   5    -0.232238455610E+04    0.43772E-04   -0.13322E-04  3894   0.924E-03    0.282E-02
RMM:   6    -0.232238455179E+04    0.43142E-05   -0.39745E-05  3103   0.649E-03
  75 F= -.23429132E+04 E0= -.23429132E+04  d E =-.179145E-02  mag=     5.0000
       N       E                     dE             d eps       ncg     rms          rms(c)
DAV:   1    -0.232237958989E+04    0.49662E-02   -0.44284E-01  4416   0.598E-01    0.242E-01
RMM:   2    -0.232238455502E+04   -0.49651E-02   -0.48872E-02  5843   0.108E-01    0.325E-01
RMM:   3    -0.232238460279E+04   -0.47766E-04   -0.48332E-03  5162   0.443E-02    0.226E-01
RMM:   4    -0.232238434973E+04    0.25306E-03   -0.58673E-04  4218   0.121E-02    0.621E-02
RMM:   5    -0.232238429996E+04    0.49768E-04   -0.15308E-04  3981   0.949E-03    0.290E-02
RMM:   6    -0.232238429386E+04    0.61042E-05   -0.42149E-05  3133   0.692E-03
  76 F= -.23429131E+04 E0= -.23429131E+04  d E =-.164489E-02  mag=     5.0000
       N       E                     dE             d eps       ncg     rms          rms(c)
DAV:   1    -0.232238343331E+04    0.86666E-03   -0.11909E-01  4496   0.310E-01    0.124E-01
RMM:   2    -0.232238475653E+04   -0.13232E-02   -0.12938E-02  6056   0.571E-02    0.171E-01
RMM:   3    -0.232238475529E+04    0.12381E-05   -0.13113E-03  3730   0.230E-02    0.109E-01
RMM:   4    -0.232238469693E+04    0.58359E-04   -0.15098E-04  2988   0.705E-03    0.322E-02
RMM:   5    -0.232238468418E+04    0.12758E-04   -0.42128E-05  3076   0.568E-03    0.156E-02
RMM:   6    -0.232238468388E+04    0.29946E-06   -0.13194E-05  2865   0.505E-03
  77 F= -.23429134E+04 E0= -.23429134E+04  d E =-.197786E-02  mag=     5.0000
       N       E                     dE             d eps       ncg     rms          rms(c)
DAV:   1    -0.232238092937E+04    0.37548E-02   -0.42065E-01  4416   0.572E-01    0.241E-01
RMM:   2    -0.232238638367E+04   -0.54543E-02   -0.52342E-02  5718   0.103E-01    0.370E-01
RMM:   3    -0.232238625886E+04    0.12482E-03   -0.54848E-03  4859   0.465E-02    0.199E-01
RMM:   4    -0.232238607837E+04    0.18049E-03   -0.59518E-04  4083   0.111E-02    0.625E-02
RMM:   5    -0.232238602775E+04    0.50620E-04   -0.12698E-04  3764   0.869E-03    0.386E-02
RMM:   6    -0.232238601854E+04    0.92103E-05   -0.56578E-05  3117   0.689E-03
  78 F= -.23429149E+04 E0= -.23429149E+04  d E =-.150097E-02  mag=     5.0000
       N       E                     dE             d eps       ncg     rms          rms(c)
DAV:   1    -0.232238496048E+04    0.10673E-02   -0.87492E-02  4544   0.261E-01    0.110E-01
RMM:   2    -0.232238607310E+04   -0.11126E-02   -0.11006E-02  6102   0.503E-02    0.150E-01
RMM:   3    -0.232238609417E+04   -0.21067E-04   -0.11883E-03  3478   0.197E-02    0.101E-01
RMM:   4    -0.232238604796E+04    0.46210E-04   -0.12438E-04  2920   0.611E-03    0.289E-02
RMM:   5    -0.232238603699E+04    0.10969E-04   -0.32846E-05  2898   0.455E-03    0.137E-02
RMM:   6    -0.232238603525E+04    0.17445E-05   -0.10688E-05  2865   0.411E-03
  79 F= -.23429150E+04 E0= -.23429150E+04  d E =-.159203E-02  mag=     5.0000
       N       E                     dE             d eps       ncg     rms          rms(c)
DAV:   1    -0.232238382249E+04    0.22145E-02   -0.37458E-01  4416   0.561E-01    0.219E-01
RMM:   2    -0.232238774481E+04   -0.39223E-02   -0.36936E-02  5738   0.982E-02    0.343E-01
RMM:   3    -0.232238752845E+04    0.21636E-03   -0.36063E-03  4957   0.400E-02    0.180E-01
RMM:   4    -0.232238736605E+04    0.16239E-03   -0.43286E-04  4103   0.110E-02    0.552E-02
RMM:   5    -0.232238733076E+04    0.35298E-04   -0.10463E-04  3844   0.889E-03    0.347E-02
RMM:   6    -0.232238732479E+04    0.59716E-05   -0.39418E-05  2965   0.653E-03
  80 F= -.23429164E+04 E0= -.23429164E+04  d E =-.145194E-02  mag=     5.0000
       N       E                     dE             d eps       ncg     rms          rms(c)
DAV:   1    -0.232238224927E+04    0.50815E-02   -0.49432E-01  4432   0.645E-01    0.250E-01
RMM:   2    -0.232238733543E+04   -0.50862E-02   -0.48688E-02  5748   0.114E-01    0.367E-01
RMM:   3    -0.232238719138E+04    0.14405E-03   -0.48302E-03  5173   0.455E-02    0.218E-01
RMM:   4    -0.232238695397E+04    0.23741E-03   -0.58334E-04  4226   0.125E-02    0.635E-02
RMM:   5    -0.232238690489E+04    0.49073E-04   -0.13788E-04  4048   0.984E-03    0.355E-02
RMM:   6    -0.232238689759E+04    0.72994E-05   -0.44379E-05  3114   0.708E-03
  81 F= -.23429162E+04 E0= -.23429162E+04  d E =-.120708E-02  mag=     5.0000
       N       E                     dE             d eps       ncg     rms          rms(c)
DAV:   1    -0.232238592342E+04    0.98147E-03   -0.15792E-01  4448   0.364E-01    0.142E-01
RMM:   2    -0.232238759228E+04   -0.16689E-02   -0.15500E-02  5994   0.655E-02    0.233E-01
RMM:   3    -0.232238746240E+04    0.12988E-03   -0.15342E-03  4086   0.258E-02    0.108E-01
RMM:   4    -0.232238740227E+04    0.60130E-04   -0.17782E-04  3077   0.771E-03    0.360E-02
RMM:   5    -0.232238738896E+04    0.13314E-04   -0.50576E-05  3329   0.637E-03    0.268E-02
RMM:   6    -0.232238738637E+04    0.25817E-05   -0.19025E-05  2862   0.547E-03
  82 F= -.23429166E+04 E0= -.23429166E+04  d E =-.159375E-02  mag=     5.0000
       N       E                     dE             d eps       ncg     rms          rms(c)
DAV:   1    -0.232238554409E+04    0.18449E-02   -0.31127E-01  4432   0.506E-01    0.198E-01
RMM:   2    -0.232238902943E+04   -0.34853E-02   -0.33188E-02  5752   0.894E-02    0.304E-01
RMM:   3    -0.232238889587E+04    0.13356E-03   -0.31741E-03  4701   0.382E-02    0.168E-01
RMM:   4    -0.232238875559E+04    0.14028E-03   -0.35135E-04  3677   0.970E-03    0.499E-02
RMM:   5    -0.232238872795E+04    0.27639E-04   -0.83691E-05  3567   0.772E-03    0.325E-02
RMM:   6    -0.232238872344E+04    0.45082E-05   -0.32832E-05  2932   0.618E-03
  83 F= -.23429180E+04 E0= -.23429180E+04  d E =-.146558E-02  mag=     5.0000
       N       E                     dE             d eps       ncg     rms          rms(c)
DAV:   1    -0.232238505045E+04    0.36775E-02   -0.38107E-01  4416   0.561E-01    0.219E-01
RMM:   2    -0.232238924867E+04   -0.41982E-02   -0.40812E-02  5809   0.999E-02    0.305E-01
RMM:   3    -0.232238922565E+04    0.23019E-04   -0.39033E-03  4957   0.393E-02    0.200E-01
RMM:   4    -0.232238903012E+04    0.19553E-03   -0.43806E-04  3882   0.107E-02    0.553E-02
RMM:   5    -0.232238899608E+04    0.34040E-04   -0.10946E-04  3704   0.820E-03    0.291E-02
RMM:   6    -0.232238899262E+04    0.34619E-05   -0.33113E-05  2952   0.639E-03
  84 F= -.23429185E+04 E0= -.23429185E+04  d E =-.187618E-02  mag=     5.0000
       N       E                     dE             d eps       ncg     rms          rms(c)
DAV:   1    -0.232238678952E+04    0.22066E-02   -0.30326E-01  4448   0.489E-01    0.193E-01
RMM:   2    -0.232239060605E+04   -0.38165E-02   -0.36809E-02  5976   0.894E-02    0.286E-01
RMM:   3    -0.232239056283E+04    0.43218E-04   -0.34975E-03  4799   0.343E-02    0.167E-01
RMM:   4    -0.232239043723E+04    0.12560E-03   -0.36432E-04  3178   0.931E-03    0.508E-02
RMM:   5    -0.232239041203E+04    0.25200E-04   -0.78875E-05  3428   0.704E-03    0.290E-02
RMM:   6    -0.232239040932E+04    0.27070E-05   -0.27332E-05  2899   0.607E-03
  85 F= -.23429200E+04 E0= -.23429200E+04  d E =-.149504E-02  mag=     5.0000
       N       E                     dE             d eps       ncg     rms          rms(c)
DAV:   1    -0.232238417954E+04    0.62325E-02   -0.56793E-01  4416   0.670E-01    0.264E-01
RMM:   2    -0.232239130105E+04   -0.71215E-02   -0.68836E-02  5763   0.121E-01    0.386E-01
RMM:   3    -0.232239123987E+04    0.61184E-04   -0.65667E-03  5116   0.497E-02    0.228E-01
RMM:   4    -0.232239100663E+04    0.23324E-03   -0.68566E-04  4041   0.121E-02    0.694E-02
RMM:   5    -0.232239095608E+04    0.50555E-04   -0.13938E-04  3809   0.907E-03    0.399E-02
RMM:   6    -0.232239094910E+04    0.69757E-05   -0.54829E-05  3094   0.724E-03
  86 F= -.23429206E+04 E0= -.23429206E+04  d E =-.214295E-02  mag=     5.0000
       N       E                     dE             d eps       ncg     rms          rms(c)
DAV:   1    -0.232238789506E+04    0.30610E-02   -0.43868E-01  4416   0.612E-01    0.242E-01
RMM:   2    -0.232239291220E+04   -0.50171E-02   -0.48357E-02  5862   0.111E-01    0.332E-01
RMM:   3    -0.232239290420E+04    0.79957E-05   -0.47209E-03  5329   0.431E-02    0.219E-01
RMM:   4    -0.232239266244E+04    0.24176E-03   -0.54395E-04  4137   0.120E-02    0.596E-02
RMM:   5    -0.232239262135E+04    0.41097E-04   -0.12708E-04  3888   0.910E-03    0.279E-02
RMM:   6    -0.232239261712E+04    0.42282E-05   -0.37508E-05  3055   0.690E-03
  87 F= -.23429223E+04 E0= -.23429223E+04  d E =-.167250E-02  mag=     5.0000
       N       E                     dE             d eps       ncg     rms          rms(c)
DAV:   1    -0.232239087401E+04    0.17473E-02   -0.18544E-01  4512   0.398E-01    0.158E-01
RMM:   2    -0.232239303412E+04   -0.21601E-02   -0.20632E-02  6048   0.740E-02    0.225E-01
RMM:   3    -0.232239299928E+04    0.34841E-04   -0.19826E-03  4456   0.270E-02    0.139E-01
RMM:   4    -0.232239290032E+04    0.98958E-04   -0.22529E-04  3053   0.829E-03    0.389E-02
RMM:   5    -0.232239288161E+04    0.18710E-04   -0.59682E-05  3304   0.654E-03    0.191E-02
RMM:   6    -0.232239287859E+04    0.30282E-05   -0.17331E-05  2869   0.560E-03
  88 F= -.23429225E+04 E0= -.23429225E+04  d E =-.193610E-02  mag=     5.0000
       N       E                     dE             d eps       ncg     rms          rms(c)
DAV:   1    -0.232238805819E+04    0.48234E-02   -0.56880E-01  4416   0.670E-01    0.268E-01
RMM:   2    -0.232239498873E+04   -0.69305E-02   -0.67004E-02  5861   0.122E-01    0.381E-01
RMM:   3    -0.232239500633E+04   -0.17598E-04   -0.66868E-03  5314   0.465E-02    0.240E-01
RMM:   4    -0.232239472595E+04    0.28038E-03   -0.72852E-04  4189   0.128E-02    0.682E-02
RMM:   5    -0.232239466969E+04    0.56256E-04   -0.16392E-04  3873   0.951E-03    0.331E-02
RMM:   6    -0.232239466520E+04    0.44966E-05   -0.52939E-05  3171   0.738E-03
  89 F= -.23429243E+04 E0= -.23429243E+04  d E =-.180758E-02  mag=     5.0000
       N       E                     dE             d eps       ncg     rms          rms(c)
DAV:   1    -0.232239222577E+04    0.24439E-02   -0.22671E-01  4464   0.423E-01    0.171E-01
RMM:   2    -0.232239503065E+04   -0.28049E-02   -0.26969E-02  6097   0.791E-02    0.250E-01
RMM:   3    -0.232239500725E+04    0.23394E-04   -0.26663E-03  4728   0.284E-02    0.150E-01
RMM:   4    -0.232239489881E+04    0.10845E-03   -0.28880E-04  3101   0.860E-03    0.433E-02
RMM:   5    -0.232239487629E+04    0.22521E-04   -0.68747E-05  3248   0.655E-03    0.218E-02
RMM:   6    -0.232239487339E+04    0.29012E-05   -0.22009E-05  2890   0.572E-03
  90 F= -.23429246E+04 E0= -.23429246E+04  d E =-.202583E-02  mag=     5.0000
       N       E                     dE             d eps       ncg     rms          rms(c)
DAV:   1    -0.232238804151E+04    0.68348E-02   -0.73246E-01  4416   0.768E-01    0.304E-01
RMM:   2    -0.232239663468E+04   -0.85932E-02   -0.84120E-02  5851   0.141E-01    0.401E-01
RMM:   3    -0.232239683625E+04   -0.20157E-03   -0.81926E-03  5398   0.529E-02    0.293E-01
RMM:   4    -0.232239639873E+04    0.43752E-03   -0.93691E-04  4397   0.148E-02    0.774E-02
RMM:   5    -0.232239632981E+04    0.68925E-04   -0.22264E-04  4069   0.108E-02    0.351E-02
RMM:   6    -0.232239632425E+04    0.55584E-05   -0.66932E-05  3545   0.802E-03
  91 F= -.23429261E+04 E0= -.23429261E+04  d E =-.152851E-02  mag=     5.0000
       N       E                     dE             d eps       ncg     rms          rms(c)
DAV:   1    -0.232239515617E+04    0.11736E-02   -0.98105E-02  4584   0.281E-01    0.113E-01
RMM:   2    -0.232239632876E+04   -0.11726E-02   -0.11404E-02  6154   0.547E-02    0.153E-01
RMM:   3    -0.232239634219E+04   -0.13427E-04   -0.10973E-03  3677   0.188E-02    0.107E-01
RMM:   4    -0.232239628574E+04    0.56453E-04   -0.12633E-04  2921   0.640E-03    0.285E-02
RMM:   5    -0.232239627610E+04    0.96345E-05   -0.33442E-05  2925   0.473E-03
  92 F= -.23429261E+04 E0= -.23429261E+04  d E =-.150713E-02  mag=     5.0000
       N       E                     dE             d eps       ncg     rms          rms(c)
DAV:   1    -0.232239090380E+04    0.53819E-02   -0.60416E-01  4416   0.699E-01    0.273E-01
RMM:   2    -0.232239790374E+04   -0.69999E-02   -0.69524E-02  5871   0.128E-01    0.316E-01
RMM:   3    -0.232239829412E+04   -0.39038E-03   -0.63883E-03  5319   0.469E-02    0.289E-01
RMM:   4    -0.232239787327E+04    0.42085E-03   -0.76931E-04  4114   0.132E-02    0.722E-02
RMM:   5    -0.232239782897E+04    0.44308E-04   -0.18812E-04  3767   0.921E-03    0.324E-02
RMM:   6    -0.232239782589E+04    0.30764E-05   -0.52184E-05  3134   0.712E-03
  93 F= -.23429277E+04 E0= -.23429277E+04  d E =-.163848E-02  mag=     5.0000
       N       E                     dE             d eps       ncg     rms          rms(c)
DAV:   1    -0.232239095446E+04    0.68745E-02   -0.62505E-01  4416   0.711E-01    0.279E-01
RMM:   2    -0.232239830139E+04   -0.73469E-02   -0.72273E-02  5982   0.131E-01    0.345E-01
RMM:   3    -0.232239858466E+04   -0.28327E-03   -0.65845E-03  5508   0.459E-02    0.285E-01
RMM:   4    -0.232239817641E+04    0.40825E-03   -0.79028E-04  4089   0.135E-02    0.718E-02
RMM:   5    -0.232239812961E+04    0.46795E-04   -0.18629E-04  3829   0.907E-03    0.323E-02
RMM:   6    -0.232239812559E+04    0.40249E-05   -0.49668E-05  3100   0.732E-03
  94 F= -.23429281E+04 E0= -.23429281E+04  d E =-.202837E-02  mag=     5.0000
       N       E                     dE             d eps       ncg     rms          rms(c)
DAV:   1    -0.232239395256E+04    0.41771E-02   -0.49085E-01  4464   0.614E-01    0.246E-01
RMM:   2    -0.232239990639E+04   -0.59538E-02   -0.59235E-02  6008   0.116E-01    0.295E-01
RMM:   3    -0.232240018149E+04   -0.27509E-03   -0.53462E-03  5358   0.419E-02    0.255E-01
RMM:   4    -0.232239986215E+04    0.31934E-03   -0.63888E-04  3584   0.121E-02    0.647E-02
RMM:   5    -0.232239982552E+04    0.36631E-04   -0.14531E-04  3642   0.836E-03    0.292E-02
RMM:   6    -0.232239982331E+04    0.22054E-05   -0.41522E-05  2982   0.679E-03
  95 F= -.23429299E+04 E0= -.23429299E+04  d E =-.178587E-02  mag=     5.0000
       N       E                     dE             d eps       ncg     rms          rms(c)
DAV:   1    -0.232239177017E+04    0.80553E-02   -0.71910E-01  4448   0.741E-01    0.298E-01
RMM:   2    -0.232240050894E+04   -0.87388E-02   -0.86808E-02  5928   0.139E-01    0.360E-01
RMM:   3    -0.232240088481E+04   -0.37587E-03   -0.78352E-03  5453   0.501E-02    0.305E-01
RMM:   4    -0.232240043033E+04    0.45447E-03   -0.93799E-04  4179   0.143E-02    0.782E-02
RMM:   5    -0.232240037344E+04    0.56894E-04   -0.19889E-04  3903   0.967E-03    0.353E-02
RMM:   6    -0.232240036945E+04    0.39937E-05   -0.61719E-05  3236   0.757E-03
  96 F= -.23429305E+04 E0= -.23429305E+04  d E =-.244108E-02  mag=     5.0000
       N       E                     dE             d eps       ncg     rms          rms(c)
DAV:   1    -0.232239765278E+04    0.27207E-02   -0.41323E-01  4448   0.566E-01    0.227E-01
RMM:   2    -0.232240196888E+04   -0.43161E-02   -0.43330E-02  6007   0.106E-01    0.257E-01
RMM:   3    -0.232240219705E+04   -0.22817E-03   -0.38890E-03  5299   0.377E-02    0.245E-01
RMM:   4    -0.232240188098E+04    0.31607E-03   -0.49417E-04  3843   0.118E-02    0.585E-02
RMM:   5    -0.232240185053E+04    0.30450E-04   -0.15344E-04  3806   0.879E-03    0.249E-02
RMM:   6    -0.232240184822E+04    0.23034E-05   -0.33089E-05  2958   0.664E-03
  97 F= -.23429321E+04 E0= -.23429321E+04  d E =-.157973E-02  mag=     5.0000
       N       E                     dE             d eps       ncg     rms          rms(c)
DAV:   1    -0.232239992449E+04    0.19260E-02   -0.20815E-01  4480   0.401E-01    0.161E-01
RMM:   2    -0.232240209374E+04   -0.21692E-02   -0.21869E-02  6034   0.762E-02    0.174E-01
RMM:   3    -0.232240223200E+04   -0.13826E-03   -0.19782E-03  4484   0.274E-02    0.177E-01
RMM:   4    -0.232240206712E+04    0.16487E-03   -0.25024E-04  3043   0.876E-03    0.423E-02
RMM:   5    -0.232240205003E+04    0.17092E-04   -0.81691E-05  3274   0.670E-03    0.181E-02
RMM:   6    -0.232240204797E+04    0.20644E-05   -0.19328E-05  2892   0.558E-03
  98 F= -.23429324E+04 E0= -.23429324E+04  d E =-.185125E-02  mag=     5.0000
       N       E                     dE             d eps       ncg     rms          rms(c)
DAV:   1    -0.232239999791E+04    0.20521E-02   -0.38085E-01  4416   0.548E-01    0.212E-01
RMM:   2    -0.232240362705E+04   -0.36291E-02   -0.36483E-02  5867   0.994E-02    0.236E-01
RMM:   3    -0.232240385634E+04   -0.22929E-03   -0.35549E-03  5082   0.369E-02    0.229E-01
RMM:   4    -0.232240357985E+04    0.27649E-03   -0.44424E-04  3897   0.112E-02    0.572E-02
RMM:   5    -0.232240354750E+04    0.32345E-04   -0.14438E-04  3732   0.879E-03    0.242E-02
[...]
 167 F= -.23429644E+04 E0= -.23429644E+04  d E =-.386333E-03  mag=     5.0000
       N       E                     dE             d eps       ncg     rms          rms(c)
DAV:   1    -0.232243185670E+04    0.83090E-03   -0.13965E-01  4432   0.329E-01    0.126E-01
RMM:   2    -0.232243299028E+04   -0.11336E-02   -0.12423E-02  5775   0.607E-02    0.686E-02
RMM:   3    -0.232243307585E+04   -0.85568E-04   -0.11575E-03  3888   0.219E-02    0.995E-02
RMM:   4    -0.232243304122E+04    0.34631E-04   -0.15062E-04  2907   0.666E-03    0.506E-02
RMM:   5    -0.232243301804E+04    0.23181E-04   -0.74487E-05  3407   0.606E-03    0.166E-02
RMM:   6    -0.232243301694E+04    0.10954E-05   -0.14250E-05  2890   0.526E-03
 168 F= -.23429648E+04 E0= -.23429648E+04  d E =-.423768E-03  mag=     5.0000
       N       E                     dE             d eps       ncg     rms          rms(c)
DAV:   1    -0.232243298105E+04    0.36986E-04   -0.23628E-03  5248   0.433E-02    0.168E-02
RMM:   2    -0.232243300174E+04   -0.20689E-04   -0.22362E-04  3621   0.896E-03    0.127E-02
RMM:   3    -0.232243300494E+04   -0.32050E-05   -0.26759E-05  2779   0.540E-03
 169 F= -.23429648E+04 E0= -.23429648E+04  d E =-.424405E-03  mag=     5.0000
       N       E                     dE             d eps       ncg     rms          rms(c)
DAV:   1    -0.232243220023E+04    0.80151E-03   -0.14107E-01  4432   0.331E-01    0.129E-01
RMM:   2    -0.232243331566E+04   -0.11154E-02   -0.12241E-02  5767   0.608E-02    0.743E-02
RMM:   3    -0.232243342676E+04   -0.11110E-03   -0.11730E-03  3924   0.215E-02    0.127E-01
RMM:   4    -0.232243335668E+04    0.70075E-04   -0.15514E-04  2904   0.693E-03    0.435E-02
RMM:   5    -0.232243333814E+04    0.18538E-04   -0.77898E-05  3451   0.613E-03    0.172E-02
RMM:   6    -0.232243333732E+04    0.82320E-06   -0.15380E-05  2906   0.539E-03
 170 F= -.23429652E+04 E0= -.23429652E+04  d E =-.379855E-03  mag=     5.0000
       N       E                     dE             d eps       ncg     rms          rms(c)
DAV:   1    -0.232243332323E+04    0.14917E-04   -0.84034E-04  5104   0.260E-02    0.106E-02
RMM:   2    -0.232243333085E+04   -0.76282E-05   -0.81148E-05  3027   0.565E-03
 171 F= -.23429652E+04 E0= -.23429652E+04  d E =-.377119E-03  mag=     5.0000
       N       E                     dE             d eps       ncg     rms          rms(c)
DAV:   1    -0.232243272744E+04    0.59579E-03   -0.13026E-01  4432   0.318E-01    0.123E-01
RMM:   2    -0.232243369639E+04   -0.96895E-03   -0.10502E-02  5903   0.591E-02    0.950E-02
RMM:   3    -0.232243384266E+04   -0.14627E-03   -0.11820E-03  3922   0.251E-02    0.160E-01
RMM:   4    -0.232243370921E+04    0.13345E-03   -0.15096E-04  2938   0.739E-03    0.356E-02
RMM:   5    -0.232243369378E+04    0.15431E-04   -0.78504E-05  3468   0.645E-03    0.138E-02
RMM:   6    -0.232243369335E+04    0.43112E-06   -0.13138E-05  2881   0.546E-03
 172 F= -.23429656E+04 E0= -.23429656E+04  d E =-.394993E-03  mag=     5.0000
       N       E                     dE             d eps       ncg     rms          rms(c)
DAV:   1    -0.232243367000E+04    0.23775E-04   -0.19639E-03  5160   0.396E-02    0.153E-02
RMM:   2    -0.232243368556E+04   -0.15552E-04   -0.16682E-04  3405   0.833E-03    0.128E-02
RMM:   3    -0.232243368791E+04   -0.23514E-05   -0.21482E-05  2753   0.504E-03
 173 F= -.23429656E+04 E0= -.23429656E+04  d E =-.393619E-03  mag=     5.0000
       N       E                     dE             d eps       ncg     rms          rms(c)
DAV:   1    -0.232243310142E+04    0.58413E-03   -0.13299E-01  4432   0.325E-01    0.128E-01
RMM:   2    -0.232243403086E+04   -0.92944E-03   -0.10312E-02  5801   0.586E-02    0.636E-02
RMM:   3    -0.232243408306E+04   -0.52194E-04   -0.96864E-04  3992   0.213E-02    0.729E-02
RMM:   4    -0.232243407924E+04    0.38187E-05   -0.13116E-04  2910   0.654E-03    0.633E-02
RMM:   5    -0.232243405216E+04    0.27077E-04   -0.66956E-05  3159   0.572E-03    0.175E-02
RMM:   6    -0.232243405157E+04    0.59526E-06   -0.12780E-05  2894   0.493E-03
 174 F= -.23429660E+04 E0= -.23429660E+04  d E =-.415313E-03  mag=     5.0000
       N       E                     dE             d eps       ncg     rms          rms(c)
DAV:   1    -0.232243398481E+04    0.67350E-04   -0.78073E-03  4880   0.792E-02    0.312E-02
RMM:   2    -0.232243404153E+04   -0.56720E-04   -0.62002E-04  5009   0.152E-02    0.148E-02
RMM:   3    -0.232243404454E+04   -0.30023E-05   -0.63586E-05  2855   0.747E-03
 175 F= -.23429660E+04 E0= -.23429660E+04  d E =-.420893E-03  mag=     5.0000
       N       E                     dE             d eps       ncg     rms          rms(c)
DAV:   1    -0.232243354513E+04    0.49640E-03   -0.12696E-01  4432   0.313E-01    0.121E-01
RMM:   2    -0.232243441991E+04   -0.87478E-03   -0.96105E-03  5776   0.558E-02    0.744E-02
RMM:   3    -0.232243451506E+04   -0.95144E-04   -0.94835E-04  3849   0.203E-02    0.121E-01
RMM:   4    -0.232243444126E+04    0.73799E-04   -0.13250E-04  2899   0.663E-03    0.429E-02
RMM:   5    -0.232243442462E+04    0.16634E-04   -0.70079E-05  3213   0.581E-03    0.149E-02
RMM:   6    -0.232243442396E+04    0.65964E-06   -0.11843E-05  2885   0.499E-03
 176 F= -.23429664E+04 E0= -.23429664E+04  d E =-.415159E-03  mag=     5.0000
       N       E                     dE             d eps       ncg     rms          rms(c)
DAV:   1    -0.232243432969E+04    0.94933E-04   -0.12482E-02  4600   0.984E-02    0.376E-02
RMM:   2    -0.232243441689E+04   -0.87198E-04   -0.95993E-04  5416   0.185E-02    0.195E-02
RMM:   3    -0.232243442304E+04   -0.61508E-05   -0.95218E-05  2865   0.836E-03
 177 F= -.23429664E+04 E0= -.23429664E+04  d E =-.425504E-03  mag=     5.0000
       N       E                     dE             d eps       ncg     rms          rms(c)
DAV:   1    -0.232243404948E+04    0.36741E-03   -0.11108E-01  4432   0.286E-01    0.113E-01
RMM:   2    -0.232243477600E+04   -0.72652E-03   -0.80258E-03  5847   0.510E-02    0.682E-02
RMM:   3    -0.232243485166E+04   -0.75662E-04   -0.80158E-04  3641   0.176E-02    0.107E-01
RMM:   4    -0.232243479592E+04    0.55743E-04   -0.11612E-04  2887   0.612E-03    0.457E-02
RMM:   5    -0.232243478071E+04    0.15209E-04   -0.64858E-05  3145   0.549E-03    0.121E-02
RMM:   6    -0.232243478087E+04   -0.15873E-06   -0.10254E-05  2869   0.470E-03
 178 F= -.23429668E+04 E0= -.23429668E+04  d E =-.386327E-03  mag=     5.0000
       N       E                     dE             d eps       ncg     rms          rms(c)
DAV:   1    -0.232243463291E+04    0.14781E-03   -0.23786E-02  4488   0.132E-01    0.508E-02
RMM:   2    -0.232243479081E+04   -0.15790E-03   -0.17330E-03  5683   0.240E-02    0.275E-02
RMM:   3    -0.232243480496E+04   -0.14146E-04   -0.17199E-04  2910   0.107E-02    0.433E-02
RMM:   4    -0.232243479761E+04    0.73470E-05   -0.23013E-05  2858   0.307E-03
 179 F= -.23429669E+04 E0= -.23429669E+04  d E =-.416354E-03  mag=     5.0000
       N       E                     dE             d eps       ncg     rms          rms(c)
DAV:   1    -0.232243444577E+04    0.35919E-03   -0.11496E-01  4432   0.291E-01    0.112E-01
RMM:   2    -0.232243518829E+04   -0.74252E-03   -0.82893E-03  5805   0.512E-02    0.573E-02
RMM:   3    -0.232243521255E+04   -0.24260E-04   -0.75211E-04  3676   0.194E-02    0.413E-02
RMM:   4    -0.232243524805E+04   -0.35499E-04   -0.13924E-04  3036   0.671E-03    0.933E-02
RMM:   5    -0.232243519900E+04    0.49046E-04   -0.52973E-05  2949   0.542E-03    0.124E-02
RMM:   6    -0.232243519945E+04   -0.45252E-06   -0.15231E-05  2877   0.388E-03
 180 F= -.23429673E+04 E0= -.23429673E+04  d E =-.459005E-03  mag=     5.0000
       N       E                     dE             d eps       ncg     rms          rms(c)
DAV:   1    -0.232243505742E+04    0.14158E-03   -0.22431E-02  4504   0.129E-01    0.490E-02
RMM:   2    -0.232243520510E+04   -0.14768E-03   -0.16316E-03  5637   0.237E-02    0.249E-02
RMM:   3    -0.232243521053E+04   -0.54290E-05   -0.15070E-04  2935   0.107E-02    0.174E-02
RMM:   4    -0.232243521385E+04   -0.33178E-05   -0.24575E-05  2878   0.321E-03
 181 F= -.23429674E+04 E0= -.23429674E+04  d E =-.498787E-03  mag=     5.0000
       N       E                     dE             d eps       ncg     rms          rms(c)
DAV:   1    -0.232243476549E+04    0.44504E-03   -0.12425E-01  4432   0.306E-01    0.119E-01
RMM:   2    -0.232243556393E+04   -0.79844E-03   -0.89073E-03  5802   0.541E-02    0.669E-02
RMM:   3    -0.232243565512E+04   -0.91196E-04   -0.96410E-04  3786   0.218E-02    0.118E-01
RMM:   4    -0.232243559066E+04    0.64459E-04   -0.12098E-04  2914   0.639E-03    0.429E-02
RMM:   5    -0.232243557834E+04    0.12329E-04   -0.59709E-05  3206   0.549E-03    0.210E-02
RMM:   6    -0.232243557678E+04    0.15532E-05   -0.11803E-05  2868   0.484E-03
 182 F= -.23429678E+04 E0= -.23429678E+04  d E =-.459222E-03  mag=     5.0000
       N       E                     dE             d eps       ncg     rms          rms(c)
DAV:   1    -0.232243547545E+04    0.10289E-03   -0.13080E-02  4592   0.996E-02    0.387E-02
RMM:   2    -0.232243556280E+04   -0.87354E-04   -0.94943E-04  5422   0.183E-02    0.255E-02
RMM:   3    -0.232243557609E+04   -0.13288E-04   -0.10207E-04  2882   0.876E-03    0.474E-02
RMM:   4    -0.232243556545E+04    0.10644E-04   -0.14880E-05  2842   0.264E-03    0.117E-02
RMM:   5    -0.232243556406E+04    0.13866E-05   -0.65786E-06  2843   0.202E-03
 183 F= -.23429678E+04 E0= -.23429678E+04  d E =-.477957E-03  mag=     5.0000
       N       E                     dE             d eps       ncg     rms          rms(c)
DAV:   1    -0.232243511906E+04    0.44638E-03   -0.13808E-01  4432   0.327E-01    0.123E-01
RMM:   2    -0.232243592310E+04   -0.80403E-03   -0.90276E-03  5797   0.575E-02    0.613E-02
RMM:   3    -0.232243593996E+04   -0.16864E-04   -0.78018E-04  4048   0.213E-02    0.388E-02
RMM:   4    -0.232243595335E+04   -0.13388E-04   -0.14386E-04  3531   0.768E-03    0.716E-02
RMM:   5    -0.232243592592E+04    0.27426E-04   -0.46735E-05  2886   0.602E-03    0.218E-02
RMM:   6    -0.232243592457E+04    0.13507E-05   -0.12213E-05  2865   0.309E-03
 184 F= -.23429683E+04 E0= -.23429683E+04  d E =-.441203E-03  mag=     5.0000
       N       E                     dE             d eps       ncg     rms          rms(c)
DAV:   1    -0.232243589578E+04    0.30142E-04   -0.31710E-03  5088   0.499E-02    0.189E-02
RMM:   2    -0.232243591506E+04   -0.19283E-04   -0.21410E-04  3783   0.997E-03    0.106E-02
RMM:   3    -0.232243591706E+04   -0.19988E-05   -0.24012E-05  2831   0.565E-03
 185 F= -.23429683E+04 E0= -.23429683E+04  d E =-.445999E-03  mag=     5.0000
       N       E                     dE             d eps       ncg     rms          rms(c)
DAV:   1    -0.232243570150E+04    0.21357E-03   -0.12262E-01  4432   0.315E-01    0.121E-01
RMM:   2    -0.232243629570E+04   -0.59420E-03   -0.69029E-03  5711   0.536E-02    0.599E-02
RMM:   3    -0.232243630842E+04   -0.12721E-04   -0.64609E-04  4069   0.197E-02    0.624E-02
RMM:   4    -0.232243631476E+04   -0.63393E-05   -0.10832E-04  2921   0.659E-03    0.745E-02
RMM:   5    -0.232243628172E+04    0.33037E-04   -0.55020E-05  3182   0.564E-03    0.147E-02
RMM:   6    -0.232243628154E+04    0.17350E-06   -0.11316E-05  2863   0.490E-03
 186 F= -.23429687E+04 E0= -.23429687E+04  d E =-.390149E-03  mag=     5.0000
       N       E                     dE             d eps       ncg     rms          rms(c)
DAV:   1    -0.232243627264E+04    0.90822E-05   -0.95723E-04  5176   0.283E-02    0.109E-02
RMM:   2    -0.232243627802E+04   -0.53815E-05   -0.58230E-05  3001   0.575E-03
 187 F= -.23429687E+04 E0= -.23429687E+04  d E =-.388938E-03  mag=     5.0000
       N       E                     dE             d eps       ncg     rms          rms(c)
DAV:   1    -0.232243612993E+04    0.14270E-03   -0.10034E-01  4432   0.279E-01    0.106E-01
RMM:   2    -0.232243659557E+04   -0.46564E-03   -0.53983E-03  5919   0.492E-02    0.613E-02
RMM:   3    -0.232243664942E+04   -0.53849E-04   -0.57966E-04  3846   0.208E-02    0.109E-01
RMM:   4    -0.232243659408E+04    0.55339E-04   -0.88935E-05  2894   0.614E-03    0.377E-02
RMM:   5    -0.232243657996E+04    0.14121E-04   -0.51360E-05  3197   0.545E-03    0.109E-02
RMM:   6    -0.232243657984E+04    0.12307E-06   -0.85003E-06  2858   0.483E-03
 188 F= -.23429690E+04 E0= -.23429690E+04  d E =-.339475E-03  mag=     5.0000
       N       E                     dE             d eps       ncg     rms          rms(c)
DAV:   1    -0.232243656831E+04    0.11652E-04   -0.12988E-03  5152   0.322E-02    0.121E-02
RMM:   2    -0.232243657483E+04   -0.65178E-05   -0.74161E-05  3078   0.644E-03
 189 F= -.23429690E+04 E0= -.23429690E+04  d E =-.338816E-03  mag=     5.0000
       N       E                     dE             d eps       ncg     rms          rms(c)
DAV:   1    -0.232243647511E+04    0.93203E-04   -0.93214E-02  4432   0.272E-01    0.105E-01
RMM:   2    -0.232243686734E+04   -0.39223E-03   -0.46076E-03  5897   0.475E-02    0.617E-02
RMM:   3    -0.232243692731E+04   -0.59969E-04   -0.50793E-04  3873   0.204E-02    0.119E-01
RMM:   4    -0.232243685810E+04    0.69202E-04   -0.86432E-05  2907   0.621E-03    0.336E-02
RMM:   5    -0.232243684720E+04    0.10902E-04   -0.45708E-05  3161   0.540E-03    0.984E-03
RMM:   6    -0.232243684765E+04   -0.44316E-06   -0.75907E-06  2846   0.475E-03
 190 F= -.23429693E+04 E0= -.23429693E+04  d E =-.336103E-03  mag=     5.0000
       N       E                     dE             d eps       ncg     rms          rms(c)
DAV:   1    -0.232243683151E+04    0.15689E-04   -0.17186E-03  5160   0.373E-02    0.142E-02
RMM:   2    -0.232243683936E+04   -0.78479E-05   -0.88315E-05  3264   0.725E-03
 191 F= -.23429693E+04 E0= -.23429693E+04  d E =-.336572E-03  mag=     5.0000
       N       E                     dE             d eps       ncg     rms          rms(c)
DAV:   1    -0.232243681676E+04    0.14754E-04   -0.86266E-02  4432   0.261E-01    0.101E-01
RMM:   2    -0.232243716902E+04   -0.35226E-03   -0.40757E-03  5949   0.457E-02    0.656E-02
RMM:   3    -0.232243723599E+04   -0.66971E-04   -0.45159E-04  3673   0.184E-02    0.128E-01
RMM:   4    -0.232243715176E+04    0.84232E-04   -0.84932E-05  2916   0.629E-03    0.289E-02
RMM:   5    -0.232243714257E+04    0.91875E-05   -0.44198E-05  3151   0.540E-03
 192 F= -.23429697E+04 E0= -.23429697E+04  d E =-.328434E-03  mag=     5.0000
       N       E                     dE             d eps       ncg     rms          rms(c)
DAV:   1    -0.232243711681E+04    0.34949E-04   -0.48713E-03  5016   0.626E-02    0.242E-02
RMM:   2    -0.232243713825E+04   -0.21439E-04   -0.24490E-04  4381   0.128E-02    0.145E-02
RMM:   3    -0.232243714210E+04   -0.38502E-05   -0.28125E-05  2849   0.627E-03
 193 F= -.23429697E+04 E0= -.23429697E+04  d E =-.334089E-03  mag=     5.0000
       N       E                     dE             d eps       ncg     rms          rms(c)
DAV:   1    -0.232243716782E+04   -0.29576E-04   -0.64860E-02  4432   0.220E-01    0.856E-02
RMM:   2    -0.232243743988E+04   -0.27206E-03   -0.31795E-03  5715   0.373E-02    0.438E-02
RMM:   3    -0.232243743854E+04    0.13455E-05   -0.27606E-04  3276   0.128E-02    0.291E-02
RMM:   4    -0.232243745152E+04   -0.12987E-04   -0.67159E-05  2966   0.549E-03    0.614E-02
RMM:   5    -0.232243743191E+04    0.19612E-04   -0.28929E-05  2875   0.435E-03    0.126E-02
RMM:   6    -0.232243743209E+04   -0.18247E-06   -0.63285E-06  2818   0.272E-03
 194 F= -.23429700E+04 E0= -.23429700E+04  d E =-.317716E-03  mag=     5.0000
       N       E                     dE             d eps       ncg     rms          rms(c)
DAV:   1    -0.232243734292E+04    0.88993E-04   -0.28019E-02  4432   0.145E-01    0.548E-02
RMM:   2    -0.232243746624E+04   -0.12332E-03   -0.13933E-03  5551   0.249E-02    0.351E-02
RMM:   3    -0.232243748862E+04   -0.22374E-04   -0.15388E-04  3011   0.114E-02    0.701E-02
RMM:   4    -0.232243746355E+04    0.25071E-04   -0.25983E-05  2856   0.367E-03    0.159E-02
RMM:   5    -0.232243746101E+04    0.25346E-05   -0.13635E-05  2897   0.290E-03
 195 F= -.23429700E+04 E0= -.23429700E+04  d E =-.364972E-03  mag=     5.0000
       N       E                     dE             d eps       ncg     rms          rms(c)
DAV:   1    -0.232243746125E+04    0.22957E-05   -0.70674E-02  4416   0.227E-01    0.845E-02
RMM:   2    -0.232243776948E+04   -0.30823E-03   -0.35432E-03  5789   0.394E-02    0.470E-02
RMM:   3    -0.232243779687E+04   -0.27382E-04   -0.33354E-04  3439   0.157E-02    0.805E-02
RMM:   4    -0.232243776737E+04    0.29500E-04   -0.53799E-05  2876   0.489E-03    0.308E-02
RMM:   5    -0.232243775912E+04    0.82415E-05   -0.31958E-05  2999   0.430E-03
 196 F= -.23429704E+04 E0= -.23429704E+04  d E =-.358815E-03  mag=     5.0000
       N       E                     dE             d eps       ncg     rms          rms(c)
DAV:   1    -0.232243763194E+04    0.13542E-03   -0.31903E-02  4432   0.153E-01    0.571E-02
RMM:   2    -0.232243777551E+04   -0.14357E-03   -0.16355E-03  5750   0.285E-02    0.322E-02
RMM:   3    -0.232243778885E+04   -0.13335E-04   -0.15674E-04  3019   0.106E-02    0.561E-02
RMM:   4    -0.232243777429E+04    0.14563E-04   -0.25456E-05  2852   0.375E-03    0.207E-02
RMM:   5    -0.232243777007E+04    0.42204E-05   -0.14824E-05  2905   0.296E-03
 197 F= -.23429704E+04 E0= -.23429704E+04  d E =-.410870E-03  mag=     5.0000
       N       E                     dE             d eps       ncg     rms          rms(c)
DAV:   1    -0.232243772843E+04    0.45853E-04   -0.77737E-02  4416   0.232E-01    0.877E-02
RMM:   2    -0.232243806863E+04   -0.34020E-03   -0.38946E-03  5814   0.400E-02    0.470E-02
RMM:   3    -0.232243808572E+04   -0.17089E-04   -0.34612E-04  3497   0.160E-02    0.649E-02
RMM:   4    -0.232243807197E+04    0.13748E-04   -0.55883E-05  2880   0.490E-03    0.405E-02
RMM:   5    -0.232243806103E+04    0.10939E-04   -0.33967E-05  3009   0.428E-03    0.918E-03
RMM:   6    -0.232243806114E+04   -0.10914E-06   -0.56826E-06  2843   0.367E-03
 198 F= -.23429708E+04 E0= -.23429708E+04  d E =-.366021E-03  mag=     5.0000
       N       E                     dE             d eps       ncg     rms          rms(c)
DAV:   1    -0.232243790596E+04    0.15507E-03   -0.36194E-02  4432   0.159E-01    0.598E-02
RMM:   2    -0.232243806629E+04   -0.16033E-03   -0.18190E-03  5657   0.267E-02    0.337E-02
RMM:   3    -0.232243807956E+04   -0.13265E-04   -0.16635E-04  3009   0.112E-02    0.559E-02
RMM:   4    -0.232243806599E+04    0.13569E-04   -0.28610E-05  2855   0.356E-03    0.227E-02
RMM:   5    -0.232243806154E+04    0.44485E-05   -0.16467E-05  2913   0.303E-03
 199 F= -.23429709E+04 E0= -.23429709E+04  d E =-.417768E-03  mag=     5.0000
       N       E                     dE             d eps       ncg     rms          rms(c)
DAV:   1    -0.232243807582E+04   -0.98312E-05   -0.75731E-02  4416   0.228E-01    0.853E-02
RMM:   2    -0.232243841428E+04   -0.33846E-03   -0.38580E-03  5824   0.398E-02    0.467E-02
RMM:   3    -0.232243842968E+04   -0.15403E-04   -0.34682E-04  3402   0.153E-02    0.597E-02
RMM:   4    -0.232243842076E+04    0.89217E-05   -0.56570E-05  2892   0.471E-03
 200 F= -.23429713E+04 E0= -.23429713E+04  d E =-.405484E-03  mag=     5.0000
       N       E                     dE             d eps       ncg     rms          rms(c)
DAV:   1    -0.232243818419E+04    0.24549E-03   -0.61298E-02  4432   0.205E-01    0.791E-02
RMM:   2    -0.232243845105E+04   -0.26687E-03   -0.31136E-03  5754   0.347E-02    0.436E-02
RMM:   3    -0.232243845280E+04   -0.17479E-05   -0.30132E-04  3453   0.157E-02    0.265E-02
RMM:   4    -0.232243844785E+04    0.49557E-05   -0.51484E-05  2996   0.509E-03
 201 F= -.23429713E+04 E0= -.23429713E+04  d E =-.474856E-03  mag=     5.0000
