       N       E                     dE             d eps       ncg     rms          rms(c)
DAV:   1     0.126861888295E+05    0.12686E+05   -0.82901E+05  4440   0.144E+03
DAV:   2    -0.107376955575E+04   -0.13760E+05   -0.13176E+05  5328   0.330E+02
DAV:   3    -0.247278004007E+04   -0.13990E+04   -0.13860E+04  5344   0.111E+02
DAV:   4    -0.251936662525E+04   -0.46587E+02   -0.46366E+02  6632   0.302E+01
DAV:   5    -0.252028321374E+04   -0.91659E+00   -0.91521E+00  5568   0.333E+00    0.170E+02
RMM:   6    -0.147944019445E+04    0.10408E+04   -0.19536E+03  4385   0.389E+01    0.743E+01
RMM:   7    -0.165281812466E+04   -0.17338E+03   -0.29053E+02  5039   0.140E+01    0.564E+01
RMM:   8    -0.168545203812E+04   -0.32634E+02   -0.70841E+01  5146   0.797E+00    0.388E+01
RMM:   9    -0.179817839899E+04   -0.11273E+03   -0.52497E+01  4641   0.764E+00    0.279E+01
RMM:  10    -0.193391818411E+04   -0.13574E+03   -0.51205E+01  4919   0.710E+00    0.242E+01
RMM:  11    -0.200452556225E+04   -0.70607E+02   -0.28555E+01  5031   0.470E+00    0.204E+01
RMM:  12    -0.208583328754E+04   -0.81308E+02   -0.35313E+01  4797   0.474E+00    0.139E+01
RMM:  13    -0.220133319990E+04   -0.11550E+03   -0.80964E+01  4502   0.670E+00    0.929E+00
RMM:  14    -0.228348205980E+04   -0.82149E+02   -0.76192E+01  4539   0.607E+00    0.887E+00
RMM:  15    -0.229873866985E+04   -0.15257E+02   -0.15505E+01  4704   0.349E+00    0.566E+00
RMM:  16    -0.230915043728E+04   -0.10412E+02   -0.99943E+00  4408   0.203E+00    0.277E+00
RMM:  17    -0.231207502000E+04   -0.29246E+01   -0.23249E+00  4500   0.147E+00    0.180E+00
RMM:  18    -0.231351922094E+04   -0.14442E+01   -0.11640E+00  4745   0.544E-01    0.117E+00
RMM:  19    -0.231404977396E+04   -0.53055E+00   -0.47153E-01  4529   0.480E-01    0.589E-01
RMM:  20    -0.231425159568E+04   -0.20182E+00   -0.19520E-01  4655   0.252E-01    0.354E-01
RMM:  21    -0.231430566137E+04   -0.54066E-01   -0.41527E-02  4646   0.169E-01    0.389E-01
RMM:  22    -0.231432408152E+04   -0.18420E-01   -0.12389E-02  4670   0.674E-02    0.243E-01
RMM:  23    -0.231434530035E+04   -0.21219E-01   -0.79591E-03  4394   0.678E-02    0.135E-01
RMM:  24    -0.231436174274E+04   -0.16442E-01   -0.64648E-03  4394   0.565E-02    0.717E-02
RMM:  25    -0.231436729216E+04   -0.55494E-02   -0.19421E-03  4579   0.393E-02    0.578E-02
RMM:  26    -0.231437023239E+04   -0.29402E-02   -0.86737E-04  4070   0.204E-02    0.288E-02
RMM:  27    -0.231437361205E+04   -0.33797E-02   -0.93960E-04  4025   0.237E-02    0.224E-02
RMM:  28    -0.231437431003E+04   -0.69798E-03   -0.27283E-04  4193   0.152E-02    0.113E-02
RMM:  29    -0.231437455592E+04   -0.24589E-03   -0.79033E-05  3672   0.719E-03    0.612E-03
RMM:  30    -0.231437471301E+04   -0.15710E-03   -0.32773E-05  3230   0.618E-03    0.398E-03
RMM:  31    -0.231437477709E+04   -0.64080E-04   -0.16274E-05  2962   0.412E-03    0.277E-03
RMM:  32    -0.231437480902E+04   -0.31924E-04   -0.89947E-06  2829   0.359E-03    0.166E-03
RMM:  33    -0.231437481997E+04   -0.10953E-04   -0.52982E-06  2579   0.272E-03    0.903E-04
RMM:  34    -0.231437482274E+04   -0.27694E-05   -0.25720E-06  2364   0.201E-03
   1 F= -.23349105E+04 E0= -.23349105E+04  d E =-.233491E+04  mag=     4.0000
       N       E                     dE             d eps       ncg     rms          rms(c)
DAV:   1    -0.231487502139E+04   -0.50020E+00   -0.79247E+01  4728   0.549E+00    0.281E+00
RMM:   2    -0.231592800055E+04   -0.10530E+01   -0.86985E+00  6266   0.144E+00    0.673E+00
RMM:   3    -0.231564502526E+04    0.28298E+00   -0.71569E-01  5812   0.388E-01    0.151E+00
RMM:   4    -0.231563244036E+04    0.12585E-01   -0.11051E-01  5141   0.119E-01    0.939E-01
RMM:   5    -0.231562949580E+04    0.29446E-02   -0.43033E-02  5529   0.911E-02    0.104E+00
RMM:   6    -0.231562079801E+04    0.86978E-02   -0.18499E-02  5679   0.676E-02    0.251E-01
RMM:   7    -0.231562091599E+04   -0.11797E-03   -0.30333E-03  4730   0.292E-02    0.112E-01
RMM:   8    -0.231562087659E+04    0.39400E-04   -0.59843E-04  4376   0.153E-02    0.618E-02
RMM:   9    -0.231562081414E+04    0.62444E-04   -0.19763E-04  3865   0.104E-02    0.263E-02
RMM:  10    -0.231562079918E+04    0.14966E-04   -0.70621E-05  3365   0.715E-03    0.150E-02
RMM:  11    -0.231562079314E+04    0.60413E-05   -0.24897E-05  2909   0.528E-03
   2 F= -.23361515E+04 E0= -.23361515E+04  d E =-.124101E+01  mag=     4.0000
       N       E                     dE             d eps       ncg     rms          rms(c)
DAV:   1    -0.231562871686E+04   -0.79177E-02   -0.17789E+01  4576   0.262E+00    0.133E+00
RMM:   2    -0.231580552773E+04   -0.17681E+00   -0.17381E+00  6230   0.638E-01    0.212E+00
RMM:   3    -0.231578361231E+04    0.21915E-01   -0.15121E-01  5825   0.176E-01    0.943E-01
RMM:   4    -0.231577747048E+04    0.61418E-02   -0.24167E-02  4825   0.567E-02    0.421E-01
RMM:   5    -0.231577604823E+04    0.14223E-02   -0.96575E-03  5131   0.469E-02    0.376E-01
RMM:   6    -0.231577492805E+04    0.11202E-02   -0.27862E-03  5232   0.311E-02    0.950E-02
RMM:   7    -0.231577486131E+04    0.66742E-04   -0.32470E-04  3736   0.101E-02    0.389E-02
RMM:   8    -0.231577484293E+04    0.18373E-04   -0.75338E-05  3115   0.678E-03    0.192E-02
RMM:   9    -0.231577483360E+04    0.93352E-05   -0.37184E-05  3088   0.546E-03
   3 F= -.23363044E+04 E0= -.23363044E+04  d E =-.139387E+01  mag=     4.0000
       N       E                     dE             d eps       ncg     rms          rms(c)
DAV:   1    -0.231561822395E+04    0.15662E+00   -0.38227E+01  4496   0.501E+00    0.256E+00
RMM:   2    -0.231642008569E+04   -0.80186E+00   -0.74028E+00  6233   0.143E+00    0.440E+00
RMM:   3    -0.231630007239E+04    0.12001E+00   -0.63759E-01  5610   0.414E-01    0.148E+00
RMM:   4    -0.231628724733E+04    0.12825E-01   -0.89582E-02  5723   0.111E-01    0.717E-01
RMM:   5    -0.231628282398E+04    0.44234E-02   -0.16931E-02  5338   0.644E-02    0.551E-01
RMM:   6    -0.231627974148E+04    0.30825E-02   -0.10509E-02  5735   0.590E-02    0.163E-01
RMM:   7    -0.231627981396E+04   -0.72479E-04   -0.14409E-03  4928   0.227E-02    0.698E-02
RMM:   8    -0.231627980691E+04    0.70484E-05   -0.22656E-04  4000   0.106E-02    0.311E-02
RMM:   9    -0.231627981831E+04   -0.11403E-04   -0.61178E-05  3143   0.653E-03    0.171E-02
RMM:  10    -0.231627982815E+04   -0.98363E-05   -0.24046E-05  2916   0.518E-03
   4 F= -.23368053E+04 E0= -.23368053E+04  d E =-.500908E+00  mag=     4.0000
       N       E                     dE             d eps       ncg     rms          rms(c)
DAV:   1    -0.231607039134E+04    0.20943E+00   -0.18041E+01  4496   0.350E+00    0.172E+00
RMM:   2    -0.231643329165E+04   -0.36290E+00   -0.34860E+00  6276   0.984E-01    0.244E+00
RMM:   3    -0.231639932520E+04    0.33966E-01   -0.29440E-01  5699   0.280E-01    0.995E-01
RMM:   4    -0.231639285591E+04    0.64693E-02   -0.39201E-02  5497   0.732E-02    0.431E-01
RMM:   5    -0.231639117244E+04    0.16835E-02   -0.78891E-03  5264   0.450E-02    0.365E-01
RMM:   6    -0.231638992764E+04    0.12448E-02   -0.44078E-03  5656   0.387E-02    0.110E-01
RMM:   7    -0.231638985722E+04    0.70423E-04   -0.46588E-04  4321   0.137E-02    0.416E-02
RMM:   8    -0.231638985699E+04    0.23075E-06   -0.90292E-05  3240   0.736E-03
   5 F= -.23369127E+04 E0= -.23369127E+04  d E =-.608354E+00  mag=     4.0000
       N       E                     dE             d eps       ncg     rms          rms(c)
DAV:   1    -0.231644616806E+04   -0.56311E-01   -0.32286E+01  4448   0.445E+00    0.201E+00
RMM:   2    -0.231680582126E+04   -0.35965E+00   -0.33417E+00  6137   0.996E-01    0.351E+00
RMM:   3    -0.231672241975E+04    0.83402E-01   -0.24706E-01  5871   0.279E-01    0.113E+00
RMM:   4    -0.231671117296E+04    0.11247E-01   -0.49343E-02  4938   0.938E-02    0.578E-01
RMM:   5    -0.231670722823E+04    0.39447E-02   -0.17784E-02  5444   0.777E-02    0.464E-01
RMM:   6    -0.231670507903E+04    0.21492E-02   -0.45372E-03  5701   0.432E-02    0.890E-02
RMM:   7    -0.231670503993E+04    0.39098E-04   -0.55537E-04  4389   0.134E-02    0.492E-02
RMM:   8    -0.231670498374E+04    0.56193E-04   -0.16971E-04  4076   0.105E-02    0.232E-02
RMM:   9    -0.231670497149E+04    0.12244E-04   -0.87873E-05  3700   0.699E-03    0.129E-02
RMM:  10    -0.231670497027E+04    0.12181E-05   -0.24267E-05  2975   0.586E-03
   6 F= -.23372252E+04 E0= -.23372252E+04  d E =-.312429E+00  mag=     4.0000
       N       E                     dE             d eps       ncg     rms          rms(c)
DAV:   1    -0.231670495133E+04    0.20164E-04   -0.10053E-02  5280   0.788E-02    0.367E-02
RMM:   2    -0.231670506412E+04   -0.11279E-03   -0.99991E-04  5654   0.188E-02    0.597E-02
RMM:   3    -0.231670503982E+04    0.24299E-04   -0.78803E-05  2869   0.631E-03    0.205E-02
RMM:   4    -0.231670503749E+04    0.23293E-05   -0.12268E-05  2888   0.252E-03
   7 F= -.23372253E+04 E0= -.23372253E+04  d E =-.312543E+00  mag=     4.0000
       N       E                     dE             d eps       ncg     rms          rms(c)
DAV:   1    -0.231682485240E+04   -0.11981E+00   -0.13066E+01  4448   0.295E+00    0.134E+00
RMM:   2    -0.231696387897E+04   -0.13903E+00   -0.13311E+00  5891   0.639E-01    0.183E+00
RMM:   3    -0.231695109996E+04    0.12779E-01   -0.12735E-01  5865   0.209E-01    0.854E-01
RMM:   4    -0.231694532084E+04    0.57791E-02   -0.16560E-02  4959   0.616E-02    0.343E-01
RMM:   5    -0.231694421352E+04    0.11073E-02   -0.56573E-03  5287   0.497E-02    0.253E-01
RMM:   6    -0.231694381458E+04    0.39894E-03   -0.14390E-03  5179   0.268E-02    0.585E-02
RMM:   7    -0.231694380515E+04    0.94215E-05   -0.17279E-04  3647   0.927E-03    0.299E-02
RMM:   8    -0.231694379769E+04    0.74603E-05   -0.47617E-05  3187   0.599E-03
   8 F= -.23374640E+04 E0= -.23374640E+04  d E =-.238680E+00  mag=     4.0000
       N       E                     dE             d eps       ncg     rms          rms(c)
DAV:   1    -0.231691599294E+04    0.27812E-01   -0.10878E+01  4480   0.270E+00    0.120E+00
RMM:   2    -0.231703101492E+04   -0.11502E+00   -0.10924E+00  5938   0.575E-01    0.169E+00
RMM:   3    -0.231701945776E+04    0.11557E-01   -0.10193E-01  5935   0.185E-01    0.766E-01
RMM:   4    -0.231701487825E+04    0.45795E-02   -0.13390E-02  4925   0.536E-02    0.301E-01
RMM:   5    -0.231701400939E+04    0.86887E-03   -0.42193E-03  5227   0.444E-02    0.236E-01
RMM:   6    -0.231701365237E+04    0.35702E-03   -0.13171E-03  5090   0.246E-02    0.547E-02
RMM:   7    -0.231701362747E+04    0.24902E-04   -0.13157E-04  3587   0.855E-03    0.282E-02
RMM:   8    -0.231701361671E+04    0.10759E-04   -0.42406E-05  3155   0.565E-03    0.143E-02
RMM:   9    -0.231701361427E+04    0.24358E-05   -0.22409E-05  2889   0.493E-03
   9 F= -.23375337E+04 E0= -.23375337E+04  d E =-.308468E+00  mag=     4.0000
       N       E                     dE             d eps       ncg     rms          rms(c)
DAV:   1    -0.231711924676E+04   -0.10563E+00   -0.48584E+00  4480   0.162E+00    0.770E-01
RMM:   2    -0.231719014536E+04   -0.70899E-01   -0.66820E-01  6252   0.363E-01    0.119E+00
RMM:   3    -0.231718562505E+04    0.45203E-02   -0.63858E-02  6020   0.120E-01    0.456E-01
RMM:   4    -0.231718457901E+04    0.10460E-02   -0.74801E-03  4783   0.302E-02    0.212E-01
RMM:   5    -0.231718427279E+04    0.30622E-03   -0.14130E-03  4962   0.226E-02    0.186E-01
RMM:   6    -0.231718406913E+04    0.20366E-03   -0.82033E-04  4569   0.172E-02    0.694E-02
RMM:   7    -0.231718403460E+04    0.34526E-04   -0.75776E-05  3224   0.648E-03    0.229E-02
RMM:   8    -0.231718403547E+04   -0.86938E-06   -0.27443E-05  2917   0.412E-03
  10 F= -.23377043E+04 E0= -.23377043E+04  d E =-.170597E+00  mag=     4.0000
       N       E                     dE             d eps       ncg     rms          rms(c)
DAV:   1    -0.231694381754E+04    0.24022E+00   -0.32297E+01  4408   0.422E+00    0.197E+00
RMM:   2    -0.231741952277E+04   -0.47571E+00   -0.45118E+00  6232   0.937E-01    0.313E+00
RMM:   3    -0.231739653961E+04    0.22983E-01   -0.46933E-01  6058   0.320E-01    0.127E+00
RMM:   4    -0.231738869686E+04    0.78427E-02   -0.50254E-02  5012   0.778E-02    0.571E-01
RMM:   5    -0.231738654715E+04    0.21497E-02   -0.93720E-03  5263   0.547E-02    0.505E-01
RMM:   6    -0.231738508929E+04    0.14579E-02   -0.64559E-03  5410   0.434E-02    0.222E-01
RMM:   7    -0.231738469814E+04    0.39115E-03   -0.60570E-04  4698   0.152E-02    0.620E-02
RMM:   8    -0.231738467844E+04    0.19701E-04   -0.16490E-04  3756   0.815E-03    0.346E-02
RMM:   9    -0.231738466832E+04    0.10126E-04   -0.64228E-05  3265   0.675E-03    0.134E-02
RMM:  10    -0.231738467081E+04   -0.24935E-05   -0.23262E-05  2887   0.525E-03
  11 F= -.23379053E+04 E0= -.23379053E+04  d E =-.371585E+00  mag=     4.0000
       N       E                     dE             d eps       ncg     rms          rms(c)
DAV:   1    -0.231748081906E+04   -0.96151E-01   -0.66703E+00  4464   0.182E+00    0.777E-01
RMM:   2    -0.231753094964E+04   -0.50131E-01   -0.52097E-01  6118   0.336E-01    0.114E+00
RMM:   3    -0.231752575585E+04    0.51938E-02   -0.48432E-02  5875   0.116E-01    0.503E-01
RMM:   4    -0.231752359290E+04    0.21630E-02   -0.83049E-03  4602   0.366E-02    0.218E-01
RMM:   5    -0.231752302466E+04    0.56824E-03   -0.26872E-03  5100   0.310E-02    0.148E-01
RMM:   6    -0.231752286945E+04    0.15521E-03   -0.50869E-04  4783   0.134E-02    0.538E-02
RMM:   7    -0.231752284400E+04    0.25455E-04   -0.48482E-05  2981   0.624E-03    0.181E-02
RMM:   8    -0.231752283856E+04    0.54424E-05   -0.22904E-05  2899   0.359E-03
  12 F= -.23380429E+04 E0= -.23380429E+04  d E =-.137602E+00  mag=     4.0000
       N       E                     dE             d eps       ncg     rms          rms(c)
DAV:   1    -0.231752968786E+04   -0.68439E-02   -0.18929E+00  4544   0.982E-01    0.411E-01
RMM:   2    -0.231754416092E+04   -0.14473E-01   -0.14749E-01  6100   0.180E-01    0.619E-01
RMM:   3    -0.231754250358E+04    0.16573E-02   -0.13065E-02  5694   0.595E-02    0.261E-01
RMM:   4    -0.231754193547E+04    0.56811E-03   -0.22784E-03  4299   0.193E-02    0.115E-01
RMM:   5    -0.231754178428E+04    0.15119E-03   -0.76546E-04  4600   0.167E-02    0.820E-02
RMM:   6    -0.231754173671E+04    0.47569E-04   -0.14781E-04  3538   0.805E-03    0.288E-02
RMM:   7    -0.231754172900E+04    0.77116E-05   -0.14819E-05  2867   0.438E-03
  13 F= -.23380615E+04 E0= -.23380615E+04  d E =-.156213E+00  mag=     4.0000
       N       E                     dE             d eps       ncg     rms          rms(c)
DAV:   1    -0.231758031086E+04   -0.38574E-01   -0.14794E+00  4552   0.950E-01    0.449E-01
RMM:   2    -0.231760434799E+04   -0.24037E-01   -0.23142E-01  6263   0.228E-01    0.737E-01
RMM:   3    -0.231760200478E+04    0.23432E-02   -0.21658E-02  5779   0.712E-02    0.270E-01
RMM:   4    -0.231760167685E+04    0.32793E-03   -0.26862E-03  4726   0.196E-02    0.119E-01
RMM:   5    -0.231760156589E+04    0.11096E-03   -0.53948E-04  4570   0.140E-02    0.116E-01
RMM:   6    -0.231760146210E+04    0.10379E-03   -0.32700E-04  4246   0.121E-02    0.344E-02
RMM:   7    -0.231760144777E+04    0.14328E-04   -0.29292E-05  2920   0.577E-03    0.123E-02
RMM:   8    -0.231760144444E+04    0.33328E-05   -0.10181E-05  2858   0.323E-03
  14 F= -.23381206E+04 E0= -.23381206E+04  d E =-.590493E-01  mag=     4.0000
       N       E                     dE             d eps       ncg     rms          rms(c)
DAV:   1    -0.231750286018E+04    0.98588E-01   -0.13267E+01  4426   0.284E+00    0.135E+00
RMM:   2    -0.231772636645E+04   -0.22351E+00   -0.21233E+00  6209   0.677E-01    0.239E+00
RMM:   3    -0.231770097539E+04    0.25391E-01   -0.21199E-01  5955   0.214E-01    0.807E-01
RMM:   4    -0.231769806796E+04    0.29074E-02   -0.26223E-02  5177   0.583E-02    0.380E-01
RMM:   5    -0.231769701450E+04    0.10535E-02   -0.56647E-03  5327   0.417E-02    0.387E-01
RMM:   6    -0.231769582874E+04    0.11858E-02   -0.32352E-03  5468   0.335E-02    0.102E-01
RMM:   7    -0.231769570223E+04    0.12651E-03   -0.29180E-04  4127   0.117E-02    0.369E-02
RMM:   8    -0.231769565981E+04    0.42421E-04   -0.81781E-05  3280   0.725E-03    0.196E-02
RMM:   9    -0.231769563654E+04    0.23267E-04   -0.45704E-05  3280   0.554E-03    0.982E-03
RMM:  10    -0.231769562874E+04    0.78088E-05   -0.17057E-05  2860   0.482E-03
  15 F= -.23382128E+04 E0= -.23382128E+04  d E =-.151209E+00  mag=     4.0000
       N       E                     dE             d eps       ncg     rms          rms(c)
DAV:   1    -0.231771773010E+04   -0.22094E-01   -0.30716E+00  4472   0.146E+00    0.678E-01
RMM:   2    -0.231776222160E+04   -0.44491E-01   -0.42636E-01  6133   0.321E-01    0.107E+00
RMM:   3    -0.231775735725E+04    0.48644E-02   -0.43335E-02  5835   0.108E-01    0.428E-01
RMM:   4    -0.231775627875E+04    0.10785E-02   -0.55174E-03  4833   0.301E-02    0.179E-01
RMM:   5    -0.231775595417E+04    0.32458E-03   -0.13370E-03  5159   0.232E-02    0.163E-01
RMM:   6    -0.231775574325E+04    0.21091E-03   -0.66079E-04  5010   0.156E-02    0.512E-02
RMM:   7    -0.231775570878E+04    0.34474E-04   -0.50894E-05  3085   0.656E-03    0.167E-02
RMM:   8    -0.231775570096E+04    0.78248E-05   -0.19576E-05  2875   0.410E-03
  16 F= -.23382721E+04 E0= -.23382721E+04  d E =-.593701E-01  mag=     4.0000
       N       E                     dE             d eps       ncg     rms          rms(c)
DAV:   1    -0.231774935631E+04    0.63525E-02   -0.15276E+00  4608   0.103E+00    0.478E-01
RMM:   2    -0.231777141118E+04   -0.22055E-01   -0.21248E-01  6119   0.228E-01    0.744E-01
RMM:   3    -0.231776913244E+04    0.22787E-02   -0.21493E-02  5735   0.754E-02    0.304E-01
RMM:   4    -0.231776856971E+04    0.56273E-03   -0.27202E-03  4676   0.214E-02    0.125E-01
RMM:   5    -0.231776839538E+04    0.17432E-03   -0.66229E-04  4907   0.168E-02    0.111E-01
RMM:   6    -0.231776829204E+04    0.10334E-03   -0.32298E-04  4629   0.114E-02    0.362E-02
RMM:   7    -0.231776827325E+04    0.18792E-04   -0.27039E-05  2944   0.563E-03    0.123E-02
RMM:   8    -0.231776826814E+04    0.51144E-05   -0.12384E-05  2857   0.333E-03
  17 F= -.23382842E+04 E0= -.23382842E+04  d E =-.714359E-01  mag=     4.0000
       N       E                     dE             d eps       ncg     rms          rms(c)
DAV:   1    -0.231775158526E+04    0.16688E-01   -0.29293E+00  4432   0.121E+00    0.602E-01
RMM:   2    -0.231780928333E+04   -0.57698E-01   -0.54879E-01  6279   0.282E-01    0.107E+00
RMM:   3    -0.231780591248E+04    0.33709E-02   -0.63450E-02  5633   0.109E-01    0.327E-01
RMM:   4    -0.231780571448E+04    0.19799E-03   -0.68121E-03  4914   0.258E-02    0.177E-01
RMM:   5    -0.231780553967E+04    0.17481E-03   -0.11613E-03  4623   0.171E-02    0.203E-01
RMM:   6    -0.231780526422E+04    0.27545E-03   -0.94240E-04  4708   0.153E-02    0.725E-02
RMM:   7    -0.231780522444E+04    0.39781E-04   -0.74385E-05  2930   0.651E-03    0.208E-02
RMM:   8    -0.231780521926E+04    0.51777E-05   -0.17055E-05  2858   0.373E-03
  18 F= -.23383206E+04 E0= -.23383206E+04  d E =-.363876E-01  mag=     4.0000
       N       E                     dE             d eps       ncg     rms          rms(c)
DAV:   1    -0.231777338344E+04    0.31841E-01   -0.23317E+00  4472   0.107E+00    0.532E-01
RMM:   2    -0.231781883174E+04   -0.45448E-01   -0.43394E-01  6268   0.251E-01    0.933E-01
RMM:   3    -0.231781654713E+04    0.22846E-02   -0.50316E-02  5591   0.980E-02    0.291E-01
RMM:   4    -0.231781640147E+04    0.14566E-03   -0.53359E-03  4794   0.229E-02    0.156E-01
RMM:   5    -0.231781626931E+04    0.13216E-03   -0.90394E-04  4533   0.152E-02    0.179E-01
RMM:   6    -0.231781606534E+04    0.20397E-03   -0.74629E-04  4465   0.138E-02    0.680E-02
RMM:   7    -0.231781602969E+04    0.35647E-04   -0.58318E-05  2905   0.616E-03    0.182E-02
RMM:   8    -0.231781602612E+04    0.35685E-05   -0.14274E-05  2853   0.346E-03
  19 F= -.23383308E+04 E0= -.23383308E+04  d E =-.466535E-01  mag=     4.0000
       N       E                     dE             d eps       ncg     rms          rms(c)
DAV:   1    -0.231780798434E+04    0.80454E-02   -0.25138E+00  4536   0.125E+00    0.585E-01
RMM:   2    -0.231785496687E+04   -0.46983E-01   -0.46590E-01  6089   0.274E-01    0.858E-01
RMM:   3    -0.231785464066E+04    0.32622E-03   -0.53712E-02  5795   0.109E-01    0.376E-01
RMM:   4    -0.231785400583E+04    0.63482E-03   -0.52585E-03  4922   0.250E-02    0.155E-01
RMM:   5    -0.231785369616E+04    0.30967E-03   -0.91723E-04  4815   0.172E-02    0.123E-01
RMM:   6    -0.231785361240E+04    0.83764E-04   -0.59026E-04  4503   0.154E-02    0.553E-02
RMM:   7    -0.231785358324E+04    0.29154E-04   -0.58402E-05  3106   0.724E-03    0.237E-02
RMM:   8    -0.231785357318E+04    0.10063E-04   -0.16225E-05  2878   0.351E-03    0.111E-02
RMM:   9    -0.231785356859E+04    0.45865E-05   -0.15221E-05  2838   0.324E-03
  20 F= -.23383682E+04 E0= -.23383682E+04  d E =-.373240E-01  mag=     4.0000
       N       E                     dE             d eps       ncg     rms          rms(c)
DAV:   1    -0.231776633196E+04    0.87241E-01   -0.60713E+00  4508   0.194E+00    0.913E-01
RMM:   2    -0.231788195731E+04   -0.11563E+00   -0.11378E+00  6098   0.429E-01    0.141E+00
RMM:   3    -0.231787928086E+04    0.26764E-02   -0.13161E-01  5878   0.168E-01    0.566E-01
RMM:   4    -0.231787787003E+04    0.14108E-02   -0.12677E-02  5066   0.384E-02    0.240E-01
RMM:   5    -0.231787720844E+04    0.66159E-03   -0.22239E-03  5147   0.263E-02    0.222E-01
RMM:   6    -0.231787692689E+04    0.28155E-03   -0.15829E-03  5046   0.231E-02    0.104E-01
RMM:   7    -0.231787681742E+04    0.10947E-03   -0.14193E-04  3658   0.942E-03    0.284E-02
RMM:   8    -0.231787679440E+04    0.23025E-04   -0.36939E-05  2916   0.469E-03    0.148E-02
RMM:   9    -0.231787678209E+04    0.12303E-04   -0.31606E-05  2909   0.444E-03    0.677E-03
RMM:  10    -0.231787677990E+04    0.21970E-05   -0.95264E-06  2842   0.380E-03
  21 F= -.23383910E+04 E0= -.23383910E+04  d E =-.601111E-01  mag=     4.0000
       N       E                     dE             d eps       ncg     rms          rms(c)
DAV:   1    -0.231785762372E+04    0.19158E-01   -0.23993E+00  4504   0.108E+00    0.515E-01
RMM:   2    -0.231790516107E+04   -0.47537E-01   -0.48328E-01  6330   0.266E-01    0.685E-01
RMM:   3    -0.231790726050E+04   -0.20994E-02   -0.50836E-02  5904   0.947E-02    0.389E-01
RMM:   4    -0.231790660647E+04    0.65403E-03   -0.53143E-03  5041   0.229E-02    0.159E-01
RMM:   5    -0.231790623483E+04    0.37164E-03   -0.75172E-04  4442   0.147E-02    0.865E-02
RMM:   6    -0.231790619579E+04    0.39041E-04   -0.44165E-04  4304   0.127E-02    0.453E-02
RMM:   7    -0.231790618350E+04    0.12286E-04   -0.48462E-05  2949   0.700E-03    0.165E-02
RMM:   8    -0.231790617941E+04    0.40924E-05   -0.16614E-05  2837   0.381E-03
  22 F= -.23384204E+04 E0= -.23384204E+04  d E =-.294838E-01  mag=     4.0000
       N       E                     dE             d eps       ncg     rms          rms(c)
DAV:   1    -0.231783446998E+04    0.71714E-01   -0.42992E+00  4420   0.145E+00    0.695E-01
RMM:   2    -0.231792044397E+04   -0.85974E-01   -0.86771E-01  6285   0.357E-01    0.987E-01
RMM:   3    -0.231792339217E+04   -0.29482E-02   -0.94590E-02  6000   0.128E-01    0.516E-01
RMM:   4    -0.231792229593E+04    0.10962E-02   -0.97328E-03  5238   0.304E-02    0.212E-01
RMM:   5    -0.231792162892E+04    0.66702E-03   -0.13606E-03  4751   0.195E-02    0.124E-01
RMM:   6    -0.231792153261E+04    0.96311E-04   -0.86299E-04  4644   0.173E-02    0.385E-02
RMM:   7    -0.231792152363E+04    0.89743E-05   -0.75925E-05  3186   0.806E-03
  23 F= -.23384358E+04 E0= -.23384358E+04  d E =-.448708E-01  mag=     4.0000
       N       E                     dE             d eps       ncg     rms          rms(c)
DAV:   1    -0.231790267217E+04    0.18860E-01   -0.20541E+00  4464   0.996E-01    0.465E-01
RMM:   2    -0.231794342986E+04   -0.40758E-01   -0.42264E-01  6313   0.231E-01    0.576E-01
RMM:   3    -0.231794639141E+04   -0.29616E-02   -0.47839E-02  5860   0.924E-02    0.373E-01
RMM:   4    -0.231794592001E+04    0.47141E-03   -0.48776E-03  4608   0.210E-02    0.152E-01
RMM:   5    -0.231794567753E+04    0.24248E-03   -0.53158E-04  3938   0.113E-02    0.893E-02
RMM:   6    -0.231794565329E+04    0.24246E-04   -0.41562E-04  4284   0.105E-02    0.764E-02
RMM:   7    -0.231794562045E+04    0.32833E-04   -0.97257E-05  2962   0.751E-03    0.256E-02
RMM:   8    -0.231794561383E+04    0.66237E-05   -0.14686E-05  2841   0.370E-03
  24 F= -.23384599E+04 E0= -.23384599E+04  d E =-.240306E-01  mag=     4.0000
       N       E                     dE             d eps       ncg     rms          rms(c)
DAV:   1    -0.231784708258E+04    0.98538E-01   -0.53347E+00  4408   0.160E+00    0.753E-01
RMM:   2    -0.231795441915E+04   -0.10734E+00   -0.11023E+00  6312   0.372E-01    0.102E+00
RMM:   3    -0.231796102807E+04   -0.66089E-02   -0.12959E-01  6000   0.148E-01    0.593E-01
RMM:   4    -0.231795990073E+04    0.11273E-02   -0.12588E-02  5247   0.330E-02    0.239E-01
RMM:   5    -0.231795925745E+04    0.64329E-03   -0.13417E-03  4567   0.177E-02    0.141E-01
RMM:   6    -0.231795916603E+04    0.91419E-04   -0.10883E-03  4823   0.158E-02    0.103E-01
RMM:   7    -0.231795911596E+04    0.50063E-04   -0.23907E-04  3314   0.112E-02    0.457E-02
RMM:   8    -0.231795909628E+04    0.19686E-04   -0.34744E-05  2868   0.466E-03    0.159E-02
RMM:   9    -0.231795909305E+04    0.32234E-05   -0.25789E-05  2874   0.328E-03
  25 F= -.23384732E+04 E0= -.23384732E+04  d E =-.373385E-01  mag=     4.0000
       N       E                     dE             d eps       ncg     rms          rms(c)
DAV:   1    -0.231794300763E+04    0.16089E-01   -0.14844E+00  4488   0.901E-01    0.407E-01
RMM:   2    -0.231797293830E+04   -0.29931E-01   -0.31299E-01  6182   0.202E-01    0.470E-01
RMM:   3    -0.231797529984E+04   -0.23615E-02   -0.33537E-02  5822   0.797E-02    0.364E-01
RMM:   4    -0.231797475480E+04    0.54504E-03   -0.34875E-03  4936   0.193E-02    0.126E-01
RMM:   5    -0.231797457428E+04    0.18052E-03   -0.43126E-04  4142   0.112E-02    0.782E-02
RMM:   6    -0.231797454082E+04    0.33462E-04   -0.33467E-04  4513   0.109E-02    0.728E-02
RMM:   7    -0.231797450483E+04    0.35990E-04   -0.69419E-05  2966   0.798E-03    0.184E-02
RMM:   8    -0.231797449903E+04    0.57989E-05   -0.14624E-05  2838   0.391E-03
  26 F= -.23384884E+04 E0= -.23384884E+04  d E =-.151942E-01  mag=     4.0000
       N       E                     dE             d eps       ncg     rms          rms(c)
DAV:   1    -0.231779955394E+04    0.17495E+00   -0.88823E+00  4408   0.221E+00    0.101E+00
RMM:   2    -0.231798302030E+04   -0.18347E+00   -0.19015E+00  6195   0.502E-01    0.132E+00
RMM:   3    -0.231799461264E+04   -0.11592E-01   -0.21922E-01  5972   0.201E-01    0.859E-01
RMM:   4    -0.231799167605E+04    0.29366E-02   -0.20861E-02  5571   0.468E-02    0.305E-01
RMM:   5    -0.231799055106E+04    0.11250E-02   -0.25869E-03  5062   0.267E-02    0.183E-01
RMM:   6    -0.231799029286E+04    0.25820E-03   -0.19405E-03  5048   0.236E-02    0.146E-01
RMM:   7    -0.231799014935E+04    0.14351E-03   -0.40215E-04  4724   0.166E-02    0.548E-02
RMM:   8    -0.231799010475E+04    0.44605E-04   -0.73764E-05  3154   0.594E-03    0.221E-02
RMM:   9    -0.231799009026E+04    0.14485E-04   -0.46038E-05  2934   0.522E-03    0.834E-03
RMM:  10    -0.231799008855E+04    0.17137E-05   -0.12799E-05  2846   0.423E-03
  27 F= -.23385033E+04 E0= -.23385033E+04  d E =-.301403E-01  mag=     4.0000
       N       E                     dE             d eps       ncg     rms          rms(c)
DAV:   1    -0.231797049202E+04    0.19598E-01   -0.18760E+00  4488   0.959E-01    0.426E-01
RMM:   2    -0.231800540381E+04   -0.34912E-01   -0.36943E-01  6222   0.207E-01    0.450E-01
RMM:   3    -0.231800856465E+04   -0.31608E-02   -0.36727E-02  5829   0.799E-02    0.424E-01
RMM:   4    -0.231800778774E+04    0.77691E-03   -0.40170E-03  4823   0.196E-02    0.141E-01
RMM:   5    -0.231800758024E+04    0.20750E-03   -0.50805E-04  4006   0.110E-02    0.885E-02
RMM:   6    -0.231800754043E+04    0.39809E-04   -0.40969E-04  4384   0.111E-02    0.658E-02
RMM:   7    -0.231800751366E+04    0.26773E-04   -0.66139E-05  2911   0.747E-03    0.162E-02
RMM:   8    -0.231800750890E+04    0.47529E-05   -0.15199E-05  2853   0.367E-03
  28 F= -.23385204E+04 E0= -.23385204E+04  d E =-.170906E-01  mag=     4.0000
       N       E                     dE             d eps       ncg     rms          rms(c)
DAV:   1    -0.231785824850E+04    0.14927E+00   -0.82563E+00  4408   0.202E+00    0.905E-01
RMM:   2    -0.231801420101E+04   -0.15595E+00   -0.16392E+00  6254   0.443E-01    0.109E+00
RMM:   3    -0.231802659722E+04   -0.12396E-01   -0.17837E-01  5978   0.171E-01    0.862E-01
RMM:   4    -0.231802347964E+04    0.31176E-02   -0.17794E-02  5729   0.408E-02    0.295E-01
RMM:   5    -0.231802253028E+04    0.94936E-03   -0.23358E-03  4983   0.223E-02    0.184E-01
RMM:   6    -0.231802233065E+04    0.19963E-03   -0.18430E-03  4956   0.206E-02    0.127E-01
RMM:   7    -0.231802223131E+04    0.99347E-04   -0.31363E-04  4374   0.141E-02    0.435E-02
RMM:   8    -0.231802220149E+04    0.29818E-04   -0.64907E-05  3031   0.517E-03    0.158E-02
RMM:   9    -0.231802219705E+04    0.44329E-05   -0.29114E-05  2876   0.427E-03
  29 F= -.23385343E+04 E0= -.23385343E+04  d E =-.309972E-01  mag=     4.0000
       N       E                     dE             d eps       ncg     rms          rms(c)
DAV:   1    -0.231797792990E+04    0.44272E-01   -0.32362E+00  4432   0.123E+00    0.533E-01
RMM:   2    -0.231803516818E+04   -0.57238E-01   -0.61713E-01  6258   0.262E-01    0.463E-01
RMM:   3    -0.231804127749E+04   -0.61093E-02   -0.62617E-02  5838   0.101E-01    0.517E-01
RMM:   4    -0.231804029922E+04    0.97827E-03   -0.67989E-03  5012   0.246E-02    0.213E-01
RMM:   5    -0.231803993860E+04    0.36062E-03   -0.87156E-04  4411   0.135E-02    0.130E-01
RMM:   6    -0.231803982571E+04    0.11289E-03   -0.76554E-04  4617   0.137E-02    0.612E-02
RMM:   7    -0.231803980491E+04    0.20801E-04   -0.10687E-04  3183   0.891E-03    0.231E-02
RMM:   8    -0.231803979939E+04    0.55193E-05   -0.26563E-05  2874   0.414E-03
  30 F= -.23385514E+04 E0= -.23385514E+04  d E =-.171318E-01  mag=     4.0000
       N       E                     dE             d eps       ncg     rms          rms(c)
DAV:   1    -0.231800341924E+04    0.36386E-01   -0.21325E+00  4484   0.997E-01    0.432E-01
RMM:   2    -0.231804117294E+04   -0.37754E-01   -0.40893E-01  6260   0.214E-01    0.336E-01
RMM:   3    -0.231804510343E+04   -0.39305E-02   -0.39646E-02  5665   0.802E-02    0.381E-01
RMM:   4    -0.231804466823E+04    0.43520E-03   -0.44201E-03  4311   0.195E-02    0.179E-01
RMM:   5    -0.231804442608E+04    0.24215E-03   -0.56792E-04  4073   0.112E-02    0.107E-01
RMM:   6    -0.231804435219E+04    0.73891E-04   -0.50970E-04  4340   0.115E-02    0.496E-02
RMM:   7    -0.231804433846E+04    0.13728E-04   -0.68909E-05  2956   0.777E-03    0.174E-02
RMM:   8    -0.231804433569E+04    0.27720E-05   -0.18190E-05  2865   0.371E-03
  31 F= -.23385556E+04 E0= -.23385556E+04  d E =-.212594E-01  mag=     4.0000
       N       E                     dE             d eps       ncg     rms          rms(c)
DAV:   1    -0.231802706832E+04    0.17270E-01   -0.17337E+00  4420   0.108E+00    0.439E-01
RMM:   2    -0.231805251220E+04   -0.25444E-01   -0.28145E-01  6061   0.218E-01    0.245E-01
RMM:   3    -0.231805493749E+04   -0.24253E-02   -0.26742E-02  5435   0.808E-02    0.291E-01
RMM:   4    -0.231805472762E+04    0.20987E-03   -0.30429E-03  4831   0.202E-02    0.185E-01
RMM:   5    -0.231805441500E+04    0.31261E-03   -0.66710E-04  4666   0.148E-02    0.753E-02
RMM:   6    -0.231805434558E+04    0.69426E-04   -0.35749E-04  4615   0.125E-02    0.278E-02
RMM:   7    -0.231805432937E+04    0.16209E-04   -0.43965E-05  3047   0.722E-03    0.139E-02
RMM:   8    -0.231805432397E+04    0.54019E-05   -0.18443E-05  2878   0.362E-03
  32 F= -.23385653E+04 E0= -.23385653E+04  d E =-.973680E-02  mag=     4.0000
       N       E                     dE             d eps       ncg     rms          rms(c)
DAV:   1    -0.231805133261E+04    0.29968E-02   -0.24224E-01  4720   0.404E-01    0.164E-01
RMM:   2    -0.231805490718E+04   -0.35746E-02   -0.39483E-02  6084   0.827E-02    0.983E-02
RMM:   3    -0.231805524896E+04   -0.34178E-03   -0.35264E-03  4855   0.321E-02    0.131E-01
RMM:   4    -0.231805518254E+04    0.66421E-04   -0.43065E-04  2993   0.826E-03    0.617E-02
RMM:   5    -0.231805513783E+04    0.44714E-04   -0.94415E-05  3460   0.660E-03    0.273E-02
RMM:   6    -0.231805512812E+04    0.97094E-05   -0.42303E-05  3070   0.630E-03
  33 F= -.23385660E+04 E0= -.23385660E+04  d E =-.104425E-01  mag=     4.0000
       N       E                     dE             d eps       ncg     rms          rms(c)
DAV:   1    -0.231805265138E+04    0.24865E-02   -0.45984E-01  4464   0.530E-01    0.212E-01
RMM:   2    -0.231805967249E+04   -0.70211E-02   -0.71644E-02  6178   0.112E-01    0.329E-01
RMM:   3    -0.231805983216E+04   -0.15967E-03   -0.74024E-03  5233   0.419E-02    0.182E-01
RMM:   4    -0.231805967886E+04    0.15330E-03   -0.80400E-04  3674   0.109E-02    0.616E-02
RMM:   5    -0.231805962704E+04    0.51817E-04   -0.15368E-04  3552   0.802E-03    0.397E-02
RMM:   6    -0.231805961837E+04    0.86705E-05   -0.68053E-05  3098   0.715E-03
  34 F= -.23385704E+04 E0= -.23385704E+04  d E =-.436812E-02  mag=     4.0000
       N       E                     dE             d eps       ncg     rms          rms(c)
DAV:   1    -0.231804252169E+04    0.17105E-01   -0.11823E+00  4432   0.850E-01    0.339E-01
RMM:   2    -0.231806046509E+04   -0.17943E-01   -0.18405E-01  6203   0.179E-01    0.510E-01
RMM:   3    -0.231806104454E+04   -0.57944E-03   -0.19420E-02  5664   0.661E-02    0.301E-01
RMM:   4    -0.231806062248E+04    0.42206E-03   -0.20838E-03  4763   0.171E-02    0.100E-01
RMM:   5    -0.231806048019E+04    0.14228E-03   -0.41027E-04  4238   0.122E-02    0.613E-02
RMM:   6    -0.231806045398E+04    0.26212E-04   -0.17557E-04  3939   0.999E-03    0.165E-02
RMM:   7    -0.231806045063E+04    0.33555E-05   -0.20959E-05  2882   0.601E-03
  35 F= -.23385710E+04 E0= -.23385710E+04  d E =-.499625E-02  mag=     4.0000
       N       E                     dE             d eps       ncg     rms          rms(c)
DAV:   1    -0.231805813225E+04    0.23217E-02   -0.19483E-01  4480   0.345E-01    0.137E-01
RMM:   2    -0.231806108724E+04   -0.29550E-02   -0.30148E-02  6188   0.721E-02    0.212E-01
RMM:   3    -0.231806114414E+04   -0.56901E-04   -0.30593E-03  4072   0.265E-02    0.114E-01
RMM:   4    -0.231806108385E+04    0.60292E-04   -0.33332E-04  3059   0.773E-03    0.401E-02
RMM:   5    -0.231806106087E+04    0.22982E-04   -0.63444E-05  3058   0.559E-03    0.252E-02
RMM:   6    -0.231806105699E+04    0.38823E-05   -0.29674E-05  2885   0.531E-03
  36 F= -.23385717E+04 E0= -.23385717E+04  d E =-.568669E-02  mag=     4.0000
       N       E                     dE             d eps       ncg     rms          rms(c)
DAV:   1    -0.231805699952E+04    0.40613E-02   -0.45530E-01  4432   0.535E-01    0.230E-01
RMM:   2    -0.231806524298E+04   -0.82435E-02   -0.77278E-02  6319   0.119E-01    0.487E-01
RMM:   3    -0.231806449557E+04    0.74741E-03   -0.79160E-03  5327   0.405E-02    0.140E-01
RMM:   4    -0.231806445278E+04    0.42793E-04   -0.91813E-04  3466   0.103E-02    0.664E-02
RMM:   5    -0.231806442082E+04    0.31955E-04   -0.14187E-04  3462   0.719E-03    0.821E-02
RMM:   6    -0.231806438359E+04    0.37229E-04   -0.14481E-04  3160   0.794E-03    0.323E-02
RMM:   7    -0.231806437607E+04    0.75191E-05   -0.14486E-05  2852   0.464E-03
  37 F= -.23385750E+04 E0= -.23385750E+04  d E =-.332043E-02  mag=     4.0000
       N       E                     dE             d eps       ncg     rms          rms(c)
DAV:   1    -0.231806184572E+04    0.25379E-02   -0.18731E-01  4496   0.343E-01    0.151E-01
RMM:   2    -0.231806530956E+04   -0.34638E-02   -0.32222E-02  6272   0.762E-02    0.327E-01
RMM:   3    -0.231806494132E+04    0.36824E-03   -0.32831E-03  4278   0.265E-02    0.890E-02
RMM:   4    -0.231806492959E+04    0.11726E-04   -0.38666E-04  3027   0.727E-03    0.444E-02
RMM:   5    -0.231806491890E+04    0.10699E-04   -0.60078E-05  2987   0.490E-03    0.551E-02
RMM:   6    -0.231806490182E+04    0.17078E-04   -0.60354E-05  2903   0.554E-03    0.208E-02
RMM:   7    -0.231806489892E+04    0.28958E-05   -0.71825E-06  2839   0.353E-03
  38 F= -.23385755E+04 E0= -.23385755E+04  d E =-.384228E-02  mag=     4.0000
       N       E                     dE             d eps       ncg     rms          rms(c)
DAV:   1    -0.231805990408E+04    0.49977E-02   -0.43418E-01  4432   0.549E-01    0.254E-01
RMM:   2    -0.231807004170E+04   -0.10138E-01   -0.86759E-02  6255   0.128E-01    0.641E-01
RMM:   3    -0.231806815497E+04    0.18867E-02   -0.86113E-03  5417   0.419E-02    0.114E-01
RMM:   4    -0.231806817990E+04   -0.24929E-04   -0.10598E-03  3531   0.108E-02    0.682E-02
RMM:   5    -0.231806815500E+04    0.24907E-04   -0.11255E-04  3208   0.684E-03    0.856E-02
RMM:   6    -0.231806810666E+04    0.48340E-04   -0.14856E-04  3280   0.811E-03    0.228E-02
RMM:   7    -0.231806810396E+04    0.26924E-05   -0.17860E-05  2853   0.497E-03
  39 F= -.23385789E+04 E0= -.23385789E+04  d E =-.338855E-02  mag=     4.0000
       N       E                     dE             d eps       ncg     rms          rms(c)
DAV:   1    -0.231803707548E+04    0.31031E-01   -0.17573E+00  4408   0.110E+00    0.509E-01
RMM:   2    -0.231807775204E+04   -0.40677E-01   -0.34942E-01  6232   0.257E-01    0.127E+00
RMM:   3    -0.231807040908E+04    0.73430E-02   -0.35544E-02  5864   0.859E-02    0.232E-01
RMM:   4    -0.231807049554E+04   -0.86468E-04   -0.42880E-03  4725   0.209E-02    0.137E-01
RMM:   5    -0.231807039574E+04    0.99805E-04   -0.46388E-04  4513   0.131E-02    0.171E-01
RMM:   6    -0.231807019888E+04    0.19686E-03   -0.58868E-04  4686   0.138E-02    0.446E-02
RMM:   7    -0.231807018820E+04    0.10677E-04   -0.62290E-05  2911   0.737E-03    0.186E-02
RMM:   8    -0.231807018238E+04    0.58197E-05   -0.14168E-05  2841   0.342E-03
  40 F= -.23385814E+04 E0= -.23385814E+04  d E =-.582153E-02  mag=     4.0000
       N       E                     dE             d eps       ncg     rms          rms(c)
DAV:   1    -0.231806334364E+04    0.68446E-02   -0.51789E-01  4432   0.608E-01    0.287E-01
RMM:   2    -0.231807582493E+04   -0.12481E-01   -0.10187E-01  6183   0.142E-01    0.764E-01
RMM:   3    -0.231807291894E+04    0.29060E-02   -0.10095E-02  5558   0.470E-02    0.115E-01
RMM:   4    -0.231807294568E+04   -0.26739E-04   -0.12905E-03  3855   0.118E-02    0.751E-02
RMM:   5    -0.231807291736E+04    0.28317E-04   -0.14863E-04  3466   0.769E-03    0.985E-02
RMM:   6    -0.231807284973E+04    0.67632E-04   -0.18228E-04  3610   0.877E-03    0.198E-02
RMM:   7    -0.231807284807E+04    0.16628E-05   -0.20366E-05  2860   0.519E-03
  41 F= -.23385842E+04 E0= -.23385842E+04  d E =-.280986E-02  mag=     4.0000
       N       E                     dE             d eps       ncg     rms          rms(c)
DAV:   1    -0.231806406222E+04    0.87875E-02   -0.50897E-01  4432   0.604E-01    0.286E-01
RMM:   2    -0.231807642446E+04   -0.12362E-01   -0.10118E-01  6215   0.141E-01    0.761E-01
RMM:   3    -0.231807353723E+04    0.28872E-02   -0.99777E-03  5564   0.473E-02    0.116E-01
RMM:   4    -0.231807356794E+04   -0.30709E-04   -0.12855E-03  3849   0.117E-02    0.757E-02
RMM:   5    -0.231807353506E+04    0.32882E-04   -0.14785E-04  3434   0.773E-03    0.966E-02
RMM:   6    -0.231807346786E+04    0.67198E-04   -0.18059E-04  3635   0.874E-03    0.194E-02
RMM:   7    -0.231807346566E+04    0.22055E-05   -0.20835E-05  2858   0.527E-03
  42 F= -.23385849E+04 E0= -.23385849E+04  d E =-.356488E-02  mag=     4.0000
       N       E                     dE             d eps       ncg     rms          rms(c)
DAV:   1    -0.231806848885E+04    0.49790E-02   -0.38266E-01  4448   0.518E-01    0.249E-01
RMM:   2    -0.231807778644E+04   -0.92976E-02   -0.75092E-02  6247   0.123E-01    0.678E-01
RMM:   3    -0.231807544815E+04    0.23383E-02   -0.73072E-03  5403   0.395E-02    0.995E-02
RMM:   4    -0.231807547299E+04   -0.24837E-04   -0.95348E-04  3407   0.103E-02    0.641E-02
RMM:   5    -0.231807545617E+04    0.16813E-04   -0.11077E-04  3171   0.672E-03    0.861E-02
RMM:   6    -0.231807540673E+04    0.49437E-04   -0.12901E-04  3156   0.779E-03    0.153E-02
RMM:   7    -0.231807540640E+04    0.33091E-06   -0.16106E-05  2859   0.463E-03
  43 F= -.23385869E+04 E0= -.23385869E+04  d E =-.200840E-02  mag=     4.0000
       N       E                     dE             d eps       ncg     rms          rms(c)
DAV:   1    -0.231807188329E+04    0.35234E-02   -0.21639E-01  4512   0.389E-01    0.187E-01
RMM:   2    -0.231807709800E+04   -0.52147E-02   -0.42261E-02  6261   0.919E-02    0.505E-01
RMM:   3    -0.231807581170E+04    0.12863E-02   -0.41214E-03  4860   0.300E-02    0.753E-02
RMM:   4    -0.231807582617E+04   -0.14479E-04   -0.53488E-04  3074   0.813E-03    0.483E-02
RMM:   5    -0.231807581706E+04    0.91096E-05   -0.63734E-05  2980   0.534E-03
  44 F= -.23385874E+04 E0= -.23385874E+04  d E =-.246719E-02  mag=     4.0000
       N       E                     dE             d eps       ncg     rms          rms(c)
DAV:   1    -0.231807060849E+04    0.52177E-02   -0.44928E-01  4432   0.584E-01    0.275E-01
RMM:   2    -0.231808119844E+04   -0.10590E-01   -0.83427E-02  6199   0.132E-01    0.743E-01
RMM:   3    -0.231807838313E+04    0.28153E-02   -0.82253E-03  5517   0.453E-02    0.105E-01
RMM:   4    -0.231807838840E+04   -0.52708E-05   -0.10504E-03  3766   0.113E-02    0.630E-02
RMM:   5    -0.231807837576E+04    0.12644E-04   -0.12694E-04  3446   0.784E-03    0.933E-02
RMM:   6    -0.231807831936E+04    0.56397E-04   -0.14723E-04  3539   0.828E-03    0.210E-02
RMM:   7    -0.231807831686E+04    0.25069E-05   -0.15937E-05  2867   0.498E-03
  45 F= -.23385900E+04 E0= -.23385900E+04  d E =-.261226E-02  mag=     4.0000
       N       E                     dE             d eps       ncg     rms          rms(c)
DAV:   1    -0.231805600869E+04    0.22311E-01   -0.13580E+00  4408   0.102E+00    0.476E-01
RMM:   2    -0.231808800247E+04   -0.31994E-01   -0.25617E-01  6127   0.233E-01    0.125E+00
RMM:   3    -0.231807985857E+04    0.81439E-02   -0.25254E-02  5774   0.774E-02    0.185E-01
RMM:   4    -0.231807987345E+04   -0.14884E-04   -0.32458E-03  4586   0.191E-02    0.112E-01
RMM:   5    -0.231807982413E+04    0.49326E-04   -0.39360E-04  4508   0.125E-02    0.165E-01
RMM:   6    -0.231807963934E+04    0.18478E-03   -0.47267E-04  4682   0.128E-02    0.382E-02
RMM:   7    -0.231807962915E+04    0.10194E-04   -0.42659E-05  2883   0.670E-03    0.166E-02
RMM:   8    -0.231807962433E+04    0.48242E-05   -0.12065E-05  2832   0.318E-03
  46 F= -.23385915E+04 E0= -.23385915E+04  d E =-.410482E-02  mag=     4.0000
       N       E                     dE             d eps       ncg     rms          rms(c)
DAV:   1    -0.231807810547E+04    0.15237E-02   -0.17178E-01  4584   0.343E-01    0.163E-01
RMM:   2    -0.231808222563E+04   -0.41202E-02   -0.32631E-02  6248   0.777E-02    0.453E-01
RMM:   3    -0.231808119054E+04    0.10351E-02   -0.32304E-03  4402   0.255E-02    0.632E-02
RMM:   4    -0.231808120331E+04   -0.12774E-04   -0.40791E-04  2941   0.692E-03    0.400E-02
RMM:   5    -0.231808120114E+04    0.21735E-05   -0.44276E-05  2905   0.421E-03
  47 F= -.23385931E+04 E0= -.23385931E+04  d E =-.164169E-02  mag=     4.0000
       N       E                     dE             d eps       ncg     rms          rms(c)
DAV:   1    -0.231805699425E+04    0.24209E-01   -0.15384E+00  4408   0.103E+00    0.495E-01
RMM:   2    -0.231809444983E+04   -0.37456E-01   -0.29503E-01  6281   0.233E-01    0.137E+00
RMM:   3    -0.231808456688E+04    0.98830E-02   -0.28981E-02  5873   0.732E-02    0.188E-01
RMM:   4    -0.231808467705E+04   -0.11017E-03   -0.36960E-03  4421   0.183E-02    0.118E-01
RMM:   5    -0.231808466903E+04    0.80157E-05   -0.36536E-04  4089   0.105E-02    0.174E-01
RMM:   6    -0.231808448731E+04    0.18172E-03   -0.50872E-04  4237   0.122E-02    0.434E-02
RMM:   7    -0.231808448037E+04    0.69404E-05   -0.46176E-05  2875   0.554E-03
  48 F= -.23385966E+04 E0= -.23385966E+04  d E =-.510574E-02  mag=     4.0000
       N       E                     dE             d eps       ncg     rms          rms(c)
DAV:   1    -0.231797339118E+04    0.11110E+00   -0.61649E+00  4408   0.205E+00    0.998E-01
RMM:   2    -0.231812611942E+04   -0.15273E+00   -0.12142E+00  6290   0.476E-01    0.268E+00
RMM:   3    -0.231808539812E+04    0.40721E-01   -0.11692E-01  5997   0.149E-01    0.379E-01
RMM:   4    -0.231808592071E+04   -0.52259E-03   -0.15517E-02  4988   0.366E-02    0.239E-01
RMM:   5    -0.231808586907E+04    0.51636E-04   -0.14720E-03  4992   0.196E-02    0.348E-01
RMM:   6    -0.231808510346E+04    0.76561E-03   -0.21343E-03  5278   0.225E-02    0.871E-02
RMM:   7    -0.231808508367E+04    0.19796E-04   -0.18823E-04  3113   0.896E-03    0.507E-02
RMM:   8    -0.231808506533E+04    0.18333E-04   -0.44039E-05  2851   0.445E-03    0.129E-02
RMM:   9    -0.231808506668E+04   -0.13445E-05   -0.16826E-05  2864   0.292E-03
  49 F= -.23385975E+04 E0= -.23385975E+04  d E =-.601400E-02  mag=     4.0000
       N       E                     dE             d eps       ncg     rms          rms(c)
DAV:   1    -0.231806925277E+04    0.15813E-01   -0.92573E-01  4408   0.793E-01    0.367E-01
RMM:   2    -0.231809026562E+04   -0.21013E-01   -0.17250E-01  6272   0.175E-01    0.970E-01
RMM:   3    -0.231808590337E+04    0.43623E-02   -0.17484E-02  5641   0.575E-02    0.154E-01
RMM:   4    -0.231808594599E+04   -0.42620E-04   -0.21575E-03  3870   0.141E-02    0.926E-02
RMM:   5    -0.231808592109E+04    0.24895E-04   -0.22080E-04  3610   0.836E-03    0.129E-01
RMM:   6    -0.231808581876E+04    0.10233E-03   -0.28397E-04  3574   0.971E-03    0.338E-02
RMM:   7    -0.231808581406E+04    0.47004E-05   -0.28552E-05  2863   0.498E-03
  50 F= -.23385981E+04 E0= -.23385981E+04  d E =-.664453E-02  mag=     4.0000
       N       E                     dE             d eps       ncg     rms          rms(c)
DAV:   1    -0.231807544675E+04    0.10372E-01   -0.88498E-01  4420   0.792E-01    0.359E-01
RMM:   2    -0.231809346242E+04   -0.18016E-01   -0.14855E-01  6133   0.172E-01    0.904E-01
RMM:   3    -0.231808937590E+04    0.40865E-02   -0.14692E-02  5736   0.537E-02    0.157E-01
RMM:   4    -0.231808936677E+04    0.91276E-05   -0.18555E-03  4157   0.140E-02    0.940E-02
RMM:   5    -0.231808933832E+04    0.28451E-04   -0.25072E-04  3953   0.944E-03    0.131E-01
RMM:   6    -0.231808923155E+04    0.10676E-03   -0.28902E-04  3809   0.104E-02    0.318E-02
RMM:   7    -0.231808922612E+04    0.54348E-05   -0.26069E-05  2884   0.513E-03
  51 F= -.23386016E+04 E0= -.23386016E+04  d E =-.345830E-02  mag=     4.0000
       N       E                     dE             d eps       ncg     rms          rms(c)
DAV:   1    -0.231808389448E+04    0.53371E-02   -0.37184E-01  4432   0.513E-01    0.236E-01
RMM:   2    -0.231809157322E+04   -0.76787E-02   -0.63135E-02  6143   0.112E-01    0.596E-01
RMM:   3    -0.231808979818E+04    0.17750E-02   -0.62357E-03  5375   0.375E-02    0.105E-01
RMM:   4    -0.231808980144E+04   -0.32614E-05   -0.79439E-04  3215   0.953E-03    0.642E-02
RMM:   5    -0.231808978914E+04    0.12308E-04   -0.11337E-04  3225   0.653E-03    0.854E-02
RMM:   6    -0.231808974276E+04    0.46373E-04   -0.12371E-04  3069   0.752E-03    0.204E-02
RMM:   7    -0.231808974064E+04    0.21180E-05   -0.13603E-05  2871   0.445E-03
  52 F= -.23386021E+04 E0= -.23386021E+04  d E =-.399864E-02  mag=     4.0000
       N       E                     dE             d eps       ncg     rms          rms(c)
DAV:   1    -0.231808692517E+04    0.28176E-02   -0.38134E-01  4420   0.532E-01    0.228E-01
RMM:   2    -0.231809327579E+04   -0.63506E-02   -0.52754E-02  6079   0.109E-01    0.540E-01
RMM:   3    -0.231809184375E+04    0.14320E-02   -0.52026E-03  5363   0.373E-02    0.109E-01
RMM:   4    -0.231809181706E+04    0.26686E-04   -0.65075E-04  3409   0.966E-03    0.639E-02
RMM:   5    -0.231809180719E+04    0.98704E-05   -0.13421E-04  3518   0.758E-03    0.847E-02
RMM:   6    -0.231809176301E+04    0.44179E-04   -0.11548E-04  3082   0.768E-03    0.224E-02
RMM:   7    -0.231809175978E+04    0.32369E-05   -0.12287E-05  2859   0.454E-03
  53 F= -.23386042E+04 E0= -.23386042E+04  d E =-.203275E-02  mag=     4.0000
       N       E                     dE             d eps       ncg     rms          rms(c)
DAV:   1    -0.231808677415E+04    0.49889E-02   -0.44683E-01  4408   0.575E-01    0.246E-01
RMM:   2    -0.231809420636E+04   -0.74322E-02   -0.61790E-02  6050   0.118E-01    0.582E-01
RMM:   3    -0.231809254037E+04    0.16660E-02   -0.60957E-03  5478   0.410E-02    0.118E-01
RMM:   4    -0.231809250906E+04    0.31305E-04   -0.76078E-04  3634   0.104E-02    0.689E-02
RMM:   5    -0.231809249649E+04    0.12572E-04   -0.15677E-04  3635   0.818E-03    0.914E-02
RMM:   6    -0.231809244420E+04    0.52293E-04   -0.13657E-04  3202   0.815E-03    0.244E-02
RMM:   7    -0.231809244008E+04    0.41141E-05   -0.13731E-05  2860   0.481E-03
  54 F= -.23386049E+04 E0= -.23386049E+04  d E =-.272667E-02  mag=     4.0000
       N       E                     dE             d eps       ncg     rms          rms(c)
DAV:   1    -0.231809117597E+04    0.12682E-02   -0.28909E-01  4448   0.479E-01    0.187E-01
RMM:   2    -0.231809496481E+04   -0.37888E-02   -0.33655E-02  5975   0.932E-02    0.378E-01
RMM:   3    -0.231809436259E+04    0.60221E-03   -0.33651E-03  5072   0.334E-02    0.109E-01
RMM:   4    -0.231809432175E+04    0.40846E-04   -0.41965E-04  3316   0.870E-03    0.529E-02
RMM:   5    -0.231809431116E+04    0.10585E-04   -0.92517E-05  3458   0.712E-03    0.627E-02
RMM:   6    -0.231809429007E+04    0.21094E-04   -0.66348E-05  2933   0.675E-03    0.202E-02
RMM:   7    -0.231809428740E+04    0.26729E-05   -0.76821E-06  2839   0.404E-03
  55 F= -.23386067E+04 E0= -.23386067E+04  d E =-.187227E-02  mag=     4.0000
       N       E                     dE             d eps       ncg     rms          rms(c)
DAV:   1    -0.231809051926E+04    0.37708E-02   -0.41527E-01  4408   0.574E-01    0.223E-01
RMM:   2    -0.231809594279E+04   -0.54235E-02   -0.48303E-02  5956   0.111E-01    0.447E-01
RMM:   3    -0.231809509794E+04    0.84485E-03   -0.48534E-03  5337   0.404E-02    0.131E-01
RMM:   4    -0.231809503729E+04    0.60648E-04   -0.60394E-04  3859   0.102E-02    0.626E-02
RMM:   5    -0.231809502009E+04    0.17198E-04   -0.12725E-04  3718   0.839E-03    0.734E-02
RMM:   6    -0.231809499093E+04    0.29161E-04   -0.95967E-05  3068   0.751E-03    0.243E-02
RMM:   7    -0.231809498671E+04    0.42239E-05   -0.99802E-06  2846   0.466E-03
  56 F= -.23386075E+04 E0= -.23386075E+04  d E =-.260210E-02  mag=     4.0000
       N       E                     dE             d eps       ncg     rms          rms(c)
DAV:   1    -0.231809468710E+04    0.30383E-03   -0.16700E-01  4464   0.345E-01    0.122E-01
RMM:   2    -0.231809670080E+04   -0.20137E-02   -0.19499E-02  6058   0.645E-02    0.216E-01
RMM:   3    -0.231809660875E+04    0.92046E-04   -0.20726E-03  3835   0.236E-02    0.867E-02
RMM:   4    -0.231809659059E+04    0.18167E-04   -0.22919E-04  2949   0.657E-03    0.377E-02
RMM:   5    -0.231809658361E+04    0.69769E-05   -0.43278E-05  2960   0.449E-03
  57 F= -.23386091E+04 E0= -.23386091E+04  d E =-.161559E-02  mag=     4.0000
       N       E                     dE             d eps       ncg     rms          rms(c)
DAV:   1    -0.231808274777E+04    0.13843E-01   -0.14996E+00  4408   0.103E+00    0.375E-01
RMM:   2    -0.231810139794E+04   -0.18650E-01   -0.17659E-01  6137   0.194E-01    0.708E-01
RMM:   3    -0.231809987230E+04    0.15256E-02   -0.18978E-02  5735   0.671E-02    0.235E-01
RMM:   4    -0.231809977714E+04    0.95161E-04   -0.21416E-03  4459   0.162E-02    0.112E-01
RMM:   5    -0.231809973492E+04    0.42216E-04   -0.37535E-04  4119   0.118E-02    0.121E-01
RMM:   6    -0.231809966252E+04    0.72398E-04   -0.28811E-04  3882   0.106E-02    0.509E-02
RMM:   7    -0.231809964319E+04    0.19328E-04   -0.21502E-05  2865   0.530E-03    0.915E-03
RMM:   8    -0.231809964200E+04    0.11929E-05   -0.69363E-06  2842   0.249E-03
  58 F= -.23386122E+04 E0= -.23386122E+04  d E =-.473352E-02  mag=     4.0000
       N       E                     dE             d eps       ncg     rms          rms(c)
DAV:   1    -0.231803046993E+04    0.69173E-01   -0.60156E+00  4408   0.207E+00    0.751E-01
RMM:   2    -0.231810599768E+04   -0.75528E-01   -0.71616E-01  6107   0.390E-01    0.140E+00
RMM:   3    -0.231809920918E+04    0.67885E-02   -0.77075E-02  5857   0.129E-01    0.440E-01
RMM:   4    -0.231809903716E+04    0.17203E-03   -0.86946E-03  4689   0.312E-02    0.225E-01
RMM:   5    -0.231809887564E+04    0.16151E-03   -0.14898E-03  5005   0.227E-02    0.249E-01
RMM:   6    -0.231809855765E+04    0.31800E-03   -0.12950E-03  5090   0.191E-02    0.110E-01
RMM:   7    -0.231809846696E+04    0.90692E-04   -0.84833E-05  3034   0.744E-03    0.207E-02
RMM:   8    -0.231809846105E+04    0.59061E-05   -0.22351E-05  2856   0.391E-03
  59 F= -.23386111E+04 E0= -.23386111E+04  d E =-.368763E-02  mag=     4.0000
       N       E                     dE             d eps       ncg     rms          rms(c)
DAV:   1    -0.231807522368E+04    0.23243E-01   -0.22278E+00  4408   0.125E+00    0.429E-01
RMM:   2    -0.231810013537E+04   -0.24912E-01   -0.25359E-01  6086   0.228E-01    0.605E-01
RMM:   3    -0.231810129373E+04   -0.11584E-02   -0.29163E-02  5719   0.793E-02    0.404E-01
RMM:   4    -0.231810054736E+04    0.74637E-03   -0.29052E-03  4999   0.200E-02    0.130E-01
RMM:   5    -0.231810038623E+04    0.16113E-03   -0.47216E-04  4206   0.135E-02    0.810E-02
RMM:   6    -0.231810035949E+04    0.26735E-04   -0.21805E-04  3958   0.114E-02    0.181E-02
RMM:   7    -0.231810035816E+04    0.13372E-05   -0.30889E-05  2917   0.545E-03
  60 F= -.23386130E+04 E0= -.23386130E+04  d E =-.549994E-02  mag=     4.0000
       N       E                     dE             d eps       ncg     rms          rms(c)
DAV:   1    -0.231810058565E+04   -0.22616E-03   -0.95947E-02  4496   0.255E-01    0.868E-02
RMM:   2    -0.231810168196E+04   -0.10963E-02   -0.11047E-02  6048   0.467E-02    0.127E-01
RMM:   3    -0.231810170738E+04   -0.25422E-04   -0.12108E-03  3122   0.176E-02    0.705E-02
RMM:   4    -0.231810168839E+04    0.18996E-04   -0.12572E-04  2907   0.525E-03    0.269E-02
RMM:   5    -0.231810168064E+04    0.77523E-05   -0.22765E-05  2903   0.336E-03
  61 F= -.23386143E+04 E0= -.23386143E+04  d E =-.133977E-02  mag=     4.0000
       N       E                     dE             d eps       ncg     rms          rms(c)
DAV:   1    -0.231809517498E+04    0.65134E-02   -0.86266E-01  4408   0.764E-01    0.267E-01
RMM:   2    -0.231810533505E+04   -0.10160E-01   -0.10103E-01  6112   0.141E-01    0.419E-01
RMM:   3    -0.231810532473E+04    0.10323E-04   -0.11096E-02  5404   0.486E-02    0.202E-01
RMM:   4    -0.231810520446E+04    0.12027E-03   -0.11670E-03  3676   0.120E-02    0.818E-02
RMM:   5    -0.231810515470E+04    0.49759E-04   -0.18778E-04  3657   0.852E-03    0.594E-02
RMM:   6    -0.231810514164E+04    0.13057E-04   -0.96311E-05  3074   0.784E-03    0.217E-02
RMM:   7    -0.231810513910E+04    0.25439E-05   -0.11631E-05  2847   0.440E-03
  62 F= -.23386178E+04 E0= -.23386178E+04  d E =-.485238E-02  mag=     4.0000
       N       E                     dE             d eps       ncg     rms          rms(c)
DAV:   1    -0.231806972069E+04    0.35421E-01   -0.34615E+00  4408   0.153E+00    0.539E-01
RMM:   2    -0.231811125270E+04   -0.41532E-01   -0.40837E-01  6118   0.284E-01    0.883E-01
RMM:   3    -0.231811021517E+04    0.10375E-02   -0.44413E-02  5758   0.998E-02    0.366E-01
RMM:   4    -0.231810995959E+04    0.25559E-03   -0.47905E-03  4816   0.232E-02    0.165E-01
RMM:   5    -0.231810978356E+04    0.17603E-03   -0.79710E-04  4526   0.164E-02    0.136E-01
RMM:   6    -0.231810971394E+04    0.69620E-04   -0.50031E-04  4300   0.135E-02    0.648E-02
RMM:   7    -0.231810968162E+04    0.32322E-04   -0.42007E-05  2903   0.632E-03    0.140E-02
RMM:   8    -0.231810967940E+04    0.22142E-05   -0.12022E-05  2856   0.284E-03
  63 F= -.23386225E+04 E0= -.23386225E+04  d E =-.951194E-02  mag=     4.0000
       N       E                     dE             d eps       ncg     rms          rms(c)
DAV:   1    -0.231794768806E+04    0.16199E+00   -0.13849E+01  4408   0.306E+00    0.110E+00
RMM:   2    -0.231811995701E+04   -0.17227E+00   -0.16742E+00  6141   0.575E-01    0.185E+00
RMM:   3    -0.231811032718E+04    0.96298E-02   -0.18290E-01  5865   0.195E-01    0.642E-01
RMM:   4    -0.231811009284E+04    0.23434E-03   -0.19926E-02  4860   0.455E-02    0.330E-01
RMM:   5    -0.231810960472E+04    0.48812E-03   -0.34580E-03  5032   0.328E-02    0.316E-01
RMM:   6    -0.231810915715E+04    0.44757E-03   -0.25401E-03  5266   0.260E-02    0.171E-01
RMM:   7    -0.231810893405E+04    0.22310E-03   -0.19489E-04  3408   0.105E-02    0.310E-02
RMM:   8    -0.231810892375E+04    0.10296E-04   -0.52656E-05  2911   0.488E-03    0.182E-02
RMM:   9    -0.231810892092E+04    0.28325E-05   -0.19858E-05  2869   0.363E-03
  64 F= -.23386220E+04 E0= -.23386220E+04  d E =-.903640E-02  mag=     4.0000
       N       E                     dE             d eps       ncg     rms          rms(c)
DAV:   1    -0.231806285745E+04    0.46066E-01   -0.41435E+00  4408   0.167E+00    0.561E-01
RMM:   2    -0.231810835277E+04   -0.45495E-01   -0.47705E-01  6108   0.300E-01    0.617E-01
RMM:   3    -0.231811319460E+04   -0.48418E-02   -0.57413E-02  5707   0.112E-01    0.596E-01
RMM:   4    -0.231811137891E+04    0.18157E-02   -0.55285E-03  5374   0.271E-02    0.178E-01
RMM:   5    -0.231811110679E+04    0.27212E-03   -0.10198E-03  4434   0.172E-02    0.942E-02
RMM:   6    -0.231811107811E+04    0.28683E-04   -0.40763E-04  4385   0.135E-02    0.379E-02
RMM:   7    -0.231811106967E+04    0.84416E-05   -0.50415E-05  3000   0.700E-03
  65 F= -.23386240E+04 E0= -.23386240E+04  d E =-.110229E-01  mag=     4.0000
       N       E                     dE             d eps       ncg     rms          rms(c)
DAV:   1    -0.231810362573E+04    0.74524E-02   -0.92928E-01  4408   0.784E-01    0.279E-01
RMM:   2    -0.231811461050E+04   -0.10985E-01   -0.11433E-01  6047   0.145E-01    0.311E-01
RMM:   3    -0.231811541639E+04   -0.80588E-03   -0.12462E-02  5451   0.539E-02    0.252E-01
RMM:   4    -0.231811512105E+04    0.29533E-03   -0.13018E-03  4018   0.134E-02    0.889E-02
RMM:   5    -0.231811504079E+04    0.80268E-04   -0.27257E-04  3797   0.964E-03    0.408E-02
RMM:   6    -0.231811503778E+04    0.30007E-05   -0.81189E-05  3176   0.772E-03
  66 F= -.23386279E+04 E0= -.23386279E+04  d E =-.392515E-02  mag=     4.0000
       N       E                     dE             d eps       ncg     rms          rms(c)
DAV:   1    -0.231801697191E+04    0.98069E-01   -0.83635E+00  4408   0.235E+00    0.861E-01
RMM:   2    -0.231812030101E+04   -0.10333E+00   -0.10535E+00  6099   0.446E-01    0.112E+00
RMM:   3    -0.231812302945E+04   -0.27284E-02   -0.11745E-01  5841   0.155E-01    0.630E-01
RMM:   4    -0.231812169701E+04    0.13324E-02   -0.12109E-02  5223   0.379E-02    0.262E-01
RMM:   5    -0.231812102419E+04    0.67282E-03   -0.21933E-03  4975   0.268E-02    0.128E-01
RMM:   6    -0.231812098507E+04    0.39116E-04   -0.74881E-04  4704   0.183E-02    0.370E-02
RMM:   7    -0.231812097303E+04    0.12045E-04   -0.80287E-05  3320   0.755E-03    0.212E-02
RMM:   8    -0.231812096709E+04    0.59371E-05   -0.26795E-05  2863   0.430E-03
  67 F= -.23386337E+04 E0= -.23386337E+04  d E =-.975012E-02  mag=     4.0000
       N       E                     dE             d eps       ncg     rms          rms(c)
DAV:   1    -0.231810287776E+04    0.18095E-01   -0.18795E+00  4408   0.107E+00    0.393E-01
RMM:   2    -0.231812587480E+04   -0.22997E-01   -0.24469E-01  6136   0.201E-01    0.355E-01
RMM:   3    -0.231812811764E+04   -0.22428E-02   -0.25807E-02  5664   0.741E-02    0.347E-01
RMM:   4    -0.231812759274E+04    0.52490E-03   -0.27854E-03  4720   0.182E-02    0.137E-01
RMM:   5    -0.231812745097E+04    0.14178E-03   -0.61795E-04  4130   0.125E-02    0.817E-02
RMM:   6    -0.231812743159E+04    0.19378E-04   -0.23453E-04  3775   0.950E-03    0.554E-02
RMM:   7    -0.231812741087E+04    0.20712E-04   -0.43852E-05  2902   0.586E-03    0.147E-02
RMM:   8    -0.231812740907E+04    0.18032E-05   -0.10273E-05  2851   0.295E-03
  68 F= -.23386400E+04 E0= -.23386400E+04  d E =-.629449E-02  mag=     4.0000
       N       E                     dE             d eps       ncg     rms          rms(c)
DAV:   1    -0.231808164744E+04    0.45763E-01   -0.38272E+00  4408   0.153E+00    0.561E-01
RMM:   2    -0.231812852903E+04   -0.46882E-01   -0.49891E-01  6080   0.286E-01    0.504E-01
RMM:   3    -0.231813296991E+04   -0.44409E-02   -0.53596E-02  5723   0.104E-01    0.468E-01
RMM:   4    -0.231813206024E+04    0.90968E-03   -0.56498E-03  5358   0.254E-02    0.197E-01
RMM:   5    -0.231813177178E+04    0.28845E-03   -0.12727E-03  4618   0.172E-02    0.124E-01
RMM:   6    -0.231813171273E+04    0.59056E-04   -0.53864E-04  4511   0.125E-02    0.816E-02
RMM:   7    -0.231813166514E+04    0.47590E-04   -0.95591E-05  3037   0.747E-03    0.223E-02
RMM:   8    -0.231813166001E+04    0.51302E-05   -0.20605E-05  2853   0.359E-03
  69 F= -.23386441E+04 E0= -.23386441E+04  d E =-.103494E-01  mag=     4.0000
       N       E                     dE             d eps       ncg     rms          rms(c)
DAV:   1    -0.231810454536E+04    0.27120E-01   -0.26216E+00  4408   0.124E+00    0.460E-01
RMM:   2    -0.231813633586E+04   -0.31791E-01   -0.34249E-01  6129   0.233E-01    0.316E-01
RMM:   3    -0.231813967942E+04   -0.33436E-02   -0.35330E-02  5581   0.856E-02    0.327E-01
RMM:   4    -0.231813939691E+04    0.28252E-03   -0.39574E-03  4905   0.206E-02    0.184E-01
RMM:   5    -0.231813917791E+04    0.21900E-03   -0.96412E-04  4420   0.145E-02    0.116E-01
RMM:   6    -0.231813908473E+04    0.93178E-04   -0.37437E-04  4290   0.107E-02    0.468E-02
RMM:   7    -0.231813906823E+04    0.16500E-04   -0.47816E-05  2925   0.641E-03    0.115E-02
RMM:   8    -0.231813906709E+04    0.11381E-05   -0.13214E-05  2868   0.307E-03
  70 F= -.23386514E+04 E0= -.23386514E+04  d E =-.733126E-02  mag=     4.0000
       N       E                     dE             d eps       ncg     rms          rms(c)
DAV:   1    -0.231804670074E+04    0.92367E-01   -0.73219E+00  4408   0.206E+00    0.771E-01
RMM:   2    -0.231813624083E+04   -0.89540E-01   -0.96121E-01  6157   0.391E-01    0.577E-01
RMM:   3    -0.231814560997E+04   -0.93691E-02   -0.10534E-01  5740   0.143E-01    0.561E-01
RMM:   4    -0.231814459858E+04    0.10114E-02   -0.10953E-02  5665   0.345E-02    0.297E-01
RMM:   5    -0.231814406096E+04    0.53762E-03   -0.27471E-03  5040   0.232E-02    0.202E-01
RMM:   6    -0.231814377409E+04    0.28686E-03   -0.11467E-03  4886   0.166E-02    0.854E-02
RMM:   7    -0.231814372206E+04    0.52036E-04   -0.15494E-04  3334   0.101E-02    0.270E-02
RMM:   8    -0.231814371543E+04    0.66293E-05   -0.39122E-05  2905   0.420E-03
  71 F= -.23386560E+04 E0= -.23386560E+04  d E =-.118757E-01  mag=     4.0000
       N       E                     dE             d eps       ncg     rms          rms(c)
DAV:   1    -0.231812508474E+04    0.18637E-01   -0.18113E+00  4464   0.100E+00    0.375E-01
RMM:   2    -0.231814695562E+04   -0.21871E-01   -0.23628E-01  6213   0.187E-01    0.232E-01
RMM:   3    -0.231814915070E+04   -0.21951E-02   -0.23601E-02  5425   0.685E-02    0.205E-01
RMM:   4    -0.231814919682E+04   -0.46121E-04   -0.26117E-03  3737   0.162E-02    0.163E-01
RMM:   5    -0.231814905383E+04    0.14299E-03   -0.67913E-04  3787   0.120E-02    0.104E-01
RMM:   6    -0.231814897460E+04    0.79224E-04   -0.24757E-04  3872   0.894E-03    0.321E-02
RMM:   7    -0.231814896902E+04    0.55836E-05   -0.29950E-05  2880   0.569E-03
  72 F= -.23386612E+04 E0= -.23386612E+04  d E =-.523556E-02  mag=     4.0000
       N       E                     dE             d eps       ncg     rms          rms(c)
DAV:   1    -0.231793886441E+04    0.21011E+00   -0.16281E+01  4408   0.301E+00    0.114E+00
RMM:   2    -0.231814020004E+04   -0.20134E+00   -0.21561E+00  6248   0.572E-01    0.872E-01
RMM:   3    -0.231816059087E+04   -0.20391E-01   -0.24174E-01  5843   0.210E-01    0.782E-01
RMM:   4    -0.231815881223E+04    0.17786E-02   -0.23768E-02  5900   0.496E-02    0.434E-01
RMM:   5    -0.231815777891E+04    0.10333E-02   -0.62450E-03  5290   0.323E-02    0.308E-01
RMM:   6    -0.231815710858E+04    0.67033E-03   -0.24763E-03  5021   0.232E-02    0.125E-01
RMM:   7    -0.231815701445E+04    0.94134E-04   -0.36738E-04  3948   0.138E-02    0.475E-02
RMM:   8    -0.231815699833E+04    0.16115E-04   -0.92523E-05  3018   0.526E-03    0.183E-02
RMM:   9    -0.231815700072E+04   -0.23849E-05   -0.20783E-05  2874   0.389E-03
  73 F= -.23386692E+04 E0= -.23386692E+04  d E =-.132524E-01  mag=     4.0000
       N       E                     dE             d eps       ncg     rms          rms(c)
DAV:   1    -0.231815594389E+04    0.10544E-02   -0.57429E-01  4624   0.626E-01    0.244E-01
RMM:   2    -0.231816180119E+04   -0.58573E-02   -0.64726E-02  5914   0.117E-01    0.129E-01
RMM:   3    -0.231816225381E+04   -0.45261E-03   -0.60993E-03  4971   0.454E-02    0.944E-02
RMM:   4    -0.231816231512E+04   -0.61313E-04   -0.76247E-04  3856   0.125E-02    0.115E-01
RMM:   5    -0.231816223301E+04    0.82104E-04   -0.26895E-04  3517   0.987E-03    0.539E-02
RMM:   6    -0.231816221218E+04    0.20835E-04   -0.57133E-05  3073   0.657E-03    0.111E-02
RMM:   7    -0.231816221236E+04   -0.18060E-06   -0.11455E-05  2844   0.483E-03
  74 F= -.23386743E+04 E0= -.23386743E+04  d E =-.513130E-02  mag=     4.0000
       N       E                     dE             d eps       ncg     rms          rms(c)
DAV:   1    -0.231815780332E+04    0.44089E-02   -0.55310E-01  4464   0.614E-01    0.240E-01
RMM:   2    -0.231816345801E+04   -0.56547E-02   -0.62549E-02  5869   0.114E-01    0.126E-01
RMM:   3    -0.231816388984E+04   -0.43183E-03   -0.59236E-03  4959   0.458E-02    0.851E-02
RMM:   4    -0.231816392865E+04   -0.38811E-04   -0.73251E-04  4094   0.129E-02    0.979E-02
RMM:   5    -0.231816388400E+04    0.44652E-04   -0.23128E-04  3218   0.935E-03    0.635E-02
RMM:   6    -0.231816385179E+04    0.32213E-04   -0.52746E-05  2992   0.612E-03    0.106E-02
RMM:   7    -0.231816385125E+04    0.53369E-06   -0.12275E-05  2847   0.454E-03
  75 F= -.23386759E+04 E0= -.23386759E+04  d E =-.669412E-02  mag=     4.0000
       N       E                     dE             d eps       ncg     rms          rms(c)
DAV:   1    -0.231816182152E+04    0.20303E-02   -0.60863E-01  4420   0.636E-01    0.226E-01
RMM:   2    -0.231816755819E+04   -0.57367E-02   -0.62574E-02  5907   0.116E-01    0.126E-01
RMM:   3    -0.231816801834E+04   -0.46015E-03   -0.60935E-03  4942   0.429E-02    0.806E-02
RMM:   4    -0.231816801182E+04    0.65203E-05   -0.68320E-04  3989   0.122E-02    0.537E-02
RMM:   5    -0.231816802795E+04   -0.16130E-04   -0.15614E-04  3151   0.846E-03    0.658E-02
RMM:   6    -0.231816799576E+04    0.32187E-04   -0.48742E-05  2910   0.560E-03    0.234E-02
RMM:   7    -0.231816799317E+04    0.25906E-05   -0.74968E-06  2843   0.299E-03
  76 F= -.23386801E+04 E0= -.23386801E+04  d E =-.414869E-02  mag=     4.0000
       N       E                     dE             d eps       ncg     rms          rms(c)
DAV:   1    -0.231815036441E+04    0.17631E-01   -0.18831E+00  4408   0.112E+00    0.397E-01
RMM:   2    -0.231816818372E+04   -0.17819E-01   -0.19437E-01  5909   0.204E-01    0.221E-01
RMM:   3    -0.231816953155E+04   -0.13478E-02   -0.17960E-02  5269   0.745E-02    0.146E-01
RMM:   4    -0.231816957022E+04   -0.38670E-04   -0.22004E-03  4763   0.207E-02    0.136E-01
RMM:   5    -0.231816957366E+04   -0.34360E-05   -0.67805E-04  4227   0.142E-02    0.134E-01
RMM:   6    -0.231816943205E+04    0.14161E-03   -0.15459E-04  3458   0.788E-03    0.217E-02
RMM:   7    -0.231816943185E+04    0.19814E-06   -0.29281E-05  2874   0.518E-03
  77 F= -.23386815E+04 E0= -.23386815E+04  d E =-.560449E-02  mag=     4.0000
       N       E                     dE             d eps       ncg     rms          rms(c)
DAV:   1    -0.231816814362E+04    0.12884E-02   -0.16388E-01  4512   0.330E-01    0.117E-01
RMM:   2    -0.231816967612E+04   -0.15325E-02   -0.16683E-02  5962   0.605E-02    0.691E-02
RMM:   3    -0.231816979832E+04   -0.12219E-03   -0.16561E-03  3686   0.229E-02    0.495E-02
RMM:   4    -0.231816980184E+04   -0.35214E-05   -0.18158E-04  2929   0.629E-03    0.450E-02
RMM:   5    -0.231816979556E+04    0.62811E-05   -0.62921E-05  2906   0.502E-03
  78 F= -.23386819E+04 E0= -.23386819E+04  d E =-.596247E-02  mag=     4.0000
       N       E                     dE             d eps       ncg     rms          rms(c)
DAV:   1    -0.231816857298E+04    0.12289E-02   -0.65810E-01  4420   0.708E-01    0.234E-01
RMM:   2    -0.231817401315E+04   -0.54402E-02   -0.58774E-02  5823   0.122E-01    0.147E-01
RMM:   3    -0.231817451256E+04   -0.49941E-03   -0.59178E-03  5238   0.464E-02    0.153E-01
RMM:   4    -0.231817438515E+04    0.12741E-03   -0.67435E-04  3493   0.118E-02    0.886E-02
RMM:   5    -0.231817432298E+04    0.62172E-04   -0.24960E-04  3932   0.985E-03    0.352E-02
RMM:   6    -0.231817431652E+04    0.64598E-05   -0.52607E-05  3000   0.672E-03
  79 F= -.23386865E+04 E0= -.23386865E+04  d E =-.459502E-02  mag=     4.0000
       N       E                     dE             d eps       ncg     rms          rms(c)
DAV:   1    -0.231814033655E+04    0.33986E-01   -0.42629E+00  4408   0.180E+00    0.596E-01
RMM:   2    -0.231817540178E+04   -0.35065E-01   -0.38252E-01  5796   0.313E-01    0.326E-01
RMM:   3    -0.231817835482E+04   -0.29530E-02   -0.40275E-02  5309   0.123E-01    0.241E-01
RMM:   4    -0.231817841408E+04   -0.59264E-04   -0.45904E-03  5202   0.293E-02    0.245E-01
RMM:   5    -0.231817813753E+04    0.27655E-03   -0.16144E-03  4959   0.213E-02    0.163E-01
RMM:   6    -0.231817793065E+04    0.20689E-03   -0.44361E-04  4638   0.126E-02    0.323E-02
RMM:   7    -0.231817791761E+04    0.13034E-04   -0.65172E-05  2930   0.880E-03    0.188E-02
RMM:   8    -0.231817791612E+04    0.14988E-05   -0.23151E-05  2865   0.319E-03
  80 F= -.23386903E+04 E0= -.23386903E+04  d E =-.839390E-02  mag=     4.0000
       N       E                     dE             d eps       ncg     rms          rms(c)
DAV:   1    -0.231817626573E+04    0.16519E-02   -0.51169E-01  4496   0.618E-01    0.206E-01
RMM:   2    -0.231818113016E+04   -0.48644E-02   -0.52333E-02  6015   0.110E-01    0.129E-01
RMM:   3    -0.231818155380E+04   -0.42364E-03   -0.51791E-03  4997   0.406E-02    0.110E-01
RMM:   4    -0.231818152845E+04    0.25352E-04   -0.58866E-04  3149   0.104E-02    0.874E-02
RMM:   5    -0.231818148268E+04    0.45770E-04   -0.21751E-04  3480   0.873E-03    0.451E-02
RMM:   6    -0.231818146996E+04    0.12720E-04   -0.55883E-05  2988   0.628E-03    0.150E-02
RMM:   7    -0.231818146941E+04    0.54961E-06   -0.94074E-06  2855   0.423E-03
  81 F= -.23386938E+04 E0= -.23386938E+04  d E =-.357162E-02  mag=     4.0000
       N       E                     dE             d eps       ncg     rms          rms(c)
DAV:   1    -0.231813937310E+04    0.42097E-01   -0.46006E+00  4408   0.185E+00    0.616E-01
RMM:   2    -0.231818285476E+04   -0.43482E-01   -0.46993E-01  5959   0.331E-01    0.369E-01
RMM:   3    -0.231818701812E+04   -0.41634E-02   -0.51326E-02  5430   0.127E-01    0.311E-01
RMM:   4    -0.231818687590E+04    0.14222E-03   -0.54978E-03  5408   0.297E-02    0.271E-01
RMM:   5    -0.231818643193E+04    0.44397E-03   -0.18569E-03  5075   0.215E-02    0.146E-01
RMM:   6    -0.231818628137E+04    0.15057E-03   -0.58305E-04  4672   0.138E-02    0.377E-02
RMM:   7    -0.231818626384E+04    0.17526E-04   -0.91196E-05  3006   0.969E-03    0.188E-02
RMM:   8    -0.231818626334E+04    0.49951E-06   -0.30062E-05  2884   0.332E-03
  82 F= -.23386987E+04 E0= -.23386987E+04  d E =-.842843E-02  mag=     4.0000
       N       E                     dE             d eps       ncg     rms          rms(c)
DAV:   1    -0.231818821011E+04   -0.19463E-02   -0.20748E-01  4624   0.441E-01    0.158E-01
RMM:   2    -0.231819004607E+04   -0.18360E-02   -0.20291E-02  5868   0.829E-02    0.875E-02
RMM:   3    -0.231819017090E+04   -0.12483E-03   -0.20095E-03  4688   0.308E-02    0.783E-02
RMM:   4    -0.231819015166E+04    0.19245E-04   -0.24106E-04  3165   0.892E-03    0.617E-02
RMM:   5    -0.231819012362E+04    0.28040E-04   -0.11586E-04  3448   0.805E-03    0.302E-02
RMM:   6    -0.231819011629E+04    0.73238E-05   -0.23772E-05  2875   0.585E-03
  83 F= -.23387025E+04 E0= -.23387025E+04  d E =-.377479E-02  mag=     4.0000
       N       E                     dE             d eps       ncg     rms          rms(c)
DAV:   1    -0.231818819905E+04    0.19246E-02   -0.40834E-01  4408   0.619E-01    0.223E-01
RMM:   2    -0.231819182018E+04   -0.36211E-02   -0.40026E-02  5787   0.116E-01    0.121E-01
RMM:   3    -0.231819206473E+04   -0.24456E-03   -0.40161E-03  4944   0.451E-02    0.106E-01
RMM:   4    -0.231819203502E+04    0.29715E-04   -0.48378E-04  3872   0.120E-02    0.888E-02
RMM:   5    -0.231819197677E+04    0.58244E-04   -0.23551E-04  4040   0.110E-02    0.427E-02
RMM:   6    -0.231819195996E+04    0.16819E-04   -0.43400E-05  2948   0.666E-03    0.137E-02
RMM:   7    -0.231819195889E+04    0.10688E-05   -0.99651E-06  2852   0.406E-03
  84 F= -.23387042E+04 E0= -.23387042E+04  d E =-.550751E-02  mag=     4.0000
       N       E                     dE             d eps       ncg     rms          rms(c)
DAV:   1    -0.231819280395E+04   -0.84399E-03   -0.27993E-01  4448   0.509E-01    0.160E-01
RMM:   2    -0.231819532291E+04   -0.25190E-02   -0.27197E-02  5888   0.890E-02    0.990E-02
RMM:   3    -0.231819553107E+04   -0.20816E-03   -0.27898E-03  4716   0.353E-02    0.896E-02
RMM:   4    -0.231819550098E+04    0.30090E-04   -0.31194E-04  3042   0.892E-03    0.622E-02
RMM:   5    -0.231819547393E+04    0.27046E-04   -0.12352E-04  3321   0.778E-03    0.343E-02
RMM:   6    -0.231819546421E+04    0.97215E-05   -0.31962E-05  2918   0.589E-03
  85 F= -.23387076E+04 E0= -.23387076E+04  d E =-.337435E-02  mag=     4.0000
       N       E                     dE             d eps       ncg     rms          rms(c)
DAV:   1    -0.231818256258E+04    0.12911E-01   -0.17223E+00  4408   0.126E+00    0.396E-01
RMM:   2    -0.231819805755E+04   -0.15495E-01   -0.16759E-01  5813   0.220E-01    0.242E-01
RMM:   3    -0.231819936294E+04   -0.13054E-02   -0.17835E-02  5241   0.800E-02    0.218E-01
RMM:   4    -0.231819918905E+04    0.17389E-03   -0.19549E-03  4918   0.203E-02    0.156E-01
RMM:   5    -0.231819902489E+04    0.16416E-03   -0.76149E-04  4718   0.166E-02    0.899E-02
RMM:   6    -0.231819895130E+04    0.73592E-04   -0.20280E-04  4215   0.105E-02    0.257E-02
RMM:   7    -0.231819894536E+04    0.59328E-05   -0.27731E-05  2870   0.647E-03
  86 F= -.23387107E+04 E0= -.23387107E+04  d E =-.653157E-02  mag=     4.0000
       N       E                     dE             d eps       ncg     rms          rms(c)
DAV:   1    -0.231819879676E+04    0.15453E-03   -0.39868E-01  4528   0.596E-01    0.191E-01
RMM:   2    -0.231820266206E+04   -0.38653E-02   -0.41489E-02  5861   0.108E-01    0.109E-01
RMM:   3    -0.231820297329E+04   -0.31122E-03   -0.42822E-03  4989   0.407E-02    0.897E-02
RMM:   4    -0.231820296190E+04    0.11391E-04   -0.46499E-04  3189   0.998E-03    0.736E-02
RMM:   5    -0.231820292581E+04    0.36084E-04   -0.15742E-04  3342   0.840E-03    0.429E-02
RMM:   6    -0.231820290949E+04    0.16325E-04   -0.42647E-05  2988   0.644E-03    0.145E-02
RMM:   7    -0.231820290884E+04    0.64619E-06   -0.90501E-06  2843   0.442E-03
  87 F= -.23387146E+04 E0= -.23387146E+04  d E =-.387389E-02  mag=     4.0000
       N       E                     dE             d eps       ncg     rms          rms(c)
DAV:   1    -0.231818524802E+04    0.17661E-01   -0.20526E+00  4408   0.135E+00    0.432E-01
RMM:   2    -0.231820512718E+04   -0.19879E-01   -0.21313E-01  5896   0.247E-01    0.251E-01
RMM:   3    -0.231820679706E+04   -0.16699E-02   -0.22605E-02  5350   0.930E-02    0.216E-01
RMM:   4    -0.231820667212E+04    0.12494E-03   -0.23967E-03  4979   0.217E-02    0.162E-01
RMM:   5    -0.231820649429E+04    0.17782E-03   -0.80959E-04  4722   0.169E-02    0.981E-02
RMM:   6    -0.231820640421E+04    0.90082E-04   -0.22499E-04  4331   0.110E-02    0.293E-02
RMM:   7    -0.231820639899E+04    0.52220E-05   -0.30319E-05  2873   0.689E-03
  88 F= -.23387179E+04 E0= -.23387179E+04  d E =-.716192E-02  mag=     4.0000
       N       E                     dE             d eps       ncg     rms          rms(c)
DAV:   1    -0.231820354646E+04    0.28577E-02   -0.48981E-01  4512   0.642E-01    0.228E-01
RMM:   2    -0.231820990970E+04   -0.63632E-02   -0.67527E-02  5943   0.127E-01    0.137E-01
RMM:   3    -0.231821048371E+04   -0.57401E-03   -0.71531E-03  5280   0.473E-02    0.116E-01
RMM:   4    -0.231821045546E+04    0.28256E-04   -0.74028E-04  3298   0.114E-02    0.839E-02
RMM:   5    -0.231821041015E+04    0.45303E-04   -0.20215E-04  3449   0.928E-03    0.496E-02
RMM:   6    -0.231821038990E+04    0.20252E-04   -0.62263E-05  3165   0.695E-03    0.160E-02
RMM:   7    -0.231821038963E+04    0.27595E-06   -0.11132E-05  2846   0.502E-03
  89 F= -.23387219E+04 E0= -.23387219E+04  d E =-.398011E-02  mag=     4.0000
       N       E                     dE             d eps       ncg     rms          rms(c)
DAV:   1    -0.231819192241E+04    0.18467E-01   -0.15067E+00  4408   0.113E+00    0.400E-01
RMM:   2    -0.231821149017E+04   -0.19568E-01   -0.20758E-01  5958   0.223E-01    0.244E-01
RMM:   3    -0.231821330107E+04   -0.18109E-02   -0.22568E-02  5519   0.844E-02    0.210E-01
RMM:   4    -0.231821317661E+04    0.12446E-03   -0.22911E-03  4703   0.195E-02    0.144E-01
RMM:   5    -0.231821303390E+04    0.14271E-03   -0.61680E-04  4560   0.146E-02    0.883E-02
RMM:   6    -0.231821296270E+04    0.71195E-04   -0.19775E-04  4170   0.995E-03    0.275E-02
RMM:   7    -0.231821295851E+04    0.41963E-05   -0.27748E-05  2860   0.664E-03
  90 F= -.23387244E+04 E0= -.23387244E+04  d E =-.653337E-02  mag=     4.0000
       N       E                     dE             d eps       ncg     rms          rms(c)
DAV:   1    -0.231820717317E+04    0.57895E-02   -0.73639E-01  4440   0.785E-01    0.278E-01
RMM:   2    -0.231821689330E+04   -0.97201E-02   -0.10262E-01  6009   0.153E-01    0.182E-01
RMM:   3    -0.231821781623E+04   -0.92292E-03   -0.11122E-02  5483   0.569E-02    0.166E-01
RMM:   4    -0.231821770182E+04    0.11441E-03   -0.11503E-03  3529   0.134E-02    0.961E-02
[...]
RMM:   5    -0.231830903552E+04    0.32522E-04   -0.93918E-05  3394   0.688E-03    0.202E-02
RMM:   6    -0.231830903397E+04    0.15501E-05   -0.25949E-05  2900   0.556E-03
 167 F= -.23388178E+04 E0= -.23388178E+04  d E =-.568975E-03  mag=     4.0000
       N       E                     dE             d eps       ncg     rms          rms(c)
DAV:   1    -0.231830822824E+04    0.80728E-03   -0.58855E-02  4528   0.219E-01    0.771E-02
RMM:   2    -0.231830900809E+04   -0.77985E-03   -0.80073E-03  6110   0.424E-02    0.758E-02
RMM:   3    -0.231830905664E+04   -0.48544E-04   -0.86426E-04  3209   0.173E-02    0.550E-02
RMM:   4    -0.231830903712E+04    0.19517E-04   -0.89268E-05  2866   0.508E-03    0.237E-02
RMM:   5    -0.231830902877E+04    0.83445E-05   -0.24861E-05  2876   0.374E-03
 168 F= -.23388178E+04 E0= -.23388178E+04  d E =-.594945E-03  mag=     4.0000
       N       E                     dE             d eps       ncg     rms          rms(c)
DAV:   1    -0.231830670899E+04    0.23281E-02   -0.22506E-01  4420   0.440E-01    0.148E-01
RMM:   2    -0.231830940311E+04   -0.26941E-02   -0.27967E-02  6044   0.813E-02    0.122E-01
RMM:   3    -0.231830960393E+04   -0.20082E-03   -0.28909E-03  4362   0.314E-02    0.106E-01
RMM:   4    -0.231830953042E+04    0.73506E-04   -0.30741E-04  2992   0.849E-03    0.466E-02
RMM:   5    -0.231830950098E+04    0.29438E-04   -0.87037E-05  3200   0.671E-03    0.239E-02
RMM:   6    -0.231830949718E+04    0.37992E-05   -0.32323E-05  2918   0.572E-03
 169 F= -.23388183E+04 E0= -.23388183E+04  d E =-.527899E-03  mag=     4.0000
       N       E                     dE             d eps       ncg     rms          rms(c)
DAV:   1    -0.231830895338E+04    0.54760E-03   -0.42436E-02  4624   0.191E-01    0.657E-02
RMM:   2    -0.231830947822E+04   -0.52483E-03   -0.53950E-03  6150   0.371E-02    0.621E-02
RMM:   3    -0.231830951141E+04   -0.33190E-04   -0.57232E-04  3043   0.140E-02    0.479E-02
RMM:   4    -0.231830949542E+04    0.15991E-04   -0.59579E-05  2859   0.464E-03    0.197E-02
RMM:   5    -0.231830948965E+04    0.57628E-05   -0.18470E-05  2861   0.324E-03
 170 F= -.23388184E+04 E0= -.23388184E+04  d E =-.546537E-03  mag=     4.0000
       N       E                     dE             d eps       ncg     rms          rms(c)
DAV:   1    -0.231830764994E+04    0.18455E-02   -0.19601E-01  4420   0.422E-01    0.141E-01
RMM:   2    -0.231830979289E+04   -0.21429E-02   -0.22415E-02  5977   0.769E-02    0.109E-01
RMM:   3    -0.231830995447E+04   -0.16159E-03   -0.22469E-03  4250   0.309E-02    0.101E-01
RMM:   4    -0.231830988429E+04    0.70182E-04   -0.24745E-04  2986   0.847E-03    0.436E-02
RMM:   5    -0.231830985974E+04    0.24549E-04   -0.88157E-05  3291   0.696E-03    0.225E-02
RMM:   6    -0.231830985615E+04    0.35946E-05   -0.26819E-05  2904   0.565E-03
 171 F= -.23388189E+04 E0= -.23388189E+04  d E =-.494144E-03  mag=     4.0000
       N       E                     dE             d eps       ncg     rms          rms(c)
DAV:   1    -0.231830966661E+04    0.19314E-03   -0.13361E-02  4912   0.110E-01    0.381E-02
RMM:   2    -0.231830981976E+04   -0.15315E-03   -0.15907E-03  5685   0.222E-02    0.335E-02
RMM:   3    -0.231830983056E+04   -0.10799E-04   -0.16613E-04  2857   0.891E-03    0.291E-02
RMM:   4    -0.231830982456E+04    0.59918E-05   -0.18426E-05  2846   0.320E-03
 172 F= -.23388189E+04 E0= -.23388189E+04  d E =-.496169E-03  mag=     4.0000
       N       E                     dE             d eps       ncg     rms          rms(c)
DAV:   1    -0.231830854440E+04    0.12862E-02   -0.14947E-01  4420   0.376E-01    0.124E-01
RMM:   2    -0.231831004174E+04   -0.14973E-02   -0.15731E-02  5802   0.660E-02    0.962E-02
RMM:   3    -0.231831014659E+04   -0.10485E-03   -0.15765E-03  4052   0.285E-02    0.905E-02
RMM:   4    -0.231831008836E+04    0.58235E-04   -0.17634E-04  2920   0.764E-03    0.373E-02
RMM:   5    -0.231831007100E+04    0.17361E-04   -0.69332E-05  3166   0.634E-03    0.197E-02
RMM:   6    -0.231831006848E+04    0.25191E-05   -0.19165E-05  2878   0.518E-03
 173 F= -.23388192E+04 E0= -.23388192E+04  d E =-.374817E-03  mag=     4.0000
       N       E                     dE             d eps       ncg     rms          rms(c)
DAV:   1    -0.231830958675E+04    0.48424E-03   -0.34962E-02  4560   0.182E-01    0.607E-02
RMM:   2    -0.231830994418E+04   -0.35743E-03   -0.37590E-03  5940   0.335E-02    0.470E-02
RMM:   3    -0.231830996963E+04   -0.25449E-04   -0.37381E-04  3076   0.135E-02    0.449E-02
RMM:   4    -0.231830995539E+04    0.14240E-04   -0.41977E-05  2848   0.428E-03    0.180E-02
RMM:   5    -0.231830995110E+04    0.42901E-05   -0.16321E-05  2862   0.323E-03
 174 F= -.23388192E+04 E0= -.23388192E+04  d E =-.321066E-03  mag=     4.0000
       N       E                     dE             d eps       ncg     rms          rms(c)
DAV:   1    -0.231830988801E+04    0.67385E-04   -0.15580E-02  4496   0.121E-01    0.399E-02
RMM:   2    -0.231831004697E+04   -0.15897E-03   -0.16258E-03  5688   0.232E-02    0.376E-02
RMM:   3    -0.231831005327E+04   -0.62996E-05   -0.16196E-04  2858   0.954E-03    0.290E-02
RMM:   4    -0.231831004644E+04    0.68338E-05   -0.17604E-05  2786   0.332E-03
 175 F= -.23388192E+04 E0= -.23388192E+04  d E =-.374440E-03  mag=     4.0000
       N       E                     dE             d eps       ncg     rms          rms(c)
DAV:   1    -0.231830881425E+04    0.12390E-02   -0.15024E-01  4420   0.378E-01    0.119E-01
RMM:   2    -0.231831025043E+04   -0.14362E-02   -0.15190E-02  5800   0.665E-02    0.821E-02
RMM:   3    -0.231831035592E+04   -0.10550E-03   -0.15049E-03  4006   0.288E-02    0.787E-02
RMM:   4    -0.231831031750E+04    0.38419E-04   -0.16616E-04  2922   0.737E-03    0.363E-02
RMM:   5    -0.231831030174E+04    0.15766E-04   -0.56159E-05  2926   0.594E-03    0.233E-02
RMM:   6    -0.231831029725E+04    0.44870E-05   -0.24593E-05  2895   0.523E-03
 176 F= -.23388196E+04 E0= -.23388196E+04  d E =-.348926E-03  mag=     4.0000
       N       E                     dE             d eps       ncg     rms          rms(c)
DAV:   1    -0.231831018737E+04    0.11437E-03   -0.77922E-03  4960   0.865E-02    0.283E-02
RMM:   2    -0.231831026590E+04   -0.78532E-04   -0.83128E-04  5227   0.173E-02    0.220E-02
RMM:   3    -0.231831027223E+04   -0.63305E-05   -0.83496E-05  2839   0.732E-03
 177 F= -.23388196E+04 E0= -.23388196E+04  d E =-.346577E-03  mag=     4.0000
       N       E                     dE             d eps       ncg     rms          rms(c)
DAV:   1    -0.231830930610E+04    0.95979E-03   -0.14502E-01  4452   0.378E-01    0.115E-01
RMM:   2    -0.231831056422E+04   -0.12581E-02   -0.13208E-02  5916   0.663E-02    0.839E-02
RMM:   3    -0.231831064982E+04   -0.85598E-04   -0.13045E-03  3852   0.253E-02    0.808E-02
RMM:   4    -0.231831060736E+04    0.42460E-04   -0.14896E-04  2908   0.736E-03    0.365E-02
RMM:   5    -0.231831059103E+04    0.16330E-04   -0.61059E-05  3003   0.611E-03    0.212E-02
RMM:   6    -0.231831058834E+04    0.26870E-05   -0.21395E-05  2882   0.521E-03
 178 F= -.23388199E+04 E0= -.23388199E+04  d E =-.365577E-03  mag=     4.0000
       N       E                     dE             d eps       ncg     rms          rms(c)
DAV:   1    -0.231831037446E+04    0.21657E-03   -0.21854E-02  4688   0.147E-01    0.452E-02
RMM:   2    -0.231831056962E+04   -0.19516E-03   -0.20424E-03  5851   0.269E-02    0.367E-02
RMM:   3    -0.231831058264E+04   -0.13025E-04   -0.20175E-04  2866   0.102E-02    0.354E-02
RMM:   4    -0.231831057349E+04    0.91537E-05   -0.23246E-05  2847   0.362E-03
 179 F= -.23388199E+04 E0= -.23388199E+04  d E =-.370107E-03  mag=     4.0000
       N       E                     dE             d eps       ncg     rms          rms(c)
DAV:   1    -0.231830984661E+04    0.73603E-03   -0.12777E-01  4420   0.358E-01    0.106E-01
RMM:   2    -0.231831093449E+04   -0.10879E-02   -0.11283E-02  5819   0.608E-02    0.910E-02
RMM:   3    -0.231831099533E+04   -0.60840E-04   -0.11170E-03  3831   0.253E-02    0.815E-02
RMM:   4    -0.231831094438E+04    0.50945E-04   -0.12503E-04  2911   0.684E-03    0.317E-02
RMM:   5    -0.231831093050E+04    0.13886E-04   -0.54490E-05  3062   0.585E-03    0.133E-02
RMM:   6    -0.231831093000E+04    0.49338E-06   -0.11758E-05  2860   0.478E-03
 180 F= -.23388203E+04 E0= -.23388203E+04  d E =-.361635E-03  mag=     4.0000
       N       E                     dE             d eps       ncg     rms          rms(c)
DAV:   1    -0.231831051852E+04    0.41198E-03   -0.50242E-02  4432   0.225E-01    0.666E-02
RMM:   2    -0.231831095145E+04   -0.43293E-03   -0.44967E-03  5772   0.387E-02    0.553E-02
RMM:   3    -0.231831097760E+04   -0.26149E-04   -0.44373E-04  3292   0.162E-02    0.510E-02
RMM:   4    -0.231831095832E+04    0.19282E-04   -0.49483E-05  2851   0.459E-03    0.197E-02
RMM:   5    -0.231831095294E+04    0.53773E-05   -0.19872E-05  2865   0.360E-03
 181 F= -.23388203E+04 E0= -.23388203E+04  d E =-.387930E-03  mag=     4.0000
       N       E                     dE             d eps       ncg     rms          rms(c)
DAV:   1    -0.231830991628E+04    0.10420E-02   -0.15930E-01  4408   0.403E-01    0.119E-01
RMM:   2    -0.231831126568E+04   -0.13494E-02   -0.14197E-02  5951   0.708E-02    0.865E-02
RMM:   3    -0.231831136048E+04   -0.94809E-04   -0.13722E-03  4015   0.272E-02    0.882E-02
RMM:   4    -0.231831130560E+04    0.54885E-04   -0.15495E-04  2925   0.766E-03    0.370E-02
RMM:   5    -0.231831128837E+04    0.17229E-04   -0.67280E-05  3123   0.646E-03    0.190E-02
RMM:   6    -0.231831128551E+04    0.28629E-05   -0.18939E-05  2877   0.532E-03
 182 F= -.23388207E+04 E0= -.23388207E+04  d E =-.335431E-03  mag=     4.0000
       N       E                     dE             d eps       ncg     rms          rms(c)
DAV:   1    -0.231831117443E+04    0.11394E-03   -0.11822E-02  4848   0.110E-01    0.331E-02
RMM:   2    -0.231831127939E+04   -0.10496E-03   -0.10954E-03  5651   0.210E-02    0.269E-02
RMM:   3    -0.231831128668E+04   -0.72937E-05   -0.11166E-04  2853   0.831E-03    0.264E-02
RMM:   4    -0.231831128168E+04    0.49977E-05   -0.12791E-05  2838   0.302E-03
 183 F= -.23388207E+04 E0= -.23388207E+04  d E =-.332450E-03  mag=     4.0000
       N       E                     dE             d eps       ncg     rms          rms(c)
DAV:   1    -0.231831051508E+04    0.77160E-03   -0.12859E-01  4408   0.360E-01    0.108E-01
RMM:   2    -0.231831154269E+04   -0.10276E-02   -0.10888E-02  5772   0.616E-02    0.777E-02
RMM:   3    -0.231831161133E+04   -0.68637E-04   -0.10360E-03  3880   0.255E-02    0.820E-02
RMM:   4    -0.231831156212E+04    0.49212E-04   -0.12534E-04  2916   0.699E-03    0.335E-02
RMM:   5    -0.231831154682E+04    0.15301E-04   -0.59949E-05  3181   0.612E-03    0.154E-02
RMM:   6    -0.231831154510E+04    0.17211E-05   -0.13069E-05  2861   0.489E-03
 184 F= -.23388210E+04 E0= -.23388210E+04  d E =-.290871E-03  mag=     4.0000
       N       E                     dE             d eps       ncg     rms          rms(c)
DAV:   1    -0.231831149528E+04    0.51533E-04   -0.45920E-03  5160   0.684E-02    0.209E-02
RMM:   2    -0.231831153357E+04   -0.38286E-04   -0.41027E-04  4617   0.132E-02    0.139E-02
RMM:   3    -0.231831153695E+04   -0.33813E-05   -0.42141E-05  2836   0.636E-03
 185 F= -.23388210E+04 E0= -.23388210E+04  d E =-.287983E-03  mag=     4.0000
       N       E                     dE             d eps       ncg     rms          rms(c)
DAV:   1    -0.231831082348E+04    0.71009E-03   -0.12461E-01  4440   0.350E-01    0.104E-01
RMM:   2    -0.231831177479E+04   -0.95131E-03   -0.10179E-02  5713   0.597E-02    0.640E-02
RMM:   3    -0.231831183179E+04   -0.56999E-04   -0.93908E-04  3856   0.247E-02    0.614E-02
RMM:   4    -0.231831181354E+04    0.18241E-04   -0.11723E-04  2899   0.657E-03    0.383E-02
RMM:   5    -0.231831180005E+04    0.13495E-04   -0.58255E-05  2972   0.581E-03    0.228E-02
RMM:   6    -0.231831179586E+04    0.41909E-05   -0.16227E-05  2871   0.481E-03
 186 F= -.23388212E+04 E0= -.23388212E+04  d E =-.289934E-03  mag=     4.0000
       N       E                     dE             d eps       ncg     rms          rms(c)
DAV:   1    -0.231831171896E+04    0.81089E-04   -0.79813E-03  4864   0.888E-02    0.267E-02
RMM:   2    -0.231831178271E+04   -0.63748E-04   -0.68656E-04  5254   0.167E-02    0.159E-02
RMM:   3    -0.231831178756E+04   -0.48542E-05   -0.63692E-05  2844   0.713E-03
 187 F= -.23388212E+04 E0= -.23388212E+04  d E =-.289605E-03  mag=     4.0000
       N       E                     dE             d eps       ncg     rms          rms(c)
DAV:   1    -0.231831116071E+04    0.62200E-03   -0.11844E-01  4440   0.342E-01    0.104E-01
RMM:   2    -0.231831202713E+04   -0.86642E-03   -0.94142E-03  5865   0.586E-02    0.553E-02
RMM:   3    -0.231831206541E+04   -0.38283E-04   -0.85373E-04  3729   0.221E-02    0.378E-02
RMM:   4    -0.231831206184E+04    0.35685E-05   -0.10682E-04  2951   0.660E-03    0.356E-02
RMM:   5    -0.231831205867E+04    0.31699E-05   -0.54134E-05  2913   0.575E-03
 188 F= -.23388215E+04 E0= -.23388215E+04  d E =-.290486E-03  mag=     4.0000
       N       E                     dE             d eps       ncg     rms          rms(c)
DAV:   1    -0.231831192161E+04    0.14024E-03   -0.13679E-02  4880   0.117E-01    0.364E-02
RMM:   2    -0.231831202621E+04   -0.10460E-03   -0.11582E-03  5571   0.226E-02    0.188E-02
RMM:   3    -0.231831203240E+04   -0.61971E-05   -0.10611E-04  2865   0.908E-03    0.179E-02
RMM:   4    -0.231831203245E+04   -0.46668E-07   -0.15713E-05  2853   0.317E-03
 189 F= -.23388215E+04 E0= -.23388215E+04  d E =-.271002E-03  mag=     4.0000
       N       E                     dE             d eps       ncg     rms          rms(c)
DAV:   1    -0.231831141064E+04    0.62176E-03   -0.12280E-01  4420   0.347E-01    0.106E-01
RMM:   2    -0.231831223343E+04   -0.82278E-03   -0.89310E-03  5821   0.584E-02    0.615E-02
RMM:   3    -0.231831228210E+04   -0.48672E-04   -0.78890E-04  3815   0.230E-02    0.653E-02
RMM:   4    -0.231831225912E+04    0.22974E-04   -0.10492E-04  2894   0.664E-03    0.369E-02
RMM:   5    -0.231831224606E+04    0.13064E-04   -0.52865E-05  2956   0.583E-03    0.192E-02
RMM:   6    -0.231831224350E+04    0.25545E-05   -0.14018E-05  2866   0.480E-03
 190 F= -.23388218E+04 E0= -.23388218E+04  d E =-.238041E-03  mag=     4.0000
       N       E                     dE             d eps       ncg     rms          rms(c)
DAV:   1    -0.231831219682E+04    0.49241E-04   -0.48863E-03  5000   0.696E-02    0.215E-02
RMM:   2    -0.231831223128E+04   -0.34458E-04   -0.37543E-04  4540   0.131E-02    0.103E-02
RMM:   3    -0.231831223324E+04   -0.19611E-05   -0.34250E-05  2838   0.641E-03
 191 F= -.23388217E+04 E0= -.23388217E+04  d E =-.233224E-03  mag=     4.0000
       N       E                     dE             d eps       ncg     rms          rms(c)
DAV:   1    -0.231831195041E+04    0.28087E-03   -0.88611E-02  4420   0.296E-01    0.988E-02
RMM:   2    -0.231831245822E+04   -0.50782E-03   -0.57125E-03  5659   0.497E-02    0.460E-02
RMM:   3    -0.231831246903E+04   -0.10802E-04   -0.51986E-04  3756   0.204E-02    0.397E-02
RMM:   4    -0.231831247223E+04   -0.32034E-05   -0.86632E-05  2895   0.609E-03
 192 F= -.23388220E+04 E0= -.23388220E+04  d E =-.259112E-03  mag=     4.0000
       N       E                     dE             d eps       ncg     rms          rms(c)
DAV:   1    -0.231831242993E+04    0.39094E-04   -0.17277E-03  5384   0.418E-02    0.182E-02
RMM:   2    -0.231831244010E+04   -0.10166E-04   -0.13147E-04  3273   0.861E-03    0.153E-02
RMM:   3    -0.231831244089E+04   -0.79066E-06   -0.16597E-05  2807   0.515E-03
 193 F= -.23388220E+04 E0= -.23388220E+04  d E =-.230722E-03  mag=     4.0000
       N       E                     dE             d eps       ncg     rms          rms(c)
DAV:   1    -0.231831215836E+04    0.28174E-03   -0.80620E-02  4420   0.277E-01    0.875E-02
RMM:   2    -0.231831263758E+04   -0.47923E-03   -0.52679E-03  5729   0.464E-02    0.463E-02
RMM:   3    -0.231831265490E+04   -0.17320E-04   -0.48683E-04  3609   0.188E-02    0.400E-02
RMM:   4    -0.231831265213E+04    0.27748E-05   -0.67724E-05  2862   0.556E-03
 194 F= -.23388222E+04 E0= -.23388222E+04  d E =-.219597E-03  mag=     4.0000
       N       E                     dE             d eps       ncg     rms          rms(c)
DAV:   1    -0.231831258679E+04    0.68112E-04   -0.75269E-03  4944   0.849E-02    0.337E-02
RMM:   2    -0.231831264949E+04   -0.62700E-04   -0.53375E-04  5025   0.159E-02    0.538E-02
RMM:   3    -0.231831263289E+04    0.16606E-04   -0.67606E-05  2843   0.712E-03    0.175E-02
RMM:   4    -0.231831262999E+04    0.28988E-05   -0.92840E-06  2861   0.284E-03
 195 F= -.23388222E+04 E0= -.23388222E+04  d E =-.200090E-03  mag=     4.0000
       N       E                     dE             d eps       ncg     rms          rms(c)
DAV:   1    -0.231831246425E+04    0.16864E-03   -0.62869E-02  4420   0.248E-01    0.784E-02
RMM:   2    -0.231831282564E+04   -0.36139E-03   -0.40401E-03  5768   0.414E-02    0.378E-02
RMM:   3    -0.231831283456E+04   -0.89194E-05   -0.34468E-04  3476   0.170E-02    0.329E-02
RMM:   4    -0.231831283545E+04   -0.88576E-06   -0.55954E-05  2867   0.525E-03
 196 F= -.23388224E+04 E0= -.23388224E+04  d E =-.229021E-03  mag=     4.0000
       N       E                     dE             d eps       ncg     rms          rms(c)
DAV:   1    -0.231831277675E+04    0.57818E-04   -0.64881E-03  5056   0.799E-02    0.276E-02
RMM:   2    -0.231831281428E+04   -0.37539E-04   -0.45129E-04  4957   0.152E-02    0.146E-02
RMM:   3    -0.231831281445E+04   -0.16787E-06   -0.40978E-05  2841   0.658E-03
 197 F= -.23388224E+04 E0= -.23388224E+04  d E =-.215793E-03  mag=     4.0000
       N       E                     dE             d eps       ncg     rms          rms(c)
DAV:   1    -0.231831272875E+04    0.85536E-04   -0.42733E-02  4420   0.206E-01    0.702E-02
RMM:   2    -0.231831298806E+04   -0.25932E-03   -0.28706E-03  5848   0.359E-02    0.430E-02
RMM:   3    -0.231831301061E+04   -0.22550E-04   -0.27105E-04  3256   0.134E-02    0.612E-02
RMM:   4    -0.231831298208E+04    0.28531E-04   -0.42847E-05  2846   0.491E-03    0.192E-02
RMM:   5    -0.231831297730E+04    0.47849E-05   -0.24188E-05  2899   0.415E-03
 198 F= -.23388226E+04 E0= -.23388226E+04  d E =-.201152E-03  mag=     4.0000
       N       E                     dE             d eps       ncg     rms          rms(c)
DAV:   1    -0.231831293979E+04    0.42293E-04   -0.46765E-03  4984   0.685E-02    0.234E-02
RMM:   2    -0.231831296916E+04   -0.29365E-04   -0.33071E-04  4786   0.139E-02    0.111E-02
RMM:   3    -0.231831297043E+04   -0.12768E-05   -0.29556E-05  2841   0.604E-03
 199 F= -.23388226E+04 E0= -.23388226E+04  d E =-.207093E-03  mag=     4.0000
       N       E                     dE             d eps       ncg     rms          rms(c)
DAV:   1    -0.231831290596E+04    0.63196E-04   -0.32248E-02  4420   0.180E-01    0.634E-02
RMM:   2    -0.231831309891E+04   -0.19295E-03   -0.21920E-03  5824   0.318E-02    0.335E-02
RMM:   3    -0.231831310869E+04   -0.97863E-05   -0.21438E-04  3083   0.124E-02    0.404E-02
RMM:   4    -0.231831309928E+04    0.94080E-05   -0.32193E-05  2842   0.432E-03
 200 F= -.23388228E+04 E0= -.23388228E+04  d E =-.163077E-03  mag=     4.0000
       N       E                     dE             d eps       ncg     rms          rms(c)
DAV:   1    -0.231831307182E+04    0.36873E-04   -0.16645E-03  5304   0.413E-02    0.163E-02
RMM:   2    -0.231831308146E+04   -0.96449E-05   -0.12612E-04  3375   0.876E-03    0.894E-03
RMM:   3    -0.231831308227E+04   -0.80264E-06   -0.14844E-05  2800   0.539E-03
 201 F= -.23388228E+04 E0= -.23388228E+04  d E =-.154212E-03  mag=     4.0000
