       N       E                     dE             d eps       ncg     rms          rms(c)
DAV:   1     0.128941480888E+05    0.12894E+05   -0.83638E+05  4512   0.144E+03
DAV:   2    -0.105805799423E+04   -0.13952E+05   -0.13340E+05  5128   0.330E+02
DAV:   3    -0.248175370149E+04   -0.14237E+04   -0.14085E+04  5424   0.112E+02
DAV:   4    -0.252773219309E+04   -0.45978E+02   -0.45738E+02  6752   0.301E+01
DAV:   5    -0.252854042478E+04   -0.80823E+00   -0.80694E+00  6144   0.346E+00    0.171E+02
RMM:   6    -0.149493095123E+04    0.10336E+04   -0.19580E+03  4444   0.386E+01    0.730E+01
RMM:   7    -0.166514123229E+04   -0.17021E+03   -0.29306E+02  5100   0.144E+01    0.540E+01
RMM:   8    -0.171475518115E+04   -0.49614E+02   -0.10151E+02  5339   0.812E+00    0.425E+01
RMM:   9    -0.178448624859E+04   -0.69731E+02   -0.56613E+01  5029   0.739E+00    0.310E+01
RMM:  10    -0.192152847121E+04   -0.13704E+03   -0.59128E+01  5231   0.716E+00    0.294E+01
RMM:  11    -0.199722239520E+04   -0.75694E+02   -0.33182E+01  5343   0.503E+00    0.204E+01
RMM:  12    -0.209018583349E+04   -0.92963E+02   -0.41235E+01  4908   0.506E+00    0.156E+01
RMM:  13    -0.218243379715E+04   -0.92248E+02   -0.58720E+01  4775   0.565E+00    0.133E+01
RMM:  14    -0.226645190536E+04   -0.84018E+02   -0.65354E+01  4629   0.600E+00    0.104E+01
RMM:  15    -0.230883228385E+04   -0.42380E+02   -0.41365E+01  4513   0.474E+00    0.596E+00
RMM:  16    -0.231737632257E+04   -0.85440E+01   -0.10510E+01  4980   0.259E+00    0.444E+00
RMM:  17    -0.232056773652E+04   -0.31914E+01   -0.29933E+00  5056   0.111E+00    0.289E+00
RMM:  18    -0.232188338715E+04   -0.13157E+01   -0.74754E-01  4873   0.663E-01    0.176E+00
RMM:  19    -0.232250124493E+04   -0.61786E+00   -0.44077E-01  4806   0.382E-01    0.824E-01
RMM:  20    -0.232271019535E+04   -0.20895E+00   -0.20167E-01  4708   0.276E-01    0.435E-01
RMM:  21    -0.232276451379E+04   -0.54318E-01   -0.60220E-02  4906   0.156E-01    0.348E-01
RMM:  22    -0.232279492666E+04   -0.30413E-01   -0.19603E-02  4704   0.795E-02    0.275E-01
RMM:  23    -0.232281989005E+04   -0.24963E-01   -0.10610E-02  4492   0.708E-02    0.123E-01
RMM:  24    -0.232283210249E+04   -0.12212E-01   -0.39192E-03  4599   0.491E-02    0.123E-01
RMM:  25    -0.232283781328E+04   -0.57108E-02   -0.14459E-03  4568   0.295E-02    0.703E-02
RMM:  26    -0.232284564803E+04   -0.78348E-02   -0.17252E-03  4437   0.286E-02    0.570E-02
RMM:  27    -0.232284949448E+04   -0.38464E-02   -0.99185E-04  4245   0.233E-02    0.285E-02
RMM:  28    -0.232285116916E+04   -0.16747E-02   -0.45192E-04  4274   0.148E-02    0.247E-02
RMM:  29    -0.232285191820E+04   -0.74904E-03   -0.20091E-04  4046   0.995E-03    0.998E-03
RMM:  30    -0.232285212600E+04   -0.20780E-03   -0.52405E-05  3547   0.620E-03    0.595E-03
RMM:  31    -0.232285221661E+04   -0.90606E-04   -0.19626E-05  3048   0.399E-03    0.315E-03
RMM:  32    -0.232285224643E+04   -0.29818E-04   -0.67530E-06  2836   0.323E-03    0.228E-03
RMM:  33    -0.232285226344E+04   -0.17008E-04   -0.44262E-06  2666   0.229E-03    0.118E-03
RMM:  34    -0.232285227121E+04   -0.77788E-05   -0.26093E-06  2481   0.197E-03
   1 F= -.23438137E+04 E0= -.23438132E+04  d E =-.234381E+04  mag=     3.9905
       N       E                     dE             d eps       ncg     rms          rms(c)
DAV:   1    -0.232284259604E+04    0.96674E-02   -0.83682E+00  5008   0.269E+00    0.819E-01
RMM:   2    -0.232295995796E+04   -0.11736E+00   -0.12564E+00  6374   0.631E-01    0.541E-01
RMM:   3    -0.232296728748E+04   -0.73295E-02   -0.11692E-01  6073   0.213E-01    0.439E-01
RMM:   4    -0.232296720904E+04    0.78440E-04   -0.13274E-02  6201   0.505E-02    0.447E-01
RMM:   5    -0.232296531548E+04    0.18936E-02   -0.33983E-03  5718   0.322E-02    0.196E-01
RMM:   6    -0.232296535885E+04   -0.43370E-04   -0.17210E-03  5426   0.223E-02    0.222E-01
RMM:   7    -0.232296491779E+04    0.44105E-03   -0.57267E-04  4511   0.142E-02    0.860E-02
RMM:   8    -0.232296485285E+04    0.64947E-04   -0.10164E-04  3478   0.641E-03    0.301E-02
RMM:   9    -0.232296484427E+04    0.85747E-05   -0.29491E-05  2916   0.557E-03
   2 F= -.23439264E+04 E0= -.23439259E+04  d E =-.112700E+00  mag=     3.9916
       N       E                     dE             d eps       ncg     rms          rms(c)
DAV:   1    -0.232299669227E+04   -0.31839E-01   -0.33929E+00  4704   0.169E+00    0.558E-01
RMM:   2    -0.232303267827E+04   -0.35986E-01   -0.39031E-01  6263   0.366E-01    0.318E-01
RMM:   3    -0.232303461174E+04   -0.19335E-02   -0.36893E-02  5688   0.120E-01    0.244E-01
RMM:   4    -0.232303468003E+04   -0.68285E-04   -0.43633E-03  5502   0.291E-02    0.255E-01
RMM:   5    -0.232303412615E+04    0.55388E-03   -0.14884E-03  5133   0.207E-02    0.121E-01
RMM:   6    -0.232303400948E+04    0.11667E-03   -0.34152E-04  4580   0.127E-02    0.516E-02
RMM:   7    -0.232303402482E+04   -0.15340E-04   -0.76952E-05  3118   0.699E-03    0.580E-02
RMM:   8    -0.232303400042E+04    0.24393E-04   -0.51347E-05  2979   0.508E-03    0.290E-02
RMM:   9    -0.232303399667E+04    0.37549E-05   -0.14103E-05  2897   0.320E-03
   3 F= -.23439953E+04 E0= -.23439948E+04  d E =-.689394E-01  mag=     3.9912
       N       E                     dE             d eps       ncg     rms          rms(c)
DAV:   1    -0.232287659083E+04    0.15741E+00   -0.23714E+01  4544   0.425E+00    0.130E+00
RMM:   2    -0.232318263954E+04   -0.30605E+00   -0.32327E+00  6504   0.954E-01    0.905E-01
RMM:   3    -0.232320446540E+04   -0.21826E-01   -0.32963E-01  6018   0.304E-01    0.812E-01
RMM:   4    -0.232320143855E+04    0.30268E-02   -0.32831E-02  6190   0.682E-02    0.502E-01
RMM:   5    -0.232319920002E+04    0.22385E-02   -0.73049E-03  5317   0.420E-02    0.361E-01
RMM:   6    -0.232319785809E+04    0.13419E-02   -0.40114E-03  5824   0.323E-02    0.161E-01
RMM:   7    -0.232319785557E+04    0.25202E-05   -0.59280E-04  4447   0.175E-02    0.122E-01
RMM:   8    -0.232319774700E+04    0.10856E-03   -0.25852E-04  3799   0.881E-03    0.708E-02
RMM:   9    -0.232319771090E+04    0.36100E-04   -0.76806E-05  3001   0.615E-03    0.211E-02
RMM:  10    -0.232319771732E+04   -0.64131E-05   -0.15888E-05  2892   0.408E-03
   4 F= -.23441576E+04 E0= -.23441571E+04  d E =-.162266E+00  mag=     3.9918
       N       E                     dE             d eps       ncg     rms          rms(c)
DAV:   1    -0.232307242310E+04    0.12529E+00   -0.19588E+01  4528   0.377E+00    0.117E+00
RMM:   2    -0.232332510995E+04   -0.25269E+00   -0.26284E+00  6534   0.861E-01    0.891E-01
RMM:   3    -0.232334322842E+04   -0.18118E-01   -0.26653E-01  6181   0.269E-01    0.843E-01
RMM:   4    -0.232333830107E+04    0.49273E-02   -0.27014E-02  6272   0.637E-02    0.419E-01
RMM:   5    -0.232333634944E+04    0.19516E-02   -0.54492E-03  5228   0.366E-02    0.274E-01
RMM:   6    -0.232333616872E+04    0.18072E-03   -0.35919E-03  5729   0.311E-02    0.243E-01
RMM:   7    -0.232333569160E+04    0.47712E-03   -0.10679E-03  5085   0.176E-02    0.138E-01
RMM:   8    -0.232333553218E+04    0.15942E-03   -0.17986E-04  3443   0.780E-03    0.361E-02
RMM:   9    -0.232333553184E+04    0.34389E-06   -0.62083E-05  3046   0.571E-03
   5 F= -.23442917E+04 E0= -.23442915E+04  d E =-.134144E+00  mag=     3.9951
       N       E                     dE             d eps       ncg     rms          rms(c)
DAV:   1    -0.232331948793E+04    0.16044E-01   -0.16037E-01  4800   0.309E-01    0.103E-01
RMM:   2    -0.232332122604E+04   -0.17381E-02   -0.17924E-02  6497   0.753E-02    0.752E-02
RMM:   3    -0.232332135291E+04   -0.12687E-03   -0.16275E-03  3775   0.211E-02    0.814E-02
RMM:   4    -0.232332129975E+04    0.53163E-04   -0.21084E-04  3067   0.696E-03    0.354E-02
RMM:   5    -0.232332128860E+04    0.11150E-04   -0.49030E-05  2986   0.458E-03    0.232E-02
RMM:   6    -0.232332129290E+04   -0.43091E-05   -0.29770E-05  2828   0.409E-03
   6 F= -.23442780E+04 E0= -.23442778E+04  d E =0.137031E-01  mag=     3.9955
       N       E                     dE             d eps       ncg     rms          rms(c)
DAV:   1    -0.232319484863E+04    0.12644E+00   -0.52099E+00  4528   0.171E+00    0.581E-01
RMM:   2    -0.232324458670E+04   -0.49738E-01   -0.51280E-01  6595   0.427E-01    0.445E-01
RMM:   3    -0.232324762988E+04   -0.30432E-02   -0.40786E-02  6129   0.104E-01    0.479E-01
RMM:   4    -0.232324567678E+04    0.19531E-02   -0.61823E-03  5598   0.316E-02    0.187E-01
RMM:   5    -0.232324538212E+04    0.29466E-03   -0.13226E-03  4669   0.189E-02    0.985E-02
RMM:   6    -0.232324560354E+04   -0.22142E-03   -0.70162E-04  4186   0.152E-02    0.154E-01
RMM:   7    -0.232324535451E+04    0.24904E-03   -0.25325E-04  3548   0.891E-03    0.339E-02
RMM:   8    -0.232324535075E+04    0.37517E-05   -0.44366E-05  2973   0.451E-03
   7 F= -.23442050E+04 E0= -.23442046E+04  d E =0.730227E-01  mag=     3.9936
       N       E                     dE             d eps       ncg     rms          rms(c)
DAV:   1    -0.232307985766E+04    0.16550E+00   -0.87748E+00  4496   0.228E+00    0.823E-01
RMM:   2    -0.232318394467E+04   -0.10409E+00   -0.10846E+00  6614   0.612E-01    0.575E-01
RMM:   3    -0.232319030795E+04   -0.63633E-02   -0.95724E-02  6026   0.154E-01    0.614E-01
RMM:   4    -0.232318695098E+04    0.33570E-02   -0.12359E-02  5808   0.464E-02    0.274E-01
RMM:   5    -0.232318619930E+04    0.75168E-03   -0.26003E-03  4840   0.232E-02    0.120E-01
RMM:   6    -0.232318620501E+04   -0.57116E-05   -0.55678E-04  4473   0.161E-02    0.698E-02
RMM:   7    -0.232318626924E+04   -0.64221E-04   -0.23889E-04  3632   0.903E-03    0.930E-02
RMM:   8    -0.232318619059E+04    0.78641E-04   -0.98457E-05  3082   0.699E-03    0.254E-02
RMM:   9    -0.232318619647E+04   -0.58720E-05   -0.18209E-05  2896   0.350E-03
   8 F= -.23441481E+04 E0= -.23441477E+04  d E =0.568835E-01  mag=     3.9932
       N       E                     dE             d eps       ncg     rms          rms(c)
DAV:   1    -0.232304116179E+04    0.14503E+00   -0.78054E+00  4496   0.216E+00    0.837E-01
RMM:   2    -0.232315644521E+04   -0.11528E+00   -0.12168E+00  6673   0.621E-01    0.516E-01
RMM:   3    -0.232316369939E+04   -0.72542E-02   -0.11624E-01  5914   0.166E-01    0.524E-01
RMM:   4    -0.232316192986E+04    0.17695E-02   -0.13363E-02  5525   0.447E-02    0.284E-01
RMM:   5    -0.232316097558E+04    0.95427E-03   -0.22785E-03  4918   0.202E-02    0.136E-01
RMM:   6    -0.232316106001E+04   -0.84427E-04   -0.72219E-04  4474   0.155E-02    0.129E-01
RMM:   7    -0.232316097949E+04    0.80519E-04   -0.37683E-04  3548   0.102E-02    0.857E-02
RMM:   8    -0.232316092392E+04    0.55575E-04   -0.83338E-05  3253   0.652E-03    0.270E-02
RMM:   9    -0.232316092958E+04   -0.56648E-05   -0.25446E-05  2884   0.455E-03
   9 F= -.23441237E+04 E0= -.23441236E+04  d E =0.243493E-01  mag=     3.9960
       N       E                     dE             d eps       ncg     rms          rms(c)
DAV:   1    -0.232299801759E+04    0.16291E+00   -0.90745E+00  4480   0.247E+00    0.948E-01
RMM:   2    -0.232315245591E+04   -0.15444E+00   -0.16432E+00  6676   0.708E-01    0.603E-01
RMM:   3    -0.232316259247E+04   -0.10137E-01   -0.16223E-01  5964   0.199E-01    0.615E-01
RMM:   4    -0.232316027945E+04    0.23130E-02   -0.17538E-02  5688   0.508E-02    0.327E-01
RMM:   5    -0.232315897795E+04    0.13015E-02   -0.27448E-03  5190   0.223E-02    0.176E-01
RMM:   6    -0.232315926778E+04   -0.28982E-03   -0.14914E-03  5123   0.184E-02    0.224E-01
RMM:   7    -0.232315879615E+04    0.47163E-03   -0.80129E-04  4344   0.148E-02    0.739E-02
RMM:   8    -0.232315875733E+04    0.38819E-04   -0.14088E-04  3479   0.682E-03    0.360E-02
RMM:   9    -0.232315875269E+04    0.46412E-05   -0.38737E-05  2899   0.563E-03
  10 F= -.23441222E+04 E0= -.23441221E+04  d E =0.158274E-02  mag=     3.9985
       N       E                     dE             d eps       ncg     rms          rms(c)
DAV:   1    -0.232287600908E+04    0.28275E+00   -0.16125E+01  4480   0.343E+00    0.128E+00
RMM:   2    -0.232315938098E+04   -0.28337E+00   -0.30488E+00  6661   0.968E-01    0.803E-01
RMM:   3    -0.232317695421E+04   -0.17573E-01   -0.30203E-01  6039   0.276E-01    0.777E-01
RMM:   4    -0.232317440301E+04    0.25512E-02   -0.32101E-02  6029   0.664E-02    0.470E-01
RMM:   5    -0.232317190222E+04    0.25008E-02   -0.39874E-03  5374   0.274E-02    0.252E-01
RMM:   6    -0.232317165328E+04    0.24894E-03   -0.32801E-03  5485   0.300E-02    0.177E-01
RMM:   7    -0.232317144797E+04    0.20531E-03   -0.89742E-04  4789   0.156E-02    0.115E-01
RMM:   8    -0.232317132432E+04    0.12365E-03   -0.28787E-04  4087   0.970E-03    0.535E-02
RMM:   9    -0.232317129608E+04    0.28245E-04   -0.82253E-05  2966   0.677E-03    0.147E-02
RMM:  10    -0.232317130160E+04   -0.55187E-05   -0.18526E-05  2911   0.346E-03
  11 F= -.23441354E+04 E0= -.23441354E+04  d E =-.132147E-01  mag=     3.9996
       N       E                     dE             d eps       ncg     rms          rms(c)
DAV:   1    -0.232303655705E+04    0.13474E+00   -0.85479E+00  4480   0.259E+00    0.901E-01
RMM:   2    -0.232317626737E+04   -0.13971E+00   -0.15037E+00  6654   0.701E-01    0.622E-01
RMM:   3    -0.232318524955E+04   -0.89822E-02   -0.14782E-01  6132   0.201E-01    0.608E-01
RMM:   4    -0.232318306776E+04    0.21818E-02   -0.15759E-02  5932   0.492E-02    0.325E-01
RMM:   5    -0.232318211593E+04    0.95183E-03   -0.20681E-03  5139   0.200E-02    0.218E-01
RMM:   6    -0.232318217796E+04   -0.62026E-04   -0.22743E-03  5283   0.253E-02    0.217E-01
RMM:   7    -0.232318162706E+04    0.55089E-03   -0.64464E-04  4882   0.137E-02    0.482E-02
RMM:   8    -0.232318161167E+04    0.15390E-04   -0.98233E-05  3362   0.751E-03    0.287E-02
RMM:   9    -0.232318160475E+04    0.69246E-05   -0.36220E-05  2883   0.505E-03
  12 F= -.23441462E+04 E0= -.23441462E+04  d E =-.108481E-01  mag=     3.9999
       N       E                     dE             d eps       ncg     rms          rms(c)
DAV:   1    -0.232318241840E+04   -0.80672E-03   -0.11416E-01  4832   0.315E-01    0.950E-02
RMM:   2    -0.232318374232E+04   -0.13239E-02   -0.14141E-02  6497   0.753E-02    0.729E-02
RMM:   3    -0.232318379999E+04   -0.57670E-04   -0.12485E-03  3713   0.208E-02    0.602E-02
RMM:   4    -0.232318377741E+04    0.22580E-04   -0.15033E-04  3048   0.665E-03    0.352E-02
RMM:   5    -0.232318377224E+04    0.51684E-05   -0.28875E-05  2893   0.396E-03
  13 F= -.23441485E+04 E0= -.23441485E+04  d E =-.225040E-02  mag=     3.9999
       N       E                     dE             d eps       ncg     rms          rms(c)
DAV:   1    -0.232318545999E+04   -0.16826E-02   -0.77253E-01  4544   0.666E-01    0.272E-01
RMM:   2    -0.232319614981E+04   -0.10690E-01   -0.11097E-01  6660   0.183E-01    0.253E-01
RMM:   3    -0.232319660691E+04   -0.45710E-03   -0.11374E-02  5631   0.506E-02    0.215E-01
RMM:   4    -0.232319617049E+04    0.43642E-03   -0.12178E-03  3811   0.157E-02    0.754E-02
RMM:   5    -0.232319612459E+04    0.45905E-04   -0.24516E-04  3346   0.766E-03    0.534E-02
RMM:   6    -0.232319614551E+04   -0.20923E-04   -0.14308E-04  3330   0.679E-03    0.700E-02
RMM:   7    -0.232319609472E+04    0.50788E-04   -0.71529E-05  3055   0.610E-03    0.123E-02
RMM:   8    -0.232319609404E+04    0.67912E-06   -0.12450E-05  2844   0.315E-03
  14 F= -.23441610E+04 E0= -.23441610E+04  d E =-.125276E-01  mag=     4.0000
       N       E                     dE             d eps       ncg     rms          rms(c)
DAV:   1    -0.232320848812E+04   -0.12393E-01   -0.42662E+00  4480   0.211E+00    0.499E-01
RMM:   2    -0.232323887953E+04   -0.30391E-01   -0.30383E-01  6208   0.396E-01    0.503E-01
RMM:   3    -0.232323801481E+04    0.86472E-03   -0.25502E-02  5978   0.121E-01    0.305E-01
RMM:   4    -0.232323704791E+04    0.96690E-03   -0.29834E-03  5274   0.307E-02    0.154E-01
RMM:   5    -0.232323726912E+04   -0.22121E-03   -0.12606E-03  5330   0.222E-02    0.220E-01
RMM:   6    -0.232323679682E+04    0.47231E-03   -0.69227E-04  5342   0.171E-02    0.615E-02
RMM:   7    -0.232323677161E+04    0.25213E-04   -0.88885E-05  3291   0.826E-03    0.191E-02
RMM:   8    -0.232323676833E+04    0.32730E-05   -0.15188E-05  2897   0.388E-03
  15 F= -.23442028E+04 E0= -.23442028E+04  d E =-.418331E-01  mag=     4.0000
       N       E                     dE             d eps       ncg     rms          rms(c)
DAV:   1    -0.232321639415E+04    0.20377E-01   -0.10304E+01  4464   0.322E+00    0.838E-01
RMM:   2    -0.232329969131E+04   -0.83297E-01   -0.81411E-01  6338   0.629E-01    0.909E-01
RMM:   3    -0.232329560888E+04    0.40824E-02   -0.69041E-02  6122   0.180E-01    0.528E-01
RMM:   4    -0.232329294861E+04    0.26603E-02   -0.86416E-03  5625   0.505E-02    0.277E-01
RMM:   5    -0.232329306754E+04   -0.11893E-03   -0.26406E-03  5601   0.300E-02    0.298E-01
RMM:   6    -0.232329225492E+04    0.81263E-03   -0.17519E-03  5286   0.269E-02    0.122E-01
RMM:   7    -0.232329211156E+04    0.14336E-03   -0.38843E-04  4603   0.162E-02    0.313E-02
RMM:   8    -0.232329210803E+04    0.35215E-05   -0.53448E-05  2996   0.508E-03
  16 F= -.23442599E+04 E0= -.23442599E+04  d E =-.570460E-01  mag=     4.0000
       N       E                     dE             d eps       ncg     rms          rms(c)
DAV:   1    -0.232328513039E+04    0.69812E-02   -0.49868E+00  4480   0.222E+00    0.590E-01
RMM:   2    -0.232332722525E+04   -0.42095E-01   -0.41300E-01  6330   0.439E-01    0.640E-01
RMM:   3    -0.232332572455E+04    0.15007E-02   -0.35014E-02  6098   0.125E-01    0.380E-01
RMM:   4    -0.232332435388E+04    0.13707E-02   -0.46162E-03  5560   0.352E-02    0.196E-01
RMM:   5    -0.232332442675E+04   -0.72871E-04   -0.13480E-03  5336   0.212E-02    0.214E-01
RMM:   6    -0.232332398986E+04    0.43688E-03   -0.93229E-04  5264   0.196E-02    0.848E-02
RMM:   7    -0.232332392705E+04    0.62817E-04   -0.19136E-04  3962   0.115E-02    0.235E-02
RMM:   8    -0.232332392355E+04    0.34962E-05   -0.25311E-05  2926   0.426E-03
  17 F= -.23442928E+04 E0= -.23442928E+04  d E =-.329082E-01  mag=     3.9999
       N       E                     dE             d eps       ncg     rms          rms(c)
DAV:   1    -0.232332476548E+04   -0.83843E-03   -0.23406E+00  4512   0.147E+00    0.420E-01
RMM:   2    -0.232334593908E+04   -0.21174E-01   -0.20698E-01  6399   0.299E-01    0.477E-01
RMM:   3    -0.232334508783E+04    0.85125E-03   -0.17715E-02  6065   0.841E-02    0.278E-01
RMM:   4    -0.232334438682E+04    0.70101E-03   -0.25228E-03  5332   0.248E-02    0.139E-01
RMM:   5    -0.232334439807E+04   -0.11248E-04   -0.66405E-04  4809   0.146E-02    0.143E-01
RMM:   6    -0.232334420718E+04    0.19089E-03   -0.45674E-04  4917   0.136E-02    0.645E-02
RMM:   7    -0.232334416911E+04    0.38074E-04   -0.10254E-04  3433   0.845E-03    0.169E-02
RMM:   8    -0.232334416776E+04    0.13411E-05   -0.14928E-05  2912   0.393E-03
  18 F= -.23443137E+04 E0= -.23443137E+04  d E =-.209527E-01  mag=     3.9999
       N       E                     dE             d eps       ncg     rms          rms(c)
DAV:   1    -0.232333486525E+04    0.93039E-02   -0.36784E+00  4496   0.181E+00    0.528E-01
RMM:   2    -0.232337025584E+04   -0.35391E-01   -0.34985E-01  6421   0.374E-01    0.593E-01
RMM:   3    -0.232336937605E+04    0.87979E-03   -0.30479E-02  6115   0.106E-01    0.350E-01
RMM:   4    -0.232336824757E+04    0.11285E-02   -0.40969E-03  5493   0.304E-02    0.172E-01
RMM:   5    -0.232336830234E+04   -0.54771E-04   -0.10533E-03  5126   0.179E-02    0.185E-01
RMM:   6    -0.232336797105E+04    0.33129E-03   -0.73318E-04  5226   0.166E-02    0.810E-02
RMM:   7    -0.232336791453E+04    0.56522E-04   -0.15993E-04  3693   0.959E-03    0.218E-02
RMM:   8    -0.232336791103E+04    0.34975E-05   -0.21750E-05  2919   0.426E-03
  19 F= -.23443384E+04 E0= -.23443384E+04  d E =-.246492E-01  mag=     3.9999
       N       E                     dE             d eps       ncg     rms          rms(c)
DAV:   1    -0.232335955830E+04    0.83562E-02   -0.28031E+00  4512   0.153E+00    0.473E-01
RMM:   2    -0.232338924839E+04   -0.29690E-01   -0.29692E-01  6475   0.328E-01    0.517E-01
RMM:   3    -0.232338903223E+04    0.21615E-03   -0.26740E-02  6112   0.934E-02    0.315E-01
RMM:   4    -0.232338812115E+04    0.91108E-03   -0.34711E-03  5367   0.264E-02    0.151E-01
RMM:   5    -0.232338817639E+04   -0.55240E-04   -0.83715E-04  4867   0.155E-02    0.165E-01
RMM:   6    -0.232338790974E+04    0.26665E-03   -0.58812E-04  4988   0.145E-02    0.736E-02
RMM:   7    -0.232338786609E+04    0.43653E-04   -0.12563E-04  3503   0.833E-03    0.205E-02
RMM:   8    -0.232338786269E+04    0.33999E-05   -0.18169E-05  2912   0.409E-03
  20 F= -.23443592E+04 E0= -.23443592E+04  d E =-.207789E-01  mag=     3.9998
       N       E                     dE             d eps       ncg     rms          rms(c)
DAV:   1    -0.232337488084E+04    0.12985E-01   -0.29334E+00  4496   0.153E+00    0.491E-01
RMM:   2    -0.232340854876E+04   -0.33668E-01   -0.34015E-01  6511   0.339E-01    0.514E-01
RMM:   3    -0.232340885677E+04   -0.30802E-03   -0.31726E-02  6145   0.978E-02    0.324E-01
RMM:   4    -0.232340789733E+04    0.95944E-03   -0.39383E-03  5345   0.268E-02    0.155E-01
RMM:   5    -0.232340796770E+04   -0.70363E-04   -0.89314E-04  4857   0.155E-02    0.172E-01
RMM:   6    -0.232340767550E+04    0.29219E-03   -0.62460E-04  4907   0.146E-02    0.760E-02
RMM:   7    -0.232340763343E+04    0.42075E-04   -0.12734E-04  3492   0.808E-03    0.217E-02
RMM:   8    -0.232340762902E+04    0.44082E-05   -0.18847E-05  2919   0.422E-03
  21 F= -.23443798E+04 E0= -.23443798E+04  d E =-.206421E-01  mag=     3.9998
       N       E                     dE             d eps       ncg     rms          rms(c)
DAV:   1    -0.232338498471E+04    0.22649E-01   -0.36303E+00  4496   0.167E+00    0.553E-01
RMM:   2    -0.232342926508E+04   -0.44280E-01   -0.45113E-01  6556   0.380E-01    0.555E-01
RMM:   3    -0.232343028273E+04   -0.10177E-02   -0.43116E-02  6188   0.111E-01    0.363E-01
RMM:   4    -0.232342907875E+04    0.12040E-02   -0.51781E-03  5398   0.296E-02    0.170E-01
RMM:   5    -0.232342915569E+04   -0.76948E-04   -0.10869E-03  4948   0.170E-02    0.189E-01
RMM:   6    -0.232342881340E+04    0.34229E-03   -0.74804E-04  5011   0.157E-02    0.891E-02
RMM:   7    -0.232342875760E+04    0.55799E-04   -0.15740E-04  3636   0.850E-03    0.252E-02
RMM:   8    -0.232342875129E+04    0.63090E-05   -0.23640E-05  2929   0.447E-03
  22 F= -.23444020E+04 E0= -.23444019E+04  d E =-.221479E-01  mag=     3.9998
       N       E                     dE             d eps       ncg     rms          rms(c)
DAV:   1    -0.232342932277E+04   -0.56517E-03   -0.53222E-01  4592   0.631E-01    0.218E-01
RMM:   2    -0.232343688242E+04   -0.75597E-02   -0.78735E-02  6557   0.152E-01    0.187E-01
RMM:   3    -0.232343728744E+04   -0.40501E-03   -0.75596E-03  5445   0.454E-02    0.142E-01
RMM:   4    -0.232343710939E+04    0.17805E-03   -0.88640E-04  3537   0.119E-02    0.678E-02
RMM:   5    -0.232343711546E+04   -0.60728E-05   -0.16075E-04  3206   0.737E-03    0.739E-02
RMM:   6    -0.232343706433E+04    0.51132E-04   -0.11719E-04  3146   0.711E-03    0.334E-02
RMM:   7    -0.232343705824E+04    0.60834E-05   -0.22852E-05  2939   0.467E-03
  23 F= -.23444107E+04 E0= -.23444107E+04  d E =-.871002E-02  mag=     3.9998
       N       E                     dE             d eps       ncg     rms          rms(c)
DAV:   1    -0.232343909080E+04   -0.20265E-02   -0.13666E-01  4592   0.337E-01    0.109E-01
RMM:   2    -0.232344101687E+04   -0.19261E-02   -0.20311E-02  6483   0.795E-02    0.817E-02
RMM:   3    -0.232344114336E+04   -0.12650E-03   -0.19168E-03  4064   0.248E-02    0.674E-02
RMM:   4    -0.232344110263E+04    0.40731E-04   -0.22220E-04  3036   0.745E-03    0.321E-02
RMM:   5    -0.232344109873E+04    0.38998E-05   -0.35241E-05  2897   0.441E-03
  24 F= -.23444149E+04 E0= -.23444149E+04  d E =-.420194E-02  mag=     3.9998
       N       E                     dE             d eps       ncg     rms          rms(c)
DAV:   1    -0.232339485935E+04    0.46243E-01   -0.46981E+00  4480   0.189E+00    0.637E-01
RMM:   2    -0.232346257769E+04   -0.67718E-01   -0.70990E-01  6583   0.453E-01    0.527E-01
RMM:   3    -0.232346673964E+04   -0.41619E-02   -0.70852E-02  6216   0.139E-01    0.406E-01
RMM:   4    -0.232346521438E+04    0.15253E-02   -0.77709E-03  5662   0.342E-02    0.187E-01
RMM:   5    -0.232346488867E+04    0.32571E-03   -0.10581E-03  4694   0.193E-02    0.115E-01
RMM:   6    -0.232346508869E+04   -0.20002E-03   -0.78268E-04  4763   0.156E-02    0.174E-01
RMM:   7    -0.232346480125E+04    0.28744E-03   -0.25687E-04  3691   0.922E-03    0.252E-02
RMM:   8    -0.232346479527E+04    0.59793E-05   -0.43413E-05  2991   0.458E-03
  25 F= -.23444396E+04 E0= -.23444396E+04  d E =-.247563E-01  mag=     3.9998
       N       E                     dE             d eps       ncg     rms          rms(c)
DAV:   1    -0.232334709055E+04    0.11771E+00   -0.99830E+00  4480   0.275E+00    0.934E-01
RMM:   2    -0.232349215520E+04   -0.14506E+00   -0.15210E+00  6603   0.660E-01    0.780E-01
RMM:   3    -0.232350115234E+04   -0.89971E-02   -0.15370E-01  6277   0.201E-01    0.609E-01
RMM:   4    -0.232349783489E+04    0.33175E-02   -0.16539E-02  5892   0.487E-02    0.275E-01
RMM:   5    -0.232349736765E+04    0.46723E-03   -0.24199E-03  5133   0.266E-02    0.215E-01
RMM:   6    -0.232349743484E+04   -0.67184E-04   -0.17977E-03  5436   0.222E-02    0.229E-01
RMM:   7    -0.232349695901E+04    0.47582E-03   -0.51282E-04  4675   0.128E-02    0.436E-02
RMM:   8    -0.232349694252E+04    0.16492E-04   -0.92096E-05  3127   0.610E-03    0.224E-02
RMM:   9    -0.232349693413E+04    0.83928E-05   -0.23624E-05  2889   0.413E-03
  26 F= -.23444734E+04 E0= -.23444733E+04  d E =-.337287E-01  mag=     3.9999
       N       E                     dE             d eps       ncg     rms          rms(c)
DAV:   1    -0.232349677207E+04    0.17045E-03   -0.54806E-01  4560   0.634E-01    0.220E-01
RMM:   2    -0.232350454830E+04   -0.77762E-02   -0.81759E-02  6571   0.155E-01    0.172E-01
RMM:   3    -0.232350502776E+04   -0.47946E-03   -0.76901E-03  5394   0.463E-02    0.141E-01
RMM:   4    -0.232350485866E+04    0.16910E-03   -0.90262E-04  3585   0.122E-02    0.676E-02
RMM:   5    -0.232350485906E+04   -0.40277E-06   -0.16525E-04  3256   0.756E-03    0.710E-02
RMM:   6    -0.232350482333E+04    0.35731E-04   -0.11624E-04  3061   0.689E-03    0.406E-02
RMM:   7    -0.232350481083E+04    0.12499E-04   -0.21895E-05  2921   0.460E-03    0.859E-03
RMM:   8    -0.232350481024E+04    0.59193E-06   -0.45473E-06  2835   0.265E-03
  27 F= -.23444816E+04 E0= -.23444816E+04  d E =-.822090E-02  mag=     3.9999
       N       E                     dE             d eps       ncg     rms          rms(c)
DAV:   1    -0.232350528487E+04   -0.47404E-03   -0.64279E-03  5040   0.865E-02    0.259E-02
RMM:   2    -0.232350532210E+04   -0.37228E-04   -0.41134E-04  5684   0.159E-02    0.130E-02
RMM:   3    -0.232350532441E+04   -0.23101E-05   -0.35504E-05  2884   0.661E-03
  28 F= -.23444821E+04 E0= -.23444821E+04  d E =-.514630E-03  mag=     3.9999
       N       E                     dE             d eps       ncg     rms          rms(c)
DAV:   1    -0.232350658090E+04   -0.12588E-02   -0.46273E-01  4512   0.579E-01    0.198E-01
RMM:   2    -0.232351265693E+04   -0.60760E-02   -0.64471E-02  6597   0.138E-01    0.144E-01
RMM:   3    -0.232351308544E+04   -0.42851E-03   -0.60951E-03  5189   0.416E-02    0.124E-01
RMM:   4    -0.232351295220E+04    0.13324E-03   -0.71701E-04  3533   0.114E-02    0.608E-02
RMM:   5    -0.232351292580E+04    0.26405E-04   -0.12638E-04  3207   0.735E-03    0.417E-02
RMM:   6    -0.232351293845E+04   -0.12649E-04   -0.77579E-05  2972   0.600E-03    0.504E-02
RMM:   7    -0.232351291491E+04    0.23537E-04   -0.23460E-05  2875   0.410E-03    0.601E-03
RMM:   8    -0.232351291455E+04    0.36087E-06   -0.39447E-06  2766   0.203E-03
  29 F= -.23444900E+04 E0= -.23444900E+04  d E =-.792415E-02  mag=     3.9999
       N       E                     dE             d eps       ncg     rms          rms(c)
DAV:   1    -0.232351224573E+04    0.66918E-03   -0.75341E-01  4512   0.737E-01    0.251E-01
RMM:   2    -0.232352208708E+04   -0.98413E-02   -0.10446E-01  6584   0.176E-01    0.180E-01
RMM:   3    -0.232352277363E+04   -0.68655E-03   -0.97993E-03  5512   0.523E-02    0.154E-01
RMM:   4    -0.232352257177E+04    0.20186E-03   -0.11501E-03  3905   0.140E-02    0.761E-02
RMM:   5    -0.232352251792E+04    0.53847E-04   -0.18804E-04  3472   0.884E-03    0.406E-02
RMM:   6    -0.232352254258E+04   -0.24662E-04   -0.10284E-04  3090   0.671E-03    0.580E-02
RMM:   7    -0.232352251142E+04    0.31163E-04   -0.31608E-05  2905   0.467E-03    0.986E-03
RMM:   8    -0.232352251044E+04    0.98527E-06   -0.48579E-06  2812   0.211E-03
  30 F= -.23445000E+04 E0= -.23445000E+04  d E =-.100045E-01  mag=     3.9999
       N       E                     dE             d eps       ncg     rms          rms(c)
DAV:   1    -0.232350575623E+04    0.16755E-01   -0.25097E+00  4480   0.134E+00    0.457E-01
RMM:   2    -0.232353828747E+04   -0.32531E-01   -0.34497E-01  6601   0.318E-01    0.336E-01
RMM:   3    -0.232354051849E+04   -0.22310E-02   -0.32781E-02  6072   0.955E-02    0.285E-01
RMM:   4    -0.232353981268E+04    0.70581E-03   -0.37931E-03  5148   0.248E-02    0.138E-01
RMM:   5    -0.232353962197E+04    0.19071E-03   -0.61120E-04  4279   0.146E-02    0.620E-02
RMM:   6    -0.232353964052E+04   -0.18548E-04   -0.21421E-04  3748   0.988E-03    0.540E-02
RMM:   7    -0.232353961887E+04    0.21647E-04   -0.60522E-05  2924   0.559E-03    0.291E-02
RMM:   8    -0.232353961096E+04    0.79159E-05   -0.10057E-05  2896   0.301E-03
  31 F= -.23445179E+04 E0= -.23445179E+04  d E =-.178727E-01  mag=     3.9999
       N       E                     dE             d eps       ncg     rms          rms(c)
DAV:   1    -0.232351059009E+04    0.29029E-01   -0.36591E+00  4480   0.160E+00    0.552E-01
RMM:   2    -0.232355807461E+04   -0.47485E-01   -0.50299E-01  6607   0.383E-01    0.413E-01
RMM:   3    -0.232356110648E+04   -0.30319E-02   -0.47946E-02  6146   0.115E-01    0.346E-01
RMM:   4    -0.232356005557E+04    0.10509E-02   -0.54803E-03  5496   0.296E-02    0.166E-01
RMM:   5    -0.232355979513E+04    0.26044E-03   -0.89626E-04  4453   0.173E-02    0.827E-02
RMM:   6    -0.232355988754E+04   -0.92413E-04   -0.42704E-04  4105   0.124E-02    0.110E-01
RMM:   7    -0.232355977530E+04    0.11224E-03   -0.13055E-04  3067   0.688E-03    0.277E-02
RMM:   8    -0.232355976867E+04    0.66305E-05   -0.18960E-05  2935   0.363E-03
  32 F= -.23445390E+04 E0= -.23445390E+04  d E =-.211091E-01  mag=     3.9999
       N       E                     dE             d eps       ncg     rms          rms(c)
DAV:   1    -0.232354157121E+04    0.18204E-01   -0.26586E+00  4480   0.135E+00    0.470E-01
RMM:   2    -0.232357523481E+04   -0.33664E-01   -0.35673E-01  6600   0.323E-01    0.354E-01
RMM:   3    -0.232357741733E+04   -0.21825E-02   -0.34046E-02  6078   0.967E-02    0.293E-01
RMM:   4    -0.232357665405E+04    0.76327E-03   -0.39121E-03  5218   0.251E-02    0.141E-01
RMM:   5    -0.232357648822E+04    0.16584E-03   -0.65475E-04  4305   0.148E-02    0.824E-02
RMM:   6    -0.232357658220E+04   -0.93980E-04   -0.39752E-04  3794   0.114E-02    0.116E-01
RMM:   7    -0.232357645578E+04    0.12642E-03   -0.10824E-04  3073   0.657E-03    0.181E-02
RMM:   8    -0.232357645288E+04    0.29004E-05   -0.15302E-05  2918   0.340E-03
  33 F= -.23445566E+04 E0= -.23445566E+04  d E =-.175916E-01  mag=     4.0000
       N       E                     dE             d eps       ncg     rms          rms(c)
DAV:   1    -0.232356496050E+04    0.11495E-01   -0.19505E+00  4496   0.115E+00    0.402E-01
RMM:   2    -0.232358967029E+04   -0.24710E-01   -0.26149E-01  6600   0.276E-01    0.306E-01
RMM:   3    -0.232359116848E+04   -0.14982E-02   -0.24737E-02  5961   0.825E-02    0.250E-01
RMM:   4    -0.232359061751E+04    0.55098E-03   -0.28470E-03  4922   0.214E-02    0.120E-01
RMM:   5    -0.232359050529E+04    0.11222E-03   -0.48640E-04  4111   0.129E-02    0.756E-02
RMM:   6    -0.232359056845E+04   -0.63158E-04   -0.29928E-04  3535   0.100E-02    0.101E-01
RMM:   7    -0.232359047432E+04    0.94124E-04   -0.78740E-05  3014   0.596E-03    0.143E-02
RMM:   8    -0.232359047254E+04    0.17887E-05   -0.11461E-05  2895   0.301E-03
  34 F= -.23445714E+04 E0= -.23445714E+04  d E =-.148155E-01  mag=     4.0000
       N       E                     dE             d eps       ncg     rms          rms(c)
DAV:   1    -0.232358827531E+04    0.21990E-02   -0.94793E-01  4496   0.790E-01    0.280E-01
RMM:   2    -0.232359986884E+04   -0.11594E-01   -0.12281E-01  6589   0.190E-01    0.214E-01
RMM:   3    -0.232360054537E+04   -0.67652E-03   -0.11589E-02  5547   0.563E-02    0.173E-01
RMM:   4    -0.232360028237E+04    0.26300E-03   -0.13530E-03  4185   0.149E-02    0.831E-02
RMM:   5    -0.232360023095E+04    0.51423E-04   -0.22934E-04  3598   0.942E-03    0.534E-02
RMM:   6    -0.232360026046E+04   -0.29512E-04   -0.14628E-04  3138   0.747E-03    0.703E-02
RMM:   7    -0.232360021509E+04    0.45370E-04   -0.38445E-05  2905   0.476E-03    0.935E-03
RMM:   8    -0.232360021413E+04    0.96172E-06   -0.59540E-06  2827   0.229E-03
  35 F= -.23445817E+04 E0= -.23445817E+04  d E =-.103150E-01  mag=     4.0000
       N       E                     dE             d eps       ncg     rms          rms(c)
DAV:   1    -0.232359420543E+04    0.60097E-02   -0.14119E+00  4480   0.961E-01    0.341E-01
RMM:   2    -0.232361143055E+04   -0.17225E-01   -0.18251E-01  6597   0.231E-01    0.261E-01
RMM:   3    -0.232361241115E+04   -0.98060E-03   -0.17231E-02  5782   0.692E-02    0.211E-01
RMM:   4    -0.232361201652E+04    0.39463E-03   -0.20027E-03  4608   0.180E-02    0.101E-01
RMM:   5    -0.232361195869E+04    0.57835E-04   -0.35412E-04  3898   0.110E-02    0.788E-02
RMM:   6    -0.232361197440E+04   -0.15710E-04   -0.23550E-04  3307   0.889E-03    0.817E-02
RMM:   7    -0.232361191471E+04    0.59686E-04   -0.49962E-05  2933   0.523E-03    0.105E-02
RMM:   8    -0.232361191357E+04    0.11433E-05   -0.79418E-06  2861   0.270E-03
  36 F= -.23445942E+04 E0= -.23445942E+04  d E =-.124379E-01  mag=     4.0000
       N       E                     dE             d eps       ncg     rms          rms(c)
DAV:   1    -0.232360808801E+04    0.38267E-02   -0.11715E+00  4480   0.866E-01    0.310E-01
RMM:   2    -0.232362216278E+04   -0.14075E-01   -0.14888E-01  6593   0.209E-01    0.242E-01
RMM:   3    -0.232362292666E+04   -0.76388E-03   -0.14061E-02  5656   0.618E-02    0.192E-01
RMM:   4    -0.232362260130E+04    0.32536E-03   -0.16374E-03  4393   0.162E-02    0.925E-02
RMM:   5    -0.232362257207E+04    0.29228E-04   -0.30461E-04  3776   0.101E-02    0.833E-02
RMM:   6    -0.232362255856E+04    0.13519E-04   -0.20018E-04  3223   0.830E-03    0.687E-02
RMM:   7    -0.232362251824E+04    0.40318E-04   -0.36865E-05  2923   0.481E-03    0.917E-03
RMM:   8    -0.232362251733E+04    0.90465E-06   -0.65593E-06  2834   0.253E-03
  37 F= -.23446054E+04 E0= -.23446054E+04  d E =-.112881E-01  mag=     4.0000
       N       E                     dE             d eps       ncg     rms          rms(c)
DAV:   1    -0.232361518013E+04    0.73381E-02   -0.15770E+00  4480   0.100E+00    0.360E-01
RMM:   2    -0.232363414854E+04   -0.18968E-01   -0.20055E-01  6598   0.242E-01    0.283E-01
RMM:   3    -0.232363517106E+04   -0.10225E-02   -0.19004E-02  5828   0.721E-02    0.223E-01
RMM:   4    -0.232363472935E+04    0.44170E-03   -0.22031E-03  4715   0.187E-02    0.108E-01
RMM:   5    -0.232363473174E+04   -0.23919E-05   -0.43727E-04  4050   0.114E-02    0.117E-01
RMM:   6    -0.232363465227E+04    0.79470E-04   -0.28611E-04  3423   0.949E-03    0.676E-02
RMM:   7    -0.232363461589E+04    0.36386E-04   -0.41972E-05  2977   0.510E-03    0.102E-02
RMM:   8    -0.232363461481E+04    0.10765E-05   -0.79683E-06  2867   0.287E-03
  38 F= -.23446183E+04 E0= -.23446183E+04  d E =-.128830E-01  mag=     4.0000
       N       E                     dE             d eps       ncg     rms          rms(c)
DAV:   1    -0.232363557877E+04   -0.96288E-03   -0.46043E-01  4544   0.539E-01    0.195E-01
RMM:   2    -0.232364101197E+04   -0.54332E-02   -0.57331E-02  6563   0.131E-01    0.155E-01
RMM:   3    -0.232364128071E+04   -0.26875E-03   -0.54049E-03  4968   0.386E-02    0.121E-01
RMM:   4    -0.232364115448E+04    0.12623E-03   -0.63236E-04  3620   0.105E-02    0.597E-02
RMM:   5    -0.232364116571E+04   -0.11225E-04   -0.14023E-04  3192   0.698E-03    0.720E-02
RMM:   6    -0.232364112850E+04    0.37204E-04   -0.90781E-05  2955   0.600E-03    0.328E-02
RMM:   7    -0.232364112094E+04    0.75601E-05   -0.13493E-05  2858   0.359E-03
  39 F= -.23446253E+04 E0= -.23446253E+04  d E =-.698352E-02  mag=     4.0000
       N       E                     dE             d eps       ncg     rms          rms(c)
DAV:   1    -0.232339452960E+04    0.24660E+00   -0.23285E+01  4480   0.384E+00    0.139E+00
RMM:   2    -0.232367804410E+04   -0.28351E+00   -0.30007E+00  6622   0.940E-01    0.112E+00
RMM:   3    -0.232369386421E+04   -0.15820E-01   -0.30387E-01  6307   0.292E-01    0.889E-01
RMM:   4    -0.232368671342E+04    0.71508E-02   -0.32942E-02  6198   0.716E-02    0.431E-01
RMM:   5    -0.232368702025E+04   -0.30683E-03   -0.65993E-03  5626   0.388E-02    0.504E-01
RMM:   6    -0.232368539919E+04    0.16211E-02   -0.47280E-03  5721   0.335E-02    0.255E-01
RMM:   7    -0.232368488027E+04    0.51892E-03   -0.71288E-04  4618   0.142E-02    0.497E-02
RMM:   8    -0.232368486385E+04    0.16421E-04   -0.10714E-04  3207   0.764E-03    0.286E-02
RMM:   9    -0.232368485495E+04    0.89048E-05   -0.39027E-05  2971   0.460E-03
  40 F= -.23446722E+04 E0= -.23446722E+04  d E =-.468570E-01  mag=     4.0000
       N       E                     dE             d eps       ncg     rms          rms(c)
DAV:   1    -0.232368647810E+04   -0.16142E-02   -0.50869E-02  4928   0.191E-01    0.682E-02
RMM:   2    -0.232368702912E+04   -0.55103E-03   -0.59110E-03  6389   0.448E-02    0.490E-02
RMM:   3    -0.232368706377E+04   -0.34647E-04   -0.59774E-04  3222   0.149E-02    0.429E-02
RMM:   4    -0.232368704960E+04    0.14168E-04   -0.69835E-05  2974   0.535E-03    0.223E-02
RMM:   5    -0.232368704927E+04    0.33248E-06   -0.21459E-05  2901   0.363E-03
  41 F= -.23446745E+04 E0= -.23446745E+04  d E =-.232256E-02  mag=     4.0000
       N       E                     dE             d eps       ncg     rms          rms(c)
DAV:   1    -0.232368816249E+04   -0.11129E-02   -0.20716E-02  4640   0.123E-01    0.440E-02
RMM:   2    -0.232368838842E+04   -0.22594E-03   -0.22997E-03  6059   0.295E-02    0.437E-02
RMM:   3    -0.232368839170E+04   -0.32807E-05   -0.24704E-04  2996   0.973E-03    0.317E-02
RMM:   4    -0.232368838703E+04    0.46773E-05   -0.31186E-05  2906   0.376E-03
  42 F= -.23446759E+04 E0= -.23446759E+04  d E =-.143257E-02  mag=     4.0000
       N       E                     dE             d eps       ncg     rms          rms(c)
DAV:   1    -0.232369005525E+04   -0.16635E-02   -0.64396E-02  4544   0.208E-01    0.735E-02
RMM:   2    -0.232369073159E+04   -0.67634E-03   -0.72712E-03  6340   0.484E-02    0.483E-02
RMM:   3    -0.232369078103E+04   -0.49441E-04   -0.71753E-04  3292   0.150E-02    0.418E-02
RMM:   4    -0.232369077214E+04    0.88988E-05   -0.85165E-05  2980   0.523E-03
  43 F= -.23446785E+04 E0= -.23446785E+04  d E =-.254529E-02  mag=     4.0000
       N       E                     dE             d eps       ncg     rms          rms(c)
DAV:   1    -0.232369281315E+04   -0.20321E-02   -0.17109E-01  4512   0.336E-01    0.119E-01
RMM:   2    -0.232369463613E+04   -0.18230E-02   -0.18820E-02  6498   0.766E-02    0.118E-01
RMM:   3    -0.232369468864E+04   -0.52510E-04   -0.19357E-03  3974   0.244E-02    0.873E-02
RMM:   4    -0.232369463542E+04    0.53221E-04   -0.22181E-04  3199   0.742E-03    0.463E-02
RMM:   5    -0.232369464363E+04   -0.82102E-05   -0.77136E-05  2946   0.509E-03
  44 F= -.23446826E+04 E0= -.23446826E+04  d E =-.413517E-02  mag=     4.0000
       N       E                     dE             d eps       ncg     rms          rms(c)
DAV:   1    -0.232369529635E+04   -0.66093E-03   -0.57066E-01  4496   0.611E-01    0.210E-01
RMM:   2    -0.232370131941E+04   -0.60231E-02   -0.63627E-02  6603   0.142E-01    0.174E-01
RMM:   3    -0.232370173192E+04   -0.41251E-03   -0.64556E-03  5228   0.434E-02    0.154E-01
RMM:   4    -0.232370154738E+04    0.18454E-03   -0.73249E-04  3793   0.117E-02    0.742E-02
RMM:   5    -0.232370158884E+04   -0.41465E-04   -0.22155E-04  3275   0.795E-03    0.930E-02
RMM:   6    -0.232370150428E+04    0.84566E-04   -0.12176E-04  3305   0.713E-03    0.224E-02
RMM:   7    -0.232370150336E+04    0.91863E-06   -0.15695E-05  2899   0.385E-03
  45 F= -.23446900E+04 E0= -.23446900E+04  d E =-.736423E-02  mag=     4.0000
       N       E                     dE             d eps       ncg     rms          rms(c)
DAV:   1    -0.232369568562E+04    0.58187E-02   -0.14978E+00  4480   0.987E-01    0.342E-01
RMM:   2    -0.232371190311E+04   -0.16217E-01   -0.17106E-01  6629   0.232E-01    0.285E-01
RMM:   3    -0.232371292605E+04   -0.10229E-02   -0.17190E-02  5853   0.707E-02    0.245E-01
RMM:   4    -0.232371247115E+04    0.45490E-03   -0.19769E-03  4681   0.184E-02    0.127E-01
RMM:   5    -0.232371253060E+04   -0.59445E-04   -0.53614E-04  3952   0.111E-02    0.144E-01
RMM:   6    -0.232371233276E+04    0.19784E-03   -0.31653E-04  3968   0.107E-02    0.358E-02
RMM:   7    -0.232371232977E+04    0.29915E-05   -0.41713E-05  3003   0.514E-03
  46 F= -.23447016E+04 E0= -.23447016E+04  d E =-.116642E-01  mag=     4.0000
       N       E                     dE             d eps       ncg     rms          rms(c)
DAV:   1    -0.232371255128E+04   -0.21852E-03   -0.47184E-01  4480   0.551E-01    0.196E-01
RMM:   2    -0.232371806524E+04   -0.55140E-02   -0.57917E-02  6589   0.133E-01    0.164E-01
RMM:   3    -0.232371838224E+04   -0.31700E-03   -0.57780E-03  5062   0.410E-02    0.136E-01
RMM:   4    -0.232371824771E+04    0.13452E-03   -0.66265E-04  3644   0.109E-02    0.720E-02
RMM:   5    -0.232371826610E+04   -0.18387E-04   -0.16487E-04  3108   0.686E-03    0.822E-02
RMM:   6    -0.232371820320E+04    0.62905E-04   -0.99835E-05  3145   0.664E-03    0.205E-02
RMM:   7    -0.232371820280E+04    0.39994E-06   -0.16141E-05  2896   0.376E-03
  47 F= -.23447080E+04 E0= -.23447080E+04  d E =-.637574E-02  mag=     4.0000
       N       E                     dE             d eps       ncg     rms          rms(c)
DAV:   1    -0.232371870322E+04   -0.50003E-03   -0.39313E-01  4496   0.500E-01    0.180E-01
RMM:   2    -0.232372333012E+04   -0.46269E-02   -0.48686E-02  6598   0.121E-01    0.149E-01
RMM:   3    -0.232372360247E+04   -0.27235E-03   -0.48679E-03  4808   0.373E-02    0.122E-01
RMM:   4    -0.232372349196E+04    0.11051E-03   -0.55302E-04  3541   0.100E-02    0.645E-02
RMM:   5    -0.232372350841E+04   -0.16456E-04   -0.13570E-04  3040   0.632E-03    0.755E-02
RMM:   6    -0.232372345597E+04    0.52441E-04   -0.82538E-05  3082   0.605E-03    0.194E-02
RMM:   7    -0.232372345543E+04    0.54341E-06   -0.13855E-05  2882   0.352E-03
  48 F= -.23447137E+04 E0= -.23447137E+04  d E =-.571135E-02  mag=     4.0000
       N       E                     dE             d eps       ncg     rms          rms(c)
DAV:   1    -0.232363836736E+04    0.85089E-01   -0.93340E+00  4480   0.244E+00    0.866E-01
RMM:   2    -0.232374586342E+04   -0.10750E+00   -0.11373E+00  6638   0.589E-01    0.708E-01
RMM:   3    -0.232375208050E+04   -0.62171E-02   -0.11649E-01  6268   0.180E-01    0.610E-01
RMM:   4    -0.232374909439E+04    0.29861E-02   -0.13002E-02  6005   0.458E-02    0.318E-01
RMM:   5    -0.232374941844E+04   -0.32405E-03   -0.32181E-03  5353   0.244E-02    0.364E-01
RMM:   6    -0.232374822488E+04    0.11936E-02   -0.19322E-03  5289   0.239E-02    0.103E-01
RMM:   7    -0.232374818173E+04    0.43154E-04   -0.26750E-04  3662   0.962E-03    0.295E-02
RMM:   8    -0.232374816982E+04    0.11906E-04   -0.35656E-05  2958   0.548E-03    0.150E-02
RMM:   9    -0.232374816828E+04    0.15378E-05   -0.16667E-05  2923   0.321E-03
  49 F= -.23447406E+04 E0= -.23447406E+04  d E =-.269151E-01  mag=     4.0000
       N       E                     dE             d eps       ncg     rms          rms(c)
DAV:   1    -0.232374722830E+04    0.94152E-03   -0.18063E-02  4872   0.134E-01    0.409E-02
RMM:   2    -0.232374737554E+04   -0.14724E-03   -0.15592E-03  6181   0.283E-02    0.366E-02
RMM:   3    -0.232374737986E+04   -0.43207E-05   -0.15008E-04  2978   0.961E-03    0.330E-02
RMM:   4    -0.232374736943E+04    0.10426E-04   -0.19112E-05  2902   0.373E-03    0.132E-02
RMM:   5    -0.232374736963E+04   -0.19507E-06   -0.10024E-05  2838   0.265E-03
  50 F= -.23447398E+04 E0= -.23447398E+04  d E =0.835553E-03  mag=     4.0000
       N       E                     dE             d eps       ncg     rms          rms(c)
DAV:   1    -0.232374847039E+04   -0.11010E-02   -0.57612E-02  4528   0.188E-01    0.700E-02
RMM:   2    -0.232374919688E+04   -0.72649E-03   -0.77178E-03  6294   0.475E-02    0.522E-02
RMM:   3    -0.232374924479E+04   -0.47901E-04   -0.77293E-04  3189   0.150E-02    0.445E-02
RMM:   4    -0.232374923140E+04    0.13382E-04   -0.86966E-05  2958   0.506E-03    0.251E-02
RMM:   5    -0.232374923207E+04   -0.66498E-06   -0.18876E-05  2751   0.272E-03
  51 F= -.23447419E+04 E0= -.23447419E+04  d E =-.204814E-02  mag=     4.0000
       N       E                     dE             d eps       ncg     rms          rms(c)
DAV:   1    -0.232374958704E+04   -0.35563E-03   -0.27472E-03  4448   0.419E-02    0.187E-02
RMM:   2    -0.232374962751E+04   -0.40469E-04   -0.38725E-04  4361   0.110E-02    0.231E-02
RMM:   3    -0.232374962481E+04    0.26937E-05   -0.44019E-05  2776   0.473E-03
  52 F= -.23447423E+04 E0= -.23447423E+04  d E =-.435426E-03  mag=     4.0000
       N       E                     dE             d eps       ncg     rms          rms(c)
DAV:   1    -0.232375028015E+04   -0.65264E-03   -0.21515E-01  4496   0.357E-01    0.138E-01
RMM:   2    -0.232375307041E+04   -0.27903E-02   -0.29236E-02  6551   0.912E-02    0.118E-01
RMM:   3    -0.232375320228E+04   -0.13187E-03   -0.29270E-03  4072   0.281E-02    0.877E-02
RMM:   4    -0.232375314868E+04    0.53604E-04   -0.33082E-04  3276   0.800E-03    0.478E-02
RMM:   5    -0.232375316042E+04   -0.11742E-04   -0.76363E-05  2915   0.493E-03    0.606E-02
RMM:   6    -0.232375312842E+04    0.32003E-04   -0.48201E-05  2904   0.457E-03    0.153E-02
RMM:   7    -0.232375312805E+04    0.37385E-06   -0.89089E-06  2792   0.276E-03
  53 F= -.23447462E+04 E0= -.23447462E+04  d E =-.387115E-02  mag=     4.0000
       N       E                     dE             d eps       ncg     rms          rms(c)
DAV:   1    -0.232375206271E+04    0.10657E-02   -0.45670E-01  4464   0.522E-01    0.199E-01
RMM:   2    -0.232375800991E+04   -0.59472E-02   -0.62554E-02  6603   0.132E-01    0.163E-01
RMM:   3    -0.232375832147E+04   -0.31156E-03   -0.62157E-03  4826   0.406E-02    0.122E-01
RMM:   4    -0.232375820642E+04    0.11506E-03   -0.68163E-04  3630   0.105E-02    0.580E-02
RMM:   5    -0.232375820352E+04    0.28972E-05   -0.11203E-04  3152   0.641E-03    0.596E-02
RMM:   6    -0.232375818912E+04    0.14398E-04   -0.84617E-05  2921   0.554E-03    0.422E-02
RMM:   7    -0.232375817516E+04    0.13956E-04   -0.16381E-05  2839   0.352E-03    0.589E-03
RMM:   8    -0.232375817475E+04    0.41652E-06   -0.30868E-06  2640   0.197E-03
  54 F= -.23447517E+04 E0= -.23447517E+04  d E =-.556411E-02  mag=     4.0000
       N       E                     dE             d eps       ncg     rms          rms(c)
DAV:   1    -0.232374020084E+04    0.17974E-01   -0.21203E+00  4464   0.112E+00    0.430E-01
RMM:   2    -0.232376790820E+04   -0.27707E-01   -0.29180E-01  6636   0.284E-01    0.350E-01
RMM:   3    -0.232376938218E+04   -0.14740E-02   -0.29028E-02  5900   0.871E-02    0.265E-01
RMM:   4    -0.232376882553E+04    0.55665E-03   -0.31816E-03  4921   0.215E-02    0.127E-01
RMM:   5    -0.232376884252E+04   -0.16995E-04   -0.56181E-04  4103   0.121E-02    0.143E-01
RMM:   6    -0.232376872304E+04    0.11948E-03   -0.40382E-04  3625   0.107E-02    0.826E-02
RMM:   7    -0.232376867039E+04    0.52651E-04   -0.66422E-05  3070   0.576E-03    0.126E-02
RMM:   8    -0.232376866868E+04    0.17103E-05   -0.11726E-05  2885   0.347E-03
  55 F= -.23447634E+04 E0= -.23447634E+04  d E =-.116518E-01  mag=     4.0000
       N       E                     dE             d eps       ncg     rms          rms(c)
DAV:   1    -0.232376799928E+04    0.67111E-03   -0.38241E-01  4464   0.477E-01    0.184E-01
RMM:   2    -0.232377295078E+04   -0.49515E-02   -0.52070E-02  6577   0.120E-01    0.148E-01
RMM:   3    -0.232377322738E+04   -0.27661E-03   -0.52100E-03  4672   0.368E-02    0.118E-01
RMM:   4    -0.232377312391E+04    0.10348E-03   -0.58229E-04  3520   0.994E-03    0.606E-02
RMM:   5    -0.232377314279E+04   -0.18886E-04   -0.12566E-04  3018   0.608E-03    0.771E-02
RMM:   6    -0.232377309124E+04    0.51558E-04   -0.78319E-05  2999   0.574E-03    0.210E-02
RMM:   7    -0.232377309027E+04    0.96542E-06   -0.13763E-05  2879   0.342E-03
  56 F= -.23447683E+04 E0= -.23447683E+04  d E =-.493148E-02  mag=     4.0000
       N       E                     dE             d eps       ncg     rms          rms(c)
DAV:   1    -0.232376497286E+04    0.81184E-02   -0.11881E+00  4464   0.835E-01    0.321E-01
RMM:   2    -0.232378019296E+04   -0.15220E-01   -0.16027E-01  6633   0.210E-01    0.259E-01
RMM:   3    -0.232378108687E+04   -0.89391E-03   -0.16085E-02  5595   0.646E-02    0.204E-01
RMM:   4    -0.232378076724E+04    0.31963E-03   -0.17711E-03  4426   0.164E-02    0.103E-01
RMM:   5    -0.232378083200E+04   -0.64758E-04   -0.37617E-04  3558   0.940E-03    0.136E-01
RMM:   6    -0.232378067578E+04    0.15621E-03   -0.23037E-04  3454   0.892E-03    0.397E-02
RMM:   7    -0.232378066957E+04    0.62102E-05   -0.36025E-05  2990   0.474E-03
  57 F= -.23447768E+04 E0= -.23447768E+04  d E =-.846725E-02  mag=     4.0000
       N       E                     dE             d eps       ncg     rms          rms(c)
DAV:   1    -0.232378163941E+04   -0.96363E-03   -0.66445E-02  4608   0.208E-01    0.772E-02
RMM:   2    -0.232378242937E+04   -0.78996E-03   -0.82553E-03  6376   0.501E-02    0.638E-02
RMM:   3    -0.232378247784E+04   -0.48468E-04   -0.85278E-04  3266   0.166E-02    0.551E-02
RMM:   4    -0.232378245680E+04    0.21042E-04   -0.98564E-05  2978   0.560E-03    0.282E-02
RMM:   5    -0.232378245842E+04   -0.16202E-05   -0.24587E-05  2829   0.308E-03
  58 F= -.23447788E+04 E0= -.23447788E+04  d E =-.198551E-02  mag=     4.0000
       N       E                     dE             d eps       ncg     rms          rms(c)
DAV:   1    -0.232376930023E+04    0.13157E-01   -0.17080E+00  4464   0.998E-01    0.383E-01
RMM:   2    -0.232379068101E+04   -0.21381E-01   -0.22521E-01  6630   0.248E-01    0.310E-01
RMM:   3    -0.232379189318E+04   -0.12122E-02   -0.22878E-02  5792   0.769E-02    0.253E-01
RMM:   4    -0.232379140034E+04    0.49284E-03   -0.24974E-03  4767   0.196E-02    0.127E-01
RMM:   5    -0.232379150249E+04   -0.10215E-03   -0.57539E-04  3875   0.110E-02    0.166E-01
RMM:   6    -0.232379125967E+04    0.24282E-03   -0.33573E-04  3807   0.105E-02    0.427E-02
RMM:   7    -0.232379125476E+04    0.49045E-05   -0.47197E-05  3029   0.517E-03
  59 F= -.23447886E+04 E0= -.23447886E+04  d E =-.984759E-02  mag=     4.0000
       N       E                     dE             d eps       ncg     rms          rms(c)
DAV:   1    -0.232379123990E+04    0.19769E-04   -0.28124E-01  4464   0.413E-01    0.156E-01
RMM:   2    -0.232379466257E+04   -0.34227E-02   -0.35920E-02  6539   0.101E-01    0.127E-01
RMM:   3    -0.232379486764E+04   -0.20506E-03   -0.36858E-03  4391   0.325E-02    0.103E-01
RMM:   4    -0.232379479200E+04    0.75634E-04   -0.40738E-04  3344   0.897E-03    0.539E-02
RMM:   5    -0.232379480572E+04   -0.13717E-04   -0.94694E-05  2950   0.544E-03    0.656E-02
RMM:   6    -0.232379476789E+04    0.37825E-04   -0.55610E-05  2969   0.509E-03    0.160E-02
RMM:   7    -0.232379476786E+04    0.36103E-07   -0.99359E-06  2836   0.303E-03
  60 F= -.23447925E+04 E0= -.23447925E+04  d E =-.391814E-02  mag=     4.0000
       N       E                     dE             d eps       ncg     rms          rms(c)
DAV:   1    -0.232379448740E+04    0.28050E-03   -0.27062E-03  4936   0.483E-02    0.174E-02
RMM:   2    -0.232379451337E+04   -0.25975E-04   -0.28688E-04  4414   0.115E-02    0.113E-02
RMM:   3    -0.232379451512E+04   -0.17506E-05   -0.28725E-05  2834   0.526E-03
  61 F= -.23447922E+04 E0= -.23447922E+04  d E =0.289840E-03  mag=     4.0000
       N       E                     dE             d eps       ncg     rms          rms(c)
DAV:   1    -0.232379478303E+04   -0.26966E-03   -0.21373E-01  4496   0.354E-01    0.135E-01
RMM:   2    -0.232379749370E+04   -0.27107E-02   -0.28525E-02  6570   0.875E-02    0.108E-01
RMM:   3    -0.232379765577E+04   -0.16207E-03   -0.29304E-03  3979   0.276E-02    0.883E-02
RMM:   4    -0.232379759669E+04    0.59086E-04   -0.30827E-04  3222   0.801E-03    0.435E-02
RMM:   5    -0.232379760845E+04   -0.11763E-04   -0.69297E-05  2883   0.470E-03    0.565E-02
RMM:   6    -0.232379758072E+04    0.27730E-04   -0.41832E-05  2869   0.424E-03    0.158E-02
RMM:   7    -0.232379758019E+04    0.52359E-06   -0.73056E-06  2738   0.258E-03
  62 F= -.23447957E+04 E0= -.23447957E+04  d E =-.342700E-02  mag=     4.0000
       N       E                     dE             d eps       ncg     rms          rms(c)
DAV:   1    -0.232379289036E+04    0.46904E-02   -0.81640E-01  4464   0.692E-01    0.264E-01
RMM:   2    -0.232380309146E+04   -0.10201E-01   -0.10715E-01  6628   0.172E-01    0.216E-01
RMM:   3    -0.232380372487E+04   -0.63341E-03   -0.11010E-02  5356   0.529E-02    0.177E-01
RMM:   4    -0.232380350216E+04    0.22271E-03   -0.12005E-03  4046   0.137E-02    0.930E-02
RMM:   5    -0.232380353369E+04   -0.31528E-04   -0.27200E-04  3283   0.807E-03    0.110E-01
RMM:   6    -0.232380342514E+04    0.10855E-03   -0.15838E-04  3314   0.784E-03    0.274E-02
RMM:   7    -0.232380342458E+04    0.56250E-06   -0.25717E-05  2938   0.423E-03
  63 F= -.23448022E+04 E0= -.23448022E+04  d E =-.656094E-02  mag=     4.0000
       N       E                     dE             d eps       ncg     rms          rms(c)
DAV:   1    -0.232376511969E+04    0.38305E-01   -0.39876E+00  4480   0.153E+00    0.582E-01
RMM:   2    -0.232381405551E+04   -0.48936E-01   -0.51490E-01  6635   0.378E-01    0.479E-01
RMM:   3    -0.232381721419E+04   -0.31587E-02   -0.52893E-02  6125   0.119E-01    0.392E-01
RMM:   4    -0.232381610548E+04    0.11087E-02   -0.59792E-03  5464   0.300E-02    0.206E-01
RMM:   5    -0.232381625342E+04   -0.14794E-03   -0.13311E-03  4642   0.156E-02    0.242E-01
RMM:   6    -0.232381572994E+04    0.52348E-03   -0.75350E-04  4567   0.153E-02    0.622E-02
RMM:   7    -0.232381572196E+04    0.79813E-05   -0.11732E-04  3254   0.680E-03    0.197E-02
RMM:   8    -0.232381571743E+04    0.45267E-05   -0.13560E-05  2902   0.395E-03
  64 F= -.23448161E+04 E0= -.23448161E+04  d E =-.138761E-01  mag=     4.0000
       N       E                     dE             d eps       ncg     rms          rms(c)
DAV:   1    -0.232381546059E+04    0.26137E-03   -0.26811E-01  4480   0.398E-01    0.151E-01
RMM:   2    -0.232381871519E+04   -0.32546E-02   -0.34154E-02  6562   0.990E-02    0.126E-01
RMM:   3    -0.232381888599E+04   -0.17079E-03   -0.34033E-03  4187   0.299E-02    0.982E-02
RMM:   4    -0.232381882109E+04    0.64896E-04   -0.39370E-04  3305   0.871E-03    0.536E-02
RMM:   5    -0.232381883152E+04   -0.10433E-04   -0.90660E-05  2921   0.528E-03    0.633E-02
RMM:   6    -0.232381879565E+04    0.35876E-04   -0.52122E-05  2954   0.498E-03    0.153E-02
RMM:   7    -0.232381879581E+04   -0.16614E-06   -0.96877E-06  2857   0.301E-03
  65 F= -.23448196E+04 E0= -.23448196E+04  d E =-.348337E-02  mag=     4.0000
       N       E                     dE             d eps       ncg     rms          rms(c)
DAV:   1    -0.232381846876E+04    0.32689E-03   -0.36346E-03  4968   0.567E-02    0.202E-02
RMM:   2    -0.232381850955E+04   -0.40791E-04   -0.43909E-04  4949   0.133E-02    0.148E-02
RMM:   3    -0.232381851304E+04   -0.34969E-05   -0.45557E-05  2866   0.562E-03
  66 F= -.23448193E+04 E0= -.23448193E+04  d E =0.326219E-03  mag=     4.0000
       N       E                     dE             d eps       ncg     rms          rms(c)
DAV:   1    -0.232381915726E+04   -0.64772E-03   -0.37672E-02  4544   0.150E-01    0.555E-02
RMM:   2    -0.232381961397E+04   -0.45670E-03   -0.48374E-03  6094   0.371E-02    0.445E-02
RMM:   3    -0.232381964009E+04   -0.26120E-04   -0.47882E-04  3010   0.121E-02    0.358E-02
RMM:   4    -0.232381963098E+04    0.91065E-05   -0.54046E-05  2962   0.422E-03
  67 F= -.23448205E+04 E0= -.23448205E+04  d E =-.126978E-02  mag=     4.0000
       N       E                     dE             d eps       ncg     rms          rms(c)
DAV:   1    -0.232382021125E+04   -0.57116E-03   -0.11515E-01  4512   0.261E-01    0.101E-01
RMM:   2    -0.232382157429E+04   -0.13630E-02   -0.14277E-02  6432   0.636E-02    0.910E-02
RMM:   3    -0.232382165312E+04   -0.78823E-04   -0.14717E-03  3483   0.200E-02    0.799E-02
RMM:   4    -0.232382161467E+04    0.38450E-04   -0.17748E-04  3032   0.671E-03    0.435E-02
RMM:   5    -0.232382161156E+04    0.31042E-05   -0.51142E-05  2863   0.405E-03
  68 F= -.23448228E+04 E0= -.23448228E+04  d E =-.224452E-02  mag=     4.0000
       N       E                     dE             d eps       ncg     rms          rms(c)
DAV:   1    -0.232382220840E+04   -0.59374E-03   -0.94915E-02  4512   0.238E-01    0.896E-02
RMM:   2    -0.232382334563E+04   -0.11372E-02   -0.11883E-02  6417   0.578E-02    0.798E-02
RMM:   3    -0.232382340128E+04   -0.55643E-04   -0.12450E-03  3297   0.186E-02    0.597E-02
RMM:   4    -0.232382337532E+04    0.25958E-04   -0.13517E-04  3032   0.604E-03    0.292E-02
RMM:   5    -0.232382338588E+04   -0.10564E-04   -0.37704E-05  2814   0.351E-03    0.435E-02
RMM:   6    -0.232382336894E+04    0.16944E-04   -0.19340E-05  2777   0.313E-03    0.830E-03
RMM:   7    -0.232382336911E+04   -0.17101E-06   -0.30117E-06  2517   0.178E-03
  69 F= -.23448248E+04 E0= -.23448248E+04  d E =-.200893E-02  mag=     4.0000
       N       E                     dE             d eps       ncg     rms          rms(c)
DAV:   1    -0.232382052112E+04    0.28478E-02   -0.56497E-01  4480   0.578E-01    0.217E-01
RMM:   2    -0.232382743684E+04   -0.69157E-02   -0.72560E-02  6613   0.145E-01    0.184E-01
RMM:   3    -0.232382776454E+04   -0.32770E-03   -0.71623E-03  4999   0.438E-02    0.135E-01
RMM:   4    -0.232382763542E+04    0.12912E-03   -0.80883E-04  3740   0.114E-02    0.698E-02
RMM:   5    -0.232382766902E+04   -0.33596E-04   -0.17771E-04  3141   0.699E-03    0.943E-02
RMM:   6    -0.232382759292E+04    0.76104E-04   -0.10518E-04  3069   0.642E-03    0.255E-02
RMM:   7    -0.232382759118E+04    0.17397E-05   -0.18267E-05  2895   0.375E-03
  70 F= -.23448296E+04 E0= -.23448296E+04  d E =-.482917E-02  mag=     4.0000
       N       E                     dE             d eps       ncg     rms          rms(c)
DAV:   1    -0.232382023937E+04    0.73535E-02   -0.99789E-01  4480   0.773E-01    0.291E-01
RMM:   2    -0.232383277716E+04   -0.12538E-01   -0.13142E-01  6631   0.193E-01    0.244E-01
RMM:   3    -0.232383335559E+04   -0.57843E-03   -0.12956E-02  5473   0.590E-02    0.184E-01
RMM:   4    -0.232383311996E+04    0.23563E-03   -0.14702E-03  4249   0.150E-02    0.958E-02
RMM:   5    -0.232383317344E+04   -0.53482E-04   -0.31484E-04  3378   0.870E-03    0.125E-01
RMM:   6    -0.232383303865E+04    0.13479E-03   -0.18404E-04  3328   0.833E-03    0.329E-02
RMM:   7    -0.232383303639E+04    0.22626E-05   -0.32541E-05  2970   0.466E-03
  71 F= -.23448359E+04 E0= -.23448359E+04  d E =-.626067E-02  mag=     4.0000
       N       E                     dE             d eps       ncg     rms          rms(c)
DAV:   1    -0.232383353759E+04   -0.49894E-03   -0.38890E-02  4656   0.161E-01    0.594E-02
RMM:   2    -0.232383405031E+04   -0.51272E-03   -0.53459E-03  6195   0.397E-02    0.486E-02
RMM:   3    -0.232383407807E+04   -0.27759E-04   -0.53632E-04  3058   0.130E-02    0.397E-02
RMM:   4    -0.232383406833E+04    0.97347E-05   -0.62838E-05  2959   0.462E-03
  72 F= -.23448371E+04 E0= -.23448371E+04  d E =-.120465E-02  mag=     4.0000
       N       E                     dE             d eps       ncg     rms          rms(c)
DAV:   1    -0.232383442335E+04   -0.34528E-03   -0.64638E-03  4720   0.657E-02    0.340E-02
RMM:   2    -0.232383452875E+04   -0.10540E-03   -0.87207E-04  5131   0.159E-02    0.595E-02
RMM:   3    -0.232383450583E+04    0.22913E-04   -0.10588E-04  2920   0.629E-03    0.194E-02
RMM:   4    -0.232383450393E+04    0.19046E-05   -0.12271E-05  2838   0.251E-03
  73 F= -.23448376E+04 E0= -.23448376E+04  d E =-.494714E-03  mag=     4.0000
       N       E                     dE             d eps       ncg     rms          rms(c)
DAV:   1    -0.232383486933E+04   -0.36349E-03   -0.98305E-02  4512   0.245E-01    0.909E-02
RMM:   2    -0.232383611607E+04   -0.12467E-02   -0.13227E-02  6441   0.609E-02    0.647E-02
RMM:   3    -0.232383620549E+04   -0.89423E-04   -0.13125E-03  3350   0.190E-02    0.566E-02
RMM:   4    -0.232383618522E+04    0.20271E-04   -0.14967E-04  3021   0.624E-03    0.301E-02
RMM:   5    -0.232383618829E+04   -0.30671E-05   -0.31723E-05  2854   0.357E-03
  74 F= -.23448395E+04 E0= -.23448395E+04  d E =-.194453E-02  mag=     4.0000
       N       E                     dE             d eps       ncg     rms          rms(c)
DAV:   1    -0.232383670380E+04   -0.51858E-03   -0.32591E-02  4512   0.142E-01    0.554E-02
RMM:   2    -0.232383713566E+04   -0.43187E-03   -0.44132E-03  5972   0.360E-02    0.552E-02
RMM:   3    -0.232383714366E+04   -0.79961E-05   -0.46936E-04  3010   0.117E-02    0.344E-02
RMM:   4    -0.232383713865E+04    0.50070E-05   -0.51466E-05  2926   0.408E-03
  75 F= -.23448406E+04 E0= -.23448406E+04  d E =-.110026E-02  mag=     4.0000
       N       E                     dE             d eps       ncg     rms          rms(c)
DAV:   1    -0.232383697057E+04    0.17309E-03   -0.18603E-01  4496   0.336E-01    0.128E-01
RMM:   2    -0.232383929234E+04   -0.23218E-02   -0.24575E-02  6547   0.829E-02    0.970E-02
RMM:   3    -0.232383945538E+04   -0.16303E-03   -0.24924E-03  3806   0.256E-02    0.861E-02
RMM:   4    -0.232383941267E+04    0.42707E-04   -0.28292E-04  3106   0.777E-03    0.490E-02
RMM:   5    -0.232383942086E+04   -0.81904E-05   -0.73045E-05  2940   0.467E-03
  76 F= -.23448433E+04 E0= -.23448433E+04  d E =-.264159E-02  mag=     4.0000
       N       E                     dE             d eps       ncg     rms          rms(c)
DAV:   1    -0.232383748437E+04    0.19283E-02   -0.40614E-01  4480   0.497E-01    0.187E-01
RMM:   2    -0.232384260533E+04   -0.51210E-02   -0.53359E-02  6587   0.122E-01    0.168E-01
RMM:   3    -0.232384283561E+04   -0.23028E-03   -0.55510E-03  4672   0.385E-02    0.126E-01
RMM:   4    -0.232384273119E+04    0.10442E-03   -0.61226E-04  3554   0.103E-02    0.689E-02
RMM:   5    -0.232384274700E+04   -0.15819E-04   -0.14437E-04  3001   0.625E-03    0.806E-02
RMM:   6    -0.232384269000E+04    0.57001E-04   -0.77823E-05  3055   0.595E-03    0.159E-02
RMM:   7    -0.232384269064E+04   -0.63467E-06   -0.13940E-05  2877   0.350E-03
  77 F= -.23448470E+04 E0= -.23448470E+04  d E =-.379443E-02  mag=     4.0000
       N       E                     dE             d eps       ncg     rms          rms(c)
DAV:   1    -0.232383486980E+04    0.78202E-02   -0.98088E-01  4480   0.770E-01    0.288E-01
RMM:   2    -0.232384730058E+04   -0.12431E-01   -0.13059E-01  6626   0.192E-01    0.234E-01
RMM:   3    -0.232384797958E+04   -0.67900E-03   -0.13023E-02  5474   0.589E-02    0.185E-01
RMM:   4    -0.232384774488E+04    0.23469E-03   -0.14763E-03  4252   0.151E-02    0.952E-02
RMM:   5    -0.232384779066E+04   -0.45778E-04   -0.30855E-04  3357   0.856E-03    0.122E-01
RMM:   6    -0.232384766439E+04    0.12627E-03   -0.18598E-04  3283   0.827E-03    0.342E-02
RMM:   7    -0.232384766091E+04    0.34835E-05   -0.32641E-05  2977   0.468E-03
  78 F= -.23448528E+04 E0= -.23448528E+04  d E =-.579594E-02  mag=     4.0000
       N       E                     dE             d eps       ncg     rms          rms(c)
DAV:   1    -0.232384807099E+04   -0.40660E-03   -0.32853E-02  4656   0.148E-01    0.552E-02
RMM:   2    -0.232384851619E+04   -0.44520E-03   -0.46057E-03  6206   0.375E-02    0.500E-02
RMM:   3    -0.232384853575E+04   -0.19564E-04   -0.46379E-04  3027   0.124E-02    0.400E-02
RMM:   4    -0.232384852625E+04    0.95025E-05   -0.55029E-05  2950   0.436E-03
  79 F= -.23448539E+04 E0= -.23448539E+04  d E =-.102424E-02  mag=     4.0000
       N       E                     dE             d eps       ncg     rms          rms(c)
DAV:   1    -0.232379482337E+04    0.53712E-01   -0.49096E+00  4480   0.172E+00    0.646E-01
RMM:   2    -0.232385722105E+04   -0.62398E-01   -0.65700E-01  6636   0.432E-01    0.526E-01
RMM:   3    -0.232386075352E+04   -0.35325E-02   -0.65657E-02  6141   0.131E-01    0.437E-01
RMM:   4    -0.232385943736E+04    0.13162E-02   -0.75690E-03  5647   0.337E-02    0.233E-01
RMM:   5    -0.232385957263E+04   -0.13527E-03   -0.16220E-03  4801   0.170E-02    0.266E-01
RMM:   6    -0.232385894397E+04    0.62866E-03   -0.91883E-04  4698   0.171E-02    0.724E-02
RMM:   7    -0.232385893106E+04    0.12909E-04   -0.16230E-04  3419   0.788E-03    0.230E-02
RMM:   8    -0.232385892519E+04    0.58711E-05   -0.17874E-05  2914   0.442E-03
  80 F= -.23448661E+04 E0= -.23448661E+04  d E =-.122702E-01  mag=     4.0000
       N       E                     dE             d eps       ncg     rms          rms(c)
DAV:   1    -0.232385656983E+04    0.23612E-02   -0.85056E-02  4544   0.238E-01    0.853E-02
RMM:   2    -0.232385763915E+04   -0.10693E-02   -0.11271E-02  6451   0.578E-02    0.681E-02
RMM:   3    -0.232385769665E+04   -0.57504E-04   -0.11213E-03  3313   0.185E-02    0.533E-02
RMM:   4    -0.232385767440E+04    0.22247E-04   -0.12208E-04  3008   0.609E-03    0.258E-02
RMM:   5    -0.232385767805E+04   -0.36468E-05   -0.28291E-05  2887   0.372E-03
  81 F= -.23448647E+04 E0= -.23448647E+04  d E =0.147956E-02  mag=     4.0000
       N       E                     dE             d eps       ncg     rms          rms(c)
DAV:   1    -0.232385803757E+04   -0.36316E-03   -0.51838E-02  4592   0.173E-01    0.671E-02
RMM:   2    -0.232385869612E+04   -0.65855E-03   -0.69543E-03  6198   0.432E-02    0.542E-02
RMM:   3    -0.232385874235E+04   -0.46229E-04   -0.73074E-04  3085   0.141E-02    0.513E-02
RMM:   4    -0.232385872527E+04    0.17073E-04   -0.81737E-05  2923   0.489E-03    0.269E-02
RMM:   5    -0.232385872255E+04    0.27227E-05   -0.16894E-05  2703   0.239E-03
  82 F= -.23448659E+04 E0= -.23448659E+04  d E =-.123588E-02  mag=     4.0000
       N       E                     dE             d eps       ncg     rms          rms(c)
DAV:   1    -0.232385875334E+04   -0.28067E-04   -0.56703E-05  4768   0.740E-03    0.764E-03
RMM:   2    -0.232385875543E+04   -0.20899E-05   -0.11585E-05  2443   0.252E-03
  83 F= -.23448659E+04 E0= -.23448659E+04  d E =-.383930E-04  mag=     4.0000
       N       E                     dE             d eps       ncg     rms          rms(c)
DAV:   1    -0.232385899986E+04   -0.24652E-03   -0.48007E-03  4544   0.540E-02    0.232E-02
RMM:   2    -0.232385906848E+04   -0.68616E-04   -0.72441E-04  4937   0.142E-02    0.190E-02
RMM:   3    -0.232385907318E+04   -0.47048E-05   -0.81056E-05  2744   0.589E-03
  84 F= -.23448663E+04 E0= -.23448663E+04  d E =-.366803E-03  mag=     4.0000
       N       E                     dE             d eps       ncg     rms          rms(c)
DAV:   1    -0.232385936612E+04   -0.29764E-03   -0.48785E-02  4512   0.165E-01    0.689E-02
RMM:   2    -0.232386004376E+04   -0.67764E-03   -0.71445E-03  6242   0.443E-02    0.522E-02
RMM:   3    -0.232386008672E+04   -0.42955E-04   -0.71900E-04  3058   0.142E-02    0.433E-02
RMM:   4    -0.232386007571E+04    0.11005E-04   -0.85459E-05  2987   0.490E-03    0.233E-02
RMM:   5    -0.232386007779E+04   -0.20778E-05   -0.19950E-05  2786   0.286E-03
  85 F= -.23448675E+04 E0= -.23448675E+04  d E =-.120119E-02  mag=     4.0000
       N       E                     dE             d eps       ncg     rms          rms(c)
DAV:   1    -0.232386024269E+04   -0.16698E-03   -0.70998E-02  4512   0.198E-01    0.820E-02
RMM:   2    -0.232386124711E+04   -0.10044E-02   -0.10461E-02  6386   0.530E-02    0.708E-02
RMM:   3    -0.232386129632E+04   -0.49213E-04   -0.10854E-03  3189   0.168E-02    0.516E-02
RMM:   4    -0.232386127897E+04    0.17355E-04   -0.11551E-04  2994   0.544E-03    0.254E-02
RMM:   5    -0.232386128454E+04   -0.55695E-05   -0.24743E-05  2805   0.296E-03
  86 F= -.23448689E+04 E0= -.23448689E+04  d E =-.143948E-02  mag=     4.0000
       N       E                     dE             d eps       ncg     rms          rms(c)
DAV:   1    -0.232385942812E+04    0.18508E-02   -0.29720E-01  4480   0.399E-01    0.165E-01
RMM:   2    -0.232386355446E+04   -0.41263E-02   -0.43295E-02  6590   0.106E-01    0.136E-01
RMM:   3    -0.232386380830E+04   -0.25385E-03   -0.44963E-03  4213   0.332E-02    0.114E-01
RMM:   4    -0.232386372569E+04    0.82616E-04   -0.49872E-04  3422   0.943E-03    0.607E-02
RMM:   5    -0.232386373408E+04   -0.83871E-05   -0.11176E-04  2935   0.536E-03    0.674E-02
RMM:   6    -0.232386369461E+04    0.39462E-04   -0.59117E-05  2951   0.505E-03    0.167E-02
RMM:   7    -0.232386369453E+04    0.79803E-07   -0.11803E-05  2822   0.293E-03
  87 F= -.23448718E+04 E0= -.23448718E+04  d E =-.288474E-02  mag=     4.0000
       N       E                     dE             d eps       ncg     rms          rms(c)
DAV:   1    -0.232385774133E+04    0.59533E-02   -0.65801E-01  4480   0.593E-01    0.245E-01
RMM:   2    -0.232386686226E+04   -0.91209E-02   -0.96026E-02  6635   0.158E-01    0.192E-01
RMM:   3    -0.232386743310E+04   -0.57084E-03   -0.97954E-03  4988   0.490E-02    0.158E-01
RMM:   4    -0.232386726437E+04    0.16873E-03   -0.10872E-03  3908   0.128E-02    0.775E-02
RMM:   5    -0.232386729593E+04   -0.31558E-04   -0.20884E-04  3152   0.717E-03    0.990E-02
RMM:   6    -0.232386721611E+04    0.79814E-04   -0.12460E-04  3053   0.664E-03    0.338E-02
RMM:   7    -0.232386721111E+04    0.49999E-05   -0.24118E-05  2927   0.390E-03
  88 F= -.23448760E+04 E0= -.23448760E+04  d E =-.422253E-02  mag=     4.0000
       N       E                     dE             d eps       ncg     rms          rms(c)
DAV:   1    -0.232386528479E+04    0.19313E-02   -0.28095E-01  4480   0.389E-01    0.161E-01
RMM:   2    -0.232386926499E+04   -0.39802E-02   -0.41919E-02  6596   0.104E-01    0.124E-01
RMM:   3    -0.232386952371E+04   -0.25872E-03   -0.42813E-03  4082   0.326E-02    0.104E-01
RMM:   4    -0.232386945199E+04    0.71715E-04   -0.47504E-04  3400   0.922E-03    0.504E-02
RMM:   5    -0.232386946540E+04   -0.13410E-04   -0.89798E-05  2927   0.513E-03    0.642E-02
RMM:   6    -0.232386943293E+04    0.32471E-04   -0.54795E-05  2865   0.455E-03    0.231E-02
RMM:   7    -0.232386943049E+04    0.24462E-05   -0.10860E-05  2805   0.282E-03
  89 F= -.23448787E+04 E0= -.23448787E+04  d E =-.270008E-02  mag=     4.0000
       N       E                     dE             d eps       ncg     rms          rms(c)
DAV:   1    -0.232379499503E+04    0.74438E-01   -0.44670E+00  4480   0.154E+00    0.636E-01
RMM:   2    -0.232385727500E+04   -0.62280E-01   -0.65675E-01  6647   0.407E-01    0.492E-01
RMM:   3    -0.232386171025E+04   -0.44352E-02   -0.70566E-02  6026   0.130E-01    0.404E-01
RMM:   4    -0.232386059380E+04    0.11164E-02   -0.73498E-03  5477   0.326E-02    0.193E-01
RMM:   5    -0.232386074314E+04   -0.14934E-03   -0.13384E-03  4592   0.168E-02    0.240E-01
RMM:   6    -0.232386033299E+04    0.41014E-03   -0.91435E-04  4568   0.143E-02    0.106E-01
RMM:   7    -0.232386025588E+04    0.77115E-04   -0.15563E-04  3292   0.741E-03    0.239E-02
RMM:   8    -0.232386024800E+04    0.78808E-05   -0.23585E-05  2963   0.415E-03
  90 F= -.23448677E+04 E0= -.23448677E+04  d E =0.110311E-01  mag=     4.0000
       N       E                     dE             d eps       ncg     rms          rms(c)
DAV:   1    -0.232385047257E+04    0.97833E-02   -0.10046E+00  4480   0.731E-01    0.300E-01
RMM:   2    -0.232386422150E+04   -0.13749E-01   -0.14523E-01  6634   0.195E-01    0.230E-01
RMM:   3    -0.232386511723E+04   -0.89573E-03   -0.14786E-02  5348   0.604E-02    0.194E-01
RMM:   4    -0.232386485148E+04    0.26575E-03   -0.16254E-03  4320   0.155E-02    0.938E-02
RMM:   5    -0.232386488615E+04   -0.34679E-04   -0.31266E-04  3334   0.850E-03    0.117E-01
RMM:   6    -0.232386477883E+04    0.10732E-03   -0.19208E-04  3188   0.788E-03    0.463E-02
RMM:   7    -0.232386476647E+04    0.12361E-04   -0.35887E-05  2984   0.454E-03    0.110E-02
RMM:   8    -0.232386476529E+04    0.11823E-05   -0.54730E-06  2776   0.276E-03
  91 F= -.23448731E+04 E0= -.23448731E+04  d E =-.539707E-02  mag=     4.0000
       N       E                     dE             d eps       ncg     rms          rms(c)
DAV:   1    -0.232386457888E+04    0.18759E-03   -0.21059E-03  4624   0.432E-02    0.161E-02
RMM:   2    -0.232386460511E+04   -0.26230E-04   -0.27850E-04  4145   0.103E-02    0.123E-02
RMM:   3    -0.232386460687E+04   -0.17615E-05   -0.30487E-05  2641   0.518E-03
  92 F= -.23448729E+04 E0= -.23448729E+04  d E =0.192086E-03  mag=     4.0000
       N       E                     dE             d eps       ncg     rms          rms(c)
DAV:   1    -0.232386262441E+04    0.19807E-02   -0.31920E-01  4504   0.416E-01    0.167E-01
RMM:   2    -0.232386690654E+04   -0.42821E-02   -0.45173E-02  6608   0.110E-01    0.130E-01
RMM:   3    -0.232386718319E+04   -0.27665E-03   -0.46011E-03  4210   0.338E-02    0.109E-01
RMM:   4    -0.232386710099E+04    0.82198E-04   -0.50237E-04  3427   0.941E-03    0.527E-02
RMM:   5    -0.232386711416E+04   -0.13169E-04   -0.97225E-05  2946   0.535E-03    0.661E-02
RMM:   6    -0.232386707822E+04    0.35936E-04   -0.57363E-05  2870   0.473E-03    0.233E-02
RMM:   7    -0.232386707597E+04    0.22568E-05   -0.11904E-05  2821   0.296E-03
  93 F= -.23448759E+04 E0= -.23448759E+04  d E =-.296819E-02  mag=     4.0000
       N       E                     dE             d eps       ncg     rms          rms(c)
DAV:   1    -0.232385928211E+04    0.77961E-02   -0.83549E-01  4480   0.674E-01    0.272E-01
RMM:   2    -0.232387056513E+04   -0.11283E-01   -0.11870E-01  6640   0.178E-01    0.217E-01
RMM:   3    -0.232387124291E+04   -0.67779E-03   -0.12048E-02  5245   0.549E-02    0.180E-01
RMM:   4    -0.232387102466E+04    0.21826E-03   -0.13500E-03  4112   0.142E-02    0.905E-02
RMM:   5    -0.232387106091E+04   -0.36248E-04   -0.27617E-04  3253   0.785E-03    0.111E-01
RMM:   6    -0.232387095535E+04    0.10556E-03   -0.15575E-04  3185   0.745E-03    0.339E-02
RMM:   7    -0.232387095144E+04    0.39071E-05   -0.30843E-05  2958   0.427E-03
  94 F= -.23448806E+04 E0= -.23448806E+04  d E =-.467870E-02  mag=     4.0000
       N       E                     dE             d eps       ncg     rms          rms(c)
DAV:   1    -0.232387009402E+04    0.86133E-03   -0.19836E-02  4576   0.109E-01    0.431E-02
RMM:   2    -0.232387037226E+04   -0.27824E-03   -0.29539E-03  5975   0.285E-02    0.316E-02
RMM:   3    -0.232387039111E+04   -0.18853E-04   -0.30217E-04  2957   0.981E-03    0.272E-02
RMM:   4    -0.232387038571E+04    0.54032E-05   -0.33042E-05  2893   0.337E-03
  95 F= -.23448799E+04 E0= -.23448799E+04  d E =0.696704E-03  mag=     4.0000
       N       E                     dE             d eps       ncg     rms          rms(c)
DAV:   1    -0.232387069638E+04   -0.30527E-03   -0.29103E-02  4512   0.129E-01    0.518E-02
RMM:   2    -0.232387109698E+04   -0.40060E-03   -0.41217E-03  5921   0.348E-02    0.539E-02
RMM:   3    -0.232387110873E+04   -0.11747E-04   -0.43350E-04  2980   0.111E-02    0.365E-02
RMM:   4    -0.232387110347E+04    0.52530E-05   -0.48639E-05  2874   0.380E-03
  96 F= -.23448807E+04 E0= -.23448807E+04  d E =-.861163E-03  mag=     4.0000
       N       E                     dE             d eps       ncg     rms          rms(c)
DAV:   1    -0.232387121198E+04   -0.10325E-03   -0.84723E-04  4568   0.257E-02    0.160E-02
RMM:   2    -0.232387122283E+04   -0.10850E-04   -0.97527E-05  3365   0.614E-03    0.199E-02
RMM:   3    -0.232387122047E+04    0.23532E-05   -0.14214E-05  2550   0.368E-03
  97 F= -.23448809E+04 E0= -.23448809E+04  d E =-.134404E-03  mag=     4.0000
       N       E                     dE             d eps       ncg     rms          rms(c)
DAV:   1    -0.232387145951E+04   -0.23668E-03   -0.49506E-03  4512   0.587E-02    0.213E-02
RMM:   2    -0.232387151198E+04   -0.52474E-04   -0.55384E-04  4844   0.138E-02    0.186E-02
RMM:   3    -0.232387151665E+04   -0.46671E-05   -0.61026E-05  2752   0.519E-03
  98 F= -.23448812E+04 E0= -.23448812E+04  d E =-.338270E-03  mag=     4.0000
       N       E                     dE             d eps       ncg     rms          rms(c)
DAV:   1    -0.232387177598E+04   -0.26400E-03   -0.73828E-03  4416   0.664E-02    0.280E-02
RMM:   2    -0.232387186922E+04   -0.93236E-04   -0.98229E-04  5102   0.175E-02    0.233E-02
RMM:   3    -0.232387187428E+04   -0.50590E-05   -0.10310E-04  2858   0.629E-03    0.181E-02
RMM:   4    -0.232387187213E+04    0.21513E-05   -0.12570E-05  2599   0.233E-03
  99 F= -.23448816E+04 E0= -.23448816E+04  d E =-.430643E-03  mag=     4.0000
       N       E                     dE             d eps       ncg     rms          rms(c)
DAV:   1    -0.232387183872E+04    0.35558E-04   -0.12627E-04  4664   0.113E-02    0.132E-02
RMM:   2    -0.232387185204E+04   -0.13322E-04   -0.31931E-05  2703   0.348E-03    0.383E-02
RMM:   3    -0.232387183858E+04    0.13460E-04   -0.97928E-06  2332   0.265E-03    0.251E-03
RMM:   4    -0.232387183845E+04    0.12928E-06   -0.77483E-07  1077   0.720E-04
 100 F= -.23448816E+04 E0= -.23448816E+04  d E =0.386120E-04  mag=     4.0000
       N       E                     dE             d eps       ncg     rms          rms(c)
DAV:   1    -0.232387194382E+04   -0.10524E-03   -0.72775E-04  4176   0.209E-02    0.826E-03
RMM:   2    -0.232387195334E+04   -0.95187E-05   -0.98041E-05  3120   0.546E-03
 101 F= -.23448817E+04 E0= -.23448817E+04  d E =-.134846E-03  mag=     4.0000
       N       E                     dE             d eps       ncg     rms          rms(c)
DAV:   1    -0.232387221666E+04   -0.27284E-03   -0.56368E-03  4464   0.578E-02    0.242E-02
RMM:   2    -0.232387228342E+04   -0.66753E-04   -0.68412E-04  4887   0.142E-02    0.252E-02
RMM:   3    -0.232387228298E+04    0.43436E-06   -0.76336E-05  2849   0.661E-03
 102 F= -.23448821E+04 E0= -.23448821E+04  d E =-.378824E-03  mag=     4.0000
       N       E                     dE             d eps       ncg     rms          rms(c)
[...]
RMM:   4    -0.232389167288E+04    0.24064E-03   -0.95770E-04  3737   0.132E-02    0.854E-02
RMM:   5    -0.232389166354E+04    0.93376E-05   -0.23178E-04  3338   0.758E-03    0.771E-02
RMM:   6    -0.232389160390E+04    0.59636E-04   -0.12044E-04  3185   0.717E-03    0.251E-02
RMM:   7    -0.232389160070E+04    0.32050E-05   -0.27995E-05  2944   0.431E-03
 169 F= -.23449052E+04 E0= -.23449052E+04  d E =0.357818E-02  mag=     4.0000
       N       E                     dE             d eps       ncg     rms          rms(c)
DAV:   1    -0.232389084213E+04    0.76177E-03   -0.15825E-01  4480   0.302E-01    0.117E-01
RMM:   2    -0.232389301567E+04   -0.21735E-02   -0.22909E-02  6555   0.797E-02    0.919E-02
RMM:   3    -0.232389314797E+04   -0.13230E-03   -0.22951E-03  3615   0.244E-02    0.778E-02
RMM:   4    -0.232389310675E+04    0.41223E-04   -0.24916E-04  3185   0.736E-03    0.388E-02
RMM:   5    -0.232389311156E+04   -0.48088E-05   -0.53183E-05  2840   0.409E-03
 170 F= -.23449070E+04 E0= -.23449070E+04  d E =-.180605E-02  mag=     4.0000
       N       E                     dE             d eps       ncg     rms          rms(c)
DAV:   1    -0.232389331522E+04   -0.20847E-03   -0.96784E-03  4456   0.770E-02    0.333E-02
RMM:   2    -0.232389346240E+04   -0.14718E-03   -0.14801E-03  5265   0.202E-02    0.369E-02
RMM:   3    -0.232389346423E+04   -0.18310E-05   -0.16461E-04  2896   0.733E-03    0.228E-02
RMM:   4    -0.232389346271E+04    0.15174E-05   -0.17662E-05  2680   0.257E-03
 171 F= -.23449074E+04 E0= -.23449074E+04  d E =-.422324E-03  mag=     4.0000
       N       E                     dE             d eps       ncg     rms          rms(c)
DAV:   1    -0.232389349826E+04   -0.34037E-04   -0.60577E-02  4480   0.188E-01    0.745E-02
RMM:   2    -0.232389432617E+04   -0.82790E-03   -0.87813E-03  6309   0.494E-02    0.529E-02
RMM:   3    -0.232389439231E+04   -0.66140E-04   -0.90086E-04  3101   0.154E-02    0.507E-02
RMM:   4    -0.232389438038E+04    0.11925E-04   -0.10067E-04  2965   0.506E-03    0.294E-02
RMM:   5    -0.232389438155E+04   -0.11652E-05   -0.23018E-05  2773   0.274E-03
 172 F= -.23449085E+04 E0= -.23449085E+04  d E =-.109739E-02  mag=     4.0000
       N       E                     dE             d eps       ncg     rms          rms(c)
DAV:   1    -0.232389316312E+04    0.12173E-02   -0.20178E-01  4480   0.342E-01    0.134E-01
RMM:   2    -0.232389593697E+04   -0.27738E-02   -0.29000E-02  6572   0.904E-02    0.115E-01
RMM:   3    -0.232389609522E+04   -0.15825E-03   -0.30589E-03  3803   0.283E-02    0.906E-02
RMM:   4    -0.232389603937E+04    0.55854E-04   -0.31996E-04  3282   0.816E-03    0.441E-02
RMM:   5    -0.232389605265E+04   -0.13284E-04   -0.74723E-05  2887   0.455E-03    0.590E-02
RMM:   6    -0.232389602403E+04    0.28619E-04   -0.43501E-05  2869   0.424E-03    0.170E-02
RMM:   7    -0.232389602294E+04    0.10931E-05   -0.90763E-06  2748   0.259E-03
 173 F= -.23449105E+04 E0= -.23449105E+04  d E =-.196668E-02  mag=     4.0000
       N       E                     dE             d eps       ncg     rms          rms(c)
DAV:   1    -0.232389222740E+04    0.37966E-02   -0.42665E-01  4480   0.498E-01    0.193E-01
RMM:   2    -0.232389810707E+04   -0.58797E-02   -0.61919E-02  6617   0.132E-01    0.148E-01
RMM:   3    -0.232389849903E+04   -0.39197E-03   -0.62261E-03  4555   0.403E-02    0.127E-01
RMM:   4    -0.232389839093E+04    0.10810E-03   -0.68432E-04  3617   0.108E-02    0.614E-02
RMM:   5    -0.232389840572E+04   -0.14789E-04   -0.13449E-04  3036   0.606E-03    0.756E-02
RMM:   6    -0.232389836092E+04    0.44799E-04   -0.78760E-05  2923   0.552E-03    0.300E-02
RMM:   7    -0.232389835634E+04    0.45854E-05   -0.17740E-05  2887   0.350E-03
 174 F= -.23449133E+04 E0= -.23449133E+04  d E =-.281754E-02  mag=     4.0000
       N       E                     dE             d eps       ncg     rms          rms(c)
DAV:   1    -0.232388916735E+04    0.91936E-02   -0.85580E-01  4480   0.707E-01    0.274E-01
RMM:   2    -0.232390104962E+04   -0.11882E-01   -0.12505E-01  6635   0.188E-01    0.212E-01
RMM:   3    -0.232390187159E+04   -0.82197E-03   -0.12526E-02  5244   0.573E-02    0.184E-01
RMM:   4    -0.232390164620E+04    0.22539E-03   -0.13907E-03  4203   0.148E-02    0.893E-02
RMM:   5    -0.232390167539E+04   -0.29190E-04   -0.27657E-04  3252   0.792E-03    0.108E-01
RMM:   6    -0.232390158066E+04    0.94728E-04   -0.15505E-04  3165   0.750E-03    0.402E-02
RMM:   7    -0.232390157292E+04    0.77441E-05   -0.35800E-05  2999   0.456E-03
 175 F= -.23449172E+04 E0= -.23449172E+04  d E =-.391633E-02  mag=     4.0000
       N       E                     dE             d eps       ncg     rms          rms(c)
DAV:   1    -0.232390061257E+04    0.96810E-03   -0.15610E-01  4480   0.305E-01    0.119E-01
RMM:   2    -0.232390281235E+04   -0.21998E-02   -0.23199E-02  6547   0.810E-02    0.875E-02
RMM:   3    -0.232390297815E+04   -0.16580E-03   -0.23407E-03  3601   0.253E-02    0.787E-02
RMM:   4    -0.232390293867E+04    0.39484E-04   -0.26208E-04  3172   0.765E-03    0.377E-02
RMM:   5    -0.232390294394E+04   -0.52683E-05   -0.48736E-05  2889   0.406E-03
 176 F= -.23449189E+04 E0= -.23449189E+04  d E =-.166793E-02  mag=     4.0000
       N       E                     dE             d eps       ncg     rms          rms(c)
DAV:   1    -0.232388580055E+04    0.17138E-01   -0.14587E+00  4480   0.922E-01    0.360E-01
RMM:   2    -0.232390628279E+04   -0.20482E-01   -0.21524E-01  6643   0.248E-01    0.283E-01
RMM:   3    -0.232390752332E+04   -0.12405E-02   -0.21321E-02  5577   0.748E-02    0.234E-01
RMM:   4    -0.232390714409E+04    0.37923E-03   -0.23401E-03  4696   0.190E-02    0.107E-01
RMM:   5    -0.232390712532E+04    0.18768E-04   -0.37840E-04  3627   0.100E-02    0.105E-01
RMM:   6    -0.232390709660E+04    0.28721E-04   -0.26901E-04  3312   0.915E-03    0.886E-02
RMM:   7    -0.232390703778E+04    0.58820E-04   -0.65931E-05  3041   0.555E-03    0.147E-02
RMM:   8    -0.232390703554E+04    0.22440E-05   -0.11867E-05  2860   0.330E-03
 177 F= -.23449239E+04 E0= -.23449239E+04  d E =-.498953E-02  mag=     4.0000
       N       E                     dE             d eps       ncg     rms          rms(c)
DAV:   1    -0.232388769646E+04    0.19341E-01   -0.10897E+00  4480   0.793E-01    0.308E-01
RMM:   2    -0.232390270967E+04   -0.15013E-01   -0.15834E-01  6648   0.210E-01    0.232E-01
RMM:   3    -0.232390386496E+04   -0.11553E-02   -0.16549E-02  5362   0.654E-02    0.198E-01
RMM:   4    -0.232390359972E+04    0.26524E-03   -0.17090E-03  4422   0.165E-02    0.929E-02
RMM:   5    -0.232390361228E+04   -0.12563E-04   -0.29961E-04  3464   0.901E-03    0.107E-01
RMM:   6    -0.232390354181E+04    0.70471E-04   -0.20538E-04  3264   0.806E-03    0.595E-02
RMM:   7    -0.232390351575E+04    0.26062E-04   -0.42489E-05  2984   0.498E-03    0.109E-02
RMM:   8    -0.232390351475E+04    0.10054E-05   -0.68367E-06  2819   0.294E-03
 178 F= -.23449196E+04 E0= -.23449196E+04  d E =0.429317E-02  mag=     4.0000
       N       E                     dE             d eps       ncg     rms          rms(c)
DAV:   1    -0.232390259020E+04    0.92555E-03   -0.15536E-01  4480   0.301E-01    0.117E-01
RMM:   2    -0.232390476176E+04   -0.21716E-02   -0.22940E-02  6550   0.811E-02    0.856E-02
RMM:   3    -0.232390492719E+04   -0.16543E-03   -0.22657E-03  3617   0.246E-02    0.806E-02
RMM:   4    -0.232390488452E+04    0.42668E-04   -0.25361E-04  3160   0.758E-03    0.396E-02
RMM:   5    -0.232390488725E+04   -0.27276E-05   -0.51346E-05  2877   0.405E-03
 179 F= -.23449213E+04 E0= -.23449213E+04  d E =-.166942E-02  mag=     4.0000
       N       E                     dE             d eps       ncg     rms          rms(c)
DAV:   1    -0.232390487055E+04    0.13970E-04   -0.56049E-05  4240   0.857E-03    0.166E-02
RMM:   2    -0.232390488087E+04   -0.10326E-04   -0.23527E-05  2463   0.337E-03    0.343E-02
RMM:   3    -0.232390487002E+04    0.10853E-04   -0.10781E-05  1967   0.240E-03    0.773E-03
RMM:   4    -0.232390487011E+04   -0.85376E-07   -0.18804E-06  1615   0.116E-03
 180 F= -.23449213E+04 E0= -.23449213E+04  d E =0.171740E-04  mag=     4.0000
       N       E                     dE             d eps       ncg     rms          rms(c)
DAV:   1    -0.232390487168E+04   -0.16558E-05   -0.21270E-03  4352   0.399E-02    0.190E-02
RMM:   2    -0.232390493436E+04   -0.62688E-04   -0.57744E-04  4381   0.116E-02    0.340E-02
RMM:   3    -0.232390492727E+04    0.70961E-05   -0.54458E-05  2554   0.493E-03
 181 F= -.23449213E+04 E0= -.23449213E+04  d E =-.705017E-04  mag=     4.0000
       N       E                     dE             d eps       ncg     rms          rms(c)
DAV:   1    -0.232390456785E+04    0.36652E-03   -0.62820E-02  4480   0.189E-01    0.812E-02
RMM:   2    -0.232390569015E+04   -0.11223E-02   -0.11612E-02  6314   0.548E-02    0.744E-02
RMM:   3    -0.232390574358E+04   -0.53430E-04   -0.11851E-03  3139   0.173E-02    0.531E-02
RMM:   4    -0.232390572889E+04    0.14693E-04   -0.12711E-04  3010   0.521E-03    0.257E-02
RMM:   5    -0.232390573067E+04   -0.17867E-05   -0.20647E-05  2700   0.254E-03
 182 F= -.23449223E+04 E0= -.23449223E+04  d E =-.100229E-02  mag=     4.0000
       N       E                     dE             d eps       ncg     rms          rms(c)
DAV:   1    -0.232390545518E+04    0.27371E-03   -0.58722E-02  4480   0.183E-01    0.777E-02
RMM:   2    -0.232390646428E+04   -0.10091E-02   -0.10524E-02  6248   0.520E-02    0.653E-02
RMM:   3    -0.232390652743E+04   -0.63143E-04   -0.11130E-03  3126   0.167E-02    0.512E-02
RMM:   4    -0.232390651159E+04    0.15840E-04   -0.11527E-04  2998   0.532E-03    0.240E-02
RMM:   5    -0.232390651511E+04   -0.35256E-05   -0.21701E-05  2755   0.260E-03
 183 F= -.23449233E+04 E0= -.23449233E+04  d E =-.969362E-03  mag=     4.0000
       N       E                     dE             d eps       ncg     rms          rms(c)
DAV:   1    -0.232390003860E+04    0.64730E-02   -0.48038E-01  4480   0.519E-01    0.222E-01
RMM:   2    -0.232390835660E+04   -0.83180E-02   -0.86705E-02  6638   0.150E-01    0.193E-01
RMM:   3    -0.232390883809E+04   -0.48149E-03   -0.87290E-03  4588   0.458E-02    0.155E-01
RMM:   4    -0.232390870866E+04    0.12942E-03   -0.95018E-04  3556   0.113E-02    0.784E-02
RMM:   5    -0.232390871295E+04   -0.42851E-05   -0.16392E-04  3073   0.628E-03    0.774E-02
RMM:   6    -0.232390865639E+04    0.56558E-04   -0.99235E-05  3055   0.613E-03    0.278E-02
RMM:   7    -0.232390865254E+04    0.38538E-05   -0.27506E-05  2910   0.398E-03
 184 F= -.23449260E+04 E0= -.23449260E+04  d E =-.269193E-02  mag=     4.0000
       N       E                     dE             d eps       ncg     rms          rms(c)
DAV:   1    -0.232390703116E+04    0.16252E-02   -0.15549E-01  4480   0.296E-01    0.127E-01
RMM:   2    -0.232390969621E+04   -0.26650E-02   -0.27949E-02  6539   0.841E-02    0.101E-01
RMM:   3    -0.232390986976E+04   -0.17355E-03   -0.28142E-03  3540   0.263E-02    0.844E-02
RMM:   4    -0.232390983013E+04    0.39624E-04   -0.30688E-04  3134   0.734E-03    0.397E-02
RMM:   5    -0.232390983409E+04   -0.39544E-05   -0.45981E-05  2833   0.360E-03
 185 F= -.23449275E+04 E0= -.23449275E+04  d E =-.150897E-02  mag=     4.0000
       N       E                     dE             d eps       ncg     rms          rms(c)
DAV:   1    -0.232390906917E+04    0.76097E-03   -0.80129E-02  4480   0.214E-01    0.940E-02
RMM:   2    -0.232391053134E+04   -0.14622E-02   -0.15179E-02  6456   0.622E-02    0.822E-02
RMM:   3    -0.232391061466E+04   -0.83313E-04   -0.15922E-03  3285   0.198E-02    0.616E-02
RMM:   4    -0.232391059236E+04    0.22300E-04   -0.16807E-04  3036   0.605E-03    0.287E-02
RMM:   5    -0.232391059785E+04   -0.54905E-05   -0.29877E-05  2811   0.305E-03
 186 F= -.23449285E+04 E0= -.23449285E+04  d E =-.102736E-02  mag=     4.0000
       N       E                     dE             d eps       ncg     rms          rms(c)
DAV:   1    -0.232390492718E+04    0.56652E-02   -0.42069E-01  4480   0.483E-01    0.208E-01
RMM:   2    -0.232391215237E+04   -0.72252E-02   -0.75370E-02  6639   0.140E-01    0.180E-01
RMM:   3    -0.232391260279E+04   -0.45042E-03   -0.75866E-03  4488   0.423E-02    0.150E-01
RMM:   4    -0.232391247795E+04    0.12485E-03   -0.83917E-04  3472   0.107E-02    0.751E-02
RMM:   5    -0.232391247908E+04   -0.11393E-05   -0.14791E-04  3043   0.598E-03    0.713E-02
RMM:   6    -0.232391242986E+04    0.49227E-04   -0.87478E-05  3026   0.581E-03    0.253E-02
RMM:   7    -0.232391242704E+04    0.28142E-05   -0.23810E-05  2889   0.371E-03
 187 F= -.23449309E+04 E0= -.23449309E+04  d E =-.238864E-02  mag=     4.0000
       N       E                     dE             d eps       ncg     rms          rms(c)
DAV:   1    -0.232378236822E+04    0.13006E+00   -0.66936E+00  4480   0.193E+00    0.831E-01
RMM:   2    -0.232389899974E+04   -0.11663E+00   -0.12145E+00  6680   0.548E-01    0.727E-01
RMM:   3    -0.232390712186E+04   -0.81221E-02   -0.13037E-01  5949   0.174E-01    0.567E-01
RMM:   4    -0.232390540457E+04    0.17173E-02   -0.12954E-02  5378   0.406E-02    0.263E-01
RMM:   5    -0.232390552030E+04   -0.11572E-03   -0.20837E-03  5015   0.192E-02    0.275E-01
RMM:   6    -0.232390483568E+04    0.68462E-03   -0.13078E-03  4873   0.181E-02    0.116E-01
RMM:   7    -0.232390474334E+04    0.92339E-04   -0.37764E-04  4034   0.107E-02    0.372E-02
RMM:   8    -0.232390472754E+04    0.15796E-04   -0.39375E-05  3016   0.500E-03    0.141E-02
RMM:   9    -0.232390472476E+04    0.27843E-05   -0.12312E-05  2850   0.276E-03
 188 F= -.23449211E+04 E0= -.23449211E+04  d E =0.985552E-02  mag=     4.0000
       N       E                     dE             d eps       ncg     rms          rms(c)
DAV:   1    -0.232390478163E+04   -0.54089E-04   -0.44609E-02  4480   0.163E-01    0.632E-02
RMM:   2    -0.232390541509E+04   -0.63346E-03   -0.66999E-03  6220   0.440E-02    0.446E-02
RMM:   3    -0.232390546238E+04   -0.47292E-04   -0.67134E-04  3064   0.137E-02    0.417E-02
RMM:   4    -0.232390545079E+04    0.11591E-04   -0.73244E-05  2967   0.474E-03    0.196E-02
RMM:   5    -0.232390545091E+04   -0.12584E-06   -0.14005E-05  2732   0.245E-03
 189 F= -.23449219E+04 E0= -.23449219E+04  d E =-.882666E-03  mag=     4.0000
       N       E                     dE             d eps       ncg     rms          rms(c)
DAV:   1    -0.232390539188E+04    0.58903E-04   -0.11183E-03  4768   0.313E-02    0.144E-02
RMM:   2    -0.232390541724E+04   -0.25360E-04   -0.26170E-04  3942   0.882E-03    0.114E-02
RMM:   3    -0.232390542052E+04   -0.32763E-05   -0.32174E-05  2531   0.491E-03
 190 F= -.23449219E+04 E0= -.23449219E+04  d E =0.547631E-04  mag=     4.0000
       N       E                     dE             d eps       ncg     rms          rms(c)
DAV:   1    -0.232390496663E+04    0.45061E-03   -0.92454E-02  4480   0.231E-01    0.939E-02
RMM:   2    -0.232390637026E+04   -0.14036E-02   -0.14819E-02  6458   0.641E-02    0.705E-02
RMM:   3    -0.232390646746E+04   -0.97198E-04   -0.14932E-03  3257   0.197E-02    0.606E-02
RMM:   4    -0.232390644457E+04    0.22889E-04   -0.15877E-04  3057   0.609E-03    0.269E-02
RMM:   5    -0.232390644125E+04    0.33215E-05   -0.20164E-05  2792   0.303E-03
 191 F= -.23449231E+04 E0= -.23449231E+04  d E =-.126098E-02  mag=     4.0000
       N       E                     dE             d eps       ncg     rms          rms(c)
DAV:   1    -0.232390569068E+04    0.75388E-03   -0.20503E-02  4480   0.110E-01    0.470E-02
RMM:   2    -0.232390597818E+04   -0.28749E-03   -0.26985E-03  5800   0.277E-02    0.739E-02
RMM:   3    -0.232390595799E+04    0.20185E-04   -0.31322E-04  2983   0.927E-03    0.307E-02
RMM:   4    -0.232390595130E+04    0.66960E-05   -0.30131E-05  2663   0.323E-03
 192 F= -.23449226E+04 E0= -.23449226E+04  d E =0.593361E-03  mag=     4.0000
       N       E                     dE             d eps       ncg     rms          rms(c)
DAV:   1    -0.232390614008E+04   -0.18208E-03   -0.12762E-02  4448   0.922E-02    0.353E-02
RMM:   2    -0.232390633752E+04   -0.19744E-03   -0.19752E-03  5625   0.243E-02    0.402E-02
RMM:   3    -0.232390633594E+04    0.15834E-05   -0.20505E-04  2919   0.839E-03    0.211E-02
RMM:   4    -0.232390633328E+04    0.26550E-05   -0.20463E-05  2518   0.285E-03
 193 F= -.23449230E+04 E0= -.23449230E+04  d E =-.447994E-03  mag=     4.0000
       N       E                     dE             d eps       ncg     rms          rms(c)
DAV:   1    -0.232390638975E+04   -0.53813E-04   -0.40859E-04  4240   0.180E-02    0.122E-02
RMM:   2    -0.232390640243E+04   -0.12685E-04   -0.77729E-05  3074   0.482E-03    0.280E-02
RMM:   3    -0.232390639600E+04    0.64383E-05   -0.13119E-05  2353   0.310E-03
 194 F= -.23449231E+04 E0= -.23449231E+04  d E =-.714507E-04  mag=     4.0000
       N       E                     dE             d eps       ncg     rms          rms(c)
DAV:   1    -0.232390641805E+04   -0.15620E-04   -0.15150E-03  4304   0.353E-02    0.161E-02
RMM:   2    -0.232390646102E+04   -0.42967E-04   -0.37982E-04  4073   0.974E-03    0.298E-02
RMM:   3    -0.232390645551E+04    0.55156E-05   -0.37983E-05  2576   0.454E-03
 195 F= -.23449231E+04 E0= -.23449231E+04  d E =-.505096E-04  mag=     4.0000
       N       E                     dE             d eps       ncg     rms          rms(c)
DAV:   1    -0.232390658370E+04   -0.12268E-03   -0.14743E-02  4464   0.100E-01    0.376E-02
RMM:   2    -0.232390684114E+04   -0.25744E-03   -0.26316E-03  5590   0.275E-02    0.365E-02
RMM:   3    -0.232390685588E+04   -0.14737E-04   -0.25346E-04  2995   0.870E-03    0.302E-02
RMM:   4    -0.232390685013E+04    0.57478E-05   -0.28329E-05  2778   0.315E-03
 196 F= -.23449236E+04 E0= -.23449236E+04  d E =-.460891E-03  mag=     4.0000
       N       E                     dE             d eps       ncg     rms          rms(c)
DAV:   1    -0.232390683962E+04    0.16255E-04   -0.14128E-04  5080   0.117E-02    0.114E-02
RMM:   2    -0.232390684776E+04   -0.81382E-05   -0.38512E-05  2728   0.360E-03
 197 F= -.23449236E+04 E0= -.23449236E+04  d E =0.761659E-05  mag=     4.0000
       N       E                     dE             d eps       ncg     rms          rms(c)
DAV:   1    -0.232390684177E+04   -0.21454E-05   -0.16503E-05  2720   0.531E-03    0.447E-03
RMM:   2    -0.232390684247E+04   -0.69862E-06   -0.28452E-06  1520   0.116E-03
 198 F= -.23449236E+04 E0= -.23449236E+04  d E =0.517531E-05  mag=     4.0000
       N       E                     dE             d eps       ncg     rms          rms(c)
DAV:   1    -0.232390690604E+04   -0.64269E-04   -0.11100E-03  4168   0.278E-02    0.122E-02
RMM:   2    -0.232390693098E+04   -0.24942E-04   -0.23099E-04  3662   0.743E-03    0.196E-02
RMM:   3    -0.232390692946E+04    0.15225E-05   -0.24719E-05  2300   0.380E-03
 199 F= -.23449237E+04 E0= -.23449237E+04  d E =-.102044E-03  mag=     4.0000
       N       E                     dE             d eps       ncg     rms          rms(c)
DAV:   1    -0.232390707722E+04   -0.14624E-03   -0.14926E-02  4456   0.980E-02    0.384E-02
RMM:   2    -0.232390731592E+04   -0.23871E-03   -0.24584E-03  5662   0.263E-02    0.341E-02
RMM:   3    -0.232390733289E+04   -0.16972E-04   -0.24130E-04  2994   0.840E-03    0.317E-02
RMM:   4    -0.232390732621E+04    0.66798E-05   -0.27443E-05  2745   0.317E-03
 200 F= -.23449241E+04 E0= -.23449241E+04  d E =-.469402E-03  mag=     4.0000
       N       E                     dE             d eps       ncg     rms          rms(c)
DAV:   1    -0.232390747765E+04   -0.14476E-03   -0.51507E-03  4368   0.592E-02    0.239E-02
RMM:   2    -0.232390756963E+04   -0.91983E-04   -0.91243E-04  5006   0.158E-02    0.290E-02
RMM:   3    -0.232390757123E+04   -0.15969E-05   -0.92971E-05  2788   0.570E-03
 201 F= -.23449244E+04 E0= -.23449244E+04  d E =-.266857E-03  mag=     4.0000
