       N       E                     dE             d eps       ncg     rms          rms(c)
DAV:   1     0.125101870095E+05    0.12510E+05   -0.81789E+05  4384   0.143E+03
DAV:   2    -0.107216684703E+04   -0.13582E+05   -0.13039E+05  5344   0.329E+02
DAV:   3    -0.246232639844E+04   -0.13902E+04   -0.13792E+04  5240   0.109E+02
DAV:   4    -0.250020333602E+04   -0.37877E+02   -0.37705E+02  6264   0.250E+01
DAV:   5    -0.250095818062E+04   -0.75484E+00   -0.75385E+00  5464   0.292E+00    0.170E+02
RMM:   6    -0.145515656554E+04    0.10458E+04   -0.19278E+03  4329   0.389E+01    0.723E+01
RMM:   7    -0.163297674097E+04   -0.17782E+03   -0.26992E+02  4872   0.141E+01    0.489E+01
RMM:   8    -0.168931663536E+04   -0.56340E+02   -0.46162E+01  4934   0.722E+00    0.366E+01
RMM:   9    -0.180682732467E+04   -0.11751E+03   -0.58309E+01  4542   0.769E+00    0.246E+01
RMM:  10    -0.196110067372E+04   -0.15427E+03   -0.62967E+01  4707   0.738E+00    0.166E+01
RMM:  11    -0.207084642051E+04   -0.10975E+03   -0.56936E+01  4477   0.578E+00    0.129E+01
RMM:  12    -0.221885283736E+04   -0.14801E+03   -0.13382E+02  4376   0.821E+00    0.980E+00
RMM:  13    -0.227336994666E+04   -0.54517E+02   -0.52213E+01  4468   0.523E+00    0.495E+00
RMM:  14    -0.228679316927E+04   -0.13423E+02   -0.15605E+01  4626   0.319E+00    0.409E+00
RMM:  15    -0.228982487088E+04   -0.30317E+01   -0.36962E+00  4916   0.145E+00    0.248E+00
RMM:  16    -0.229317892928E+04   -0.33541E+01   -0.23457E+00  4406   0.991E-01    0.738E+00
RMM:  17    -0.229344356886E+04   -0.26464E+00   -0.30550E-01  4816   0.526E-01    0.653E+00
RMM:  18    -0.229375915831E+04   -0.31559E+00   -0.22481E-01  4763   0.197E-01    0.582E+00
RMM:  19    -0.229428840602E+04   -0.52925E+00   -0.45325E-01  4369   0.371E-01    0.355E+00
RMM:  20    -0.229441477415E+04   -0.12637E+00   -0.19511E-01  4605   0.277E-01    0.211E+00
RMM:  21    -0.229454436860E+04   -0.12959E+00   -0.12060E-01  4492   0.182E-01    0.938E-01
RMM:  22    -0.229466978796E+04   -0.12542E+00   -0.47165E-02  4614   0.156E-01    0.410E-01
RMM:  23    -0.229479720045E+04   -0.12741E+00   -0.25771E-02  4379   0.925E-02    0.218E-01
RMM:  24    -0.229486501180E+04   -0.67811E-01   -0.12794E-02  4421   0.812E-02    0.167E-01
RMM:  25    -0.229490224717E+04   -0.37235E-01   -0.67717E-03  4451   0.520E-02    0.136E-01
RMM:  26    -0.229492993522E+04   -0.27688E-01   -0.61016E-03  4399   0.522E-02    0.733E-02
RMM:  27    -0.229493797815E+04   -0.80429E-02   -0.28739E-03  4545   0.351E-02    0.531E-02
RMM:  28    -0.229494128291E+04   -0.33048E-02   -0.98036E-04  4107   0.176E-02    0.445E-02
RMM:  29    -0.229494233968E+04   -0.10568E-02   -0.36781E-04  3912   0.145E-02    0.118E-02
RMM:  30    -0.229494266022E+04   -0.32054E-03   -0.10839E-04  3616   0.745E-03    0.906E-03
RMM:  31    -0.229494284766E+04   -0.18745E-03   -0.55882E-05  3206   0.567E-03    0.718E-03
RMM:  32    -0.229494291889E+04   -0.71227E-04   -0.39373E-05  2977   0.464E-03    0.597E-03
RMM:  33    -0.229494293170E+04   -0.12815E-04   -0.17976E-05  2796   0.359E-03    0.470E-03
RMM:  34    -0.229494293758E+04   -0.58807E-05   -0.99744E-06  2577   0.259E-03
   1 F= -.23148134E+04 E0= -.23148134E+04  d E =-.231481E+04  mag=    -0.0002
