       N       E                     dE             d eps       ncg     rms          rms(c)
DAV:   1     0.129744305679E+05    0.12974E+05   -0.83215E+05  4440   0.144E+03
DAV:   2    -0.102819924057E+04   -0.14003E+05   -0.13393E+05  5104   0.331E+02
DAV:   3    -0.246792569292E+04   -0.14397E+04   -0.14250E+04  5376   0.113E+02
DAV:   4    -0.251240964111E+04   -0.44484E+02   -0.44260E+02  6728   0.294E+01
DAV:   5    -0.251315015447E+04   -0.74051E+00   -0.73927E+00  5896   0.331E+00    0.170E+02
RMM:   6    -0.148130895622E+04    0.10318E+04   -0.19289E+03  4407   0.385E+01    0.721E+01
RMM:   7    -0.164326089635E+04   -0.16195E+03   -0.28818E+02  4981   0.143E+01    0.469E+01
RMM:   8    -0.170490554869E+04   -0.61645E+02   -0.29830E+01  5316   0.642E+00    0.349E+01
RMM:   9    -0.185696701083E+04   -0.15206E+03   -0.83422E+01  5066   0.888E+00    0.330E+01
RMM:  10    -0.194218510326E+04   -0.85218E+02   -0.43171E+01  5302   0.616E+00    0.186E+01
RMM:  11    -0.204613762919E+04   -0.10395E+03   -0.45967E+01  4824   0.536E+00    0.190E+01
RMM:  12    -0.208712693610E+04   -0.40989E+02   -0.15203E+01  5318   0.334E+00    0.152E+01
RMM:  13    -0.221366696654E+04   -0.12654E+03   -0.99668E+01  4409   0.733E+00    0.104E+01
RMM:  14    -0.226239506122E+04   -0.48728E+02   -0.38000E+01  4516   0.460E+00    0.631E+00
RMM:  15    -0.229337497790E+04   -0.30980E+02   -0.30947E+01  4641   0.385E+00    0.368E+00
RMM:  16    -0.230016177981E+04   -0.67868E+01   -0.81075E+00  4717   0.233E+00    0.213E+00
RMM:  17    -0.230265445247E+04   -0.24927E+01   -0.29333E+00  4825   0.937E-01    0.239E+00
RMM:  18    -0.230294565457E+04   -0.29120E+00   -0.28532E-01  5106   0.504E-01    0.371E+00
RMM:  19    -0.230310774143E+04   -0.16209E+00   -0.16007E-01  4575   0.209E-01    0.146E+00
RMM:  20    -0.230343777357E+04   -0.33003E+00   -0.13712E-01  4520   0.262E-01    0.193E+00
RMM:  21    -0.230348946656E+04   -0.51693E-01   -0.30846E-02  4613   0.153E-01    0.138E+00
RMM:  22    -0.230351725817E+04   -0.27792E-01   -0.24247E-02  4529   0.100E-01    0.132E+00
RMM:  23    -0.230352136596E+04   -0.41078E-02   -0.12483E-02  4561   0.927E-02    0.162E+00
RMM:  24    -0.230350599023E+04    0.15376E-01   -0.10632E-02  5068   0.651E-02    0.210E+00
RMM:  25    -0.230351004569E+04   -0.40555E-02   -0.62727E-04  4851   0.256E-02    0.201E+00
RMM:  26    -0.230353088552E+04   -0.20840E-01   -0.47429E-03  4850   0.362E-02    0.161E+00
RMM:  27    -0.230356612790E+04   -0.35242E-01   -0.21071E-02  4956   0.677E-02    0.115E+00
RMM:  28    -0.230359118655E+04   -0.25059E-01   -0.12764E-02  4969   0.572E-02    0.180E+00
RMM:  29    -0.230358543268E+04    0.57539E-02   -0.78312E-04  4286   0.204E-02    0.130E+00
RMM:  30    -0.230358685636E+04   -0.14237E-02   -0.13039E-03  4397   0.222E-02    0.136E+00
RMM:  31    -0.230357500984E+04    0.11847E-01   -0.14306E-02  4814   0.594E-02    0.129E+00
RMM:  32    -0.230356590560E+04    0.91042E-02   -0.81032E-03  4776   0.506E-02    0.168E+00
RMM:  33    -0.230355413046E+04    0.11775E-01   -0.57056E-03  5060   0.334E-02    0.205E+00
RMM:  34    -0.230354229954E+04    0.11831E-01   -0.24808E-03  4670   0.233E-02    0.234E+00
RMM:  35    -0.230355401745E+04   -0.11718E-01   -0.84143E-04  4242   0.127E-02    0.206E+00
RMM:  36    -0.230357829736E+04   -0.24280E-01   -0.85544E-03  5043   0.376E-02    0.143E+00
RMM:  37    -0.230360518910E+04   -0.26892E-01   -0.17902E-02  5123   0.557E-02    0.162E+00
RMM:  38    -0.230362528417E+04   -0.20095E-01   -0.91407E-03  4907   0.423E-02    0.252E+00
RMM:  39    -0.230362592465E+04   -0.64047E-03   -0.14933E-03  4079   0.173E-02    0.226E+00
RMM:  40    -0.230362268764E+04    0.32370E-02   -0.18597E-04  3012   0.569E-03    0.216E+00
RMM:  41    -0.230361991441E+04    0.27732E-02   -0.18357E-04  3237   0.607E-03    0.207E+00
RMM:  42    -0.230361941144E+04    0.50297E-03   -0.12636E-04  3000   0.531E-03    0.210E+00
RMM:  43    -0.230362169966E+04   -0.22882E-02   -0.12668E-04  3052   0.568E-03    0.223E+00
RMM:  44    -0.230362718736E+04   -0.54877E-02   -0.60481E-04  3849   0.120E-02    0.247E+00
RMM:  45    -0.230363433054E+04   -0.71432E-02   -0.71805E-04  3941   0.135E-02    0.273E+00
RMM:  46    -0.230364063014E+04   -0.62996E-02   -0.55628E-04  3812   0.105E-02    0.292E+00
RMM:  47    -0.230363949444E+04    0.11357E-02   -0.48625E-05  2863   0.502E-03    0.280E+00
RMM:  48    -0.230363695655E+04    0.25379E-02   -0.48695E-05  2630   0.385E-03    0.272E+00
RMM:  49    -0.230362733772E+04    0.96188E-02   -0.77378E-04  4034   0.108E-02    0.223E+00
RMM:  50    -0.230361828778E+04    0.90499E-02   -0.12720E-03  4069   0.156E-02    0.188E+00
RMM:  51    -0.230361071710E+04    0.75707E-02   -0.15267E-03  4486   0.158E-02    0.156E+00
RMM:  52    -0.230360603592E+04    0.46812E-02   -0.84697E-04  4012   0.126E-02    0.143E+00
RMM:  53    -0.230360117701E+04    0.48589E-02   -0.90954E-04  4292   0.128E-02    0.129E+00
RMM:  54    -0.230359126698E+04    0.99100E-02   -0.36403E-03  4925   0.244E-02    0.126E+00
RMM:  55    -0.230357715665E+04    0.14110E-01   -0.59675E-03  5016   0.322E-02    0.163E+00
RMM:  56    -0.230356194848E+04    0.15208E-01   -0.51431E-03  4942   0.293E-02    0.205E+00
RMM:  57    -0.230355609458E+04    0.58539E-02   -0.10754E-03  4213   0.143E-02    0.219E+00
RMM:  58    -0.230355997325E+04   -0.38787E-02   -0.11589E-04  2953   0.580E-03    0.210E+00
RMM:  59    -0.230357465610E+04   -0.14683E-01   -0.28728E-03  4749   0.213E-02    0.170E+00
RMM:  60    -0.230358927200E+04   -0.14616E-01   -0.56524E-03  4958   0.313E-02    0.131E+00
RMM:  61    -0.230360129721E+04   -0.12025E-01   -0.57285E-03  5088   0.308E-02    0.135E+00
RMM:  62    -0.230360875302E+04   -0.74558E-02   -0.26499E-03  4718   0.215E-02    0.159E+00
RMM:  63    -0.230361604534E+04   -0.72923E-02   -0.16341E-03  4610   0.160E-02    0.191E+00
RMM:  64    -0.230362753762E+04   -0.11492E-01   -0.19297E-03  4657   0.182E-02    0.245E+00
RMM:  65    -0.230364027729E+04   -0.12740E-01   -0.18746E-03  4601   0.187E-02    0.291E+00
RMM:  66    -0.230365425095E+04   -0.13974E-01   -0.19480E-03  4648   0.171E-02    0.330E+00
RMM:  67    -0.230365653294E+04   -0.22820E-02   -0.32767E-04  3011   0.901E-03    0.325E+00
RMM:  68    -0.230365475776E+04    0.17752E-02   -0.39322E-05  2873   0.377E-03    0.320E+00
RMM:  69    -0.230364716119E+04    0.75966E-02   -0.27502E-04  3274   0.652E-03    0.293E+00
RMM:  70    -0.230364173423E+04    0.54270E-02   -0.25553E-04  3123   0.704E-03    0.280E+00
RMM:  71    -0.230363605959E+04    0.56746E-02   -0.37127E-04  3477   0.733E-03    0.258E+00
RMM:  72    -0.230363053189E+04    0.55277E-02   -0.31401E-04  3368   0.808E-03    0.238E+00
RMM:  73    -0.230362473951E+04    0.57924E-02   -0.46023E-04  3814   0.910E-03    0.213E+00
RMM:  74    -0.230361537866E+04    0.93608E-02   -0.13620E-03  4490   0.149E-02    0.167E+00
RMM:  75    -0.230360874412E+04    0.66345E-02   -0.11397E-03  4235   0.152E-02    0.147E+00
RMM:  76    -0.230359716764E+04    0.11576E-01   -0.45638E-03  5099   0.262E-02    0.119E+00
RMM:  77    -0.230358822558E+04    0.89421E-02   -0.33326E-03  4764   0.253E-02    0.132E+00
RMM:  78    -0.230358223091E+04    0.59947E-02   -0.19957E-03  4685   0.164E-02    0.147E+00
RMM:  79    -0.230357598430E+04    0.62466E-02   -0.10816E-03  4304   0.141E-02    0.165E+00
RMM:  80    -0.230357280580E+04    0.31785E-02   -0.35656E-04  3482   0.936E-03    0.174E+00
RMM:  81    -0.230356733820E+04    0.54676E-02   -0.55898E-04  4006   0.103E-02    0.189E+00
RMM:  82    -0.230356841323E+04   -0.10750E-02   -0.30816E-05  2878   0.480E-03    0.186E+00
RMM:  83    -0.230357315176E+04   -0.47385E-02   -0.31971E-04  3404   0.740E-03    0.172E+00
RMM:  84    -0.230358363706E+04   -0.10485E-01   -0.23097E-03  4608   0.192E-02    0.142E+00
RMM:  85    -0.230359393026E+04   -0.10293E-01   -0.36860E-03  4724   0.250E-02    0.124E+00
RMM:  86    -0.230360371628E+04   -0.97860E-02   -0.39813E-03  5041   0.258E-02    0.139E+00
RMM:  87    -0.230360734840E+04   -0.36321E-02   -0.10392E-03  4158   0.142E-02    0.147E+00
RMM:  88    -0.230361594971E+04   -0.86013E-02   -0.17418E-03  4865   0.164E-02    0.190E+00
RMM:  89    -0.230362067632E+04   -0.47266E-02   -0.70859E-04  3816   0.129E-02    0.203E+00
RMM:  90    -0.230362172098E+04   -0.10447E-02   -0.19930E-04  2989   0.585E-03    0.204E+00
RMM:  91    -0.230362031924E+04    0.14017E-02   -0.30037E-05  2758   0.391E-03    0.195E+00
RMM:  92    -0.230361765119E+04    0.26681E-02   -0.99599E-05  2806   0.427E-03    0.183E+00
RMM:  93    -0.230361577043E+04    0.18808E-02   -0.88857E-05  2838   0.393E-03    0.176E+00
RMM:  94    -0.230361401919E+04    0.17512E-02   -0.88468E-05  2875   0.375E-03    0.169E+00
RMM:  95    -0.230361295721E+04    0.10620E-02   -0.40359E-05  2725   0.332E-03    0.165E+00
RMM:  96    -0.230360910890E+04    0.38483E-02   -0.31201E-04  3524   0.711E-03    0.145E+00
RMM:  97    -0.230360121379E+04    0.78951E-02   -0.16652E-03  4615   0.164E-02    0.120E+00
RMM:  98    -0.230359492426E+04    0.62895E-02   -0.16586E-03  4382   0.174E-02    0.119E+00
RMM:  99    -0.230359189747E+04    0.30268E-02   -0.75911E-04  3858   0.105E-02    0.122E+00
RMM: 100    -0.230359019654E+04    0.17009E-02   -0.20303E-04  3080   0.658E-03    0.125E+00
RMM: 101    -0.230358033933E+04    0.98572E-02   -0.23948E-03  4720   0.197E-02    0.149E+00
RMM: 102    -0.230357420464E+04    0.61347E-02   -0.11258E-03  4151   0.157E-02    0.166E+00
RMM: 103    -0.230357206065E+04    0.21440E-02   -0.28126E-04  3340   0.708E-03    0.172E+00
RMM: 104    -0.230357247054E+04   -0.40989E-03   -0.15181E-05  2798   0.379E-03    0.171E+00
RMM: 105    -0.230357288483E+04   -0.41429E-03   -0.34027E-06  2492   0.151E-03    0.170E+00
RMM: 106    -0.230358049304E+04   -0.76082E-02   -0.94610E-04  4132   0.121E-02    0.149E+00
RMM: 107    -0.230359511762E+04   -0.14625E-01   -0.58128E-03  4937   0.308E-02    0.122E+00
RMM: 108    -0.230360571914E+04   -0.10602E-01   -0.45057E-03  4827   0.279E-02    0.146E+00
RMM: 109    -0.230361291159E+04   -0.71925E-02   -0.21065E-03  4700   0.187E-02    0.173E+00
RMM: 110    -0.230362386307E+04   -0.10951E-01   -0.23412E-03  4707   0.188E-02    0.226E+00
RMM: 111    -0.230368401471E+04   -0.60152E-01   -0.17721E-02  5303   0.525E-02    0.398E+00
RMM: 112    -0.230363127139E+04    0.52743E-01   -0.12730E-02  5262   0.493E-02    0.146E+00
RMM: 113    -0.230375249658E+04   -0.12123E+00   -0.44172E-02  5255   0.869E-02    0.381E+00
RMM: 114    -0.230363230911E+04    0.12019E+00   -0.55631E-02  5314   0.921E-02    0.102E+00
RMM: 115    -0.230367944268E+04   -0.47134E-01   -0.14606E-02  5252   0.621E-02    0.408E+00
RMM: 116    -0.230367086571E+04    0.85770E-02   -0.27123E-03  3756   0.320E-02    0.338E+00
RMM: 117    -0.230378057241E+04   -0.10971E+00   -0.41053E-02  5232   0.760E-02    0.326E+00
RMM: 118    -0.230375096379E+04    0.29609E-01   -0.26282E-03  4302   0.322E-02    0.360E+00
RMM: 119    -0.230377358631E+04   -0.22623E-01   -0.17767E-03  4606   0.153E-02    0.332E+00
RMM: 120    -0.230377083243E+04    0.27539E-02   -0.93188E-05  2912   0.566E-03    0.336E+00
RMM: 121    -0.230373767646E+04    0.33156E-01   -0.35658E-03  4763   0.234E-02    0.374E+00
RMM: 122    -0.230372127416E+04    0.16402E-01   -0.16175E-03  4233   0.178E-02    0.383E+00
RMM: 123    -0.230372618742E+04   -0.49133E-02   -0.87490E-05  2883   0.459E-03    0.382E+00
RMM: 124    -0.230372749695E+04   -0.13095E-02   -0.10648E-05  2545   0.248E-03    0.381E+00
RMM: 125    -0.230372730668E+04    0.19027E-03   -0.12380E-06  2080   0.105E-03    0.381E+00
RMM: 126    -0.230365953694E+04    0.67770E-01   -0.16445E-02  5159   0.492E-02    0.293E+00
RMM: 127    -0.230369197947E+04   -0.32443E-01   -0.30516E-03  4610   0.284E-02    0.399E+00
RMM: 128    -0.230374450073E+04   -0.52521E-01   -0.10039E-02  4965   0.386E-02    0.373E+00
RMM: 129    -0.230375394159E+04   -0.94409E-02   -0.18450E-03  4221   0.195E-02    0.362E+00
RMM: 130    -0.230375059407E+04    0.33475E-02   -0.11562E-04  2932   0.433E-03    0.366E+00
RMM: 131    -0.230382990423E+04   -0.79310E-01   -0.27506E-02  5187   0.637E-02    0.245E+00
RMM: 132    -0.230379485658E+04    0.35048E-01   -0.48547E-03  5141   0.307E-02    0.307E+00
RMM: 133    -0.230378201870E+04    0.12838E-01   -0.11234E-03  4346   0.140E-02    0.326E+00
RMM: 134    -0.230378002534E+04    0.19934E-02   -0.13266E-04  2954   0.620E-03    0.329E+00
RMM: 135    -0.230377825585E+04    0.17695E-02   -0.30130E-05  2833   0.297E-03    0.331E+00
RMM: 136    -0.230375797457E+04    0.20281E-01   -0.14525E-03  4517   0.148E-02    0.358E+00
RMM: 137    -0.230373640914E+04    0.21565E-01   -0.19477E-03  4378   0.188E-02    0.379E+00
RMM: 138    -0.230373198927E+04    0.44199E-02   -0.32770E-04  3287   0.786E-03    0.382E+00
RMM: 139    -0.230373158490E+04    0.40437E-03   -0.30244E-05  2821   0.343E-03    0.383E+00
RMM: 140    -0.230373140022E+04    0.18468E-03   -0.33404E-06  2502   0.198E-03    0.383E+00
RMM: 141    -0.230373532584E+04   -0.39256E-02   -0.52568E-05  2574   0.333E-03    0.380E+00
RMM: 142    -0.230374370110E+04   -0.83753E-02   -0.27928E-04  3299   0.653E-03    0.372E+00
RMM: 143    -0.230373805137E+04    0.56497E-02   -0.63807E-05  2753   0.405E-03    0.376E+00
RMM: 144    -0.230373248693E+04    0.55644E-02   -0.10320E-04  2943   0.438E-03    0.380E+00
RMM: 145    -0.230372987567E+04    0.26113E-02   -0.37731E-05  2566   0.291E-03    0.382E+00
RMM: 146    -0.230363771011E+04    0.92166E-01   -0.35628E-02  5245   0.719E-02    0.167E+00
RMM: 147    -0.230360108959E+04    0.36621E-01   -0.23370E-02  5069   0.699E-02    0.113E+00
RMM: 148    -0.230359171160E+04    0.93780E-02   -0.95192E-03  5513   0.331E-02    0.123E+00
RMM: 149    -0.230358073397E+04    0.10978E-01   -0.43294E-03  4898   0.252E-02    0.148E+00
RMM: 150    -0.230356984756E+04    0.10886E-01   -0.29644E-03  4816   0.239E-02    0.179E+00
RMM: 151    -0.230355523840E+04    0.14609E-01   -0.30900E-03  4930   0.232E-02    0.216E+00
RMM: 152    -0.230354952109E+04    0.57173E-02   -0.76800E-04  4010   0.129E-02    0.229E+00
RMM: 153    -0.230355430205E+04   -0.47810E-02   -0.13190E-04  3024   0.601E-03    0.218E+00
RMM: 154    -0.230356537083E+04   -0.11069E-01   -0.12938E-03  4440   0.146E-02    0.191E+00
RMM: 155    -0.230358142651E+04   -0.16056E-01   -0.45485E-03  4893   0.278E-02    0.146E+00
RMM: 156    -0.230360376475E+04   -0.22338E-01   -0.14322E-02  5270   0.479E-02    0.142E+00
RMM: 157    -0.230360591801E+04   -0.21533E-02   -0.18179E-03  4299   0.208E-02    0.141E+00
RMM: 158    -0.230361068969E+04   -0.47717E-02   -0.91791E-04  4315   0.107E-02    0.165E+00
RMM: 159    -0.230361903461E+04   -0.83449E-02   -0.12148E-03  4337   0.152E-02    0.206E+00
RMM: 160    -0.230362798866E+04   -0.89541E-02   -0.11814E-03  4446   0.151E-02    0.243E+00
RMM: 161    -0.230363638676E+04   -0.83981E-02   -0.10304E-03  4125   0.136E-02    0.274E+00
RMM: 162    -0.230364038913E+04   -0.40024E-02   -0.33490E-04  3277   0.847E-03    0.282E+00
RMM: 163    -0.230363690669E+04    0.34824E-02   -0.63378E-05  2893   0.513E-03    0.262E+00
RMM: 164    -0.230362837388E+04    0.85328E-02   -0.57912E-04  3872   0.971E-03    0.224E+00
RMM: 165    -0.230362441748E+04    0.39564E-02   -0.31189E-04  3092   0.867E-03    0.216E+00
RMM: 166    -0.230362435809E+04    0.59396E-04   -0.75368E-05  2721   0.396E-03    0.219E+00
RMM: 167    -0.230362378960E+04    0.56849E-03   -0.13236E-05  2598   0.249E-03    0.215E+00
RMM: 168    -0.230362544000E+04   -0.16504E-02   -0.22436E-05  2497   0.258E-03    0.226E+00
RMM: 169    -0.230362525442E+04    0.18558E-03   -0.32639E-06  2170   0.159E-03    0.221E+00
RMM: 170    -0.230362441142E+04    0.84300E-03   -0.51377E-06  1839   0.114E-03    0.218E+00
RMM: 171    -0.230362910647E+04   -0.46951E-02   -0.16177E-04  2977   0.502E-03    0.245E+00
RMM: 172    -0.230363140591E+04   -0.22994E-02   -0.96399E-05  2814   0.470E-03    0.248E+00
RMM: 173    -0.230363152113E+04   -0.11522E-03   -0.19940E-05  2517   0.242E-03    0.247E+00
RMM: 174    -0.230363125717E+04    0.26396E-03   -0.10272E-06  2008   0.109E-03    0.246E+00
RMM: 175    -0.230363068035E+04    0.57681E-03   -0.28320E-06  1738   0.967E-04    0.244E+00
RMM: 176    -0.230362899441E+04    0.16859E-02   -0.28896E-05  2527   0.233E-03    0.236E+00
RMM: 177    -0.230362804555E+04    0.94886E-03   -0.18393E-05  2578   0.201E-03    0.233E+00
RMM: 178    -0.230362816794E+04   -0.12240E-03   -0.23172E-06  2100   0.126E-03    0.235E+00
RMM: 179    -0.230362833215E+04   -0.16420E-03   -0.46859E-07  1118   0.614E-04    0.235E+00
RMM: 180    -0.230362837898E+04   -0.46836E-04   -0.78095E-08   796   0.501E-04    0.235E+00
RMM: 181    -0.230362696331E+04    0.14157E-02   -0.15165E-05  2286   0.154E-03    0.227E+00
RMM: 182    -0.230362246233E+04    0.45010E-02   -0.20236E-04  3147   0.559E-03    0.204E+00
RMM: 183    -0.230361673181E+04    0.57305E-02   -0.47257E-04  3690   0.850E-03    0.178E+00
RMM: 184    -0.230361158014E+04    0.51517E-02   -0.62372E-04  3628   0.992E-03    0.157E+00
RMM: 185    -0.230361070476E+04    0.87537E-03   -0.12643E-04  2886   0.563E-03    0.159E+00
RMM: 186    -0.230360394218E+04    0.67626E-02   -0.11881E-03  4457   0.135E-02    0.127E+00
RMM: 187    -0.230359581429E+04    0.81279E-02   -0.21505E-03  4552   0.201E-02    0.118E+00
RMM: 188    -0.230359323432E+04    0.25800E-02   -0.65142E-04  3721   0.105E-02    0.122E+00
RMM: 189    -0.230358846467E+04    0.47697E-02   -0.87982E-04  4444   0.119E-02    0.128E+00
RMM: 190    -0.230357853257E+04    0.99321E-02   -0.24544E-03  4717   0.204E-02    0.154E+00
RMM: 191    -0.230356959358E+04    0.89390E-02   -0.18718E-03  4572   0.182E-02    0.179E+00
RMM: 192    -0.230356257012E+04    0.70235E-02   -0.10590E-03  4321   0.136E-02    0.198E+00
RMM: 193    -0.230356082076E+04    0.17494E-02   -0.15499E-04  3056   0.667E-03    0.202E+00
RMM: 194    -0.230356079455E+04    0.26206E-04   -0.11749E-05  2835   0.288E-03    0.202E+00
RMM: 195    -0.230356109129E+04   -0.29674E-03   -0.22929E-06  2560   0.188E-03    0.201E+00
RMM: 196    -0.230354820367E+04    0.12888E-01   -0.15603E-03  4697   0.158E-02    0.232E+00
RMM: 197    -0.230354644636E+04    0.17573E-02   -0.19740E-04  3031   0.776E-03    0.236E+00
RMM: 198    -0.230354738688E+04   -0.94052E-03   -0.15134E-05  2711   0.231E-03    0.234E+00
RMM: 199    -0.230355403676E+04   -0.66499E-02   -0.39945E-04  3532   0.789E-03    0.219E+00
RMM: 200    -0.230355891176E+04   -0.48750E-02   -0.37461E-04  3389   0.843E-03    0.207E+00
RMM: 201    -0.230355729285E+04    0.16189E-02   -0.20405E-05  2600   0.331E-03    0.211E+00
RMM: 202    -0.230356320478E+04   -0.59119E-02   -0.36975E-04  3560   0.756E-03    0.196E+00
RMM: 203    -0.230357070102E+04   -0.74962E-02   -0.85233E-04  4227   0.119E-02    0.176E+00
RMM: 204    -0.230357556214E+04   -0.48611E-02   -0.54583E-04  3660   0.987E-03    0.162E+00
RMM: 205    -0.230358159252E+04   -0.60304E-02   -0.82804E-04  4314   0.120E-02    0.145E+00
RMM: 206    -0.230360264177E+04   -0.21049E-01   -0.11683E-02  5184   0.433E-02    0.137E+00
RMM: 207    -0.230361954606E+04   -0.16904E-01   -0.78272E-03  4887   0.378E-02    0.214E+00
RMM: 208    -0.230367642617E+04   -0.56880E-01   -0.20506E-02  5441   0.557E-02    0.392E+00
RMM: 209    -0.230384366378E+04   -0.16724E+00   -0.12684E-01  5318   0.138E-01    0.219E+00
RMM: 210    -0.230386030109E+04   -0.16637E-01   -0.17643E-02  4879   0.610E-02    0.182E+00
RMM: 211    -0.230387088096E+04   -0.10580E-01   -0.43674E-03  5133   0.239E-02    0.156E+00
RMM: 212    -0.230387933082E+04   -0.84499E-02   -0.20107E-03  4674   0.199E-02    0.133E+00
RMM: 213    -0.230387651681E+04    0.28140E-02   -0.15035E-04  2991   0.636E-03    0.140E+00
RMM: 214    -0.230387196839E+04    0.45484E-02   -0.40346E-04  3486   0.811E-03    0.152E+00
RMM: 215    -0.230387999609E+04   -0.80277E-02   -0.89692E-04  4177   0.124E-02    0.130E+00
RMM: 216    -0.230387530491E+04    0.46912E-02   -0.36029E-04  3364   0.822E-03    0.141E+00
RMM: 217    -0.230388028175E+04   -0.49768E-02   -0.34647E-04  3518   0.795E-03    0.128E+00
RMM: 218    -0.230388024286E+04    0.38892E-04   -0.19995E-05  2719   0.347E-03    0.128E+00
RMM: 219    -0.230388012128E+04    0.12158E-03   -0.22892E-06  2223   0.104E-03    0.128E+00
RMM: 220    -0.230387944520E+04    0.67608E-03   -0.86013E-06  2299   0.142E-03    0.130E+00
RMM: 221    -0.230385264616E+04    0.26799E-01   -0.93627E-03  5032   0.370E-02    0.198E+00
RMM: 222    -0.230386123951E+04   -0.85934E-02   -0.59070E-04  3791   0.142E-02    0.178E+00
RMM: 223    -0.230385263274E+04    0.86068E-02   -0.70830E-04  3790   0.994E-03    0.198E+00
RMM: 224    -0.230385602541E+04   -0.33927E-02   -0.92497E-05  2866   0.525E-03    0.190E+00
RMM: 225    -0.230385699841E+04   -0.97300E-03   -0.24124E-05  2606   0.288E-03    0.188E+00
RMM: 226    -0.230387246182E+04   -0.15463E-01   -0.27480E-03  4732   0.205E-02    0.149E+00
RMM: 227    -0.230387308227E+04   -0.62045E-03   -0.20069E-04  3061   0.846E-03    0.148E+00
RMM: 228    -0.230387224327E+04    0.83899E-03   -0.19653E-05  2717   0.256E-03    0.150E+00
RMM: 229    -0.230387020967E+04    0.20336E-02   -0.93063E-05  2887   0.424E-03    0.156E+00
RMM: 230    -0.230386634746E+04    0.38622E-02   -0.35605E-04  3477   0.760E-03    0.167E+00
RMM: 231    -0.230376416232E+04    0.10219E+00   -0.60647E-02  5228   0.943E-02    0.355E+00
RMM: 232    -0.230380471558E+04   -0.40553E-01   -0.50910E-03  4954   0.365E-02    0.292E+00
RMM: 233    -0.230377765832E+04    0.27057E-01   -0.25729E-03  4560   0.202E-02    0.335E+00
RMM: 234    -0.230378107782E+04   -0.34195E-02   -0.15585E-04  2951   0.623E-03    0.329E+00
RMM: 235    -0.230376379607E+04    0.17282E-01   -0.10550E-03  4259   0.124E-02    0.353E+00
RMM: 236    -0.230376379454E+04    0.15346E-05   -0.26919E-04  4228   0.932E-03    0.351E+00
RMM: 237    -0.230376469977E+04   -0.90523E-03   -0.23513E-05  2845   0.502E-03    0.350E+00
RMM: 238    -0.230376367711E+04    0.10227E-02   -0.87765E-06  2665   0.196E-03    0.352E+00
RMM: 239    -0.230376510836E+04   -0.14312E-02   -0.61909E-06  2458   0.172E-03    0.350E+00
RMM: 240    -0.230377353045E+04   -0.84221E-02   -0.25772E-04  3381   0.638E-03    0.340E+00
RMM: 241    -0.230377805797E+04   -0.45275E-02   -0.16275E-04  2919   0.606E-03    0.333E+00
RMM: 242    -0.230378340663E+04   -0.53487E-02   -0.17958E-04  3090   0.622E-03    0.329E+00
RMM: 243    -0.230377827839E+04    0.51282E-02   -0.33936E-04  3153   0.834E-03    0.341E+00
RMM: 244    -0.230381962553E+04   -0.41347E-01   -0.64257E-03  5020   0.314E-02    0.278E+00
RMM: 245    -0.230382326053E+04   -0.36350E-02   -0.71446E-04  3616   0.141E-02    0.276E+00
RMM: 246    -0.230376528037E+04    0.57980E-01   -0.16403E-02  5213   0.497E-02    0.382E+00
RMM: 247    -0.230380235431E+04   -0.37074E-01   -0.35468E-03  4958   0.258E-02    0.327E+00
RMM: 248    -0.230383216260E+04   -0.29808E-01   -0.53141E-03  4794   0.285E-02    0.275E+00
RMM: 249    -0.230385382279E+04   -0.21660E-01   -0.46652E-03  4673   0.272E-02    0.230E+00
RMM: 250    -0.230387431764E+04   -0.20495E-01   -0.57706E-03  5050   0.307E-02    0.178E+00
RMM: 251    -0.230390352087E+04   -0.29203E-01   -0.57123E-02  5203   0.939E-02    0.172E-01
RMM: 252    -0.230390336362E+04    0.15725E-03   -0.38109E-03  4471   0.358E-02    0.139E-01
RMM: 253    -0.230390338810E+04   -0.24479E-04   -0.52342E-04  3644   0.713E-03    0.117E-01
RMM: 254    -0.230390344607E+04   -0.57973E-04   -0.67201E-05  2908   0.680E-03    0.829E-02
RMM: 255    -0.230390348440E+04   -0.38328E-04   -0.38891E-05  2846   0.409E-03    0.621E-02
RMM: 256    -0.230390349764E+04   -0.13248E-04   -0.15320E-05  2806   0.309E-03    0.554E-02
RMM: 257    -0.230390351659E+04   -0.18941E-04   -0.16471E-05  2832   0.280E-03    0.408E-02
RMM: 258    -0.230390352865E+04   -0.12060E-04   -0.17757E-05  2813   0.318E-03    0.258E-02
RMM: 259    -0.230390353008E+04   -0.14323E-05   -0.11092E-05  2775   0.264E-03
   1 F= -.23246315E+04 E0= -.23246315E+04  d E =-.232463E+04  mag=     3.0001
       N       E                     dE             d eps       ncg     rms          rms(c)
DAV:   1    -0.230385443961E+04    0.49089E-01   -0.15445E+01  4480   0.349E+00    0.129E+00
RMM:   2    -0.230408130992E+04   -0.22687E+00   -0.23049E+00  6468   0.825E-01    0.135E+00
RMM:   3    -0.230408641488E+04   -0.51050E-02   -0.26327E-01  6211   0.283E-01    0.925E-01
RMM:   4    -0.230407681043E+04    0.96044E-02   -0.23405E-02  5760   0.740E-02    0.429E-01
RMM:   5    -0.230407390632E+04    0.29041E-02   -0.11208E-02  5913   0.606E-02    0.208E-01
RMM:   6    -0.230407436168E+04   -0.45536E-03   -0.30843E-03  5818   0.315E-02    0.251E-01
RMM:   7    -0.230407364334E+04    0.71834E-03   -0.78039E-04  4281   0.145E-02    0.537E-02
RMM:   8    -0.230407359564E+04    0.47700E-04   -0.17495E-04  3390   0.732E-03    0.258E-02
RMM:   9    -0.230407358172E+04    0.13921E-04   -0.57520E-05  3015   0.589E-03    0.109E-02
RMM:  10    -0.230407358072E+04    0.99905E-06   -0.15535E-05  2901   0.430E-03
   2 F= -.23247995E+04 E0= -.23247995E+04  d E =-.167971E+00  mag=     3.0000
       N       E                     dE             d eps       ncg     rms          rms(c)
DAV:   1    -0.230407360084E+04   -0.19123E-04   -0.15769E-03  5120   0.360E-02    0.141E-02
RMM:   2    -0.230407362368E+04   -0.22842E-04   -0.22647E-04  4141   0.902E-03    0.157E-02
RMM:   3    -0.230407362284E+04    0.84291E-06   -0.26858E-05  2826   0.464E-03
   3 F= -.23247995E+04 E0= -.23247995E+04  d E =-.167992E+00  mag=     3.0000
       N       E                     dE             d eps       ncg     rms          rms(c)
DAV:   1    -0.230413064802E+04   -0.57024E-01   -0.12677E+01  4464   0.318E+00    0.863E-01
RMM:   2    -0.230421005445E+04   -0.79406E-01   -0.79299E-01  6504   0.647E-01    0.101E+00
RMM:   3    -0.230420327531E+04    0.67791E-02   -0.57283E-02  6328   0.158E-01    0.562E-01
RMM:   4    -0.230419977665E+04    0.34987E-02   -0.80087E-03  5658   0.514E-02    0.259E-01
RMM:   5    -0.230419930563E+04    0.47102E-03   -0.37865E-03  5127   0.372E-02    0.185E-01
RMM:   6    -0.230419932050E+04   -0.14865E-04   -0.13013E-03  4998   0.232E-02    0.179E-01
RMM:   7    -0.230419898289E+04    0.33761E-03   -0.30306E-04  3726   0.102E-02    0.528E-02
RMM:   8    -0.230419900019E+04   -0.17299E-04   -0.94448E-05  3181   0.687E-03    0.295E-02
RMM:   9    -0.230419899807E+04    0.21189E-05   -0.22365E-05  2860   0.499E-03
   4 F= -.23249242E+04 E0= -.23249242E+04  d E =-.124720E+00  mag=     3.0000
       N       E                     dE             d eps       ncg     rms          rms(c)
DAV:   1    -0.230416506689E+04    0.33933E-01   -0.14370E+01  4432   0.336E+00    0.912E-01
RMM:   2    -0.230425397337E+04   -0.88906E-01   -0.89078E-01  6479   0.682E-01    0.105E+00
RMM:   3    -0.230424762896E+04    0.63444E-02   -0.66473E-02  6319   0.169E-01    0.606E-01
RMM:   4    -0.230424368302E+04    0.39459E-02   -0.93566E-03  5672   0.546E-02    0.278E-01
RMM:   5    -0.230424342075E+04    0.26227E-03   -0.45814E-03  5326   0.401E-02    0.258E-01
RMM:   6    -0.230424300753E+04    0.41322E-03   -0.17311E-03  5252   0.248E-02    0.165E-01
RMM:   7    -0.230424274359E+04    0.26394E-03   -0.27171E-04  3835   0.100E-02    0.529E-02
RMM:   8    -0.230424276318E+04   -0.19585E-04   -0.10564E-04  3196   0.732E-03    0.281E-02
RMM:   9    -0.230424276265E+04    0.52919E-06   -0.22805E-05  2869   0.501E-03
   5 F= -.23249671E+04 E0= -.23249671E+04  d E =-.167617E+00  mag=     3.0000
       N       E                     dE             d eps       ncg     rms          rms(c)
DAV:   1    -0.230416002520E+04    0.82738E-01   -0.10765E+01  4480   0.313E+00    0.934E-01
RMM:   2    -0.230430257151E+04   -0.14255E+00   -0.15003E+00  6540   0.678E-01    0.738E-01
RMM:   3    -0.230431397260E+04   -0.11401E-01   -0.15198E-01  6275   0.214E-01    0.696E-01
RMM:   4    -0.230430942247E+04    0.45501E-02   -0.14584E-02  6142   0.544E-02    0.285E-01
RMM:   5    -0.230430803445E+04    0.13880E-02   -0.34821E-03  4776   0.329E-02    0.130E-01
RMM:   6    -0.230430787160E+04    0.16285E-03   -0.12024E-03  4847   0.267E-02    0.490E-02
RMM:   7    -0.230430785559E+04    0.16006E-04   -0.15669E-04  4230   0.107E-02    0.429E-02
RMM:   8    -0.230430783653E+04    0.19060E-04   -0.45883E-05  2913   0.587E-03    0.273E-02
RMM:   9    -0.230430782157E+04    0.14969E-04   -0.31975E-05  2950   0.407E-03    0.958E-03
RMM:  10    -0.230430781894E+04    0.26265E-05   -0.91370E-06  2858   0.348E-03
   6 F= -.23250311E+04 E0= -.23250311E+04  d E =-.639758E-01  mag=     3.0000
       N       E                     dE             d eps       ncg     rms          rms(c)
DAV:   1    -0.230415217264E+04    0.15565E+00   -0.13189E+01  4432   0.346E+00    0.104E+00
RMM:   2    -0.230432774733E+04   -0.17557E+00   -0.18473E+00  6538   0.753E-01    0.829E-01
RMM:   3    -0.230434238547E+04   -0.14638E-01   -0.19190E-01  6279   0.239E-01    0.789E-01
RMM:   4    -0.230433649885E+04    0.58866E-02   -0.17877E-02  6214   0.605E-02    0.319E-01
RMM:   5    -0.230433476602E+04    0.17328E-02   -0.41891E-03  4791   0.363E-02    0.149E-01
RMM:   6    -0.230433451662E+04    0.24940E-03   -0.16492E-03  5039   0.302E-02    0.532E-02
RMM:   7    -0.230433448450E+04    0.32123E-04   -0.17787E-04  4551   0.118E-02    0.348E-02
RMM:   8    -0.230433447904E+04    0.54590E-05   -0.59186E-05  2975   0.572E-03
   7 F= -.23250563E+04 E0= -.23250563E+04  d E =-.892455E-01  mag=     3.0000
       N       E                     dE             d eps       ncg     rms          rms(c)
DAV:   1    -0.230418197677E+04    0.15251E+00   -0.10335E+01  4480   0.290E+00    0.107E+00
RMM:   2    -0.230437854387E+04   -0.19657E+00   -0.20339E+00  6577   0.703E-01    0.100E+00
RMM:   3    -0.230439137545E+04   -0.12832E-01   -0.22086E-01  6309   0.235E-01    0.755E-01
RMM:   4    -0.230438607358E+04    0.53019E-02   -0.21571E-02  6138   0.600E-02    0.292E-01
RMM:   5    -0.230438465425E+04    0.14193E-02   -0.36382E-03  5179   0.296E-02    0.165E-01
RMM:   6    -0.230438466005E+04   -0.57931E-05   -0.20231E-03  5419   0.260E-02    0.178E-01
RMM:   7    -0.230438435650E+04    0.30355E-03   -0.54560E-04  4854   0.147E-02    0.631E-02
RMM:   8    -0.230438433368E+04    0.22819E-04   -0.96022E-05  3103   0.597E-03    0.260E-02
RMM:   9    -0.230438432815E+04    0.55296E-05   -0.25206E-05  2884   0.455E-03
   8 F= -.23251053E+04 E0= -.23251053E+04  d E =-.489858E-01  mag=     3.0000
       N       E                     dE             d eps       ncg     rms          rms(c)
DAV:   1    -0.230425122783E+04    0.13311E+00   -0.76576E+00  4480   0.249E+00    0.916E-01
RMM:   2    -0.230439563587E+04   -0.14441E+00   -0.14933E+00  6563   0.602E-01    0.862E-01
RMM:   3    -0.230440504538E+04   -0.94095E-02   -0.16541E-01  6273   0.205E-01    0.635E-01
RMM:   4    -0.230440131325E+04    0.37321E-02   -0.15918E-02  6011   0.513E-02    0.249E-01
RMM:   5    -0.230440024008E+04    0.10732E-02   -0.28309E-03  5286   0.267E-02    0.138E-01
RMM:   6    -0.230440031485E+04   -0.74773E-04   -0.14577E-03  5233   0.222E-02    0.166E-01
RMM:   7    -0.230440003873E+04    0.27612E-03   -0.40335E-04  4453   0.127E-02    0.477E-02
RMM:   8    -0.230440002319E+04    0.15543E-04   -0.72640E-05  3000   0.560E-03    0.219E-02
RMM:   9    -0.230440001746E+04    0.57229E-05   -0.20646E-05  2882   0.421E-03
   9 F= -.23251201E+04 E0= -.23251201E+04  d E =-.637907E-01  mag=     3.0000
       N       E                     dE             d eps       ncg     rms          rms(c)
DAV:   1    -0.230405824912E+04    0.34177E+00   -0.14384E+01  4464   0.289E+00    0.125E+00
RMM:   2    -0.230442280576E+04   -0.36456E+00   -0.38823E+00  6624   0.777E-01    0.921E-01
RMM:   3    -0.230446190926E+04   -0.39104E-01   -0.46961E-01  6314   0.305E-01    0.784E-01
RMM:   4    -0.230445910471E+04    0.28046E-02   -0.43667E-02  6212   0.670E-02    0.425E-01
RMM:   5    -0.230445715684E+04    0.19479E-02   -0.40676E-03  5404   0.260E-02    0.274E-01
RMM:   6    -0.230445644485E+04    0.71200E-03   -0.30240E-03  5495   0.235E-02    0.214E-01
RMM:   7    -0.230445617500E+04    0.26984E-03   -0.11760E-03  4873   0.170E-02    0.154E-01
RMM:   8    -0.230445597916E+04    0.19584E-03   -0.60807E-04  4685   0.123E-02    0.521E-02
RMM:   9    -0.230445597797E+04    0.11876E-05   -0.55874E-05  2893   0.671E-03
  10 F= -.23251750E+04 E0= -.23251750E+04  d E =-.548433E-01  mag=     3.0000
       N       E                     dE             d eps       ncg     rms          rms(c)
DAV:   1    -0.230211660079E+04    0.23394E+01   -0.81011E+01  4432   0.691E+00    0.312E+00
RMM:   2    -0.230433227852E+04   -0.22157E+01   -0.23463E+01  6631   0.192E+00    0.265E+00
RMM:   3    -0.230455562196E+04   -0.22334E+00   -0.27867E+00  6320   0.746E-01    0.226E+00
RMM:   4    -0.230452497867E+04    0.30643E-01   -0.21722E-01  6472   0.158E-01    0.117E+00
RMM:   5    -0.230452122335E+04    0.37553E-02   -0.23168E-02  5721   0.564E-02    0.812E-01
RMM:   6    -0.230451493765E+04    0.62857E-02   -0.14478E-02  5439   0.494E-02    0.538E-01
RMM:   7    -0.230451448365E+04    0.45401E-03   -0.10729E-02  5783   0.497E-02    0.545E-01
RMM:   8    -0.230451140163E+04    0.30820E-02   -0.59448E-03  5883   0.345E-02    0.186E-01
RMM:   9    -0.230451128236E+04    0.11927E-03   -0.84462E-04  4762   0.173E-02    0.949E-02
RMM:  10    -0.230451120611E+04    0.76248E-04   -0.15645E-04  3599   0.914E-03    0.542E-02
RMM:  11    -0.230451119855E+04    0.75625E-05   -0.80295E-05  3289   0.683E-03
  11 F= -.23252266E+04 E0= -.23252266E+04  d E =-.106474E+00  mag=     3.0000
       N       E                     dE             d eps       ncg     rms          rms(c)
DAV:   1    -0.230422052587E+04    0.29068E+00   -0.12217E+01  4480   0.258E+00    0.115E+00
RMM:   2    -0.230452250936E+04   -0.30198E+00   -0.32504E+00  6618   0.687E-01    0.641E-01
RMM:   3    -0.230455320253E+04   -0.30693E-01   -0.39526E-01  6241   0.276E-01    0.381E-01
RMM:   4    -0.230455491069E+04   -0.17082E-02   -0.33527E-02  5764   0.506E-02    0.354E-01
RMM:   5    -0.230455390096E+04    0.10097E-02   -0.26210E-03  5229   0.220E-02    0.261E-01
RMM:   6    -0.230455297918E+04    0.92178E-03   -0.19538E-03  5261   0.188E-02    0.128E-01
RMM:   7    -0.230455291718E+04    0.61999E-04   -0.75886E-04  4525   0.152E-02    0.104E-01
RMM:   8    -0.230455289521E+04    0.21975E-04   -0.39088E-04  3710   0.103E-02    0.788E-02
RMM:   9    -0.230455284618E+04    0.49034E-04   -0.75396E-05  2939   0.643E-03    0.267E-02
RMM:  10    -0.230455283907E+04    0.71014E-05   -0.21111E-05  2861   0.379E-03
  12 F= -.23252669E+04 E0= -.23252669E+04  d E =-.402748E-01  mag=     3.0000
       N       E                     dE             d eps       ncg     rms          rms(c)
DAV:   1    -0.230271716704E+04    0.18357E+01   -0.65290E+01  4448   0.600E+00    0.277E+00
RMM:   2    -0.230444784493E+04   -0.17307E+01   -0.18464E+01  6608   0.166E+00    0.192E+00
RMM:   3    -0.230461461874E+04   -0.16677E+00   -0.21648E+00  6320   0.650E-01    0.154E+00
RMM:   4    -0.230460632818E+04    0.82906E-02   -0.16984E-01  6469   0.130E-01    0.982E-01
RMM:   5    -0.230460010457E+04    0.62236E-02   -0.15614E-02  5842   0.498E-02    0.654E-01
RMM:   6    -0.230459551376E+04    0.45908E-02   -0.11198E-02  5650   0.426E-02    0.423E-01
RMM:   7    -0.230459469146E+04    0.82230E-03   -0.71139E-03  5564   0.401E-02    0.376E-01
RMM:   8    -0.230459338884E+04    0.13026E-02   -0.37484E-03  5790   0.270E-02    0.187E-01
RMM:   9    -0.230459322819E+04    0.16066E-03   -0.69141E-04  4676   0.143E-02    0.817E-02
RMM:  10    -0.230459319311E+04    0.35073E-04   -0.13144E-04  3047   0.804E-03    0.447E-02
RMM:  11    -0.230459318081E+04    0.12307E-04   -0.72603E-05  2989   0.579E-03    0.245E-02
RMM:  12    -0.230459318044E+04    0.36188E-06   -0.36372E-05  2890   0.483E-03
  13 F= -.23253033E+04 E0= -.23253033E+04  d E =-.766428E-01  mag=     3.0000
       N       E                     dE             d eps       ncg     rms          rms(c)
DAV:   1    -0.230425680945E+04    0.33637E+00   -0.15901E+01  4448   0.310E+00    0.130E+00
RMM:   2    -0.230460943467E+04   -0.35263E+00   -0.37631E+00  6569   0.810E-01    0.801E-01
RMM:   3    -0.230464146031E+04   -0.32026E-01   -0.41561E-01  6296   0.291E-01    0.658E-01
RMM:   4    -0.230464049660E+04    0.96370E-03   -0.38686E-02  6318   0.638E-02    0.444E-01
RMM:   5    -0.230463807105E+04    0.24256E-02   -0.41687E-03  5621   0.271E-02    0.260E-01
RMM:   6    -0.230463752313E+04    0.54792E-03   -0.36769E-03  5690   0.268E-02    0.217E-01
RMM:   7    -0.230463709429E+04    0.42884E-03   -0.11343E-03  4932   0.172E-02    0.112E-01
RMM:   8    -0.230463700191E+04    0.92381E-04   -0.33098E-04  4173   0.996E-03    0.392E-02
RMM:   9    -0.230463701080E+04   -0.88929E-05   -0.41150E-05  2879   0.666E-03
  14 F= -.23253452E+04 E0= -.23253452E+04  d E =-.419740E-01  mag=     3.0000
       N       E                     dE             d eps       ncg     rms          rms(c)
DAV:   1    -0.230431358690E+04    0.32342E+00   -0.14082E+01  4448   0.293E+00    0.122E+00
RMM:   2    -0.230462485819E+04   -0.31127E+00   -0.33316E+00  6570   0.766E-01    0.733E-01
RMM:   3    -0.230465430564E+04   -0.29447E-01   -0.37106E-01  6306   0.276E-01    0.597E-01
RMM:   4    -0.230465387318E+04    0.43247E-03   -0.34724E-02  6266   0.601E-02    0.416E-01
RMM:   5    -0.230465170700E+04    0.21662E-02   -0.37504E-03  5587   0.255E-02    0.243E-01
RMM:   6    -0.230465125933E+04    0.44767E-03   -0.32430E-03  5675   0.254E-02    0.208E-01
RMM:   7    -0.230465084883E+04    0.41050E-03   -0.10255E-03  4885   0.164E-02    0.992E-02
RMM:   8    -0.230465077786E+04    0.70964E-04   -0.27020E-04  3965   0.930E-03    0.355E-02
RMM:   9    -0.230465078452E+04   -0.66580E-05   -0.35552E-05  2885   0.632E-03
  15 F= -.23253570E+04 E0= -.23253570E+04  d E =-.537734E-01  mag=     3.0000
       N       E                     dE             d eps       ncg     rms          rms(c)
DAV:   1    -0.230453774622E+04    0.11303E+00   -0.79942E+00  4448   0.251E+00    0.850E-01
RMM:   2    -0.230467440175E+04   -0.13666E+00   -0.14493E+00  6554   0.597E-01    0.506E-01
RMM:   3    -0.230468633714E+04   -0.11935E-01   -0.14899E-01  6228   0.198E-01    0.424E-01
RMM:   4    -0.230468564178E+04    0.69536E-03   -0.14207E-02  6059   0.437E-02    0.279E-01
RMM:   5    -0.230468454636E+04    0.10954E-02   -0.19948E-03  5301   0.223E-02    0.149E-01
RMM:   6    -0.230468443461E+04    0.11175E-03   -0.15887E-03  5330   0.220E-02    0.126E-01
RMM:   7    -0.230468429153E+04    0.14308E-03   -0.36404E-04  4131   0.118E-02    0.534E-02
RMM:   8    -0.230468425925E+04    0.32280E-04   -0.52573E-05  2899   0.530E-03    0.203E-02
RMM:   9    -0.230468425626E+04    0.29865E-05   -0.25234E-05  2923   0.378E-03
  16 F= -.23253884E+04 E0= -.23253884E+04  d E =-.313886E-01  mag=     3.0000
       N       E                     dE             d eps       ncg     rms          rms(c)
DAV:   1    -0.230432021128E+04    0.36405E+00   -0.20867E+01  4448   0.408E+00    0.138E+00
RMM:   2    -0.230468189528E+04   -0.36168E+00   -0.38247E+00  6559   0.974E-01    0.869E-01
RMM:   3    -0.230471304734E+04   -0.31152E-01   -0.40163E-01  6265   0.328E-01    0.706E-01
RMM:   4    -0.230471086443E+04    0.21829E-02   -0.36819E-02  6381   0.721E-02    0.471E-01
RMM:   5    -0.230470816661E+04    0.26978E-02   -0.50854E-03  5619   0.337E-02    0.267E-01
RMM:   6    -0.230470718812E+04    0.97850E-03   -0.51493E-03  5452   0.358E-02    0.133E-01
RMM:   7    -0.230470723157E+04   -0.43447E-04   -0.90448E-04  4818   0.208E-02    0.138E-01
RMM:   8    -0.230470703011E+04    0.20145E-03   -0.24093E-04  3773   0.877E-03    0.454E-02
RMM:   9    -0.230470701428E+04    0.15835E-04   -0.68719E-05  2967   0.586E-03    0.245E-02
RMM:  10    -0.230470700651E+04    0.77705E-05   -0.26739E-05  2862   0.407E-03
  17 F= -.23254076E+04 E0= -.23254076E+04  d E =-.505882E-01  mag=     3.0000
       N       E                     dE             d eps       ncg     rms          rms(c)
DAV:   1    -0.230462457079E+04    0.82443E-01   -0.93311E+00  4448   0.291E+00    0.837E-01
RMM:   2    -0.230473729267E+04   -0.11272E+00   -0.11692E+00  6498   0.618E-01    0.709E-01
RMM:   3    -0.230474487616E+04   -0.75835E-02   -0.12421E-01  6213   0.202E-01    0.565E-01
RMM:   4    -0.230474174198E+04    0.31342E-02   -0.11927E-02  6003   0.479E-02    0.242E-01
RMM:   5    -0.230474066759E+04    0.10744E-02   -0.25162E-03  5100   0.282E-02    0.112E-01
RMM:   6    -0.230474056320E+04    0.10439E-03   -0.89667E-04  4837   0.220E-02    0.531E-02
RMM:   7    -0.230474056301E+04    0.19028E-06   -0.15942E-04  3854   0.106E-02    0.505E-02
RMM:   8    -0.230474053668E+04    0.26331E-04   -0.43965E-05  2888   0.552E-03    0.226E-02
RMM:   9    -0.230474053112E+04    0.55591E-05   -0.20746E-05  2883   0.368E-03
  18 F= -.23254389E+04 E0= -.23254389E+04  d E =-.312900E-01  mag=     3.0000
       N       E                     dE             d eps       ncg     rms          rms(c)
DAV:   1    -0.230452062995E+04    0.21991E+00   -0.19254E+01  4448   0.418E+00    0.120E+00
RMM:   2    -0.230475645886E+04   -0.23583E+00   -0.24434E+00  6492   0.891E-01    0.103E+00
RMM:   3    -0.230477097342E+04   -0.14515E-01   -0.25182E-01  6216   0.289E-01    0.797E-01
RMM:   4    -0.230476470817E+04    0.62652E-02   -0.24500E-02  6193   0.690E-02    0.351E-01
RMM:   5    -0.230476252892E+04    0.21793E-02   -0.49365E-03  5068   0.388E-02    0.180E-01
RMM:   6    -0.230476253706E+04   -0.81469E-05   -0.28584E-03  5485   0.342E-02    0.186E-01
RMM:   7    -0.230476218142E+04    0.35564E-03   -0.63044E-04  5074   0.165E-02    0.652E-02
RMM:   8    -0.230476212773E+04    0.53692E-04   -0.10556E-04  3174   0.585E-03    0.286E-02
RMM:   9    -0.230476211420E+04    0.13530E-04   -0.50838E-05  2981   0.539E-03    0.112E-02
RMM:  10    -0.230476211315E+04    0.10486E-05   -0.12324E-05  2879   0.406E-03
  19 F= -.23254572E+04 E0= -.23254572E+04  d E =-.496254E-01  mag=     3.0000
       N       E                     dE             d eps       ncg     rms          rms(c)
DAV:   1    -0.230469229272E+04    0.69821E-01   -0.67440E+00  4448   0.264E+00    0.805E-01
RMM:   2    -0.230478825365E+04   -0.95961E-01   -0.93780E-01  6435   0.570E-01    0.974E-01
RMM:   3    -0.230478559642E+04    0.26572E-02   -0.97251E-02  6196   0.190E-01    0.435E-01
RMM:   4    -0.230478375047E+04    0.18460E-02   -0.99448E-03  5349   0.443E-02    0.212E-01
RMM:   5    -0.230478328674E+04    0.46373E-03   -0.22062E-03  5569   0.301E-02    0.217E-01
RMM:   6    -0.230478294998E+04    0.33677E-03   -0.14766E-03  5660   0.216E-02    0.137E-01
RMM:   7    -0.230478276370E+04    0.18627E-03   -0.31188E-04  4297   0.118E-02    0.282E-02
RMM:   8    -0.230478275401E+04    0.96895E-05   -0.43166E-05  2917   0.585E-03
  20 F= -.23254763E+04 E0= -.23254763E+04  d E =-.190098E-01  mag=     3.0000
       N       E                     dE             d eps       ncg     rms          rms(c)
DAV:   1    -0.230477269789E+04    0.10066E-01   -0.89826E-01  4688   0.958E-01    0.294E-01
RMM:   2    -0.230478550042E+04   -0.12803E-01   -0.12529E-01  6440   0.208E-01    0.352E-01
RMM:   3    -0.230478514710E+04    0.35332E-03   -0.12940E-02  5855   0.685E-02    0.158E-01
RMM:   4    -0.230478490869E+04    0.23841E-03   -0.13736E-03  4515   0.165E-02    0.777E-02
RMM:   5    -0.230478479694E+04    0.11175E-03   -0.29471E-04  4587   0.123E-02    0.510E-02
RMM:   6    -0.230478481191E+04   -0.14971E-04   -0.16995E-04  3689   0.948E-03    0.595E-02
RMM:   7    -0.230478477318E+04    0.38727E-04   -0.44226E-05  2893   0.607E-03    0.113E-02
RMM:   8    -0.230478477177E+04    0.14084E-05   -0.82056E-06  2861   0.350E-03
  21 F= -.23254777E+04 E0= -.23254777E+04  d E =-.204380E-01  mag=     3.0000
       N       E                     dE             d eps       ncg     rms          rms(c)
DAV:   1    -0.230474825944E+04    0.36514E-01   -0.35534E+00  4432   0.194E+00    0.548E-01
RMM:   2    -0.230479686597E+04   -0.48607E-01   -0.47901E-01  6389   0.400E-01    0.662E-01
RMM:   3    -0.230479634882E+04    0.51714E-03   -0.52560E-02  6069   0.136E-01    0.298E-01
RMM:   4    -0.230479552470E+04    0.82413E-03   -0.50160E-03  5294   0.311E-02    0.146E-01
RMM:   5    -0.230479534135E+04    0.18335E-03   -0.97388E-04  5278   0.198E-02    0.158E-01
RMM:   6    -0.230479511127E+04    0.23008E-03   -0.72310E-04  5196   0.155E-02    0.858E-02
RMM:   7    -0.230479504739E+04    0.63879E-04   -0.18443E-04  3832   0.101E-02    0.212E-02
RMM:   8    -0.230479504266E+04    0.47298E-05   -0.21757E-05  2887   0.529E-03
  22 F= -.23254872E+04 E0= -.23254872E+04  d E =-.951186E-02  mag=     3.0000
       N       E                     dE             d eps       ncg     rms          rms(c)
DAV:   1    -0.230477464394E+04    0.20403E-01   -0.17101E+00  4448   0.134E+00    0.382E-01
RMM:   2    -0.230479813872E+04   -0.23495E-01   -0.23144E-01  6394   0.278E-01    0.462E-01
RMM:   3    -0.230479786510E+04    0.27363E-03   -0.25356E-02  6005   0.935E-02    0.208E-01
RMM:   4    -0.230479747253E+04    0.39257E-03   -0.24459E-03  4968   0.216E-02    0.102E-01
RMM:   5    -0.230479736985E+04    0.10269E-03   -0.47411E-04  4839   0.144E-02    0.106E-01
RMM:   6    -0.230479727328E+04    0.96567E-04   -0.35679E-04  4552   0.114E-02    0.623E-02
RMM:   7    -0.230479723791E+04    0.35367E-04   -0.91014E-05  3256   0.790E-03    0.151E-02
RMM:   8    -0.230479723556E+04    0.23475E-05   -0.12764E-05  2871   0.467E-03
  23 F= -.23254889E+04 E0= -.23254889E+04  d E =-.111809E-01  mag=     3.0000
       N       E                     dE             d eps       ncg     rms          rms(c)
DAV:   1    -0.230475438854E+04    0.42849E-01   -0.47335E+00  4432   0.225E+00    0.566E-01
RMM:   2    -0.230480475916E+04   -0.50371E-01   -0.53713E-01  6258   0.420E-01    0.376E-01
RMM:   3    -0.230480908836E+04   -0.43292E-02   -0.57404E-02  5866   0.155E-01    0.350E-01
RMM:   4    -0.230480801589E+04    0.10725E-02   -0.55747E-03  5922   0.345E-02    0.165E-01
RMM:   5    -0.230480759185E+04    0.42404E-03   -0.10125E-03  4869   0.198E-02    0.963E-02
RMM:   6    -0.230480760843E+04   -0.16576E-04   -0.69169E-04  4967   0.173E-02    0.112E-01
RMM:   7    -0.230480747915E+04    0.12928E-03   -0.19810E-04  4173   0.103E-02    0.331E-02
RMM:   8    -0.230480746788E+04    0.11273E-04   -0.36400E-05  2914   0.525E-03    0.152E-02
RMM:   9    -0.230480746666E+04    0.12140E-05   -0.11448E-05  2866   0.364E-03
  24 F= -.23254982E+04 E0= -.23254982E+04  d E =-.935771E-02  mag=     3.0000
       N       E                     dE             d eps       ncg     rms          rms(c)
DAV:   1    -0.230477354831E+04    0.33920E-01   -0.33161E+00  4448   0.189E+00    0.475E-01
RMM:   2    -0.230480876417E+04   -0.35216E-01   -0.37581E-01  6247   0.351E-01    0.313E-01
RMM:   3    -0.230481180667E+04   -0.30425E-02   -0.39867E-02  5840   0.129E-01    0.295E-01
RMM:   4    -0.230481103829E+04    0.76838E-03   -0.38977E-03  5748   0.289E-02    0.137E-01
RMM:   5    -0.230481072942E+04    0.30887E-03   -0.72774E-04  4698   0.171E-02    0.756E-02
RMM:   6    -0.230481073332E+04   -0.38954E-05   -0.45347E-04  4790   0.149E-02    0.847E-02
RMM:   7    -0.230481066124E+04    0.72082E-04   -0.12252E-04  3540   0.867E-03    0.286E-02
RMM:   8    -0.230481065219E+04    0.90436E-05   -0.24279E-05  2884   0.470E-03
  25 F= -.23255007E+04 E0= -.23255007E+04  d E =-.118092E-01  mag=     3.0000
       N       E                     dE             d eps       ncg     rms          rms(c)
DAV:   1    -0.230475733919E+04    0.53322E-01   -0.53927E+00  4432   0.238E+00    0.583E-01
RMM:   2    -0.230481669143E+04   -0.59352E-01   -0.63706E-01  6220   0.441E-01    0.347E-01
RMM:   3    -0.230482218092E+04   -0.54895E-02   -0.70763E-02  5783   0.168E-01    0.318E-01
RMM:   4    -0.230482155339E+04    0.62752E-03   -0.65518E-03  5918   0.355E-02    0.189E-01
RMM:   5    -0.230482106011E+04    0.49328E-03   -0.10664E-03  4911   0.189E-02    0.118E-01
RMM:   6    -0.230482104142E+04    0.18693E-04   -0.73789E-04  4831   0.173E-02    0.118E-01
RMM:   7    -0.230482088911E+04    0.15231E-03   -0.23207E-04  4565   0.106E-02    0.351E-02
RMM:   8    -0.230482087793E+04    0.11183E-04   -0.42052E-05  2968   0.630E-03    0.156E-02
RMM:   9    -0.230482087966E+04   -0.17284E-05   -0.11797E-05  2873   0.395E-03
  26 F= -.23255097E+04 E0= -.23255097E+04  d E =-.900718E-02  mag=     3.0000
       N       E                     dE             d eps       ncg     rms          rms(c)
DAV:   1    -0.230479965987E+04    0.21218E-01   -0.19692E+00  4512   0.144E+00    0.352E-01
RMM:   2    -0.230482126571E+04   -0.21606E-01   -0.23250E-01  6238   0.266E-01    0.203E-01
RMM:   3    -0.230482327281E+04   -0.20071E-02   -0.25254E-02  5674   0.100E-01    0.191E-01
RMM:   4    -0.230482305153E+04    0.22128E-03   -0.23890E-03  4955   0.215E-02    0.112E-01
RMM:   5    -0.230482285356E+04    0.19797E-03   -0.42202E-04  4554   0.129E-02    0.624E-02
RMM:   6    -0.230482285194E+04    0.16144E-05   -0.22594E-04  3975   0.113E-02    0.646E-02
RMM:   7    -0.230482280944E+04    0.42505E-04   -0.69143E-05  3115   0.673E-03    0.214E-02
RMM:   8    -0.230482280474E+04    0.47002E-05   -0.15217E-05  2878   0.450E-03
  27 F= -.23255109E+04 E0= -.23255109E+04  d E =-.101900E-01  mag=     3.0000
       N       E                     dE             d eps       ncg     rms          rms(c)
DAV:   1    -0.230479827745E+04    0.24532E-01   -0.24065E+00  4448   0.158E+00    0.425E-01
RMM:   2    -0.230482629565E+04   -0.28018E-01   -0.29128E-01  6104   0.305E-01    0.370E-01
RMM:   3    -0.230482797304E+04   -0.16774E-02   -0.33641E-02  5792   0.116E-01    0.262E-01
RMM:   4    -0.230482724144E+04    0.73160E-03   -0.31674E-03  5461   0.264E-02    0.120E-01
RMM:   5    -0.230482703463E+04    0.20681E-03   -0.67251E-04  5058   0.166E-02    0.903E-02
RMM:   6    -0.230482701455E+04    0.20084E-04   -0.38488E-04  4525   0.127E-02    0.809E-02
RMM:   7    -0.230482694634E+04    0.68209E-04   -0.10436E-04  3698   0.813E-03    0.215E-02
RMM:   8    -0.230482694073E+04    0.56122E-05   -0.20569E-05  2889   0.520E-03
  28 F= -.23255142E+04 E0= -.23255142E+04  d E =-.333715E-02  mag=     3.0000
       N       E                     dE             d eps       ncg     rms          rms(c)
DAV:   1    -0.230482693833E+04    0.80052E-05   -0.13146E-03  5136   0.376E-02    0.123E-02
RMM:   2    -0.230482695469E+04   -0.16356E-04   -0.18206E-04  3560   0.868E-03    0.784E-03
RMM:   3    -0.230482695645E+04   -0.17592E-05   -0.22849E-05  2830   0.507E-03
  29 F= -.23255142E+04 E0= -.23255142E+04  d E =-.333426E-02  mag=     3.0000
       N       E                     dE             d eps       ncg     rms          rms(c)
DAV:   1    -0.230481766346E+04    0.92912E-02   -0.81221E-01  4448   0.927E-01    0.291E-01
RMM:   2    -0.230483111578E+04   -0.13452E-01   -0.13077E-01  6274   0.199E-01    0.365E-01
RMM:   3    -0.230483065801E+04    0.45777E-03   -0.13850E-02  5690   0.691E-02    0.144E-01
RMM:   4    -0.230483049346E+04    0.16455E-03   -0.14445E-03  4541   0.156E-02    0.719E-02
RMM:   5    -0.230483043623E+04    0.57236E-04   -0.18483E-04  4068   0.104E-02    0.669E-02
RMM:   6    -0.230483042068E+04    0.15551E-04   -0.15640E-04  3391   0.868E-03    0.554E-02
RMM:   7    -0.230483038955E+04    0.31125E-04   -0.68775E-05  2964   0.718E-03    0.118E-02
RMM:   8    -0.230483038829E+04    0.12569E-05   -0.10133E-05  2850   0.443E-03
  30 F= -.23255171E+04 E0= -.23255171E+04  d E =-.291710E-02  mag=     3.0000
       N       E                     dE             d eps       ncg     rms          rms(c)
DAV:   1    -0.230481525018E+04    0.15139E-01   -0.10678E+00  4448   0.106E+00    0.336E-01
RMM:   2    -0.230483298435E+04   -0.17734E-01   -0.17238E-01  6260   0.229E-01    0.421E-01
RMM:   3    -0.230483234210E+04    0.64224E-03   -0.18208E-02  5755   0.785E-02    0.165E-01
RMM:   4    -0.230483212594E+04    0.21617E-03   -0.19021E-03  4706   0.178E-02    0.827E-02
RMM:   5    -0.230483207309E+04    0.52845E-04   -0.26146E-04  4271   0.115E-02    0.874E-02
RMM:   6    -0.230483201607E+04    0.57016E-04   -0.20681E-04  3877   0.945E-03    0.567E-02
RMM:   7    -0.230483198450E+04    0.31577E-04   -0.95651E-05  3181   0.790E-03    0.137E-02
RMM:   8    -0.230483198258E+04    0.19187E-05   -0.13300E-05  2864   0.483E-03
  31 F= -.23255181E+04 E0= -.23255181E+04  d E =-.391920E-02  mag=     3.0000
       N       E                     dE             d eps       ncg     rms          rms(c)
DAV:   1    -0.230482816943E+04    0.38151E-02   -0.31378E-01  4528   0.564E-01    0.188E-01
RMM:   2    -0.230483430580E+04   -0.61364E-02   -0.60448E-02  6420   0.128E-01    0.225E-01
RMM:   3    -0.230483428174E+04    0.24064E-04   -0.64238E-03  5261   0.439E-02    0.958E-02
RMM:   4    -0.230483421374E+04    0.67999E-04   -0.64171E-04  3239   0.997E-03    0.457E-02
RMM:   5    -0.230483418315E+04    0.30594E-04   -0.57442E-05  2979   0.606E-03    0.323E-02
RMM:   6    -0.230483418356E+04   -0.41438E-06   -0.69572E-05  2968   0.670E-03
  32 F= -.23255200E+04 E0= -.23255200E+04  d E =-.187580E-02  mag=     3.0000
       N       E                     dE             d eps       ncg     rms          rms(c)
DAV:   1    -0.230478404602E+04    0.50137E-01   -0.28161E+00  4432   0.169E+00    0.569E-01
RMM:   2    -0.230483959363E+04   -0.55548E-01   -0.54576E-01  6363   0.385E-01    0.696E-01
RMM:   3    -0.230483891041E+04    0.68322E-03   -0.58862E-02  6016   0.133E-01    0.283E-01
RMM:   4    -0.230483836620E+04    0.54421E-03   -0.58814E-03  5174   0.285E-02    0.139E-01
RMM:   5    -0.230483820327E+04    0.16293E-03   -0.60368E-04  4920   0.160E-02    0.133E-01
RMM:   6    -0.230483810523E+04    0.98046E-04   -0.51746E-04  4847   0.130E-02    0.100E-01
RMM:   7    -0.230483801317E+04    0.92055E-04   -0.27280E-04  4206   0.112E-02    0.228E-02
RMM:   8    -0.230483800765E+04    0.55161E-05   -0.28745E-05  2881   0.520E-03
  33 F= -.23255228E+04 E0= -.23255228E+04  d E =-.471987E-02  mag=     3.0000
       N       E                     dE             d eps       ncg     rms          rms(c)
DAV:   1    -0.230483200040E+04    0.60128E-02   -0.38740E-01  4576   0.580E-01    0.215E-01
RMM:   2    -0.230484064290E+04   -0.86425E-02   -0.89577E-02  6456   0.141E-01    0.186E-01
RMM:   3    -0.230484127477E+04   -0.63188E-03   -0.96148E-03  5460   0.534E-02    0.130E-01
RMM:   4    -0.230484112728E+04    0.14749E-03   -0.98204E-04  3505   0.122E-02    0.569E-02
RMM:   5    -0.230484108882E+04    0.38464E-04   -0.91832E-05  2924   0.670E-03    0.431E-02
RMM:   6    -0.230484108656E+04    0.22643E-05   -0.88165E-05  2892   0.639E-03
  34 F= -.23255256E+04 E0= -.23255256E+04  d E =-.274849E-02  mag=     3.0000
       N       E                     dE             d eps       ncg     rms          rms(c)
DAV:   1    -0.230476415974E+04    0.76929E-01   -0.34672E+00  4448   0.174E+00    0.643E-01
RMM:   2    -0.230484144836E+04   -0.77289E-01   -0.80279E-01  6469   0.423E-01    0.557E-01
RMM:   3    -0.230484761610E+04   -0.61677E-02   -0.89997E-02  6236   0.156E-01    0.401E-01
RMM:   4    -0.230484621342E+04    0.14027E-02   -0.88078E-03  5874   0.353E-02    0.175E-01
RMM:   5    -0.230484584930E+04    0.36412E-03   -0.82477E-04  4767   0.163E-02    0.121E-01
RMM:   6    -0.230484587064E+04   -0.21344E-04   -0.84481E-04  4942   0.154E-02    0.136E-01
RMM:   7    -0.230484568436E+04    0.18628E-03   -0.33187E-04  4533   0.111E-02    0.421E-02
RMM:   8    -0.230484566784E+04    0.16524E-04   -0.51670E-05  2900   0.596E-03    0.200E-02
RMM:   9    -0.230484566250E+04    0.53392E-05   -0.18965E-05  2847   0.444E-03
  35 F= -.23255292E+04 E0= -.23255292E+04  d E =-.632980E-02  mag=     3.0000
       N       E                     dE             d eps       ncg     rms          rms(c)
DAV:   1    -0.230484152184E+04    0.41460E-02   -0.25032E-01  4608   0.442E-01    0.172E-01
RMM:   2    -0.230484745286E+04   -0.59310E-02   -0.61743E-02  6489   0.110E-01    0.145E-01
RMM:   3    -0.230484794335E+04   -0.49049E-03   -0.66300E-03  4993   0.409E-02    0.107E-01
RMM:   4    -0.230484784537E+04    0.97974E-04   -0.68213E-04  3159   0.988E-03    0.455E-02
RMM:   5    -0.230484782091E+04    0.24466E-04   -0.56733E-05  2879   0.507E-03    0.341E-02
RMM:   6    -0.230484781933E+04    0.15811E-05   -0.53412E-05  2848   0.464E-03
  36 F= -.23255311E+04 E0= -.23255311E+04  d E =-.193527E-02  mag=     3.0000
       N       E                     dE             d eps       ncg     rms          rms(c)
DAV:   1    -0.230479628205E+04    0.51539E-01   -0.22418E+00  4464   0.132E+00    0.511E-01
RMM:   2    -0.230484930609E+04   -0.53024E-01   -0.55391E-01  6515   0.329E-01    0.418E-01
RMM:   3    -0.230485415956E+04   -0.48535E-02   -0.62535E-02  6164   0.125E-01    0.321E-01
RMM:   4    -0.230485330307E+04    0.85649E-03   -0.61355E-03  5581   0.277E-02    0.144E-01
RMM:   5    -0.230485307525E+04    0.22782E-03   -0.49456E-04  3764   0.117E-02    0.104E-01
RMM:   6    -0.230485305499E+04    0.20264E-04   -0.51286E-04  4151   0.118E-02    0.105E-01
RMM:   7    -0.230485294984E+04    0.10515E-03   -0.25083E-04  4212   0.911E-03    0.346E-02
RMM:   8    -0.230485294003E+04    0.98035E-05   -0.35546E-05  2884   0.562E-03
  37 F= -.23255356E+04 E0= -.23255356E+04  d E =-.638647E-02  mag=     3.0000
       N       E                     dE             d eps       ncg     rms          rms(c)
DAV:   1    -0.230462796815E+04    0.22498E+00   -0.89824E+00  4448   0.265E+00    0.103E+00
RMM:   2    -0.230484287926E+04   -0.21491E+00   -0.22384E+00  6541   0.670E-01    0.894E-01
RMM:   3    -0.230486271012E+04   -0.19831E-01   -0.27014E-01  6358   0.256E-01    0.663E-01
RMM:   4    -0.230485901302E+04    0.36971E-02   -0.24768E-02  6213   0.557E-02    0.296E-01
RMM:   5    -0.230485805507E+04    0.95796E-03   -0.20366E-03  5062   0.219E-02    0.205E-01
RMM:   6    -0.230485795464E+04    0.10043E-03   -0.21236E-03  5476   0.218E-02    0.214E-01
RMM:   7    -0.230485753011E+04    0.42453E-03   -0.95230E-04  5222   0.160E-02    0.897E-02
RMM:   8    -0.230485747217E+04    0.57944E-04   -0.21866E-04  3549   0.901E-03    0.387E-02
RMM:   9    -0.230485744770E+04    0.24468E-04   -0.52004E-05  2858   0.627E-03    0.146E-02
RMM:  10    -0.230485744498E+04    0.27172E-05   -0.19993E-05  2880   0.342E-03
  38 F= -.23255387E+04 E0= -.23255387E+04  d E =-.953577E-02  mag=     3.0000
       N       E                     dE             d eps       ncg     rms          rms(c)
DAV:   1    -0.230484708701E+04    0.10361E-01   -0.51022E-01  4624   0.607E-01    0.249E-01
RMM:   2    -0.230485972573E+04   -0.12639E-01   -0.13009E-01  6537   0.156E-01    0.239E-01
RMM:   3    -0.230486062955E+04   -0.90382E-03   -0.14631E-02  5584   0.588E-02    0.150E-01
RMM:   4    -0.230486044290E+04    0.18665E-03   -0.14688E-03  3582   0.132E-02    0.661E-02
RMM:   5    -0.230486038974E+04    0.53155E-04   -0.10164E-04  2878   0.627E-03    0.471E-02
RMM:   6    -0.230486039426E+04   -0.45156E-05   -0.11555E-04  2953   0.612E-03    0.532E-02
RMM:   7    -0.230486036827E+04    0.25993E-04   -0.56668E-05  2886   0.578E-03    0.126E-02
RMM:   8    -0.230486036755E+04    0.71336E-06   -0.91848E-06  2858   0.323E-03
  39 F= -.23255414E+04 E0= -.23255414E+04  d E =-.268027E-02  mag=     3.0000
       N       E                     dE             d eps       ncg     rms          rms(c)
DAV:   1    -0.230474750520E+04    0.11286E+00   -0.45834E+00  4448   0.182E+00    0.747E-01
RMM:   2    -0.230486183960E+04   -0.11433E+00   -0.11774E+00  6553   0.472E-01    0.725E-01
RMM:   3    -0.230487026823E+04   -0.84286E-02   -0.13950E-01  6266   0.179E-01    0.455E-01
RMM:   4    -0.230486858454E+04    0.16837E-02   -0.13398E-02  5927   0.387E-02    0.205E-01
RMM:   5    -0.230486806853E+04    0.51601E-03   -0.95987E-04  4344   0.153E-02    0.138E-01
RMM:   6    -0.230486809243E+04   -0.23902E-04   -0.10470E-03  4948   0.158E-02    0.157E-01
RMM:   7    -0.230486786546E+04    0.22697E-03   -0.47111E-04  4277   0.117E-02    0.509E-02
RMM:   8    -0.230486784791E+04    0.17550E-04   -0.86964E-05  2965   0.608E-03    0.257E-02
RMM:   9    -0.230486783765E+04    0.10261E-04   -0.34302E-05  2847   0.508E-03    0.827E-03
RMM:  10    -0.230486783779E+04   -0.14744E-06   -0.81949E-06  2851   0.222E-03
  40 F= -.23255481E+04 E0= -.23255481E+04  d E =-.942148E-02  mag=     3.0000
       N       E                     dE             d eps       ncg     rms          rms(c)
DAV:   1    -0.230438817471E+04    0.47966E+00   -0.18279E+01  4448   0.364E+00    0.151E+00
RMM:   2    -0.230485407429E+04   -0.46590E+00   -0.47957E+00  6565   0.964E-01    0.149E+00
RMM:   3    -0.230488688111E+04   -0.32807E-01   -0.57950E-01  6271   0.363E-01    0.908E-01
RMM:   4    -0.230488022966E+04    0.66515E-02   -0.53095E-02  6327   0.781E-02    0.421E-01
RMM:   5    -0.230487818061E+04    0.20490E-02   -0.38110E-03  5311   0.292E-02    0.280E-01
RMM:   6    -0.230487810156E+04    0.79056E-04   -0.40415E-03  5709   0.291E-02    0.299E-01
RMM:   7    -0.230487733517E+04    0.76638E-03   -0.17985E-03  5412   0.213E-02    0.123E-01
RMM:   8    -0.230487724200E+04    0.93178E-04   -0.46452E-04  4126   0.108E-02    0.579E-02
RMM:   9    -0.230487719366E+04    0.48334E-04   -0.10806E-04  2877   0.740E-03    0.213E-02
RMM:  10    -0.230487719163E+04    0.20328E-05   -0.33820E-05  2886   0.367E-03
  41 F= -.23255560E+04 E0= -.23255560E+04  d E =-.173236E-01  mag=     3.0000
       N       E                     dE             d eps       ncg     rms          rms(c)
DAV:   1    -0.230283745195E+04    0.20397E+01   -0.72865E+01  4448   0.731E+00    0.306E+00
RMM:   2    -0.230498347139E+04   -0.21460E+01   -0.20112E+01  6594   0.199E+00    0.725E+00
RMM:   3    -0.230489120179E+04    0.92270E-01   -0.23232E+00  6196   0.724E-01    0.199E+00
RMM:   4    -0.230488457397E+04    0.66278E-02   -0.23386E-01  6097   0.169E-01    0.114E+00
RMM:   5    -0.230488250713E+04    0.20668E-02   -0.25459E-02  6053   0.695E-02    0.976E-01
RMM:   6    -0.230487495156E+04    0.75556E-02   -0.10710E-02  5798   0.477E-02    0.522E-01
RMM:   7    -0.230487261576E+04    0.23358E-02   -0.89308E-03  5624   0.477E-02    0.227E-01
RMM:   8    -0.230487275738E+04   -0.14162E-03   -0.21909E-03  5381   0.257E-02    0.153E-01
RMM:   9    -0.230487257910E+04    0.17827E-03   -0.59017E-04  4492   0.156E-02    0.860E-02
RMM:  10    -0.230487258208E+04   -0.29725E-05   -0.14782E-04  3021   0.821E-03    0.513E-02
RMM:  11    -0.230487257186E+04    0.10214E-04   -0.43544E-05  2930   0.479E-03    0.254E-02
RMM:  12    -0.230487257574E+04   -0.38781E-05   -0.71393E-06  2847   0.316E-03
  42 F= -.23255487E+04 E0= -.23255487E+04  d E =-.996178E-02  mag=     3.0000
       N       E                     dE             d eps       ncg     rms          rms(c)
DAV:   1    -0.230379382449E+04    0.10787E+01   -0.39594E+01  4448   0.539E+00    0.222E+00
RMM:   2    -0.230480504188E+04   -0.10112E+01   -0.10549E+01  6571   0.142E+00    0.189E+00
RMM:   3    -0.230490898245E+04   -0.10394E+00   -0.12837E+00  6381   0.537E-01    0.152E+00
RMM:   4    -0.230488649001E+04    0.22492E-01   -0.11388E-01  6371   0.120E-01    0.651E-01
RMM:   5    -0.230488267900E+04    0.38110E-02   -0.10270E-02  5510   0.438E-02    0.495E-01
RMM:   6    -0.230488137873E+04    0.13003E-02   -0.83050E-03  6016   0.401E-02    0.456E-01
RMM:   7    -0.230487922547E+04    0.21533E-02   -0.50155E-03  5762   0.337E-02    0.167E-01
RMM:   8    -0.230487918144E+04    0.44030E-04   -0.12634E-03  5002   0.202E-02    0.102E-01
RMM:   9    -0.230487907279E+04    0.10866E-03   -0.21402E-04  3162   0.969E-03    0.500E-02
RMM:  10    -0.230487903292E+04    0.39864E-04   -0.12254E-04  3057   0.664E-03    0.226E-02
RMM:  11    -0.230487902974E+04    0.31815E-05   -0.29652E-05  2850   0.438E-03
  43 F= -.23255571E+04 E0= -.23255571E+04  d E =-.184117E-01  mag=     3.0000
       N       E                     dE             d eps       ncg     rms          rms(c)
DAV:   1    -0.230482148863E+04    0.57544E-01   -0.23893E+00  4464   0.126E+00    0.554E-01
RMM:   2    -0.230488486108E+04   -0.63372E-01   -0.63959E-01  6586   0.345E-01    0.627E-01
RMM:   3    -0.230488751789E+04   -0.26568E-02   -0.73336E-02  6151   0.128E-01    0.308E-01
RMM:   4    -0.230488683879E+04    0.67910E-03   -0.72488E-03  5397   0.271E-02    0.143E-01
RMM:   5    -0.230488656121E+04    0.27758E-03   -0.44420E-04  3825   0.109E-02    0.981E-02
RMM:   6    -0.230488659128E+04   -0.30072E-04   -0.60024E-04  4351   0.127E-02    0.111E-01
RMM:   7    -0.230488646881E+04    0.12248E-03   -0.22637E-04  3191   0.865E-03    0.248E-02
RMM:   8    -0.230488646394E+04    0.48644E-05   -0.28885E-05  2891   0.451E-03
  44 F= -.23255640E+04 E0= -.23255640E+04  d E =-.689991E-02  mag=     3.0000
       N       E                     dE             d eps       ncg     rms          rms(c)
DAV:   1    -0.230430294394E+04    0.58352E+00   -0.21436E+01  4448   0.379E+00    0.168E+00
RMM:   2    -0.230488996101E+04   -0.58702E+00   -0.59364E+00  6592   0.106E+00    0.191E+00
RMM:   3    -0.230491300184E+04   -0.23041E-01   -0.70206E-01  6227   0.391E-01    0.915E-01
RMM:   4    -0.230490711058E+04    0.58913E-02   -0.65477E-02  6212   0.825E-02    0.443E-01
RMM:   5    -0.230490462014E+04    0.24904E-02   -0.41217E-03  5409   0.298E-02    0.298E-01
RMM:   6    -0.230490463345E+04   -0.13312E-04   -0.54614E-03  5574   0.354E-02    0.296E-01
RMM:   7    -0.230490375319E+04    0.88026E-03   -0.16825E-03  5465   0.207E-02    0.891E-02
RMM:   8    -0.230490371422E+04    0.38970E-04   -0.23935E-04  3134   0.686E-03    0.456E-02
RMM:   9    -0.230490368839E+04    0.25832E-04   -0.10690E-04  2912   0.659E-03    0.214E-02
RMM:  10    -0.230490369043E+04   -0.20413E-05   -0.23645E-05  2894   0.372E-03
  45 F= -.23255797E+04 E0= -.23255797E+04  d E =-.226098E-01  mag=     3.0000
       N       E                     dE             d eps       ncg     rms          rms(c)
DAV:   1    -0.230240373676E+04    0.25000E+01   -0.85458E+01  4448   0.760E+00    0.342E+00
RMM:   2    -0.230512826464E+04   -0.27245E+01   -0.25121E+01  6618   0.221E+00    0.745E+00
RMM:   3    -0.230493516977E+04    0.19309E+00   -0.29138E+00  6167   0.791E-01    0.232E+00
RMM:   4    -0.230494354256E+04   -0.83728E-02   -0.34172E-01  6437   0.202E-01    0.162E+00
RMM:   5    -0.230492456148E+04    0.18981E-01   -0.45351E-02  6246   0.848E-02    0.103E+00
RMM:   6    -0.230491685141E+04    0.77101E-02   -0.14175E-02  5572   0.514E-02    0.608E-01
RMM:   7    -0.230491415383E+04    0.26976E-02   -0.11156E-02  5506   0.540E-02    0.351E-01
RMM:   8    -0.230491403737E+04    0.11646E-03   -0.34403E-03  5534   0.272E-02    0.160E-01
RMM:   9    -0.230491393828E+04    0.99093E-04   -0.70575E-04  4606   0.188E-02    0.105E-01
RMM:  10    -0.230491395647E+04   -0.18196E-04   -0.21142E-04  3312   0.915E-03    0.614E-02
RMM:  11    -0.230491395050E+04    0.59767E-05   -0.53655E-05  2961   0.540E-03
  46 F= -.23255875E+04 E0= -.23255875E+04  d E =-.303693E-01  mag=     3.0000
       N       E                     dE             d eps       ncg     rms          rms(c)
DAV:   1    -0.230471909981E+04    0.19486E+00   -0.69153E+00  4432   0.216E+00    0.946E-01
RMM:   2    -0.230490479409E+04   -0.18569E+00   -0.19011E+00  6597   0.586E-01    0.952E-01
RMM:   3    -0.230491901238E+04   -0.14218E-01   -0.23537E-01  6305   0.224E-01    0.579E-01
RMM:   4    -0.230491583114E+04    0.31812E-02   -0.20624E-02  5917   0.476E-02    0.254E-01
RMM:   5    -0.230491497002E+04    0.86112E-03   -0.17139E-03  4576   0.194E-02    0.166E-01
RMM:   6    -0.230491479665E+04    0.17338E-03   -0.18622E-03  5374   0.210E-02    0.126E-01
RMM:   7    -0.230491467586E+04    0.12078E-03   -0.43356E-04  3771   0.119E-02    0.614E-02
RMM:   8    -0.230491464432E+04    0.31546E-04   -0.82671E-05  2975   0.563E-03    0.291E-02
RMM:   9    -0.230491463526E+04    0.90598E-05   -0.40351E-05  2850   0.459E-03
  47 F= -.23255888E+04 E0= -.23255888E+04  d E =-.316803E-01  mag=     3.0000
       N       E                     dE             d eps       ncg     rms          rms(c)
DAV:   1    -0.230468154084E+04    0.23310E+00   -0.85650E+00  4448   0.231E+00    0.108E+00
RMM:   2    -0.230492099959E+04   -0.23946E+00   -0.24221E+00  6624   0.673E-01    0.120E+00
RMM:   3    -0.230493102975E+04   -0.10030E-01   -0.28265E-01  6273   0.245E-01    0.584E-01
RMM:   4    -0.230492873768E+04    0.22921E-02   -0.27270E-02  5985   0.516E-02    0.282E-01
RMM:   5    -0.230492785909E+04    0.87859E-03   -0.17302E-03  5149   0.194E-02    0.221E-01
RMM:   6    -0.230492774584E+04    0.11325E-03   -0.19268E-03  5245   0.202E-02    0.211E-01
RMM:   7    -0.230492730556E+04    0.44027E-03   -0.11000E-03  5199   0.165E-02    0.481E-02
RMM:   8    -0.230492728662E+04    0.18937E-04   -0.12957E-04  2946   0.657E-03    0.288E-02
RMM:   9    -0.230492727181E+04    0.14810E-04   -0.59644E-05  2867   0.512E-03    0.135E-02
RMM:  10    -0.230492727129E+04    0.52777E-06   -0.10379E-05  2872   0.311E-03
  48 F= -.23256007E+04 E0= -.23256007E+04  d E =-.119251E-01  mag=     3.0000
       N       E                     dE             d eps       ncg     rms          rms(c)
DAV:   1    -0.230358618577E+04    0.13411E+01   -0.45292E+01  4448   0.533E+00    0.251E+00
RMM:   2    -0.230492367182E+04   -0.13375E+01   -0.13397E+01  6637   0.160E+00    0.375E+00
RMM:   3    -0.230496268532E+04   -0.39013E-01   -0.15806E+00  6223   0.580E-01    0.164E+00
RMM:   4    -0.230494951850E+04    0.13167E-01   -0.16054E-01  6291   0.134E-01    0.915E-01
RMM:   5    -0.230494540208E+04    0.41164E-02   -0.16332E-02  6057   0.515E-02    0.710E-01
RMM:   6    -0.230494032060E+04    0.50815E-02   -0.71607E-03  5728   0.383E-02    0.400E-01
RMM:   7    -0.230493892765E+04    0.13930E-02   -0.74402E-03  5685   0.432E-02    0.166E-01
RMM:   8    -0.230493895971E+04   -0.32060E-04   -0.11044E-03  5133   0.176E-02    0.969E-02
RMM:   9    -0.230493885001E+04    0.10970E-03   -0.15340E-04  3401   0.825E-03    0.629E-02
RMM:  10    -0.230493883903E+04    0.10977E-04   -0.14472E-04  3065   0.757E-03    0.305E-02
RMM:  11    -0.230493883466E+04    0.43691E-05   -0.23937E-05  2886   0.447E-03
  49 F= -.23256110E+04 E0= -.23256110E+04  d E =-.222431E-01  mag=     3.0000
       N       E                     dE             d eps       ncg     rms          rms(c)
DAV:   1    -0.230482717969E+04    0.11166E+00   -0.41670E+00  4512   0.161E+00    0.752E-01
RMM:   2    -0.230494253512E+04   -0.11536E+00   -0.11884E+00  6634   0.464E-01    0.719E-01
RMM:   3    -0.230495092372E+04   -0.83886E-02   -0.13950E-01  6297   0.173E-01    0.434E-01
RMM:   4    -0.230494950455E+04    0.14192E-02   -0.13703E-02  5900   0.378E-02    0.200E-01
RMM:   5    -0.230494899170E+04    0.51285E-03   -0.90863E-04  4235   0.145E-02    0.130E-01
RMM:   6    -0.230494899536E+04   -0.36578E-05   -0.10207E-03  4930   0.158E-02    0.141E-01
RMM:   7    -0.230494881031E+04    0.18505E-03   -0.37617E-04  3941   0.109E-02    0.499E-02
RMM:   8    -0.230494879484E+04    0.15467E-04   -0.83959E-05  2948   0.550E-03    0.255E-02
RMM:   9    -0.230494878487E+04    0.99764E-05   -0.38593E-05  2848   0.475E-03
  50 F= -.23256207E+04 E0= -.23256207E+04  d E =-.969756E-02  mag=     3.0000
       N       E                     dE             d eps       ncg     rms          rms(c)
DAV:   1    -0.230457313064E+04    0.37566E+00   -0.13015E+01  4448   0.284E+00    0.134E+00
RMM:   2    -0.230493979908E+04   -0.36667E+00   -0.37715E+00  6643   0.834E-01    0.132E+00
RMM:   3    -0.230496556615E+04   -0.25767E-01   -0.45421E-01  6325   0.311E-01    0.776E-01
RMM:   4    -0.230496099870E+04    0.45675E-02   -0.43039E-02  6254   0.672E-02    0.360E-01
RMM:   5    -0.230495934592E+04    0.16528E-02   -0.29088E-03  5169   0.251E-02    0.235E-01
RMM:   6    -0.230495931593E+04    0.29991E-04   -0.32056E-03  5646   0.262E-02    0.254E-01
RMM:   7    -0.230495871564E+04    0.60029E-03   -0.12421E-03  5288   0.179E-02    0.939E-02
RMM:   8    -0.230495866283E+04    0.52812E-04   -0.30474E-04  3363   0.817E-03    0.474E-02
RMM:   9    -0.230495862637E+04    0.36454E-04   -0.10823E-04  2885   0.729E-03    0.171E-02
RMM:  10    -0.230495862657E+04   -0.19936E-06   -0.27218E-05  2897   0.348E-03
  51 F= -.23256302E+04 E0= -.23256302E+04  d E =-.192050E-01  mag=     3.0000
       N       E                     dE             d eps       ncg     rms          rms(c)
DAV:   1    -0.230488102053E+04    0.77606E-01   -0.26986E+00  4480   0.129E+00    0.605E-01
RMM:   2    -0.230495569099E+04   -0.74670E-01   -0.76847E-01  6643   0.373E-01    0.581E-01
RMM:   3    -0.230496100103E+04   -0.53100E-02   -0.89392E-02  6280   0.139E-01    0.345E-01
RMM:   4    -0.230496010656E+04    0.89447E-03   -0.88952E-03  5653   0.302E-02    0.160E-01
RMM:   5    -0.230495976116E+04    0.34540E-03   -0.56274E-04  3783   0.118E-02    0.102E-01
RMM:   6    -0.230495971789E+04    0.43270E-04   -0.67323E-04  4627   0.135E-02    0.888E-02
RMM:   7    -0.230495965105E+04    0.66839E-04   -0.18337E-04  3193   0.861E-03    0.414E-02
RMM:   8    -0.230495963740E+04    0.13652E-04   -0.38750E-05  2913   0.451E-03    0.193E-02
RMM:   9    -0.230495963212E+04    0.52858E-05   -0.26541E-05  2845   0.375E-03
  52 F= -.23256311E+04 E0= -.23256311E+04  d E =-.201084E-01  mag=     3.0000
       N       E                     dE             d eps       ncg     rms          rms(c)
DAV:   1    -0.230473559279E+04    0.22404E+00   -0.87714E+00  4448   0.251E+00    0.107E+00
RMM:   2    -0.230495789873E+04   -0.22231E+00   -0.23350E+00  6608   0.669E-01    0.817E-01
RMM:   3    -0.230498088416E+04   -0.22985E-01   -0.28561E-01  6343   0.257E-01    0.644E-01
RMM:   4    -0.230497756646E+04    0.33177E-02   -0.26667E-02  6274   0.572E-02    0.301E-01
RMM:   5    -0.230497649136E+04    0.10751E-02   -0.23533E-03  5011   0.225E-02    0.186E-01
RMM:   6    -0.230497605024E+04    0.44112E-03   -0.17001E-03  5402   0.202E-02    0.111E-01
RMM:   7    -0.230497597883E+04    0.71409E-04   -0.57337E-04  4515   0.160E-02    0.401E-02
RMM:   8    -0.230497595746E+04    0.21366E-04   -0.77010E-05  2971   0.609E-03    0.211E-02
RMM:   9    -0.230497595095E+04    0.65072E-05   -0.28762E-05  2851   0.459E-03
  53 F= -.23256473E+04 E0= -.23256473E+04  d E =-.161105E-01  mag=     3.0000
       N       E                     dE             d eps       ncg     rms          rms(c)
DAV:   1    -0.230475463328E+04    0.22132E+00   -0.83322E+00  4448   0.245E+00    0.104E+00
RMM:   2    -0.230496562943E+04   -0.21100E+00   -0.22173E+00  6602   0.652E-01    0.789E-01
RMM:   3    -0.230498756167E+04   -0.21932E-01   -0.27027E-01  6340   0.250E-01    0.627E-01
RMM:   4    -0.230498446691E+04    0.30948E-02   -0.25339E-02  6292   0.557E-02    0.295E-01
RMM:   5    -0.230498344382E+04    0.10231E-02   -0.22233E-03  4969   0.219E-02    0.181E-01
RMM:   6    -0.230498302402E+04    0.41980E-03   -0.16588E-03  5441   0.200E-02    0.109E-01
RMM:   7    -0.230498298301E+04    0.41003E-04   -0.53044E-04  4554   0.152E-02    0.612E-02
RMM:   8    -0.230498295163E+04    0.31384E-04   -0.11916E-04  3009   0.633E-03    0.430E-02
RMM:   9    -0.230498292647E+04    0.25160E-04   -0.46066E-05  2853   0.562E-03    0.142E-02
RMM:  10    -0.230498292434E+04    0.21297E-05   -0.24109E-05  2873   0.302E-03
  54 F= -.23256541E+04 E0= -.23256541E+04  d E =-.229361E-01  mag=     3.0000
       N       E                     dE             d eps       ncg     rms          rms(c)
DAV:   1    -0.230486084419E+04    0.12208E+00   -0.58457E+00  4448   0.224E+00    0.829E-01
RMM:   2    -0.230498537440E+04   -0.12453E+00   -0.13315E+00  6522   0.533E-01    0.476E-01
RMM:   3    -0.230499876963E+04   -0.13395E-01   -0.15425E-01  6183   0.202E-01    0.396E-01
RMM:   4    -0.230499821831E+04    0.55132E-03   -0.14941E-02  6226   0.444E-02    0.254E-01
RMM:   5    -0.230499752645E+04    0.69186E-03   -0.16260E-03  5002   0.204E-02    0.150E-01
RMM:   6    -0.230499721482E+04    0.31163E-03   -0.10003E-03  5390   0.170E-02    0.785E-02
RMM:   7    -0.230499722855E+04   -0.13734E-04   -0.36296E-04  4179   0.132E-02    0.752E-02
RMM:   8    -0.230499717229E+04    0.56263E-04   -0.91713E-05  3039   0.638E-03    0.265E-02
RMM:   9    -0.230499716008E+04    0.12213E-04   -0.26178E-05  2851   0.482E-03    0.116E-02
RMM:  10    -0.230499715825E+04    0.18242E-05   -0.13731E-05  2863   0.298E-03
  55 F= -.23256681E+04 E0= -.23256681E+04  d E =-.140604E-01  mag=     3.0000
       N       E                     dE             d eps       ncg     rms          rms(c)
DAV:   1    -0.230493101559E+04    0.66144E-01   -0.29725E+00  4480   0.160E+00    0.589E-01
RMM:   2    -0.230499424904E+04   -0.63233E-01   -0.67629E-01  6515   0.379E-01    0.329E-01
RMM:   3    -0.230500083797E+04   -0.65889E-02   -0.75048E-02  6133   0.143E-01    0.271E-01
RMM:   4    -0.230500062807E+04    0.20990E-03   -0.75295E-03  5857   0.313E-02    0.181E-01
RMM:   5    -0.230500026546E+04    0.36261E-03   -0.83273E-04  4470   0.152E-02    0.103E-01
RMM:   6    -0.230500011713E+04    0.14833E-03   -0.50515E-04  5180   0.129E-02    0.501E-02
RMM:   7    -0.230500010962E+04    0.75125E-05   -0.13533E-04  3223   0.949E-03    0.348E-02
RMM:   8    -0.230500010165E+04    0.79702E-05   -0.33605E-05  2875   0.491E-03
  56 F= -.23256710E+04 E0= -.23256710E+04  d E =-.168848E-01  mag=     3.0000
       N       E                     dE             d eps       ncg     rms          rms(c)
DAV:   1    -0.230490685453E+04    0.93255E-01   -0.51439E+00  4448   0.222E+00    0.712E-01
RMM:   2    -0.230500109123E+04   -0.94237E-01   -0.10086E+00  6519   0.486E-01    0.391E-01
RMM:   3    -0.230501110963E+04   -0.10018E-01   -0.11358E-01  6068   0.178E-01    0.314E-01
RMM:   4    -0.230501093995E+04    0.16968E-03   -0.11107E-02  6101   0.388E-02    0.227E-01
RMM:   5    -0.230501043821E+04    0.50174E-03   -0.12078E-03  4661   0.175E-02    0.131E-01
RMM:   6    -0.230501021539E+04    0.22281E-03   -0.80462E-04  5173   0.159E-02    0.696E-02
RMM:   7    -0.230501023181E+04   -0.16413E-04   -0.24592E-04  3730   0.113E-02    0.708E-02
RMM:   8    -0.230501017827E+04    0.53537E-04   -0.79870E-05  2967   0.627E-03    0.205E-02
RMM:   9    -0.230501017256E+04    0.57105E-05   -0.20201E-05  2854   0.449E-03
  57 F= -.23256807E+04 E0= -.23256807E+04  d E =-.975886E-02  mag=     3.0000
       N       E                     dE             d eps       ncg     rms          rms(c)
DAV:   1    -0.230456852389E+04    0.44165E+00   -0.21808E+01  4448   0.457E+00    0.147E+00
RMM:   2    -0.230497454327E+04   -0.40602E+00   -0.43453E+00  6525   0.101E+00    0.828E-01
RMM:   3    -0.230501806119E+04   -0.43518E-01   -0.50862E-01  6098   0.373E-01    0.666E-01
RMM:   4    -0.230501707283E+04    0.98836E-03   -0.47514E-02  6436   0.814E-02    0.473E-01
RMM:   5    -0.230501507633E+04    0.19965E-02   -0.52128E-03  5461   0.339E-02    0.296E-01
RMM:   6    -0.230501398728E+04    0.10891E-02   -0.36453E-03  5321   0.313E-02    0.189E-01
RMM:   7    -0.230501394569E+04    0.41590E-04   -0.14067E-03  5197   0.231E-02    0.162E-01
RMM:   8    -0.230501367610E+04    0.26959E-03   -0.47704E-04  4900   0.130E-02    0.501E-02
RMM:   9    -0.230501363616E+04    0.39941E-04   -0.86616E-05  2901   0.787E-03    0.237E-02
[...]
DAV:   1    -0.230523607215E+04    0.53249E-05   -0.29377E-04  5216   0.195E-02    0.652E-03
RMM:   2    -0.230523607385E+04   -0.16926E-05   -0.19811E-05  2796   0.429E-03
 170 F= -.23258809E+04 E0= -.23258809E+04  d E =-.122365E-02  mag=     3.0000
       N       E                     dE             d eps       ncg     rms          rms(c)
DAV:   1    -0.230523396687E+04    0.21053E-02   -0.53543E-01  4464   0.818E-01    0.187E-01
RMM:   2    -0.230523726213E+04   -0.32953E-02   -0.35766E-02  5670   0.138E-01    0.890E-02
RMM:   3    -0.230523745459E+04   -0.19246E-03   -0.36884E-03  5028   0.599E-02    0.818E-02
RMM:   4    -0.230523741256E+04    0.42024E-04   -0.38815E-04  4399   0.122E-02    0.583E-02
RMM:   5    -0.230523736266E+04    0.49902E-04   -0.14834E-04  4054   0.104E-02    0.240E-02
RMM:   6    -0.230523735691E+04    0.57567E-05   -0.36021E-05  2985   0.662E-03
 171 F= -.23258818E+04 E0= -.23258818E+04  d E =-.908724E-03  mag=     3.0000
       N       E                     dE             d eps       ncg     rms          rms(c)
DAV:   1    -0.230523715550E+04    0.20716E-03   -0.49832E-02  4696   0.250E-01    0.591E-02
RMM:   2    -0.230523747917E+04   -0.32367E-03   -0.34651E-03  6057   0.446E-02    0.390E-02
RMM:   3    -0.230523750668E+04   -0.27511E-04   -0.40045E-04  3460   0.170E-02    0.459E-02
RMM:   4    -0.230523748410E+04    0.22582E-04   -0.39248E-05  2857   0.543E-03    0.152E-02
RMM:   5    -0.230523748193E+04    0.21723E-05   -0.19219E-05  2886   0.375E-03
 172 F= -.23258818E+04 E0= -.23258818E+04  d E =-.918814E-03  mag=     3.0000
       N       E                     dE             d eps       ncg     rms          rms(c)
DAV:   1    -0.230523562230E+04    0.18618E-02   -0.47562E-01  4432   0.771E-01    0.158E-01
RMM:   2    -0.230523856619E+04   -0.29439E-02   -0.31266E-02  5724   0.128E-01    0.103E-01
RMM:   3    -0.230523876563E+04   -0.19943E-03   -0.32778E-03  5105   0.549E-02    0.105E-01
RMM:   4    -0.230523864876E+04    0.11686E-03   -0.32764E-04  4209   0.115E-02    0.456E-02
RMM:   5    -0.230523861535E+04    0.33414E-04   -0.11306E-04  3963   0.936E-03    0.233E-02
RMM:   6    -0.230523861913E+04   -0.37814E-05   -0.42486E-05  2881   0.683E-03
 173 F= -.23258827E+04 E0= -.23258827E+04  d E =-.837819E-03  mag=     3.0000
       N       E                     dE             d eps       ncg     rms          rms(c)
DAV:   1    -0.230523680461E+04    0.18107E-02   -0.33812E-01  4464   0.651E-01    0.134E-01
RMM:   2    -0.230523889512E+04   -0.20905E-02   -0.22401E-02  5699   0.109E-01    0.757E-02
RMM:   3    -0.230523903120E+04   -0.13608E-03   -0.22910E-03  4856   0.453E-02    0.734E-02
RMM:   4    -0.230523898437E+04    0.46838E-04   -0.22762E-04  3458   0.945E-03    0.418E-02
RMM:   5    -0.230523896065E+04    0.23714E-04   -0.69712E-05  3192   0.763E-03    0.240E-02
RMM:   6    -0.230523896155E+04   -0.89491E-06   -0.41259E-05  2867   0.646E-03
 174 F= -.23258828E+04 E0= -.23258828E+04  d E =-.927296E-03  mag=     3.0000
       N       E                     dE             d eps       ncg     rms          rms(c)
DAV:   1    -0.230523712582E+04    0.18348E-02   -0.43946E-01  4432   0.744E-01    0.157E-01
RMM:   2    -0.230523990264E+04   -0.27768E-02   -0.29244E-02  5834   0.127E-01    0.109E-01
RMM:   3    -0.230524007412E+04   -0.17149E-03   -0.29865E-03  5154   0.524E-02    0.103E-01
RMM:   4    -0.230523995898E+04    0.11515E-03   -0.30440E-04  4036   0.112E-02    0.434E-02
RMM:   5    -0.230523993276E+04    0.26214E-04   -0.90754E-05  3545   0.867E-03    0.268E-02
RMM:   6    -0.230523993525E+04   -0.24867E-05   -0.50612E-05  2901   0.683E-03
 175 F= -.23258834E+04 E0= -.23258834E+04  d E =-.686157E-03  mag=     3.0000
       N       E                     dE             d eps       ncg     rms          rms(c)
DAV:   1    -0.230523860602E+04    0.13267E-02   -0.24734E-01  4464   0.558E-01    0.118E-01
RMM:   2    -0.230524016983E+04   -0.15638E-02   -0.16527E-02  5924   0.956E-02    0.794E-02
RMM:   3    -0.230524027228E+04   -0.10245E-03   -0.16897E-03  4905   0.380E-02    0.770E-02
RMM:   4    -0.230524020852E+04    0.63765E-04   -0.17038E-04  3207   0.864E-03    0.334E-02
RMM:   5    -0.230524019651E+04    0.12011E-04   -0.51045E-05  2952   0.665E-03    0.261E-02
RMM:   6    -0.230524019338E+04    0.31324E-05   -0.34341E-05  2860   0.595E-03
 176 F= -.23258835E+04 E0= -.23258835E+04  d E =-.728255E-03  mag=     3.0000
       N       E                     dE             d eps       ncg     rms          rms(c)
DAV:   1    -0.230523956171E+04    0.63480E-03   -0.18834E-01  4480   0.489E-01    0.120E-01
RMM:   2    -0.230524084403E+04   -0.12823E-02   -0.13259E-02  5952   0.866E-02    0.964E-02
RMM:   3    -0.230524088586E+04   -0.41829E-04   -0.13447E-03  4817   0.343E-02    0.805E-02
RMM:   4    -0.230524080701E+04    0.78846E-04   -0.14647E-04  3235   0.862E-03    0.289E-02
RMM:   5    -0.230524079665E+04    0.10363E-04   -0.52279E-05  3094   0.697E-03    0.230E-02
RMM:   6    -0.230524079466E+04    0.19888E-05   -0.27892E-05  2857   0.599E-03
 177 F= -.23258839E+04 E0= -.23258839E+04  d E =-.425297E-03  mag=     3.0000
       N       E                     dE             d eps       ncg     rms          rms(c)
DAV:   1    -0.230524072623E+04    0.70418E-04   -0.17606E-02  4864   0.150E-01    0.373E-02
RMM:   2    -0.230524084799E+04   -0.12176E-03   -0.12789E-03  6057   0.282E-02    0.264E-02
RMM:   3    -0.230524085538E+04   -0.73898E-05   -0.13201E-04  2934   0.991E-03    0.256E-02
RMM:   4    -0.230524084810E+04    0.72778E-05   -0.14981E-05  2854   0.374E-03
 178 F= -.23258839E+04 E0= -.23258839E+04  d E =-.424476E-03  mag=     3.0000
       N       E                     dE             d eps       ncg     rms          rms(c)
DAV:   1    -0.230524065444E+04    0.20094E-03   -0.77114E-02  4480   0.312E-01    0.835E-02
RMM:   2    -0.230524123405E+04   -0.57961E-03   -0.59054E-03  5942   0.555E-02    0.735E-02
RMM:   3    -0.230524124326E+04   -0.92163E-05   -0.64764E-04  3862   0.229E-02    0.554E-02
RMM:   4    -0.230524120395E+04    0.39309E-04   -0.68877E-05  2897   0.663E-03    0.195E-02
RMM:   5    -0.230524119713E+04    0.68240E-05   -0.30337E-05  2961   0.543E-03
 179 F= -.23258842E+04 E0= -.23258842E+04  d E =-.292859E-03  mag=     3.0000
       N       E                     dE             d eps       ncg     rms          rms(c)
DAV:   1    -0.230524107446E+04    0.12949E-03   -0.23625E-02  4624   0.173E-01    0.479E-02
RMM:   2    -0.230524126368E+04   -0.18922E-03   -0.18744E-03  6164   0.340E-02    0.479E-02
RMM:   3    -0.230524125932E+04    0.43623E-05   -0.21482E-04  3141   0.119E-02    0.305E-02
RMM:   4    -0.230524124787E+04    0.11444E-04   -0.22199E-05  2865   0.456E-03    0.111E-02
RMM:   5    -0.230524124817E+04   -0.29770E-06   -0.10604E-05  2865   0.300E-03
 180 F= -.23258842E+04 E0= -.23258842E+04  d E =-.312542E-03  mag=     3.0000
       N       E                     dE             d eps       ncg     rms          rms(c)
DAV:   1    -0.230524087967E+04    0.36821E-03   -0.78614E-02  4480   0.312E-01    0.742E-02
RMM:   2    -0.230524154434E+04   -0.66467E-03   -0.70241E-03  5962   0.555E-02    0.561E-02
RMM:   3    -0.230524159391E+04   -0.49571E-04   -0.76142E-04  3672   0.229E-02    0.505E-02
RMM:   4    -0.230524156556E+04    0.28348E-04   -0.79105E-05  2895   0.646E-03    0.204E-02
RMM:   5    -0.230524155907E+04    0.64942E-05   -0.24214E-05  2873   0.475E-03
 181 F= -.23258845E+04 E0= -.23258845E+04  d E =-.267107E-03  mag=     3.0000
       N       E                     dE             d eps       ncg     rms          rms(c)
DAV:   1    -0.230524092029E+04    0.64527E-03   -0.83630E-02  4480   0.322E-01    0.777E-02
RMM:   2    -0.230524163570E+04   -0.71541E-03   -0.75554E-03  6207   0.591E-02    0.594E-02
RMM:   3    -0.230524168831E+04   -0.52606E-04   -0.82253E-04  3621   0.217E-02    0.532E-02
RMM:   4    -0.230524165782E+04    0.30488E-04   -0.86625E-05  2904   0.700E-03    0.215E-02
RMM:   5    -0.230524165394E+04    0.38799E-05   -0.25229E-05  2885   0.466E-03
 182 F= -.23258845E+04 E0= -.23258845E+04  d E =-.316681E-03  mag=     3.0000
       N       E                     dE             d eps       ncg     rms          rms(c)
DAV:   1    -0.230524129331E+04    0.36451E-03   -0.76228E-02  4480   0.308E-01    0.758E-02
RMM:   2    -0.230524196550E+04   -0.67220E-03   -0.71349E-03  6138   0.556E-02    0.554E-02
RMM:   3    -0.230524201860E+04   -0.53093E-04   -0.76111E-04  3633   0.219E-02    0.534E-02
RMM:   4    -0.230524198626E+04    0.32334E-04   -0.80484E-05  2886   0.670E-03    0.195E-02
RMM:   5    -0.230524198105E+04    0.52098E-05   -0.26398E-05  2895   0.454E-03
 183 F= -.23258848E+04 E0= -.23258848E+04  d E =-.254819E-03  mag=     3.0000
       N       E                     dE             d eps       ncg     rms          rms(c)
DAV:   1    -0.230524088668E+04    0.10996E-02   -0.14343E-01  4464   0.422E-01    0.104E-01
RMM:   2    -0.230524213530E+04   -0.12486E-02   -0.13324E-02  6103   0.756E-02    0.709E-02
RMM:   3    -0.230524224620E+04   -0.11090E-03   -0.14425E-03  4343   0.305E-02    0.720E-02
RMM:   4    -0.230524219040E+04    0.55802E-04   -0.15315E-04  2986   0.820E-03    0.277E-02
RMM:   5    -0.230524218373E+04    0.66634E-05   -0.40080E-05  2906   0.563E-03
 184 F= -.23258849E+04 E0= -.23258849E+04  d E =-.358706E-03  mag=     3.0000
       N       E                     dE             d eps       ncg     rms          rms(c)
DAV:   1    -0.230524160836E+04    0.58203E-03   -0.96513E-02  4480   0.346E-01    0.865E-02
RMM:   2    -0.230524249639E+04   -0.88803E-03   -0.94868E-03  6168   0.632E-02    0.577E-02
RMM:   3    -0.230524257689E+04   -0.80501E-04   -0.10139E-03  3839   0.245E-02    0.613E-02
RMM:   4    -0.230524253622E+04    0.40673E-04   -0.10827E-04  2903   0.730E-03    0.232E-02
RMM:   5    -0.230524252974E+04    0.64800E-05   -0.34713E-05  2907   0.513E-03
 185 F= -.23258852E+04 E0= -.23258852E+04  d E =-.273373E-03  mag=     3.0000
       N       E                     dE             d eps       ncg     rms          rms(c)
DAV:   1    -0.230524229380E+04    0.24242E-03   -0.31757E-02  4640   0.198E-01    0.515E-02
RMM:   2    -0.230524259807E+04   -0.30427E-03   -0.31740E-03  6164   0.377E-02    0.446E-02
RMM:   3    -0.230524261657E+04   -0.18499E-04   -0.34479E-04  3182   0.140E-02    0.382E-02
RMM:   4    -0.230524260097E+04    0.15604E-04   -0.38693E-05  2875   0.504E-03    0.137E-02
RMM:   5    -0.230524260106E+04   -0.94034E-07   -0.12432E-05  2874   0.308E-03
 186 F= -.23258852E+04 E0= -.23258852E+04  d E =-.303078E-03  mag=     3.0000
       N       E                     dE             d eps       ncg     rms          rms(c)
DAV:   1    -0.230524199401E+04    0.60695E-03   -0.93845E-02  4480   0.340E-01    0.915E-02
RMM:   2    -0.230524286810E+04   -0.87408E-03   -0.94760E-03  6008   0.615E-02    0.433E-02
RMM:   3    -0.230524294489E+04   -0.76796E-04   -0.95601E-04  3723   0.255E-02    0.451E-02
RMM:   4    -0.230524292957E+04    0.15320E-04   -0.10978E-04  2913   0.687E-03    0.254E-02
RMM:   5    -0.230524292107E+04    0.85054E-05   -0.25826E-05  2871   0.479E-03
 187 F= -.23258855E+04 E0= -.23258855E+04  d E =-.244447E-03  mag=     3.0000
       N       E                     dE             d eps       ncg     rms          rms(c)
DAV:   1    -0.230524257386E+04    0.35571E-03   -0.41632E-02  4512   0.227E-01    0.625E-02
RMM:   2    -0.230524298049E+04   -0.40663E-03   -0.43059E-03  6198   0.430E-02    0.425E-02
RMM:   3    -0.230524301684E+04   -0.36344E-04   -0.45279E-04  3313   0.160E-02    0.461E-02
RMM:   4    -0.230524299363E+04    0.23208E-04   -0.52386E-05  2870   0.560E-03    0.148E-02
RMM:   5    -0.230524299205E+04    0.15814E-05   -0.16118E-05  2883   0.341E-03
 188 F= -.23258855E+04 E0= -.23258855E+04  d E =-.264924E-03  mag=     3.0000
       N       E                     dE             d eps       ncg     rms          rms(c)
DAV:   1    -0.230524242535E+04    0.56828E-03   -0.82270E-02  4480   0.316E-01    0.819E-02
RMM:   2    -0.230524328216E+04   -0.85680E-03   -0.90847E-03  6096   0.585E-02    0.549E-02
RMM:   3    -0.230524335992E+04   -0.77765E-04   -0.94933E-04  3713   0.235E-02    0.563E-02
RMM:   4    -0.230524332645E+04    0.33475E-04   -0.10603E-04  2906   0.688E-03    0.213E-02
RMM:   5    -0.230524332052E+04    0.59282E-05   -0.23951E-05  2893   0.447E-03
 189 F= -.23258857E+04 E0= -.23258857E+04  d E =-.218232E-03  mag=     3.0000
       N       E                     dE             d eps       ncg     rms          rms(c)
DAV:   1    -0.230524262001E+04    0.70644E-03   -0.75825E-02  4480   0.303E-01    0.793E-02
RMM:   2    -0.230524341820E+04   -0.79820E-03   -0.84402E-03  6241   0.571E-02    0.567E-02
RMM:   3    -0.230524348628E+04   -0.68076E-04   -0.87999E-04  3616   0.215E-02    0.569E-02
RMM:   4    -0.230524345258E+04    0.33699E-04   -0.99900E-05  2900   0.699E-03    0.206E-02
RMM:   5    -0.230524344876E+04    0.38213E-05   -0.25293E-05  2893   0.431E-03
 190 F= -.23258857E+04 E0= -.23258857E+04  d E =-.240695E-03  mag=     3.0000
       N       E                     dE             d eps       ncg     rms          rms(c)
DAV:   1    -0.230524291228E+04    0.54030E-03   -0.71838E-02  4480   0.293E-01    0.777E-02
RMM:   2    -0.230524372269E+04   -0.81041E-03   -0.84665E-03  6263   0.563E-02    0.622E-02
RMM:   3    -0.230524378787E+04   -0.65179E-04   -0.92322E-04  3635   0.212E-02    0.566E-02
RMM:   4    -0.230524375364E+04    0.34224E-04   -0.97465E-05  2895   0.673E-03    0.202E-02
RMM:   5    -0.230524375221E+04    0.14303E-05   -0.23850E-05  2886   0.403E-03
 191 F= -.23258859E+04 E0= -.23258859E+04  d E =-.205287E-03  mag=     3.0000
       N       E                     dE             d eps       ncg     rms          rms(c)
DAV:   1    -0.230524289730E+04    0.85634E-03   -0.87328E-02  4480   0.323E-01    0.845E-02
RMM:   2    -0.230524386473E+04   -0.96743E-03   -0.10245E-02  6268   0.613E-02    0.574E-02
RMM:   3    -0.230524395593E+04   -0.91201E-04   -0.10932E-03  3721   0.234E-02    0.594E-02
RMM:   4    -0.230524392099E+04    0.34941E-04   -0.12091E-04  2915   0.722E-03    0.228E-02
RMM:   5    -0.230524391588E+04    0.51137E-05   -0.25583E-05  2899   0.441E-03
 192 F= -.23258860E+04 E0= -.23258860E+04  d E =-.261042E-03  mag=     3.0000
       N       E                     dE             d eps       ncg     rms          rms(c)
DAV:   1    -0.230524365569E+04    0.26530E-03   -0.45757E-02  4528   0.234E-01    0.698E-02
RMM:   2    -0.230524419332E+04   -0.53763E-03   -0.55914E-03  6250   0.469E-02    0.585E-02
RMM:   3    -0.230524423054E+04   -0.37221E-04   -0.63350E-04  3441   0.178E-02    0.518E-02
RMM:   4    -0.230524420062E+04    0.29920E-04   -0.66059E-05  2875   0.609E-03    0.178E-02
RMM:   5    -0.230524420124E+04   -0.61374E-06   -0.21642E-05  2883   0.378E-03
 193 F= -.23258862E+04 E0= -.23258862E+04  d E =-.237145E-03  mag=     3.0000
       N       E                     dE             d eps       ncg     rms          rms(c)
DAV:   1    -0.230524392057E+04    0.28006E-03   -0.30777E-02  4528   0.192E-01    0.567E-02
RMM:   2    -0.230524427265E+04   -0.35208E-03   -0.37489E-03  6250   0.382E-02    0.405E-02
RMM:   3    -0.230524430719E+04   -0.34541E-04   -0.42953E-04  3163   0.146E-02    0.435E-02
RMM:   4    -0.230524428655E+04    0.20639E-04   -0.45693E-05  2868   0.519E-03    0.145E-02
RMM:   5    -0.230524428473E+04    0.18180E-05   -0.15887E-05  2885   0.338E-03
 194 F= -.23258863E+04 E0= -.23258863E+04  d E =-.281139E-03  mag=     3.0000
       N       E                     dE             d eps       ncg     rms          rms(c)
DAV:   1    -0.230524394416E+04    0.34239E-03   -0.46005E-02  4480   0.233E-01    0.677E-02
RMM:   2    -0.230524449161E+04   -0.54745E-03   -0.58076E-03  6230   0.462E-02    0.468E-02
RMM:   3    -0.230524454337E+04   -0.51767E-04   -0.63295E-04  3328   0.175E-02    0.489E-02
RMM:   4    -0.230524451844E+04    0.24937E-04   -0.70433E-05  2882   0.597E-03    0.176E-02
RMM:   5    -0.230524451684E+04    0.15986E-05   -0.17394E-05  2882   0.349E-03
 195 F= -.23258865E+04 E0= -.23258865E+04  d E =-.201560E-03  mag=     3.0000
       N       E                     dE             d eps       ncg     rms          rms(c)
DAV:   1    -0.230524405412E+04    0.46432E-03   -0.42866E-02  4480   0.225E-01    0.659E-02
RMM:   2    -0.230524456923E+04   -0.51512E-03   -0.54126E-03  6232   0.444E-02    0.514E-02
RMM:   3    -0.230524461165E+04   -0.42415E-04   -0.61043E-04  3297   0.173E-02    0.479E-02
RMM:   4    -0.230524458743E+04    0.24214E-04   -0.65974E-05  2880   0.590E-03    0.168E-02
RMM:   5    -0.230524458427E+04    0.31661E-05   -0.19142E-05  2890   0.383E-03
 196 F= -.23258865E+04 E0= -.23258865E+04  d E =-.239667E-03  mag=     3.0000
       N       E                     dE             d eps       ncg     rms          rms(c)
DAV:   1    -0.230524414919E+04    0.43824E-03   -0.51516E-02  4480   0.245E-01    0.717E-02
RMM:   2    -0.230524477944E+04   -0.63024E-03   -0.66830E-03  6229   0.486E-02    0.495E-02
RMM:   3    -0.230524484271E+04   -0.63275E-04   -0.74505E-04  3411   0.188E-02    0.528E-02
RMM:   4    -0.230524481358E+04    0.29137E-04   -0.81792E-05  2887   0.618E-03    0.180E-02
RMM:   5    -0.230524481157E+04    0.20027E-05   -0.17934E-05  2894   0.351E-03
 197 F= -.23258867E+04 E0= -.23258867E+04  d E =-.192323E-03  mag=     3.0000
       N       E                     dE             d eps       ncg     rms          rms(c)
DAV:   1    -0.230524413118E+04    0.68240E-03   -0.59550E-02  4480   0.264E-01    0.769E-02
RMM:   2    -0.230524485735E+04   -0.72618E-03   -0.76955E-03  6204   0.515E-02    0.541E-02
RMM:   3    -0.230524492672E+04   -0.69368E-04   -0.86014E-04  3494   0.206E-02    0.550E-02
RMM:   4    -0.230524489561E+04    0.31112E-04   -0.94013E-05  2893   0.655E-03    0.194E-02
RMM:   5    -0.230524488995E+04    0.56607E-05   -0.22534E-05  2898   0.410E-03
 198 F= -.23258867E+04 E0= -.23258867E+04  d E =-.233383E-03  mag=     3.0000
       N       E                     dE             d eps       ncg     rms          rms(c)
DAV:   1    -0.230524429589E+04    0.59972E-03   -0.58926E-02  4480   0.258E-01    0.764E-02
RMM:   2    -0.230524508433E+04   -0.78843E-03   -0.84128E-03  6266   0.525E-02    0.524E-02
RMM:   3    -0.230524516541E+04   -0.81086E-04   -0.93648E-04  3455   0.201E-02    0.548E-02
RMM:   4    -0.230524513535E+04    0.30058E-04   -0.10270E-04  2900   0.656E-03    0.202E-02
RMM:   5    -0.230524513153E+04    0.38264E-05   -0.21474E-05  2896   0.384E-03
 199 F= -.23258869E+04 E0= -.23258869E+04  d E =-.204323E-03  mag=     3.0000
       N       E                     dE             d eps       ncg     rms          rms(c)
DAV:   1    -0.230524476455E+04    0.37081E-03   -0.29716E-02  4528   0.183E-01    0.551E-02
RMM:   2    -0.230524517256E+04   -0.40802E-03   -0.42788E-03  6207   0.376E-02    0.475E-02
RMM:   3    -0.230524520188E+04   -0.29313E-04   -0.47588E-04  3101   0.146E-02    0.398E-02
RMM:   4    -0.230524518580E+04    0.16076E-04   -0.52121E-05  2877   0.506E-03    0.146E-02
RMM:   5    -0.230524518235E+04    0.34508E-05   -0.14112E-05  2884   0.322E-03
 200 F= -.23258870E+04 E0= -.23258870E+04  d E =-.228880E-03  mag=     3.0000
       N       E                     dE             d eps       ncg     rms          rms(c)
DAV:   1    -0.230524464730E+04    0.53850E-03   -0.54023E-02  4480   0.247E-01    0.755E-02
RMM:   2    -0.230524536224E+04   -0.71494E-03   -0.76976E-03  6206   0.500E-02    0.424E-02
RMM:   3    -0.230524543704E+04   -0.74802E-04   -0.83469E-04  3371   0.197E-02    0.473E-02
RMM:   4    -0.230524541752E+04    0.19525E-04   -0.94257E-05  2897   0.613E-03    0.198E-02
RMM:   5    -0.230524541317E+04    0.43422E-05   -0.16778E-05  2882   0.355E-03
 201 F= -.23258871E+04 E0= -.23258871E+04  d E =-.185064E-03  mag=     3.0000
