       N       E                     dE             d eps       ncg     rms          rms(c)
DAV:   1     0.124718477037E+05    0.12472E+05   -0.81692E+05  4384   0.143E+03
DAV:   2    -0.107422289468E+04   -0.13546E+05   -0.12997E+05  5320   0.329E+02
DAV:   3    -0.246054367364E+04   -0.13863E+04   -0.13753E+04  5232   0.109E+02
DAV:   4    -0.249836151989E+04   -0.37818E+02   -0.37641E+02  6288   0.250E+01
DAV:   5    -0.249910510734E+04   -0.74359E+00   -0.74265E+00  5440   0.288E+00    0.170E+02
RMM:   6    -0.145942673318E+04    0.10397E+04   -0.19137E+03  4328   0.388E+01    0.725E+01
RMM:   7    -0.163344241859E+04   -0.17402E+03   -0.26591E+02  4844   0.139E+01    0.521E+01
RMM:   8    -0.168337476011E+04   -0.49932E+02   -0.68873E+01  4928   0.797E+00    0.379E+01
RMM:   9    -0.180067331088E+04   -0.11730E+03   -0.57757E+01  4538   0.784E+00    0.254E+01
RMM:  10    -0.194968340056E+04   -0.14901E+03   -0.59456E+01  4650   0.733E+00    0.170E+01
RMM:  11    -0.207390815016E+04   -0.12422E+03   -0.69278E+01  4528   0.635E+00    0.129E+01
RMM:  12    -0.225452282890E+04   -0.18061E+03   -0.20063E+02  4347   0.928E+00    0.162E+01
RMM:  13    -0.226181100252E+04   -0.72882E+01   -0.11939E+01  4570   0.363E+00    0.771E+00
RMM:  14    -0.227638796537E+04   -0.14577E+02   -0.10794E+01  4339   0.231E+00    0.616E+00
RMM:  15    -0.228486872506E+04   -0.84808E+01   -0.58803E+00  4583   0.191E+00    0.384E+00
RMM:  16    -0.228910193553E+04   -0.42332E+01   -0.33408E+00  4533   0.123E+00    0.225E+00
RMM:  17    -0.229114389667E+04   -0.20420E+01   -0.93878E-01  4840   0.663E-01    0.165E+00
RMM:  18    -0.229144899856E+04   -0.30510E+00   -0.22503E-01  4767   0.391E-01    0.111E+00
RMM:  19    -0.229153477969E+04   -0.85781E-01   -0.73967E-02  4565   0.208E-01    0.634E-01
RMM:  20    -0.229156526431E+04   -0.30485E-01   -0.29074E-02  4830   0.128E-01    0.383E-01
RMM:  21    -0.229157600565E+04   -0.10741E-01   -0.12537E-02  4667   0.836E-02    0.223E-01
RMM:  22    -0.229158482234E+04   -0.88167E-02   -0.87299E-03  4670   0.702E-02    0.128E-01
RMM:  23    -0.229159259566E+04   -0.77733E-02   -0.57356E-03  4843   0.627E-02    0.853E-02
RMM:  24    -0.229159486818E+04   -0.22725E-02   -0.13404E-03  4768   0.340E-02    0.591E-02
RMM:  25    -0.229159785802E+04   -0.29898E-02   -0.10613E-03  4389   0.236E-02    0.357E-02
RMM:  26    -0.229159979729E+04   -0.19393E-02   -0.67958E-04  4212   0.228E-02    0.214E-02
RMM:  27    -0.229160021832E+04   -0.42103E-03   -0.18173E-04  3806   0.139E-02    0.116E-02
RMM:  28    -0.229160050033E+04   -0.28201E-03   -0.84001E-05  3548   0.809E-03    0.569E-03
RMM:  29    -0.229160067046E+04   -0.17012E-03   -0.51834E-05  3419   0.748E-03    0.426E-03
RMM:  30    -0.229160072945E+04   -0.58998E-04   -0.24743E-05  3084   0.514E-03    0.321E-03
RMM:  31    -0.229160075353E+04   -0.24076E-04   -0.92907E-06  2815   0.364E-03    0.228E-03
RMM:  32    -0.229160076434E+04   -0.10809E-04   -0.60332E-06  2582   0.271E-03    0.147E-03
RMM:  33    -0.229160076537E+04   -0.10319E-05   -0.23323E-06  2319   0.205E-03
   1 F= -.23114405E+04 E0= -.23114405E+04  d E =-.231144E+04  mag=     1.0002
