       N       E                     dE             d eps       ncg     rms          rms(c)
DAV:   1     0.120994494522E+05    0.12099E+05   -0.83194E+05  4640   0.140E+03
DAV:   2    -0.130128254134E+04   -0.13401E+05   -0.12892E+05  5120   0.318E+02
DAV:   3    -0.249596072415E+04   -0.11947E+04   -0.11854E+04  5440   0.101E+02
DAV:   4    -0.252106770115E+04   -0.25107E+02   -0.24990E+02  5760   0.175E+01
DAV:   5    -0.252169523714E+04   -0.62754E+00   -0.62651E+00  5760   0.246E+00    0.170E+02
RMM:   6    -0.147858536621E+04    0.10431E+04   -0.18974E+03  4500   0.376E+01    0.725E+01
RMM:   7    -0.164937999620E+04   -0.17079E+03   -0.26142E+02  5019   0.132E+01    0.502E+01
RMM:   8    -0.170587108276E+04   -0.56491E+02   -0.60049E+01  5100   0.784E+00    0.407E+01
RMM:   9    -0.179906381212E+04   -0.93193E+02   -0.68968E+01  5100   0.758E+00    0.354E+01
RMM:  10    -0.192225733399E+04   -0.12319E+03   -0.54951E+01  5294   0.696E+00    0.211E+01
RMM:  11    -0.203664376791E+04   -0.11439E+03   -0.49443E+01  5004   0.551E+00    0.152E+01
RMM:  12    -0.213119183520E+04   -0.94548E+02   -0.48323E+01  4631   0.519E+00    0.118E+01
RMM:  13    -0.225366695262E+04   -0.12248E+03   -0.10552E+02  4504   0.716E+00    0.675E+00
RMM:  14    -0.229998988272E+04   -0.46323E+02   -0.43558E+01  4544   0.488E+00    0.486E+00
RMM:  15    -0.231104708054E+04   -0.11057E+02   -0.12606E+01  4922   0.279E+00    0.328E+00
RMM:  16    -0.231355603488E+04   -0.25090E+01   -0.27588E+00  5150   0.114E+00    0.442E+00
RMM:  17    -0.231368411566E+04   -0.12808E+00   -0.26247E-01  5790   0.362E-01    0.422E+00
RMM:  18    -0.231353636960E+04    0.14775E+00   -0.51838E-02  5286   0.133E-01    0.418E+00
RMM:  19    -0.231457184322E+04   -0.10355E+01   -0.86678E-01  4608   0.354E-01    0.304E+00
RMM:  20    -0.231617129702E+04   -0.15995E+01   -0.14127E+00  4552   0.549E-01    0.158E+00
RMM:  21    -0.231666821972E+04   -0.49692E+00   -0.40721E-01  5003   0.414E-01    0.113E+00
RMM:  22    -0.231684527787E+04   -0.17706E+00   -0.17350E-01  4903   0.219E-01    0.752E-01
RMM:  23    -0.231691151071E+04   -0.66233E-01   -0.57323E-02  4681   0.130E-01    0.555E-01
RMM:  24    -0.231695559155E+04   -0.44081E-01   -0.34895E-02  4715   0.108E-01    0.333E-01
RMM:  25    -0.231697093065E+04   -0.15339E-01   -0.11107E-02  4887   0.783E-02    0.371E-01
RMM:  26    -0.231698479866E+04   -0.13868E-01   -0.45541E-03  4716   0.477E-02    0.198E-01
RMM:  27    -0.231700034404E+04   -0.15545E-01   -0.53820E-03  4574   0.498E-02    0.120E-01
RMM:  28    -0.231700676410E+04   -0.64201E-02   -0.19090E-03  4634   0.344E-02    0.130E-01
RMM:  29    -0.231700950668E+04   -0.27426E-02   -0.82719E-04  4417   0.222E-02    0.672E-02
RMM:  30    -0.231701280189E+04   -0.32952E-02   -0.76773E-04  4171   0.194E-02    0.295E-02
RMM:  31    -0.231701452972E+04   -0.17278E-02   -0.46503E-04  4153   0.161E-02    0.225E-02
RMM:  32    -0.231701502311E+04   -0.49339E-03   -0.17667E-04  3989   0.110E-02    0.929E-03
RMM:  33    -0.231701521426E+04   -0.19115E-03   -0.70497E-05  3679   0.745E-03    0.535E-03
RMM:  34    -0.231701526538E+04   -0.51121E-04   -0.23229E-05  3169   0.543E-03    0.407E-03
RMM:  35    -0.231701529238E+04   -0.26999E-04   -0.10121E-05  2967   0.339E-03    0.339E-03
RMM:  36    -0.231701530790E+04   -0.15517E-04   -0.61397E-06  2848   0.273E-03    0.124E-03
RMM:  37    -0.231701531284E+04   -0.49441E-05   -0.30974E-06  2516   0.206E-03
   1 F= -.23375318E+04 E0= -.23375318E+04  d E =-.277364E-05  mag=     4.0000
       N       E                     dE             d eps       ncg     rms          rms(c)
DAV:   1    -0.231700066130E+04    0.14647E-01   -0.20996E+00  4480   0.604E-01    0.315E-01
RMM:   2    -0.231700014295E+04    0.51835E-03   -0.10100E-02  3970   0.353E-02    0.165E-01
RMM:   3    -0.231699967473E+04    0.46821E-03   -0.19816E-03  4582   0.212E-02    0.986E-02
RMM:   4    -0.231699979254E+04   -0.11780E-03   -0.65767E-04  3817   0.997E-03    0.139E-01
RMM:   5    -0.231699964882E+04    0.14372E-03   -0.19607E-04  3247   0.663E-03    0.249E-02
RMM:   6    -0.231699964877E+04    0.46537E-07   -0.30019E-05  2874   0.349E-03
   2 F= -.23375164E+04 E0= -.23375164E+04  d E =-.183435E-05  mag=     4.0000
       N       E                     dE             d eps       ncg     rms          rms(c)
DAV:   1    -0.231701882025E+04   -0.19171E-01   -0.83585E+00  4480   0.120E+00    0.635E-01
RMM:   2    -0.231701561276E+04    0.32075E-02   -0.33020E-02  4129   0.683E-02    0.328E-01
RMM:   3    -0.231701402462E+04    0.15881E-02   -0.69616E-03  5158   0.391E-02    0.234E-01
RMM:   4    -0.231701431353E+04   -0.28892E-03   -0.25602E-03  4787   0.184E-02    0.274E-01
RMM:   5    -0.231701377047E+04    0.54306E-03   -0.73775E-04  4365   0.119E-02    0.478E-02
RMM:   6    -0.231701377248E+04   -0.20106E-05   -0.88081E-05  3085   0.571E-03
   3 F= -.23375301E+04 E0= -.23375300E+04  d E =-.408888E-05  mag=     4.0000
       N       E                     dE             d eps       ncg     rms          rms(c)
DAV:   1    -0.231697726664E+04    0.36504E-01   -0.41879E+00  4480   0.785E-01    0.429E-01
RMM:   2    -0.231697573717E+04    0.15295E-02   -0.13815E-02  4017   0.457E-02    0.249E-01
RMM:   3    -0.231697561319E+04    0.12398E-03   -0.35116E-03  4623   0.281E-02    0.309E-01
RMM:   4    -0.231697507352E+04    0.53967E-03   -0.18986E-03  4874   0.153E-02    0.163E-01
RMM:   5    -0.231697491018E+04    0.16334E-03   -0.28128E-04  3334   0.835E-03    0.316E-02
RMM:   6    -0.231697491576E+04   -0.55808E-05   -0.50709E-05  2902   0.389E-03
   4 F= -.23374914E+04 E0= -.23374914E+04  d E =-.510871E-05  mag=     4.0000
       N       E                     dE             d eps       ncg     rms          rms(c)
DAV:   1    -0.231701940904E+04   -0.44499E-01   -0.87258E+00  4480   0.126E+00    0.678E-01
RMM:   2    -0.231701575315E+04    0.36559E-02   -0.27412E-02  4014   0.701E-02    0.437E-01
RMM:   3    -0.231701695480E+04   -0.12017E-02   -0.12303E-02  5517   0.426E-02    0.646E-01
RMM:   4    -0.231701359023E+04    0.33646E-02   -0.53559E-03  5343   0.267E-02    0.163E-01
RMM:   5    -0.231701347554E+04    0.11469E-03   -0.51853E-04  3643   0.104E-02    0.455E-02
RMM:   6    -0.231701348113E+04   -0.55925E-05   -0.88143E-05  3059   0.478E-03
   5 F= -.23375300E+04 E0= -.23375300E+04  d E =-.149476E-05  mag=     4.0000
       N       E                     dE             d eps       ncg     rms          rms(c)
DAV:   1    -0.231702753781E+04   -0.14062E-01   -0.43514E+00  4640   0.887E-01    0.460E-01
RMM:   2    -0.231702514375E+04    0.23941E-02   -0.19596E-02  3941   0.574E-02    0.301E-01
RMM:   3    -0.231702598407E+04   -0.84032E-03   -0.55589E-03  5358   0.304E-02    0.517E-01
RMM:   4    -0.231702374926E+04    0.22348E-02   -0.23379E-03  4838   0.186E-02    0.755E-02
RMM:   5    -0.231702375544E+04   -0.61707E-05   -0.45260E-04  3387   0.817E-03    0.311E-02
RMM:   6    -0.231702375522E+04    0.21650E-06   -0.36470E-05  2878   0.430E-03
   6 F= -.23375400E+04 E0= -.23375400E+04  d E =-.124795E-05  mag=     4.0000
       N       E                     dE             d eps       ncg     rms          rms(c)
DAV:   1    -0.231697259150E+04    0.51164E-01   -0.88344E+00  4480   0.132E+00    0.791E-01
RMM:   2    -0.231696564376E+04    0.69477E-02   -0.66609E-02  4138   0.107E-01    0.719E-01
RMM:   3    -0.231696417387E+04    0.14699E-02   -0.17326E-02  5620   0.589E-02    0.754E-01
RMM:   4    -0.231695899400E+04    0.51799E-02   -0.70254E-03  5038   0.312E-02    0.146E-01
RMM:   5    -0.231695888852E+04    0.10547E-03   -0.13978E-03  3885   0.165E-02    0.544E-02
RMM:   6    -0.231695891693E+04   -0.28404E-04   -0.17325E-04  3189   0.698E-03    0.267E-02
RMM:   7    -0.231695891636E+04    0.56461E-06   -0.27200E-05  2912   0.366E-03
   7 F= -.23374756E+04 E0= -.23374756E+04  d E =-.617638E-05  mag=     4.0000
       N       E                     dE             d eps       ncg     rms          rms(c)
DAV:   1    -0.231701604804E+04   -0.57131E-01   -0.43871E+00  4480   0.898E-01    0.504E-01
RMM:   2    -0.231701463042E+04    0.14176E-02   -0.28417E-02  4173   0.663E-02    0.464E-01
RMM:   3    -0.231701389469E+04    0.73573E-03   -0.69697E-03  5144   0.358E-02    0.470E-01
RMM:   4    -0.231701189739E+04    0.19973E-02   -0.28881E-03  4915   0.201E-02    0.987E-02
RMM:   5    -0.231701187204E+04    0.25341E-04   -0.66518E-04  3581   0.104E-02    0.441E-02
RMM:   6    -0.231701186733E+04    0.47152E-05   -0.68001E-05  2984   0.496E-03
   8 F= -.23375285E+04 E0= -.23375285E+04  d E =-.132321E-06  mag=     4.0000
       N       E                     dE             d eps       ncg     rms          rms(c)
DAV:   1    -0.231700199232E+04    0.98797E-02   -0.81890E+00  4480   0.114E+00    0.556E-01
RMM:   2    -0.231700172695E+04    0.26537E-03   -0.31348E-02  4096   0.719E-02    0.345E-01
RMM:   3    -0.231700259361E+04   -0.86666E-03   -0.75346E-03  5085   0.425E-02    0.565E-01
RMM:   4    -0.231699997408E+04    0.26195E-02   -0.42682E-03  5188   0.236E-02    0.130E-01
RMM:   5    -0.231700001642E+04   -0.42334E-04   -0.79439E-04  3688   0.114E-02    0.671E-02
RMM:   6    -0.231699999086E+04    0.25557E-04   -0.87334E-05  3099   0.629E-03    0.219E-02
RMM:   7    -0.231699999193E+04   -0.10728E-05   -0.26726E-05  2953   0.354E-03
   9 F= -.23375163E+04 E0= -.23375163E+04  d E =-.413251E-04  mag=     3.9998
       N       E                     dE             d eps       ncg     rms          rms(c)
DAV:   1    -0.231700267329E+04   -0.26824E-02   -0.39697E+00  4480   0.821E-01    0.401E-01
RMM:   2    -0.231700277088E+04   -0.97591E-04   -0.14207E-02  4025   0.473E-02    0.227E-01
RMM:   3    -0.231700209738E+04    0.67350E-03   -0.26170E-03  4745   0.279E-02    0.137E-01
RMM:   4    -0.231700225579E+04   -0.15842E-03   -0.96259E-04  4159   0.127E-02    0.157E-01
RMM:   5    -0.231700209125E+04    0.16454E-03   -0.39924E-04  3563   0.900E-03    0.757E-02
RMM:   6    -0.231700206566E+04    0.25593E-04   -0.47555E-05  2985   0.460E-03    0.271E-02
RMM:   7    -0.231700206347E+04    0.21875E-05   -0.20270E-05  2866   0.309E-03
  10 F= -.23375184E+04 E0= -.23375184E+04  d E =-.155231E-05  mag=     3.9999
       N       E                     dE             d eps       ncg     rms          rms(c)
DAV:   1    -0.231700704934E+04   -0.49837E-02   -0.81841E+00  4480   0.119E+00    0.610E-01
RMM:   2    -0.231700682421E+04    0.22513E-03   -0.33742E-02  4184   0.717E-02    0.435E-01
RMM:   3    -0.231700776305E+04   -0.93884E-03   -0.90078E-03  5605   0.389E-02    0.611E-01
RMM:   4    -0.231700462435E+04    0.31387E-02   -0.44452E-03  4958   0.255E-02    0.135E-01
RMM:   5    -0.231700461214E+04    0.12210E-04   -0.66708E-04  3985   0.145E-02    0.531E-02
RMM:   6    -0.231700463051E+04   -0.18378E-04   -0.85523E-05  3088   0.576E-03    0.400E-02
RMM:   7    -0.231700462239E+04    0.81256E-05   -0.39471E-05  3006   0.399E-03
  11 F= -.23375213E+04 E0= -.23375213E+04  d E =-.464779E-05  mag=     4.0000
       N       E                     dE             d eps       ncg     rms          rms(c)
DAV:   1    -0.231702934017E+04   -0.24710E-01   -0.40331E+00  4480   0.866E-01    0.486E-01
RMM:   2    -0.231703050736E+04   -0.11672E-02   -0.25448E-02  4122   0.629E-02    0.497E-01
RMM:   3    -0.231702926599E+04    0.12414E-02   -0.53757E-03  5273   0.305E-02    0.356E-01
RMM:   4    -0.231702800134E+04    0.12647E-02   -0.23794E-03  4279   0.197E-02    0.101E-01
RMM:   5    -0.231702799406E+04    0.72789E-05   -0.51216E-04  3686   0.141E-02    0.484E-02
RMM:   6    -0.231702800899E+04   -0.14924E-04   -0.78625E-05  3117   0.501E-03    0.290E-02
RMM:   7    -0.231702800912E+04   -0.13402E-06   -0.21083E-05  2930   0.358E-03
  12 F= -.23375450E+04 E0= -.23375450E+04  d E =-.171464E-05  mag=     4.0000
       N       E                     dE             d eps       ncg     rms          rms(c)
DAV:   1    -0.231697885680E+04    0.49152E-01   -0.85371E+00  4480   0.129E+00    0.767E-01
RMM:   2    -0.231697669766E+04    0.21591E-02   -0.62984E-02  4293   0.101E-01    0.720E-01
RMM:   3    -0.231697507539E+04    0.16223E-02   -0.15509E-02  5455   0.566E-02    0.649E-01
RMM:   4    -0.231697099685E+04    0.40785E-02   -0.67869E-03  4751   0.316E-02    0.143E-01
RMM:   5    -0.231697088413E+04    0.11272E-03   -0.96180E-04  3841   0.198E-02    0.604E-02
RMM:   6    -0.231697091248E+04   -0.28353E-04   -0.18378E-04  3326   0.660E-03    0.360E-02
RMM:   7    -0.231697091305E+04   -0.57041E-06   -0.33392E-05  2979   0.461E-03
  13 F= -.23374869E+04 E0= -.23374869E+04  d E =-.358911E-05  mag=     4.0000
       N       E                     dE             d eps       ncg     rms          rms(c)
DAV:   1    -0.231700264985E+04   -0.31737E-01   -0.24690E+00  4480   0.714E-01    0.452E-01
RMM:   2    -0.231700062054E+04    0.20293E-02   -0.22547E-02  3989   0.601E-02    0.344E-01
RMM:   3    -0.231700092116E+04   -0.30063E-03   -0.57143E-03  5165   0.332E-02    0.441E-01
RMM:   4    -0.231699923858E+04    0.16826E-02   -0.24234E-03  4768   0.185E-02    0.938E-02
RMM:   5    -0.231699916816E+04    0.70427E-04   -0.30744E-04  3428   0.959E-03    0.402E-02
RMM:   6    -0.231699917604E+04   -0.78854E-05   -0.75943E-05  3019   0.408E-03
  14 F= -.23375160E+04 E0= -.23375160E+04  d E =-.274908E-05  mag=     4.0000
       N       E                     dE             d eps       ncg     rms          rms(c)
DAV:   1    -0.231702337395E+04   -0.24206E-01   -0.12701E+00  4720   0.473E-01    0.499E-01
RMM:   2    -0.231702092627E+04    0.24477E-02   -0.13279E-02  4038   0.402E-02    0.286E-01
RMM:   3    -0.231702154806E+04   -0.62179E-03   -0.41360E-03  4999   0.270E-02    0.414E-01
RMM:   4    -0.231702017364E+04    0.13744E-02   -0.17494E-03  4759   0.158E-02    0.131E-01
RMM:   5    -0.231702005822E+04    0.11542E-03   -0.26475E-04  3389   0.797E-03    0.373E-02
RMM:   6    -0.231702005915E+04   -0.92993E-06   -0.39270E-05  2990   0.409E-03
  15 F= -.23375362E+04 E0= -.23375362E+04  d E =-.267936E-05  mag=     4.0000
       N       E                     dE             d eps       ncg     rms          rms(c)
DAV:   1    -0.231700114393E+04    0.18914E-01   -0.62169E-01  4800   0.327E-01    0.270E-01
RMM:   2    -0.231700115778E+04   -0.13849E-04   -0.25435E-03  3681   0.198E-02    0.168E-01
RMM:   3    -0.231700125518E+04   -0.97400E-04   -0.11301E-03  4582   0.129E-02    0.168E-01
RMM:   4    -0.231700108913E+04    0.16605E-03   -0.39848E-04  3306   0.838E-03    0.755E-02
RMM:   5    -0.231700104469E+04    0.44445E-04   -0.70446E-05  2899   0.466E-03    0.209E-02
RMM:   6    -0.231700104723E+04   -0.25437E-05   -0.13969E-05  2713   0.226E-03
  16 F= -.23375172E+04 E0= -.23375172E+04  d E =-.303297E-05  mag=     4.0000
       N       E                     dE             d eps       ncg     rms          rms(c)
DAV:   1    -0.231701906494E+04   -0.18020E-01   -0.12688E+00  4880   0.476E-01    0.505E-01
RMM:   2    -0.231701575568E+04    0.33093E-02   -0.13138E-02  3993   0.428E-02    0.273E-01
RMM:   3    -0.231701516638E+04    0.58930E-03   -0.24588E-03  4604   0.234E-02    0.141E-01
RMM:   4    -0.231701523759E+04   -0.71207E-04   -0.85210E-04  4156   0.114E-02    0.154E-01
RMM:   5    -0.231701509109E+04    0.14650E-03   -0.34499E-04  3143   0.848E-03    0.634E-02
RMM:   6    -0.231701506312E+04    0.27975E-04   -0.53787E-05  2883   0.404E-03    0.178E-02
RMM:   7    -0.231701506240E+04    0.71444E-06   -0.93077E-06  2619   0.239E-03
  17 F= -.23375319E+04 E0= -.23375319E+04  d E =-.254448E-05  mag=     4.0000
       N       E                     dE             d eps       ncg     rms          rms(c)
DAV:   1    -0.231700949073E+04    0.55724E-02   -0.64149E-01  4640   0.337E-01    0.378E-01
RMM:   2    -0.231700754519E+04    0.19455E-02   -0.79236E-03  3969   0.319E-02    0.201E-01
RMM:   3    -0.231700723760E+04    0.30759E-03   -0.15317E-03  4061   0.190E-02    0.118E-01
RMM:   4    -0.231700737482E+04   -0.13722E-03   -0.75151E-04  4100   0.105E-02    0.172E-01
RMM:   5    -0.231700714393E+04    0.23089E-03   -0.22912E-04  3109   0.725E-03    0.285E-02
RMM:   6    -0.231700714029E+04    0.36360E-05   -0.35010E-05  2744   0.313E-03
  18 F= -.23375238E+04 E0= -.23375238E+04  d E =-.309807E-05  mag=     4.0000
       N       E                     dE             d eps       ncg     rms          rms(c)
DAV:   1    -0.231701701556E+04   -0.98716E-02   -0.12595E+00  4640   0.458E-01    0.402E-01
RMM:   2    -0.231701582292E+04    0.11926E-02   -0.72050E-03  3891   0.297E-02    0.226E-01
RMM:   3    -0.231701589975E+04   -0.76829E-04   -0.20702E-03  4608   0.184E-02    0.230E-01
RMM:   4    -0.231701557577E+04    0.32398E-03   -0.90278E-04  4130   0.117E-02    0.127E-01
RMM:   5    -0.231701547537E+04    0.10040E-03   -0.17257E-04  3138   0.645E-03    0.260E-02
RMM:   6    -0.231701547410E+04    0.12736E-05   -0.29824E-05  2816   0.305E-03
  19 F= -.23375318E+04 E0= -.23375318E+04  d E =-.248363E-05  mag=     4.0000
       N       E                     dE             d eps       ncg     rms          rms(c)
DAV:   1    -0.231701600270E+04   -0.52732E-03   -0.63673E-01  4640   0.340E-01    0.299E-01
RMM:   2    -0.231701556950E+04    0.43320E-03   -0.46939E-03  4025   0.248E-02    0.227E-01
RMM:   3    -0.231701596821E+04   -0.39871E-03   -0.21138E-03  4711   0.173E-02    0.316E-01
RMM:   4    -0.231701520785E+04    0.76036E-03   -0.69791E-04  3959   0.107E-02    0.647E-02
RMM:   5    -0.231701519856E+04    0.92925E-05   -0.12371E-04  3081   0.556E-03    0.240E-02
RMM:   6    -0.231701519911E+04   -0.55188E-06   -0.19534E-05  2672   0.285E-03
  20 F= -.23375316E+04 E0= -.23375316E+04  d E =-.324896E-05  mag=     4.0000
       N       E                     dE             d eps       ncg     rms          rms(c)
DAV:   1    -0.231701442519E+04    0.77337E-03   -0.12456E+00  4560   0.448E-01    0.417E-01
RMM:   2    -0.231701434878E+04    0.76419E-04   -0.70886E-03  4375   0.323E-02    0.351E-01
RMM:   3    -0.231701470714E+04   -0.35837E-03   -0.35712E-03  4945   0.228E-02    0.400E-01
RMM:   4    -0.231701356630E+04    0.11408E-02   -0.12028E-03  4138   0.143E-02    0.785E-02
RMM:   5    -0.231701356458E+04    0.17245E-05   -0.20806E-04  3211   0.739E-03    0.241E-02
RMM:   6    -0.231701356796E+04   -0.33791E-05   -0.25028E-05  2858   0.328E-03
  21 F= -.23375301E+04 E0= -.23375301E+04  d E =-.239199E-05  mag=     4.0000
       N       E                     dE             d eps       ncg     rms          rms(c)
DAV:   1    -0.231705070304E+04   -0.37138E-01   -0.62369E-01  4720   0.322E-01    0.308E-01
RMM:   2    -0.231705024692E+04    0.45612E-03   -0.41111E-03  3769   0.246E-02    0.209E-01
RMM:   3    -0.231705085617E+04   -0.60926E-03   -0.21440E-03  5025   0.158E-02    0.337E-01
RMM:   4    -0.231704994668E+04    0.90950E-03   -0.89539E-04  3923   0.116E-02    0.476E-02
RMM:   5    -0.231704993139E+04    0.15285E-04   -0.10996E-04  2955   0.538E-03    0.187E-02
RMM:   6    -0.231704993365E+04   -0.22560E-05   -0.15290E-05  2655   0.240E-03
  22 F= -.23375668E+04 E0= -.23375668E+04  d E =-.255608E-05  mag=     4.0000
       N       E                     dE             d eps       ncg     rms          rms(c)
DAV:   1    -0.231696298682E+04    0.86945E-01   -0.13515E+00  4960   0.476E-01    0.600E-01
RMM:   2    -0.231695786604E+04    0.51208E-02   -0.18876E-02  4191   0.481E-02    0.314E-01
RMM:   3    -0.231695710721E+04    0.75883E-03   -0.33610E-03  4423   0.292E-02    0.186E-01
RMM:   4    -0.231695750553E+04   -0.39833E-03   -0.18989E-03  4776   0.158E-02    0.285E-01
RMM:   5    -0.231695686281E+04    0.64273E-03   -0.62302E-04  3628   0.109E-02    0.394E-02
RMM:   6    -0.231695685916E+04    0.36456E-05   -0.80788E-05  2944   0.397E-03
  23 F= -.23374730E+04 E0= -.23374730E+04  d E =-.298065E-05  mag=     4.0000
       N       E                     dE             d eps       ncg     rms          rms(c)
DAV:   1    -0.231699397797E+04   -0.37115E-01   -0.64736E-01  4560   0.322E-01    0.284E-01
RMM:   2    -0.231699377150E+04    0.20647E-03   -0.24843E-03  3540   0.197E-02    0.167E-01
RMM:   3    -0.231699368815E+04    0.83349E-04   -0.84117E-04  3878   0.111E-02    0.617E-02
RMM:   4    -0.231699369292E+04   -0.47735E-05   -0.15343E-04  2846   0.713E-03    0.568E-02
RMM:   5    -0.231699366689E+04    0.26034E-04   -0.39745E-05  2620   0.334E-03    0.177E-02
RMM:   6    -0.231699366437E+04    0.25161E-05   -0.45256E-06  2375   0.170E-03
  24 F= -.23375103E+04 E0= -.23375103E+04  d E =-.275534E-05  mag=     4.0000
       N       E                     dE             d eps       ncg     rms          rms(c)
DAV:   1    -0.231702773143E+04   -0.34065E-01   -0.13123E+00  4800   0.463E-01    0.534E-01
RMM:   2    -0.231702422200E+04    0.35094E-02   -0.16527E-02  4124   0.437E-02    0.288E-01
RMM:   3    -0.231702431179E+04   -0.89787E-04   -0.37911E-03  4607   0.279E-02    0.343E-01
RMM:   4    -0.231702358210E+04    0.72969E-03   -0.18620E-03  4739   0.161E-02    0.184E-01
RMM:   5    -0.231702334502E+04    0.23708E-03   -0.32987E-04  3496   0.868E-03    0.360E-02
RMM:   6    -0.231702334761E+04   -0.25839E-05   -0.57174E-05  2855   0.391E-03
  25 F= -.23375397E+04 E0= -.23375397E+04  d E =-.272908E-05  mag=     4.0000
       N       E                     dE             d eps       ncg     rms          rms(c)
DAV:   1    -0.231701639691E+04    0.69481E-02   -0.64119E-01  4800   0.329E-01    0.347E-01
RMM:   2    -0.231701505232E+04    0.13446E-02   -0.76203E-03  3943   0.297E-02    0.180E-01
RMM:   3    -0.231701474856E+04    0.30376E-03   -0.10020E-03  4026   0.158E-02    0.808E-02
RMM:   4    -0.231701485856E+04   -0.10999E-03   -0.41265E-04  3820   0.842E-03    0.129E-01
RMM:   5    -0.231701472568E+04    0.13288E-03   -0.13448E-04  2943   0.612E-03    0.226E-02
RMM:   6    -0.231701472353E+04    0.21489E-05   -0.12221E-05  2594   0.236E-03
  26 F= -.23375316E+04 E0= -.23375316E+04  d E =-.248502E-05  mag=     4.0000
       N       E                     dE             d eps       ncg     rms          rms(c)
DAV:   1    -0.231700929140E+04    0.54343E-02   -0.12749E+00  4480   0.430E-01    0.459E-01
RMM:   2    -0.231700747458E+04    0.18168E-02   -0.95013E-03  4268   0.338E-02    0.251E-01
RMM:   3    -0.231700731931E+04    0.15527E-03   -0.19600E-03  4586   0.213E-02    0.217E-01
RMM:   4    -0.231700713946E+04    0.17986E-03   -0.10728E-03  4201   0.123E-02    0.159E-01
RMM:   5    -0.231700695431E+04    0.18515E-03   -0.20546E-04  3405   0.723E-03    0.250E-02
RMM:   6    -0.231700695542E+04   -0.11093E-05   -0.25109E-05  2899   0.334E-03
  27 F= -.23375230E+04 E0= -.23375230E+04  d E =-.309578E-05  mag=     4.0000
       N       E                     dE             d eps       ncg     rms          rms(c)
DAV:   1    -0.231700059810E+04    0.63562E-02   -0.62877E-01  4480   0.302E-01    0.292E-01
RMM:   2    -0.231700025058E+04    0.34751E-03   -0.26993E-03  3867   0.200E-02    0.170E-01
RMM:   3    -0.231700021612E+04    0.34466E-04   -0.78599E-04  3845   0.128E-02    0.127E-01
RMM:   4    -0.231700018049E+04    0.35628E-04   -0.39271E-04  3321   0.787E-03    0.945E-02
RMM:   5    -0.231700011006E+04    0.70434E-04   -0.67772E-05  2956   0.481E-03    0.135E-02
RMM:   6    -0.231700010891E+04    0.11468E-05   -0.84916E-06  2657   0.202E-03
  28 F= -.23375161E+04 E0= -.23375161E+04  d E =-.219549E-05  mag=     4.0000
       N       E                     dE             d eps       ncg     rms          rms(c)
DAV:   1    -0.231701693328E+04   -0.16823E-01   -0.13163E+00  4960   0.447E-01    0.580E-01
RMM:   2    -0.231701226004E+04    0.46732E-02   -0.18901E-02  4352   0.465E-02    0.314E-01
RMM:   3    -0.231701265441E+04   -0.39437E-03   -0.46207E-03  4790   0.319E-02    0.424E-01
RMM:   4    -0.231701136996E+04    0.12844E-02   -0.22264E-03  4801   0.176E-02    0.164E-01
RMM:   5    -0.231701117064E+04    0.19932E-03   -0.38541E-04  3712   0.889E-03    0.376E-02
RMM:   6    -0.231701117314E+04   -0.24995E-05   -0.50675E-05  2997   0.409E-03
  29 F= -.23375281E+04 E0= -.23375281E+04  d E =-.344656E-05  mag=     4.0000
       N       E                     dE             d eps       ncg     rms          rms(c)
DAV:   1    -0.231701579944E+04   -0.46288E-02   -0.62643E-01  4480   0.305E-01    0.271E-01
RMM:   2    -0.231701559102E+04    0.20842E-03   -0.27921E-03  3891   0.209E-02    0.179E-01
RMM:   3    -0.231701619057E+04   -0.59956E-03   -0.17128E-03  4686   0.145E-02    0.312E-01
RMM:   4    -0.231701540913E+04    0.78145E-03   -0.69333E-04  3907   0.106E-02    0.336E-02
RMM:   5    -0.231701541189E+04   -0.27670E-05   -0.90166E-05  2967   0.454E-03
  30 F= -.23375323E+04 E0= -.23375323E+04  d E =-.320743E-05  mag=     4.0000
       N       E                     dE             d eps       ncg     rms          rms(c)
DAV:   1    -0.231700962287E+04    0.57863E-02   -0.12599E+00  4480   0.423E-01    0.415E-01
RMM:   2    -0.231700838684E+04    0.12360E-02   -0.75502E-03  4196   0.302E-02    0.243E-01
RMM:   3    -0.231700900063E+04   -0.61379E-03   -0.27703E-03  4663   0.229E-02    0.354E-01
RMM:   4    -0.231700810755E+04    0.89308E-03   -0.12233E-03  4247   0.131E-02    0.972E-02
RMM:   5    -0.231700804801E+04    0.59547E-04   -0.18458E-04  3261   0.672E-03    0.281E-02
RMM:   6    -0.231700805261E+04   -0.46046E-05   -0.29324E-05  2898   0.320E-03
  31 F= -.23375241E+04 E0= -.23375241E+04  d E =-.250354E-05  mag=     4.0000
       N       E                     dE             d eps       ncg     rms          rms(c)
DAV:   1    -0.231701366341E+04   -0.56154E-02   -0.59464E-01  4480   0.314E-01    0.287E-01
RMM:   2    -0.231701345424E+04    0.20917E-03   -0.41896E-03  3948   0.250E-02    0.154E-01
RMM:   3    -0.231701353029E+04   -0.76049E-04   -0.87190E-04  3993   0.143E-02    0.190E-01
RMM:   4    -0.231701333349E+04    0.19680E-03   -0.71936E-04  3897   0.979E-03    0.112E-01
RMM:   5    -0.231701325774E+04    0.75756E-04   -0.11357E-04  3041   0.595E-03    0.333E-02
RMM:   6    -0.231701325393E+04    0.38018E-05   -0.22688E-05  2823   0.332E-03
  32 F= -.23375302E+04 E0= -.23375302E+04  d E =-.143413E-05  mag=     4.0000
       N       E                     dE             d eps       ncg     rms          rms(c)
DAV:   1    -0.231701260120E+04    0.65654E-03   -0.11193E+00  4480   0.419E-01    0.404E-01
RMM:   2    -0.231701347656E+04   -0.87536E-03   -0.89637E-03  4414   0.365E-02    0.295E-01
RMM:   3    -0.231701394462E+04   -0.46806E-03   -0.32256E-03  4843   0.231E-02    0.394E-01
RMM:   4    -0.231701270604E+04    0.12386E-02   -0.14311E-03  4797   0.142E-02    0.866E-02
RMM:   5    -0.231701270584E+04    0.20029E-06   -0.45082E-04  3861   0.828E-03    0.702E-02
RMM:   6    -0.231701268930E+04    0.16534E-04   -0.56214E-05  2964   0.527E-03    0.135E-02
RMM:   7    -0.231701269553E+04   -0.62263E-05   -0.18127E-05  2894   0.306E-03
  33 F= -.23375287E+04 E0= -.23375287E+04  d E =-.496435E-05  mag=     4.0000
       N       E                     dE             d eps       ncg     rms          rms(c)
DAV:   1    -0.231701104912E+04    0.16402E-02   -0.54863E-01  4560   0.304E-01    0.283E-01
RMM:   2    -0.231701262108E+04   -0.15720E-02   -0.70320E-03  4445   0.330E-02    0.410E-01
RMM:   3    -0.231701138549E+04    0.12356E-02   -0.22535E-03  4799   0.188E-02    0.192E-01
RMM:   4    -0.231701112780E+04    0.25769E-03   -0.30517E-04  3664   0.773E-03    0.623E-02
RMM:   5    -0.231701111055E+04    0.17253E-04   -0.18292E-04  3363   0.577E-03    0.408E-02
RMM:   6    -0.231701110312E+04    0.74271E-05   -0.24474E-05  2876   0.415E-03
  34 F= -.23375282E+04 E0= -.23375282E+04  d E =-.269711E-05  mag=     4.0000
       N       E                     dE             d eps       ncg     rms          rms(c)
DAV:   1    -0.231701643730E+04   -0.53268E-02   -0.10612E+00  4480   0.419E-01    0.291E-01
RMM:   2    -0.231701893270E+04   -0.24954E-02   -0.89879E-03  4535   0.376E-02    0.561E-01
RMM:   3    -0.231701628489E+04    0.26478E-02   -0.20824E-03  4934   0.194E-02    0.133E-01
RMM:   4    -0.231701623027E+04    0.54625E-04   -0.52557E-04  3790   0.864E-03    0.834E-02
RMM:   5    -0.231701619520E+04    0.35061E-04   -0.14232E-04  3247   0.647E-03    0.227E-02
RMM:   6    -0.231701619715E+04   -0.19452E-05   -0.25620E-05  2928   0.360E-03
  35 F= -.23375321E+04 E0= -.23375321E+04  d E =-.285059E-05  mag=     4.0000
       N       E                     dE             d eps       ncg     rms          rms(c)
DAV:   1    -0.231698549540E+04    0.30700E-01   -0.52618E-01  4480   0.299E-01    0.255E-01
RMM:   2    -0.231698581353E+04   -0.31814E-03   -0.49047E-03  4425   0.273E-02    0.311E-01
RMM:   3    -0.231698511701E+04    0.69652E-03   -0.12998E-03  4490   0.157E-02    0.172E-01
RMM:   4    -0.231698491215E+04    0.20486E-03   -0.47461E-04  4015   0.903E-03    0.720E-02
RMM:   5    -0.231698488192E+04    0.30232E-04   -0.14455E-04  3139   0.639E-03    0.282E-02
RMM:   6    -0.231698488406E+04   -0.21455E-05   -0.24302E-05  2923   0.364E-03
  36 F= -.23375020E+04 E0= -.23375020E+04  d E =-.694950E-05  mag=     4.0000
       N       E                     dE             d eps       ncg     rms          rms(c)
DAV:   1    -0.231704813390E+04   -0.63252E-01   -0.10726E+00  4480   0.412E-01    0.356E-01
RMM:   2    -0.231704794033E+04    0.19357E-03   -0.64943E-03  4110   0.307E-02    0.197E-01
RMM:   3    -0.231704752055E+04    0.41978E-03   -0.13585E-03  4568   0.194E-02    0.104E-01
RMM:   4    -0.231704760342E+04   -0.82873E-04   -0.61473E-04  4411   0.101E-02    0.136E-01
RMM:   5    -0.231704747434E+04    0.12908E-03   -0.22937E-04  3134   0.713E-03    0.397E-02
RMM:   6    -0.231704747262E+04    0.17225E-05   -0.33267E-05  2917   0.388E-03
  37 F= -.23375633E+04 E0= -.23375633E+04  d E =-.106699E-05  mag=     4.0000
