       N       E                     dE             d eps       ncg     rms          rms(c)
DAV:   1     0.120926097213E+05    0.12093E+05   -0.83112E+05  4640   0.140E+03
DAV:   2    -0.129939554796E+04   -0.13392E+05   -0.12888E+05  5120   0.318E+02
DAV:   3    -0.249346864879E+04   -0.11941E+04   -0.11846E+04  5520   0.101E+02
DAV:   4    -0.251860668384E+04   -0.25138E+02   -0.25025E+02  5760   0.176E+01
DAV:   5    -0.251923024848E+04   -0.62356E+00   -0.62255E+00  5760   0.245E+00    0.170E+02
RMM:   6    -0.147899637026E+04    0.10402E+04   -0.18947E+03  4493   0.375E+01    0.723E+01
RMM:   7    -0.163981324688E+04   -0.16082E+03   -0.27109E+02  5045   0.135E+01    0.487E+01
RMM:   8    -0.170194340628E+04   -0.62130E+02   -0.38714E+01  5101   0.668E+00    0.354E+01
RMM:   9    -0.184541180534E+04   -0.14347E+03   -0.72116E+01  4727   0.840E+00    0.257E+01
RMM:  10    -0.195474292356E+04   -0.10933E+03   -0.42792E+01  4859   0.618E+00    0.263E+01
RMM:  11    -0.202517334235E+04   -0.70430E+02   -0.28066E+01  5053   0.431E+00    0.157E+01
RMM:  12    -0.212632306394E+04   -0.10115E+03   -0.50712E+01  4661   0.540E+00    0.120E+01
RMM:  13    -0.225556563295E+04   -0.12924E+03   -0.11276E+02  4506   0.740E+00    0.653E+00
RMM:  14    -0.229986583956E+04   -0.44300E+02   -0.45121E+01  4581   0.514E+00    0.537E+00
RMM:  15    -0.230821802400E+04   -0.83522E+01   -0.12276E+01  5018   0.258E+00    0.304E+00
RMM:  16    -0.231082899222E+04   -0.26110E+01   -0.33073E+00  4976   0.120E+00    0.179E+00
RMM:  17    -0.231233615670E+04   -0.15072E+01   -0.10827E+00  4752   0.716E-01    0.106E+00
RMM:  18    -0.231287939315E+04   -0.54324E+00   -0.28942E-01  5028   0.397E-01    0.474E-01
RMM:  19    -0.231298400391E+04   -0.10461E+00   -0.67372E-02  4737   0.210E-01    0.275E-01
RMM:  20    -0.231301182130E+04   -0.27817E-01   -0.16693E-02  4652   0.122E-01    0.162E-01
RMM:  21    -0.231303508506E+04   -0.23264E-01   -0.89906E-03  4521   0.801E-02    0.878E-02
RMM:  22    -0.231304931144E+04   -0.14226E-01   -0.51853E-03  4522   0.621E-02    0.605E-02
RMM:  23    -0.231305586519E+04   -0.65538E-02   -0.23325E-03  4642   0.434E-02    0.425E-02
RMM:  24    -0.231306181396E+04   -0.59488E-02   -0.22946E-03  4493   0.358E-02    0.263E-02
RMM:  25    -0.231306344300E+04   -0.16290E-02   -0.80563E-04  4214   0.293E-02    0.146E-02
RMM:  26    -0.231306407491E+04   -0.63191E-03   -0.34371E-04  3995   0.151E-02    0.117E-02
RMM:  27    -0.231306425029E+04   -0.17538E-03   -0.10102E-04  3722   0.118E-02    0.724E-03
RMM:  28    -0.231306441961E+04   -0.16932E-03   -0.56652E-05  3622   0.631E-03    0.359E-03
RMM:  29    -0.231306448770E+04   -0.68090E-04   -0.29634E-05  3302   0.555E-03    0.233E-03
RMM:  30    -0.231306451170E+04   -0.24001E-04   -0.10638E-05  2984   0.345E-03    0.120E-03
RMM:  31    -0.231306452102E+04   -0.93251E-05   -0.51206E-06  2641   0.249E-03
   1 F= -.23335241E+04 E0= -.23335241E+04  d E =-.139397E-14  mag=     2.9999
       N       E                     dE             d eps       ncg     rms          rms(c)
DAV:   1    -0.231305759211E+04    0.69196E-02   -0.21421E+00  4480   0.739E-01    0.348E-01
RMM:   2    -0.231305735954E+04    0.23257E-03   -0.11959E-02  4005   0.463E-02    0.320E-01
RMM:   3    -0.231305797219E+04   -0.61266E-03   -0.35608E-03  4976   0.240E-02    0.470E-01
RMM:   4    -0.231305619644E+04    0.17758E-02   -0.19897E-03  4368   0.168E-02    0.626E-02
RMM:   5    -0.231305617567E+04    0.20777E-04   -0.39102E-04  3460   0.114E-02    0.318E-02
RMM:   6    -0.231305616770E+04    0.79699E-05   -0.37185E-05  3049   0.369E-03
   2 F= -.23335157E+04 E0= -.23335157E+04  d E =-.167497E-16  mag=     3.0000
       N       E                     dE             d eps       ncg     rms          rms(c)
DAV:   1    -0.231304613458E+04    0.10041E-01   -0.85245E+00  4480   0.146E+00    0.707E-01
RMM:   2    -0.231304393921E+04    0.21954E-02   -0.41452E-02  4286   0.924E-02    0.668E-01
RMM:   3    -0.231304608332E+04   -0.21441E-02   -0.14065E-02  5591   0.503E-02    0.945E-01
RMM:   4    -0.231303903261E+04    0.70507E-02   -0.77346E-03  4769   0.332E-02    0.126E-01
RMM:   5    -0.231303894502E+04    0.87593E-04   -0.15416E-03  3952   0.230E-02    0.626E-02
RMM:   6    -0.231303892374E+04    0.21273E-04   -0.16099E-04  3573   0.639E-03    0.236E-02
RMM:   7    -0.231303892029E+04    0.34520E-05   -0.27540E-05  3129   0.437E-03
   3 F= -.23334985E+04 E0= -.23334985E+04  d E =-.619379E-17  mag=     3.0000
       N       E                     dE             d eps       ncg     rms          rms(c)
DAV:   1    -0.231304109905E+04   -0.21753E-02   -0.43292E+00  4480   0.108E+00    0.490E-01
RMM:   2    -0.231303922954E+04    0.18695E-02   -0.18020E-02  3998   0.594E-02    0.363E-01
RMM:   3    -0.231304171036E+04   -0.24808E-02   -0.66526E-03  5345   0.332E-02    0.730E-01
RMM:   4    -0.231303751032E+04    0.42000E-02   -0.44150E-03  4804   0.247E-02    0.839E-02
RMM:   5    -0.231303746782E+04    0.42497E-04   -0.57314E-04  3545   0.134E-02    0.409E-02
RMM:   6    -0.231303744871E+04    0.19106E-04   -0.45176E-05  3119   0.433E-03    0.140E-02
RMM:   7    -0.231303744816E+04    0.55424E-06   -0.16237E-05  2915   0.267E-03
   4 F= -.23334970E+04 E0= -.23334970E+04  d E =-.275913E-16  mag=     3.0000
       N       E                     dE             d eps       ncg     rms          rms(c)
DAV:   1    -0.231305561400E+04   -0.18165E-01   -0.86278E+00  4480   0.147E+00    0.643E-01
RMM:   2    -0.231305128017E+04    0.43338E-02   -0.29210E-02  3901   0.761E-02    0.364E-01
RMM:   3    -0.231305166884E+04   -0.38867E-03   -0.13703E-02  5247   0.466E-02    0.575E-01
RMM:   4    -0.231304902091E+04    0.26479E-02   -0.24831E-03  4700   0.222E-02    0.847E-02
RMM:   5    -0.231304900295E+04    0.17958E-04   -0.33894E-04  3359   0.695E-03    0.365E-02
RMM:   6    -0.231304898015E+04    0.22799E-04   -0.75120E-05  3182   0.475E-03    0.196E-02
RMM:   7    -0.231304897777E+04    0.23789E-05   -0.23509E-05  3018   0.333E-03
   5 F= -.23335086E+04 E0= -.23335086E+04  d E =-.280915E-15  mag=     3.0000
       N       E                     dE             d eps       ncg     rms          rms(c)
DAV:   1    -0.231305749626E+04   -0.85161E-02   -0.41523E+00  4640   0.103E+00    0.435E-01
RMM:   2    -0.231305631477E+04    0.11815E-02   -0.16351E-02  3964   0.560E-02    0.330E-01
RMM:   3    -0.231305804768E+04   -0.17329E-02   -0.53265E-03  5248   0.279E-02    0.628E-01
RMM:   4    -0.231305493291E+04    0.31148E-02   -0.29041E-03  4719   0.213E-02    0.902E-02
RMM:   5    -0.231305486488E+04    0.68034E-04   -0.54557E-04  3746   0.109E-02    0.317E-02
RMM:   6    -0.231305485606E+04    0.88145E-05   -0.50225E-05  2993   0.402E-03
   6 F= -.23335141E+04 E0= -.23335141E+04  d E =-.414557E-14  mag=     3.0000
       N       E                     dE             d eps       ncg     rms          rms(c)
DAV:   1    -0.231306601724E+04   -0.11152E-01   -0.80446E+00  4480   0.136E+00    0.632E-01
RMM:   2    -0.231306210499E+04    0.39123E-02   -0.32166E-02  4360   0.782E-02    0.465E-01
RMM:   3    -0.231306546065E+04   -0.33557E-02   -0.10550E-02  5285   0.445E-02    0.862E-01
RMM:   4    -0.231305966891E+04    0.57917E-02   -0.54012E-03  5227   0.297E-02    0.181E-01
RMM:   5    -0.231305934717E+04    0.32174E-03   -0.10388E-03  4339   0.144E-02    0.473E-02
RMM:   6    -0.231305936063E+04   -0.13464E-04   -0.11383E-04  3136   0.553E-03    0.283E-02
RMM:   7    -0.231305936373E+04   -0.30972E-05   -0.24494E-05  2990   0.332E-03
   7 F= -.23335194E+04 E0= -.23335194E+04  d E =-.810194E-16  mag=     3.0000
       N       E                     dE             d eps       ncg     rms          rms(c)
DAV:   1    -0.231305029103E+04    0.90696E-02   -0.40111E+00  4480   0.866E-01    0.398E-01
RMM:   2    -0.231305289348E+04   -0.26025E-02   -0.23572E-02  4550   0.606E-02    0.633E-01
RMM:   3    -0.231304982815E+04    0.30653E-02   -0.40738E-03  4829   0.300E-02    0.256E-01
RMM:   4    -0.231304920064E+04    0.62751E-03   -0.19262E-03  4533   0.173E-02    0.112E-01
RMM:   5    -0.231304913995E+04    0.60689E-04   -0.60442E-04  3986   0.120E-02    0.856E-02
RMM:   6    -0.231304909575E+04    0.44196E-04   -0.81441E-05  3068   0.510E-03    0.230E-02
RMM:   7    -0.231304909552E+04    0.23561E-06   -0.23461E-05  2919   0.319E-03
   8 F= -.23335087E+04 E0= -.23335087E+04  d E =-.270869E-12  mag=     3.0000
       N       E                     dE             d eps       ncg     rms          rms(c)
DAV:   1    -0.231305886303E+04   -0.97673E-02   -0.79968E+00  4480   0.856E-01    0.532E-01
RMM:   2    -0.231306434327E+04   -0.54802E-02   -0.46221E-02  4339   0.694E-02    0.757E-01
RMM:   3    -0.231306032748E+04    0.40158E-02   -0.76518E-03  4988   0.382E-02    0.403E-01
RMM:   4    -0.231305913368E+04    0.11938E-02   -0.21059E-03  4458   0.195E-02    0.153E-01
RMM:   5    -0.231305909977E+04    0.33909E-04   -0.76498E-04  3895   0.141E-02    0.726E-02
RMM:   6    -0.231305909662E+04    0.31523E-05   -0.12653E-04  3104   0.588E-03    0.270E-02
RMM:   7    -0.231305910317E+04   -0.65522E-05   -0.32892E-05  2991   0.394E-03
   9 F= -.23335186E+04 E0= -.23335186E+04  d E =-.199367E-12  mag=     3.0000
       N       E                     dE             d eps       ncg     rms          rms(c)
DAV:   1    -0.231306124563E+04   -0.21490E-02   -0.38918E+00  4480   0.598E-01    0.365E-01
RMM:   2    -0.231306248255E+04   -0.12369E-02   -0.20604E-02  4264   0.473E-02    0.378E-01
RMM:   3    -0.231306242782E+04    0.54730E-04   -0.40717E-03  4963   0.258E-02    0.448E-01
RMM:   4    -0.231306090460E+04    0.15232E-02   -0.13419E-03  4283   0.152E-02    0.997E-02
RMM:   5    -0.231306090569E+04   -0.10871E-05   -0.39977E-04  3400   0.855E-03    0.423E-02
RMM:   6    -0.231306090559E+04    0.93904E-07   -0.49189E-05  2957   0.473E-03
  10 F= -.23335206E+04 E0= -.23335206E+04  d E =-.810443E-14  mag=     3.0000
       N       E                     dE             d eps       ncg     rms          rms(c)
DAV:   1    -0.231306611787E+04   -0.52122E-02   -0.72255E+00  4480   0.792E-01    0.473E-01
RMM:   2    -0.231306678645E+04   -0.66858E-03   -0.28536E-02  4150   0.518E-02    0.243E-01
RMM:   3    -0.231306703347E+04   -0.24702E-03   -0.42446E-03  4872   0.294E-02    0.380E-01
RMM:   4    -0.231306626532E+04    0.76815E-03   -0.19388E-03  4430   0.156E-02    0.208E-01
RMM:   5    -0.231306604884E+04    0.21648E-03   -0.39332E-04  3570   0.913E-03    0.425E-02
RMM:   6    -0.231306606037E+04   -0.11526E-04   -0.66020E-05  2951   0.486E-03    0.227E-02
RMM:   7    -0.231306606401E+04   -0.36467E-05   -0.16374E-05  2897   0.277E-03
  11 F= -.23335255E+04 E0= -.23335255E+04  d E =-.370361E-15  mag=     3.0000
       N       E                     dE             d eps       ncg     rms          rms(c)
DAV:   1    -0.231306272731E+04    0.33331E-02   -0.37479E+00  4480   0.617E-01    0.425E-01
RMM:   2    -0.231306551909E+04   -0.27918E-02   -0.19690E-02  4707   0.491E-02    0.512E-01
RMM:   3    -0.231306432016E+04    0.11989E-02   -0.48978E-03  4459   0.314E-02    0.381E-01
RMM:   4    -0.231306323511E+04    0.10851E-02   -0.11901E-03  4103   0.147E-02    0.117E-01
RMM:   5    -0.231306319185E+04    0.43253E-04   -0.44172E-04  3710   0.925E-03    0.516E-02
RMM:   6    -0.231306318121E+04    0.10639E-04   -0.55918E-05  2956   0.465E-03    0.218E-02
RMM:   7    -0.231306318026E+04    0.95420E-06   -0.16599E-05  2856   0.283E-03
  12 F= -.23335240E+04 E0= -.23335240E+04  d E =-.127112E-14  mag=     3.0000
       N       E                     dE             d eps       ncg     rms          rms(c)
DAV:   1    -0.231305286158E+04    0.10320E-01   -0.78390E+00  4480   0.973E-01    0.688E-01
RMM:   2    -0.231306639336E+04   -0.13532E-01   -0.48335E-02  4759   0.789E-02    0.120E+00
RMM:   3    -0.231305552538E+04    0.10868E-01   -0.93278E-03  4809   0.449E-02    0.363E-01
RMM:   4    -0.231305468282E+04    0.84256E-03   -0.34341E-03  4794   0.208E-02    0.228E-01
RMM:   5    -0.231305436214E+04    0.32068E-03   -0.10260E-03  4318   0.149E-02    0.955E-02
RMM:   6    -0.231305432424E+04    0.37901E-04   -0.17598E-04  3225   0.684E-03    0.313E-02
RMM:   7    -0.231305432812E+04   -0.38760E-05   -0.37358E-05  3010   0.409E-03
  13 F= -.23335128E+04 E0= -.23335128E+04  d E =-.318935E-14  mag=     3.0000
       N       E                     dE             d eps       ncg     rms          rms(c)
DAV:   1    -0.231306749117E+04   -0.13167E-01   -0.22980E+00  4480   0.568E-01    0.457E-01
RMM:   2    -0.231306954627E+04   -0.20551E-02   -0.22409E-02  4735   0.524E-02    0.583E-01
RMM:   3    -0.231306785534E+04    0.16909E-02   -0.58250E-03  4589   0.342E-02    0.418E-01
RMM:   4    -0.231306655090E+04    0.13044E-02   -0.14493E-03  4213   0.159E-02    0.126E-01
RMM:   5    -0.231306645491E+04    0.95995E-04   -0.49783E-04  3860   0.973E-03    0.502E-02
RMM:   6    -0.231306644314E+04    0.11767E-04   -0.67245E-05  3019   0.483E-03    0.170E-02
RMM:   7    -0.231306644304E+04    0.10335E-06   -0.14266E-05  2804   0.295E-03
  14 F= -.23335256E+04 E0= -.23335256E+04  d E =-.551681E-15  mag=     3.0000
       N       E                     dE             d eps       ncg     rms          rms(c)
DAV:   1    -0.231305649021E+04    0.99529E-02   -0.12223E+00  5040   0.468E-01    0.520E-01
RMM:   2    -0.231305261592E+04    0.38743E-02   -0.19169E-02  4437   0.485E-02    0.282E-01
RMM:   3    -0.231305345262E+04   -0.83671E-03   -0.45437E-03  4451   0.335E-02    0.504E-01
RMM:   4    -0.231305178446E+04    0.16682E-02   -0.21181E-03  4779   0.175E-02    0.207E-01
RMM:   5    -0.231305144347E+04    0.34099E-03   -0.46354E-04  3625   0.965E-03    0.447E-02
RMM:   6    -0.231305142975E+04    0.13718E-04   -0.84190E-05  3181   0.469E-03    0.113E-02
RMM:   7    -0.231305142855E+04    0.12006E-05   -0.10897E-05  2718   0.263E-03
  15 F= -.23335114E+04 E0= -.23335114E+04  d E =-.507557E-14  mag=     3.0000
       N       E                     dE             d eps       ncg     rms          rms(c)
DAV:   1    -0.231305870158E+04   -0.72718E-02   -0.59878E-01  4640   0.330E-01    0.258E-01
RMM:   2    -0.231305825819E+04    0.44339E-03   -0.38508E-03  4064   0.237E-02    0.165E-01
RMM:   3    -0.231305903669E+04   -0.77850E-03   -0.15374E-03  4054   0.165E-02    0.358E-01
RMM:   4    -0.231305809814E+04    0.93855E-03   -0.66289E-04  3986   0.107E-02    0.711E-02
RMM:   5    -0.231305806561E+04    0.32532E-04   -0.12200E-04  3009   0.534E-03    0.189E-02
RMM:   6    -0.231305806395E+04    0.16570E-05   -0.14785E-05  2636   0.267E-03
  16 F= -.23335177E+04 E0= -.23335177E+04  d E =-.238060E-14  mag=     3.0000
       N       E                     dE             d eps       ncg     rms          rms(c)
DAV:   1    -0.231306787083E+04   -0.98052E-02   -0.11872E+00  4720   0.470E-01    0.309E-01
RMM:   2    -0.231306774509E+04    0.12574E-03   -0.36930E-03  3782   0.253E-02    0.183E-01
RMM:   3    -0.231306805630E+04   -0.31121E-03   -0.12031E-03  4361   0.149E-02    0.222E-01
RMM:   4    -0.231306774596E+04    0.31034E-03   -0.47110E-04  3463   0.924E-03    0.956E-02
RMM:   5    -0.231306768230E+04    0.63659E-04   -0.86645E-05  2968   0.490E-03    0.143E-02
RMM:   6    -0.231306767898E+04    0.33261E-05   -0.10583E-05  2597   0.240E-03
  17 F= -.23335271E+04 E0= -.23335271E+04  d E =-.207968E-14  mag=     3.0000
       N       E                     dE             d eps       ncg     rms          rms(c)
DAV:   1    -0.231305380399E+04    0.13878E-01   -0.60554E-01  4880   0.325E-01    0.267E-01
RMM:   2    -0.231305353489E+04    0.26910E-03   -0.33690E-03  3633   0.233E-02    0.163E-01
RMM:   3    -0.231305437766E+04   -0.84277E-03   -0.15726E-03  4576   0.154E-02    0.371E-01
RMM:   4    -0.231305336561E+04    0.10120E-02   -0.79180E-04  3886   0.112E-02    0.476E-02
RMM:   5    -0.231305335155E+04    0.14065E-04   -0.89543E-05  2938   0.418E-03    0.161E-02
RMM:   6    -0.231305335093E+04    0.62084E-06   -0.11559E-05  2544   0.248E-03
  18 F= -.23335128E+04 E0= -.23335128E+04  d E =-.634268E-14  mag=     3.0000
       N       E                     dE             d eps       ncg     rms          rms(c)
DAV:   1    -0.231306485458E+04   -0.11503E-01   -0.12152E+00  4960   0.460E-01    0.481E-01
RMM:   2    -0.231306263681E+04    0.22178E-02   -0.13561E-02  4041   0.453E-02    0.297E-01
RMM:   3    -0.231306558685E+04   -0.29500E-02   -0.57231E-03  5394   0.289E-02    0.705E-01
RMM:   4    -0.231306175894E+04    0.38279E-02   -0.26011E-03  4757   0.200E-02    0.853E-02
RMM:   5    -0.231306170691E+04    0.52030E-04   -0.40293E-04  3320   0.731E-03    0.285E-02
RMM:   6    -0.231306170501E+04    0.18952E-05   -0.33279E-05  2884   0.410E-03
  19 F= -.23335214E+04 E0= -.23335214E+04  d E =-.969771E-15  mag=     3.0000
       N       E                     dE             d eps       ncg     rms          rms(c)
DAV:   1    -0.231306042092E+04    0.12860E-02   -0.60766E-01  5040   0.374E-01    0.318E-01
RMM:   2    -0.231306002747E+04    0.39345E-03   -0.44195E-03  3677   0.311E-02    0.190E-01
RMM:   3    -0.231306023184E+04   -0.20437E-03   -0.14274E-03  4482   0.157E-02    0.270E-01
RMM:   4    -0.231305977775E+04    0.45410E-03   -0.72716E-04  3664   0.110E-02    0.114E-01
RMM:   5    -0.231305966118E+04    0.11657E-03   -0.11545E-04  2953   0.535E-03    0.126E-02
RMM:   6    -0.231305965811E+04    0.30698E-05   -0.18481E-05  2625   0.241E-03
  20 F= -.23335196E+04 E0= -.23335196E+04  d E =-.277550E-14  mag=     3.0000
       N       E                     dE             d eps       ncg     rms          rms(c)
DAV:   1    -0.231305868333E+04    0.97785E-03   -0.12777E+00  4720   0.513E-01    0.506E-01
RMM:   2    -0.231305550030E+04    0.31830E-02   -0.12753E-02  4099   0.442E-02    0.269E-01
RMM:   3    -0.231305541790E+04    0.82403E-04   -0.34353E-03  4599   0.280E-02    0.267E-01
RMM:   4    -0.231305539756E+04    0.20340E-04   -0.15478E-03  4506   0.155E-02    0.271E-01
RMM:   5    -0.231305482237E+04    0.57519E-03   -0.49785E-04  3565   0.920E-03    0.445E-02
RMM:   6    -0.231305480421E+04    0.18161E-04   -0.82890E-05  3192   0.422E-03    0.196E-02
RMM:   7    -0.231305480136E+04    0.28421E-05   -0.10416E-05  2633   0.283E-03
  21 F= -.23335140E+04 E0= -.23335140E+04  d E =-.422817E-14  mag=     3.0000
       N       E                     dE             d eps       ncg     rms          rms(c)
DAV:   1    -0.231306163772E+04   -0.68335E-02   -0.66828E-01  5040   0.363E-01    0.460E-01
RMM:   2    -0.231305803608E+04    0.36016E-02   -0.12200E-02  4129   0.445E-02    0.235E-01
RMM:   3    -0.231305778446E+04    0.25162E-03   -0.28271E-03  4150   0.301E-02    0.223E-01
RMM:   4    -0.231305789136E+04   -0.10689E-03   -0.14392E-03  4395   0.153E-02    0.257E-01
RMM:   5    -0.231305737269E+04    0.51867E-03   -0.43295E-04  3580   0.883E-03    0.461E-02
RMM:   6    -0.231305734637E+04    0.26325E-04   -0.79108E-05  3147   0.413E-03    0.190E-02
RMM:   7    -0.231305734270E+04    0.36618E-05   -0.94516E-06  2568   0.259E-03
  22 F= -.23335174E+04 E0= -.23335174E+04  d E =-.367188E-14  mag=     3.0000
       N       E                     dE             d eps       ncg     rms          rms(c)
DAV:   1    -0.231305853552E+04   -0.11892E-02   -0.13049E+00  4960   0.516E-01    0.532E-01
RMM:   2    -0.231305460860E+04    0.39269E-02   -0.15132E-02  4185   0.486E-02    0.280E-01
RMM:   3    -0.231305413264E+04    0.47595E-03   -0.35306E-03  4259   0.335E-02    0.162E-01
RMM:   4    -0.231305446384E+04   -0.33119E-03   -0.15227E-03  4409   0.161E-02    0.269E-01
RMM:   5    -0.231305394336E+04    0.52047E-03   -0.55167E-04  3593   0.104E-02    0.765E-02
RMM:   6    -0.231305388680E+04    0.56562E-04   -0.94562E-05  3231   0.454E-03    0.222E-02
RMM:   7    -0.231305388297E+04    0.38366E-05   -0.14480E-05  2685   0.307E-03
  23 F= -.23335130E+04 E0= -.23335130E+04  d E =-.402085E-14  mag=     3.0000
       N       E                     dE             d eps       ncg     rms          rms(c)
DAV:   1    -0.231306066575E+04   -0.67790E-02   -0.63559E-01  4880   0.351E-01    0.314E-01
RMM:   2    -0.231305989304E+04    0.77272E-03   -0.53244E-03  3786   0.283E-02    0.175E-01
RMM:   3    -0.231305980206E+04    0.90978E-04   -0.11330E-03  4359   0.161E-02    0.142E-01
RMM:   4    -0.231305987316E+04   -0.71104E-04   -0.48486E-04  3623   0.900E-03    0.169E-01
RMM:   5    -0.231305966700E+04    0.20616E-03   -0.18615E-04  3204   0.619E-03    0.295E-02
RMM:   6    -0.231305965722E+04    0.97771E-05   -0.22258E-05  2721   0.288E-03
  24 F= -.23335194E+04 E0= -.23335194E+04  d E =-.592541E-14  mag=     3.0000
       N       E                     dE             d eps       ncg     rms          rms(c)
DAV:   1    -0.231306618689E+04   -0.65199E-02   -0.12351E+00  4560   0.490E-01    0.347E-01
RMM:   2    -0.231306637971E+04   -0.19282E-03   -0.52065E-03  3615   0.279E-02    0.206E-01
RMM:   3    -0.231306640026E+04   -0.20552E-04   -0.12126E-03  4561   0.148E-02    0.155E-01
RMM:   4    -0.231306639008E+04    0.10180E-04   -0.46670E-04  3324   0.926E-03    0.144E-01
RMM:   5    -0.231306623146E+04    0.15862E-03   -0.11098E-04  2956   0.550E-03    0.157E-02
RMM:   6    -0.231306622903E+04    0.24311E-05   -0.15638E-05  2734   0.239E-03
  25 F= -.23335256E+04 E0= -.23335256E+04  d E =-.299755E-14  mag=     3.0000
       N       E                     dE             d eps       ncg     rms          rms(c)
DAV:   1    -0.231305460743E+04    0.11624E-01   -0.61540E-01  4640   0.370E-01    0.264E-01
RMM:   2    -0.231305442836E+04    0.17907E-03   -0.35941E-03  3564   0.256E-02    0.157E-01
RMM:   3    -0.231305491457E+04   -0.48622E-03   -0.12831E-03  4557   0.147E-02    0.291E-01
RMM:   4    -0.231305427953E+04    0.63504E-03   -0.48334E-04  3515   0.914E-03    0.387E-02
RMM:   5    -0.231305427323E+04    0.63040E-05   -0.63364E-05  2884   0.362E-03
  26 F= -.23335141E+04 E0= -.23335141E+04  d E =-.379702E-14  mag=     3.0000
       N       E                     dE             d eps       ncg     rms          rms(c)
DAV:   1    -0.231306790355E+04   -0.13624E-01   -0.12343E+00  4720   0.506E-01    0.404E-01
RMM:   2    -0.231306661134E+04    0.12922E-02   -0.70544E-03  3919   0.340E-02    0.227E-01
RMM:   3    -0.231306710949E+04   -0.49815E-03   -0.23423E-03  4681   0.227E-02    0.329E-01
RMM:   4    -0.231306638459E+04    0.72490E-03   -0.86866E-04  4076   0.119E-02    0.112E-01
RMM:   5    -0.231306629427E+04    0.90315E-04   -0.18029E-04  3205   0.626E-03    0.273E-02
RMM:   6    -0.231306628614E+04    0.81323E-05   -0.34189E-05  2904   0.333E-03
  27 F= -.23335256E+04 E0= -.23335256E+04  d E =-.569958E-14  mag=     3.0000
       N       E                     dE             d eps       ncg     rms          rms(c)
DAV:   1    -0.231306361366E+04    0.26806E-02   -0.62403E-01  4800   0.345E-01    0.268E-01
RMM:   2    -0.231306325976E+04    0.35390E-03   -0.28898E-03  3762   0.222E-02    0.153E-01
RMM:   3    -0.231306322417E+04    0.35594E-04   -0.81731E-04  4152   0.130E-02    0.849E-02
RMM:   4    -0.231306330798E+04   -0.83809E-04   -0.28370E-04  3471   0.742E-03    0.136E-01
RMM:   5    -0.231306316970E+04    0.13828E-03   -0.11008E-04  2871   0.493E-03    0.222E-02
RMM:   6    -0.231306316408E+04    0.56218E-05   -0.14733E-05  2562   0.230E-03
  28 F= -.23335222E+04 E0= -.23335222E+04  d E =-.620167E-14  mag=     3.0000
       N       E                     dE             d eps       ncg     rms          rms(c)
DAV:   1    -0.231305015583E+04    0.13014E-01   -0.12766E+00  5120   0.508E-01    0.575E-01
RMM:   2    -0.231304497262E+04    0.51832E-02   -0.18909E-02  4189   0.552E-02    0.311E-01
RMM:   3    -0.231304657114E+04   -0.15985E-02   -0.61424E-03  5038   0.365E-02    0.577E-01
RMM:   4    -0.231304424220E+04    0.23289E-02   -0.26137E-03  4848   0.197E-02    0.186E-01
RMM:   5    -0.231304395872E+04    0.28348E-03   -0.54399E-04  3574   0.948E-03    0.500E-02
RMM:   6    -0.231304393020E+04    0.28521E-04   -0.10269E-04  3344   0.515E-03    0.224E-02
RMM:   7    -0.231304392587E+04    0.43291E-05   -0.15943E-05  2718   0.266E-03
  29 F= -.23335041E+04 E0= -.23335041E+04  d E =-.348677E-14  mag=     3.0000
       N       E                     dE             d eps       ncg     rms          rms(c)
DAV:   1    -0.231305843048E+04   -0.14500E-01   -0.62052E-01  4800   0.356E-01    0.327E-01
RMM:   2    -0.231305724304E+04    0.11874E-02   -0.55354E-03  3913   0.293E-02    0.198E-01
RMM:   3    -0.231305854413E+04   -0.13011E-02   -0.26111E-03  4669   0.221E-02    0.461E-01
RMM:   4    -0.231305696509E+04    0.15790E-02   -0.11774E-03  4248   0.140E-02    0.714E-02
RMM:   5    -0.231305692721E+04    0.37883E-04   -0.19877E-04  3073   0.607E-03    0.254E-02
RMM:   6    -0.231305692033E+04    0.68738E-05   -0.30337E-05  2812   0.311E-03
  30 F= -.23335166E+04 E0= -.23335166E+04  d E =-.619731E-14  mag=     3.0000
       N       E                     dE             d eps       ncg     rms          rms(c)
DAV:   1    -0.231306901730E+04   -0.12090E-01   -0.12144E+00  4480   0.486E-01    0.338E-01
RMM:   2    -0.231306901610E+04    0.12008E-05   -0.41454E-03  3585   0.270E-02    0.222E-01
RMM:   3    -0.231307134933E+04   -0.23332E-02   -0.29917E-03  5055   0.191E-02    0.578E-01
RMM:   4    -0.231306882285E+04    0.25265E-02   -0.14252E-03  4358   0.154E-02    0.359E-02
RMM:   5    -0.231306882474E+04   -0.18860E-05   -0.22735E-04  2996   0.528E-03    0.189E-02
RMM:   6    -0.231306882012E+04    0.46217E-05   -0.14142E-05  2705   0.251E-03
  31 F= -.23335283E+04 E0= -.23335283E+04  d E =-.401850E-14  mag=     3.0000
