       N       E                     dE             d eps       ncg     rms          rms(c)
DAV:   1     0.120779241444E+05    0.12078E+05   -0.83112E+05  4640   0.140E+03
DAV:   2    -0.129972567668E+04   -0.13378E+05   -0.12870E+05  5120   0.318E+02
DAV:   3    -0.249388690767E+04   -0.11942E+04   -0.11847E+04  5520   0.101E+02
DAV:   4    -0.251892608447E+04   -0.25039E+02   -0.24928E+02  5760   0.175E+01
DAV:   5    -0.251955064184E+04   -0.62456E+00   -0.62351E+00  5920   0.245E+00    0.170E+02
RMM:   6    -0.148001969878E+04    0.10395E+04   -0.18945E+03  4499   0.375E+01    0.729E+01
RMM:   7    -0.164842221350E+04   -0.16840E+03   -0.26533E+02  5080   0.133E+01    0.535E+01
RMM:   8    -0.169631347824E+04   -0.47891E+02   -0.80848E+01  5292   0.757E+00    0.428E+01
RMM:   9    -0.177430839600E+04   -0.77995E+02   -0.69471E+01  4973   0.747E+00    0.340E+01
RMM:  10    -0.190526982130E+04   -0.13096E+03   -0.60218E+01  5051   0.741E+00    0.202E+01
RMM:  11    -0.203070236229E+04   -0.12543E+03   -0.54788E+01  5057   0.606E+00    0.181E+01
RMM:  12    -0.210074015733E+04   -0.70038E+02   -0.30549E+01  4864   0.429E+00    0.132E+01
RMM:  13    -0.221872603957E+04   -0.11799E+03   -0.85892E+01  4503   0.666E+00    0.952E+00
RMM:  14    -0.229050325163E+04   -0.71777E+02   -0.66352E+01  4631   0.560E+00    0.461E+00
RMM:  15    -0.230610949799E+04   -0.15606E+02   -0.17261E+01  4872   0.352E+00    0.299E+00
RMM:  16    -0.230991865703E+04   -0.38092E+01   -0.48695E+00  5280   0.136E+00    0.436E+00
RMM:  17    -0.230990819561E+04    0.10461E-01   -0.26147E-01  5869   0.455E-01    0.431E+00
RMM:  18    -0.230973929267E+04    0.16890E+00   -0.10595E-01  5264   0.158E-01    0.448E+00
RMM:  19    -0.230978313769E+04   -0.43845E-01   -0.14154E-02  5089   0.526E-02    0.444E+00
RMM:  20    -0.230999359873E+04   -0.21046E+00   -0.10207E-01  4500   0.168E-01    0.415E+00
RMM:  21    -0.231024737839E+04   -0.25378E+00   -0.10489E+00  4558   0.495E-01    0.381E+00
RMM:  22    -0.230941723998E+04    0.83014E+00   -0.26551E+00  4619   0.746E-01    0.470E+00
RMM:  23    -0.230600064696E+04    0.34166E+01   -0.23526E+00  4868   0.688E-01    0.895E+00
RMM:  24    -0.230489606762E+04    0.11046E+01   -0.43096E-01  5622   0.306E-01    0.967E+00
RMM:  25    -0.230481785757E+04    0.78210E-01   -0.33761E-02  6235   0.781E-02    0.968E+00
RMM:  26    -0.230379186285E+04    0.10260E+01   -0.86558E-02  4623   0.132E-01    0.986E+00
RMM:  27    -0.230357637676E+04    0.21549E+00   -0.12338E-02  4619   0.656E-02    0.982E+00
RMM:  28    -0.230349775697E+04    0.78620E-01   -0.29321E-03  4680   0.230E-02    0.983E+00
RMM:  29    -0.230424983898E+04   -0.75208E+00   -0.39297E-02  4591   0.754E-02    0.969E+00
RMM:  30    -0.230787588740E+04   -0.36260E+01   -0.11720E+00  4599   0.392E-01    0.832E+00
RMM:  31    -0.231010567205E+04   -0.22298E+01   -0.10343E+00  4596   0.355E-01    0.605E+00
RMM:  32    -0.231226225864E+04   -0.21566E+01   -0.37705E+00  4681   0.579E-01    0.586E+00
RMM:  33    -0.231166671015E+04    0.59555E+00   -0.24531E+00  4605   0.662E-01    0.739E+00
RMM:  34    -0.231177260919E+04   -0.10590E+00   -0.31878E-01  5293   0.198E-01    0.723E+00
RMM:  35    -0.231176550947E+04    0.70997E-02   -0.20413E-02  5914   0.436E-02    0.723E+00
RMM:  36    -0.231175875451E+04    0.67550E-02   -0.56153E-03  4791   0.378E-02    0.732E+00
RMM:  37    -0.231170685883E+04    0.51896E-01   -0.53029E-03  4435   0.331E-02    0.741E+00
RMM:  38    -0.231175353213E+04   -0.46673E-01   -0.89200E-03  4476   0.426E-02    0.722E+00
RMM:  39    -0.231136397676E+04    0.38956E+00   -0.49340E-01  4513   0.295E-01    0.677E+00
RMM:  40    -0.231164018893E+04   -0.27621E+00   -0.17085E-01  4759   0.218E-01    0.579E+00
RMM:  41    -0.231209218735E+04   -0.45200E+00   -0.17302E+00  4533   0.571E-01    0.385E+00
RMM:  42    -0.231194082961E+04    0.15136E+00   -0.53842E-01  4563   0.381E-01    0.365E+00
RMM:  43    -0.231184891290E+04    0.91917E-01   -0.70852E-02  5540   0.130E-01    0.373E+00
RMM:  44    -0.231216360631E+04   -0.31469E+00   -0.67707E-01  4854   0.258E-01    0.354E+00
RMM:  45    -0.231211008044E+04    0.53526E-01   -0.98168E-01  4731   0.319E-01    0.361E+00
RMM:  46    -0.231215243020E+04   -0.42350E-01   -0.59213E-02  4843   0.123E-01    0.362E+00
RMM:  47    -0.231215631852E+04   -0.38883E-02   -0.15540E-02  5395   0.467E-02    0.361E+00
RMM:  48    -0.231215216424E+04    0.41543E-02   -0.10285E-03  4334   0.178E-02    0.362E+00
RMM:  49    -0.231216314792E+04   -0.10984E-01   -0.13497E-03  3858   0.148E-02    0.363E+00
RMM:  50    -0.231213507093E+04    0.28077E-01   -0.10003E-01  4674   0.123E-01    0.351E+00
RMM:  51    -0.231254529934E+04   -0.41023E+00   -0.27793E-01  4712   0.192E-01    0.351E+00
RMM:  52    -0.231279702139E+04   -0.25172E+00   -0.29134E-01  4871   0.171E-01    0.356E+00
RMM:  53    -0.231282843456E+04   -0.31413E-01   -0.28345E-02  4892   0.672E-02    0.370E+00
RMM:  54    -0.231296915921E+04   -0.14072E+00   -0.23060E-01  4699   0.133E-01    0.348E+00
RMM:  55    -0.231301601890E+04   -0.46860E-01   -0.10734E-01  4750   0.122E-01    0.323E+00
RMM:  56    -0.231300683280E+04    0.91861E-02   -0.55310E-02  4675   0.105E-01    0.305E+00
RMM:  57    -0.231300278390E+04    0.40489E-02   -0.11551E-02  4932   0.572E-02    0.285E+00
RMM:  58    -0.231300100098E+04    0.17829E-02   -0.98903E-03  4733   0.564E-02    0.256E+00
RMM:  59    -0.231301494115E+04   -0.13940E-01   -0.15855E-02  5013   0.848E-02    0.206E+00
RMM:  60    -0.231302860812E+04   -0.13667E-01   -0.12552E-02  4755   0.679E-02    0.168E+00
RMM:  61    -0.231305413516E+04   -0.25527E-01   -0.12697E-01  4576   0.203E-01    0.787E-01
RMM:  62    -0.231305444065E+04   -0.30548E-03   -0.12381E-02  4628   0.109E-01    0.766E-01
RMM:  63    -0.231305348549E+04    0.95516E-03   -0.18468E-03  5502   0.218E-02    0.654E-01
RMM:  64    -0.231305348496E+04    0.52688E-06   -0.13095E-04  3364   0.102E-02    0.654E-01
RMM:  65    -0.231305355344E+04   -0.68481E-04   -0.28216E-05  2988   0.364E-03    0.653E-01
RMM:  66    -0.231304477292E+04    0.87805E-02   -0.24642E-02  4804   0.656E-02    0.916E-01
RMM:  67    -0.231304740805E+04   -0.26351E-02   -0.10707E-02  5605   0.542E-02    0.641E-01
RMM:  68    -0.231304372392E+04    0.36841E-02   -0.25157E-03  5164   0.274E-02    0.619E-01
RMM:  69    -0.231304615945E+04   -0.24355E-02   -0.34195E-03  4998   0.272E-02    0.550E-01
RMM:  70    -0.231304659257E+04   -0.43312E-03   -0.11389E-03  4628   0.197E-02    0.487E-01
RMM:  71    -0.231304970574E+04   -0.31132E-02   -0.18991E-03  5051   0.195E-02    0.367E-01
RMM:  72    -0.231305079699E+04   -0.10912E-02   -0.22401E-03  5299   0.230E-02    0.205E-01
RMM:  73    -0.231305154465E+04   -0.74766E-03   -0.11771E-03  5041   0.176E-02    0.125E-01
RMM:  74    -0.231305181444E+04   -0.26979E-03   -0.13400E-03  4463   0.163E-02    0.672E-02
RMM:  75    -0.231305184368E+04   -0.29244E-04   -0.33619E-04  3673   0.103E-02    0.560E-02
RMM:  76    -0.231305190157E+04   -0.57883E-04   -0.49323E-05  3019   0.462E-03    0.517E-02
RMM:  77    -0.231305192056E+04   -0.18991E-04   -0.17420E-05  2968   0.355E-03    0.455E-02
RMM:  78    -0.231305194250E+04   -0.21942E-04   -0.22270E-05  2982   0.310E-03    0.286E-02
RMM:  79    -0.231305195609E+04   -0.13586E-04   -0.11737E-05  2905   0.261E-03    0.192E-02
RMM:  80    -0.231305196908E+04   -0.12992E-04   -0.10480E-05  2765   0.216E-03    0.125E-02
RMM:  81    -0.231305197916E+04   -0.10084E-04   -0.68595E-06  2834   0.201E-03    0.377E-03
RMM:  82    -0.231305198364E+04   -0.44788E-05   -0.35117E-06  2732   0.166E-03
   1 F= -.23335394E+04 E0= -.23335394E+04  d E =-.152558E-16  mag=     3.0013
       N       E                     dE             d eps       ncg     rms          rms(c)
DAV:   1    -0.231306797866E+04   -0.15999E-01   -0.21765E+00  4320   0.606E-01    0.374E-01
RMM:   2    -0.231306461964E+04    0.33590E-02   -0.13617E-02  3739   0.415E-02    0.184E-01
RMM:   3    -0.231306387236E+04    0.74729E-03   -0.21386E-03  4017   0.218E-02    0.831E-02
RMM:   4    -0.231306381537E+04    0.56984E-04   -0.93195E-04  3809   0.106E-02    0.429E-02
RMM:   5    -0.231306382816E+04   -0.12782E-04   -0.12959E-04  2900   0.691E-03    0.605E-02
RMM:   6    -0.231306379338E+04    0.34772E-04   -0.32738E-05  2728   0.306E-03    0.111E-02
RMM:   7    -0.231306379251E+04    0.87560E-06   -0.12089E-05  2728   0.197E-03
   2 F= -.23335514E+04 E0= -.23335514E+04  d E =-.378437E-11  mag=     3.0004
       N       E                     dE             d eps       ncg     rms          rms(c)
DAV:   1    -0.231301684508E+04    0.46948E-01   -0.86941E+00  4320   0.117E+00    0.768E-01
RMM:   2    -0.231300252643E+04    0.14319E-01   -0.54719E-02  4023   0.833E-02    0.371E-01
RMM:   3    -0.231299935656E+04    0.31699E-02   -0.91584E-03  4602   0.470E-02    0.172E-01
RMM:   4    -0.231299913540E+04    0.22117E-03   -0.35304E-03  4508   0.203E-02    0.115E-01
RMM:   5    -0.231299919823E+04   -0.62833E-04   -0.68568E-04  3512   0.137E-02    0.141E-01
RMM:   6    -0.231299900581E+04    0.19242E-03   -0.15430E-04  3204   0.596E-03    0.231E-02
RMM:   7    -0.231299900196E+04    0.38497E-05   -0.46141E-05  3068   0.320E-03
   3 F= -.23334861E+04 E0= -.23334861E+04  d E =-.108933E-11  mag=     3.0001
       N       E                     dE             d eps       ncg     rms          rms(c)
DAV:   1    -0.231307129839E+04   -0.72293E-01   -0.42616E+00  4320   0.868E-01    0.529E-01
RMM:   2    -0.231306582184E+04    0.54765E-02   -0.20750E-02  3793   0.540E-02    0.276E-01
RMM:   3    -0.231306430075E+04    0.15211E-02   -0.58183E-03  4537   0.281E-02    0.914E-02
RMM:   4    -0.231306425694E+04    0.43810E-04   -0.10608E-03  3986   0.129E-02    0.869E-02
RMM:   5    -0.231306420937E+04    0.47577E-04   -0.19624E-04  2934   0.602E-03    0.548E-02
RMM:   6    -0.231306417557E+04    0.33799E-04   -0.28932E-05  2691   0.304E-03    0.146E-02
RMM:   7    -0.231306417211E+04    0.34568E-05   -0.20430E-05  2795   0.212E-03
   4 F= -.23335514E+04 E0= -.23335514E+04  d E =-.955273E-13  mag=     3.0000
       N       E                     dE             d eps       ncg     rms          rms(c)
DAV:   1    -0.231302358901E+04    0.40587E-01   -0.84695E+00  4480   0.118E+00    0.624E-01
RMM:   2    -0.231301673018E+04    0.68588E-02   -0.28028E-02  3895   0.622E-02    0.331E-01
RMM:   3    -0.231301443310E+04    0.22971E-02   -0.10891E-02  4823   0.337E-02    0.132E-01
RMM:   4    -0.231301451199E+04   -0.78886E-04   -0.12752E-03  3753   0.180E-02    0.167E-01
RMM:   5    -0.231301424814E+04    0.26385E-03   -0.20392E-04  3148   0.683E-03    0.282E-02
RMM:   6    -0.231301423594E+04    0.12195E-04   -0.52506E-05  2992   0.343E-03    0.138E-02
RMM:   7    -0.231301423596E+04   -0.17360E-07   -0.12666E-05  2810   0.282E-03
   5 F= -.23335018E+04 E0= -.23335018E+04  d E =-.199705E-16  mag=     3.0000
       N       E                     dE             d eps       ncg     rms          rms(c)
DAV:   1    -0.231304586558E+04   -0.31630E-01   -0.43386E+00  4320   0.895E-01    0.554E-01
RMM:   2    -0.231303930667E+04    0.65589E-02   -0.24128E-02  3826   0.558E-02    0.282E-01
RMM:   3    -0.231303753820E+04    0.17685E-02   -0.52003E-03  4624   0.285E-02    0.150E-01
RMM:   4    -0.231303794012E+04   -0.40193E-03   -0.19001E-03  4465   0.162E-02    0.265E-01
RMM:   5    -0.231303730694E+04    0.63318E-03   -0.49262E-04  3420   0.920E-03    0.305E-02
RMM:   6    -0.231303729396E+04    0.12980E-04   -0.72046E-05  2947   0.367E-03    0.156E-02
RMM:   7    -0.231303729088E+04    0.30794E-05   -0.21510E-05  2971   0.272E-03
   6 F= -.23335248E+04 E0= -.23335248E+04  d E =-.649976E-13  mag=     3.0000
       N       E                     dE             d eps       ncg     rms          rms(c)
DAV:   1    -0.231304475424E+04   -0.74603E-02   -0.86473E+00  4480   0.119E+00    0.720E-01
RMM:   2    -0.231303237779E+04    0.12376E-01   -0.53603E-02  3895   0.789E-02    0.347E-01
RMM:   3    -0.231302901955E+04    0.33582E-02   -0.69703E-03  4723   0.381E-02    0.170E-01
RMM:   4    -0.231302964207E+04   -0.62252E-03   -0.34882E-03  4744   0.200E-02    0.325E-01
RMM:   5    -0.231302866100E+04    0.98108E-03   -0.86609E-04  3590   0.126E-02    0.402E-02
RMM:   6    -0.231302865016E+04    0.10831E-04   -0.11978E-04  3182   0.425E-03    0.218E-02
RMM:   7    -0.231302864708E+04    0.30854E-05   -0.30064E-05  3087   0.324E-03
   7 F= -.23335159E+04 E0= -.23335159E+04  d E =-.375024E-17  mag=     3.0000
       N       E                     dE             d eps       ncg     rms          rms(c)
DAV:   1    -0.231302567717E+04    0.29730E-02   -0.49334E+00  4320   0.906E-01    0.646E-01
RMM:   2    -0.231301775373E+04    0.79234E-02   -0.41424E-02  3899   0.682E-02    0.324E-01
RMM:   3    -0.231301542460E+04    0.23291E-02   -0.89254E-03  4857   0.416E-02    0.142E-01
RMM:   4    -0.231301551779E+04   -0.93190E-04   -0.21049E-03  4479   0.160E-02    0.162E-01
RMM:   5    -0.231301535337E+04    0.16442E-03   -0.54224E-04  3476   0.957E-03    0.103E-01
RMM:   6    -0.231301524907E+04    0.10430E-03   -0.11012E-04  3317   0.525E-03    0.223E-02
RMM:   7    -0.231301524959E+04   -0.51560E-06   -0.28482E-05  2964   0.330E-03
   8 F= -.23335023E+04 E0= -.23335023E+04  d E =-.235195E-13  mag=     3.0000
       N       E                     dE             d eps       ncg     rms          rms(c)
DAV:   1    -0.231305456872E+04   -0.39320E-01   -0.84780E+00  4480   0.115E+00    0.813E-01
RMM:   2    -0.231305144735E+04    0.31214E-02   -0.72758E-02  4143   0.951E-02    0.436E-01
RMM:   3    -0.231304826672E+04    0.31806E-02   -0.14498E-02  5232   0.550E-02    0.185E-01
RMM:   4    -0.231304895670E+04   -0.68997E-03   -0.26918E-03  4711   0.201E-02    0.307E-01
RMM:   5    -0.231304806533E+04    0.89137E-03   -0.90423E-04  3978   0.125E-02    0.758E-02
RMM:   6    -0.231304803251E+04    0.32821E-04   -0.16147E-04  3559   0.604E-03    0.253E-02
RMM:   7    -0.231304803810E+04   -0.55881E-05   -0.24491E-05  2944   0.396E-03
   9 F= -.23335358E+04 E0= -.23335358E+04  d E =-.712239E-11  mag=     3.0000
       N       E                     dE             d eps       ncg     rms          rms(c)
DAV:   1    -0.231305170476E+04   -0.36722E-02   -0.39157E+00  4480   0.785E-01    0.467E-01
RMM:   2    -0.231305118205E+04    0.52271E-03   -0.22788E-02  4025   0.527E-02    0.251E-01
RMM:   3    -0.231305046794E+04    0.71411E-03   -0.36064E-03  4815   0.282E-02    0.176E-01
RMM:   4    -0.231305066600E+04   -0.19806E-03   -0.14250E-03  4308   0.130E-02    0.200E-01
RMM:   5    -0.231305029435E+04    0.37164E-03   -0.25865E-04  3320   0.807E-03    0.302E-02
RMM:   6    -0.231305029301E+04    0.13422E-05   -0.62092E-05  3206   0.408E-03
  10 F= -.23335375E+04 E0= -.23335375E+04  d E =-.945313E-16  mag=     3.0000
       N       E                     dE             d eps       ncg     rms          rms(c)
DAV:   1    -0.231304891812E+04    0.13762E-02   -0.75117E+00  4480   0.989E-01    0.522E-01
RMM:   2    -0.231304806223E+04    0.85588E-03   -0.20523E-02  4069   0.519E-02    0.280E-01
RMM:   3    -0.231304852392E+04   -0.46169E-03   -0.40012E-03  4806   0.269E-02    0.347E-01
RMM:   4    -0.231304764393E+04    0.88000E-03   -0.16964E-03  4193   0.152E-02    0.123E-01
RMM:   5    -0.231304759449E+04    0.49441E-04   -0.19073E-04  3214   0.686E-03    0.359E-02
RMM:   6    -0.231304759988E+04   -0.53881E-05   -0.40979E-05  2961   0.407E-03
  11 F= -.23335351E+04 E0= -.23335351E+04  d E =-.542606E-13  mag=     3.0000
       N       E                     dE             d eps       ncg     rms          rms(c)
DAV:   1    -0.231306329568E+04   -0.15701E-01   -0.37718E+00  4480   0.778E-01    0.475E-01
RMM:   2    -0.231306360786E+04   -0.31218E-03   -0.22210E-02  4001   0.542E-02    0.471E-01
RMM:   3    -0.231306260430E+04    0.10036E-02   -0.50566E-03  5074   0.245E-02    0.392E-01
RMM:   4    -0.231306110537E+04    0.14989E-02   -0.21407E-03  4225   0.172E-02    0.815E-02
RMM:   5    -0.231306108064E+04    0.24725E-04   -0.26412E-04  3313   0.972E-03    0.348E-02
RMM:   6    -0.231306107461E+04    0.60339E-05   -0.39073E-05  2990   0.407E-03
  12 F= -.23335482E+04 E0= -.23335482E+04  d E =-.163359E-10  mag=     3.0000
       N       E                     dE             d eps       ncg     rms          rms(c)
DAV:   1    -0.231302976163E+04    0.31319E-01   -0.78596E+00  4480   0.116E+00    0.722E-01
RMM:   2    -0.231303179585E+04   -0.20342E-02   -0.50806E-02  4245   0.834E-02    0.888E-01
RMM:   3    -0.231302548973E+04    0.63061E-02   -0.11818E-02  5389   0.403E-02    0.452E-01
RMM:   4    -0.231302348915E+04    0.20006E-02   -0.44671E-03  4243   0.234E-02    0.171E-01
RMM:   5    -0.231302324120E+04    0.24794E-03   -0.63788E-04  3682   0.172E-02    0.539E-02
RMM:   6    -0.231302322969E+04    0.11511E-04   -0.11160E-04  3240   0.584E-03    0.245E-02
RMM:   7    -0.231302322770E+04    0.19929E-05   -0.23637E-05  2986   0.378E-03
  13 F= -.23335111E+04 E0= -.23335111E+04  d E =-.103667E-12  mag=     3.0000
       N       E                     dE             d eps       ncg     rms          rms(c)
DAV:   1    -0.231300740459E+04    0.15825E-01   -0.22662E+00  4320   0.624E-01    0.436E-01
RMM:   2    -0.231300751133E+04   -0.10674E-03   -0.21512E-02  3962   0.546E-02    0.495E-01
RMM:   3    -0.231300583582E+04    0.16755E-02   -0.46539E-03  5018   0.242E-02    0.324E-01
RMM:   4    -0.231300482766E+04    0.10082E-02   -0.14431E-03  4132   0.137E-02    0.925E-02
RMM:   5    -0.231300475144E+04    0.76221E-04   -0.26591E-04  3324   0.933E-03    0.376E-02
RMM:   6    -0.231300474395E+04    0.74882E-05   -0.45259E-05  2975   0.441E-03
  14 F= -.23334924E+04 E0= -.23334924E+04  d E =-.254305E-11  mag=     3.0000
       N       E                     dE             d eps       ncg     rms          rms(c)
DAV:   1    -0.231308874306E+04   -0.83992E-01   -0.11824E+00  4800   0.418E-01    0.462E-01
RMM:   2    -0.231308573078E+04    0.30123E-02   -0.14156E-02  3889   0.399E-02    0.249E-01
RMM:   3    -0.231308616415E+04   -0.43336E-03   -0.29832E-03  4464   0.216E-02    0.343E-01
RMM:   4    -0.231308519792E+04    0.96623E-03   -0.14040E-03  3963   0.142E-02    0.126E-01
RMM:   5    -0.231308509833E+04    0.99591E-04   -0.25827E-04  3268   0.711E-03    0.311E-02
RMM:   6    -0.231308509370E+04    0.46305E-05   -0.28414E-05  2769   0.369E-03
  15 F= -.23335723E+04 E0= -.23335723E+04  d E =-.758894E-12  mag=     3.0000
       N       E                     dE             d eps       ncg     rms          rms(c)
DAV:   1    -0.231300717619E+04    0.77922E-01   -0.58923E-01  5040   0.291E-01    0.389E-01
RMM:   2    -0.231300450807E+04    0.26681E-02   -0.10180E-02  3841   0.334E-02    0.192E-01
RMM:   3    -0.231300409790E+04    0.41017E-03   -0.11633E-03  3848   0.165E-02    0.107E-01
RMM:   4    -0.231300430207E+04   -0.20418E-03   -0.68348E-04  3578   0.100E-02    0.177E-01
RMM:   5    -0.231300400617E+04    0.29590E-03   -0.25320E-04  3134   0.717E-03    0.326E-02
RMM:   6    -0.231300399982E+04    0.63561E-05   -0.25086E-05  2733   0.265E-03
  16 F= -.23334917E+04 E0= -.23334917E+04  d E =-.110294E-11  mag=     3.0000
       N       E                     dE             d eps       ncg     rms          rms(c)
DAV:   1    -0.231309383106E+04   -0.89825E-01   -0.11411E+00  4800   0.409E-01    0.392E-01
RMM:   2    -0.231309205387E+04    0.17772E-02   -0.84308E-03  3868   0.315E-02    0.216E-01
RMM:   3    -0.231309211926E+04   -0.65390E-04   -0.15475E-03  3918   0.171E-02    0.218E-01
RMM:   4    -0.231309197758E+04    0.14168E-03   -0.94473E-04  3675   0.122E-02    0.163E-01
RMM:   5    -0.231309176264E+04    0.21494E-03   -0.23749E-04  3315   0.789E-03    0.278E-02
RMM:   6    -0.231309176207E+04    0.56582E-06   -0.18968E-05  2769   0.311E-03
  17 F= -.23335788E+04 E0= -.23335788E+04  d E =-.166577E-11  mag=     3.0000
       N       E                     dE             d eps       ncg     rms          rms(c)
DAV:   1    -0.231304121876E+04    0.50544E-01   -0.57342E-01  4720   0.282E-01    0.251E-01
RMM:   2    -0.231304064589E+04    0.57286E-03   -0.35892E-03  3580   0.210E-02    0.140E-01
RMM:   3    -0.231304074848E+04   -0.10258E-03   -0.64248E-04  3701   0.103E-02    0.165E-01
RMM:   4    -0.231304057072E+04    0.17776E-03   -0.39880E-04  3185   0.787E-03    0.867E-02
RMM:   5    -0.231304052236E+04    0.48353E-04   -0.69008E-05  2955   0.442E-03    0.148E-02
RMM:   6    -0.231304052244E+04   -0.72003E-07   -0.75333E-06  2512   0.229E-03
  18 F= -.23335284E+04 E0= -.23335284E+04  d E =-.142571E-11  mag=     3.0000
       N       E                     dE             d eps       ncg     rms          rms(c)
DAV:   1    -0.231305955709E+04   -0.19035E-01   -0.11369E+00  4480   0.395E-01    0.274E-01
RMM:   2    -0.231305984400E+04   -0.28692E-03   -0.32003E-03  3544   0.220E-02    0.209E-01
RMM:   3    -0.231306045936E+04   -0.61536E-03   -0.16728E-03  4364   0.142E-02    0.313E-01
RMM:   4    -0.231305971001E+04    0.74935E-03   -0.69109E-04  3568   0.113E-02    0.346E-02
RMM:   5    -0.231305969968E+04    0.10327E-04   -0.93736E-05  2945   0.523E-03    0.112E-02
RMM:   6    -0.231305969861E+04    0.10719E-05   -0.69287E-06  2573   0.198E-03
  19 F= -.23335466E+04 E0= -.23335466E+04  d E =-.117271E-11  mag=     3.0000
       N       E                     dE             d eps       ncg     rms          rms(c)
DAV:   1    -0.231306284326E+04   -0.31436E-02   -0.58520E-01  4320   0.317E-01    0.217E-01
RMM:   2    -0.231306292499E+04   -0.81732E-04   -0.19515E-03  3406   0.183E-02    0.130E-01
RMM:   3    -0.231306301959E+04   -0.94598E-04   -0.44378E-04  3500   0.773E-03    0.109E-01
RMM:   4    -0.231306290211E+04    0.11748E-03   -0.12298E-04  2636   0.534E-03    0.173E-02
RMM:   5    -0.231306290051E+04    0.15949E-05   -0.15139E-05  2432   0.198E-03
  20 F= -.23335500E+04 E0= -.23335500E+04  d E =-.261534E-11  mag=     3.0000
       N       E                     dE             d eps       ncg     rms          rms(c)
DAV:   1    -0.231303778958E+04    0.25113E-01   -0.11808E+00  4320   0.420E-01    0.327E-01
RMM:   2    -0.231303787351E+04   -0.83933E-04   -0.46306E-03  3707   0.272E-02    0.241E-01
RMM:   3    -0.231303879918E+04   -0.92567E-03   -0.24550E-03  4640   0.173E-02    0.381E-01
RMM:   4    -0.231303761489E+04    0.11843E-02   -0.83380E-04  3635   0.121E-02    0.522E-02
RMM:   5    -0.231303760775E+04    0.71420E-05   -0.16007E-04  3109   0.611E-03    0.161E-02
RMM:   6    -0.231303760651E+04    0.12382E-05   -0.12259E-05  2653   0.235E-03
  21 F= -.23335252E+04 E0= -.23335252E+04  d E =-.576664E-12  mag=     3.0000
       N       E                     dE             d eps       ncg     rms          rms(c)
DAV:   1    -0.231306427032E+04   -0.26663E-01   -0.61159E-01  4560   0.305E-01    0.334E-01
RMM:   2    -0.231306278972E+04    0.14806E-02   -0.63915E-03  3891   0.270E-02    0.181E-01
RMM:   3    -0.231306292242E+04   -0.13271E-03   -0.12113E-03  3845   0.147E-02    0.225E-01
RMM:   4    -0.231306256180E+04    0.36063E-03   -0.66542E-04  3382   0.101E-02    0.110E-01
RMM:   5    -0.231306247881E+04    0.82986E-04   -0.13420E-04  3099   0.554E-03    0.220E-02
RMM:   6    -0.231306247866E+04    0.15332E-06   -0.14402E-05  2599   0.283E-03
  22 F= -.23335496E+04 E0= -.23335496E+04  d E =-.189828E-11  mag=     3.0000
       N       E                     dE             d eps       ncg     rms          rms(c)
DAV:   1    -0.231303143602E+04    0.31043E-01   -0.12223E+00  4560   0.439E-01    0.505E-01
RMM:   2    -0.231302775173E+04    0.36843E-02   -0.15636E-02  3932   0.428E-02    0.271E-01
RMM:   3    -0.231302761996E+04    0.13177E-03   -0.26585E-03  4348   0.214E-02    0.267E-01
RMM:   4    -0.231302744440E+04    0.17556E-03   -0.14932E-03  4028   0.141E-02    0.216E-01
RMM:   5    -0.231302704058E+04    0.40382E-03   -0.41945E-04  3423   0.970E-03    0.390E-02
RMM:   6    -0.231302703511E+04    0.54679E-05   -0.36209E-05  2813   0.349E-03
  23 F= -.23335147E+04 E0= -.23335147E+04  d E =-.989514E-12  mag=     3.0000
       N       E                     dE             d eps       ncg     rms          rms(c)
DAV:   1    -0.231304906727E+04   -0.22027E-01   -0.64743E-01  4400   0.320E-01    0.432E-01
RMM:   2    -0.231304586007E+04    0.32072E-02   -0.13114E-02  3927   0.385E-02    0.220E-01
RMM:   3    -0.231304576745E+04    0.92623E-04   -0.20337E-03  4098   0.192E-02    0.241E-01
RMM:   4    -0.231304544447E+04    0.32298E-03   -0.10636E-03  3760   0.124E-02    0.159E-01
RMM:   5    -0.231304522494E+04    0.21953E-03   -0.23631E-04  3303   0.696E-03    0.281E-02
RMM:   6    -0.231304522265E+04    0.22942E-05   -0.26793E-05  2694   0.321E-03
  24 F= -.23335329E+04 E0= -.23335329E+04  d E =-.376154E-12  mag=     3.0000
       N       E                     dE             d eps       ncg     rms          rms(c)
DAV:   1    -0.231304843301E+04   -0.32081E-02   -0.12304E+00  4320   0.438E-01    0.475E-01
RMM:   2    -0.231304589576E+04    0.25372E-02   -0.14764E-02  3944   0.426E-02    0.299E-01
RMM:   3    -0.231304745478E+04   -0.15590E-02   -0.50791E-03  4983   0.259E-02    0.515E-01
RMM:   4    -0.231304500417E+04    0.24506E-02   -0.18229E-03  4263   0.165E-02    0.993E-02
RMM:   5    -0.231304497471E+04    0.29452E-04   -0.36608E-04  3376   0.804E-03    0.384E-02
RMM:   6    -0.231304496643E+04    0.82868E-05   -0.34663E-05  2875   0.392E-03
  25 F= -.23335321E+04 E0= -.23335321E+04  d E =-.444558E-11  mag=     3.0000
       N       E                     dE             d eps       ncg     rms          rms(c)
DAV:   1    -0.231304453213E+04    0.44258E-03   -0.58744E-01  4480   0.307E-01    0.283E-01
RMM:   2    -0.231304442172E+04    0.11041E-03   -0.69367E-03  4008   0.318E-02    0.310E-01
RMM:   3    -0.231304399430E+04    0.42742E-03   -0.19137E-03  4370   0.171E-02    0.236E-01
RMM:   4    -0.231304352378E+04    0.47052E-03   -0.42327E-04  3437   0.932E-03    0.623E-02
RMM:   5    -0.231304351128E+04    0.12503E-04   -0.12387E-04  3128   0.497E-03    0.184E-02
RMM:   6    -0.231304351181E+04   -0.53147E-06   -0.14357E-05  2661   0.283E-03
  26 F= -.23335315E+04 E0= -.23335315E+04  d E =-.236624E-11  mag=     3.0000
       N       E                     dE             d eps       ncg     rms          rms(c)
DAV:   1    -0.231305448880E+04   -0.10978E-01   -0.11338E+00  4480   0.394E-01    0.331E-01
RMM:   2    -0.231305879359E+04   -0.43048E-02   -0.11948E-02  4788   0.383E-02    0.722E-01
RMM:   3    -0.231305375638E+04    0.50372E-02   -0.31776E-03  4897   0.222E-02    0.136E-01
RMM:   4    -0.231305369405E+04    0.62328E-04   -0.62670E-04  3439   0.878E-03    0.800E-02
RMM:   5    -0.231305366927E+04    0.24779E-04   -0.12650E-04  3252   0.534E-03    0.206E-02
RMM:   6    -0.231305367026E+04   -0.99430E-06   -0.14140E-05  2743   0.293E-03
  27 F= -.23335405E+04 E0= -.23335405E+04  d E =-.663897E-12  mag=     3.0000
       N       E                     dE             d eps       ncg     rms          rms(c)
DAV:   1    -0.231305517318E+04   -0.15039E-02   -0.56027E-01  4480   0.278E-01    0.238E-01
RMM:   2    -0.231305714168E+04   -0.19685E-02   -0.61026E-03  4528   0.269E-02    0.498E-01
RMM:   3    -0.231305480565E+04    0.23360E-02   -0.15501E-03  4130   0.154E-02    0.105E-01
RMM:   4    -0.231305476349E+04    0.42164E-04   -0.30137E-04  3168   0.671E-03    0.608E-02
RMM:   5    -0.231305474296E+04    0.20534E-04   -0.74614E-05  3102   0.414E-03    0.159E-02
RMM:   6    -0.231305474324E+04   -0.28517E-06   -0.90650E-06  2615   0.252E-03
  28 F= -.23335424E+04 E0= -.23335424E+04  d E =-.237824E-11  mag=     3.0000
       N       E                     dE             d eps       ncg     rms          rms(c)
DAV:   1    -0.231304872077E+04    0.60222E-02   -0.11001E+00  4480   0.377E-01    0.250E-01
RMM:   2    -0.231304912783E+04   -0.40706E-03   -0.32037E-03  3732   0.204E-02    0.255E-01
RMM:   3    -0.231304891024E+04    0.21760E-03   -0.11756E-03  3972   0.120E-02    0.206E-01
RMM:   4    -0.231304863775E+04    0.27249E-03   -0.41327E-04  3438   0.854E-03    0.522E-02
RMM:   5    -0.231304864471E+04   -0.69584E-05   -0.89161E-05  3060   0.461E-03
  29 F= -.23335358E+04 E0= -.23335358E+04  d E =-.595694E-12  mag=     3.0000
       N       E                     dE             d eps       ncg     rms          rms(c)
DAV:   1    -0.231305715649E+04   -0.85187E-02   -0.55334E-01  4480   0.280E-01    0.243E-01
RMM:   2    -0.231305703567E+04    0.12082E-03   -0.34937E-03  3911   0.208E-02    0.268E-01
RMM:   3    -0.231305670451E+04    0.33117E-03   -0.14157E-03  3810   0.151E-02    0.179E-01
RMM:   4    -0.231305638904E+04    0.31547E-03   -0.36865E-04  3501   0.751E-03    0.387E-02
RMM:   5    -0.231305638783E+04    0.12088E-05   -0.49992E-05  2928   0.393E-03
  30 F= -.23335446E+04 E0= -.23335446E+04  d E =-.181660E-13  mag=     3.0000
       N       E                     dE             d eps       ncg     rms          rms(c)
DAV:   1    -0.231304867658E+04    0.77125E-02   -0.11646E+00  4480   0.395E-01    0.425E-01
RMM:   2    -0.231305069121E+04   -0.20146E-02   -0.12416E-02  4854   0.373E-02    0.777E-01
RMM:   3    -0.231304558589E+04    0.51053E-02   -0.46389E-03  4856   0.266E-02    0.193E-01
RMM:   4    -0.231304511860E+04    0.46730E-03   -0.17652E-03  3988   0.131E-02    0.770E-02
RMM:   5    -0.231304504954E+04    0.69059E-04   -0.21823E-04  3367   0.609E-03    0.348E-02
RMM:   6    -0.231304503805E+04    0.11483E-04   -0.34020E-05  2794   0.353E-03    0.144E-02
RMM:   7    -0.231304503677E+04    0.12834E-05   -0.10185E-05  2664   0.198E-03
  31 F= -.23335317E+04 E0= -.23335317E+04  d E =-.341921E-15  mag=     3.0000
