       N       E                     dE             d eps       ncg     rms          rms(c)
DAV:   1     0.129083377401E+05    0.12908E+05   -0.83550E+05  4488   0.144E+03
DAV:   2    -0.104576186240E+04   -0.13954E+05   -0.13345E+05  5104   0.330E+02
DAV:   3    -0.247934614697E+04   -0.14336E+04   -0.14186E+04  5392   0.112E+02
DAV:   4    -0.252477706891E+04   -0.45431E+02   -0.45197E+02  6736   0.298E+01
DAV:   5    -0.252555400467E+04   -0.77694E+00   -0.77558E+00  5904   0.336E+00    0.170E+02
RMM:   6    -0.149066789524E+04    0.10349E+04   -0.19544E+03  4428   0.387E+01    0.732E+01
RMM:   7    -0.165420027738E+04   -0.16353E+03   -0.29875E+02  5086   0.145E+01    0.531E+01
RMM:   8    -0.170597032340E+04   -0.51770E+02   -0.79949E+01  5303   0.814E+00    0.430E+01
RMM:   9    -0.178578770865E+04   -0.79817E+02   -0.72549E+01  4971   0.784E+00    0.342E+01
RMM:  10    -0.189868499792E+04   -0.11290E+03   -0.58207E+01  5341   0.754E+00    0.289E+01
RMM:  11    -0.198089053862E+04   -0.82206E+02   -0.35928E+01  5440   0.539E+00    0.177E+01
RMM:  12    -0.207640512660E+04   -0.95515E+02   -0.41980E+01  4782   0.494E+00    0.135E+01
RMM:  13    -0.220207180171E+04   -0.12567E+03   -0.93058E+01  4506   0.702E+00    0.105E+01
RMM:  14    -0.228733999656E+04   -0.85268E+02   -0.83212E+01  4635   0.630E+00    0.586E+00
RMM:  15    -0.230433186112E+04   -0.16992E+02   -0.18126E+01  4831   0.381E+00    0.359E+00
RMM:  16    -0.231248873043E+04   -0.81569E+01   -0.94123E+00  4696   0.185E+00    0.182E+00
RMM:  17    -0.231471198820E+04   -0.22233E+01   -0.21667E+00  4793   0.130E+00    0.983E-01
RMM:  18    -0.231555306309E+04   -0.84107E+00   -0.65182E-01  4983   0.481E-01    0.554E-01
RMM:  19    -0.231572952537E+04   -0.17646E+00   -0.13478E-01  4794   0.302E-01    0.348E-01
RMM:  20    -0.231579212129E+04   -0.62596E-01   -0.38008E-02  4596   0.142E-01    0.193E-01
RMM:  21    -0.231581835314E+04   -0.26232E-01   -0.13067E-02  4622   0.998E-02    0.115E-01
RMM:  22    -0.231583095500E+04   -0.12602E-01   -0.44722E-03  4662   0.543E-02    0.730E-02
RMM:  23    -0.231584400455E+04   -0.13050E-01   -0.40650E-03  4411   0.475E-02    0.479E-02
RMM:  24    -0.231585014126E+04   -0.61367E-02   -0.21165E-03  4589   0.338E-02    0.295E-02
RMM:  25    -0.231585309331E+04   -0.29520E-02   -0.11029E-03  4399   0.240E-02    0.176E-02
RMM:  26    -0.231585415248E+04   -0.10592E-02   -0.36162E-04  4115   0.147E-02    0.887E-03
RMM:  27    -0.231585447518E+04   -0.32270E-03   -0.10608E-04  3812   0.857E-03    0.541E-03
RMM:  28    -0.231585462398E+04   -0.14881E-03   -0.31706E-05  3259   0.504E-03    0.314E-03
RMM:  29    -0.231585469858E+04   -0.74597E-04   -0.15434E-05  2949   0.361E-03    0.196E-03
RMM:  30    -0.231585472180E+04   -0.23221E-04   -0.63344E-06  2818   0.283E-03    0.105E-03
RMM:  31    -0.231585472819E+04   -0.63875E-05   -0.34156E-06  2439   0.211E-03
   1 F= -.23367316E+04 E0= -.23367316E+04  d E =-.233673E+04  mag=     4.0000
       N       E                     dE             d eps       ncg     rms          rms(c)
DAV:   1    -0.231596108210E+04   -0.10636E+00   -0.19307E+01  4944   0.387E+00    0.106E+00
RMM:   2    -0.231613098845E+04   -0.16991E+00   -0.18068E+00  6509   0.860E-01    0.798E-01
RMM:   3    -0.231613478604E+04   -0.37976E-02   -0.14652E-01  5827   0.235E-01    0.593E-01
RMM:   4    -0.231613230947E+04    0.24766E-02   -0.15132E-02  5941   0.601E-02    0.340E-01
RMM:   5    -0.231613101761E+04    0.12919E-02   -0.46244E-03  5179   0.386E-02    0.192E-01
RMM:   6    -0.231613112755E+04   -0.10994E-03   -0.19395E-03  4999   0.313E-02    0.183E-01
RMM:   7    -0.231613070298E+04    0.42457E-03   -0.70062E-04  4870   0.160E-02    0.596E-02
RMM:   8    -0.231613067529E+04    0.27694E-04   -0.11416E-04  3208   0.754E-03    0.289E-02
RMM:   9    -0.231613067100E+04    0.42830E-05   -0.27323E-05  2881   0.471E-03
   2 F= -.23370077E+04 E0= -.23370077E+04  d E =-.276114E+00  mag=     4.0000
       N       E                     dE             d eps       ncg     rms          rms(c)
DAV:   1    -0.231605230884E+04    0.78366E-01   -0.20631E+01  4640   0.399E+00    0.107E+00
RMM:   2    -0.231623336640E+04   -0.18106E+00   -0.19210E+00  6497   0.897E-01    0.796E-01
RMM:   3    -0.231623748442E+04   -0.41180E-02   -0.15191E-01  5770   0.236E-01    0.584E-01
RMM:   4    -0.231623513888E+04    0.23455E-02   -0.16001E-02  6032   0.621E-02    0.354E-01
RMM:   5    -0.231623359008E+04    0.15488E-02   -0.49435E-03  5210   0.416E-02    0.160E-01
RMM:   6    -0.231623348873E+04    0.10136E-03   -0.10804E-03  4668   0.260E-02    0.735E-02
RMM:   7    -0.231623350094E+04   -0.12214E-04   -0.29862E-04  4125   0.126E-02    0.558E-02
RMM:   8    -0.231623347486E+04    0.26083E-04   -0.76596E-05  3044   0.797E-03    0.326E-02
RMM:   9    -0.231623346701E+04    0.78510E-05   -0.24997E-05  2886   0.435E-03
   3 F= -.23371109E+04 E0= -.23371108E+04  d E =-.379237E+00  mag=     3.9998
       N       E                     dE             d eps       ncg     rms          rms(c)
DAV:   1    -0.231620628407E+04    0.27191E-01   -0.22511E+01  4544   0.452E+00    0.128E+00
RMM:   2    -0.231642839953E+04   -0.22212E+00   -0.23255E+00  6451   0.102E+00    0.120E+00
RMM:   3    -0.231642566142E+04    0.27381E-02   -0.18403E-01  5949   0.290E-01    0.713E-01
RMM:   4    -0.231642047871E+04    0.51827E-02   -0.19249E-02  5652   0.723E-02    0.337E-01
RMM:   5    -0.231641881689E+04    0.16618E-02   -0.54929E-03  5283   0.500E-02    0.177E-01
RMM:   6    -0.231641906353E+04   -0.24665E-03   -0.22031E-03  5317   0.332E-02    0.187E-01
RMM:   7    -0.231641858191E+04    0.48162E-03   -0.56270E-04  4588   0.148E-02    0.413E-02
RMM:   8    -0.231641855304E+04    0.28872E-04   -0.79795E-05  3113   0.641E-03    0.210E-02
RMM:   9    -0.231641854196E+04    0.11086E-04   -0.34899E-05  2960   0.512E-03    0.850E-03
RMM:  10    -0.231641853955E+04    0.24028E-05   -0.12103E-05  2868   0.417E-03
   4 F= -.23372962E+04 E0= -.23372962E+04  d E =-.185362E+00  mag=     3.9995
       N       E                     dE             d eps       ncg     rms          rms(c)
DAV:   1    -0.231630866702E+04    0.10987E+00   -0.17164E+01  4512   0.396E+00    0.112E+00
RMM:   2    -0.231647801327E+04   -0.16935E+00   -0.17715E+00  6447   0.902E-01    0.104E+00
RMM:   3    -0.231647663672E+04    0.13765E-02   -0.14404E-01  5965   0.256E-01    0.618E-01
RMM:   4    -0.231647280657E+04    0.38302E-02   -0.14733E-02  5646   0.626E-02    0.293E-01
RMM:   5    -0.231647148421E+04    0.13224E-02   -0.41671E-03  5282   0.442E-02    0.146E-01
RMM:   6    -0.231647166671E+04   -0.18251E-03   -0.15924E-03  5272   0.287E-02    0.154E-01
RMM:   7    -0.231647134004E+04    0.32667E-03   -0.40370E-04  4349   0.129E-02    0.401E-02
RMM:   8    -0.231647131240E+04    0.27648E-04   -0.56910E-05  3016   0.576E-03    0.192E-02
RMM:   9    -0.231647130154E+04    0.10852E-04   -0.32515E-05  2937   0.478E-03    0.751E-03
RMM:  10    -0.231647129935E+04    0.21947E-05   -0.10138E-05  2866   0.397E-03
   5 F= -.23373491E+04 E0= -.23373490E+04  d E =-.238237E+00  mag=     3.9988
       N       E                     dE             d eps       ncg     rms          rms(c)
DAV:   1    -0.231601755497E+04    0.45375E+00   -0.32346E+01  4464   0.544E+00    0.178E+00
RMM:   2    -0.231660578846E+04   -0.58823E+00   -0.60633E+00  6540   0.142E+00    0.168E+00
RMM:   3    -0.231663429037E+04   -0.28502E-01   -0.64261E-01  5949   0.441E-01    0.112E+00
RMM:   4    -0.231662201679E+04    0.12274E-01   -0.49193E-02  6180   0.102E-01    0.469E-01
RMM:   5    -0.231662103438E+04    0.98241E-03   -0.78022E-03  5790   0.466E-02    0.459E-01
RMM:   6    -0.231661869574E+04    0.23386E-02   -0.54798E-03  5543   0.419E-02    0.222E-01
RMM:   7    -0.231661825617E+04    0.43957E-03   -0.16779E-03  5467   0.265E-02    0.649E-02
RMM:   8    -0.231661824984E+04    0.63231E-05   -0.18259E-04  3955   0.113E-02    0.354E-02
RMM:   9    -0.231661824390E+04    0.59432E-05   -0.69720E-05  3040   0.762E-03
   6 F= -.23374963E+04 E0= -.23374962E+04  d E =-.147237E+00  mag=     3.9974
       N       E                     dE             d eps       ncg     rms          rms(c)
DAV:   1    -0.231646659313E+04    0.15166E+00   -0.97130E+00  4560   0.294E+00    0.973E-01
RMM:   2    -0.231663868552E+04   -0.17209E+00   -0.17546E+00  6524   0.746E-01    0.100E+00
RMM:   3    -0.231664460264E+04   -0.59171E-02   -0.18310E-01  5844   0.237E-01    0.578E-01
RMM:   4    -0.231664145974E+04    0.31429E-02   -0.15227E-02  5804   0.549E-02    0.247E-01
RMM:   5    -0.231664128671E+04    0.17303E-03   -0.24739E-03  5625   0.272E-02    0.274E-01
RMM:   6    -0.231664039082E+04    0.89589E-03   -0.16625E-03  5344   0.235E-02    0.974E-02
RMM:   7    -0.231664032344E+04    0.67383E-04   -0.43056E-04  4912   0.140E-02    0.292E-02
RMM:   8    -0.231664032167E+04    0.17695E-05   -0.40477E-05  2958   0.581E-03
   7 F= -.23375184E+04 E0= -.23375183E+04  d E =-.169356E+00  mag=     3.9977
       N       E                     dE             d eps       ncg     rms          rms(c)
DAV:   1    -0.231629438215E+04    0.34594E+00   -0.24378E+01  4472   0.452E+00    0.162E+00
RMM:   2    -0.231671292682E+04   -0.41854E+00   -0.43271E+00  6474   0.117E+00    0.146E+00
RMM:   3    -0.231673013496E+04   -0.17208E-01   -0.44550E-01  5839   0.385E-01    0.972E-01
RMM:   4    -0.231672241825E+04    0.77167E-02   -0.40168E-02  6127   0.902E-02    0.415E-01
RMM:   5    -0.231672153219E+04    0.88606E-03   -0.66727E-03  5618   0.462E-02    0.375E-01
RMM:   6    -0.231672020658E+04    0.13256E-02   -0.40996E-03  5812   0.356E-02    0.213E-01
RMM:   7    -0.231671972212E+04    0.48446E-03   -0.99064E-04  5313   0.212E-02    0.563E-02
RMM:   8    -0.231671970248E+04    0.19633E-04   -0.16846E-04  3820   0.936E-03    0.324E-02
RMM:   9    -0.231671969021E+04    0.12277E-04   -0.62850E-05  3066   0.660E-03    0.127E-02
RMM:  10    -0.231671969145E+04   -0.12392E-05   -0.20782E-05  2904   0.464E-03
   8 F= -.23375965E+04 E0= -.23375962E+04  d E =-.780476E-01  mag=     3.9944
       N       E                     dE             d eps       ncg     rms          rms(c)
DAV:   1    -0.231671642675E+04    0.32635E-02   -0.23760E-01  4912   0.445E-01    0.158E-01
RMM:   2    -0.231672048146E+04   -0.40547E-02   -0.41692E-02  6483   0.117E-01    0.148E-01
RMM:   3    -0.231672058148E+04   -0.10002E-03   -0.39377E-03  4376   0.362E-02    0.894E-02
RMM:   4    -0.231672051366E+04    0.67820E-04   -0.36520E-04  3230   0.928E-03    0.396E-02
RMM:   5    -0.231672048927E+04    0.24391E-04   -0.61650E-05  3185   0.620E-03    0.211E-02
RMM:   6    -0.231672049478E+04   -0.55144E-05   -0.36527E-05  2907   0.567E-03
   9 F= -.23375972E+04 E0= -.23375968E+04  d E =-.787136E-01  mag=     3.9936
       N       E                     dE             d eps       ncg     rms          rms(c)
DAV:   1    -0.231662761478E+04    0.92874E-01   -0.94129E+00  4480   0.265E+00    0.895E-01
RMM:   2    -0.231676972333E+04   -0.14211E+00   -0.14685E+00  6512   0.673E-01    0.870E-01
RMM:   3    -0.231677387063E+04   -0.41473E-02   -0.14994E-01  6044   0.209E-01    0.530E-01
RMM:   4    -0.231677200263E+04    0.18680E-02   -0.13917E-02  5758   0.488E-02    0.262E-01
RMM:   5    -0.231677138632E+04    0.61631E-03   -0.26223E-03  5292   0.277E-02    0.191E-01
RMM:   6    -0.231677135469E+04    0.31628E-04   -0.17545E-03  5212   0.238E-02    0.158E-01
RMM:   7    -0.231677102610E+04    0.32859E-03   -0.30147E-04  4217   0.112E-02    0.281E-02
RMM:   8    -0.231677102446E+04    0.16480E-05   -0.54254E-05  2956   0.587E-03
  10 F= -.23376469E+04 E0= -.23376464E+04  d E =-.497146E-01  mag=     3.9913
       N       E                     dE             d eps       ncg     rms          rms(c)
DAV:   1    -0.231675043431E+04    0.20592E-01   -0.16890E+00  4512   0.112E+00    0.375E-01
RMM:   2    -0.231677577945E+04   -0.25345E-01   -0.26210E-01  6527   0.283E-01    0.355E-01
RMM:   3    -0.231677659083E+04   -0.81138E-03   -0.25823E-02  5658   0.862E-02    0.217E-01
RMM:   4    -0.231677629456E+04    0.29626E-03   -0.24489E-03  4699   0.206E-02    0.110E-01
RMM:   5    -0.231677618402E+04    0.11054E-03   -0.45834E-04  4633   0.126E-02    0.814E-02
RMM:   6    -0.231677617070E+04    0.13320E-04   -0.30934E-04  3630   0.112E-02    0.636E-02
RMM:   7    -0.231677612017E+04    0.50531E-04   -0.53473E-05  2967   0.622E-03    0.116E-02
RMM:   8    -0.231677612101E+04   -0.84202E-06   -0.10153E-05  2879   0.372E-03
  11 F= -.23376516E+04 E0= -.23376511E+04  d E =-.544662E-01  mag=     3.9900
       N       E                     dE             d eps       ncg     rms          rms(c)
DAV:   1    -0.231675499658E+04    0.21124E-01   -0.64198E+00  4480   0.222E+00    0.656E-01
RMM:   2    -0.231682572035E+04   -0.70724E-01   -0.72345E-01  6483   0.485E-01    0.667E-01
RMM:   3    -0.231682700241E+04   -0.12821E-02   -0.74715E-02  5857   0.155E-01    0.375E-01
RMM:   4    -0.231682616106E+04    0.84135E-03   -0.78397E-03  5415   0.365E-02    0.193E-01
RMM:   5    -0.231682601658E+04    0.14448E-03   -0.14194E-03  5086   0.222E-02    0.176E-01
RMM:   6    -0.231682574722E+04    0.26936E-03   -0.10541E-03  5237   0.182E-02    0.105E-01
RMM:   7    -0.231682562988E+04    0.11735E-03   -0.18900E-04  3580   0.940E-03    0.228E-02
RMM:   8    -0.231682562374E+04    0.61342E-05   -0.27993E-05  2871   0.530E-03
  12 F= -.23377015E+04 E0= -.23377011E+04  d E =-.498796E-01  mag=     3.9914
       N       E                     dE             d eps       ncg     rms          rms(c)
DAV:   1    -0.231649085605E+04    0.33477E+00   -0.33727E+01  4464   0.511E+00    0.152E+00
RMM:   2    -0.231687387882E+04   -0.38302E+00   -0.39249E+00  6512   0.113E+00    0.154E+00
RMM:   3    -0.231688149371E+04   -0.76149E-02   -0.41194E-01  5904   0.363E-01    0.916E-01
RMM:   4    -0.231687606984E+04    0.54239E-02   -0.42578E-02  5912   0.863E-02    0.460E-01
RMM:   5    -0.231687597383E+04    0.96015E-04   -0.79192E-03  5406   0.491E-02    0.467E-01
RMM:   6    -0.231687363039E+04    0.23434E-02   -0.61367E-03  5920   0.419E-02    0.219E-01
RMM:   7    -0.231687315722E+04    0.47317E-03   -0.10343E-03  4877   0.205E-02    0.569E-02
RMM:   8    -0.231687312156E+04    0.35661E-04   -0.17654E-04  3416   0.107E-02    0.278E-02
RMM:   9    -0.231687311949E+04    0.20660E-05   -0.60149E-05  3120   0.579E-03
  13 F= -.23377497E+04 E0= -.23377495E+04  d E =-.980921E-01  mag=     3.9942
       N       E                     dE             d eps       ncg     rms          rms(c)
DAV:   1    -0.231682967730E+04    0.43444E-01   -0.11569E+01  4448   0.311E+00    0.970E-01
RMM:   2    -0.231691442020E+04   -0.84743E-01   -0.91665E-01  6077   0.599E-01    0.570E-01
RMM:   3    -0.231692084706E+04   -0.64269E-02   -0.10095E-01  5778   0.221E-01    0.551E-01
RMM:   4    -0.231691779534E+04    0.30517E-02   -0.11901E-02  6139   0.571E-02    0.280E-01
RMM:   5    -0.231691680877E+04    0.98657E-03   -0.35110E-03  5037   0.396E-02    0.115E-01
RMM:   6    -0.231691678427E+04    0.24499E-04   -0.70766E-04  4800   0.226E-02    0.687E-02
RMM:   7    -0.231691677511E+04    0.91605E-05   -0.23184E-04  3757   0.936E-03    0.608E-02
RMM:   8    -0.231691672190E+04    0.53206E-04   -0.54412E-05  2918   0.641E-03    0.180E-02
RMM:   9    -0.231691671452E+04    0.73811E-05   -0.22388E-05  2905   0.412E-03
  14 F= -.23377942E+04 E0= -.23377938E+04  d E =-.444662E-01  mag=     3.9925
       N       E                     dE             d eps       ncg     rms          rms(c)
DAV:   1    -0.231691443740E+04    0.22845E-02   -0.47563E-01  4736   0.630E-01    0.195E-01
RMM:   2    -0.231691785344E+04   -0.34160E-02   -0.37084E-02  6109   0.121E-01    0.114E-01
RMM:   3    -0.231691810335E+04   -0.24991E-03   -0.40167E-03  5176   0.435E-02    0.110E-01
RMM:   4    -0.231691799025E+04    0.11310E-03   -0.48711E-04  4023   0.117E-02    0.568E-02
RMM:   5    -0.231691794395E+04    0.46300E-04   -0.14735E-04  4019   0.946E-03    0.207E-02
RMM:   6    -0.231691794469E+04   -0.74187E-06   -0.28168E-05  2917   0.635E-03
  15 F= -.23377956E+04 E0= -.23377951E+04  d E =-.458594E-01  mag=     3.9917
       N       E                     dE             d eps       ncg     rms          rms(c)
DAV:   1    -0.231685530427E+04    0.62640E-01   -0.10177E+01  4448   0.280E+00    0.873E-01
RMM:   2    -0.231695574687E+04   -0.10044E+00   -0.10834E+00  6377   0.586E-01    0.503E-01
RMM:   3    -0.231696375120E+04   -0.80043E-02   -0.11372E-01  5817   0.190E-01    0.422E-01
RMM:   4    -0.231696329026E+04    0.46094E-03   -0.11813E-02  5925   0.469E-02    0.322E-01
RMM:   5    -0.231696214493E+04    0.11453E-02   -0.33018E-03  5336   0.310E-02    0.146E-01
RMM:   6    -0.231696204302E+04    0.10191E-03   -0.92160E-04  4889   0.193E-02    0.806E-02
RMM:   7    -0.231696202800E+04    0.15019E-04   -0.25557E-04  3580   0.101E-02    0.609E-02
RMM:   8    -0.231696198093E+04    0.47076E-04   -0.48932E-05  2950   0.550E-03    0.171E-02
RMM:   9    -0.231696197935E+04    0.15765E-05   -0.19114E-05  2888   0.355E-03
  16 F= -.23378407E+04 E0= -.23378398E+04  d E =-.451662E-01  mag=     3.9826
       N       E                     dE             d eps       ncg     rms          rms(c)
DAV:   1    -0.231691876626E+04    0.43215E-01   -0.50813E+00  4472   0.197E+00    0.612E-01
RMM:   2    -0.231696848739E+04   -0.49721E-01   -0.53673E-01  6398   0.412E-01    0.341E-01
RMM:   3    -0.231697215128E+04   -0.36639E-02   -0.53715E-02  5741   0.131E-01    0.276E-01
RMM:   4    -0.231697214191E+04    0.93627E-05   -0.57529E-03  5554   0.330E-02    0.238E-01
RMM:   5    -0.231697149626E+04    0.64565E-03   -0.16691E-03  5157   0.225E-02    0.101E-01
RMM:   6    -0.231697148377E+04    0.12498E-04   -0.44206E-04  4267   0.143E-02    0.724E-02
RMM:   7    -0.231697144753E+04    0.36234E-04   -0.13180E-04  3165   0.721E-03    0.344E-02
RMM:   8    -0.231697143425E+04    0.13285E-04   -0.20555E-05  2920   0.415E-03    0.108E-02
RMM:   9    -0.231697143480E+04   -0.54923E-06   -0.76956E-06  2877   0.264E-03
  17 F= -.23378509E+04 E0= -.23378494E+04  d E =-.553710E-01  mag=     3.9694
       N       E                     dE             d eps       ncg     rms          rms(c)
DAV:   1    -0.231693562412E+04    0.35810E-01   -0.51929E+00  4480   0.210E+00    0.709E-01
RMM:   2    -0.231699704060E+04   -0.61416E-01   -0.64494E-01  6306   0.470E-01    0.499E-01
RMM:   3    -0.231700060960E+04   -0.35690E-02   -0.60824E-02  5832   0.159E-01    0.437E-01
RMM:   4    -0.231699879148E+04    0.18181E-02   -0.65581E-03  5816   0.404E-02    0.217E-01
RMM:   5    -0.231699821140E+04    0.58008E-03   -0.20088E-03  5280   0.286E-02    0.832E-02
RMM:   6    -0.231699824614E+04   -0.34739E-04   -0.47825E-04  4814   0.161E-02    0.775E-02
RMM:   7    -0.231699819244E+04    0.53699E-04   -0.12974E-04  3123   0.729E-03    0.324E-02
RMM:   8    -0.231699817669E+04    0.15753E-04   -0.22758E-05  2925   0.463E-03    0.121E-02
RMM:   9    -0.231699817541E+04    0.12826E-05   -0.16417E-05  2898   0.346E-03
  18 F= -.23378784E+04 E0= -.23378765E+04  d E =-.274032E-01  mag=     3.9590
       N       E                     dE             d eps       ncg     rms          rms(c)
DAV:   1    -0.231699267800E+04    0.54987E-02   -0.61922E-01  4640   0.724E-01    0.245E-01
RMM:   2    -0.231699999732E+04   -0.73193E-02   -0.76787E-02  6340   0.162E-01    0.177E-01
RMM:   3    -0.231700039765E+04   -0.40033E-03   -0.70172E-03  5424   0.527E-02    0.154E-01
RMM:   4    -0.231700016833E+04    0.22932E-03   -0.79076E-04  4428   0.141E-02    0.750E-02
RMM:   5    -0.231700010190E+04    0.66434E-04   -0.25333E-04  4240   0.110E-02    0.338E-02
RMM:   6    -0.231700011783E+04   -0.15935E-04   -0.80976E-05  3021   0.753E-03    0.444E-02
RMM:   7    -0.231700009437E+04    0.23462E-04   -0.25786E-05  2869   0.470E-03    0.965E-03
RMM:   8    -0.231700009337E+04    0.99473E-06   -0.57911E-06  2875   0.265E-03
  19 F= -.23378805E+04 E0= -.23378785E+04  d E =-.295333E-01  mag=     3.9539
       N       E                     dE             d eps       ncg     rms          rms(c)
DAV:   1    -0.231697280667E+04    0.27288E-01   -0.42394E+00  4456   0.188E+00    0.651E-01
RMM:   2    -0.231702696759E+04   -0.54161E-01   -0.55549E-01  6444   0.437E-01    0.642E-01
RMM:   3    -0.231702726646E+04   -0.29887E-03   -0.50782E-02  6017   0.132E-01    0.396E-01
RMM:   4    -0.231702585349E+04    0.14130E-02   -0.52342E-03  5307   0.337E-02    0.174E-01
RMM:   5    -0.231702546704E+04    0.38645E-03   -0.12444E-03  5072   0.229E-02    0.749E-02
RMM:   6    -0.231702546738E+04   -0.34421E-06   -0.37875E-04  4705   0.156E-02    0.484E-02
RMM:   7    -0.231702545803E+04    0.93581E-05   -0.85330E-05  3083   0.667E-03
  20 F= -.23379058E+04 E0= -.23379033E+04  d E =-.253276E-01  mag=     3.9424
       N       E                     dE             d eps       ncg     rms          rms(c)
DAV:   1    -0.231697747529E+04    0.47992E-01   -0.46733E+00  4448   0.198E+00    0.689E-01
RMM:   2    -0.231703727425E+04   -0.59799E-01   -0.61314E-01  6439   0.460E-01    0.684E-01
RMM:   3    -0.231703750750E+04   -0.23325E-03   -0.56545E-02  6024   0.141E-01    0.419E-01
RMM:   4    -0.231703596161E+04    0.15459E-02   -0.57611E-03  5312   0.356E-02    0.183E-01
RMM:   5    -0.231703556008E+04    0.40153E-03   -0.13986E-03  5111   0.238E-02    0.889E-02
RMM:   6    -0.231703562693E+04   -0.66856E-04   -0.56001E-04  4805   0.170E-02    0.922E-02
RMM:   7    -0.231703552061E+04    0.10632E-03   -0.15094E-04  3343   0.811E-03    0.351E-02
RMM:   8    -0.231703550350E+04    0.17114E-04   -0.20735E-05  2909   0.450E-03    0.126E-02
RMM:   9    -0.231703549892E+04    0.45815E-05   -0.20655E-05  2923   0.355E-03
  21 F= -.23379157E+04 E0= -.23379127E+04  d E =-.352517E-01  mag=     3.9245
       N       E                     dE             d eps       ncg     rms          rms(c)
DAV:   1    -0.231701055510E+04    0.24948E-01   -0.40735E+00  4448   0.177E+00    0.599E-01
RMM:   2    -0.231706102914E+04   -0.50474E-01   -0.51526E-01  6506   0.417E-01    0.669E-01
RMM:   3    -0.231705966586E+04    0.13633E-02   -0.45322E-02  6030   0.120E-01    0.346E-01
RMM:   4    -0.231705875733E+04    0.90853E-03   -0.45710E-03  5210   0.295E-02    0.167E-01
RMM:   5    -0.231705839444E+04    0.36289E-03   -0.11099E-03  4950   0.203E-02    0.829E-02
RMM:   6    -0.231705841627E+04   -0.21831E-04   -0.42112E-04  4450   0.158E-02    0.616E-02
RMM:   7    -0.231705841063E+04    0.56399E-05   -0.93040E-05  3017   0.655E-03
  22 F= -.23379380E+04 E0= -.23379335E+04  d E =-.222555E-01  mag=     3.8886
       N       E                     dE             d eps       ncg     rms          rms(c)
DAV:   1    -0.231700834746E+04    0.50069E-01   -0.50450E+00  4432   0.197E+00    0.674E-01
RMM:   2    -0.231707131423E+04   -0.62967E-01   -0.64360E-01  6504   0.468E-01    0.747E-01
RMM:   3    -0.231706987938E+04    0.14348E-02   -0.57056E-02  6065   0.135E-01    0.411E-01
RMM:   4    -0.231706867592E+04    0.12035E-02   -0.57377E-03  5243   0.326E-02    0.211E-01
RMM:   5    -0.231706794544E+04    0.73048E-03   -0.14970E-03  4874   0.222E-02    0.117E-01
RMM:   6    -0.231706794246E+04    0.29726E-05   -0.93871E-04  4715   0.194E-02    0.121E-01
RMM:   7    -0.231706788523E+04    0.57238E-04   -0.28427E-04  3724   0.106E-02    0.633E-02
RMM:   8    -0.231706806327E+04   -0.17805E-03   -0.75902E-05  3078   0.623E-03    0.257E-02
RMM:   9    -0.231706826151E+04   -0.19823E-03   -0.73820E-05  3198   0.525E-03    0.164E-02
RMM:  10    -0.231706835901E+04   -0.97496E-04   -0.24976E-05  2939   0.428E-03    0.130E-02
RMM:  11    -0.231706839619E+04   -0.37183E-04   -0.84567E-06  2829   0.316E-03    0.141E-02
RMM:  12    -0.231706842413E+04   -0.27939E-04   -0.64064E-06  2730   0.257E-03    0.121E-02
RMM:  13    -0.231706845818E+04   -0.34055E-04   -0.15889E-05  2871   0.282E-03    0.882E-03
RMM:  14    -0.231706848090E+04   -0.22714E-04   -0.25896E-05  2874   0.338E-03    0.412E-03
RMM:  15    -0.231706848544E+04   -0.45473E-05   -0.11119E-05  2674   0.298E-03
  23 F= -.23379473E+04 E0= -.23379394E+04  d E =-.315292E-01  mag=     3.7229
       N       E                     dE             d eps       ncg     rms          rms(c)
DAV:   1    -0.231705598348E+04    0.12497E-01   -0.17427E+00  4480   0.125E+00    0.454E-01
RMM:   2    -0.231708200706E+04   -0.26024E-01   -0.26219E-01  6361   0.298E-01    0.464E-01
RMM:   3    -0.231708177141E+04    0.23565E-03   -0.21465E-02  5688   0.898E-02    0.392E-01
RMM:   4    -0.231708108854E+04    0.68287E-03   -0.23486E-03  4916   0.214E-02    0.289E-01
RMM:   5    -0.231708090287E+04    0.18566E-03   -0.18900E-04  3396   0.101E-02    0.298E-01
RMM:   6    -0.231708096831E+04   -0.65438E-04   -0.27820E-05  2906   0.417E-03    0.298E-01
RMM:   7    -0.231708097081E+04   -0.25005E-05   -0.53267E-04  3833   0.993E-03    0.243E-01
RMM:   8    -0.231707998307E+04    0.98774E-03   -0.78094E-03  4918   0.385E-02    0.264E-01
RMM:   9    -0.231707810879E+04    0.18743E-02   -0.51529E-03  4756   0.349E-02    0.433E-01
RMM:  10    -0.231708054839E+04   -0.24396E-02   -0.84287E-03  4735   0.383E-02    0.201E-01
RMM:  11    -0.231708054070E+04    0.76928E-05   -0.18580E-03  4545   0.231E-02    0.100E-01
RMM:  12    -0.231708070463E+04   -0.16393E-03   -0.10200E-03  4777   0.137E-02    0.886E-02
RMM:  13    -0.231708079565E+04   -0.91022E-04   -0.32400E-04  3730   0.101E-02    0.981E-02
RMM:  14    -0.231708092285E+04   -0.12719E-03   -0.36230E-04  3944   0.886E-03    0.117E-01
RMM:  15    -0.231708085759E+04    0.65260E-04   -0.55526E-05  2918   0.537E-03    0.101E-01
RMM:  16    -0.231708065871E+04    0.19887E-03   -0.12383E-03  4418   0.146E-02    0.114E-01
RMM:  17    -0.231708028121E+04    0.37751E-03   -0.23218E-03  4763   0.220E-02    0.160E-01
RMM:  18    -0.231708005622E+04    0.22499E-03   -0.79782E-04  4223   0.129E-02    0.198E-01
RMM:  19    -0.231708036095E+04   -0.30474E-03   -0.43444E-04  3758   0.936E-03    0.177E-01
RMM:  20    -0.231708070639E+04   -0.34544E-03   -0.17875E-03  4531   0.181E-02    0.143E-01
RMM:  21    -0.231708103119E+04   -0.32480E-03   -0.19468E-03  4662   0.201E-02    0.146E-01
RMM:  22    -0.231708133512E+04   -0.30392E-03   -0.13103E-03  4524   0.157E-02    0.173E-01
RMM:  23    -0.231708132383E+04    0.11287E-04   -0.11504E-04  2989   0.671E-03    0.161E-01
RMM:  24    -0.231708131576E+04    0.80686E-05   -0.91470E-06  2798   0.252E-03
  24 F= -.23379594E+04 E0= -.23379476E+04  d E =-.121884E-01  mag=     3.5182
       N       E                     dE             d eps       ncg     rms          rms(c)
DAV:   1    -0.231706114253E+04    0.20181E-01   -0.19434E+00  4432   0.132E+00    0.609E-01
RMM:   2    -0.231709237941E+04   -0.31237E-01   -0.30063E-01  6366   0.318E-01    0.726E-01
RMM:   3    -0.231709139931E+04    0.98010E-03   -0.26936E-02  5509   0.973E-02    0.927E-01
RMM:   4    -0.231709260286E+04   -0.12035E-02   -0.44727E-03  4856   0.269E-02    0.869E-01
RMM:   5    -0.231709166577E+04    0.93709E-03   -0.73903E-03  4962   0.379E-02    0.563E-01
RMM:   6    -0.231708851612E+04    0.31496E-02   -0.37223E-03  5346   0.276E-02    0.395E-01
RMM:   7    -0.231708674166E+04    0.17745E-02   -0.31894E-03  4805   0.249E-02    0.377E-01
RMM:   8    -0.231708208206E+04    0.46596E-02   -0.67795E-03  4777   0.398E-02    0.370E-01
RMM:   9    -0.231708150663E+04    0.57544E-03   -0.84037E-04  4248   0.206E-02    0.402E-01
RMM:  10    -0.231708627498E+04   -0.47683E-02   -0.56284E-03  4549   0.317E-02    0.402E-01
RMM:  11    -0.231709110248E+04   -0.48275E-02   -0.21766E-02  4940   0.642E-02    0.629E-01
RMM:  12    -0.231709088230E+04    0.22017E-03   -0.16040E-03  4592   0.290E-02    0.558E-01
RMM:  13    -0.231709104094E+04   -0.15864E-03   -0.22524E-04  3395   0.593E-03    0.619E-01
RMM:  14    -0.231709198113E+04   -0.94019E-03   -0.16626E-04  3342   0.756E-03    0.781E-01
RMM:  15    -0.231709390755E+04   -0.19264E-02   -0.51796E-04  3961   0.112E-02    0.100E+00
RMM:  16    -0.231709634728E+04   -0.24397E-02   -0.71096E-04  4130   0.129E-02    0.121E+00
RMM:  17    -0.231709803752E+04   -0.16902E-02   -0.34180E-04  3551   0.992E-03    0.133E+00
RMM:  18    -0.231710490968E+04   -0.68722E-02   -0.39757E-03  4776   0.268E-02    0.164E+00
RMM:  19    -0.231710724813E+04   -0.23385E-02   -0.98060E-04  4141   0.185E-02    0.167E+00
RMM:  20    -0.231711106530E+04   -0.38172E-02   -0.20222E-03  4723   0.183E-02    0.169E+00
RMM:  21    -0.231711277585E+04   -0.17105E-02   -0.26522E-03  4842   0.240E-02    0.156E+00
RMM:  22    -0.231710808164E+04    0.46942E-02   -0.15163E-03  4452   0.166E-02    0.155E+00
RMM:  23    -0.231710795104E+04    0.13060E-03   -0.10307E-04  3010   0.738E-03    0.153E+00
RMM:  24    -0.231710612899E+04    0.18221E-02   -0.57443E-04  3974   0.100E-02    0.153E+00
RMM:  25    -0.231709839342E+04    0.77356E-02   -0.12401E-02  5004   0.460E-02    0.133E+00
RMM:  26    -0.231709369126E+04    0.47022E-02   -0.83918E-03  4973   0.435E-02    0.109E+00
RMM:  27    -0.231709421615E+04   -0.52489E-03   -0.52971E-04  3939   0.132E-02    0.119E+00
RMM:  28    -0.231709781039E+04   -0.35942E-02   -0.36574E-03  4638   0.248E-02    0.139E+00
RMM:  29    -0.231709760691E+04    0.20347E-03   -0.24845E-04  3308   0.123E-02    0.134E+00
RMM:  30    -0.231709352855E+04    0.40784E-02   -0.25012E-03  4534   0.209E-02    0.101E+00
RMM:  31    -0.231708924125E+04    0.42873E-02   -0.11186E-02  5017   0.463E-02    0.574E-01
RMM:  32    -0.231708814340E+04    0.10978E-02   -0.19924E-03  4693   0.253E-02    0.550E-01
RMM:  33    -0.231708728182E+04    0.86158E-03   -0.21709E-03  4823   0.192E-02    0.500E-01
RMM:  34    -0.231708820473E+04   -0.92291E-03   -0.20826E-03  4715   0.197E-02    0.528E-01
RMM:  35    -0.231708821049E+04   -0.57622E-05   -0.46529E-04  3939   0.115E-02    0.479E-01
RMM:  36    -0.231708845873E+04   -0.24824E-03   -0.57028E-04  4247   0.108E-02    0.470E-01
RMM:  37    -0.231708852454E+04   -0.65808E-04   -0.61500E-05  2967   0.602E-03    0.468E-01
RMM:  38    -0.231708839098E+04    0.13356E-03   -0.12945E-05  2783   0.288E-03    0.449E-01
RMM:  39    -0.231708765605E+04    0.73492E-03   -0.79607E-04  4035   0.115E-02    0.387E-01
RMM:  40    -0.231708578661E+04    0.18694E-02   -0.69806E-03  4853   0.358E-02    0.399E-01
RMM:  41    -0.231708460493E+04    0.11817E-02   -0.25842E-03  4589   0.264E-02    0.493E-01
RMM:  42    -0.231708503138E+04   -0.42645E-03   -0.16885E-04  3178   0.710E-03    0.460E-01
RMM:  43    -0.231708506092E+04   -0.29544E-04   -0.25856E-05  2863   0.391E-03    0.444E-01
RMM:  44    -0.231708507071E+04   -0.97910E-05   -0.15094E-05  2659   0.233E-03
  25 F= -.23379625E+04 E0= -.23379563E+04  d E =-.152351E-01  mag=     3.8793
       N       E                     dE             d eps       ncg     rms          rms(c)
DAV:   1    -0.231706866739E+04    0.16394E-01   -0.20232E+00  4464   0.136E+00    0.612E-01
RMM:   2    -0.231709895536E+04   -0.30288E-01   -0.31554E-01  6378   0.322E-01    0.600E-01
RMM:   3    -0.231709955032E+04   -0.59496E-03   -0.34886E-02  5528   0.114E-01    0.571E-01
RMM:   4    -0.231709760721E+04    0.19431E-02   -0.39922E-03  5098   0.270E-02    0.589E-01
RMM:   5    -0.231710168211E+04   -0.40749E-02   -0.45199E-03  4716   0.285E-02    0.784E-01
RMM:   6    -0.231709933488E+04    0.23472E-02   -0.70334E-03  4940   0.380E-02    0.566E-01
RMM:   7    -0.231709872025E+04    0.61462E-03   -0.13484E-03  4475   0.203E-02    0.625E-01
RMM:   8    -0.231709742860E+04    0.12917E-02   -0.49538E-02  4699   0.932E-02    0.614E-01
RMM:   9    -0.231709304800E+04    0.43806E-02   -0.20950E-02  4759   0.782E-02    0.773E-01
RMM:  10    -0.231709736646E+04   -0.43185E-02   -0.11299E-02  4626   0.461E-02    0.318E-01
RMM:  11    -0.231709895723E+04   -0.15908E-02   -0.23440E-02  4826   0.666E-02    0.381E-01
RMM:  12    -0.231709502759E+04    0.39296E-02   -0.21531E-02  5129   0.693E-02    0.684E-01
RMM:  13    -0.231709479323E+04    0.23437E-03   -0.20891E-03  5083   0.250E-02    0.709E-01
RMM:  14    -0.231709496245E+04   -0.16922E-03   -0.17753E-04  3206   0.482E-03    0.701E-01
RMM:  15    -0.231709569356E+04   -0.73111E-03   -0.15869E-04  3188   0.648E-03    0.660E-01
RMM:  16    -0.231709891079E+04   -0.32172E-02   -0.48807E-03  4838   0.291E-02    0.533E-01
RMM:  17    -0.231710153609E+04   -0.26253E-02   -0.89028E-03  5002   0.430E-02    0.584E-01
RMM:  18    -0.231710109767E+04    0.43842E-03   -0.41805E-04  3851   0.148E-02    0.541E-01
RMM:  19    -0.231710113948E+04   -0.41806E-04   -0.67240E-05  2957   0.392E-03    0.554E-01
RMM:  20    -0.231710101823E+04    0.12125E-03   -0.19914E-05  2742   0.301E-03    0.550E-01
RMM:  21    -0.231709942246E+04    0.15958E-02   -0.40391E-03  4657   0.260E-02    0.568E-01
RMM:  22    -0.231709705777E+04    0.23647E-02   -0.68532E-03  4985   0.390E-02    0.743E-01
RMM:  23    -0.231709757701E+04   -0.51923E-03   -0.28262E-04  3673   0.118E-02    0.712E-01
RMM:  24    -0.231709922344E+04   -0.16464E-02   -0.31474E-03  4610   0.236E-02    0.586E-01
RMM:  25    -0.231710110025E+04   -0.18768E-02   -0.96158E-03  5012   0.438E-02    0.490E-01
RMM:  26    -0.231710251956E+04   -0.14193E-02   -0.62791E-03  5086   0.364E-02    0.511E-01
RMM:  27    -0.231710304618E+04   -0.52662E-03   -0.13174E-03  4896   0.158E-02    0.528E-01
RMM:  28    -0.231710339621E+04   -0.35003E-03   -0.31438E-04  3625   0.820E-03    0.550E-01
RMM:  29    -0.231710305462E+04    0.34159E-03   -0.84926E-05  2962   0.547E-03    0.517E-01
RMM:  30    -0.231710154883E+04    0.15058E-02   -0.31175E-03  4600   0.228E-02    0.422E-01
RMM:  31    -0.231709963743E+04    0.19114E-02   -0.76132E-03  5021   0.392E-02    0.436E-01
RMM:  32    -0.231709413536E+04    0.55021E-02   -0.29011E-02  5010   0.734E-02    0.872E-01
RMM:  33    -0.231709299753E+04    0.11378E-02   -0.33802E-03  4681   0.380E-02    0.961E-01
RMM:  34    -0.231709347815E+04   -0.48062E-03   -0.34744E-04  3565   0.695E-03    0.933E-01
RMM:  35    -0.231709364196E+04   -0.16381E-03   -0.30297E-05  2921   0.549E-03    0.914E-01
RMM:  36    -0.231709517368E+04   -0.15317E-02   -0.95784E-04  4293   0.132E-02    0.795E-01
RMM:  37    -0.231709863053E+04   -0.34569E-02   -0.96035E-03  5008   0.427E-02    0.535E-01
RMM:  38    -0.231709992767E+04   -0.12971E-02   -0.51844E-03  4973   0.355E-02    0.448E-01
RMM:  39    -0.231710012178E+04   -0.19410E-03   -0.95987E-04  4634   0.134E-02    0.419E-01
RMM:  40    -0.231710094648E+04   -0.82470E-03   -0.14998E-03  4589   0.166E-02    0.427E-01
RMM:  41    -0.231710182541E+04   -0.87893E-03   -0.17369E-03  4649   0.195E-02    0.448E-01
RMM:  42    -0.231710245158E+04   -0.62617E-03   -0.10016E-03  4359   0.146E-02    0.470E-01
RMM:  43    -0.231710279823E+04   -0.34665E-03   -0.35181E-04  3766   0.918E-03    0.484E-01
RMM:  44    -0.231710290453E+04   -0.10630E-03   -0.52287E-05  2962   0.506E-03    0.488E-01
RMM:  45    -0.231710284956E+04    0.54968E-04   -0.53089E-06  2831   0.280E-03    0.482E-01
RMM:  46    -0.231710281428E+04    0.35283E-04   -0.24089E-06  2491   0.149E-03    0.481E-01
RMM:  47    -0.231710295713E+04   -0.14285E-03   -0.18724E-05  2758   0.213E-03    0.492E-01
RMM:  48    -0.231710262068E+04    0.33645E-03   -0.10297E-04  2862   0.445E-03    0.463E-01
RMM:  49    -0.231710134899E+04    0.12717E-02   -0.24461E-03  4528   0.201E-02    0.391E-01
RMM:  50    -0.231709905477E+04    0.22942E-02   -0.10189E-02  5000   0.441E-02    0.422E-01
RMM:  51    -0.231709726190E+04    0.17929E-02   -0.54571E-03  4978   0.353E-02    0.552E-01
RMM:  52    -0.231709695084E+04    0.31106E-03   -0.86271E-04  4635   0.124E-02    0.577E-01
RMM:  53    -0.231709666898E+04    0.28186E-03   -0.13087E-04  3160   0.593E-03    0.595E-01
RMM:  54    -0.231709649917E+04    0.16980E-03   -0.35576E-05  2956   0.418E-03    0.606E-01
RMM:  55    -0.231709660965E+04   -0.11047E-03   -0.66170E-06  2786   0.275E-03    0.600E-01
RMM:  56    -0.231709709857E+04   -0.48892E-03   -0.15123E-04  3109   0.530E-03    0.567E-01
RMM:  57    -0.231709821951E+04   -0.11209E-02   -0.12016E-03  4267   0.145E-02    0.492E-01
RMM:  58    -0.231709929648E+04   -0.10770E-02   -0.17927E-03  4515   0.193E-02    0.438E-01
RMM:  59    -0.231710003192E+04   -0.73544E-03   -0.13827E-03  4579   0.168E-02    0.414E-01
RMM:  60    -0.231710123327E+04   -0.12013E-02   -0.29734E-03  4773   0.236E-02    0.432E-01
RMM:  61    -0.231710268278E+04   -0.14495E-02   -0.35538E-03  4851   0.273E-02    0.505E-01
RMM:  62    -0.231710371928E+04   -0.10365E-02   -0.20375E-03  4679   0.203E-02    0.556E-01
RMM:  63    -0.231710417998E+04   -0.46070E-03   -0.55615E-04  4097   0.107E-02    0.578E-01
RMM:  64    -0.231710434156E+04   -0.16157E-03   -0.72046E-05  3015   0.541E-03    0.586E-01
RMM:  65    -0.231710460497E+04   -0.26341E-03   -0.57538E-05  2983   0.444E-03    0.605E-01
RMM:  66    -0.231710442041E+04    0.18456E-03   -0.16586E-05  2796   0.334E-03    0.586E-01
RMM:  67    -0.231710389327E+04    0.52715E-03   -0.19880E-04  3299   0.588E-03    0.549E-01
RMM:  68    -0.231710296036E+04    0.93291E-03   -0.83060E-04  4184   0.120E-02    0.485E-01
RMM:  69    -0.231710227934E+04    0.68102E-03   -0.66972E-04  4024   0.118E-02    0.450E-01
RMM:  70    -0.231710236510E+04   -0.85764E-04   -0.38669E-05  2844   0.470E-03    0.460E-01
RMM:  71    -0.231710240162E+04   -0.36511E-04   -0.80809E-06  2555   0.199E-03    0.456E-01
RMM:  72    -0.231710223730E+04    0.16432E-03   -0.31947E-05  2669   0.258E-03    0.444E-01
RMM:  73    -0.231710202442E+04    0.21288E-03   -0.62976E-05  2960   0.362E-03    0.432E-01
RMM:  74    -0.231710199884E+04    0.25574E-04   -0.82608E-06  2559   0.241E-03    0.434E-01
RMM:  75    -0.231710213106E+04   -0.13222E-03   -0.15629E-05  2392   0.198E-03    0.444E-01
RMM:  76    -0.231710232173E+04   -0.19067E-03   -0.46046E-05  2856   0.298E-03    0.456E-01
RMM:  77    -0.231710169803E+04    0.62371E-03   -0.55334E-04  4046   0.962E-03    0.416E-01
RMM:  78    -0.231710285048E+04   -0.11525E-02   -0.12583E-03  4411   0.140E-02    0.512E-01
RMM:  79    -0.231710297822E+04   -0.12774E-03   -0.13578E-04  3020   0.734E-03    0.500E-01
RMM:  80    -0.231710291435E+04    0.63872E-04   -0.12062E-05  2810   0.281E-03    0.500E-01
RMM:  81    -0.231710287119E+04    0.43157E-04   -0.46714E-06  2320   0.147E-03    0.501E-01
RMM:  82    -0.231710301640E+04   -0.14521E-03   -0.22988E-05  2561   0.215E-03    0.510E-01
RMM:  83    -0.231710305604E+04   -0.39639E-04   -0.49861E-06  2399   0.169E-03    0.510E-01
RMM:  84    -0.231710306414E+04   -0.80992E-05   -0.14296E-06  2087   0.110E-03
  26 F= -.23379797E+04 E0= -.23379664E+04  d E =-.171646E-01  mag=     3.4471
       N       E                     dE             d eps       ncg     rms          rms(c)
DAV:   1    -0.231697951004E+04    0.12355E+00   -0.88149E+00  4440   0.283E+00    0.127E+00
RMM:   2    -0.231711723066E+04   -0.13772E+00   -0.14122E+00  6361   0.681E-01    0.146E+00
RMM:   3    -0.231711845566E+04   -0.12250E-02   -0.15181E-01  5482   0.235E-01    0.179E+00
RMM:   4    -0.231712563913E+04   -0.71835E-02   -0.16679E-02  5613   0.464E-02    0.193E+00
RMM:   5    -0.231712883555E+04   -0.31964E-02   -0.32551E-02  5228   0.772E-02    0.144E+00
RMM:   6    -0.231711313543E+04    0.15700E-01   -0.38437E-02  5330   0.842E-02    0.856E-01
RMM:   7    -0.231710029836E+04    0.12837E-01   -0.22666E-02  5223   0.658E-02    0.976E-01
RMM:   8    -0.231707640217E+04    0.23896E-01   -0.26186E-02  4777   0.765E-02    0.121E+00
RMM:   9    -0.231710985693E+04   -0.33455E-01   -0.61967E-02  4720   0.104E-01    0.791E-01
RMM:  10    -0.231712018255E+04   -0.10326E-01   -0.94774E-02  4993   0.138E-01    0.788E-01
RMM:  11    -0.231713188315E+04   -0.11701E-01   -0.65531E-02  5044   0.121E-01    0.117E+00
RMM:  12    -0.231712489649E+04    0.69867E-02   -0.77460E-03  4845   0.487E-02    0.830E-01
RMM:  13    -0.231712169363E+04    0.32029E-02   -0.55326E-03  4725   0.339E-02    0.853E-01
RMM:  14    -0.231711714046E+04    0.45532E-02   -0.13809E-02  5023   0.508E-02    0.775E-01
RMM:  15    -0.231711159191E+04    0.55485E-02   -0.30692E-02  5183   0.760E-02    0.846E-01
RMM:  16    -0.231711068570E+04    0.90621E-03   -0.28801E-03  4984   0.322E-02    0.845E-01
RMM:  17    -0.231711026167E+04    0.42403E-03   -0.65973E-04  4137   0.944E-03    0.861E-01
RMM:  18    -0.231711139592E+04   -0.11343E-02   -0.54697E-04  4037   0.113E-02    0.846E-01
RMM:  19    -0.231711143299E+04   -0.37063E-04   -0.39701E-05  2876   0.501E-03    0.845E-01
RMM:  20    -0.231711052578E+04    0.90720E-03   -0.16361E-04  3073   0.562E-03    0.831E-01
RMM:  21    -0.231710986744E+04    0.65834E-03   -0.82966E-04  4461   0.130E-02    0.671E-01
RMM:  22    -0.231711936618E+04   -0.94987E-02   -0.24068E-02  5039   0.638E-02    0.113E+00
RMM:  23    -0.231711916750E+04    0.19868E-03   -0.50670E-03  4810   0.407E-02    0.102E+00
RMM:  24    -0.231712031063E+04   -0.11431E-02   -0.16323E-03  4709   0.152E-02    0.106E+00
RMM:  25    -0.231712596249E+04   -0.56519E-02   -0.39662E-03  4798   0.286E-02    0.126E+00
RMM:  26    -0.231712891312E+04   -0.29506E-02   -0.19938E-03  4816   0.229E-02    0.128E+00
RMM:  27    -0.231712826753E+04    0.64559E-03   -0.15121E-04  3080   0.671E-03    0.126E+00
RMM:  28    -0.231712761216E+04    0.65537E-03   -0.19538E-04  3313   0.662E-03    0.129E+00
RMM:  29    -0.231712579058E+04    0.18216E-02   -0.92445E-04  4426   0.129E-02    0.131E+00
RMM:  30    -0.231711924211E+04    0.65485E-02   -0.94077E-03  4938   0.400E-02    0.117E+00
RMM:  31    -0.231711373274E+04    0.55094E-02   -0.15579E-02  5240   0.549E-02    0.100E+00
RMM:  32    -0.231711547008E+04   -0.17373E-02   -0.10563E-03  4587   0.196E-02    0.116E+00
RMM:  33    -0.231711553503E+04   -0.64944E-04   -0.11518E-04  3022   0.675E-03    0.113E+00
RMM:  34    -0.231711655529E+04   -0.10203E-02   -0.48142E-04  3983   0.928E-03    0.118E+00
RMM:  35    -0.231711639859E+04    0.15670E-03   -0.19157E-05  2804   0.499E-03    0.116E+00
RMM:  36    -0.231711625823E+04    0.14036E-03   -0.17659E-05  2717   0.240E-03    0.113E+00
RMM:  37    -0.231711382779E+04    0.24304E-02   -0.28643E-03  4595   0.217E-02    0.966E-01
RMM:  38    -0.231711263469E+04    0.11931E-02   -0.15895E-03  4270   0.204E-02    0.889E-01
RMM:  39    -0.231711061695E+04    0.20177E-02   -0.29397E-03  4851   0.229E-02    0.745E-01
RMM:  40    -0.231711040490E+04    0.21205E-03   -0.28056E-04  3451   0.120E-02    0.743E-01
RMM:  41    -0.231710876239E+04    0.16425E-02   -0.23168E-03  4665   0.201E-02    0.651E-01
RMM:  42    -0.231710747642E+04    0.12860E-02   -0.16145E-03  4347   0.202E-02    0.631E-01
RMM:  43    -0.231710621555E+04    0.12609E-02   -0.18687E-03  4763   0.185E-02    0.651E-01
RMM:  44    -0.231710638261E+04   -0.16706E-03   -0.75694E-05  3002   0.762E-03    0.656E-01
RMM:  45    -0.231710642951E+04   -0.46894E-04   -0.11786E-05  2826   0.240E-03    0.651E-01
RMM:  46    -0.231710600653E+04    0.42297E-03   -0.17257E-04  3339   0.592E-03    0.673E-01
RMM:  47    -0.231710630757E+04   -0.30104E-03   -0.25063E-04  3483   0.755E-03    0.623E-01
RMM:  48    -0.231710686787E+04   -0.56029E-03   -0.40988E-04  3973   0.901E-03    0.590E-01
RMM:  49    -0.231710807034E+04   -0.12025E-02   -0.22478E-03  4562   0.199E-02    0.503E-01
RMM:  50    -0.231710867981E+04   -0.60947E-03   -0.85618E-04  4235   0.153E-02    0.479E-01
RMM:  51    -0.231710938249E+04   -0.70268E-03   -0.81189E-04  4526   0.123E-02    0.473E-01
RMM:  52    -0.231711006664E+04   -0.68414E-03   -0.48974E-04  3939   0.116E-02    0.496E-01
RMM:  53    -0.231710966712E+04    0.39952E-03   -0.89937E-05  2952   0.522E-03    0.475E-01
RMM:  54    -0.231710994464E+04   -0.27753E-03   -0.56654E-05  2854   0.369E-03    0.489E-01
RMM:  55    -0.231711056451E+04   -0.61986E-03   -0.37250E-04  3883   0.820E-03    0.499E-01
RMM:  56    -0.231710674044E+04    0.38241E-02   -0.15194E-02  4822   0.500E-02    0.513E-01
RMM:  57    -0.231710596383E+04    0.77661E-03   -0.16078E-03  4289   0.273E-02    0.577E-01
RMM:  58    -0.231709917798E+04    0.67858E-02   -0.24015E-02  4936   0.642E-02    0.992E-01
RMM:  59    -0.231709765994E+04    0.15180E-02   -0.27049E-03  4479   0.352E-02    0.109E+00
RMM:  60    -0.231709852722E+04   -0.86728E-03   -0.27459E-04  3638   0.695E-03    0.104E+00
RMM:  61    -0.231709873236E+04   -0.20515E-03   -0.20010E-05  2862   0.392E-03    0.104E+00
RMM:  62    -0.231710018652E+04   -0.14542E-02   -0.54869E-04  4041   0.970E-03    0.943E-01
RMM:  63    -0.231710361492E+04   -0.34284E-02   -0.46313E-03  4914   0.296E-02    0.730E-01
RMM:  64    -0.231710586887E+04   -0.22540E-02   -0.44079E-03  5030   0.311E-02    0.597E-01
RMM:  65    -0.231710886365E+04   -0.29948E-02   -0.10150E-02  4957   0.429E-02    0.509E-01
RMM:  66    -0.231711093941E+04   -0.20758E-02   -0.64582E-03  4772   0.399E-02    0.519E-01
RMM:  67    -0.231711183186E+04   -0.89245E-03   -0.19714E-03  5002   0.195E-02    0.527E-01
RMM:  68    -0.231711123923E+04    0.59263E-03   -0.18955E-04  3531   0.808E-03    0.492E-01
RMM:  69    -0.231711104668E+04    0.19255E-03   -0.56844E-05  2929   0.441E-03    0.500E-01
RMM:  70    -0.231711007330E+04    0.97338E-03   -0.89148E-04  4377   0.124E-02    0.471E-01
RMM:  71    -0.231710807797E+04    0.19953E-02   -0.40566E-03  4812   0.277E-02    0.462E-01
RMM:  72    -0.231710803644E+04    0.41535E-04   -0.31798E-04  3606   0.121E-02    0.482E-01
RMM:  73    -0.231710766594E+04    0.37050E-03   -0.21735E-04  3432   0.602E-03    0.476E-01
RMM:  74    -0.231710757939E+04    0.86547E-04   -0.24941E-05  2913   0.423E-03    0.480E-01
RMM:  75    -0.231710758169E+04   -0.23044E-05   -0.36527E-06  2549   0.183E-03
  27 F= -.23379824E+04 E0= -.23379724E+04  d E =-.198918E-01  mag=     3.8038
       N       E                     dE             d eps       ncg     rms          rms(c)
DAV:   1    -0.231710140937E+04    0.61700E-02   -0.42441E-01  4480   0.620E-01    0.457E-01
RMM:   2    -0.231710973979E+04   -0.83304E-02   -0.67050E-02  6323   0.149E-01    0.736E-01
RMM:   3    -0.231711063594E+04   -0.89614E-03   -0.77319E-03  5312   0.541E-02    0.764E-01
RMM:   4    -0.231710866855E+04    0.19674E-02   -0.21245E-03  4565   0.219E-02    0.544E-01
RMM:   5    -0.231710532580E+04    0.33427E-02   -0.10710E-02  4749   0.435E-02    0.779E-01
RMM:   6    -0.231710693442E+04   -0.16086E-02   -0.64882E-04  3909   0.202E-02    0.796E-01
RMM:   7    -0.231710972665E+04   -0.27922E-02   -0.16800E-02  4770   0.550E-02    0.459E-01
RMM:   8    -0.231711012183E+04   -0.39518E-03   -0.15509E-02  4910   0.601E-02    0.441E-01
RMM:   9    -0.231710977303E+04    0.34880E-03   -0.26135E-03  4511   0.260E-02    0.325E-01
RMM:  10    -0.231710725100E+04    0.25220E-02   -0.21765E-02  4975   0.621E-02    0.550E-01
RMM:  11    -0.231710355688E+04    0.36941E-02   -0.11681E-02  4986   0.523E-02    0.783E-01
RMM:  12    -0.231711217149E+04   -0.86146E-02   -0.45246E-02  4861   0.865E-02    0.618E-01
RMM:  13    -0.231711510966E+04   -0.29382E-02   -0.22525E-02  4959   0.741E-02    0.699E-01
RMM:  14    -0.231711751001E+04   -0.24003E-02   -0.73327E-03  5284   0.368E-02    0.768E-01
RMM:  15    -0.231711252958E+04    0.49804E-02   -0.96306E-03  4900   0.397E-02    0.370E-01
RMM:  16    -0.231710296744E+04    0.95621E-02   -0.82174E-02  5001   0.122E-01    0.646E-01
RMM:  17    -0.231709225274E+04    0.10715E-01   -0.30784E-02  4987   0.928E-02    0.122E+00
RMM:  18    -0.231710086113E+04   -0.86084E-02   -0.62782E-03  4759   0.357E-02    0.754E-01
RMM:  19    -0.231710068104E+04    0.18010E-03   -0.30427E-04  3459   0.114E-02    0.727E-01
RMM:  20    -0.231710064806E+04    0.32978E-04   -0.85321E-05  3047   0.467E-03    0.706E-01
RMM:  21    -0.231710529119E+04   -0.46431E-02   -0.83889E-03  4891   0.385E-02    0.402E-01
RMM:  22    -0.231710797892E+04   -0.26877E-02   -0.69853E-03  4822   0.403E-02    0.313E-01
RMM:  23    -0.231710944387E+04   -0.14650E-02   -0.33099E-03  5006   0.253E-02    0.345E-01
RMM:  24    -0.231711095591E+04   -0.15120E-02   -0.24838E-03  4771   0.221E-02    0.411E-01
RMM:  25    -0.231711149354E+04   -0.53763E-03   -0.68323E-04  4324   0.136E-02    0.422E-01
RMM:  26    -0.231711150051E+04   -0.69660E-05   -0.64188E-05  2977   0.461E-03
  28 F= -.23379867E+04 E0= -.23379738E+04  d E =-.242094E-01  mag=     3.5006
       N       E                     dE             d eps       ncg     rms          rms(c)
DAV:   1    -0.231709987107E+04    0.11622E-01   -0.13540E+00  4448   0.107E+00    0.690E-01
RMM:   2    -0.231712511379E+04   -0.25243E-01   -0.21940E-01  6436   0.262E-01    0.102E+00
RMM:   3    -0.231712510077E+04    0.13020E-04   -0.23099E-02  5474   0.852E-02    0.106E+00
RMM:   4    -0.231712404369E+04    0.10571E-02   -0.11339E-02  4821   0.465E-02    0.901E-01
RMM:   5    -0.231712084384E+04    0.31999E-02   -0.10586E-02  5501   0.477E-02    0.712E-01
RMM:   6    -0.231711512404E+04    0.57198E-02   -0.80154E-03  5104   0.384E-02    0.644E-01
RMM:   7    -0.231711270725E+04    0.24168E-02   -0.22531E-03  4488   0.225E-02    0.671E-01
RMM:   8    -0.231711552467E+04   -0.28174E-02   -0.92097E-04  4066   0.141E-02    0.704E-01
RMM:   9    -0.231711673842E+04   -0.12137E-02   -0.83531E-04  4127   0.129E-02    0.656E-01
RMM:  10    -0.231712715379E+04   -0.10415E-01   -0.42921E-02  4889   0.869E-02    0.887E-01
RMM:  11    -0.231711815984E+04    0.89939E-02   -0.31996E-02  5075   0.746E-02    0.456E-01
RMM:  12    -0.231711292095E+04    0.52389E-02   -0.14094E-02  5215   0.557E-02    0.586E-01
RMM:  13    -0.231710085356E+04    0.12067E-01   -0.42190E-02  4989   0.867E-02    0.119E+00
RMM:  14    -0.231710788053E+04   -0.70270E-02   -0.67284E-03  4925   0.472E-02    0.825E-01
RMM:  15    -0.231711014678E+04   -0.22662E-02   -0.44846E-03  4758   0.306E-02    0.621E-01
RMM:  16    -0.231711631530E+04   -0.61685E-02   -0.18979E-02  4975   0.600E-02    0.433E-01
RMM:  17    -0.231712262042E+04   -0.63051E-02   -0.25767E-02  5224   0.731E-02    0.569E-01
RMM:  18    -0.231712656972E+04   -0.39493E-02   -0.11043E-02  5127   0.484E-02    0.681E-01
RMM:  19    -0.231712594534E+04    0.62438E-03   -0.79323E-04  4300   0.148E-02    0.619E-01
RMM:  20    -0.231712619749E+04   -0.25214E-03   -0.91309E-05  3177   0.486E-03    0.641E-01
RMM:  21    -0.231712413998E+04    0.20575E-02   -0.11589E-03  4279   0.145E-02    0.545E-01
RMM:  22    -0.231712105944E+04    0.30805E-02   -0.43752E-03  4941   0.289E-02    0.440E-01
RMM:  23    -0.231711735868E+04    0.37008E-02   -0.11042E-02  5064   0.454E-02    0.408E-01
RMM:  24    -0.231711577084E+04    0.15878E-02   -0.35657E-03  4798   0.301E-02    0.456E-01
RMM:  25    -0.231711468132E+04    0.10895E-02   -0.18148E-03  4900   0.182E-02    0.486E-01
RMM:  26    -0.231711478076E+04   -0.99438E-04   -0.10167E-04  3113   0.796E-03    0.489E-01
RMM:  27    -0.231711473058E+04    0.50174E-04   -0.13844E-05  2890   0.266E-03    0.487E-01
RMM:  28    -0.231711474369E+04   -0.13105E-04   -0.19221E-06  2641   0.169E-03    0.484E-01
RMM:  29    -0.231711511245E+04   -0.36875E-03   -0.12906E-04  3013   0.477E-03    0.466E-01
RMM:  30    -0.231711726720E+04   -0.21548E-02   -0.37649E-03  4650   0.251E-02    0.423E-01
RMM:  31    -0.231711855034E+04   -0.12831E-02   -0.19434E-03  4422   0.223E-02    0.417E-01
RMM:  32    -0.231712021189E+04   -0.16616E-02   -0.24206E-03  4991   0.212E-02    0.449E-01
RMM:  33    -0.231712021071E+04    0.11842E-05   -0.20372E-04  3224   0.951E-03    0.433E-01
RMM:  34    -0.231712055297E+04   -0.34227E-03   -0.11355E-04  3148   0.499E-03    0.448E-01
RMM:  35    -0.231711981277E+04    0.74020E-03   -0.26252E-04  3323   0.747E-03    0.416E-01
RMM:  36    -0.231711956588E+04    0.24689E-03   -0.54764E-05  2882   0.441E-03    0.410E-01
RMM:  37    -0.231711901489E+04    0.55099E-03   -0.19838E-04  3510   0.643E-03    0.385E-01
RMM:  38    -0.231711895597E+04    0.58926E-04   -0.19931E-05  2792   0.407E-03    0.387E-01
RMM:  39    -0.231711872655E+04    0.22942E-03   -0.45091E-05  2899   0.316E-03    0.379E-01
RMM:  40    -0.231711866779E+04    0.58759E-04   -0.11345E-05  2642   0.265E-03    0.386E-01
RMM:  41    -0.231711866531E+04    0.24777E-05   -0.20101E-06  2210   0.153E-03
  29 F= -.23379931E+04 E0= -.23379807E+04  d E =-.638123E-02  mag=     3.5257
       N       E                     dE             d eps       ncg     rms          rms(c)
DAV:   1    -0.231695604408E+04    0.16262E+00   -0.12212E+01  4464   0.322E+00    0.131E+00
RMM:   2    -0.231714022380E+04   -0.18418E+00   -0.18588E+00  6475   0.770E-01    0.152E+00
RMM:   3    -0.231714514224E+04   -0.49184E-02   -0.19441E-01  5499   0.257E-01    0.201E+00
RMM:   4    -0.231715368047E+04   -0.85382E-02   -0.22122E-02  5526   0.539E-02    0.221E+00
RMM:   5    -0.231715059523E+04    0.30852E-02   -0.28417E-02  5180   0.727E-02    0.153E+00
RMM:   6    -0.231713531852E+04    0.15277E-01   -0.35550E-02  5275   0.815E-02    0.112E+00
RMM:   7    -0.231711974496E+04    0.15574E-01   -0.25700E-02  5069   0.695E-02    0.135E+00
RMM:   8    -0.231711327196E+04    0.64730E-02   -0.42023E-03  4906   0.387E-02    0.139E+00
RMM:   9    -0.231715342870E+04   -0.40157E-01   -0.13559E-01  4772   0.154E-01    0.172E+00
RMM:  10    -0.231715341149E+04    0.17210E-04   -0.15579E-02  4702   0.804E-02    0.155E+00
RMM:  11    -0.231716557268E+04   -0.12161E-01   -0.32978E-02  4829   0.753E-02    0.157E+00
RMM:  12    -0.231716528728E+04    0.28540E-03   -0.26940E-03  4371   0.430E-02    0.155E+00
RMM:  13    -0.231716874540E+04   -0.34581E-02   -0.81805E-02  4889   0.121E-01    0.517E-01
RMM:  14    -0.231717988540E+04   -0.11140E-01   -0.99163E-03  4784   0.604E-02    0.865E-01
RMM:  15    -0.231717724531E+04    0.26401E-02   -0.23896E-02  5067   0.689E-02    0.382E-01
RMM:  16    -0.231718308312E+04   -0.58378E-02   -0.37677E-03  4654   0.370E-02    0.209E-01
RMM:  17    -0.231718538091E+04   -0.22978E-02   -0.12993E-03  4227   0.206E-02    0.194E-01
RMM:  18    -0.231718625532E+04   -0.87441E-03   -0.69994E-04  4184   0.167E-02    0.755E-02
RMM:  19    -0.231718667710E+04   -0.42178E-03   -0.35329E-04  4024   0.969E-03    0.244E-02
RMM:  20    -0.231718694769E+04   -0.27059E-03   -0.80586E-05  3510   0.751E-03    0.135E-02
RMM:  21    -0.231718699804E+04   -0.50350E-04   -0.17488E-05  2945   0.398E-03    0.112E-02
RMM:  22    -0.231718702669E+04   -0.28647E-04   -0.69992E-06  2838   0.298E-03    0.345E-03
RMM:  23    -0.231718703647E+04   -0.97808E-05   -0.39719E-06  2673   0.234E-03
  30 F= -.23380590E+04 E0= -.23380589E+04  d E =-.723313E-01  mag=     2.0048
       N       E                     dE             d eps       ncg     rms          rms(c)
DAV:   1    -0.231643654426E+04    0.75048E+00   -0.48621E+01  4448   0.644E+00    0.217E+00
RMM:   2    -0.231728813027E+04   -0.85159E+00   -0.80758E+00  6517   0.160E+00    0.467E+00
RMM:   3    -0.231721840775E+04    0.69723E-01   -0.80429E-01  5997   0.511E-01    0.182E+00
RMM:   4    -0.231721242996E+04    0.59778E-02   -0.92256E-02  5812   0.125E-01    0.980E-01
RMM:   5    -0.231720434715E+04    0.80828E-02   -0.18079E-02  6046   0.624E-02    0.781E-01
RMM:   6    -0.231719943339E+04    0.49138E-02   -0.11186E-02  5020   0.595E-02    0.495E-01
RMM:   7    -0.231719847985E+04    0.95354E-03   -0.28475E-03  4807   0.424E-02    0.933E-02
RMM:   8    -0.231719859352E+04   -0.11367E-03   -0.37578E-04  4113   0.131E-02    0.148E-01
RMM:   9    -0.231719851269E+04    0.80832E-04   -0.13276E-04  3229   0.873E-03    0.609E-02
RMM:  10    -0.231719849873E+04    0.13959E-04   -0.60954E-05  2958   0.522E-03    0.236E-02
RMM:  11    -0.231719850415E+04   -0.54237E-05   -0.90933E-06  2867   0.346E-03
  31 F= -.23380654E+04 E0= -.23380653E+04  d E =-.786870E-01  mag=     2.0015
       N       E                     dE             d eps       ncg     rms          rms(c)
DAV:   1    -0.231710029703E+04    0.98202E-01   -0.65161E+00  4464   0.235E+00    0.730E-01
RMM:   2    -0.231719783797E+04   -0.97541E-01   -0.10120E+00  6495   0.574E-01    0.792E-01
RMM:   3    -0.231720583914E+04   -0.80012E-02   -0.11207E-01  6050   0.181E-01    0.105E+00
RMM:   4    -0.231720164513E+04    0.41940E-02   -0.11700E-02  5825   0.456E-02    0.369E-01
RMM:   5    -0.231720065526E+04    0.98987E-03   -0.27878E-03  5446   0.241E-02    0.295E-01
RMM:   6    -0.231719979430E+04    0.86096E-03   -0.14655E-03  4985   0.234E-02    0.106E-01
RMM:   7    -0.231719978114E+04    0.13153E-04   -0.45488E-04  4421   0.153E-02    0.757E-02
RMM:   8    -0.231719974811E+04    0.33036E-04   -0.52488E-05  3072   0.611E-03    0.181E-02
RMM:   9    -0.231719974927E+04   -0.11610E-05   -0.16237E-05  2877   0.397E-03
  32 F= -.23380685E+04 E0= -.23380684E+04  d E =-.818370E-01  mag=     2.0012
       N       E                     dE             d eps       ncg     rms          rms(c)
DAV:   1    -0.231716653393E+04    0.33214E-01   -0.39023E+00  4432   0.181E+00    0.566E-01
RMM:   2    -0.231721676839E+04   -0.50234E-01   -0.51456E-01  6457   0.426E-01    0.639E-01
RMM:   3    -0.231721883366E+04   -0.20653E-02   -0.48843E-02  5910   0.127E-01    0.614E-01
RMM:   4    -0.231721746478E+04    0.13689E-02   -0.57180E-03  5617   0.346E-02    0.330E-01
RMM:   5    -0.231721668708E+04    0.77770E-03   -0.14363E-03  5173   0.190E-02    0.183E-01
RMM:   6    -0.231721633337E+04    0.35371E-03   -0.79181E-04  4652   0.180E-02    0.670E-02
RMM:   7    -0.231721631831E+04    0.15059E-04   -0.18445E-04  3822   0.131E-02    0.340E-02
RMM:   8    -0.231721631558E+04    0.27293E-05   -0.23911E-05  2934   0.411E-03
  33 F= -.23380834E+04 E0= -.23380833E+04  d E =-.148849E-01  mag=     2.0008
       N       E                     dE             d eps       ncg     rms          rms(c)
DAV:   1    -0.231713207497E+04    0.84243E-01   -0.74146E+00  4432   0.250E+00    0.785E-01
RMM:   2    -0.231722880957E+04   -0.96735E-01   -0.98768E-01  6448   0.585E-01    0.917E-01
RMM:   3    -0.231723177345E+04   -0.29639E-02   -0.93277E-02  6002   0.176E-01    0.830E-01
RMM:   4    -0.231722932089E+04    0.24526E-02   -0.10971E-02  5894   0.479E-02    0.447E-01
RMM:   5    -0.231722783719E+04    0.14837E-02   -0.26623E-03  5535   0.254E-02    0.252E-01
RMM:   6    -0.231722719824E+04    0.63895E-03   -0.14939E-03  4768   0.242E-02    0.972E-02
RMM:   7    -0.231722716452E+04    0.33726E-04   -0.34100E-04  4242   0.172E-02    0.463E-02
RMM:   8    -0.231722716100E+04    0.35219E-05   -0.48587E-05  3106   0.508E-03
  34 F= -.23380919E+04 E0= -.23380918E+04  d E =-.233765E-01  mag=     2.0004
       N       E                     dE             d eps       ncg     rms          rms(c)
DAV:   1    -0.231722201468E+04    0.51498E-02   -0.16548E+00  4512   0.115E+00    0.389E-01
RMM:   2    -0.231724312387E+04   -0.21109E-01   -0.21416E-01  6434   0.270E-01    0.377E-01
RMM:   3    -0.231724399575E+04   -0.87188E-03   -0.22915E-02  5958   0.889E-02    0.391E-01
RMM:   4    -0.231724324107E+04    0.75468E-03   -0.25772E-03  4965   0.227E-02    0.241E-01
RMM:   5    -0.231724285255E+04    0.38852E-03   -0.81582E-04  3992   0.135E-02    0.146E-01
RMM:   6    -0.231724268881E+04    0.16375E-03   -0.38917E-04  4418   0.129E-02    0.477E-02
RMM:   7    -0.231724270381E+04   -0.15000E-04   -0.63877E-05  3058   0.939E-03    0.574E-02
RMM:   8    -0.231724269011E+04    0.13694E-04   -0.16753E-05  2889   0.327E-03    0.209E-02
RMM:   9    -0.231724268920E+04    0.91140E-06   -0.78952E-06  2846   0.255E-03
  35 F= -.23381062E+04 E0= -.23381061E+04  d E =-.142869E-01  mag=     2.0002
       N       E                     dE             d eps       ncg     rms          rms(c)
DAV:   1    -0.231708298923E+04    0.15970E+00   -0.14862E+01  4464   0.346E+00    0.114E+00
RMM:   2    -0.231727096846E+04   -0.18798E+00   -0.19389E+00  6427   0.813E-01    0.993E-01
RMM:   3    -0.231728159941E+04   -0.10631E-01   -0.21432E-01  6158   0.272E-01    0.921E-01
RMM:   4    -0.231727350429E+04    0.80951E-02   -0.20467E-02  5979   0.678E-02    0.532E-01
RMM:   5    -0.231727306669E+04    0.43760E-03   -0.61957E-03  5533   0.340E-02    0.560E-01
RMM:   6    -0.231727092377E+04    0.21429E-02   -0.38873E-03  4835   0.362E-02    0.118E-01
RMM:   7    -0.231727106354E+04   -0.13977E-03   -0.65123E-04  4476   0.224E-02    0.171E-01
RMM:   8    -0.231727094586E+04    0.11768E-03   -0.11878E-04  3352   0.650E-03    0.882E-02
RMM:   9    -0.231727090638E+04    0.39480E-04   -0.98371E-05  3064   0.625E-03    0.342E-02
RMM:  10    -0.231727090746E+04   -0.10763E-05   -0.12477E-05  2865   0.383E-03
  36 F= -.23381306E+04 E0= -.23381306E+04  d E =-.387083E-01  mag=     2.0001
       N       E                     dE             d eps       ncg     rms          rms(c)
DAV:   1    -0.231724729598E+04    0.23610E-01   -0.21591E+00  4480   0.132E+00    0.438E-01
RMM:   2    -0.231727451150E+04   -0.27216E-01   -0.28073E-01  6416   0.312E-01    0.369E-01
RMM:   3    -0.231727583837E+04   -0.13269E-02   -0.30269E-02  5964   0.102E-01    0.331E-01
RMM:   4    -0.231727476585E+04    0.10725E-02   -0.30592E-03  5374   0.257E-02    0.194E-01
RMM:   5    -0.231727475635E+04    0.94977E-05   -0.82375E-04  3868   0.134E-02    0.211E-01
RMM:   6    -0.231727444266E+04    0.31369E-03   -0.53972E-04  4571   0.144E-02    0.512E-02
RMM:   7    -0.231727445578E+04   -0.13115E-04   -0.87220E-05  3156   0.927E-03    0.567E-02
RMM:   8    -0.231727444049E+04    0.15281E-04   -0.18277E-05  2901   0.362E-03    0.201E-02
RMM:   9    -0.231727444055E+04   -0.51121E-07   -0.91307E-06  2858   0.267E-03
  37 F= -.23381327E+04 E0= -.23381327E+04  d E =-.407693E-01  mag=     2.0001
       N       E                     dE             d eps       ncg     rms          rms(c)
DAV:   1    -0.231726804213E+04    0.63984E-02   -0.12424E+00  4512   0.978E-01    0.332E-01
RMM:   2    -0.231728565131E+04   -0.17609E-01   -0.18355E-01  6463   0.239E-01    0.269E-01
RMM:   3    -0.231728708530E+04   -0.14340E-02   -0.21168E-02  5843   0.817E-02    0.313E-01
RMM:   4    -0.231728640545E+04    0.67985E-03   -0.19848E-03  4481   0.191E-02    0.160E-01
RMM:   5    -0.231728631816E+04    0.87293E-04   -0.55371E-04  3542   0.112E-02    0.148E-01
RMM:   6    -0.231728613454E+04    0.18362E-03   -0.31689E-04  4269   0.114E-02    0.461E-02
RMM:   7    -0.231728614090E+04   -0.63582E-05   -0.62858E-05  3015   0.767E-03
  38 F= -.23381433E+04 E0= -.23381433E+04  d E =-.106238E-01  mag=     2.0001
       N       E                     dE             d eps       ncg     rms          rms(c)
DAV:   1    -0.231714287150E+04    0.14326E+00   -0.11165E+01  4448   0.294E+00    0.976E-01
RMM:   2    -0.231730059561E+04   -0.15772E+00   -0.16603E+00  6457   0.713E-01    0.730E-01
RMM:   3    -0.231731427553E+04   -0.13680E-01   -0.19773E-01  6136   0.252E-01    0.700E-01
RMM:   4    -0.231730846361E+04    0.58119E-02   -0.16773E-02  6116   0.578E-02    0.302E-01
RMM:   5    -0.231730948606E+04   -0.10225E-02   -0.46893E-03  5587   0.295E-02    0.564E-01
RMM:   6    -0.231730749240E+04    0.19937E-02   -0.28859E-03  5492   0.277E-02    0.184E-01
RMM:   7    -0.231730738640E+04    0.10600E-03   -0.57140E-04  4726   0.152E-02    0.132E-01
RMM:   8    -0.231730728438E+04    0.10202E-03   -0.11665E-04  3155   0.699E-03    0.529E-02
RMM:   9    -0.231730726656E+04    0.17821E-04   -0.75629E-05  3147   0.598E-03    0.348E-02
RMM:  10    -0.231730726419E+04    0.23778E-05   -0.13162E-05  2859   0.447E-03
  39 F= -.23381612E+04 E0= -.23381611E+04  d E =-.284677E-01  mag=     2.0000
       N       E                     dE             d eps       ncg     rms          rms(c)
DAV:   1    -0.231729087572E+04    0.16391E-01   -0.12824E+00  4528   0.996E-01    0.330E-01
RMM:   2    -0.231730894174E+04   -0.18066E-01   -0.19023E-01  6461   0.242E-01    0.242E-01
RMM:   3    -0.231731033193E+04   -0.13902E-02   -0.21709E-02  5799   0.830E-02    0.218E-01
RMM:   4    -0.231730976398E+04    0.56795E-03   -0.19869E-03  4820   0.195E-02    0.936E-02
RMM:   5    -0.231730968788E+04    0.76098E-04   -0.39023E-04  4202   0.115E-02    0.858E-02
RMM:   6    -0.231730971923E+04   -0.31354E-04   -0.20871E-04  3212   0.962E-03    0.118E-01
RMM:   7    -0.231730964054E+04    0.78692E-04   -0.51533E-05  2949   0.604E-03    0.297E-02
RMM:   8    -0.231730963456E+04    0.59858E-05   -0.17196E-05  2903   0.387E-03
  40 F= -.23381624E+04 E0= -.23381624E+04  d E =-.297124E-01  mag=     2.0000
       N       E                     dE             d eps       ncg     rms          rms(c)
DAV:   1    -0.231730762013E+04    0.20204E-02   -0.53327E-01  4528   0.676E-01    0.235E-01
RMM:   2    -0.231731621196E+04   -0.85918E-02   -0.91832E-02  6411   0.167E-01    0.141E-01
RMM:   3    -0.231731723580E+04   -0.10238E-02   -0.11047E-02  5540   0.598E-02    0.241E-01
RMM:   4    -0.231731688809E+04    0.34772E-03   -0.89988E-04  3305   0.131E-02    0.700E-02
RMM:   5    -0.231731690178E+04   -0.13687E-04   -0.23528E-04  3486   0.889E-03    0.814E-02
RMM:   6    -0.231731682872E+04    0.73055E-04   -0.14884E-04  3334   0.844E-03    0.402E-02
RMM:   7    -0.231731681477E+04    0.13950E-04   -0.35050E-05  2942   0.564E-03    0.157E-02
RMM:   8    -0.231731681360E+04    0.11701E-05   -0.83176E-06  2860   0.393E-03
  41 F= -.23381690E+04 E0= -.23381690E+04  d E =-.662722E-02  mag=     2.0000
       N       E                     dE             d eps       ncg     rms          rms(c)
DAV:   1    -0.231724417250E+04    0.72642E-01   -0.47950E+00  4448   0.203E+00    0.693E-01
RMM:   2    -0.231732110824E+04   -0.76936E-01   -0.82612E-01  6397   0.497E-01    0.374E-01
RMM:   3    -0.231732916773E+04   -0.80595E-02   -0.10002E-01  5986   0.184E-01    0.507E-01
RMM:   4    -0.231732794288E+04    0.12249E-02   -0.81237E-03  5714   0.367E-02    0.237E-01
RMM:   5    -0.231732781952E+04    0.12335E-03   -0.17266E-03  5367   0.218E-02    0.216E-01
RMM:   6    -0.231732746426E+04    0.35526E-03   -0.11544E-03  5242   0.190E-02    0.136E-01
RMM:   7    -0.231732725511E+04    0.20915E-03   -0.34427E-04  4550   0.117E-02    0.568E-02
RMM:   8    -0.231732723067E+04    0.24442E-04   -0.53655E-05  2951   0.640E-03    0.204E-02
RMM:   9    -0.231732722659E+04    0.40837E-05   -0.17715E-05  2890   0.402E-03
  42 F= -.23381778E+04 E0= -.23381778E+04  d E =-.153630E-01  mag=     2.0000
       N       E                     dE             d eps       ncg     rms          rms(c)
DAV:   1    -0.231731176527E+04    0.15465E-01   -0.13340E+00  4448   0.109E+00    0.369E-01
RMM:   2    -0.231733477646E+04   -0.23011E-01   -0.24634E-01  6401   0.272E-01    0.201E-01
RMM:   3    -0.231733747695E+04   -0.27005E-02   -0.29203E-02  5899   0.104E-01    0.340E-01
RMM:   4    -0.231733679677E+04    0.68017E-03   -0.25238E-03  4327   0.215E-02    0.114E-01
RMM:   5    -0.231733680522E+04   -0.84533E-05   -0.48180E-04  4243   0.123E-02    0.116E-01
RMM:   6    -0.231733666024E+04    0.14498E-03   -0.30313E-04  4468   0.107E-02    0.590E-02
RMM:   7    -0.231733662448E+04    0.35766E-04   -0.86374E-05  3312   0.737E-03    0.190E-02
RMM:   8    -0.231733662162E+04    0.28530E-05   -0.13108E-05  2887   0.479E-03
  43 F= -.23381864E+04 E0= -.23381864E+04  d E =-.858954E-02  mag=     2.0000
       N       E                     dE             d eps       ncg     rms          rms(c)
DAV:   1    -0.231728033131E+04    0.56293E-01   -0.33493E+00  4448   0.172E+00    0.582E-01
RMM:   2    -0.231733804725E+04   -0.57716E-01   -0.61927E-01  6424   0.434E-01    0.294E-01
RMM:   3    -0.231734428248E+04   -0.62352E-02   -0.73283E-02  5939   0.162E-01    0.414E-01
RMM:   4    -0.231734342892E+04    0.85356E-03   -0.63230E-03  5410   0.331E-02    0.203E-01
RMM:   5    -0.231734336148E+04    0.67441E-04   -0.10634E-03  5060   0.174E-02    0.184E-01
RMM:   6    -0.231734307805E+04    0.28343E-03   -0.73244E-04  5082   0.153E-02    0.106E-01
RMM:   7    -0.231734295190E+04    0.12614E-03   -0.26134E-04  4452   0.107E-02    0.322E-02
RMM:   8    -0.231734294018E+04    0.11718E-04   -0.33687E-05  2926   0.583E-03    0.113E-02
RMM:   9    -0.231734293690E+04    0.32869E-05   -0.11171E-05  2884   0.358E-03
  44 F= -.23381914E+04 E0= -.23381914E+04  d E =-.136075E-01  mag=     2.0000
       N       E                     dE             d eps       ncg     rms          rms(c)
DAV:   1    -0.231731935017E+04    0.23590E-01   -0.19912E+00  4448   0.136E+00    0.452E-01
RMM:   2    -0.231735024823E+04   -0.30898E-01   -0.32688E-01  6417   0.332E-01    0.315E-01
RMM:   3    -0.231735387159E+04   -0.36234E-02   -0.34691E-02  5878   0.113E-01    0.507E-01
RMM:   4    -0.231735239652E+04    0.14751E-02   -0.35512E-03  5440   0.279E-02    0.145E-01
RMM:   5    -0.231735241789E+04   -0.21367E-04   -0.79209E-04  4458   0.154E-02    0.137E-01
RMM:   6    -0.231735221684E+04    0.20105E-03   -0.37522E-04  4751   0.119E-02    0.679E-02
RMM:   7    -0.231735217403E+04    0.42813E-04   -0.11365E-04  3604   0.850E-03    0.203E-02
RMM:   8    -0.231735217273E+04    0.12998E-05   -0.16381E-05  2908   0.496E-03
  45 F= -.23381997E+04 E0= -.23381997E+04  d E =-.831959E-02  mag=     2.0000
       N       E                     dE             d eps       ncg     rms          rms(c)
DAV:   1    -0.231730820047E+04    0.43974E-01   -0.29324E+00  4448   0.166E+00    0.548E-01
RMM:   2    -0.231735391580E+04   -0.45715E-01   -0.48294E-01  6425   0.406E-01    0.400E-01
RMM:   3    -0.231735933210E+04   -0.54163E-02   -0.51529E-02  5926   0.138E-01    0.634E-01
RMM:   4    -0.231735703524E+04    0.22969E-02   -0.53519E-03  5742   0.342E-02    0.174E-01
RMM:   5    -0.231735705801E+04   -0.22770E-04   -0.11947E-03  4864   0.184E-02    0.167E-01
RMM:   6    -0.231735676611E+04    0.29190E-03   -0.55353E-04  5053   0.140E-02    0.852E-02
RMM:   7    -0.231735669876E+04    0.67347E-04   -0.17690E-04  4087   0.979E-03    0.249E-02
RMM:   8    -0.231735669572E+04    0.30442E-05   -0.24187E-05  2926   0.539E-03
  46 F= -.23382031E+04 E0= -.23382031E+04  d E =-.117212E-01  mag=     2.0000
       N       E                     dE             d eps       ncg     rms          rms(c)
DAV:   1    -0.231731210688E+04    0.44592E-01   -0.29531E+00  4432   0.162E+00    0.567E-01
RMM:   2    -0.231737029901E+04   -0.58192E-01   -0.55896E-01  6484   0.411E-01    0.104E+00
RMM:   3    -0.231736882404E+04    0.14750E-02   -0.61648E-02  5920   0.133E-01    0.427E-01
RMM:   4    -0.231736810163E+04    0.72240E-03   -0.55253E-03  4933   0.288E-02    0.141E-01
RMM:   5    -0.231736789345E+04    0.20819E-03   -0.56986E-04  4798   0.156E-02    0.957E-02
RMM:   6    -0.231736795405E+04   -0.60608E-04   -0.45233E-04  4773   0.132E-02    0.995E-02
RMM:   7    -0.231736781271E+04    0.14134E-03   -0.13360E-04  3187   0.865E-03    0.202E-02
RMM:   8    -0.231736780905E+04    0.36622E-05   -0.17304E-05  2873   0.465E-03
  47 F= -.23382131E+04 E0= -.23382131E+04  d E =-.100355E-01  mag=     2.0000
       N       E                     dE             d eps       ncg     rms          rms(c)
DAV:   1    -0.231716918166E+04    0.19863E+00   -0.10934E+01  4432   0.311E+00    0.110E+00
RMM:   2    -0.231738653335E+04   -0.21735E+00   -0.20902E+00  6502   0.798E-01    0.199E+00
RMM:   3    -0.231738138067E+04    0.51527E-02   -0.23841E-01  6034   0.262E-01    0.829E-01
RMM:   4    -0.231737854015E+04    0.28405E-02   -0.21253E-02  5273   0.560E-02    0.278E-01
RMM:   5    -0.231737798930E+04    0.55085E-03   -0.23706E-03  5388   0.293E-02    0.222E-01
RMM:   6    -0.231737785931E+04    0.12999E-03   -0.18702E-03  5734   0.239E-02    0.195E-01
RMM:   7    -0.231737739185E+04    0.46746E-03   -0.59427E-04  4956   0.161E-02    0.388E-02
RMM:   8    -0.231737737487E+04    0.16982E-04   -0.65481E-05  2914   0.695E-03    0.198E-02
RMM:   9    -0.231737737318E+04    0.16931E-05   -0.22801E-05  2918   0.390E-03
  48 F= -.23382206E+04 E0= -.23382206E+04  d E =-.175361E-01  mag=     2.0000
       N       E                     dE             d eps       ncg     rms          rms(c)
DAV:   1    -0.231735487438E+04    0.22500E-01   -0.15764E+00  4496   0.115E+00    0.419E-01
RMM:   2    -0.231738753237E+04   -0.32658E-01   -0.30946E-01  6525   0.297E-01    0.828E-01
RMM:   3    -0.231738613740E+04    0.13950E-02   -0.34197E-02  5775   0.965E-02    0.294E-01
RMM:   4    -0.231738585703E+04    0.28038E-03   -0.30812E-03  4539   0.206E-02    0.106E-01
RMM:   5    -0.231738573580E+04    0.12123E-03   -0.29156E-04  4202   0.114E-02    0.742E-02
RMM:   6    -0.231738570416E+04    0.31637E-04   -0.16510E-04  3999   0.986E-03    0.189E-02
RMM:   7    -0.231738570242E+04    0.17457E-05   -0.17221E-05  2894   0.586E-03
  49 F= -.23382282E+04 E0= -.23382281E+04  d E =-.752688E-02  mag=     2.0000
       N       E                     dE             d eps       ncg     rms          rms(c)
DAV:   1    -0.231711861463E+04    0.26709E+00   -0.14143E+01  4432   0.345E+00    0.125E+00
RMM:   2    -0.231741247072E+04   -0.29386E+00   -0.28094E+00  6511   0.897E-01    0.239E+00
RMM:   3    -0.231740408133E+04    0.83894E-02   -0.31994E-01  6057   0.296E-01    0.939E-01
RMM:   4    -0.231740058549E+04    0.34958E-02   -0.28435E-02  5320   0.631E-02    0.323E-01
RMM:   5    -0.231740024014E+04    0.34535E-03   -0.32451E-03  5584   0.326E-02    0.300E-01
RMM:   6    -0.231739949723E+04    0.74291E-03   -0.24601E-03  5784   0.268E-02    0.205E-01
RMM:   7    -0.231739908790E+04    0.40933E-03   -0.84315E-04  5149   0.184E-02    0.459E-02
RMM:   8    -0.231739906423E+04    0.23675E-04   -0.85417E-05  2943   0.789E-03    0.213E-02
RMM:   9    -0.231739906258E+04    0.16448E-05   -0.27973E-05  2921   0.404E-03
  50 F= -.23382391E+04 E0= -.23382391E+04  d E =-.185026E-01  mag=     2.0000
       N       E                     dE             d eps       ncg     rms          rms(c)
DAV:   1    -0.231738612980E+04    0.12934E-01   -0.13190E+00  4496   0.103E+00    0.360E-01
RMM:   2    -0.231740766389E+04   -0.21534E-01   -0.22037E-01  6476   0.257E-01    0.474E-01
RMM:   3    -0.231740917564E+04   -0.15118E-02   -0.25262E-02  5798   0.845E-02    0.397E-01
RMM:   4    -0.231740833118E+04    0.84446E-03   -0.23705E-03  4967   0.212E-02    0.926E-02
RMM:   5    -0.231740824936E+04    0.81823E-04   -0.33456E-04  4229   0.117E-02    0.580E-02
RMM:   6    -0.231740827655E+04   -0.27188E-04   -0.17645E-04  3778   0.966E-03    0.605E-02
RMM:   7    -0.231740822703E+04    0.49516E-04   -0.69268E-05  2984   0.681E-03    0.179E-02
RMM:   8    -0.231740822376E+04    0.32727E-05   -0.10302E-05  2875   0.362E-03
  51 F= -.23382477E+04 E0= -.23382477E+04  d E =-.853956E-02  mag=     2.0000
       N       E                     dE             d eps       ncg     rms          rms(c)
DAV:   1    -0.231724624529E+04    0.16198E+00   -0.10284E+01  4448   0.289E+00    0.100E+00
RMM:   2    -0.231741292010E+04   -0.16667E+00   -0.17251E+00  6484   0.719E-01    0.120E+00
RMM:   3    -0.231742895920E+04   -0.16039E-01   -0.20503E-01  6051   0.238E-01    0.118E+00
RMM:   4    -0.231742103236E+04    0.79268E-02   -0.19397E-02  5843   0.599E-02    0.267E-01
RMM:   5    -0.231742038854E+04    0.64382E-03   -0.26359E-03  5239   0.302E-02    0.178E-01
RMM:   6    -0.231742040430E+04   -0.15765E-04   -0.13493E-03  5521   0.224E-02    0.144E-01
RMM:   7    -0.231742019357E+04    0.21073E-03   -0.60373E-04  4535   0.156E-02    0.718E-02
RMM:   8    -0.231742012267E+04    0.70907E-04   -0.83831E-05  3093   0.594E-03    0.240E-02
RMM:   9    -0.231742011696E+04    0.57115E-05   -0.21646E-05  2895   0.428E-03
  52 F= -.23382579E+04 E0= -.23382578E+04  d E =-.187202E-01  mag=     2.0000
       N       E                     dE             d eps       ncg     rms          rms(c)
DAV:   1    -0.231740760940E+04    0.12513E-01   -0.11706E+00  4544   0.966E-01    0.331E-01
RMM:   2    -0.231742693425E+04   -0.19325E-01   -0.19792E-01  6516   0.240E-01    0.434E-01
RMM:   3    -0.231742818682E+04   -0.12526E-02   -0.21839E-02  5736   0.780E-02    0.356E-01
RMM:   4    -0.231742752417E+04    0.66265E-03   -0.22122E-03  4678   0.197E-02    0.926E-02
RMM:   5    -0.231742753062E+04   -0.64425E-05   -0.35075E-04  3712   0.107E-02    0.953E-02
RMM:   6    -0.231742743829E+04    0.92329E-04   -0.24249E-04  3989   0.975E-03    0.488E-02
RMM:   7    -0.231742741539E+04    0.22898E-04   -0.58898E-05  3029   0.652E-03    0.155E-02
RMM:   8    -0.231742741476E+04    0.63036E-06   -0.91996E-06  2876   0.424E-03
  53 F= -.23382646E+04 E0= -.23382646E+04  d E =-.673563E-02  mag=     2.0000
       N       E                     dE             d eps       ncg     rms          rms(c)
DAV:   1    -0.231726039846E+04    0.16702E+00   -0.10508E+01  4464   0.290E+00    0.990E-01
RMM:   2    -0.231743342579E+04   -0.17303E+00   -0.17870E+00  6505   0.723E-01    0.120E+00
RMM:   3    -0.231744794717E+04   -0.14521E-01   -0.20376E-01  6059   0.240E-01    0.113E+00
RMM:   4    -0.231744091301E+04    0.70342E-02   -0.20625E-02  5874   0.598E-02    0.292E-01
RMM:   5    -0.231744086588E+04    0.47122E-04   -0.32061E-03  5506   0.280E-02    0.285E-01
RMM:   6    -0.231744006918E+04    0.79670E-03   -0.21323E-03  5587   0.248E-02    0.162E-01
RMM:   7    -0.231743981715E+04    0.25203E-03   -0.61057E-04  4928   0.154E-02    0.414E-02
RMM:   8    -0.231743980691E+04    0.10235E-04   -0.73122E-05  3093   0.732E-03    0.202E-02
RMM:   9    -0.231743980377E+04    0.31418E-05   -0.19092E-05  2892   0.433E-03
  54 F= -.23382753E+04 E0= -.23382753E+04  d E =-.174735E-01  mag=     2.0000
       N       E                     dE             d eps       ncg     rms          rms(c)
DAV:   1    -0.231742997102E+04    0.98359E-02   -0.63239E-01  4560   0.711E-01    0.245E-01
RMM:   2    -0.231744044881E+04   -0.10478E-01   -0.10709E-01  6497   0.177E-01    0.325E-01
RMM:   3    -0.231744107367E+04   -0.62486E-03   -0.11764E-02  5401   0.579E-02    0.259E-01
RMM:   4    -0.231744072281E+04    0.35086E-03   -0.11935E-03  3846   0.148E-02    0.683E-02
RMM:   5    -0.231744072845E+04   -0.56333E-05   -0.19261E-04  3187   0.842E-03    0.716E-02
RMM:   6    -0.231744067428E+04    0.54166E-04   -0.13174E-04  3336   0.804E-03    0.349E-02
RMM:   7    -0.231744066284E+04    0.11438E-04   -0.36481E-05  2966   0.573E-03    0.116E-02
RMM:   8    -0.231744066255E+04    0.29245E-06   -0.64265E-06  2821   0.383E-03
  55 F= -.23382758E+04 E0= -.23382758E+04  d E =-.179366E-01  mag=     2.0000
       N       E                     dE             d eps       ncg     rms          rms(c)
DAV:   1    -0.231742068094E+04    0.19982E-01   -0.13898E+00  4448   0.107E+00    0.396E-01
RMM:   2    -0.231744982167E+04   -0.29141E-01   -0.28127E-01  6493   0.277E-01    0.713E-01
RMM:   3    -0.231744921851E+04    0.60316E-03   -0.32067E-02  5857   0.932E-02    0.304E-01
RMM:   4    -0.231744895062E+04    0.26790E-03   -0.32128E-03  4969   0.225E-02    0.139E-01
RMM:   5    -0.231744881671E+04    0.13391E-03   -0.51386E-04  3615   0.122E-02    0.106E-01
RMM:   6    -0.231744866181E+04    0.15490E-03   -0.29649E-04  4480   0.112E-02    0.457E-02
RMM:   7    -0.231744865083E+04    0.10982E-04   -0.70551E-05  3026   0.820E-03    0.115E-02
RMM:   8    -0.231744865045E+04    0.38114E-06   -0.10173E-05  2876   0.371E-03
  56 F= -.23382830E+04 E0= -.23382830E+04  d E =-.724487E-02  mag=     2.0000
       N       E                     dE             d eps       ncg     rms          rms(c)
DAV:   1    -0.231729741029E+04    0.15124E+00   -0.78726E+00  4448   0.254E+00    0.941E-01
RMM:   2    -0.231746185296E+04   -0.16444E+00   -0.16006E+00  6501   0.662E-01    0.162E+00
RMM:   3    -0.231746094174E+04    0.91121E-03   -0.18596E-01  6120   0.224E-01    0.775E-01
[...]
RMM:   2    -0.231766873849E+04   -0.14694E-01   -0.15350E-01  6376   0.198E-01    0.192E-01
RMM:   3    -0.231767022956E+04   -0.14911E-02   -0.16880E-02  5859   0.729E-02    0.241E-01
RMM:   4    -0.231766985327E+04    0.37628E-03   -0.20303E-03  4361   0.179E-02    0.149E-01
RMM:   5    -0.231766976021E+04    0.93065E-04   -0.28884E-04  3263   0.945E-03    0.925E-02
RMM:   6    -0.231766966900E+04    0.91209E-04   -0.14924E-04  3670   0.888E-03    0.330E-02
RMM:   7    -0.231766965947E+04    0.95317E-05   -0.83160E-05  3433   0.728E-03
 118 F= -.23384603E+04 E0= -.23384602E+04  d E =-.119204E-02  mag=     2.0000
       N       E                     dE             d eps       ncg     rms          rms(c)
DAV:   1    -0.231766727617E+04    0.23928E-02   -0.13880E-01  4576   0.346E-01    0.121E-01
RMM:   2    -0.231766970652E+04   -0.24303E-02   -0.25331E-02  6429   0.812E-02    0.846E-02
RMM:   3    -0.231766994867E+04   -0.24214E-03   -0.27958E-03  4081   0.298E-02    0.106E-01
RMM:   4    -0.231766988137E+04    0.67301E-04   -0.34593E-04  3031   0.877E-03    0.636E-02
RMM:   5    -0.231766986223E+04    0.19139E-04   -0.54125E-05  2921   0.465E-03    0.362E-02
RMM:   6    -0.231766984784E+04    0.14388E-04   -0.24445E-05  2856   0.406E-03    0.142E-02
RMM:   7    -0.231766984613E+04    0.17036E-05   -0.14887E-05  2886   0.357E-03
 119 F= -.23384602E+04 E0= -.23384602E+04  d E =-.115521E-02  mag=     2.0000
       N       E                     dE             d eps       ncg     rms          rms(c)
DAV:   1    -0.231765872749E+04    0.11120E-01   -0.64907E-01  4464   0.742E-01    0.253E-01
RMM:   2    -0.231767058805E+04   -0.11861E-01   -0.12242E-01  6392   0.174E-01    0.211E-01
RMM:   3    -0.231767171391E+04   -0.11259E-02   -0.13171E-02  5684   0.627E-02    0.270E-01
RMM:   4    -0.231767134983E+04    0.36408E-03   -0.16262E-03  3726   0.158E-02    0.132E-01
RMM:   5    -0.231767124778E+04    0.10205E-03   -0.25481E-04  3207   0.881E-03    0.710E-02
RMM:   6    -0.231767118799E+04    0.59790E-04   -0.10625E-04  3326   0.782E-03    0.312E-02
RMM:   7    -0.231767118049E+04    0.74971E-05   -0.61494E-05  3190   0.650E-03
 120 F= -.23384611E+04 E0= -.23384610E+04  d E =-.824540E-03  mag=     2.0000
       N       E                     dE             d eps       ncg     rms          rms(c)
DAV:   1    -0.231766563650E+04    0.55515E-02   -0.31120E-01  4464   0.514E-01    0.176E-01
RMM:   2    -0.231767133068E+04   -0.56942E-02   -0.58698E-02  6480   0.121E-01    0.149E-01
RMM:   3    -0.231767186810E+04   -0.53743E-03   -0.65460E-03  4992   0.447E-02    0.185E-01
RMM:   4    -0.231767170269E+04    0.16541E-03   -0.79455E-04  3179   0.117E-02    0.947E-02
RMM:   5    -0.231767164951E+04    0.53184E-04   -0.12615E-04  3006   0.673E-03    0.491E-02
RMM:   6    -0.231767162136E+04    0.28148E-04   -0.49895E-05  2923   0.563E-03    0.221E-02
RMM:   7    -0.231767161754E+04    0.38162E-05   -0.32282E-05  2954   0.492E-03
 121 F= -.23384611E+04 E0= -.23384611E+04  d E =-.908745E-03  mag=     2.0000
       N       E                     dE             d eps       ncg     rms          rms(c)
DAV:   1    -0.231766597326E+04    0.56481E-02   -0.40708E-01  4464   0.618E-01    0.219E-01
RMM:   2    -0.231767306579E+04   -0.70925E-02   -0.71945E-02  6382   0.145E-01    0.210E-01
RMM:   3    -0.231767352246E+04   -0.45667E-03   -0.77200E-03  5564   0.537E-02    0.230E-01
RMM:   4    -0.231767326923E+04    0.25323E-03   -0.97857E-04  3749   0.140E-02    0.124E-01
RMM:   5    -0.231767315834E+04    0.11089E-03   -0.21423E-04  3132   0.882E-03    0.562E-02
RMM:   6    -0.231767311994E+04    0.38391E-04   -0.92086E-05  3717   0.783E-03    0.258E-02
RMM:   7    -0.231767311576E+04    0.41861E-05   -0.34251E-05  2949   0.619E-03
 122 F= -.23384621E+04 E0= -.23384621E+04  d E =-.951100E-03  mag=     2.0000
       N       E                     dE             d eps       ncg     rms          rms(c)
DAV:   1    -0.231767259267E+04    0.52727E-03   -0.40495E-02  4704   0.195E-01    0.697E-02
RMM:   2    -0.231767330852E+04   -0.71585E-03   -0.72473E-03  6380   0.468E-02    0.666E-02
RMM:   3    -0.231767334992E+04   -0.41399E-04   -0.78255E-04  3344   0.174E-02    0.686E-02
RMM:   4    -0.231767332748E+04    0.22434E-04   -0.99465E-05  2922   0.580E-03    0.415E-02
RMM:   5    -0.231767331570E+04    0.11781E-04   -0.22787E-05  2880   0.313E-03    0.179E-02
RMM:   6    -0.231767331204E+04    0.36642E-05   -0.86673E-06  2834   0.269E-03
 123 F= -.23384621E+04 E0= -.23384621E+04  d E =-.974254E-03  mag=     2.0000
       N       E                     dE             d eps       ncg     rms          rms(c)
DAV:   1    -0.231767064534E+04    0.26704E-02   -0.23042E-01  4464   0.466E-01    0.164E-01
RMM:   2    -0.231767440366E+04   -0.37583E-02   -0.38174E-02  6338   0.107E-01    0.147E-01
RMM:   3    -0.231767458869E+04   -0.18503E-03   -0.41053E-03  5043   0.384E-02    0.139E-01
RMM:   4    -0.231767446170E+04    0.12700E-03   -0.49004E-04  3258   0.105E-02    0.940E-02
RMM:   5    -0.231767440930E+04    0.52395E-04   -0.10493E-04  2952   0.670E-03    0.460E-02
RMM:   6    -0.231767438544E+04    0.23867E-04   -0.51897E-05  3134   0.603E-03    0.189E-02
RMM:   7    -0.231767438239E+04    0.30426E-05   -0.20828E-05  2911   0.517E-03
 124 F= -.23384627E+04 E0= -.23384627E+04  d E =-.598901E-03  mag=     2.0000
       N       E                     dE             d eps       ncg     rms          rms(c)
DAV:   1    -0.231767418973E+04    0.19570E-03   -0.21535E-02  4736   0.142E-01    0.509E-02
RMM:   2    -0.231767454667E+04   -0.35693E-03   -0.36288E-03  6327   0.341E-02    0.443E-02
RMM:   3    -0.231767456188E+04   -0.15213E-04   -0.39429E-04  3063   0.126E-02    0.360E-02
RMM:   4    -0.231767454893E+04    0.12949E-04   -0.45887E-05  2908   0.452E-03    0.225E-02
RMM:   5    -0.231767454696E+04    0.19730E-05   -0.88641E-06  2820   0.218E-03
 125 F= -.23384627E+04 E0= -.23384627E+04  d E =-.618725E-03  mag=     2.0000
       N       E                     dE             d eps       ncg     rms          rms(c)
DAV:   1    -0.231767373438E+04    0.81455E-03   -0.12415E-01  4472   0.356E-01    0.120E-01
RMM:   2    -0.231767523266E+04   -0.14983E-02   -0.15548E-02  6233   0.760E-02    0.855E-02
RMM:   3    -0.231767534756E+04   -0.11490E-03   -0.16111E-03  4329   0.273E-02    0.948E-02
RMM:   4    -0.231767524801E+04    0.99551E-04   -0.20135E-04  3065   0.875E-03    0.523E-02
RMM:   5    -0.231767524065E+04    0.73609E-05   -0.52849E-05  2908   0.544E-03
 126 F= -.23384632E+04 E0= -.23384631E+04  d E =-.422318E-03  mag=     2.0000
       N       E                     dE             d eps       ncg     rms          rms(c)
DAV:   1    -0.231767522960E+04    0.18403E-04   -0.23334E-03  5344   0.490E-02    0.196E-02
RMM:   2    -0.231767526562E+04   -0.36014E-04   -0.32450E-04  4371   0.116E-02    0.357E-02
RMM:   3    -0.231767525989E+04    0.57291E-05   -0.36056E-05  2843   0.573E-03
 127 F= -.23384631E+04 E0= -.23384631E+04  d E =-.402656E-03  mag=     2.0000
       N       E                     dE             d eps       ncg     rms          rms(c)
DAV:   1    -0.231767483397E+04    0.43164E-03   -0.82763E-02  4480   0.292E-01    0.986E-02
RMM:   2    -0.231767579682E+04   -0.96284E-03   -0.98899E-03  6267   0.612E-02    0.768E-02
RMM:   3    -0.231767585420E+04   -0.57381E-04   -0.10451E-03  3879   0.220E-02    0.762E-02
RMM:   4    -0.231767579099E+04    0.63206E-04   -0.13509E-04  2991   0.773E-03    0.460E-02
RMM:   5    -0.231767578453E+04    0.64581E-05   -0.37491E-05  2890   0.476E-03
 128 F= -.23384634E+04 E0= -.23384634E+04  d E =-.308019E-03  mag=     2.0000
       N       E                     dE             d eps       ncg     rms          rms(c)
DAV:   1    -0.231767576561E+04    0.25387E-04   -0.47973E-03  5128   0.705E-02    0.252E-02
RMM:   2    -0.231767582462E+04   -0.59017E-04   -0.59285E-04  5416   0.159E-02    0.316E-02
RMM:   3    -0.231767582572E+04   -0.11012E-05   -0.67348E-05  2868   0.657E-03
 129 F= -.23384634E+04 E0= -.23384634E+04  d E =-.295510E-03  mag=     2.0000
       N       E                     dE             d eps       ncg     rms          rms(c)
DAV:   1    -0.231767521463E+04    0.60999E-03   -0.81322E-02  4480   0.293E-01    0.952E-02
RMM:   2    -0.231767629837E+04   -0.10837E-02   -0.10865E-02  6197   0.620E-02    0.991E-02
RMM:   3    -0.231767634049E+04   -0.42119E-04   -0.12042E-03  3797   0.228E-02    0.967E-02
RMM:   4    -0.231767629539E+04    0.45099E-04   -0.16702E-04  2955   0.740E-03    0.581E-02
RMM:   5    -0.231767627107E+04    0.24316E-04   -0.45255E-05  2901   0.492E-03    0.265E-02
RMM:   6    -0.231767626130E+04    0.97735E-05   -0.26647E-05  2901   0.471E-03
 130 F= -.23384637E+04 E0= -.23384636E+04  d E =-.225744E-03  mag=     2.0000
       N       E                     dE             d eps       ncg     rms          rms(c)
DAV:   1    -0.231767626589E+04    0.51825E-05   -0.16046E-03  5168   0.415E-02    0.146E-02
RMM:   2    -0.231767628684E+04   -0.20953E-04   -0.22187E-04  3782   0.100E-02    0.113E-02
RMM:   3    -0.231767628928E+04   -0.24413E-05   -0.31087E-05  2812   0.564E-03
 131 F= -.23384637E+04 E0= -.23384636E+04  d E =-.223456E-03  mag=     2.0000
       N       E                     dE             d eps       ncg     rms          rms(c)
DAV:   1    -0.231767572628E+04    0.56056E-03   -0.74509E-02  4480   0.283E-01    0.926E-02
RMM:   2    -0.231767670866E+04   -0.98238E-03   -0.99859E-03  6177   0.589E-02    0.944E-02
RMM:   3    -0.231767678169E+04   -0.73031E-04   -0.11188E-03  3702   0.225E-02    0.109E-01
RMM:   4    -0.231767672134E+04    0.60356E-04   -0.15436E-04  2940   0.740E-03    0.477E-02
RMM:   5    -0.231767670451E+04    0.16827E-04   -0.44402E-05  2910   0.476E-03    0.254E-02
RMM:   6    -0.231767669520E+04    0.93102E-05   -0.23084E-05  2882   0.450E-03
 132 F= -.23384639E+04 E0= -.23384638E+04  d E =-.220642E-03  mag=     2.0000
       N       E                     dE             d eps       ncg     rms          rms(c)
DAV:   1    -0.231767667437E+04    0.30142E-04   -0.49380E-03  4968   0.732E-02    0.246E-02
RMM:   2    -0.231767673792E+04   -0.63556E-04   -0.67290E-04  5392   0.166E-02    0.162E-02
RMM:   3    -0.231767674495E+04   -0.70278E-05   -0.79257E-05  2869   0.684E-03
 133 F= -.23384639E+04 E0= -.23384638E+04  d E =-.221876E-03  mag=     2.0000
       N       E                     dE             d eps       ncg     rms          rms(c)
DAV:   1    -0.231767621746E+04    0.52046E-03   -0.63780E-02  4480   0.261E-01    0.834E-02
RMM:   2    -0.231767704244E+04   -0.82498E-03   -0.86241E-03  6248   0.554E-02    0.560E-02
RMM:   3    -0.231767712530E+04   -0.82863E-04   -0.10128E-03  3607   0.207E-02    0.694E-02
RMM:   4    -0.231767708854E+04    0.36759E-04   -0.12147E-04  2944   0.657E-03    0.421E-02
RMM:   5    -0.231767708327E+04    0.52770E-05   -0.28154E-05  2893   0.367E-03
 134 F= -.23384641E+04 E0= -.23384640E+04  d E =-.179285E-03  mag=     2.0000
       N       E                     dE             d eps       ncg     rms          rms(c)
DAV:   1    -0.231767707163E+04    0.16909E-04   -0.29373E-03  5216   0.561E-02    0.211E-02
RMM:   2    -0.231767711987E+04   -0.48235E-04   -0.41771E-04  4426   0.126E-02    0.421E-02
RMM:   3    -0.231767711203E+04    0.78381E-05   -0.44288E-05  2862   0.600E-03
 135 F= -.23384640E+04 E0= -.23384640E+04  d E =-.173075E-03  mag=     2.0000
       N       E                     dE             d eps       ncg     rms          rms(c)
DAV:   1    -0.231767679765E+04    0.32222E-03   -0.53689E-02  4480   0.242E-01    0.811E-02
RMM:   2    -0.231767744527E+04   -0.64763E-03   -0.66761E-03  6239   0.507E-02    0.574E-02
RMM:   3    -0.231767749256E+04   -0.47282E-04   -0.71630E-04  3579   0.187E-02    0.563E-02
RMM:   4    -0.231767744719E+04    0.45366E-04   -0.90844E-05  2957   0.673E-03    0.208E-02
RMM:   5    -0.231767744735E+04   -0.16439E-06   -0.24556E-05  2896   0.433E-03
 136 F= -.23384642E+04 E0= -.23384642E+04  d E =-.175632E-03  mag=     2.0000
       N       E                     dE             d eps       ncg     rms          rms(c)
DAV:   1    -0.231767745126E+04   -0.40693E-05   -0.16157E-03  5312   0.419E-02    0.225E-02
RMM:   2    -0.231767750377E+04   -0.52510E-04   -0.23856E-04  3968   0.103E-02    0.751E-02
RMM:   3    -0.231767747012E+04    0.33645E-04   -0.37433E-05  2807   0.561E-03    0.986E-03
RMM:   4    -0.231767747004E+04    0.80167E-07   -0.72605E-06  2685   0.200E-03
 137 F= -.23384642E+04 E0= -.23384642E+04  d E =-.170288E-03  mag=     2.0000
       N       E                     dE             d eps       ncg     rms          rms(c)
DAV:   1    -0.231767707168E+04    0.39845E-03   -0.52486E-02  4472   0.236E-01    0.749E-02
RMM:   2    -0.231767778112E+04   -0.70945E-03   -0.74554E-03  6233   0.508E-02    0.455E-02
RMM:   3    -0.231767785055E+04   -0.69422E-04   -0.80187E-04  3480   0.192E-02    0.558E-02
RMM:   4    -0.231767782473E+04    0.25819E-04   -0.95296E-05  2935   0.613E-03    0.339E-02
RMM:   5    -0.231767782228E+04    0.24446E-05   -0.22112E-05  2870   0.342E-03
 138 F= -.23384644E+04 E0= -.23384643E+04  d E =-.159427E-03  mag=     2.0000
       N       E                     dE             d eps       ncg     rms          rms(c)
DAV:   1    -0.231767781441E+04    0.10320E-04   -0.40400E-03  4848   0.656E-02    0.228E-02
RMM:   2    -0.231767787515E+04   -0.60748E-04   -0.59233E-04  5224   0.151E-02    0.305E-02
RMM:   3    -0.231767787472E+04    0.43539E-06   -0.65546E-05  2869   0.637E-03
 139 F= -.23384644E+04 E0= -.23384643E+04  d E =-.157411E-03  mag=     2.0000
       N       E                     dE             d eps       ncg     rms          rms(c)
DAV:   1    -0.231767747603E+04    0.39913E-03   -0.46212E-02  4472   0.221E-01    0.751E-02
RMM:   2    -0.231767822059E+04   -0.74456E-03   -0.73479E-03  6294   0.501E-02    0.752E-02
RMM:   3    -0.231767822258E+04   -0.19889E-05   -0.80508E-04  3449   0.183E-02    0.509E-02
RMM:   4    -0.231767820209E+04    0.20484E-04   -0.93869E-05  2934   0.598E-03    0.406E-02
RMM:   5    -0.231767819441E+04    0.76869E-05   -0.21713E-05  2874   0.347E-03
 140 F= -.23384645E+04 E0= -.23384645E+04  d E =-.167366E-03  mag=     2.0000
       N       E                     dE             d eps       ncg     rms          rms(c)
DAV:   1    -0.231767815342E+04    0.48670E-04   -0.61837E-03  4840   0.811E-02    0.274E-02
RMM:   2    -0.231767825270E+04   -0.99281E-04   -0.98017E-04  5875   0.188E-02    0.376E-02
RMM:   3    -0.231767825352E+04   -0.81756E-06   -0.10977E-04  2890   0.721E-03    0.275E-02
RMM:   4    -0.231767825076E+04    0.27575E-05   -0.14743E-05  2886   0.263E-03
 141 F= -.23384645E+04 E0= -.23384645E+04  d E =-.166885E-03  mag=     2.0000
       N       E                     dE             d eps       ncg     rms          rms(c)
DAV:   1    -0.231767792928E+04    0.32424E-03   -0.37664E-02  4472   0.202E-01    0.649E-02
RMM:   2    -0.231767847524E+04   -0.54597E-03   -0.56386E-03  6286   0.441E-02    0.529E-02
RMM:   3    -0.231767853143E+04   -0.56186E-04   -0.61928E-04  3211   0.161E-02    0.748E-02
RMM:   4    -0.231767850098E+04    0.30454E-04   -0.75641E-05  2896   0.551E-03    0.323E-02
RMM:   5    -0.231767849490E+04    0.60772E-05   -0.22658E-05  2867   0.321E-03
 142 F= -.23384647E+04 E0= -.23384646E+04  d E =-.129677E-03  mag=     2.0000
       N       E                     dE             d eps       ncg     rms          rms(c)
DAV:   1    -0.231767847452E+04    0.26453E-04   -0.35340E-03  4880   0.620E-02    0.220E-02
RMM:   2    -0.231767853510E+04   -0.60580E-04   -0.55639E-04  5121   0.145E-02    0.380E-02
RMM:   3    -0.231767852990E+04    0.52063E-05   -0.59506E-05  2867   0.611E-03
 143 F= -.23384647E+04 E0= -.23384646E+04  d E =-.128876E-03  mag=     2.0000
       N       E                     dE             d eps       ncg     rms          rms(c)
DAV:   1    -0.231767829510E+04    0.24000E-03   -0.34424E-02  4456   0.193E-01    0.638E-02
RMM:   2    -0.231767874300E+04   -0.44790E-03   -0.45408E-03  6217   0.412E-02    0.523E-02
RMM:   3    -0.231767876333E+04   -0.20334E-04   -0.50158E-04  3262   0.154E-02    0.431E-02
RMM:   4    -0.231767873853E+04    0.24805E-04   -0.60975E-05  2926   0.555E-03    0.212E-02
RMM:   5    -0.231767874121E+04   -0.26834E-05   -0.16270E-05  2875   0.314E-03
 144 F= -.23384648E+04 E0= -.23384648E+04  d E =-.124722E-03  mag=     2.0000
       N       E                     dE             d eps       ncg     rms          rms(c)
DAV:   1    -0.231767872457E+04    0.13962E-04   -0.26481E-03  5040   0.535E-02    0.195E-02
RMM:   2    -0.231767876470E+04   -0.40134E-04   -0.36159E-04  4415   0.121E-02    0.359E-02
RMM:   3    -0.231767876049E+04    0.42114E-05   -0.38683E-05  2860   0.585E-03
 145 F= -.23384648E+04 E0= -.23384648E+04  d E =-.119515E-03  mag=     2.0000
       N       E                     dE             d eps       ncg     rms          rms(c)
DAV:   1    -0.231767857618E+04    0.18852E-03   -0.29291E-02  4472   0.174E-01    0.545E-02
RMM:   2    -0.231767895218E+04   -0.37600E-03   -0.38843E-03  6213   0.368E-02    0.395E-02
RMM:   3    -0.231767898228E+04   -0.30104E-04   -0.41970E-04  3064   0.137E-02    0.395E-02
RMM:   4    -0.231767896573E+04    0.16556E-04   -0.53076E-05  2915   0.497E-03    0.230E-02
RMM:   5    -0.231767896564E+04    0.86176E-07   -0.12118E-05  2848   0.256E-03
 146 F= -.23384649E+04 E0= -.23384649E+04  d E =-.108544E-03  mag=     2.0000
       N       E                     dE             d eps       ncg     rms          rms(c)
DAV:   1    -0.231767888349E+04    0.82241E-04   -0.11320E-02  4464   0.108E-01    0.337E-02
RMM:   2    -0.231767902653E+04   -0.14304E-03   -0.14924E-03  6038   0.231E-02    0.285E-02
RMM:   3    -0.231767904413E+04   -0.17598E-04   -0.16273E-04  2899   0.875E-03    0.438E-02
RMM:   4    -0.231767903373E+04    0.10398E-04   -0.21021E-05  2885   0.324E-03    0.135E-02
RMM:   5    -0.231767903361E+04    0.12323E-06   -0.69363E-06  2708   0.181E-03
 147 F= -.23384649E+04 E0= -.23384649E+04  d E =-.115845E-03  mag=     2.0000
       N       E                     dE             d eps       ncg     rms          rms(c)
DAV:   1    -0.231767881653E+04    0.21720E-03   -0.32691E-02  4472   0.186E-01    0.582E-02
RMM:   2    -0.231767923578E+04   -0.41925E-03   -0.43774E-03  6171   0.393E-02    0.486E-02
RMM:   3    -0.231767928983E+04   -0.54045E-04   -0.46585E-04  3106   0.145E-02    0.795E-02
RMM:   4    -0.231767925418E+04    0.35644E-04   -0.59187E-05  2894   0.522E-03    0.199E-02
RMM:   5    -0.231767925421E+04   -0.23298E-07   -0.18380E-05  2835   0.298E-03
 148 F= -.23384650E+04 E0= -.23384650E+04  d E =-.117486E-03  mag=     2.0000
       N       E                     dE             d eps       ncg     rms          rms(c)
DAV:   1    -0.231767920215E+04    0.52030E-04   -0.79145E-03  4640   0.914E-02    0.295E-02
RMM:   2    -0.231767931037E+04   -0.10822E-03   -0.10916E-03  5838   0.201E-02    0.359E-02
RMM:   3    -0.231767931634E+04   -0.59686E-05   -0.10968E-04  2888   0.766E-03    0.359E-02
RMM:   4    -0.231767930962E+04    0.67230E-05   -0.15073E-05  2884   0.287E-03
 149 F= -.23384650E+04 E0= -.23384650E+04  d E =-.121624E-03  mag=     2.0000
       N       E                     dE             d eps       ncg     rms          rms(c)
DAV:   1    -0.231767912742E+04    0.18892E-03   -0.26477E-02  4472   0.168E-01    0.537E-02
RMM:   2    -0.231767949564E+04   -0.36822E-03   -0.37972E-03  6250   0.361E-02    0.545E-02
RMM:   3    -0.231767953830E+04   -0.42651E-04   -0.44080E-04  3031   0.135E-02    0.711E-02
RMM:   4    -0.231767951049E+04    0.27804E-04   -0.49673E-05  2891   0.476E-03    0.154E-02
RMM:   5    -0.231767950965E+04    0.84534E-06   -0.13432E-05  2884   0.293E-03
 150 F= -.23384651E+04 E0= -.23384651E+04  d E =-.958119E-04  mag=     2.0000
