       N       E                     dE             d eps       ncg     rms          rms(c)
DAV:   1     0.128595383104E+05    0.12860E+05   -0.83323E+05  4488   0.144E+03
DAV:   2    -0.104372382491E+04   -0.13903E+05   -0.13297E+05  5128   0.330E+02
DAV:   3    -0.246894286796E+04   -0.14252E+04   -0.14104E+04  5360   0.112E+02
DAV:   4    -0.251444251178E+04   -0.45500E+02   -0.45269E+02  6744   0.301E+01
DAV:   5    -0.251522064464E+04   -0.77813E+00   -0.77690E+00  5928   0.337E+00    0.170E+02
RMM:   6    -0.148501260079E+04    0.10302E+04   -0.19334E+03  4415   0.384E+01    0.723E+01
RMM:   7    -0.165868333396E+04   -0.17367E+03   -0.29414E+02  4991   0.144E+01    0.523E+01
RMM:   8    -0.170815428002E+04   -0.49471E+02   -0.81049E+01  5256   0.827E+00    0.430E+01
RMM:   9    -0.178376285136E+04   -0.75609E+02   -0.65316E+01  4944   0.781E+00    0.328E+01
RMM:  10    -0.189427260078E+04   -0.11051E+03   -0.56180E+01  5384   0.717E+00    0.276E+01
RMM:  11    -0.197998437607E+04   -0.85712E+02   -0.34980E+01  5363   0.510E+00    0.167E+01
RMM:  12    -0.208296989830E+04   -0.10299E+03   -0.48803E+01  4641   0.533E+00    0.129E+01
RMM:  13    -0.219752411752E+04   -0.11455E+03   -0.80863E+01  4441   0.664E+00    0.876E+00
RMM:  14    -0.228649699095E+04   -0.88973E+02   -0.88485E+01  4551   0.645E+00    0.767E+00
RMM:  15    -0.229285915417E+04   -0.63622E+01   -0.97949E+00  4711   0.362E+00    0.515E+00
RMM:  16    -0.230179296450E+04   -0.89338E+01   -0.91815E+00  4395   0.184E+00    0.268E+00
RMM:  17    -0.230621799359E+04   -0.44250E+01   -0.34117E+00  4418   0.148E+00    0.140E+00
RMM:  18    -0.230748151165E+04   -0.12635E+01   -0.13026E+00  4954   0.656E-01    0.958E-01
RMM:  19    -0.230781818187E+04   -0.33667E+00   -0.34724E-01  4812   0.321E-01    0.617E-01
RMM:  20    -0.230800325462E+04   -0.18507E+00   -0.18231E-01  4801   0.227E-01    0.328E-01
RMM:  21    -0.230806111520E+04   -0.57861E-01   -0.45621E-02  4722   0.136E-01    0.194E-01
RMM:  22    -0.230808558313E+04   -0.24468E-01   -0.11190E-02  4685   0.675E-02    0.128E-01
RMM:  23    -0.230810817772E+04   -0.22595E-01   -0.64962E-03  4417   0.591E-02    0.870E-02
RMM:  24    -0.230812233453E+04   -0.14157E-01   -0.39285E-03  4499   0.473E-02    0.577E-02
RMM:  25    -0.230812967609E+04   -0.73416E-02   -0.22008E-03  4644   0.360E-02    0.400E-02
RMM:  26    -0.230813319516E+04   -0.35191E-02   -0.11122E-03  4297   0.234E-02    0.195E-02
RMM:  27    -0.230813440903E+04   -0.12139E-02   -0.39444E-04  4151   0.150E-02    0.109E-02
RMM:  28    -0.230813477358E+04   -0.36455E-03   -0.11795E-04  3832   0.784E-03    0.640E-03
RMM:  29    -0.230813491371E+04   -0.14013E-03   -0.34977E-05  3276   0.498E-03    0.319E-03
RMM:  30    -0.230813497289E+04   -0.59182E-04   -0.12681E-05  2903   0.364E-03    0.259E-03
RMM:  31    -0.230813500070E+04   -0.27809E-04   -0.74026E-06  2817   0.280E-03    0.104E-03
RMM:  32    -0.230813500642E+04   -0.57224E-05   -0.32363E-06  2517   0.232E-03
   1 F= -.23289163E+04 E0= -.23289163E+04  d E =-.232892E+04  mag=     4.0000
       N       E                     dE             d eps       ncg     rms          rms(c)
DAV:   1    -0.230811037835E+04    0.24622E-01   -0.44949E+00  5136   0.209E+00    0.783E-01
RMM:   2    -0.230818457570E+04   -0.74197E-01   -0.81188E-01  5941   0.463E-01    0.541E-01
RMM:   3    -0.230819360430E+04   -0.90286E-02   -0.10370E-01  5793   0.222E-01    0.692E-01
RMM:   4    -0.230818863031E+04    0.49740E-02   -0.89936E-03  6145   0.498E-02    0.226E-01
RMM:   5    -0.230818769434E+04    0.93597E-03   -0.36386E-03  5123   0.362E-02    0.120E-01
RMM:   6    -0.230818752872E+04    0.16563E-03   -0.10095E-03  5166   0.233E-02    0.937E-02
RMM:   7    -0.230818747472E+04    0.53994E-04   -0.33970E-04  4340   0.109E-02    0.674E-02
RMM:   8    -0.230818739215E+04    0.82568E-04   -0.74439E-05  3162   0.708E-03    0.174E-02
RMM:   9    -0.230818737452E+04    0.17630E-04   -0.48489E-05  3155   0.542E-03    0.912E-03
RMM:  10    -0.230818737074E+04    0.37819E-05   -0.14399E-05  2873   0.469E-03
   2 F= -.23289685E+04 E0= -.23289685E+04  d E =-.521711E-01  mag=     4.0000
       N       E                     dE             d eps       ncg     rms          rms(c)
DAV:   1    -0.230817883824E+04    0.85363E-02   -0.76976E-01  4792   0.869E-01    0.326E-01
RMM:   2    -0.230819162534E+04   -0.12787E-01   -0.13865E-01  5864   0.190E-01    0.236E-01
RMM:   3    -0.230819290551E+04   -0.12802E-02   -0.16180E-02  5533   0.969E-02    0.275E-01
RMM:   4    -0.230819210426E+04    0.80125E-03   -0.15317E-03  5322   0.211E-02    0.922E-02
RMM:   5    -0.230819194900E+04    0.15526E-03   -0.58392E-04  4816   0.155E-02    0.556E-02
RMM:   6    -0.230819195115E+04   -0.21520E-05   -0.19980E-04  3984   0.110E-02    0.647E-02
RMM:   7    -0.230819190166E+04    0.49493E-04   -0.67427E-05  3091   0.590E-03    0.173E-02
RMM:   8    -0.230819189405E+04    0.76069E-05   -0.13479E-05  2880   0.425E-03
   3 F= -.23289730E+04 E0= -.23289730E+04  d E =-.566265E-01  mag=     4.0000
       N       E                     dE             d eps       ncg     rms          rms(c)
DAV:   1    -0.230815131701E+04    0.40585E-01   -0.42254E+00  4576   0.198E+00    0.715E-01
RMM:   2    -0.230822479713E+04   -0.73480E-01   -0.79603E-01  6117   0.413E-01    0.399E-01
RMM:   3    -0.230823413269E+04   -0.93356E-02   -0.97091E-02  5824   0.193E-01    0.532E-01
RMM:   4    -0.230823138697E+04    0.27457E-02   -0.83050E-03  6009   0.395E-02    0.188E-01
RMM:   5    -0.230823093122E+04    0.45575E-03   -0.17191E-03  5172   0.220E-02    0.144E-01
RMM:   6    -0.230823088048E+04    0.50734E-04   -0.10172E-03  5125   0.171E-02    0.139E-01
RMM:   7    -0.230823067437E+04    0.20611E-03   -0.31610E-04  4392   0.105E-02    0.357E-02
RMM:   8    -0.230823065767E+04    0.16706E-04   -0.45536E-05  2943   0.626E-03    0.144E-02
RMM:   9    -0.230823065294E+04    0.47317E-05   -0.18652E-05  2877   0.426E-03
   4 F= -.23290119E+04 E0= -.23290119E+04  d E =-.389324E-01  mag=     4.0000
       N       E                     dE             d eps       ncg     rms          rms(c)
DAV:   1    -0.230800772311E+04    0.22293E+00   -0.13040E+01  4512   0.348E+00    0.126E+00
RMM:   2    -0.230823702913E+04   -0.22931E+00   -0.24923E+00  6190   0.735E-01    0.682E-01
RMM:   3    -0.230826789553E+04   -0.30866E-01   -0.32847E-01  5878   0.332E-01    0.919E-01
RMM:   4    -0.230826013159E+04    0.77639E-02   -0.26940E-02  6320   0.693E-02    0.351E-01
RMM:   5    -0.230825849273E+04    0.16389E-02   -0.49756E-03  5418   0.352E-02    0.251E-01
RMM:   6    -0.230825826120E+04    0.23152E-03   -0.36108E-03  5437   0.299E-02    0.245E-01
RMM:   7    -0.230825765419E+04    0.60702E-03   -0.11497E-03  5289   0.194E-02    0.875E-02
RMM:   8    -0.230825756149E+04    0.92701E-04   -0.17902E-04  3987   0.913E-03    0.355E-02
RMM:   9    -0.230825753266E+04    0.28823E-04   -0.75836E-05  2999   0.811E-03    0.151E-02
RMM:  10    -0.230825752713E+04    0.55357E-05   -0.36098E-05  2945   0.455E-03
   5 F= -.23290391E+04 E0= -.23290391E+04  d E =-.661811E-01  mag=     4.0000
       N       E                     dE             d eps       ncg     rms          rms(c)
DAV:   1    -0.230817349909E+04    0.84034E-01   -0.56880E+00  4544   0.211E+00    0.768E-01
RMM:   2    -0.230828835012E+04   -0.11485E+00   -0.12353E+00  6344   0.484E-01    0.510E-01
RMM:   3    -0.230830018119E+04   -0.11831E-01   -0.13753E-01  5946   0.197E-01    0.445E-01
RMM:   4    -0.230829940925E+04    0.77194E-03   -0.12953E-02  5909   0.418E-02    0.268E-01
RMM:   5    -0.230829867808E+04    0.73117E-03   -0.18025E-03  4984   0.208E-02    0.154E-01
RMM:   6    -0.230829843559E+04    0.24250E-03   -0.11614E-03  5153   0.187E-02    0.825E-02
RMM:   7    -0.230829846746E+04   -0.31878E-04   -0.31088E-04  4097   0.119E-02    0.826E-02
RMM:   8    -0.230829838271E+04    0.84756E-04   -0.10384E-04  3204   0.664E-03    0.339E-02
RMM:   9    -0.230829836822E+04    0.14487E-04   -0.28176E-05  2857   0.497E-03    0.126E-02
RMM:  10    -0.230829836775E+04    0.46978E-06   -0.15519E-05  2867   0.306E-03
   6 F= -.23290803E+04 E0= -.23290803E+04  d E =-.411212E-01  mag=     4.0000
       N       E                     dE             d eps       ncg     rms          rms(c)
DAV:   1    -0.230771875907E+04    0.57961E+00   -0.27234E+01  4444   0.464E+00    0.171E+00
RMM:   2    -0.230828650418E+04   -0.56775E+00   -0.60986E+00  6394   0.110E+00    0.121E+00
RMM:   3    -0.230834366664E+04   -0.57162E-01   -0.71561E-01  6055   0.430E-01    0.104E+00
RMM:   4    -0.230833869731E+04    0.49693E-02   -0.65173E-02  6284   0.941E-02    0.616E-01
RMM:   5    -0.230833532253E+04    0.33748E-02   -0.88715E-03  5337   0.417E-02    0.392E-01
RMM:   6    -0.230833436218E+04    0.96035E-03   -0.75694E-03  5671   0.428E-02    0.321E-01
RMM:   7    -0.230833354636E+04    0.81582E-03   -0.25407E-03  5640   0.278E-02    0.164E-01
RMM:   8    -0.230833326535E+04    0.28101E-03   -0.63461E-04  5199   0.147E-02    0.855E-02
RMM:   9    -0.230833316625E+04    0.99097E-04   -0.17560E-04  3239   0.102E-02    0.328E-02
RMM:  10    -0.230833315922E+04    0.70294E-05   -0.92758E-05  3114   0.616E-03
   7 F= -.23291158E+04 E0= -.23291158E+04  d E =-.766136E-01  mag=     4.0000
       N       E                     dE             d eps       ncg     rms          rms(c)
DAV:   1    -0.230827966957E+04    0.53497E-01   -0.38647E+00  4544   0.175E+00    0.660E-01
RMM:   2    -0.230835554803E+04   -0.75878E-01   -0.81388E-01  6361   0.397E-01    0.456E-01
RMM:   3    -0.230836346678E+04   -0.79188E-02   -0.91533E-02  5984   0.164E-01    0.420E-01
RMM:   4    -0.230836241793E+04    0.10489E-02   -0.85918E-03  5602   0.346E-02    0.190E-01
RMM:   5    -0.230836204163E+04    0.37630E-03   -0.10826E-03  4766   0.171E-02    0.113E-01
RMM:   6    -0.230836198737E+04    0.54262E-04   -0.57735E-04  4832   0.139E-02    0.865E-02
RMM:   7    -0.230836195277E+04    0.34595E-04   -0.24897E-04  3573   0.105E-02    0.629E-02
RMM:   8    -0.230836190765E+04    0.45119E-04   -0.45256E-05  2897   0.534E-03    0.190E-02
RMM:   9    -0.230836190329E+04    0.43643E-05   -0.18410E-05  2857   0.354E-03
   8 F= -.23291447E+04 E0= -.23291447E+04  d E =-.289299E-01  mag=     4.0000
       N       E                     dE             d eps       ncg     rms          rms(c)
DAV:   1    -0.230791678486E+04    0.44512E+00   -0.21906E+01  4444   0.417E+00    0.159E+00
RMM:   2    -0.230835897897E+04   -0.44219E+00   -0.47316E+00  6413   0.976E-01    0.121E+00
RMM:   3    -0.230840480044E+04   -0.45821E-01   -0.56981E-01  6094   0.394E-01    0.108E+00
RMM:   4    -0.230839746079E+04    0.73396E-02   -0.50708E-02  6191   0.849E-02    0.475E-01
RMM:   5    -0.230839531643E+04    0.21444E-02   -0.62403E-03  5262   0.367E-02    0.314E-01
RMM:   6    -0.230839488707E+04    0.42936E-03   -0.49724E-03  5687   0.359E-02    0.269E-01
RMM:   7    -0.230839432884E+04    0.55823E-03   -0.17819E-03  5497   0.237E-02    0.148E-01
RMM:   8    -0.230839409590E+04    0.23294E-03   -0.40936E-04  4939   0.117E-02    0.610E-02
RMM:   9    -0.230839403762E+04    0.58282E-04   -0.10387E-04  2936   0.812E-03    0.245E-02
RMM:  10    -0.230839402774E+04    0.98803E-05   -0.55401E-05  2921   0.513E-03
   9 F= -.23291773E+04 E0= -.23291773E+04  d E =-.615720E-01  mag=     4.0000
       N       E                     dE             d eps       ncg     rms          rms(c)
DAV:   1    -0.230839224391E+04    0.17937E-02   -0.19020E+00  4544   0.124E+00    0.477E-01
RMM:   2    -0.230842426733E+04   -0.32023E-01   -0.32871E-01  6189   0.278E-01    0.449E-01
RMM:   3    -0.230842609937E+04   -0.18320E-02   -0.39781E-02  5962   0.111E-01    0.289E-01
RMM:   4    -0.230842556733E+04    0.53205E-03   -0.35242E-03  5352   0.250E-02    0.118E-01
RMM:   5    -0.230842549195E+04    0.75380E-04   -0.52031E-04  4658   0.156E-02    0.109E-01
RMM:   6    -0.230842543733E+04    0.54621E-04   -0.37526E-04  4728   0.115E-02    0.895E-02
RMM:   7    -0.230842535751E+04    0.79814E-04   -0.11373E-04  3351   0.861E-03    0.213E-02
RMM:   8    -0.230842535372E+04    0.37971E-05   -0.23273E-05  2890   0.521E-03
  10 F= -.23292084E+04 E0= -.23292084E+04  d E =-.310330E-01  mag=     4.0000
       N       E                     dE             d eps       ncg     rms          rms(c)
DAV:   1    -0.230816942700E+04    0.25593E+00   -0.17092E+01  4440   0.371E+00    0.146E+00
RMM:   2    -0.230846873038E+04   -0.29930E+00   -0.30497E+00  6212   0.848E-01    0.151E+00
RMM:   3    -0.230847623246E+04   -0.75021E-02   -0.35785E-01  6036   0.329E-01    0.825E-01
RMM:   4    -0.230847243864E+04    0.37938E-02   -0.31495E-02  5627   0.747E-02    0.355E-01
RMM:   5    -0.230847183401E+04    0.60463E-03   -0.45802E-03  5335   0.453E-02    0.337E-01
RMM:   6    -0.230847117229E+04    0.66172E-03   -0.32723E-03  5890   0.323E-02    0.258E-01
RMM:   7    -0.230847049871E+04    0.67358E-03   -0.97494E-04  5009   0.221E-02    0.544E-02
RMM:   8    -0.230847046809E+04    0.30627E-04   -0.16275E-04  3940   0.104E-02    0.318E-02
RMM:   9    -0.230847044964E+04    0.18449E-04   -0.63167E-05  3149   0.667E-03    0.131E-02
RMM:  10    -0.230847044728E+04    0.23565E-05   -0.18343E-05  2886   0.428E-03
  11 F= -.23292525E+04 E0= -.23292525E+04  d E =-.752072E-01  mag=     4.0000
       N       E                     dE             d eps       ncg     rms          rms(c)
DAV:   1    -0.230846228517E+04    0.81645E-02   -0.21372E+00  4512   0.126E+00    0.515E-01
RMM:   2    -0.230849992640E+04   -0.37641E-01   -0.37970E-01  6339   0.294E-01    0.517E-01
RMM:   3    -0.230850153470E+04   -0.16083E-02   -0.44916E-02  5967   0.112E-01    0.316E-01
RMM:   4    -0.230850097513E+04    0.55956E-03   -0.40039E-03  5316   0.249E-02    0.133E-01
RMM:   5    -0.230850094608E+04    0.29056E-04   -0.61802E-04  4097   0.134E-02    0.133E-01
RMM:   6    -0.230850072972E+04    0.21636E-03   -0.36150E-04  4768   0.113E-02    0.588E-02
RMM:   7    -0.230850070840E+04    0.21318E-04   -0.13027E-04  3499   0.867E-03    0.206E-02
RMM:   8    -0.230850070657E+04    0.18324E-05   -0.20610E-05  2888   0.519E-03
  12 F= -.23292827E+04 E0= -.23292827E+04  d E =-.301466E-01  mag=     4.0000
       N       E                     dE             d eps       ncg     rms          rms(c)
DAV:   1    -0.230820917733E+04    0.29153E+00   -0.19210E+01  4440   0.379E+00    0.157E+00
RMM:   2    -0.230856315966E+04   -0.35398E+00   -0.35453E+00  6313   0.903E-01    0.173E+00
RMM:   3    -0.230856480089E+04   -0.16412E-02   -0.40015E-01  6066   0.337E-01    0.881E-01
RMM:   4    -0.230856161355E+04    0.31873E-02   -0.37142E-02  5970   0.756E-02    0.438E-01
RMM:   5    -0.230856085315E+04    0.76039E-03   -0.56145E-03  5761   0.372E-02    0.393E-01
RMM:   6    -0.230855887303E+04    0.19801E-02   -0.31137E-03  5162   0.305E-02    0.163E-01
RMM:   7    -0.230855872531E+04    0.14772E-03   -0.11192E-03  4957   0.235E-02    0.477E-02
RMM:   8    -0.230855871513E+04    0.10178E-04   -0.12693E-04  3928   0.937E-03    0.231E-02
RMM:   9    -0.230855870396E+04    0.11169E-04   -0.33857E-05  2909   0.598E-03    0.101E-02
RMM:  10    -0.230855870258E+04    0.13782E-05   -0.15236E-05  2887   0.367E-03
  13 F= -.23293402E+04 E0= -.23293402E+04  d E =-.877032E-01  mag=     4.0000
       N       E                     dE             d eps       ncg     rms          rms(c)
DAV:   1    -0.230709670057E+04    0.14620E+01   -0.76940E+01  4448   0.760E+00    0.323E+00
RMM:   2    -0.230868006759E+04   -0.15834E+01   -0.15018E+01  6336   0.186E+00    0.725E+00
RMM:   3    -0.230853221500E+04    0.14785E+00   -0.17891E+00  6066   0.705E-01    0.172E+00
RMM:   4    -0.230854106881E+04   -0.88538E-02   -0.16674E-01  5253   0.151E-01    0.995E-01
RMM:   5    -0.230853544249E+04    0.56263E-02   -0.18867E-02  5690   0.814E-02    0.863E-01
RMM:   6    -0.230853189949E+04    0.35430E-02   -0.10184E-02  6192   0.523E-02    0.478E-01
RMM:   7    -0.230853040361E+04    0.14959E-02   -0.72032E-03  5434   0.425E-02    0.295E-01
RMM:   8    -0.230852986496E+04    0.53865E-03   -0.19433E-03  5523   0.268E-02    0.917E-02
RMM:   9    -0.230852988833E+04   -0.23370E-04   -0.31174E-04  4458   0.130E-02    0.437E-02
RMM:  10    -0.230852989812E+04   -0.97896E-05   -0.87170E-05  3481   0.833E-03
  14 F= -.23293102E+04 E0= -.23293102E+04  d E =-.576743E-01  mag=     3.9861
       N       E                     dE             d eps       ncg     rms          rms(c)
DAV:   1    -0.230797719004E+04    0.55270E+00   -0.32852E+01  4456   0.497E+00    0.191E+00
RMM:   2    -0.230851798899E+04   -0.54080E+00   -0.57192E+00  6337   0.115E+00    0.101E+00
RMM:   3    -0.230858190756E+04   -0.63919E-01   -0.70713E-01  5840   0.441E-01    0.112E+00
RMM:   4    -0.230857417719E+04    0.77304E-02   -0.59796E-02  6339   0.915E-02    0.520E-01
RMM:   5    -0.230857266934E+04    0.15079E-02   -0.73410E-03  5722   0.434E-02    0.430E-01
RMM:   6    -0.230857172737E+04    0.94196E-03   -0.53897E-03  6004   0.373E-02    0.347E-01
RMM:   7    -0.230857045741E+04    0.12700E-02   -0.29293E-03  5410   0.299E-02    0.971E-02
RMM:   8    -0.230857036741E+04    0.89997E-04   -0.38769E-04  4361   0.154E-02    0.392E-02
RMM:   9    -0.230857033854E+04    0.28876E-04   -0.10088E-04  3238   0.723E-03    0.161E-02
RMM:  10    -0.230857033190E+04    0.66424E-05   -0.30779E-05  2904   0.522E-03
  15 F= -.23293515E+04 E0= -.23293515E+04  d E =-.989547E-01  mag=     3.9972
       N       E                     dE             d eps       ncg     rms          rms(c)
DAV:   1    -0.230848026676E+04    0.90072E-01   -0.62461E+00  4464   0.215E+00    0.892E-01
RMM:   2    -0.230859805345E+04   -0.11779E+00   -0.12007E+00  6286   0.533E-01    0.891E-01
RMM:   3    -0.230860386487E+04   -0.58114E-02   -0.14053E-01  6017   0.204E-01    0.599E-01
RMM:   4    -0.230860185045E+04    0.20144E-02   -0.13067E-02  6105   0.475E-02    0.257E-01
RMM:   5    -0.230860154361E+04    0.30684E-03   -0.21171E-03  5304   0.225E-02    0.224E-01
RMM:   6    -0.230860090107E+04    0.64254E-03   -0.11514E-03  5359   0.190E-02    0.951E-02
RMM:   7    -0.230860083498E+04    0.66089E-04   -0.37898E-04  4587   0.138E-02    0.421E-02
RMM:   8    -0.230860082091E+04    0.14072E-04   -0.64600E-05  3245   0.722E-03    0.182E-02
RMM:   9    -0.230860081512E+04    0.57870E-05   -0.17830E-05  2857   0.480E-03
  16 F= -.23293820E+04 E0= -.23293820E+04  d E =-.305458E-01  mag=     3.9993
       N       E                     dE             d eps       ncg     rms          rms(c)
DAV:   1    -0.230848426943E+04    0.11655E+00   -0.66325E+00  4444   0.222E+00    0.915E-01
RMM:   2    -0.230860869975E+04   -0.12443E+00   -0.12703E+00  6280   0.549E-01    0.908E-01
RMM:   3    -0.230861498290E+04   -0.62831E-02   -0.14921E-01  6023   0.211E-01    0.629E-01
RMM:   4    -0.230861272548E+04    0.22574E-02   -0.13923E-02  6080   0.492E-02    0.266E-01
RMM:   5    -0.230861238012E+04    0.34535E-03   -0.23061E-03  5352   0.235E-02    0.229E-01
RMM:   6    -0.230861171147E+04    0.66866E-03   -0.12167E-03  5288   0.196E-02    0.962E-02
RMM:   7    -0.230861164592E+04    0.65547E-04   -0.39643E-04  4611   0.143E-02    0.437E-02
RMM:   8    -0.230861163056E+04    0.15362E-04   -0.71805E-05  3307   0.744E-03    0.186E-02
RMM:   9    -0.230861162420E+04    0.63554E-05   -0.18651E-05  2863   0.499E-03
  17 F= -.23293929E+04 E0= -.23293929E+04  d E =-.413777E-01  mag=     3.9998
       N       E                     dE             d eps       ncg     rms          rms(c)
DAV:   1    -0.230859161226E+04    0.20018E-01   -0.22495E+00  4480   0.143E+00    0.528E-01
RMM:   2    -0.230862912814E+04   -0.37516E-01   -0.39269E-01  6311   0.330E-01    0.431E-01
RMM:   3    -0.230863206949E+04   -0.29414E-02   -0.42150E-02  5986   0.125E-01    0.391E-01
RMM:   4    -0.230863091207E+04    0.11574E-02   -0.42342E-03  5625   0.305E-02    0.145E-01
RMM:   5    -0.230863084760E+04    0.64471E-04   -0.83978E-04  4787   0.160E-02    0.129E-01
RMM:   6    -0.230863066150E+04    0.18609E-03   -0.42605E-04  4803   0.123E-02    0.652E-02
RMM:   7    -0.230863062194E+04    0.39567E-04   -0.11711E-04  3711   0.927E-03    0.238E-02
RMM:   8    -0.230863061660E+04    0.53337E-05   -0.21704E-05  2903   0.521E-03
  18 F= -.23294120E+04 E0= -.23294120E+04  d E =-.191184E-01  mag=     4.0000
       N       E                     dE             d eps       ncg     rms          rms(c)
DAV:   1    -0.230849218759E+04    0.13843E+00   -0.87703E+00  4440   0.283E+00    0.105E+00
RMM:   2    -0.230863895581E+04   -0.14677E+00   -0.15346E+00  6307   0.659E-01    0.884E-01
RMM:   3    -0.230865114162E+04   -0.12186E-01   -0.17376E-01  6044   0.252E-01    0.788E-01
RMM:   4    -0.230864626583E+04    0.48758E-02   -0.16564E-02  6044   0.607E-02    0.289E-01
RMM:   5    -0.230864596357E+04    0.30226E-03   -0.33230E-03  5650   0.303E-02    0.250E-01
RMM:   6    -0.230864528109E+04    0.68247E-03   -0.16848E-03  5346   0.229E-02    0.135E-01
RMM:   7    -0.230864509665E+04    0.18444E-03   -0.46713E-04  4893   0.163E-02    0.509E-02
RMM:   8    -0.230864507058E+04    0.26071E-04   -0.92821E-05  3516   0.809E-03    0.211E-02
RMM:   9    -0.230864505969E+04    0.10891E-04   -0.26197E-05  2888   0.556E-03    0.869E-03
RMM:  10    -0.230864505718E+04    0.25037E-05   -0.13972E-05  2880   0.388E-03
  19 F= -.23294266E+04 E0= -.23294266E+04  d E =-.337692E-01  mag=     4.0000
       N       E                     dE             d eps       ncg     rms          rms(c)
DAV:   1    -0.230862431656E+04    0.20743E-01   -0.20757E+00  4512   0.138E+00    0.476E-01
RMM:   2    -0.230865938709E+04   -0.35071E-01   -0.37741E-01  6323   0.311E-01    0.303E-01
RMM:   3    -0.230866238820E+04   -0.30011E-02   -0.37945E-02  5851   0.115E-01    0.283E-01
RMM:   4    -0.230866192991E+04    0.45829E-03   -0.37993E-03  5307   0.264E-02    0.142E-01
RMM:   5    -0.230866184821E+04    0.81700E-04   -0.66520E-04  4734   0.148E-02    0.120E-01
RMM:   6    -0.230866171751E+04    0.13070E-03   -0.38454E-04  4622   0.113E-02    0.729E-02
RMM:   7    -0.230866166703E+04    0.50480E-04   -0.13088E-04  3640   0.868E-03    0.240E-02
RMM:   8    -0.230866166053E+04    0.64948E-05   -0.20052E-05  2897   0.520E-03
  20 F= -.23294434E+04 E0= -.23294434E+04  d E =-.168058E-01  mag=     4.0000
       N       E                     dE             d eps       ncg     rms          rms(c)
DAV:   1    -0.230833423149E+04    0.32744E+00   -0.18648E+01  4440   0.415E+00    0.144E+00
RMM:   2    -0.230865256892E+04   -0.31834E+00   -0.34290E+00  6327   0.943E-01    0.959E-01
RMM:   3    -0.230868390487E+04   -0.31336E-01   -0.39850E-01  5936   0.362E-01    0.935E-01
RMM:   4    -0.230867790555E+04    0.59993E-02   -0.35462E-02  6287   0.815E-02    0.431E-01
RMM:   5    -0.230867656945E+04    0.13361E-02   -0.58483E-03  5650   0.397E-02    0.307E-01
RMM:   6    -0.230867636119E+04    0.20827E-03   -0.37017E-03  5658   0.310E-02    0.293E-01
RMM:   7    -0.230867538372E+04    0.97747E-03   -0.16916E-03  5548   0.247E-02    0.825E-02
RMM:   8    -0.230867531484E+04    0.68882E-04   -0.26245E-04  4320   0.107E-02    0.378E-02
RMM:   9    -0.230867528729E+04    0.27548E-04   -0.75398E-05  2999   0.762E-03    0.170E-02
RMM:  10    -0.230867528403E+04    0.32559E-05   -0.36072E-05  2900   0.475E-03
  21 F= -.23294576E+04 E0= -.23294576E+04  d E =-.309746E-01  mag=     4.0000
       N       E                     dE             d eps       ncg     rms          rms(c)
DAV:   1    -0.230865586886E+04    0.19418E-01   -0.11755E+00  4576   0.104E+00    0.357E-01
RMM:   2    -0.230867576118E+04   -0.19892E-01   -0.21411E-01  6317   0.232E-01    0.221E-01
RMM:   3    -0.230867744412E+04   -0.16829E-02   -0.22065E-02  5759   0.866E-02    0.202E-01
RMM:   4    -0.230867727035E+04    0.17377E-03   -0.21209E-03  4588   0.193E-02    0.114E-01
RMM:   5    -0.230867721332E+04    0.57031E-04   -0.38340E-04  4060   0.112E-02    0.916E-02
RMM:   6    -0.230867712720E+04    0.86117E-04   -0.22717E-04  4019   0.958E-03    0.465E-02
RMM:   7    -0.230867711174E+04    0.15464E-04   -0.71349E-05  3206   0.710E-03    0.198E-02
RMM:   8    -0.230867710800E+04    0.37360E-05   -0.13594E-05  2877   0.494E-03
  22 F= -.23294593E+04 E0= -.23294593E+04  d E =-.326707E-01  mag=     4.0000
       N       E                     dE             d eps       ncg     rms          rms(c)
DAV:   1    -0.230865540191E+04    0.21710E-01   -0.19722E+00  4448   0.133E+00    0.480E-01
RMM:   2    -0.230868936032E+04   -0.33958E-01   -0.37141E-01  6228   0.309E-01    0.243E-01
RMM:   3    -0.230869227035E+04   -0.29100E-02   -0.40749E-02  5762   0.121E-01    0.184E-01
RMM:   4    -0.230869226819E+04    0.21556E-05   -0.36035E-03  5310   0.265E-02    0.143E-01
RMM:   5    -0.230869206970E+04    0.19849E-03   -0.72633E-04  4910   0.165E-02    0.931E-02
RMM:   6    -0.230869204180E+04    0.27903E-04   -0.36166E-04  4571   0.126E-02    0.858E-02
RMM:   7    -0.230869197671E+04    0.65094E-04   -0.11469E-04  3036   0.767E-03    0.364E-02
RMM:   8    -0.230869196141E+04    0.15295E-04   -0.15899E-05  2885   0.431E-03    0.100E-02
RMM:   9    -0.230869195817E+04    0.32367E-05   -0.10334E-05  2887   0.300E-03
  23 F= -.23294747E+04 E0= -.23294747E+04  d E =-.154199E-01  mag=     4.0000
       N       E                     dE             d eps       ncg     rms          rms(c)
DAV:   1    -0.230865562787E+04    0.36334E-01   -0.22235E+00  4428   0.142E+00    0.511E-01
RMM:   2    -0.230869394416E+04   -0.38316E-01   -0.41962E-01  6203   0.328E-01    0.257E-01
RMM:   3    -0.230869726670E+04   -0.33225E-02   -0.46482E-02  5767   0.128E-01    0.192E-01
RMM:   4    -0.230869727911E+04   -0.12404E-04   -0.40650E-03  5397   0.280E-02    0.151E-01
RMM:   5    -0.230869706122E+04    0.21789E-03   -0.81417E-04  4954   0.173E-02    0.976E-02
RMM:   6    -0.230869700551E+04    0.55712E-04   -0.38754E-04  4692   0.130E-02    0.769E-02
RMM:   7    -0.230869696218E+04    0.43332E-04   -0.11969E-04  3056   0.797E-03    0.466E-02
RMM:   8    -0.230869693807E+04    0.24113E-04   -0.19907E-05  2885   0.447E-03    0.112E-02
RMM:   9    -0.230869693401E+04    0.40525E-05   -0.12393E-05  2892   0.317E-03
  24 F= -.23294803E+04 E0= -.23294803E+04  d E =-.209977E-01  mag=     4.0000
       N       E                     dE             d eps       ncg     rms          rms(c)
DAV:   1    -0.230868116814E+04    0.15770E-01   -0.18164E+00  4480   0.135E+00    0.445E-01
RMM:   2    -0.230870726078E+04   -0.26093E-01   -0.28302E-01  6195   0.298E-01    0.265E-01
RMM:   3    -0.230870953531E+04   -0.22745E-02   -0.29815E-02  5931   0.113E-01    0.288E-01
RMM:   4    -0.230870884774E+04    0.68757E-03   -0.29205E-03  5737   0.261E-02    0.148E-01
RMM:   5    -0.230870866951E+04    0.17823E-03   -0.73500E-04  4817   0.166E-02    0.971E-02
RMM:   6    -0.230870862436E+04    0.45151E-04   -0.39435E-04  4191   0.128E-02    0.681E-02
RMM:   7    -0.230870857698E+04    0.47384E-04   -0.10747E-04  3629   0.781E-03    0.174E-02
RMM:   8    -0.230870857248E+04    0.45015E-05   -0.17502E-05  2904   0.469E-03
  25 F= -.23294927E+04 E0= -.23294927E+04  d E =-.123938E-01  mag=     4.0000
       N       E                     dE             d eps       ncg     rms          rms(c)
DAV:   1    -0.230867331884E+04    0.35258E-01   -0.26189E+00  4460   0.162E+00    0.536E-01
RMM:   2    -0.230871095616E+04   -0.37637E-01   -0.40888E-01  6224   0.360E-01    0.321E-01
RMM:   3    -0.230871435363E+04   -0.33975E-02   -0.44059E-02  5958   0.138E-01    0.344E-01
RMM:   4    -0.230871336108E+04    0.99255E-03   -0.42605E-03  5973   0.314E-02    0.179E-01
RMM:   5    -0.230871310687E+04    0.25421E-03   -0.10575E-03  5074   0.189E-02    0.121E-01
RMM:   6    -0.230871302537E+04    0.81499E-04   -0.58465E-04  4556   0.151E-02    0.814E-02
RMM:   7    -0.230871295518E+04    0.70191E-04   -0.15644E-04  4089   0.909E-03    0.221E-02
RMM:   8    -0.230871294718E+04    0.79959E-05   -0.26797E-05  2917   0.535E-03
  26 F= -.23294980E+04 E0= -.23294980E+04  d E =-.176733E-01  mag=     4.0000
       N       E                     dE             d eps       ncg     rms          rms(c)
DAV:   1    -0.230870059165E+04    0.12364E-01   -0.17638E+00  4448   0.136E+00    0.419E-01
RMM:   2    -0.230872427800E+04   -0.23686E-01   -0.24878E-01  6332   0.297E-01    0.355E-01
RMM:   3    -0.230872536281E+04   -0.10848E-02   -0.25283E-02  6033   0.105E-01    0.299E-01
RMM:   4    -0.230872452599E+04    0.83682E-03   -0.25406E-03  5480   0.252E-02    0.142E-01
RMM:   5    -0.230872445430E+04    0.71684E-04   -0.62352E-04  4333   0.138E-02    0.124E-01
RMM:   6    -0.230872429014E+04    0.16417E-03   -0.45251E-04  4646   0.145E-02    0.378E-02
RMM:   7    -0.230872428453E+04    0.56034E-05   -0.75052E-05  3427   0.898E-03
  27 F= -.23295100E+04 E0= -.23295100E+04  d E =-.119683E-01  mag=     4.0000
       N       E                     dE             d eps       ncg     rms          rms(c)
DAV:   1    -0.230866230140E+04    0.61989E-01   -0.50230E+00  4440   0.231E+00    0.712E-01
RMM:   2    -0.230873045016E+04   -0.68149E-01   -0.71633E-01  6328   0.506E-01    0.603E-01
RMM:   3    -0.230873326583E+04   -0.28157E-02   -0.73653E-02  6107   0.178E-01    0.496E-01
RMM:   4    -0.230873103423E+04    0.22316E-02   -0.75580E-03  5826   0.425E-02    0.251E-01
RMM:   5    -0.230873075586E+04    0.27837E-03   -0.16928E-03  5153   0.217E-02    0.205E-01
RMM:   6    -0.230873029065E+04    0.46521E-03   -0.12812E-03  4967   0.237E-02    0.615E-02
RMM:   7    -0.230873027246E+04    0.18190E-04   -0.21499E-04  4538   0.136E-02    0.235E-02
RMM:   8    -0.230873026457E+04    0.78943E-05   -0.29892E-05  3006   0.488E-03
  28 F= -.23295170E+04 E0= -.23295170E+04  d E =-.190100E-01  mag=     4.0000
       N       E                     dE             d eps       ncg     rms          rms(c)
DAV:   1    -0.230871897386E+04    0.11299E-01   -0.26085E+00  4464   0.163E+00    0.475E-01
RMM:   2    -0.230874201854E+04   -0.23045E-01   -0.24180E-01  6204   0.336E-01    0.407E-01
RMM:   3    -0.230874205022E+04   -0.31678E-04   -0.21131E-02  5998   0.107E-01    0.317E-01
RMM:   4    -0.230874105446E+04    0.99575E-03   -0.27561E-03  5632   0.286E-02    0.172E-01
RMM:   5    -0.230874095623E+04    0.98234E-04   -0.87735E-04  4727   0.165E-02    0.152E-01
RMM:   6    -0.230874071201E+04    0.24422E-03   -0.58480E-04  4695   0.172E-02    0.295E-02
RMM:   7    -0.230874071071E+04    0.12961E-05   -0.76302E-05  3330   0.103E-02
  29 F= -.23295285E+04 E0= -.23295285E+04  d E =-.115252E-01  mag=     4.0000
       N       E                     dE             d eps       ncg     rms          rms(c)
DAV:   1    -0.230870686788E+04    0.33844E-01   -0.42330E+00  4456   0.207E+00    0.606E-01
RMM:   2    -0.230874440683E+04   -0.37539E-01   -0.39355E-01  6198   0.427E-01    0.523E-01
RMM:   3    -0.230874444834E+04   -0.41503E-04   -0.34932E-02  6009   0.138E-01    0.400E-01
RMM:   4    -0.230874287491E+04    0.15734E-02   -0.44962E-03  5749   0.365E-02    0.221E-01
RMM:   5    -0.230874270875E+04    0.16616E-03   -0.14328E-03  5071   0.205E-02    0.195E-01
RMM:   6    -0.230874230089E+04    0.40786E-03   -0.94677E-04  4733   0.215E-02    0.375E-02
RMM:   7    -0.230874229443E+04    0.64672E-05   -0.12470E-04  3935   0.126E-02    0.183E-02
RMM:   8    -0.230874228784E+04    0.65815E-05   -0.21589E-05  2927   0.375E-03
  30 F= -.23295314E+04 E0= -.23295314E+04  d E =-.144493E-01  mag=     4.0000
       N       E                     dE             d eps       ncg     rms          rms(c)
DAV:   1    -0.230873280247E+04    0.94920E-02   -0.21115E+00  4512   0.142E+00    0.420E-01
RMM:   2    -0.230875098751E+04   -0.18185E-01   -0.19004E-01  6218   0.293E-01    0.362E-01
RMM:   3    -0.230875096446E+04    0.23051E-04   -0.17344E-02  5946   0.947E-02    0.251E-01
RMM:   4    -0.230875037710E+04    0.58736E-03   -0.21416E-03  5479   0.243E-02    0.146E-01
RMM:   5    -0.230875037544E+04    0.16639E-05   -0.69077E-04  4299   0.149E-02    0.153E-01
RMM:   6    -0.230875014919E+04    0.22625E-03   -0.41903E-04  4728   0.142E-02    0.264E-02
RMM:   7    -0.230875015274E+04   -0.35566E-05   -0.56913E-05  2976   0.857E-03
  31 F= -.23295405E+04 E0= -.23295405E+04  d E =-.901627E-02  mag=     4.0000
       N       E                     dE             d eps       ncg     rms          rms(c)
DAV:   1    -0.230872259657E+04    0.27553E-01   -0.36264E+00  4456   0.187E+00    0.552E-01
RMM:   2    -0.230875367777E+04   -0.31081E-01   -0.32513E-01  6202   0.387E-01    0.477E-01
RMM:   3    -0.230875378077E+04   -0.10300E-03   -0.30095E-02  5981   0.126E-01    0.327E-01
RMM:   4    -0.230875278290E+04    0.99786E-03   -0.36621E-03  5679   0.319E-02    0.188E-01
RMM:   5    -0.230875280746E+04   -0.24552E-04   -0.12046E-03  4891   0.193E-02    0.204E-01
RMM:   6    -0.230875239627E+04    0.41119E-03   -0.70521E-04  4967   0.178E-02    0.345E-02
RMM:   7    -0.230875240004E+04   -0.37708E-05   -0.95485E-05  3224   0.996E-03
  32 F= -.23295442E+04 E0= -.23295442E+04  d E =-.127479E-01  mag=     4.0000
       N       E                     dE             d eps       ncg     rms          rms(c)
DAV:   1    -0.230875170530E+04    0.69097E-03   -0.82052E-01  4592   0.965E-01    0.322E-01
RMM:   2    -0.230876027390E+04   -0.85686E-02   -0.90769E-02  6035   0.200E-01    0.236E-01
RMM:   3    -0.230876045998E+04   -0.18608E-03   -0.83091E-03  5607   0.711E-02    0.188E-01
RMM:   4    -0.230876011507E+04    0.34491E-03   -0.96697E-04  4876   0.194E-02    0.811E-02
RMM:   5    -0.230876010962E+04    0.54511E-05   -0.34596E-04  4657   0.154E-02    0.857E-02
RMM:   6    -0.230876004884E+04    0.60775E-04   -0.17739E-04  3747   0.945E-03    0.464E-02
RMM:   7    -0.230876002739E+04    0.21454E-04   -0.27924E-05  2888   0.625E-03    0.994E-03
RMM:   8    -0.230876002690E+04    0.48564E-06   -0.89628E-06  2873   0.353E-03
  33 F= -.23295525E+04 E0= -.23295525E+04  d E =-.835859E-02  mag=     4.0000
       N       E                     dE             d eps       ncg     rms          rms(c)
DAV:   1    -0.230875618556E+04    0.38418E-02   -0.52234E-01  4512   0.770E-01    0.256E-01
RMM:   2    -0.230876163891E+04   -0.54533E-02   -0.57869E-02  6035   0.159E-01    0.187E-01
RMM:   3    -0.230876176010E+04   -0.12119E-03   -0.52865E-03  5469   0.557E-02    0.151E-01
RMM:   4    -0.230876154015E+04    0.21995E-03   -0.62105E-04  4677   0.156E-02    0.671E-02
RMM:   5    -0.230876156300E+04   -0.22849E-04   -0.24048E-04  4253   0.124E-02    0.862E-02
RMM:   6    -0.230876148284E+04    0.80159E-04   -0.13927E-04  3565   0.858E-03    0.290E-02
RMM:   7    -0.230876147431E+04    0.85361E-05   -0.19441E-05  2886   0.568E-03
  34 F= -.23295546E+04 E0= -.23295546E+04  d E =-.103902E-01  mag=     4.0000
       N       E                     dE             d eps       ncg     rms          rms(c)
DAV:   1    -0.230875848806E+04    0.29948E-02   -0.65984E-01  4496   0.864E-01    0.274E-01
RMM:   2    -0.230876612967E+04   -0.76416E-02   -0.79550E-02  6024   0.178E-01    0.229E-01
RMM:   3    -0.230876630664E+04   -0.17697E-03   -0.76806E-03  5554   0.644E-02    0.175E-01
RMM:   4    -0.230876606849E+04    0.23815E-03   -0.85570E-04  4810   0.161E-02    0.830E-02
RMM:   5    -0.230876607797E+04   -0.94821E-05   -0.27243E-04  3801   0.113E-02    0.917E-02
RMM:   6    -0.230876596489E+04    0.11308E-03   -0.19858E-04  4420   0.103E-02    0.266E-02
RMM:   7    -0.230876596050E+04    0.43881E-05   -0.33870E-05  2891   0.708E-03
  35 F= -.23295599E+04 E0= -.23295599E+04  d E =-.527468E-02  mag=     4.0000
       N       E                     dE             d eps       ncg     rms          rms(c)
DAV:   1    -0.230875975355E+04    0.62113E-02   -0.58036E-01  4504   0.811E-01    0.258E-01
RMM:   2    -0.230876648915E+04   -0.67356E-02   -0.70288E-02  6046   0.168E-01    0.211E-01
RMM:   3    -0.230876666898E+04   -0.17983E-03   -0.67797E-03  5498   0.611E-02    0.164E-01
RMM:   4    -0.230876645816E+04    0.21082E-03   -0.75449E-04  4668   0.152E-02    0.779E-02
RMM:   5    -0.230876646712E+04   -0.89609E-05   -0.24166E-04  3662   0.108E-02    0.868E-02
RMM:   6    -0.230876636569E+04    0.10143E-03   -0.18281E-04  4340   0.995E-03    0.251E-02
RMM:   7    -0.230876636114E+04    0.45469E-05   -0.30423E-05  2892   0.676E-03
  36 F= -.23295610E+04 E0= -.23295610E+04  d E =-.641126E-02  mag=     4.0000
       N       E                     dE             d eps       ncg     rms          rms(c)
DAV:   1    -0.230875950361E+04    0.68621E-02   -0.79579E-01  4444   0.940E-01    0.297E-01
RMM:   2    -0.230876958122E+04   -0.10078E-01   -0.10357E-01  6081   0.195E-01    0.259E-01
RMM:   3    -0.230876999095E+04   -0.40973E-03   -0.10608E-02  5552   0.726E-02    0.198E-01
RMM:   4    -0.230876969224E+04    0.29872E-03   -0.11036E-03  5025   0.172E-02    0.907E-02
RMM:   5    -0.230876966954E+04    0.22691E-04   -0.29674E-04  3702   0.110E-02    0.865E-02
RMM:   6    -0.230876956475E+04    0.10480E-03   -0.20284E-04  4347   0.103E-02    0.277E-02
RMM:   7    -0.230876956190E+04    0.28448E-05   -0.41774E-05  2904   0.744E-03
  37 F= -.23295649E+04 E0= -.23295649E+04  d E =-.391272E-02  mag=     4.0000
       N       E                     dE             d eps       ncg     rms          rms(c)
DAV:   1    -0.230876320210E+04    0.63627E-02   -0.52312E-01  4608   0.762E-01    0.242E-01
RMM:   2    -0.230876984917E+04   -0.66471E-02   -0.68275E-02  6094   0.159E-01    0.212E-01
RMM:   3    -0.230877011902E+04   -0.26985E-03   -0.69859E-03  5454   0.583E-02    0.161E-01
RMM:   4    -0.230876992329E+04    0.19573E-03   -0.72422E-04  4545   0.140E-02    0.735E-02
RMM:   5    -0.230876990893E+04    0.14363E-04   -0.19529E-04  3247   0.917E-03    0.703E-02
RMM:   6    -0.230876983959E+04    0.69334E-04   -0.13543E-04  4083   0.882E-03    0.225E-02
RMM:   7    -0.230876983759E+04    0.20007E-05   -0.29198E-05  2892   0.632E-03
  38 F= -.23295658E+04 E0= -.23295658E+04  d E =-.476389E-02  mag=     4.0000
       N       E                     dE             d eps       ncg     rms          rms(c)
DAV:   1    -0.230876533550E+04    0.45041E-02   -0.77168E-01  4448   0.905E-01    0.276E-01
RMM:   2    -0.230877396132E+04   -0.86258E-02   -0.88627E-02  5928   0.178E-01    0.234E-01
RMM:   3    -0.230877444309E+04   -0.48177E-03   -0.95072E-03  5443   0.696E-02    0.188E-01
RMM:   4    -0.230877417318E+04    0.26991E-03   -0.96262E-04  4985   0.168E-02    0.845E-02
RMM:   5    -0.230877416943E+04    0.37458E-05   -0.28014E-04  4008   0.114E-02    0.864E-02
RMM:   6    -0.230877407262E+04    0.96813E-04   -0.19034E-04  4262   0.988E-03    0.253E-02
RMM:   7    -0.230877406881E+04    0.38076E-05   -0.29225E-05  2889   0.651E-03
  39 F= -.23295705E+04 E0= -.23295705E+04  d E =-.478545E-02  mag=     4.0000
       N       E                     dE             d eps       ncg     rms          rms(c)
DAV:   1    -0.230875661582E+04    0.17457E-01   -0.15425E+00  4440   0.128E+00    0.390E-01
RMM:   2    -0.230877388029E+04   -0.17264E-01   -0.17733E-01  5899   0.250E-01    0.330E-01
RMM:   3    -0.230877486302E+04   -0.98273E-03   -0.19064E-02  5510   0.964E-02    0.268E-01
RMM:   4    -0.230877430268E+04    0.56034E-03   -0.19150E-03  5336   0.235E-02    0.118E-01
RMM:   5    -0.230877430122E+04    0.14660E-05   -0.56834E-04  4820   0.156E-02    0.123E-01
RMM:   6    -0.230877410386E+04    0.19736E-03   -0.37335E-04  4861   0.128E-02    0.364E-02
RMM:   7    -0.230877409367E+04    0.10193E-04   -0.56140E-05  3057   0.808E-03    0.124E-02
RMM:   8    -0.230877409176E+04    0.19031E-05   -0.11830E-05  2868   0.410E-03
  40 F= -.23295713E+04 E0= -.23295713E+04  d E =-.558915E-02  mag=     4.0000
       N       E                     dE             d eps       ncg     rms          rms(c)
DAV:   1    -0.230877258233E+04    0.15113E-02   -0.20428E-01  4576   0.465E-01    0.142E-01
RMM:   2    -0.230877487524E+04   -0.22929E-02   -0.23397E-02  5969   0.911E-02    0.127E-01
RMM:   3    -0.230877496854E+04   -0.93301E-04   -0.24665E-03  4543   0.334E-02    0.928E-02
RMM:   4    -0.230877490452E+04    0.64022E-04   -0.25432E-04  3194   0.911E-03    0.445E-02
RMM:   5    -0.230877490155E+04    0.29642E-05   -0.71098E-05  2941   0.663E-03
  41 F= -.23295719E+04 E0= -.23295719E+04  d E =-.611509E-02  mag=     4.0000
       N       E                     dE             d eps       ncg     rms          rms(c)
DAV:   1    -0.230877134951E+04    0.35550E-02   -0.66157E-01  4464   0.820E-01    0.249E-01
RMM:   2    -0.230877816984E+04   -0.68203E-02   -0.71186E-02  5925   0.156E-01    0.171E-01
RMM:   3    -0.230877864765E+04   -0.47781E-03   -0.75906E-03  5461   0.612E-02    0.140E-01
RMM:   4    -0.230877850978E+04    0.13787E-03   -0.74560E-04  3981   0.138E-02    0.715E-02
RMM:   5    -0.230877850062E+04    0.91635E-05   -0.17220E-04  3509   0.934E-03    0.728E-02
RMM:   6    -0.230877843684E+04    0.63776E-04   -0.13638E-04  3688   0.868E-03    0.285E-02
RMM:   7    -0.230877842878E+04    0.80612E-05   -0.33054E-05  2952   0.605E-03
  42 F= -.23295758E+04 E0= -.23295758E+04  d E =-.392482E-02  mag=     4.0000
       N       E                     dE             d eps       ncg     rms          rms(c)
DAV:   1    -0.230876158690E+04    0.16850E-01   -0.17058E+00  4456   0.132E+00    0.399E-01
RMM:   2    -0.230877918086E+04   -0.17594E-01   -0.18396E-01  5872   0.247E-01    0.273E-01
RMM:   3    -0.230878042983E+04   -0.12490E-02   -0.19691E-02  5565   0.102E-01    0.224E-01
RMM:   4    -0.230878001623E+04    0.41360E-03   -0.18857E-03  5074   0.222E-02    0.107E-01
RMM:   5    -0.230877997051E+04    0.45718E-04   -0.47632E-04  4718   0.149E-02    0.101E-01
RMM:   6    -0.230877989631E+04    0.74195E-04   -0.31586E-04  4516   0.111E-02    0.664E-02
RMM:   7    -0.230877984676E+04    0.49553E-04   -0.66648E-05  3317   0.763E-03    0.154E-02
RMM:   8    -0.230877984278E+04    0.39806E-05   -0.13432E-05  2875   0.467E-03
  43 F= -.23295778E+04 E0= -.23295778E+04  d E =-.596737E-02  mag=     4.0000
       N       E                     dE             d eps       ncg     rms          rms(c)
DAV:   1    -0.230877417655E+04    0.56702E-02   -0.77635E-01  4512   0.857E-01    0.268E-01
RMM:   2    -0.230878288486E+04   -0.87083E-02   -0.91155E-02  5993   0.167E-01    0.184E-01
RMM:   3    -0.230878348890E+04   -0.60404E-03   -0.93208E-03  5597   0.662E-02    0.146E-01
RMM:   4    -0.230878330923E+04    0.17967E-03   -0.96514E-04  4875   0.157E-02    0.828E-02
RMM:   5    -0.230878329977E+04    0.94640E-05   -0.26842E-04  3899   0.109E-02    0.939E-02
RMM:   6    -0.230878321793E+04    0.81836E-04   -0.17454E-04  3779   0.889E-03    0.332E-02
RMM:   7    -0.230878321045E+04    0.74844E-05   -0.30772E-05  2902   0.617E-03
  44 F= -.23295816E+04 E0= -.23295816E+04  d E =-.378683E-02  mag=     4.0000
       N       E                     dE             d eps       ncg     rms          rms(c)
DAV:   1    -0.230877473445E+04    0.84835E-02   -0.78297E-01  4456   0.860E-01    0.270E-01
RMM:   2    -0.230878357004E+04   -0.88356E-02   -0.92447E-02  5928   0.168E-01    0.189E-01
RMM:   3    -0.230878416515E+04   -0.59511E-03   -0.94331E-03  5591   0.667E-02    0.149E-01
RMM:   4    -0.230878397298E+04    0.19217E-03   -0.97849E-04  4865   0.158E-02    0.826E-02
RMM:   5    -0.230878396820E+04    0.47805E-05   -0.27548E-04  3926   0.109E-02    0.961E-02
RMM:   6    -0.230878388019E+04    0.88002E-04   -0.17647E-04  3837   0.894E-03    0.325E-02
RMM:   7    -0.230878387236E+04    0.78343E-05   -0.30805E-05  2891   0.618E-03
  45 F= -.23295827E+04 E0= -.23295827E+04  d E =-.487148E-02  mag=     4.0000
       N       E                     dE             d eps       ncg     rms          rms(c)
DAV:   1    -0.230877811491E+04    0.57653E-02   -0.82406E-01  4460   0.852E-01    0.269E-01
RMM:   2    -0.230878744068E+04   -0.93258E-02   -0.97780E-02  6047   0.170E-01    0.184E-01
RMM:   3    -0.230878818900E+04   -0.74832E-03   -0.99061E-03  5680   0.660E-02    0.171E-01
RMM:   4    -0.230878792512E+04    0.26388E-03   -0.10380E-03  4704   0.155E-02    0.883E-02
RMM:   5    -0.230878791006E+04    0.15060E-04   -0.27953E-04  3509   0.103E-02    0.924E-02
RMM:   6    -0.230878783120E+04    0.78857E-04   -0.19299E-04  3997   0.917E-03    0.298E-02
RMM:   7    -0.230878782679E+04    0.44091E-05   -0.29214E-05  2896   0.585E-03
  46 F= -.23295869E+04 E0= -.23295869E+04  d E =-.421987E-02  mag=     4.0000
       N       E                     dE             d eps       ncg     rms          rms(c)
DAV:   1    -0.230876635610E+04    0.21475E-01   -0.19757E+00  4456   0.132E+00    0.416E-01
RMM:   2    -0.230878877196E+04   -0.22416E-01   -0.23488E-01  6026   0.263E-01    0.285E-01
RMM:   3    -0.230879054908E+04   -0.17771E-02   -0.23705E-02  5791   0.102E-01    0.263E-01
RMM:   4    -0.230878991134E+04    0.63774E-03   -0.24642E-03  5590   0.238E-02    0.135E-01
RMM:   5    -0.230878987379E+04    0.37550E-04   -0.68906E-04  4614   0.151E-02    0.142E-01
RMM:   6    -0.230878968663E+04    0.18715E-03   -0.43184E-04  4569   0.125E-02    0.478E-02
RMM:   7    -0.230878967163E+04    0.15007E-04   -0.68056E-05  3037   0.768E-03    0.131E-02
RMM:   8    -0.230878966883E+04    0.27933E-05   -0.10802E-05  2880   0.419E-03
  47 F= -.23295892E+04 E0= -.23295892E+04  d E =-.648837E-02  mag=     4.0000
       N       E                     dE             d eps       ncg     rms          rms(c)
DAV:   1    -0.230878762734E+04    0.20443E-02   -0.49145E-01  4528   0.635E-01    0.199E-01
RMM:   2    -0.230879292180E+04   -0.52945E-02   -0.55923E-02  6136   0.128E-01    0.134E-01
RMM:   3    -0.230879337682E+04   -0.45502E-03   -0.56408E-03  5470   0.474E-02    0.125E-01
RMM:   4    -0.230879325089E+04    0.12593E-03   -0.60083E-04  3536   0.117E-02    0.695E-02
RMM:   5    -0.230879323194E+04    0.18952E-04   -0.16811E-04  3166   0.872E-03    0.649E-02
RMM:   6    -0.230879319888E+04    0.33064E-04   -0.11120E-04  3045   0.753E-03    0.288E-02
RMM:   7    -0.230879319263E+04    0.62425E-05   -0.20768E-05  2879   0.529E-03
  48 F= -.23295928E+04 E0= -.23295928E+04  d E =-.357177E-02  mag=     4.0000
       N       E                     dE             d eps       ncg     rms          rms(c)
DAV:   1    -0.230874712043E+04    0.46078E-01   -0.44199E+00  4456   0.190E+00    0.596E-01
RMM:   2    -0.230879495096E+04   -0.47831E-01   -0.50494E-01  6067   0.384E-01    0.409E-01
RMM:   3    -0.230879899502E+04   -0.40441E-02   -0.51006E-02  5882   0.146E-01    0.387E-01
RMM:   4    -0.230879771849E+04    0.12765E-02   -0.54388E-03  5991   0.346E-02    0.203E-01
RMM:   5    -0.230879750652E+04    0.21197E-03   -0.15441E-03  5058   0.222E-02    0.177E-01
RMM:   6    -0.230879729496E+04    0.21156E-03   -0.87261E-04  4675   0.168E-02    0.988E-02
RMM:   7    -0.230879720721E+04    0.87747E-04   -0.16758E-04  3845   0.876E-03    0.206E-02
RMM:   8    -0.230879719934E+04    0.78725E-05   -0.25685E-05  2912   0.556E-03
  49 F= -.23295969E+04 E0= -.23295969E+04  d E =-.775153E-02  mag=     4.0000
       N       E                     dE             d eps       ncg     rms          rms(c)
DAV:   1    -0.230879299289E+04    0.42143E-02   -0.77608E-01  4512   0.785E-01    0.248E-01
RMM:   2    -0.230880086199E+04   -0.78691E-02   -0.82755E-02  6101   0.160E-01    0.178E-01
RMM:   3    -0.230880152319E+04   -0.66119E-03   -0.82640E-03  5641   0.563E-02    0.176E-01
RMM:   4    -0.230880125150E+04    0.27169E-03   -0.91149E-04  4209   0.144E-02    0.831E-02
RMM:   5    -0.230880120921E+04    0.42292E-04   -0.26149E-04  3827   0.105E-02    0.615E-02
RMM:   6    -0.230880119758E+04    0.11625E-04   -0.14374E-04  2988   0.815E-03    0.448E-02
RMM:   7    -0.230880117769E+04    0.19893E-04   -0.28407E-05  2864   0.547E-03    0.868E-03
RMM:   8    -0.230880117673E+04    0.96319E-06   -0.62703E-06  2860   0.300E-03
  50 F= -.23296010E+04 E0= -.23296010E+04  d E =-.406503E-02  mag=     4.0000
       N       E                     dE             d eps       ncg     rms          rms(c)
DAV:   1    -0.230874561716E+04    0.55561E-01   -0.56655E+00  4440   0.212E+00    0.669E-01
RMM:   2    -0.230880313591E+04   -0.57519E-01   -0.60491E-01  6050   0.429E-01    0.490E-01
RMM:   3    -0.230880790151E+04   -0.47656E-02   -0.60755E-02  5901   0.154E-01    0.478E-01
RMM:   4    -0.230880584942E+04    0.20521E-02   -0.66535E-03  5919   0.385E-02    0.220E-01
RMM:   5    -0.230880540221E+04    0.44721E-03   -0.17509E-03  4927   0.252E-02    0.122E-01
RMM:   6    -0.230880549292E+04   -0.90715E-04   -0.83740E-04  4483   0.180E-02    0.133E-01
RMM:   7    -0.230880530489E+04    0.18803E-03   -0.23760E-04  3627   0.915E-03    0.235E-02
RMM:   8    -0.230880529427E+04    0.10616E-04   -0.35032E-05  2913   0.499E-03    0.126E-02
RMM:   9    -0.230880529214E+04    0.21359E-05   -0.14785E-05  2872   0.328E-03
  51 F= -.23296054E+04 E0= -.23296054E+04  d E =-.844136E-02  mag=     4.0000
       N       E                     dE             d eps       ncg     rms          rms(c)
DAV:   1    -0.230879028705E+04    0.15007E-01   -0.17863E+00  4444   0.118E+00    0.398E-01
RMM:   2    -0.230881027197E+04   -0.19985E-01   -0.20898E-01  6124   0.253E-01    0.321E-01
RMM:   3    -0.230881157964E+04   -0.13077E-02   -0.19755E-02  5843   0.865E-02    0.305E-01
RMM:   4    -0.230881068227E+04    0.89737E-03   -0.22176E-03  5374   0.228E-02    0.119E-01
RMM:   5    -0.230881052504E+04    0.15724E-03   -0.61051E-04  4564   0.153E-02    0.519E-02
RMM:   6    -0.230881054586E+04   -0.20822E-04   -0.17047E-04  3739   0.106E-02    0.516E-02
RMM:   7    -0.230881051825E+04    0.27608E-04   -0.52849E-05  2885   0.566E-03    0.151E-02
RMM:   8    -0.230881051460E+04    0.36511E-05   -0.97705E-06  2881   0.329E-03
  52 F= -.23296107E+04 E0= -.23296107E+04  d E =-.529046E-02  mag=     4.0000
       N       E                     dE             d eps       ncg     rms          rms(c)
DAV:   1    -0.230880281477E+04    0.77035E-02   -0.77879E-01  4544   0.781E-01    0.263E-01
RMM:   2    -0.230881152756E+04   -0.87128E-02   -0.91072E-02  6169   0.167E-01    0.212E-01
RMM:   3    -0.230881211007E+04   -0.58251E-03   -0.86844E-03  5667   0.559E-02    0.199E-01
RMM:   4    -0.230881172553E+04    0.38454E-03   -0.98660E-04  4480   0.151E-02    0.788E-02
RMM:   5    -0.230881165813E+04    0.67403E-04   -0.25929E-04  4072   0.107E-02    0.399E-02
RMM:   6    -0.230881167213E+04   -0.13998E-04   -0.10570E-04  2975   0.795E-03    0.454E-02
RMM:   7    -0.230881164945E+04    0.22674E-04   -0.31507E-05  2864   0.520E-03    0.905E-03
RMM:   8    -0.230881164802E+04    0.14316E-05   -0.69103E-06  2865   0.280E-03
  53 F= -.23296119E+04 E0= -.23296119E+04  d E =-.647086E-02  mag=     4.0000
       N       E                     dE             d eps       ncg     rms          rms(c)
DAV:   1    -0.230880413950E+04    0.75100E-02   -0.93759E-01  4444   0.913E-01    0.305E-01
RMM:   2    -0.230881617900E+04   -0.12039E-01   -0.12563E-01  6143   0.199E-01    0.245E-01
RMM:   3    -0.230881698038E+04   -0.80138E-03   -0.11949E-02  5746   0.693E-02    0.238E-01
RMM:   4    -0.230881645310E+04    0.52728E-03   -0.13540E-03  5023   0.183E-02    0.874E-02
RMM:   5    -0.230881636005E+04    0.93051E-04   -0.35683E-04  4361   0.126E-02    0.383E-02
RMM:   6    -0.230881636300E+04   -0.29510E-05   -0.84391E-05  3231   0.873E-03
  54 F= -.23296164E+04 E0= -.23296164E+04  d E =-.453934E-02  mag=     4.0000
       N       E                     dE             d eps       ncg     rms          rms(c)
DAV:   1    -0.230880148212E+04    0.14878E-01   -0.12660E+00  4440   0.106E+00    0.357E-01
RMM:   2    -0.230881786717E+04   -0.16385E-01   -0.17170E-01  6208   0.231E-01    0.276E-01
RMM:   3    -0.230881911282E+04   -0.12457E-02   -0.16781E-02  5895   0.778E-02    0.284E-01
RMM:   4    -0.230881833840E+04    0.77443E-03   -0.18162E-03  5317   0.211E-02    0.103E-01
RMM:   5    -0.230881821078E+04    0.12762E-03   -0.47572E-04  4522   0.143E-02    0.445E-02
RMM:   6    -0.230881821253E+04   -0.17539E-05   -0.97606E-05  3538   0.962E-03
  55 F= -.23296180E+04 E0= -.23296180E+04  d E =-.618248E-02  mag=     4.0000
       N       E                     dE             d eps       ncg     rms          rms(c)
DAV:   1    -0.230881124089E+04    0.69699E-02   -0.99112E-01  4456   0.962E-01    0.296E-01
RMM:   2    -0.230882189917E+04   -0.10658E-01   -0.11295E-01  6204   0.195E-01    0.205E-01
RMM:   3    -0.230882276395E+04   -0.86478E-03   -0.10926E-02  5683   0.694E-02    0.231E-01
RMM:   4    -0.230882234026E+04    0.42369E-03   -0.12613E-03  4688   0.177E-02    0.856E-02
RMM:   5    -0.230882231291E+04    0.27348E-04   -0.36329E-04  4353   0.122E-02    0.721E-02
RMM:   6    -0.230882227062E+04    0.42291E-04   -0.17698E-04  3336   0.922E-03    0.404E-02
RMM:   7    -0.230882225444E+04    0.16178E-04   -0.28314E-05  2873   0.571E-03    0.923E-03
RMM:   8    -0.230882225362E+04    0.81428E-06   -0.67834E-06  2865   0.324E-03
  56 F= -.23296217E+04 E0= -.23296217E+04  d E =-.367685E-02  mag=     4.0000
       N       E                     dE             d eps       ncg     rms          rms(c)
DAV:   1    -0.230879949795E+04    0.22756E-01   -0.23081E+00  4456   0.147E+00    0.448E-01
RMM:   2    -0.230882430384E+04   -0.24806E-01   -0.26227E-01  6119   0.296E-01    0.311E-01
RMM:   3    -0.230882641727E+04   -0.21134E-02   -0.25573E-02  5780   0.107E-01    0.362E-01
RMM:   4    -0.230882526812E+04    0.11491E-02   -0.29272E-03  5566   0.271E-02    0.126E-01
RMM:   5    -0.230882511276E+04    0.15536E-03   -0.78546E-04  4737   0.173E-02    0.749E-02
RMM:   6    -0.230882512865E+04   -0.15886E-04   -0.32639E-04  4213   0.126E-02    0.701E-02
RMM:   7    -0.230882506792E+04    0.60730E-04   -0.68046E-05  2907   0.622E-03    0.160E-02
RMM:   8    -0.230882506471E+04    0.32021E-05   -0.11744E-05  2883   0.370E-03
  57 F= -.23296240E+04 E0= -.23296240E+04  d E =-.592916E-02  mag=     4.0000
       N       E                     dE             d eps       ncg     rms          rms(c)
DAV:   1    -0.230881426325E+04    0.10805E-01   -0.16191E+00  4456   0.122E+00    0.349E-01
RMM:   2    -0.230882952838E+04   -0.15265E-01   -0.16378E-01  6072   0.238E-01    0.199E-01
RMM:   3    -0.230883076917E+04   -0.12408E-02   -0.16216E-02  5569   0.888E-02    0.224E-01
RMM:   4    -0.230883048510E+04    0.28408E-03   -0.18579E-03  5013   0.207E-02    0.115E-01
RMM:   5    -0.230883035842E+04    0.12668E-03   -0.48581E-04  4472   0.145E-02    0.681E-02
RMM:   6    -0.230883034895E+04    0.94738E-05   -0.22605E-04  3840   0.111E-02    0.554E-02
RMM:   7    -0.230883031142E+04    0.37525E-04   -0.46321E-05  2870   0.581E-03    0.148E-02
RMM:   8    -0.230883030887E+04    0.25558E-05   -0.88177E-06  2869   0.344E-03
  58 F= -.23296287E+04 E0= -.23296287E+04  d E =-.471426E-02  mag=     4.0000
       N       E                     dE             d eps       ncg     rms          rms(c)
DAV:   1    -0.230882170861E+04    0.86028E-02   -0.10325E+00  4496   0.975E-01    0.279E-01
RMM:   2    -0.230883142584E+04   -0.97172E-02   -0.10425E-01  6075   0.190E-01    0.160E-01
RMM:   3    -0.230883221724E+04   -0.79140E-03   -0.10254E-02  5500   0.693E-02    0.181E-01
RMM:   4    -0.230883202126E+04    0.19598E-03   -0.11761E-03  4399   0.166E-02    0.906E-02
RMM:   5    -0.230883193982E+04    0.81434E-04   -0.31199E-04  4258   0.122E-02    0.533E-02
RMM:   6    -0.230883193495E+04    0.48709E-05   -0.14176E-04  3281   0.931E-03    0.438E-02
RMM:   7    -0.230883191168E+04    0.23273E-04   -0.31023E-05  2864   0.551E-03    0.118E-02
RMM:   8    -0.230883191002E+04    0.16617E-05   -0.66928E-06  2863   0.314E-03
  59 F= -.23296299E+04 E0= -.23296299E+04  d E =-.589354E-02  mag=     4.0000
       N       E                     dE             d eps       ncg     rms          rms(c)
DAV:   1    -0.230881896000E+04    0.12952E-01   -0.17768E+00  4456   0.128E+00    0.345E-01
RMM:   2    -0.230883599084E+04   -0.17031E-01   -0.18233E-01  6051   0.243E-01    0.188E-01
RMM:   3    -0.230883729756E+04   -0.13067E-02   -0.17963E-02  5534   0.895E-02    0.181E-01
RMM:   4    -0.230883725351E+04    0.44043E-04   -0.19981E-03  4792   0.201E-02    0.129E-01
RMM:   5    -0.230883705035E+04    0.20317E-03   -0.42858E-04  4281   0.136E-02    0.534E-02
RMM:   6    -0.230883704249E+04    0.78575E-05   -0.14433E-04  3936   0.104E-02    0.328E-02
RMM:   7    -0.230883703352E+04    0.89715E-05   -0.36327E-05  2868   0.539E-03
  60 F= -.23296345E+04 E0= -.23296345E+04  d E =-.464430E-02  mag=     4.0000
       N       E                     dE             d eps       ncg     rms          rms(c)
DAV:   1    -0.230876977799E+04    0.67264E-01   -0.68846E+00  4456   0.251E+00    0.681E-01
RMM:   2    -0.230883533653E+04   -0.65559E-01   -0.70345E-01  6075   0.479E-01    0.364E-01
RMM:   3    -0.230884057102E+04   -0.52345E-02   -0.72956E-02  5620   0.180E-01    0.318E-01
RMM:   4    -0.230884081919E+04   -0.24817E-03   -0.78837E-03  5912   0.399E-02    0.280E-01
RMM:   5    -0.230883991883E+04    0.90036E-03   -0.17021E-03  4866   0.242E-02    0.113E-01
RMM:   6    -0.230883981404E+04    0.10479E-03   -0.59962E-04  5114   0.177E-02    0.322E-02
RMM:   7    -0.230883980384E+04    0.10201E-04   -0.50758E-05  3246   0.761E-03    0.199E-02
RMM:   8    -0.230883980329E+04    0.55457E-06   -0.25107E-05  2874   0.422E-03
  61 F= -.23296363E+04 E0= -.23296363E+04  d E =-.648287E-02  mag=     4.0000
       N       E                     dE             d eps       ncg     rms          rms(c)
DAV:   1    -0.230883336960E+04    0.64342E-02   -0.65209E-01  4544   0.771E-01    0.209E-01
RMM:   2    -0.230883960159E+04   -0.62320E-02   -0.66649E-02  6132   0.148E-01    0.117E-01
RMM:   3    -0.230884008684E+04   -0.48525E-03   -0.64327E-03  5409   0.530E-02    0.118E-01
RMM:   4    -0.230884002706E+04    0.59775E-04   -0.71542E-04  3493   0.127E-02    0.735E-02
RMM:   5    -0.230883996319E+04    0.63868E-04   -0.16773E-04  3827   0.949E-03    0.355E-02
RMM:   6    -0.230883996272E+04    0.47748E-06   -0.60364E-05  3043   0.692E-03
  62 F= -.23296368E+04 E0= -.23296368E+04  d E =-.692706E-02  mag=     4.0000
       N       E                     dE             d eps       ncg     rms          rms(c)
DAV:   1    -0.230881309898E+04    0.26864E-01   -0.27172E+00  4456   0.154E+00    0.447E-01
RMM:   2    -0.230884330903E+04   -0.30210E-01   -0.32129E-01  6194   0.307E-01    0.276E-01
RMM:   3    -0.230884632012E+04   -0.30111E-02   -0.34088E-02  5809   0.115E-01    0.336E-01
RMM:   4    -0.230884543977E+04    0.88035E-03   -0.36268E-03  5594   0.269E-02    0.138E-01
RMM:   5    -0.230884521028E+04    0.22949E-03   -0.70382E-04  4441   0.160E-02    0.787E-02
RMM:   6    -0.230884523790E+04   -0.27622E-04   -0.34974E-04  4008   0.130E-02    0.862E-02
RMM:   7    -0.230884515683E+04    0.81071E-04   -0.10263E-04  3039   0.703E-03    0.168E-02
RMM:   8    -0.230884515363E+04    0.32055E-05   -0.16243E-05  2882   0.445E-03
  63 F= -.23296414E+04 E0= -.23296414E+04  d E =-.457590E-02  mag=     4.0000
       N       E                     dE             d eps       ncg     rms          rms(c)
DAV:   1    -0.230883808543E+04    0.70714E-02   -0.68052E-01  4496   0.768E-01    0.225E-01
RMM:   2    -0.230884570699E+04   -0.76216E-02   -0.80974E-02  6182   0.154E-01    0.139E-01
RMM:   3    -0.230884641987E+04   -0.71288E-03   -0.82321E-03  5464   0.560E-02    0.165E-01
RMM:   4    -0.230884621580E+04    0.20407E-03   -0.91123E-04  3714   0.136E-02    0.701E-02
RMM:   5    -0.230884615548E+04    0.60321E-04   -0.18332E-04  3960   0.936E-03    0.373E-02
RMM:   6    -0.230884616357E+04   -0.80850E-05   -0.79534E-05  2928   0.743E-03
  64 F= -.23296421E+04 E0= -.23296421E+04  d E =-.528108E-02  mag=     4.0000
       N       E                     dE             d eps       ncg     rms          rms(c)
DAV:   1    -0.230882752203E+04    0.18633E-01   -0.17757E+00  4456   0.123E+00    0.393E-01
RMM:   2    -0.230884890551E+04   -0.21383E-01   -0.22847E-01  6127   0.258E-01    0.236E-01
RMM:   3    -0.230885105378E+04   -0.21483E-02   -0.24276E-02  5739   0.949E-02    0.293E-01
RMM:   4    -0.230885036286E+04    0.69092E-03   -0.26998E-03  5437   0.231E-02    0.118E-01
RMM:   5    -0.230885024144E+04    0.12142E-03   -0.51588E-04  4342   0.140E-02    0.862E-02
RMM:   6    -0.230885021843E+04    0.23016E-04   -0.30767E-04  3667   0.113E-02    0.652E-02
RMM:   7    -0.230885017107E+04    0.47355E-04   -0.58524E-05  2954   0.684E-03    0.125E-02
RMM:   8    -0.230885017004E+04    0.10270E-05   -0.10765E-05  2873   0.441E-03
  65 F= -.23296458E+04 E0= -.23296458E+04  d E =-.375635E-02  mag=     4.0000
       N       E                     dE             d eps       ncg     rms          rms(c)
DAV:   1    -0.230884538415E+04    0.47869E-02   -0.40514E-01  4592   0.589E-01    0.188E-01
RMM:   2    -0.230885030657E+04   -0.49224E-02   -0.52287E-02  6217   0.124E-01    0.120E-01
RMM:   3    -0.230885078747E+04   -0.48090E-03   -0.54831E-03  5249   0.450E-02    0.148E-01
RMM:   4    -0.230885059564E+04    0.19183E-03   -0.61237E-04  3359   0.116E-02    0.545E-02
RMM:   5    -0.230885057101E+04    0.24637E-04   -0.13170E-04  3463   0.812E-03    0.429E-02
RMM:   6    -0.230885056232E+04    0.86892E-05   -0.73448E-05  2916   0.676E-03
  66 F= -.23296461E+04 E0= -.23296461E+04  d E =-.403012E-02  mag=     4.0000
       N       E                     dE             d eps       ncg     rms          rms(c)
DAV:   1    -0.230883161366E+04    0.18957E-01   -0.15592E+00  4456   0.112E+00    0.346E-01
RMM:   2    -0.230885202440E+04   -0.20411E-01   -0.21809E-01  6248   0.240E-01    0.198E-01
RMM:   3    -0.230885410142E+04   -0.20770E-02   -0.24613E-02  5761   0.876E-02    0.207E-01
RMM:   4    -0.230885392535E+04    0.17607E-03   -0.25990E-03  4606   0.199E-02    0.122E-01
RMM:   5    -0.230885380090E+04    0.12445E-03   -0.36105E-04  4022   0.109E-02    0.883E-02
RMM:   6    -0.230885376380E+04    0.37098E-04   -0.26870E-04  3335   0.977E-03    0.606E-02
RMM:   7    -0.230885372652E+04    0.37280E-04   -0.63850E-05  3005   0.705E-03    0.108E-02
RMM:   8    -0.230885372605E+04    0.47541E-06   -0.92629E-06  2861   0.451E-03
  67 F= -.23296492E+04 E0= -.23296492E+04  d E =-.304726E-02  mag=     4.0000
       N       E                     dE             d eps       ncg     rms          rms(c)
DAV:   1    -0.230881723332E+04    0.36493E-01   -0.26893E+00  4456   0.147E+00    0.453E-01
RMM:   2    -0.230885240074E+04   -0.35167E-01   -0.37571E-01  6294   0.314E-01    0.263E-01
RMM:   3    -0.230885609550E+04   -0.36948E-02   -0.43334E-02  5851   0.115E-01    0.290E-01
RMM:   4    -0.230885565825E+04    0.43725E-03   -0.44776E-03  5440   0.263E-02    0.155E-01
RMM:   5    -0.230885545916E+04    0.19909E-03   -0.60987E-04  4258   0.132E-02    0.115E-01
RMM:   6    -0.230885539758E+04    0.61580E-04   -0.45879E-04  3948   0.121E-02    0.820E-02
RMM:   7    -0.230885532792E+04    0.69658E-04   -0.12092E-04  3557   0.821E-03    0.147E-02
RMM:   8    -0.230885532622E+04    0.17040E-05   -0.13758E-05  2870   0.516E-03
  68 F= -.23296506E+04 E0= -.23296506E+04  d E =-.449741E-02  mag=     4.0000
       N       E                     dE             d eps       ncg     rms          rms(c)
DAV:   1    -0.230883622376E+04    0.19104E-01   -0.16914E+00  4456   0.118E+00    0.363E-01
RMM:   2    -0.230885790251E+04   -0.21679E-01   -0.23180E-01  6275   0.252E-01    0.202E-01
RMM:   3    -0.230885988708E+04   -0.19846E-02   -0.25921E-02  5766   0.924E-02    0.169E-01
RMM:   4    -0.230885991310E+04   -0.26021E-04   -0.26758E-03  4894   0.209E-02    0.133E-01
RMM:   5    -0.230885975562E+04    0.15748E-03   -0.42087E-04  4454   0.120E-02    0.103E-01
RMM:   6    -0.230885969742E+04    0.58201E-04   -0.31476E-04  3585   0.104E-02    0.645E-02
RMM:   7    -0.230885965787E+04    0.39548E-04   -0.77263E-05  3107   0.717E-03    0.142E-02
RMM:   8    -0.230885965618E+04    0.16923E-05   -0.11186E-05  2873   0.448E-03
  69 F= -.23296549E+04 E0= -.23296549E+04  d E =-.425085E-02  mag=     4.0000
       N       E                     dE             d eps       ncg     rms          rms(c)
DAV:   1    -0.230883555993E+04    0.24098E-01   -0.18581E+00  4456   0.123E+00    0.381E-01
RMM:   2    -0.230885929871E+04   -0.23739E-01   -0.25383E-01  6285   0.264E-01    0.213E-01
RMM:   3    -0.230886151630E+04   -0.22176E-02   -0.28507E-02  5779   0.963E-02    0.181E-01
RMM:   4    -0.230886152331E+04   -0.70075E-05   -0.29251E-03  5037   0.219E-02    0.139E-01
RMM:   5    -0.230886135669E+04    0.16662E-03   -0.46536E-04  4511   0.125E-02    0.109E-01
RMM:   6    -0.230886128776E+04    0.68922E-04   -0.34967E-04  3725   0.109E-02    0.669E-02
RMM:   7    -0.230886124490E+04    0.42861E-04   -0.87179E-05  3237   0.736E-03    0.153E-02
RMM:   8    -0.230886124274E+04    0.21657E-05   -0.12180E-05  2876   0.460E-03
  70 F= -.23296564E+04 E0= -.23296564E+04  d E =-.576503E-02  mag=     4.0000
       N       E                     dE             d eps       ncg     rms          rms(c)
DAV:   1    -0.230884248275E+04    0.18762E-01   -0.16622E+00  4456   0.118E+00    0.365E-01
RMM:   2    -0.230886361403E+04   -0.21131E-01   -0.22442E-01  6242   0.250E-01    0.221E-01
RMM:   3    -0.230886534712E+04   -0.17331E-02   -0.23033E-02  5824   0.901E-02    0.198E-01
RMM:   4    -0.230886513790E+04    0.20922E-03   -0.24284E-03  5075   0.211E-02    0.122E-01
RMM:   5    -0.230886506841E+04    0.69493E-04   -0.44936E-04  4459   0.124E-02    0.124E-01
RMM:   6    -0.230886494074E+04    0.12767E-03   -0.35307E-04  4015   0.111E-02    0.516E-02
RMM:   7    -0.230886491981E+04    0.20929E-04   -0.64250E-05  3013   0.687E-03    0.131E-02
RMM:   8    -0.230886491842E+04    0.13964E-05   -0.94432E-06  2869   0.416E-03
  71 F= -.23296601E+04 E0= -.23296601E+04  d E =-.377342E-02  mag=     4.0000
       N       E                     dE             d eps       ncg     rms          rms(c)
DAV:   1    -0.230884979780E+04    0.15122E-01   -0.11886E+00  4472   0.997E-01    0.309E-01
RMM:   2    -0.230886489113E+04   -0.15093E-01   -0.16030E-01  6214   0.212E-01    0.186E-01
RMM:   3    -0.230886613242E+04   -0.12413E-02   -0.16317E-02  5741   0.768E-02    0.169E-01
RMM:   4    -0.230886597308E+04    0.15934E-03   -0.17329E-03  4614   0.180E-02    0.103E-01
RMM:   5    -0.230886592447E+04    0.48614E-04   -0.32578E-04  4064   0.110E-02    0.106E-01
RMM:   6    -0.230886583053E+04    0.93931E-04   -0.25455E-04  3711   0.978E-03    0.424E-02
RMM:   7    -0.230886581660E+04    0.13938E-04   -0.44898E-05  2929   0.638E-03    0.107E-02
RMM:   8    -0.230886581564E+04    0.96146E-06   -0.73477E-06  2856   0.379E-03
  72 F= -.23296611E+04 E0= -.23296611E+04  d E =-.476518E-02  mag=     4.0000
       N       E                     dE             d eps       ncg     rms          rms(c)
DAV:   1    -0.230884282426E+04    0.22992E-01   -0.19396E+00  4456   0.129E+00    0.390E-01
RMM:   2    -0.230886844823E+04   -0.25624E-01   -0.26977E-01  6244   0.272E-01    0.274E-01
RMM:   3    -0.230887046645E+04   -0.20182E-02   -0.28010E-02  5923   0.995E-02    0.253E-01
RMM:   4    -0.230886996922E+04    0.49723E-03   -0.28883E-03  5302   0.233E-02    0.137E-01
RMM:   5    -0.230886989617E+04    0.73048E-04   -0.53127E-04  4066   0.120E-02    0.137E-01
RMM:   6    -0.230886971205E+04    0.18412E-03   -0.46020E-04  4491   0.127E-02    0.441E-02
RMM:   7    -0.230886969916E+04    0.12893E-04   -0.80749E-05  3076   0.774E-03    0.135E-02
RMM:   8    -0.230886969686E+04    0.22974E-05   -0.10721E-05  2868   0.431E-03
  73 F= -.23296651E+04 E0= -.23296651E+04  d E =-.400139E-02  mag=     4.0000
       N       E                     dE             d eps       ncg     rms          rms(c)
DAV:   1    -0.230884099509E+04    0.28704E-01   -0.21604E+00  4456   0.136E+00    0.412E-01
RMM:   2    -0.230886947611E+04   -0.28481E-01   -0.29995E-01  6238   0.288E-01    0.291E-01
RMM:   3    -0.230887177710E+04   -0.23010E-02   -0.31323E-02  5953   0.103E-01    0.268E-01
RMM:   4    -0.230887121252E+04    0.56458E-03   -0.32194E-03  5374   0.245E-02    0.145E-01
RMM:   5    -0.230887112932E+04    0.83201E-04   -0.59727E-04  4179   0.126E-02    0.144E-01
RMM:   6    -0.230887092468E+04    0.20464E-03   -0.51386E-04  4632   0.134E-02    0.467E-02
RMM:   7    -0.230887090914E+04    0.15538E-04   -0.93616E-05  3180   0.807E-03    0.145E-02
RMM:   8    -0.230887090631E+04    0.28366E-05   -0.12010E-05  2870   0.442E-03
  74 F= -.23296665E+04 E0= -.23296665E+04  d E =-.535586E-02  mag=     4.0000
       N       E                     dE             d eps       ncg     rms          rms(c)
DAV:   1    -0.230885651323E+04    0.14396E-01   -0.13166E+00  4496   0.109E+00    0.322E-01
RMM:   2    -0.230887373466E+04   -0.17221E-01   -0.18083E-01  6263   0.228E-01    0.240E-01
RMM:   3    -0.230887509910E+04   -0.13644E-02   -0.18758E-02  5888   0.811E-02    0.222E-01
RMM:   4    -0.230887468666E+04    0.41244E-03   -0.19557E-03  4810   0.194E-02    0.113E-01
RMM:   5    -0.230887463608E+04    0.50580E-04   -0.34218E-04  3283   0.991E-03    0.107E-01
RMM:   6    -0.230887451984E+04    0.11624E-03   -0.29341E-04  4155   0.109E-02    0.345E-02
RMM:   7    -0.230887451495E+04    0.48960E-05   -0.56644E-05  2964   0.690E-03
  75 F= -.23296702E+04 E0= -.23296702E+04  d E =-.366297E-02  mag=     4.0000
       N       E                     dE             d eps       ncg     rms          rms(c)
DAV:   1    -0.230871545273E+04    0.15907E+00   -0.11829E+01  4456   0.326E+00    0.972E-01
RMM:   2    -0.230887037882E+04   -0.15493E+00   -0.16304E+00  6273   0.685E-01    0.734E-01
RMM:   3    -0.230888381253E+04   -0.13434E-01   -0.18486E-01  6073   0.256E-01    0.675E-01
RMM:   4    -0.230888003741E+04    0.37751E-02   -0.17879E-02  6208   0.584E-02    0.353E-01
RMM:   5    -0.230887944346E+04    0.59394E-03   -0.30723E-03  5211   0.252E-02    0.315E-01
RMM:   6    -0.230887848754E+04    0.95593E-03   -0.27071E-03  5293   0.293E-02    0.121E-01
RMM:   7    -0.230887838138E+04    0.10616E-03   -0.64762E-04  4942   0.168E-02    0.380E-02
RMM:   8    -0.230887836020E+04    0.21172E-04   -0.63151E-05  3059   0.712E-03    0.210E-02
RMM:   9    -0.230887835380E+04    0.64024E-05   -0.35791E-05  2925   0.493E-03
  76 F= -.23296742E+04 E0= -.23296742E+04  d E =-.772651E-02  mag=     4.0000
       N       E                     dE             d eps       ncg     rms          rms(c)
DAV:   1    -0.230886330430E+04    0.15056E-01   -0.12733E+00  4560   0.106E+00    0.318E-01
RMM:   2    -0.230888079668E+04   -0.17492E-01   -0.18348E-01  6333   0.226E-01    0.244E-01
RMM:   3    -0.230888218849E+04   -0.13918E-02   -0.19097E-02  5899   0.812E-02    0.222E-01
RMM:   4    -0.230888178568E+04    0.40281E-03   -0.19859E-03  4624   0.193E-02    0.112E-01
RMM:   5    -0.230888173794E+04    0.47741E-04   -0.33773E-04  3200   0.970E-03    0.105E-01
RMM:   6    -0.230888162936E+04    0.10858E-03   -0.27996E-04  4034   0.106E-02    0.345E-02
RMM:   7    -0.230888162468E+04    0.46809E-05   -0.55760E-05  2968   0.664E-03
  77 F= -.23296776E+04 E0= -.23296776E+04  d E =-.333705E-02  mag=     4.0000
       N       E                     dE             d eps       ncg     rms          rms(c)
DAV:   1    -0.230872137824E+04    0.16025E+00   -0.11428E+01  4456   0.317E+00    0.956E-01
RMM:   2    -0.230887847170E+04   -0.15709E+00   -0.16529E+00  6341   0.681E-01    0.739E-01
RMM:   3    -0.230889218470E+04   -0.13713E-01   -0.18711E-01  6125   0.252E-01    0.668E-01
RMM:   4    -0.230888864944E+04    0.35353E-02   -0.18175E-02  6175   0.575E-02    0.354E-01
RMM:   5    -0.230888803777E+04    0.61167E-03   -0.29487E-03  5226   0.242E-02    0.302E-01
RMM:   6    -0.230888718840E+04    0.84936E-03   -0.24978E-03  5230   0.276E-02    0.122E-01
RMM:   7    -0.230888708141E+04    0.10699E-03   -0.63507E-04  4942   0.164E-02    0.370E-02
RMM:   8    -0.230888706198E+04    0.19434E-04   -0.57219E-05  2997   0.684E-03    0.208E-02
RMM:   9    -0.230888705540E+04    0.65773E-05   -0.33253E-05  2917   0.466E-03
  78 F= -.23296833E+04 E0= -.23296833E+04  d E =-.903886E-02  mag=     4.0000
       N       E                     dE             d eps       ncg     rms          rms(c)
DAV:   1    -0.230887386374E+04    0.13198E-01   -0.12112E+00  4544   0.104E+00    0.342E-01
RMM:   2    -0.230889194143E+04   -0.18078E-01   -0.19090E-01  6257   0.232E-01    0.241E-01
RMM:   3    -0.230889349679E+04   -0.15554E-02   -0.20341E-02  5906   0.860E-02    0.230E-01
RMM:   4    -0.230889303342E+04    0.46338E-03   -0.20507E-03  5060   0.204E-02    0.116E-01
RMM:   5    -0.230889298175E+04    0.51661E-04   -0.38662E-04  3677   0.107E-02    0.109E-01
RMM:   6    -0.230889286853E+04    0.11322E-03   -0.29775E-04  4159   0.108E-02    0.369E-02
RMM:   7    -0.230889285961E+04    0.89226E-05   -0.57570E-05  2984   0.695E-03
  79 F= -.23296892E+04 E0= -.23296892E+04  d E =-.597011E-02  mag=     4.0000
       N       E                     dE             d eps       ncg     rms          rms(c)
DAV:   1    -0.230879996606E+04    0.92902E-01   -0.61762E+00  4456   0.235E+00    0.776E-01
RMM:   2    -0.230889236241E+04   -0.92396E-01   -0.97749E-01  6203   0.526E-01    0.550E-01
RMM:   3    -0.230890038133E+04   -0.80189E-02   -0.10998E-01  5971   0.205E-01    0.510E-01
RMM:   4    -0.230889821419E+04    0.21671E-02   -0.10551E-02  6183   0.460E-02    0.274E-01
RMM:   5    -0.230889783989E+04    0.37431E-03   -0.19464E-03  5221   0.209E-02    0.233E-01
RMM:   6    -0.230889734314E+04    0.49675E-03   -0.15243E-03  5259   0.220E-02    0.950E-02
RMM:   7    -0.230889725948E+04    0.83659E-04   -0.34588E-04  4757   0.128E-02    0.266E-02
RMM:   8    -0.230889724863E+04    0.10849E-04   -0.32565E-05  2917   0.568E-03    0.149E-02
RMM:   9    -0.230889724322E+04    0.54105E-05   -0.17630E-05  2894   0.391E-03
  80 F= -.23296940E+04 E0= -.23296940E+04  d E =-.107704E-01  mag=     4.0000
       N       E                     dE             d eps       ncg     rms          rms(c)
DAV:   1    -0.230888252014E+04    0.14728E-01   -0.10461E+00  4544   0.940E-01    0.310E-01
RMM:   2    -0.230889975807E+04   -0.17238E-01   -0.18163E-01  6388   0.214E-01    0.229E-01
RMM:   3    -0.230890121879E+04   -0.14607E-02   -0.20341E-02  5866   0.791E-02    0.195E-01
RMM:   4    -0.230890093115E+04    0.28765E-03   -0.18066E-03  4336   0.177E-02    0.110E-01
RMM:   5    -0.230890087505E+04    0.56096E-04   -0.29942E-04  3168   0.921E-03    0.979E-02
RMM:   6    -0.230890078427E+04    0.90779E-04   -0.23976E-04  3786   0.968E-03    0.350E-02
RMM:   7    -0.230890077772E+04    0.65539E-05   -0.59471E-05  2979   0.634E-03
  81 F= -.23296979E+04 E0= -.23296979E+04  d E =-.383690E-02  mag=     4.0000
       N       E                     dE             d eps       ncg     rms          rms(c)
DAV:   1    -0.230874315176E+04    0.15763E+00   -0.94110E+00  4456   0.282E+00    0.933E-01
RMM:   2    -0.230889742759E+04   -0.15428E+00   -0.16265E+00  6376   0.644E-01    0.718E-01
RMM:   3    -0.230890950422E+04   -0.12077E-01   -0.18679E-01  6071   0.245E-01    0.571E-01
RMM:   4    -0.230890737377E+04    0.21305E-02   -0.16969E-02  6119   0.535E-02    0.355E-01
RMM:   5    -0.230890662201E+04    0.75175E-03   -0.26612E-03  5277   0.227E-02    0.274E-01
RMM:   6    -0.230890591015E+04    0.71186E-03   -0.21458E-03  5183   0.254E-02    0.112E-01
RMM:   7    -0.230890582899E+04    0.81167E-04   -0.61920E-04  4937   0.153E-02    0.379E-02
RMM:   8    -0.230890580723E+04    0.21760E-04   -0.61247E-05  2982   0.670E-03    0.226E-02
RMM:   9    -0.230890579720E+04    0.10031E-04   -0.37706E-05  2918   0.484E-03    0.691E-03
RMM:  10    -0.230890579720E+04   -0.86002E-08   -0.83746E-06  2875   0.287E-03
  82 F= -.23297039E+04 E0= -.23297039E+04  d E =-.982706E-02  mag=     4.0000
       N       E                     dE             d eps       ncg     rms          rms(c)
DAV:   1    -0.230890179908E+04    0.39981E-02   -0.69620E-01  4560   0.812E-01    0.276E-01
RMM:   2    -0.230891164215E+04   -0.98431E-02   -0.10406E-01  6072   0.176E-01    0.200E-01
RMM:   3    -0.230891222194E+04   -0.57979E-03   -0.10768E-02  5659   0.680E-02    0.162E-01
RMM:   4    -0.230891197208E+04    0.24986E-03   -0.10409E-03  4801   0.161E-02    0.866E-02
RMM:   5    -0.230891196039E+04    0.11693E-04   -0.26173E-04  3562   0.102E-02    0.975E-02
RMM:   6    -0.230891186377E+04    0.96624E-04   -0.19520E-04  4071   0.962E-03    0.231E-02
RMM:   7    -0.230891186051E+04    0.32557E-05   -0.31158E-05  2901   0.618E-03
  83 F= -.23297103E+04 E0= -.23297103E+04  d E =-.644161E-02  mag=     4.0000
       N       E                     dE             d eps       ncg     rms          rms(c)
DAV:   1    -0.230888010947E+04    0.31754E-01   -0.24566E+00  4456   0.152E+00    0.521E-01
RMM:   2    -0.230891500026E+04   -0.34891E-01   -0.36834E-01  6056   0.334E-01    0.387E-01
RMM:   3    -0.230891693450E+04   -0.19342E-02   -0.39191E-02  5809   0.133E-01    0.303E-01
RMM:   4    -0.230891608312E+04    0.85139E-03   -0.37054E-03  5631   0.304E-02    0.167E-01
RMM:   5    -0.230891602136E+04    0.61761E-04   -0.94826E-04  4970   0.176E-02    0.181E-01
RMM:   6    -0.230891568705E+04    0.33431E-03   -0.68147E-04  4967   0.162E-02    0.448E-02
RMM:   7    -0.230891567150E+04    0.15549E-04   -0.11380E-04  3455   0.938E-03    0.161E-02
RMM:   8    -0.230891566706E+04    0.44412E-05   -0.16720E-05  2885   0.433E-03
  84 F= -.23297148E+04 E0= -.23297148E+04  d E =-.109762E-01  mag=     4.0000
       N       E                     dE             d eps       ncg     rms          rms(c)
DAV:   1    -0.230890942887E+04    0.62426E-02   -0.81948E-01  4528   0.858E-01    0.290E-01
RMM:   2    -0.230892084039E+04   -0.11412E-01   -0.11971E-01  6168   0.183E-01    0.227E-01
RMM:   3    -0.230892141385E+04   -0.57345E-03   -0.12697E-02  5694   0.688E-02    0.159E-01
RMM:   4    -0.230892119039E+04    0.22346E-03   -0.11299E-03  4519   0.157E-02    0.807E-02
RMM:   5    -0.230892121088E+04   -0.20496E-04   -0.28395E-04  3950   0.106E-02    0.107E-01
RMM:   6    -0.230892109640E+04    0.11448E-03   -0.19864E-04  3822   0.917E-03    0.258E-02
RMM:   7    -0.230892109439E+04    0.20114E-05   -0.31552E-05  2893   0.580E-03
  85 F= -.23297206E+04 E0= -.23297206E+04  d E =-.575354E-02  mag=     4.0000
       N       E                     dE             d eps       ncg     rms          rms(c)
DAV:   1    -0.230884356370E+04    0.77533E-01   -0.57811E+00  4456   0.228E+00    0.776E-01
RMM:   2    -0.230892497545E+04   -0.81412E-01   -0.85074E-01  6088   0.489E-01    0.638E-01
RMM:   3    -0.230892813931E+04   -0.31639E-02   -0.93181E-02  5842   0.186E-01    0.415E-01
RMM:   4    -0.230892662769E+04    0.15116E-02   -0.79749E-03  5501   0.411E-02    0.214E-01
RMM:   5    -0.230892680771E+04   -0.18002E-03   -0.20175E-03  5486   0.268E-02    0.287E-01
RMM:   6    -0.230892597667E+04    0.83104E-03   -0.13473E-03  5427   0.203E-02    0.667E-02
RMM:   7    -0.230892595980E+04    0.16874E-04   -0.21614E-04  3963   0.112E-02    0.227E-02
RMM:   8    -0.230892595273E+04    0.70715E-05   -0.26170E-05  2906   0.497E-03
  86 F= -.23297263E+04 E0= -.23297263E+04  d E =-.115142E-01  mag=     4.0000
       N       E                     dE             d eps       ncg     rms          rms(c)
DAV:   1    -0.230891495945E+04    0.11000E-01   -0.11972E+00  4512   0.993E-01    0.338E-01
RMM:   2    -0.230893254718E+04   -0.17588E-01   -0.18393E-01  6204   0.221E-01    0.285E-01
RMM:   3    -0.230893340575E+04   -0.85857E-03   -0.19440E-02  5789   0.812E-02    0.180E-01
[...]
DAV:   1    -0.230908091104E+04    0.44384E-02   -0.35573E-01  4480   0.618E-01    0.174E-01
RMM:   2    -0.230908573538E+04   -0.48243E-02   -0.48105E-02  6119   0.131E-01    0.194E-01
RMM:   3    -0.230908578362E+04   -0.48239E-04   -0.46566E-03  5043   0.439E-02    0.109E-01
RMM:   4    -0.230908566683E+04    0.11679E-03   -0.42502E-04  3401   0.104E-02    0.467E-02
RMM:   5    -0.230908563917E+04    0.27656E-04   -0.69120E-05  3074   0.713E-03    0.311E-02
RMM:   6    -0.230908563886E+04    0.31145E-06   -0.68249E-05  2953   0.702E-03
 123 F= -.23298967E+04 E0= -.23298967E+04  d E =-.226309E-02  mag=     4.0000
       N       E                     dE             d eps       ncg     rms          rms(c)
DAV:   1    -0.230907657798E+04    0.90612E-02   -0.96163E-01  4440   0.103E+00    0.298E-01
RMM:   2    -0.230908872054E+04   -0.12143E-01   -0.11868E-01  6029   0.216E-01    0.350E-01
RMM:   3    -0.230908832890E+04    0.39164E-03   -0.11001E-02  5587   0.719E-02    0.182E-01
RMM:   4    -0.230908798235E+04    0.34655E-03   -0.10752E-03  4758   0.172E-02    0.762E-02
RMM:   5    -0.230908794659E+04    0.35762E-04   -0.22849E-04  4064   0.113E-02    0.714E-02
RMM:   6    -0.230908788918E+04    0.57413E-04   -0.20223E-04  4038   0.993E-03    0.357E-02
RMM:   7    -0.230908787905E+04    0.10121E-04   -0.35947E-05  2916   0.664E-03    0.856E-03
RMM:   8    -0.230908787873E+04    0.32752E-06   -0.66015E-06  2847   0.353E-03
 124 F= -.23298989E+04 E0= -.23298989E+04  d E =-.220237E-02  mag=     4.0000
       N       E                     dE             d eps       ncg     rms          rms(c)
DAV:   1    -0.230908644817E+04    0.14309E-02   -0.13715E-01  4512   0.388E-01    0.112E-01
RMM:   2    -0.230908818486E+04   -0.17367E-02   -0.16940E-02  6103   0.821E-02    0.132E-01
RMM:   3    -0.230908812570E+04    0.59155E-04   -0.15534E-03  3973   0.282E-02    0.675E-02
RMM:   4    -0.230908807790E+04    0.47799E-04   -0.15220E-04  2959   0.751E-03    0.289E-02
RMM:   5    -0.230908807082E+04    0.70862E-05   -0.33867E-05  2883   0.526E-03
 125 F= -.23298991E+04 E0= -.23298991E+04  d E =-.237941E-02  mag=     4.0000
       N       E                     dE             d eps       ncg     rms          rms(c)
DAV:   1    -0.230907753015E+04    0.10548E-01   -0.10365E+00  4456   0.106E+00    0.296E-01
RMM:   2    -0.230909084128E+04   -0.13311E-01   -0.13042E-01  6141   0.222E-01    0.357E-01
RMM:   3    -0.230909051474E+04    0.32654E-03   -0.11734E-02  5611   0.762E-02    0.179E-01
RMM:   4    -0.230909019375E+04    0.32099E-03   -0.11797E-03  4798   0.176E-02    0.784E-02
RMM:   5    -0.230909008850E+04    0.10525E-03   -0.22072E-04  4261   0.122E-02    0.389E-02
RMM:   6    -0.230909008278E+04    0.57155E-05   -0.12861E-04  3894   0.990E-03    0.226E-02
RMM:   7    -0.230909007869E+04    0.40978E-05   -0.22849E-05  2876   0.565E-03
 126 F= -.23299010E+04 E0= -.23299010E+04  d E =-.194479E-02  mag=     4.0000
       N       E                     dE             d eps       ncg     rms          rms(c)
DAV:   1    -0.230908356860E+04    0.65142E-02   -0.53045E-01  4460   0.758E-01    0.216E-01
RMM:   2    -0.230909046720E+04   -0.68986E-02   -0.67236E-02  6075   0.159E-01    0.268E-01
RMM:   3    -0.230909022622E+04    0.24098E-03   -0.60223E-03  5281   0.541E-02    0.127E-01
RMM:   4    -0.230909007020E+04    0.15602E-03   -0.61428E-04  4128   0.127E-02    0.552E-02
RMM:   5    -0.230909001795E+04    0.52253E-04   -0.10399E-04  3747   0.896E-03    0.301E-02
RMM:   6    -0.230909001519E+04    0.27544E-05   -0.73817E-05  3220   0.797E-03
 127 F= -.23299009E+04 E0= -.23299009E+04  d E =-.183424E-02  mag=     4.0000
       N       E                     dE             d eps       ncg     rms          rms(c)
DAV:   1    -0.230908876979E+04    0.12482E-02   -0.11969E-01  4528   0.360E-01    0.991E-02
RMM:   2    -0.230909031607E+04   -0.15463E-02   -0.14969E-02  6240   0.763E-02    0.128E-01
RMM:   3    -0.230909024906E+04    0.67006E-04   -0.13269E-03  3823   0.248E-02    0.571E-02
RMM:   4    -0.230909021464E+04    0.34425E-04   -0.13049E-04  2955   0.712E-03    0.263E-02
RMM:   5    -0.230909020244E+04    0.12194E-04   -0.32038E-05  2908   0.519E-03    0.163E-02
RMM:   6    -0.230909020407E+04   -0.16282E-05   -0.19642E-05  2865   0.479E-03
 128 F= -.23299011E+04 E0= -.23299011E+04  d E =-.204557E-02  mag=     4.0000
       N       E                     dE             d eps       ncg     rms          rms(c)
DAV:   1    -0.230907687008E+04    0.13332E-01   -0.10987E+00  4456   0.107E+00    0.313E-01
RMM:   2    -0.230909236191E+04   -0.15492E-01   -0.15228E-01  6096   0.227E-01    0.381E-01
RMM:   3    -0.230909214448E+04    0.21743E-03   -0.14203E-02  5623   0.796E-02    0.183E-01
RMM:   4    -0.230909182826E+04    0.31622E-03   -0.14081E-03  4767   0.178E-02    0.822E-02
RMM:   5    -0.230909171330E+04    0.11496E-03   -0.22340E-04  4158   0.119E-02    0.484E-02
RMM:   6    -0.230909172469E+04   -0.11388E-04   -0.18143E-04  3837   0.972E-03    0.473E-02
RMM:   7    -0.230909169363E+04    0.31059E-04   -0.48202E-05  2884   0.679E-03    0.112E-02
RMM:   8    -0.230909169203E+04    0.16026E-05   -0.81071E-06  2862   0.314E-03
 129 F= -.23299027E+04 E0= -.23299027E+04  d E =-.159095E-02  mag=     4.0000
       N       E                     dE             d eps       ncg     rms          rms(c)
DAV:   1    -0.230909002100E+04    0.16726E-02   -0.12587E-01  4560   0.364E-01    0.107E-01
RMM:   2    -0.230909181901E+04   -0.17980E-02   -0.17560E-02  6093   0.776E-02    0.135E-01
RMM:   3    -0.230909177808E+04    0.40931E-04   -0.16322E-03  3800   0.270E-02    0.612E-02
RMM:   4    -0.230909174366E+04    0.34418E-04   -0.16443E-04  2953   0.709E-03    0.281E-02
RMM:   5    -0.230909173037E+04    0.13290E-04   -0.28611E-05  2875   0.483E-03    0.181E-02
RMM:   6    -0.230909173195E+04   -0.15805E-05   -0.23431E-05  2859   0.458E-03
 130 F= -.23299028E+04 E0= -.23299028E+04  d E =-.166468E-02  mag=     4.0000
       N       E                     dE             d eps       ncg     rms          rms(c)
DAV:   1    -0.230908115237E+04    0.10578E-01   -0.85955E-01  4456   0.938E-01    0.274E-01
RMM:   2    -0.230909351192E+04   -0.12360E-01   -0.12310E-01  6051   0.198E-01    0.318E-01
RMM:   3    -0.230909361719E+04   -0.10528E-03   -0.11438E-02  5496   0.685E-02    0.169E-01
RMM:   4    -0.230909335914E+04    0.25806E-03   -0.11408E-03  4605   0.158E-02    0.747E-02
RMM:   5    -0.230909331593E+04    0.43204E-04   -0.18564E-04  3487   0.999E-03    0.665E-02
RMM:   6    -0.230909327232E+04    0.43618E-04   -0.15567E-04  3686   0.879E-03    0.337E-02
RMM:   7    -0.230909326271E+04    0.96048E-05   -0.41779E-05  2910   0.662E-03
 131 F= -.23299045E+04 E0= -.23299045E+04  d E =-.171647E-02  mag=     4.0000
       N       E                     dE             d eps       ncg     rms          rms(c)
DAV:   1    -0.230908459031E+04    0.86820E-02   -0.62312E-01  4456   0.798E-01    0.235E-01
RMM:   2    -0.230909358572E+04   -0.89954E-02   -0.89614E-02  6055   0.170E-01    0.271E-01
RMM:   3    -0.230909366216E+04   -0.76442E-04   -0.83529E-03  5399   0.607E-02    0.144E-01
RMM:   4    -0.230909347588E+04    0.18628E-03   -0.82823E-04  4111   0.137E-02    0.630E-02
RMM:   5    -0.230909343654E+04    0.39337E-04   -0.13233E-04  3297   0.896E-03    0.505E-02
RMM:   6    -0.230909342021E+04    0.16333E-04   -0.10793E-04  3183   0.786E-03    0.334E-02
RMM:   7    -0.230909340858E+04    0.11629E-04   -0.34077E-05  2881   0.624E-03    0.765E-03
RMM:   8    -0.230909340829E+04    0.28648E-06   -0.65421E-06  2848   0.377E-03
 132 F= -.23299048E+04 E0= -.23299048E+04  d E =-.201798E-02  mag=     4.0000
       N       E                     dE             d eps       ncg     rms          rms(c)
DAV:   1    -0.230907677497E+04    0.16634E-01   -0.12065E+00  4456   0.109E+00    0.321E-01
RMM:   2    -0.230909513431E+04   -0.18359E-01   -0.18268E-01  6131   0.235E-01    0.378E-01
RMM:   3    -0.230909527922E+04   -0.14491E-03   -0.17187E-02  5620   0.811E-02    0.194E-01
RMM:   4    -0.230909493479E+04    0.34443E-03   -0.16655E-03  4751   0.180E-02    0.861E-02
RMM:   5    -0.230909482909E+04    0.10569E-03   -0.23533E-04  4036   0.111E-02    0.535E-02
RMM:   6    -0.230909483952E+04   -0.10431E-04   -0.19531E-04  3639   0.934E-03    0.516E-02
RMM:   7    -0.230909480549E+04    0.34034E-04   -0.56113E-05  2929   0.683E-03    0.106E-02
RMM:   8    -0.230909480449E+04    0.99899E-06   -0.96387E-06  2864   0.358E-03
 133 F= -.23299064E+04 E0= -.23299064E+04  d E =-.156466E-02  mag=     4.0000
       N       E                     dE             d eps       ncg     rms          rms(c)
DAV:   1    -0.230909048539E+04    0.43201E-02   -0.29338E-01  4496   0.538E-01    0.159E-01
RMM:   2    -0.230909497460E+04   -0.44892E-02   -0.44586E-02  6178   0.116E-01    0.189E-01
RMM:   3    -0.230909499548E+04   -0.20879E-04   -0.41842E-03  4640   0.394E-02    0.953E-02
RMM:   4    -0.230909491241E+04    0.83067E-04   -0.40487E-04  3087   0.950E-03    0.426E-02
RMM:   5    -0.230909488453E+04    0.27879E-04   -0.57792E-05  2976   0.629E-03    0.240E-02
RMM:   6    -0.230909488764E+04   -0.31016E-05   -0.47934E-05  2926   0.594E-03
 134 F= -.23299065E+04 E0= -.23299065E+04  d E =-.172915E-02  mag=     4.0000
       N       E                     dE             d eps       ncg     rms          rms(c)
DAV:   1    -0.230908402067E+04    0.10864E-01   -0.81240E-01  4456   0.915E-01    0.286E-01
RMM:   2    -0.230909638720E+04   -0.12367E-01   -0.12438E-01  6015   0.200E-01    0.301E-01
RMM:   3    -0.230909661892E+04   -0.23173E-03   -0.11443E-02  5600   0.697E-02    0.190E-01
RMM:   4    -0.230909624937E+04    0.36955E-03   -0.11409E-03  4690   0.167E-02    0.741E-02
RMM:   5    -0.230909615990E+04    0.89475E-04   -0.20159E-04  4106   0.111E-02    0.348E-02
RMM:   6    -0.230909615592E+04    0.39781E-05   -0.10156E-04  3732   0.873E-03    0.204E-02
RMM:   7    -0.230909615232E+04    0.35994E-05   -0.20485E-05  2864   0.592E-03
 135 F= -.23299078E+04 E0= -.23299078E+04  d E =-.129732E-02  mag=     4.0000
       N       E                     dE             d eps       ncg     rms          rms(c)
DAV:   1    -0.230909594808E+04    0.20784E-03   -0.12594E-02  5152   0.114E-01    0.379E-02
RMM:   2    -0.230909614720E+04   -0.19913E-03   -0.19904E-03  5919   0.259E-02    0.424E-02
RMM:   3    -0.230909614693E+04    0.27384E-06   -0.19175E-04  2898   0.942E-03    0.243E-02
RMM:   4    -0.230909614152E+04    0.54134E-05   -0.19593E-05  2893   0.297E-03
 136 F= -.23299078E+04 E0= -.23299078E+04  d E =-.129022E-02  mag=     4.0000
       N       E                     dE             d eps       ncg     rms          rms(c)
DAV:   1    -0.230909006548E+04    0.60814E-02   -0.47855E-01  4456   0.704E-01    0.216E-01
RMM:   2    -0.230909719122E+04   -0.71257E-02   -0.71736E-02  6078   0.152E-01    0.220E-01
RMM:   3    -0.230909734665E+04   -0.15543E-03   -0.65114E-03  5274   0.527E-02    0.145E-01
RMM:   4    -0.230909713089E+04    0.21576E-03   -0.63929E-04  3898   0.126E-02    0.587E-02
RMM:   5    -0.230909707438E+04    0.56506E-04   -0.13720E-04  3677   0.889E-03    0.277E-02
RMM:   6    -0.230909707291E+04    0.14758E-05   -0.70915E-05  3201   0.771E-03
 137 F= -.23299087E+04 E0= -.23299087E+04  d E =-.877977E-03  mag=     4.0000
       N       E                     dE             d eps       ncg     rms          rms(c)
DAV:   1    -0.230909594991E+04    0.11245E-02   -0.75834E-02  4592   0.281E-01    0.886E-02
RMM:   2    -0.230909707808E+04   -0.11282E-02   -0.11504E-02  6246   0.625E-02    0.834E-02
RMM:   3    -0.230909712233E+04   -0.44247E-04   -0.11254E-03  3485   0.212E-02    0.602E-02
RMM:   4    -0.230909708814E+04    0.34185E-04   -0.10786E-04  2903   0.640E-03    0.238E-02
RMM:   5    -0.230909708145E+04    0.66929E-05   -0.20591E-05  2883   0.379E-03
 138 F= -.23299087E+04 E0= -.23299087E+04  d E =-.864156E-03  mag=     4.0000
       N       E                     dE             d eps       ncg     rms          rms(c)
DAV:   1    -0.230909253555E+04    0.45526E-02   -0.43663E-01  4456   0.666E-01    0.195E-01
RMM:   2    -0.230909821177E+04   -0.56762E-02   -0.56512E-02  6090   0.141E-01    0.212E-01
RMM:   3    -0.230909822789E+04   -0.16121E-04   -0.49846E-03  5172   0.460E-02    0.130E-01
RMM:   4    -0.230909804571E+04    0.18218E-03   -0.51423E-04  3791   0.117E-02    0.540E-02
RMM:   5    -0.230909800039E+04    0.45318E-04   -0.12388E-04  3723   0.868E-03    0.268E-02
RMM:   6    -0.230909800447E+04   -0.40787E-05   -0.61805E-05  2945   0.730E-03
 139 F= -.23299095E+04 E0= -.23299095E+04  d E =-.789339E-03  mag=     4.0000
       N       E                     dE             d eps       ncg     rms          rms(c)
DAV:   1    -0.230909690756E+04    0.10928E-02   -0.90970E-02  4560   0.304E-01    0.911E-02
RMM:   2    -0.230909808225E+04   -0.11747E-02   -0.11902E-02  6221   0.655E-02    0.890E-02
RMM:   3    -0.230909811403E+04   -0.31781E-04   -0.11206E-03  3572   0.217E-02    0.620E-02
RMM:   4    -0.230909807620E+04    0.37834E-04   -0.11159E-04  2915   0.665E-03    0.255E-02
RMM:   5    -0.230909806954E+04    0.66542E-05   -0.25125E-05  2887   0.418E-03
 140 F= -.23299095E+04 E0= -.23299095E+04  d E =-.791994E-03  mag=     4.0000
       N       E                     dE             d eps       ncg     rms          rms(c)
DAV:   1    -0.230909314870E+04    0.49275E-02   -0.49413E-01  4456   0.704E-01    0.214E-01
RMM:   2    -0.230909936469E+04   -0.62160E-02   -0.61532E-02  6074   0.150E-01    0.234E-01
RMM:   3    -0.230909931278E+04    0.51902E-04   -0.54766E-03  5314   0.493E-02    0.140E-01
RMM:   4    -0.230909909423E+04    0.21856E-03   -0.57610E-04  4248   0.126E-02    0.569E-02
RMM:   5    -0.230909904546E+04    0.48768E-04   -0.15560E-04  3999   0.962E-03    0.279E-02
RMM:   6    -0.230909905055E+04   -0.50878E-05   -0.66463E-05  2951   0.747E-03
 141 F= -.23299103E+04 E0= -.23299103E+04  d E =-.791837E-03  mag=     4.0000
       N       E                     dE             d eps       ncg     rms          rms(c)
DAV:   1    -0.230909878793E+04    0.25753E-03   -0.22438E-02  4864   0.150E-01    0.475E-02
RMM:   2    -0.230909906837E+04   -0.28043E-03   -0.28590E-03  6144   0.338E-02    0.438E-02
RMM:   3    -0.230909907876E+04   -0.10394E-04   -0.27753E-04  2930   0.114E-02    0.329E-02
RMM:   4    -0.230909906857E+04    0.10190E-04   -0.28781E-05  2893   0.395E-03    0.133E-02
RMM:   5    -0.230909906739E+04    0.11828E-05   -0.71249E-06  2846   0.223E-03
 142 F= -.23299102E+04 E0= -.23299102E+04  d E =-.767517E-03  mag=     4.0000
       N       E                     dE             d eps       ncg     rms          rms(c)
DAV:   1    -0.230909535268E+04    0.37159E-02   -0.28332E-01  4456   0.532E-01    0.177E-01
RMM:   2    -0.230909993692E+04   -0.45842E-02   -0.44987E-02  6074   0.120E-01    0.205E-01
RMM:   3    -0.230909984903E+04    0.87893E-04   -0.41180E-03  4966   0.409E-02    0.111E-01
RMM:   4    -0.230909971648E+04    0.13255E-03   -0.41636E-04  3518   0.104E-02    0.474E-02
RMM:   5    -0.230909969448E+04    0.22007E-04   -0.99809E-05  3276   0.778E-03    0.385E-02
RMM:   6    -0.230909968128E+04    0.13198E-04   -0.65215E-05  2928   0.695E-03    0.240E-02
RMM:   7    -0.230909967609E+04    0.51904E-05   -0.16592E-05  2869   0.499E-03
 143 F= -.23299108E+04 E0= -.23299108E+04  d E =-.523887E-03  mag=     4.0000
       N       E                     dE             d eps       ncg     rms          rms(c)
DAV:   1    -0.230909960196E+04    0.79317E-04   -0.44217E-03  5232   0.668E-02    0.237E-02
RMM:   2    -0.230909967731E+04   -0.75352E-04   -0.73030E-04  5313   0.163E-02    0.294E-02
RMM:   3    -0.230909967436E+04    0.29510E-05   -0.71008E-05  2860   0.642E-03
 144 F= -.23299108E+04 E0= -.23299108E+04  d E =-.511379E-03  mag=     4.0000
       N       E                     dE             d eps       ncg     rms          rms(c)
DAV:   1    -0.230909619986E+04    0.34775E-02   -0.23329E-01  4464   0.474E-01    0.164E-01
RMM:   2    -0.230910043236E+04   -0.42325E-02   -0.41602E-02  6162   0.111E-01    0.189E-01
RMM:   3    -0.230910037619E+04    0.56170E-04   -0.38772E-03  4769   0.370E-02    0.100E-01
RMM:   4    -0.230910027265E+04    0.10354E-03   -0.39015E-04  3129   0.951E-03    0.466E-02
RMM:   5    -0.230910025934E+04    0.13307E-04   -0.80607E-05  2939   0.664E-03    0.434E-02
RMM:   6    -0.230910023640E+04    0.22945E-04   -0.69699E-05  2991   0.680E-03    0.195E-02
RMM:   7    -0.230910023386E+04    0.25369E-05   -0.17253E-05  2885   0.504E-03
 145 F= -.23299112E+04 E0= -.23299112E+04  d E =-.476489E-03  mag=     4.0000
       N       E                     dE             d eps       ncg     rms          rms(c)
DAV:   1    -0.230909970023E+04    0.53617E-03   -0.30248E-02  4640   0.171E-01    0.605E-02
RMM:   2    -0.230910025637E+04   -0.55614E-03   -0.54581E-03  6251   0.409E-02    0.716E-02
RMM:   3    -0.230910024388E+04    0.12497E-04   -0.51355E-04  3030   0.142E-02    0.373E-02
RMM:   4    -0.230910023003E+04    0.13844E-04   -0.51638E-05  2908   0.460E-03    0.164E-02
RMM:   5    -0.230910022890E+04    0.11287E-05   -0.11701E-05  2852   0.266E-03
 146 F= -.23299112E+04 E0= -.23299112E+04  d E =-.441157E-03  mag=     4.0000
       N       E                     dE             d eps       ncg     rms          rms(c)
DAV:   1    -0.230910003442E+04    0.19561E-03   -0.12116E-02  4544   0.108E-01    0.388E-02
RMM:   2    -0.230910025721E+04   -0.22279E-03   -0.21499E-03  5960   0.259E-02    0.497E-02
RMM:   3    -0.230910024951E+04    0.77001E-05   -0.21469E-04  2884   0.904E-03    0.219E-02
RMM:   4    -0.230910024500E+04    0.45082E-05   -0.20671E-05  2845   0.290E-03
 147 F= -.23299112E+04 E0= -.23299112E+04  d E =-.476276E-03  mag=     4.0000
       N       E                     dE             d eps       ncg     rms          rms(c)
DAV:   1    -0.230909707637E+04    0.31731E-02   -0.24085E-01  4456   0.477E-01    0.162E-01
RMM:   2    -0.230910112295E+04   -0.40466E-02   -0.40513E-02  6104   0.110E-01    0.173E-01
RMM:   3    -0.230910113782E+04   -0.14875E-04   -0.36732E-03  4722   0.363E-02    0.106E-01
RMM:   4    -0.230910101185E+04    0.12597E-03   -0.37221E-04  3104   0.976E-03    0.435E-02
RMM:   5    -0.230910099611E+04    0.15741E-04   -0.80741E-05  2954   0.666E-03    0.367E-02
RMM:   6    -0.230910098192E+04    0.14197E-04   -0.54074E-05  2901   0.641E-03    0.204E-02
RMM:   7    -0.230910097859E+04    0.33239E-05   -0.15441E-05  2884   0.473E-03
 148 F= -.23299117E+04 E0= -.23299117E+04  d E =-.519898E-03  mag=     4.0000
       N       E                     dE             d eps       ncg     rms          rms(c)
DAV:   1    -0.230910080428E+04    0.17763E-03   -0.13693E-02  4736   0.114E-01    0.395E-02
RMM:   2    -0.230910103939E+04   -0.23510E-03   -0.23421E-03  6019   0.273E-02    0.443E-02
RMM:   3    -0.230910103891E+04    0.47438E-06   -0.22055E-04  2900   0.972E-03    0.260E-02
RMM:   4    -0.230910103194E+04    0.69728E-05   -0.22628E-05  2889   0.329E-03
 149 F= -.23299118E+04 E0= -.23299118E+04  d E =-.521648E-03  mag=     4.0000
       N       E                     dE             d eps       ncg     rms          rms(c)
DAV:   1    -0.230909788302E+04    0.31559E-02   -0.25378E-01  4456   0.488E-01    0.157E-01
RMM:   2    -0.230910180413E+04   -0.39211E-02   -0.39999E-02  6196   0.109E-01    0.151E-01
RMM:   3    -0.230910195338E+04   -0.14925E-03   -0.37187E-03  4649   0.363E-02    0.109E-01
RMM:   4    -0.230910183128E+04    0.12210E-03   -0.37597E-04  3100   0.977E-03    0.462E-02
RMM:   5    -0.230910179834E+04    0.32941E-04   -0.91144E-05  3276   0.735E-03    0.197E-02
RMM:   6    -0.230910179988E+04   -0.15424E-05   -0.38202E-05  2922   0.599E-03
 150 F= -.23299123E+04 E0= -.23299123E+04  d E =-.513492E-03  mag=     4.0000
