       N       E                     dE             d eps       ncg     rms          rms(c)
DAV:   1     0.124659860458E+05    0.12466E+05   -0.82092E+05  4416   0.143E+03
DAV:   2    -0.110084851582E+04   -0.13567E+05   -0.13026E+05  5368   0.329E+02
DAV:   3    -0.247695170628E+04   -0.13761E+04   -0.13648E+04  5264   0.108E+02
DAV:   4    -0.251520072202E+04   -0.38249E+02   -0.38069E+02  6344   0.251E+01
DAV:   5    -0.251596663978E+04   -0.76592E+00   -0.76493E+00  5488   0.288E+00    0.170E+02
RMM:   6    -0.146883125323E+04    0.10471E+04   -0.19416E+03  4351   0.389E+01    0.724E+01
RMM:   7    -0.163998231659E+04   -0.17115E+03   -0.27270E+02  4885   0.139E+01    0.486E+01
RMM:   8    -0.169971937215E+04   -0.59737E+02   -0.41800E+01  4806   0.726E+00    0.366E+01
RMM:   9    -0.182872192001E+04   -0.12900E+03   -0.65803E+01  4649   0.814E+00    0.256E+01
RMM:  10    -0.196524356129E+04   -0.13652E+03   -0.51759E+01  4726   0.676E+00    0.183E+01
RMM:  11    -0.205532244705E+04   -0.90079E+02   -0.40101E+01  4465   0.496E+00    0.141E+01
RMM:  12    -0.219205161307E+04   -0.13673E+03   -0.99604E+01  4449   0.746E+00    0.889E+00
RMM:  13    -0.228701263494E+04   -0.94961E+02   -0.92234E+01  4578   0.664E+00    0.564E+00
RMM:  14    -0.230374757669E+04   -0.16735E+02   -0.19822E+01  4604   0.407E+00    0.360E+00
RMM:  15    -0.230945549082E+04   -0.57079E+01   -0.82636E+00  4877   0.175E+00    0.208E+00
RMM:  16    -0.231126220262E+04   -0.18067E+01   -0.17427E+00  4851   0.117E+00    0.142E+00
RMM:  17    -0.231153231790E+04   -0.27012E+00   -0.25680E-01  5333   0.418E-01    0.644E-01
RMM:  18    -0.231171612698E+04   -0.18381E+00   -0.60548E-02  4756   0.202E-01    0.356E-01
RMM:  19    -0.231176852173E+04   -0.52395E-01   -0.32577E-02  4531   0.158E-01    0.220E-01
RMM:  20    -0.231178484005E+04   -0.16318E-01   -0.68020E-03  4655   0.857E-02    0.163E-01
RMM:  21    -0.231180221159E+04   -0.17372E-01   -0.59022E-03  4373   0.580E-02    0.107E-01
RMM:  22    -0.231181476523E+04   -0.12554E-01   -0.46859E-03  4453   0.522E-02    0.643E-02
RMM:  23    -0.231182035622E+04   -0.55910E-02   -0.17519E-03  4686   0.375E-02    0.435E-02
RMM:  24    -0.231182348560E+04   -0.31294E-02   -0.91012E-04  4111   0.212E-02    0.247E-02
RMM:  25    -0.231182498261E+04   -0.14970E-02   -0.39541E-04  4023   0.175E-02    0.149E-02
RMM:  26    -0.231182564072E+04   -0.65811E-03   -0.20612E-04  3848   0.103E-02    0.868E-03
RMM:  27    -0.231182587673E+04   -0.23601E-03   -0.64493E-05  3586   0.850E-03    0.533E-03
RMM:  28    -0.231182594648E+04   -0.69753E-04   -0.18276E-05  3015   0.408E-03    0.353E-03
RMM:  29    -0.231182600401E+04   -0.57531E-04   -0.94830E-06  2823   0.358E-03    0.218E-03
RMM:  30    -0.231182603480E+04   -0.30788E-04   -0.83255E-06  2813   0.294E-03    0.136E-03
RMM:  31    -0.231182604191E+04   -0.71045E-05   -0.37578E-06  2403   0.246E-03
   1 F= -.23318898E+04 E0= -.23318898E+04  d E =-.233189E+04  mag=     2.0000
       N       E                     dE             d eps       ncg     rms          rms(c)
DAV:   1    -0.231191267890E+04   -0.86644E-01   -0.93903E+00  5008   0.221E+00    0.719E-01
RMM:   2    -0.231196386051E+04   -0.51182E-01   -0.53770E-01  6003   0.451E-01    0.482E-01
RMM:   3    -0.231196416825E+04   -0.30775E-03   -0.36951E-02  5165   0.122E-01    0.344E-01
RMM:   4    -0.231196344939E+04    0.71886E-03   -0.11169E-02  5177   0.493E-02    0.200E-01
RMM:   5    -0.231196273221E+04    0.71718E-03   -0.26786E-03  5176   0.314E-02    0.600E-02
RMM:   6    -0.231196267649E+04    0.55728E-04   -0.26260E-04  4258   0.119E-02    0.367E-02
RMM:   7    -0.231196264508E+04    0.31408E-04   -0.11985E-04  3556   0.775E-03    0.195E-02
RMM:   8    -0.231196263013E+04    0.14945E-04   -0.30767E-05  2984   0.564E-03    0.113E-02
RMM:   9    -0.231196262698E+04    0.31555E-05   -0.12085E-05  2811   0.416E-03
   2 F= -.23320256E+04 E0= -.23320256E+04  d E =-.135781E+00  mag=     2.0000
       N       E                     dE             d eps       ncg     rms          rms(c)
DAV:   1    -0.231196327276E+04   -0.64262E-03   -0.82626E-02  5134   0.206E-01    0.678E-02
RMM:   2    -0.231196368402E+04   -0.41127E-03   -0.43810E-03  5971   0.395E-02    0.455E-02
RMM:   3    -0.231196368388E+04    0.13929E-06   -0.33354E-04  3378   0.124E-02    0.319E-02
RMM:   4    -0.231196367384E+04    0.10047E-04   -0.92297E-05  3058   0.531E-03    0.172E-02
RMM:   5    -0.231196366802E+04    0.58215E-05   -0.22499E-05  2865   0.431E-03
   3 F= -.23320265E+04 E0= -.23320265E+04  d E =-.136751E+00  mag=     2.0000
       N       E                     dE             d eps       ncg     rms          rms(c)
DAV:   1    -0.231203162275E+04   -0.67949E-01   -0.31359E+00  4528   0.159E+00    0.560E-01
RMM:   2    -0.231204803760E+04   -0.16415E-01   -0.18688E-01  5911   0.282E-01    0.286E-01
RMM:   3    -0.231204827014E+04   -0.23255E-03   -0.15904E-02  4806   0.950E-02    0.185E-01
RMM:   4    -0.231204818051E+04    0.89636E-04   -0.33788E-03  5344   0.327E-02    0.114E-01
RMM:   5    -0.231204799826E+04    0.18225E-03   -0.65463E-04  4652   0.183E-02    0.336E-02
RMM:   6    -0.231204799237E+04    0.58914E-05   -0.79875E-05  3146   0.752E-03
   4 F= -.23321115E+04 E0= -.23321115E+04  d E =-.849601E-01  mag=     2.0000
       N       E                     dE             d eps       ncg     rms          rms(c)
DAV:   1    -0.231205997180E+04   -0.11974E-01   -0.60220E+00  4480   0.221E+00    0.774E-01
RMM:   2    -0.231209152937E+04   -0.31558E-01   -0.35942E-01  5961   0.390E-01    0.400E-01
RMM:   3    -0.231209204060E+04   -0.51123E-03   -0.31248E-02  4820   0.128E-01    0.265E-01
RMM:   4    -0.231209179534E+04    0.24526E-03   -0.63040E-03  5476   0.444E-02    0.165E-01
RMM:   5    -0.231209140794E+04    0.38741E-03   -0.13995E-03  4781   0.247E-02    0.488E-02
RMM:   6    -0.231209138935E+04    0.18584E-04   -0.15570E-04  3799   0.114E-02    0.231E-02
RMM:   7    -0.231209137756E+04    0.11789E-04   -0.40553E-05  3070   0.578E-03    0.116E-02
RMM:   8    -0.231209137313E+04    0.44370E-05   -0.11429E-05  2813   0.360E-03
   5 F= -.23321557E+04 E0= -.23321557E+04  d E =-.129153E+00  mag=     2.0000
       N       E                     dE             d eps       ncg     rms          rms(c)
DAV:   1    -0.231202567106E+04    0.65707E-01   -0.73139E+00  4464   0.238E+00    0.981E-01
RMM:   2    -0.231212635509E+04   -0.10068E+00   -0.10672E+00  6116   0.542E-01    0.508E-01
RMM:   3    -0.231213308395E+04   -0.67289E-02   -0.12092E-01  5281   0.174E-01    0.377E-01
RMM:   4    -0.231213271241E+04    0.37153E-03   -0.17253E-02  5564   0.504E-02    0.245E-01
RMM:   5    -0.231213169768E+04    0.10147E-02   -0.30643E-03  4952   0.306E-02    0.104E-01
RMM:   6    -0.231213151353E+04    0.18415E-03   -0.69638E-04  4729   0.219E-02    0.388E-02
RMM:   7    -0.231213147118E+04    0.42345E-04   -0.19729E-04  4256   0.114E-02    0.220E-02
RMM:   8    -0.231213145256E+04    0.18627E-04   -0.34246E-05  3084   0.661E-03    0.147E-02
RMM:   9    -0.231213143618E+04    0.16375E-04   -0.33878E-05  3146   0.472E-03    0.737E-03
RMM:  10    -0.231213143243E+04    0.37526E-05   -0.11467E-05  2808   0.432E-03
   6 F= -.23321977E+04 E0= -.23321977E+04  d E =-.420059E-01  mag=     2.0000
       N       E                     dE             d eps       ncg     rms          rms(c)
DAV:   1    -0.231213138058E+04    0.55604E-04   -0.20657E-02  5272   0.128E-01    0.519E-02
RMM:   2    -0.231213166075E+04   -0.28017E-03   -0.29518E-03  6096   0.284E-02    0.264E-02
RMM:   3    -0.231213167516E+04   -0.14412E-04   -0.28197E-04  2973   0.101E-02    0.181E-02
RMM:   4    -0.231213167489E+04    0.27253E-06   -0.45210E-05  2830   0.324E-03
   7 F= -.23321978E+04 E0= -.23321978E+04  d E =-.421455E-01  mag=     2.0000
       N       E                     dE             d eps       ncg     rms          rms(c)
DAV:   1    -0.231211817663E+04    0.13499E-01   -0.23089E+00  4448   0.138E+00    0.562E-01
RMM:   2    -0.231215012860E+04   -0.31952E-01   -0.34231E-01  6148   0.310E-01    0.275E-01
RMM:   3    -0.231215230312E+04   -0.21745E-02   -0.37906E-02  5511   0.967E-02    0.199E-01
RMM:   4    -0.231215228037E+04    0.22748E-04   -0.54544E-03  5206   0.266E-02    0.128E-01
RMM:   5    -0.231215202553E+04    0.25484E-03   -0.96167E-04  4711   0.171E-02    0.597E-02
RMM:   6    -0.231215195663E+04    0.68900E-04   -0.17477E-04  4333   0.112E-02    0.226E-02
RMM:   7    -0.231215193867E+04    0.17963E-04   -0.64254E-05  3297   0.680E-03    0.124E-02
RMM:   8    -0.231215193246E+04    0.62068E-05   -0.12655E-05  2824   0.447E-03
   8 F= -.23322189E+04 E0= -.23322189E+04  d E =-.211015E-01  mag=     2.0000
       N       E                     dE             d eps       ncg     rms          rms(c)
DAV:   1    -0.231214918045E+04    0.27582E-02   -0.26716E-01  4768   0.468E-01    0.189E-01
RMM:   2    -0.231215293744E+04   -0.37570E-02   -0.40176E-02  6174   0.105E-01    0.945E-02
RMM:   3    -0.231215309524E+04   -0.15779E-03   -0.31617E-03  4906   0.313E-02    0.631E-02
RMM:   4    -0.231215308119E+04    0.14042E-04   -0.48411E-04  3605   0.956E-03    0.381E-02
RMM:   5    -0.231215306590E+04    0.15296E-04   -0.10348E-04  3550   0.748E-03    0.182E-02
RMM:   6    -0.231215305832E+04    0.75746E-05   -0.22581E-05  2840   0.532E-03
   9 F= -.23322204E+04 E0= -.23322204E+04  d E =-.225177E-01  mag=     2.0000
       N       E                     dE             d eps       ncg     rms          rms(c)
DAV:   1    -0.231215513371E+04   -0.20678E-02   -0.23564E+00  4416   0.149E+00    0.493E-01
RMM:   2    -0.231216851301E+04   -0.13379E-01   -0.15087E-01  5800   0.257E-01    0.239E-01
RMM:   3    -0.231216880695E+04   -0.29394E-03   -0.13786E-02  5220   0.861E-02    0.158E-01
RMM:   4    -0.231216861989E+04    0.18706E-03   -0.22680E-03  4753   0.267E-02    0.847E-02
RMM:   5    -0.231216857322E+04    0.46670E-04   -0.42708E-04  4439   0.184E-02    0.390E-02
RMM:   6    -0.231216855687E+04    0.16352E-04   -0.76301E-05  3557   0.745E-03    0.209E-02
RMM:   7    -0.231216855054E+04    0.63342E-05   -0.26008E-05  2851   0.545E-03
  10 F= -.23322361E+04 E0= -.23322361E+04  d E =-.157411E-01  mag=     2.0000
       N       E                     dE             d eps       ncg     rms          rms(c)
DAV:   1    -0.231216844877E+04    0.10810E-03   -0.94066E-02  5008   0.299E-01    0.986E-02
RMM:   2    -0.231216897740E+04   -0.52863E-03   -0.59718E-03  5804   0.508E-02    0.490E-02
RMM:   3    -0.231216898608E+04   -0.86794E-05   -0.51674E-04  3726   0.169E-02    0.327E-02
RMM:   4    -0.231216897691E+04    0.91637E-05   -0.90062E-05  3161   0.622E-03
  11 F= -.23322366E+04 E0= -.23322366E+04  d E =-.162178E-01  mag=     2.0000
       N       E                     dE             d eps       ncg     rms          rms(c)
DAV:   1    -0.231216937062E+04   -0.38455E-03   -0.16903E+00  4416   0.123E+00    0.373E-01
RMM:   2    -0.231217920968E+04   -0.98391E-02   -0.11111E-01  5766   0.196E-01    0.216E-01
RMM:   3    -0.231217934579E+04   -0.13611E-03   -0.74946E-03  5084   0.682E-02    0.143E-01
RMM:   4    -0.231217922001E+04    0.12578E-03   -0.16880E-03  4679   0.221E-02    0.746E-02
RMM:   5    -0.231217919812E+04    0.21885E-04   -0.22333E-04  4230   0.152E-02    0.257E-02
RMM:   6    -0.231217919655E+04    0.15714E-05   -0.39542E-05  3004   0.513E-03
  12 F= -.23322472E+04 E0= -.23322472E+04  d E =-.106127E-01  mag=     2.0000
       N       E                     dE             d eps       ncg     rms          rms(c)
DAV:   1    -0.231217895477E+04    0.24335E-03   -0.88669E-02  4832   0.282E-01    0.862E-02
RMM:   2    -0.231217947780E+04   -0.52303E-03   -0.58506E-03  5854   0.467E-02    0.513E-02
RMM:   3    -0.231217949363E+04   -0.15837E-04   -0.47445E-04  3774   0.169E-02    0.356E-02
RMM:   4    -0.231217948649E+04    0.71488E-05   -0.10204E-04  3062   0.596E-03    0.185E-02
RMM:   5    -0.231217948633E+04    0.15913E-06   -0.15298E-05  2841   0.436E-03
  13 F= -.23322476E+04 E0= -.23322476E+04  d E =-.109912E-01  mag=     2.0000
       N       E                     dE             d eps       ncg     rms          rms(c)
DAV:   1    -0.231217560853E+04    0.38780E-02   -0.12187E+00  4400   0.108E+00    0.331E-01
RMM:   2    -0.231218528159E+04   -0.96731E-02   -0.10504E-01  5908   0.188E-01    0.174E-01
RMM:   3    -0.231218565976E+04   -0.37817E-03   -0.85637E-03  5234   0.621E-02    0.112E-01
RMM:   4    -0.231218561936E+04    0.40399E-04   -0.14577E-03  4548   0.189E-02    0.618E-02
RMM:   5    -0.231218560631E+04    0.13050E-04   -0.16331E-04  4001   0.128E-02    0.280E-02
RMM:   6    -0.231218560190E+04    0.44155E-05   -0.45355E-05  2988   0.534E-03
  14 F= -.23322542E+04 E0= -.23322542E+04  d E =-.665273E-02  mag=     2.0000
       N       E                     dE             d eps       ncg     rms          rms(c)
DAV:   1    -0.231218462034E+04    0.98598E-03   -0.14628E-01  4528   0.373E-01    0.116E-01
RMM:   2    -0.231218580023E+04   -0.11799E-02   -0.12781E-02  5994   0.675E-02    0.618E-02
RMM:   3    -0.231218583953E+04   -0.39299E-04   -0.94010E-04  4227   0.215E-02    0.415E-02
RMM:   4    -0.231218583285E+04    0.66778E-05   -0.17529E-04  3136   0.717E-03    0.243E-02
RMM:   5    -0.231218583053E+04    0.23203E-05   -0.29158E-05  2896   0.536E-03
  15 F= -.23322546E+04 E0= -.23322546E+04  d E =-.706479E-02  mag=     2.0000
       N       E                     dE             d eps       ncg     rms          rms(c)
DAV:   1    -0.231218038613E+04    0.54467E-02   -0.11954E+00  4416   0.111E+00    0.332E-01
RMM:   2    -0.231218787208E+04   -0.74860E-02   -0.83120E-02  5721   0.186E-01    0.154E-01
RMM:   3    -0.231218790253E+04   -0.30446E-04   -0.62310E-03  5054   0.682E-02    0.921E-02
RMM:   4    -0.231218780038E+04    0.10215E-03   -0.12573E-03  4676   0.210E-02    0.472E-02
RMM:   5    -0.231218777889E+04    0.21493E-04   -0.13397E-04  4198   0.140E-02    0.198E-02
RMM:   6    -0.231218777191E+04    0.69765E-05   -0.33223E-05  2996   0.474E-03
  16 F= -.23322569E+04 E0= -.23322569E+04  d E =-.224233E-02  mag=     2.0000
       N       E                     dE             d eps       ncg     rms          rms(c)
DAV:   1    -0.231218768587E+04    0.93019E-04   -0.88157E-02  4496   0.301E-01    0.898E-02
RMM:   2    -0.231218823148E+04   -0.54562E-03   -0.60512E-03  5941   0.516E-02    0.412E-02
RMM:   3    -0.231218823852E+04   -0.70412E-05   -0.49861E-04  4029   0.191E-02    0.258E-02
RMM:   4    -0.231218823506E+04    0.34671E-05   -0.90932E-05  3009   0.613E-03
  17 F= -.23322573E+04 E0= -.23322573E+04  d E =-.262357E-02  mag=     2.0000
       N       E                     dE             d eps       ncg     rms          rms(c)
DAV:   1    -0.231218660492E+04    0.16336E-02   -0.39793E-01  4424   0.643E-01    0.181E-01
RMM:   2    -0.231218937147E+04   -0.27665E-02   -0.29590E-02  5695   0.104E-01    0.841E-02
RMM:   3    -0.231218948556E+04   -0.11409E-03   -0.24935E-03  4766   0.459E-02    0.536E-02
RMM:   4    -0.231218946333E+04    0.22233E-04   -0.36754E-04  4098   0.110E-02    0.308E-02
RMM:   5    -0.231218944966E+04    0.13671E-04   -0.64071E-05  3449   0.885E-03    0.104E-02
RMM:   6    -0.231218944889E+04    0.76722E-06   -0.13988E-05  2813   0.486E-03
  18 F= -.23322586E+04 E0= -.23322586E+04  d E =-.135673E-02  mag=     2.0000
       N       E                     dE             d eps       ncg     rms          rms(c)
DAV:   1    -0.231218924451E+04    0.20514E-03   -0.25498E-02  4912   0.163E-01    0.464E-02
RMM:   2    -0.231218942892E+04   -0.18440E-03   -0.19690E-03  5946   0.281E-02    0.219E-02
RMM:   3    -0.231218943574E+04   -0.68219E-05   -0.15782E-04  3016   0.105E-02    0.144E-02
RMM:   4    -0.231218943434E+04    0.13993E-05   -0.24333E-05  2824   0.343E-03
  19 F= -.23322586E+04 E0= -.23322586E+04  d E =-.137860E-02  mag=     2.0000
       N       E                     dE             d eps       ncg     rms          rms(c)
DAV:   1    -0.231218894184E+04    0.49390E-03   -0.17066E-01  4432   0.409E-01    0.100E-01
RMM:   2    -0.231219034271E+04   -0.14009E-02   -0.14521E-02  5744   0.654E-02    0.540E-02
RMM:   3    -0.231219046108E+04   -0.11836E-03   -0.16277E-03  3993   0.299E-02    0.352E-02
RMM:   4    -0.231219046300E+04   -0.19230E-05   -0.17473E-04  3004   0.642E-03    0.232E-02
RMM:   5    -0.231219045587E+04    0.71295E-05   -0.34487E-05  2927   0.516E-03
  20 F= -.23322598E+04 E0= -.23322598E+04  d E =-.111333E-02  mag=     2.0000
       N       E                     dE             d eps       ncg     rms          rms(c)
DAV:   1    -0.231217814463E+04    0.12318E-01   -0.15389E+00  4408   0.123E+00    0.302E-01
RMM:   2    -0.231219085912E+04   -0.12714E-01   -0.13170E-01  5624   0.196E-01    0.162E-01
RMM:   3    -0.231219190876E+04   -0.10496E-02   -0.14466E-02  4833   0.933E-02    0.109E-01
RMM:   4    -0.231219192480E+04   -0.16039E-04   -0.16021E-03  4761   0.174E-02    0.721E-02
RMM:   5    -0.231219184922E+04    0.75581E-04   -0.27800E-04  4403   0.124E-02    0.306E-02
RMM:   6    -0.231219184702E+04    0.22010E-05   -0.70004E-05  3354   0.797E-03
  21 F= -.23322614E+04 E0= -.23322614E+04  d E =-.278300E-02  mag=     2.0000
       N       E                     dE             d eps       ncg     rms          rms(c)
DAV:   1    -0.231219055644E+04    0.12928E-02   -0.13575E-01  4608   0.366E-01    0.915E-02
RMM:   2    -0.231219169880E+04   -0.11424E-02   -0.11886E-02  6045   0.611E-02    0.482E-02
RMM:   3    -0.231219179067E+04   -0.91865E-04   -0.12311E-03  3947   0.239E-02    0.316E-02
RMM:   4    -0.231219179304E+04   -0.23704E-05   -0.14098E-04  2907   0.585E-03    0.214E-02
RMM:   5    -0.231219178710E+04    0.59387E-05   -0.25606E-05  2873   0.447E-03
  22 F= -.23322614E+04 E0= -.23322614E+04  d E =-.280678E-02  mag=     2.0000
       N       E                     dE             d eps       ncg     rms          rms(c)
DAV:   1    -0.231218778999E+04    0.40030E-02   -0.50046E-01  4432   0.696E-01    0.194E-01
RMM:   2    -0.231219245651E+04   -0.46665E-02   -0.48686E-02  5759   0.118E-01    0.993E-02
RMM:   3    -0.231219285409E+04   -0.39757E-03   -0.55494E-03  4815   0.519E-02    0.651E-02
RMM:   4    -0.231219286085E+04   -0.67618E-05   -0.63633E-04  4001   0.111E-02    0.419E-02
RMM:   5    -0.231219283092E+04    0.29928E-04   -0.10515E-04  3616   0.868E-03    0.174E-02
RMM:   6    -0.231219282948E+04    0.14386E-05   -0.25091E-05  2844   0.589E-03
  23 F= -.23322628E+04 E0= -.23322628E+04  d E =-.139492E-02  mag=     2.0000
       N       E                     dE             d eps       ncg     rms          rms(c)
DAV:   1    -0.231219027731E+04    0.25536E-02   -0.24229E-01  4432   0.485E-01    0.136E-01
RMM:   2    -0.231219258335E+04   -0.23060E-02   -0.24063E-02  5944   0.834E-02    0.693E-02
RMM:   3    -0.231219278028E+04   -0.19693E-03   -0.27069E-03  4571   0.353E-02    0.457E-02
RMM:   4    -0.231219278309E+04   -0.28154E-05   -0.31020E-04  3164   0.807E-03    0.300E-02
RMM:   5    -0.231219276729E+04    0.15808E-04   -0.53639E-05  3110   0.632E-03    0.127E-02
RMM:   6    -0.231219276628E+04    0.10038E-05   -0.14714E-05  2807   0.513E-03
  24 F= -.23322630E+04 E0= -.23322630E+04  d E =-.157795E-02  mag=     2.0000
       N       E                     dE             d eps       ncg     rms          rms(c)
DAV:   1    -0.231218767234E+04    0.50949E-02   -0.49639E-01  4432   0.678E-01    0.194E-01
RMM:   2    -0.231219310839E+04   -0.54360E-02   -0.56520E-02  5775   0.116E-01    0.102E-01
RMM:   3    -0.231219361731E+04   -0.50892E-03   -0.63296E-03  4866   0.546E-02    0.687E-02
RMM:   4    -0.231219363539E+04   -0.18086E-04   -0.71024E-04  3675   0.105E-02    0.457E-02
RMM:   5    -0.231219360766E+04    0.27737E-04   -0.96256E-05  3478   0.787E-03    0.219E-02
RMM:   6    -0.231219360647E+04    0.11917E-05   -0.35638E-05  2878   0.611E-03
  25 F= -.23322643E+04 E0= -.23322643E+04  d E =-.125511E-02  mag=     2.0000
       N       E                     dE             d eps       ncg     rms          rms(c)
DAV:   1    -0.231218484059E+04    0.87671E-02   -0.71989E-01  4420   0.817E-01    0.235E-01
RMM:   2    -0.231219277187E+04   -0.79313E-02   -0.82534E-02  5841   0.141E-01    0.123E-01
RMM:   3    -0.231219351217E+04   -0.74030E-03   -0.91455E-03  4989   0.620E-02    0.833E-02
RMM:   4    -0.231219354274E+04   -0.30574E-04   -0.10302E-03  4048   0.124E-02    0.551E-02
RMM:   5    -0.231219350250E+04    0.40240E-04   -0.14797E-04  3877   0.914E-03    0.262E-02
RMM:   6    -0.231219350003E+04    0.24729E-05   -0.48695E-05  2961   0.676E-03
  26 F= -.23322647E+04 E0= -.23322647E+04  d E =-.165010E-02  mag=     2.0000
       N       E                     dE             d eps       ncg     rms          rms(c)
DAV:   1    -0.231218831635E+04    0.51862E-02   -0.47998E-01  4432   0.655E-01    0.189E-01
RMM:   2    -0.231219405193E+04   -0.57356E-02   -0.59338E-02  5873   0.113E-01    0.101E-01
RMM:   3    -0.231219457134E+04   -0.51941E-03   -0.62290E-03  4799   0.536E-02    0.668E-02
RMM:   4    -0.231219459541E+04   -0.24076E-04   -0.70943E-04  3541   0.100E-02    0.453E-02
RMM:   5    -0.231219456774E+04    0.27669E-04   -0.94905E-05  3479   0.745E-03    0.200E-02
RMM:   6    -0.231219456833E+04   -0.58478E-06   -0.28925E-05  2842   0.582E-03
  27 F= -.23322660E+04 E0= -.23322660E+04  d E =-.132996E-02  mag=     2.0000
       N       E                     dE             d eps       ncg     rms          rms(c)
DAV:   1    -0.231216223958E+04    0.32328E-01   -0.25288E+00  4408   0.150E+00    0.431E-01
RMM:   2    -0.231219235334E+04   -0.30114E-01   -0.31101E-01  5595   0.258E-01    0.233E-01
RMM:   3    -0.231219522138E+04   -0.28680E-02   -0.35084E-02  4814   0.132E-01    0.162E-01
RMM:   4    -0.231219531205E+04   -0.90664E-04   -0.37645E-03  5101   0.225E-02    0.108E-01
RMM:   5    -0.231219515461E+04    0.15744E-03   -0.45814E-04  4612   0.141E-02    0.556E-02
RMM:   6    -0.231219514140E+04    0.13201E-04   -0.22217E-04  4148   0.112E-02    0.203E-02
RMM:   7    -0.231219513766E+04    0.37415E-05   -0.23162E-05  2860   0.649E-03
  28 F= -.23322672E+04 E0= -.23322672E+04  d E =-.250322E-02  mag=     2.0000
       N       E                     dE             d eps       ncg     rms          rms(c)
DAV:   1    -0.231218993528E+04    0.52061E-02   -0.45808E-01  4480   0.626E-01    0.187E-01
RMM:   2    -0.231219574396E+04   -0.58087E-02   -0.59950E-02  5600   0.109E-01    0.994E-02
RMM:   3    -0.231219624270E+04   -0.49874E-03   -0.60688E-03  4568   0.547E-02    0.637E-02
RMM:   4    -0.231219626364E+04   -0.20941E-04   -0.69356E-04  3616   0.956E-03    0.432E-02
RMM:   5    -0.231219623823E+04    0.25410E-04   -0.92264E-05  3365   0.735E-03    0.179E-02
RMM:   6    -0.231219623979E+04   -0.15543E-05   -0.24785E-05  2825   0.549E-03
  29 F= -.23322686E+04 E0= -.23322686E+04  d E =-.141783E-02  mag=     2.0000
       N       E                     dE             d eps       ncg     rms          rms(c)
DAV:   1    -0.231213961138E+04    0.56627E-01   -0.41050E+00  4408   0.188E+00    0.560E-01
RMM:   2    -0.231219174499E+04   -0.52134E-01   -0.53807E-01  5607   0.327E-01    0.309E-01
RMM:   3    -0.231219708555E+04   -0.53406E-02   -0.65315E-02  4889   0.167E-01    0.219E-01
RMM:   4    -0.231219719169E+04   -0.10614E-03   -0.66049E-03  5372   0.281E-02    0.140E-01
RMM:   5    -0.231219692396E+04    0.26772E-03   -0.68650E-04  4716   0.159E-02    0.770E-02
RMM:   6    -0.231219689090E+04    0.33063E-04   -0.41388E-04  4512   0.141E-02    0.274E-02
RMM:   7    -0.231219688690E+04    0.40027E-05   -0.44181E-05  3000   0.808E-03
  30 F= -.23322702E+04 E0= -.23322702E+04  d E =-.300855E-02  mag=     2.0000
       N       E                     dE             d eps       ncg     rms          rms(c)
DAV:   1    -0.231218723522E+04    0.96557E-02   -0.70694E-01  4448   0.759E-01    0.230E-01
RMM:   2    -0.231219689977E+04   -0.96645E-02   -0.99579E-02  5643   0.134E-01    0.126E-01
RMM:   3    -0.231219774508E+04   -0.84531E-03   -0.99458E-03  4757   0.655E-02    0.812E-02
RMM:   4    -0.231219778904E+04   -0.43962E-04   -0.11848E-03  3906   0.115E-02    0.562E-02
RMM:   5    -0.231219774700E+04    0.42041E-04   -0.14424E-04  3644   0.858E-03    0.235E-02
RMM:   6    -0.231219775039E+04   -0.33872E-05   -0.37085E-05  2880   0.601E-03
  31 F= -.23322716E+04 E0= -.23322716E+04  d E =-.139887E-02  mag=     2.0000
       N       E                     dE             d eps       ncg     rms          rms(c)
DAV:   1    -0.231210252809E+04    0.95219E-01   -0.62901E+00  4376   0.227E+00    0.686E-01
RMM:   2    -0.231218891716E+04   -0.86389E-01   -0.88997E-01  5687   0.400E-01    0.385E-01
RMM:   3    -0.231219762034E+04   -0.87032E-02   -0.10306E-01  4963   0.198E-01    0.272E-01
RMM:   4    -0.231219784389E+04   -0.22356E-03   -0.10614E-02  5479   0.341E-02    0.180E-01
RMM:   5    -0.231219743795E+04    0.40594E-03   -0.99048E-04  4862   0.184E-02    0.102E-01
RMM:   6    -0.231219739472E+04    0.43232E-04   -0.70685E-04  4688   0.170E-02    0.360E-02
RMM:   7    -0.231219738926E+04    0.54542E-05   -0.61125E-05  3098   0.926E-03
  32 F= -.23322728E+04 E0= -.23322728E+04  d E =-.261372E-02  mag=     2.0000
       N       E                     dE             d eps       ncg     rms          rms(c)
DAV:   1    -0.231217165959E+04    0.25735E-01   -0.17276E+00  4408   0.117E+00    0.367E-01
RMM:   2    -0.231219612928E+04   -0.24470E-01   -0.25133E-01  5620   0.206E-01    0.201E-01
RMM:   3    -0.231219839710E+04   -0.22678E-02   -0.26429E-02  4813   0.107E-01    0.138E-01
RMM:   4    -0.231219847829E+04   -0.81197E-04   -0.30733E-03  4764   0.180E-02    0.927E-02
RMM:   5    -0.231219836949E+04    0.10880E-03   -0.30371E-04  4219   0.109E-02    0.502E-02
RMM:   6    -0.231219836510E+04    0.43900E-05   -0.16899E-04  3938   0.938E-03    0.195E-02
RMM:   7    -0.231219836353E+04    0.15688E-05   -0.19416E-05  2828   0.571E-03
  33 F= -.23322745E+04 E0= -.23322745E+04  d E =-.172353E-02  mag=     2.0000
       N       E                     dE             d eps       ncg     rms          rms(c)
DAV:   1    -0.231216681748E+04    0.31548E-01   -0.20253E+00  4408   0.127E+00    0.396E-01
RMM:   2    -0.231219549946E+04   -0.28682E-01   -0.29461E-01  5577   0.223E-01    0.217E-01
RMM:   3    -0.231219814869E+04   -0.26492E-02   -0.31100E-02  4746   0.121E-01    0.149E-01
RMM:   4    -0.231219823809E+04   -0.89404E-04   -0.35713E-03  4977   0.197E-02    0.998E-02
RMM:   5    -0.231219810825E+04    0.12984E-03   -0.35265E-04  4322   0.116E-02    0.540E-02
RMM:   6    -0.231219809972E+04    0.85264E-05   -0.19836E-04  4051   0.996E-03    0.200E-02
RMM:   7    -0.231219809747E+04    0.22554E-05   -0.22227E-05  2837   0.602E-03
  34 F= -.23322751E+04 E0= -.23322751E+04  d E =-.225370E-02  mag=     2.0000
       N       E                     dE             d eps       ncg     rms          rms(c)
DAV:   1    -0.231218308224E+04    0.15017E-01   -0.10787E+00  4432   0.921E-01    0.314E-01
RMM:   2    -0.231219844682E+04   -0.15365E-01   -0.15819E-01  5547   0.165E-01    0.161E-01
RMM:   3    -0.231219968861E+04   -0.12418E-02   -0.15371E-02  4757   0.864E-02    0.107E-01
RMM:   4    -0.231219972324E+04   -0.34639E-04   -0.19304E-03  4562   0.155E-02    0.696E-02
RMM:   5    -0.231219965448E+04    0.68767E-04   -0.23017E-04  4092   0.104E-02    0.352E-02
RMM:   6    -0.231219964933E+04    0.51442E-05   -0.92838E-05  3558   0.778E-03
  35 F= -.23322770E+04 E0= -.23322770E+04  d E =-.191296E-02  mag=     2.0000
       N       E                     dE             d eps       ncg     rms          rms(c)
DAV:   1    -0.231219096898E+04    0.86855E-02   -0.56280E-01  4496   0.666E-01    0.228E-01
RMM:   2    -0.231219902235E+04   -0.80534E-02   -0.83123E-02  5990   0.121E-01    0.116E-01
RMM:   3    -0.231219962610E+04   -0.60375E-03   -0.74029E-03  5071   0.546E-02    0.739E-02
RMM:   4    -0.231219964412E+04   -0.18025E-04   -0.97056E-04  3692   0.110E-02    0.490E-02
RMM:   5    -0.231219961098E+04    0.33141E-04   -0.12645E-04  3606   0.787E-03    0.232E-02
RMM:   6    -0.231219960852E+04    0.24566E-05   -0.38666E-05  2894   0.624E-03
  36 F= -.23322772E+04 E0= -.23322772E+04  d E =-.212886E-02  mag=     2.0000
       N       E                     dE             d eps       ncg     rms          rms(c)
DAV:   1    -0.231218079167E+04    0.18819E-01   -0.11847E+00  4408   0.912E-01    0.324E-01
RMM:   2    -0.231219928137E+04   -0.18490E-01   -0.18996E-01  5838   0.167E-01    0.177E-01
RMM:   3    -0.231220094107E+04   -0.16597E-02   -0.19322E-02  5038   0.817E-02    0.117E-01
RMM:   4    -0.231220099072E+04   -0.49643E-04   -0.22730E-03  4345   0.148E-02    0.779E-02
RMM:   5    -0.231220091379E+04    0.76924E-04   -0.23617E-04  3930   0.927E-03    0.410E-02
RMM:   6    -0.231220090975E+04    0.40433E-05   -0.11001E-04  3541   0.798E-03    0.140E-02
RMM:   7    -0.231220090867E+04    0.10755E-05   -0.13900E-05  2817   0.509E-03
  37 F= -.23322788E+04 E0= -.23322788E+04  d E =-.166398E-02  mag=     2.0000
       N       E                     dE             d eps       ncg     rms          rms(c)
DAV:   1    -0.231216870492E+04    0.32205E-01   -0.18965E+00  4408   0.116E+00    0.413E-01
RMM:   2    -0.231219841566E+04   -0.29711E-01   -0.30574E-01  5753   0.211E-01    0.228E-01
RMM:   3    -0.231220138050E+04   -0.29648E-02   -0.35068E-02  5004   0.106E-01    0.155E-01
RMM:   4    -0.231220143951E+04   -0.59010E-04   -0.36914E-03  4838   0.189E-02    0.101E-01
RMM:   5    -0.231220130713E+04    0.13238E-03   -0.36172E-04  4220   0.109E-02    0.571E-02
RMM:   6    -0.231220129172E+04    0.15404E-04   -0.22180E-04  4030   0.101E-02    0.190E-02
RMM:   7    -0.231220128917E+04    0.25517E-05   -0.22362E-05  2847   0.607E-03
  38 F= -.23322797E+04 E0= -.23322797E+04  d E =-.248521E-02  mag=     2.0000
       N       E                     dE             d eps       ncg     rms          rms(c)
DAV:   1    -0.231217515876E+04    0.26133E-01   -0.15016E+00  4408   0.992E-01    0.388E-01
RMM:   2    -0.231220084787E+04   -0.25689E-01   -0.26527E-01  5844   0.192E-01    0.214E-01
RMM:   3    -0.231220351634E+04   -0.26685E-02   -0.31048E-02  5108   0.919E-02    0.137E-01
RMM:   4    -0.231220360629E+04   -0.89959E-04   -0.32833E-03  4620   0.171E-02    0.926E-02
RMM:   5    -0.231220348815E+04    0.11815E-03   -0.33519E-04  4176   0.107E-02    0.487E-02
RMM:   6    -0.231220347975E+04    0.83986E-05   -0.15201E-04  3836   0.891E-03    0.173E-02
RMM:   7    -0.231220347733E+04    0.24122E-05   -0.16097E-05  2822   0.542E-03
  39 F= -.23322824E+04 E0= -.23322824E+04  d E =-.271293E-02  mag=     2.0000
       N       E                     dE             d eps       ncg     rms          rms(c)
DAV:   1    -0.231215457740E+04    0.48902E-01   -0.25872E+00  4408   0.130E+00    0.508E-01
RMM:   2    -0.231219861476E+04   -0.44037E-01   -0.45467E-01  5809   0.252E-01    0.283E-01
RMM:   3    -0.231220341221E+04   -0.47975E-02   -0.56075E-02  5079   0.125E-01    0.186E-01
RMM:   4    -0.231220354709E+04   -0.13488E-03   -0.57072E-03  5151   0.228E-02    0.123E-01
RMM:   5    -0.231220333724E+04    0.20985E-03   -0.55479E-04  4528   0.131E-02    0.671E-02
RMM:   6    -0.231220331660E+04    0.20641E-04   -0.28342E-04  4206   0.112E-02    0.233E-02
RMM:   7    -0.231220331232E+04    0.42779E-05   -0.31102E-05  2854   0.669E-03
  40 F= -.23322829E+04 E0= -.23322829E+04  d E =-.318486E-02  mag=     2.0000
       N       E                     dE             d eps       ncg     rms          rms(c)
DAV:   1    -0.231219800653E+04    0.53101E-02   -0.31216E-01  4464   0.452E-01    0.175E-01
RMM:   2    -0.231220324224E+04   -0.52357E-02   -0.53997E-02  6091   0.893E-02    0.941E-02
RMM:   3    -0.231220377971E+04   -0.53748E-03   -0.62102E-03  4719   0.339E-02    0.634E-02
RMM:   4    -0.231220379666E+04   -0.16948E-04   -0.68855E-04  3007   0.798E-03    0.432E-02
RMM:   5    -0.231220376852E+04    0.28146E-04   -0.68308E-05  2973   0.535E-03    0.236E-02
RMM:   6    -0.231220376514E+04    0.33774E-05   -0.38778E-05  2853   0.542E-03
  41 F= -.23322831E+04 E0= -.23322831E+04  d E =-.342318E-02  mag=     2.0000
       N       E                     dE             d eps       ncg     rms          rms(c)
DAV:   1    -0.231217268631E+04    0.31082E-01   -0.16431E+00  4408   0.997E-01    0.411E-01
RMM:   2    -0.231220246696E+04   -0.29781E-01   -0.30683E-01  6020   0.198E-01    0.227E-01
RMM:   3    -0.231220563344E+04   -0.31665E-02   -0.36472E-02  5141   0.956E-02    0.144E-01
RMM:   4    -0.231220575288E+04   -0.11944E-03   -0.38103E-03  4528   0.175E-02    0.973E-02
RMM:   5    -0.231220561452E+04    0.13837E-03   -0.37371E-04  4226   0.105E-02    0.514E-02
RMM:   6    -0.231220560250E+04    0.12016E-04   -0.16907E-04  3715   0.906E-03    0.177E-02
RMM:   7    -0.231220559913E+04    0.33725E-05   -0.18284E-05  2836   0.530E-03
  42 F= -.23322854E+04 E0= -.23322854E+04  d E =-.227364E-02  mag=     2.0000
       N       E                     dE             d eps       ncg     rms          rms(c)
DAV:   1    -0.231218643824E+04    0.19164E-01   -0.96986E-01  4420   0.766E-01    0.317E-01
RMM:   2    -0.231220409175E+04   -0.17654E-01   -0.18203E-01  5921   0.152E-01    0.173E-01
RMM:   3    -0.231220588580E+04   -0.17941E-02   -0.20442E-02  4978   0.729E-02    0.106E-01
RMM:   4    -0.231220596850E+04   -0.82696E-04   -0.22429E-03  4030   0.134E-02    0.730E-02
RMM:   5    -0.231220589274E+04    0.75756E-04   -0.22868E-04  3807   0.883E-03    0.358E-02
RMM:   6    -0.231220588891E+04    0.38263E-05   -0.79822E-05  3129   0.708E-03
  43 F= -.23322860E+04 E0= -.23322860E+04  d E =-.287249E-02  mag=     2.0000
       N       E                     dE             d eps       ncg     rms          rms(c)
DAV:   1    -0.231217541946E+04    0.30473E-01   -0.16208E+00  4408   0.992E-01    0.414E-01
RMM:   2    -0.231220486535E+04   -0.29446E-01   -0.30403E-01  5971   0.198E-01    0.229E-01
RMM:   3    -0.231220802844E+04   -0.31631E-02   -0.36684E-02  5147   0.942E-02    0.144E-01
RMM:   4    -0.231220816177E+04   -0.13333E-03   -0.38399E-03  4560   0.175E-02    0.972E-02
RMM:   5    -0.231220803306E+04    0.12871E-03   -0.37101E-04  4231   0.105E-02    0.519E-02
RMM:   6    -0.231220802184E+04    0.11217E-04   -0.17091E-04  3781   0.925E-03    0.182E-02
RMM:   7    -0.231220801896E+04    0.28809E-05   -0.18996E-05  2838   0.546E-03
  44 F= -.23322882E+04 E0= -.23322882E+04  d E =-.226007E-02  mag=     2.0000
       N       E                     dE             d eps       ncg     rms          rms(c)
DAV:   1    -0.231215993283E+04    0.48089E-01   -0.23592E+00  4408   0.120E+00    0.498E-01
RMM:   2    -0.231220291265E+04   -0.42980E-01   -0.44246E-01  5886   0.240E-01    0.275E-01
RMM:   3    -0.231220758827E+04   -0.46756E-02   -0.54233E-02  5081   0.120E-01    0.175E-01
RMM:   4    -0.231220778262E+04   -0.19434E-03   -0.57180E-03  4942   0.214E-02    0.118E-01
RMM:   5    -0.231220759049E+04    0.19213E-03   -0.54893E-04  4483   0.124E-02    0.641E-02
RMM:   6    -0.231220757057E+04    0.19921E-04   -0.25947E-04  4080   0.107E-02    0.225E-02
RMM:   7    -0.231220756594E+04    0.46324E-05   -0.26208E-05  2869   0.622E-03
  45 F= -.23322879E+04 E0= -.23322879E+04  d E =-.191951E-02  mag=     2.0000
       N       E                     dE             d eps       ncg     rms          rms(c)
DAV:   1    -0.231219261544E+04    0.14955E-01   -0.79058E-01  4432   0.693E-01    0.285E-01
RMM:   2    -0.231220673886E+04   -0.14123E-01   -0.14517E-01  6153   0.142E-01    0.156E-01
RMM:   3    -0.231220826958E+04   -0.15307E-02   -0.17469E-02  5219   0.528E-02    0.110E-01
RMM:   4    -0.231220830681E+04   -0.37228E-04   -0.19381E-03  3544   0.122E-02    0.725E-02
RMM:   5    -0.231220823732E+04    0.69486E-04   -0.16530E-04  3394   0.734E-03    0.421E-02
RMM:   6    -0.231220822521E+04    0.12111E-04   -0.12454E-04  3563   0.788E-03    0.128E-02
RMM:   7    -0.231220822428E+04    0.92504E-06   -0.12832E-05  2828   0.478E-03
  46 F= -.23322885E+04 E0= -.23322885E+04  d E =-.251883E-02  mag=     2.0000
       N       E                     dE             d eps       ncg     rms          rms(c)
DAV:   1    -0.231218466092E+04    0.23564E-01   -0.12880E+00  4376   0.906E-01    0.373E-01
RMM:   2    -0.231220736470E+04   -0.22704E-01   -0.23332E-01  5881   0.179E-01    0.196E-01
RMM:   3    -0.231220955406E+04   -0.21894E-02   -0.25838E-02  5126   0.787E-02    0.118E-01
RMM:   4    -0.231220964769E+04   -0.93633E-04   -0.28099E-03  4431   0.156E-02    0.804E-02
RMM:   5    -0.231220956254E+04    0.85145E-04   -0.30815E-04  4189   0.106E-02    0.380E-02
RMM:   6    -0.231220955983E+04    0.27086E-05   -0.93907E-05  3399   0.782E-03
  47 F= -.23322900E+04 E0= -.23322900E+04  d E =-.151105E-02  mag=     2.0000
       N       E                     dE             d eps       ncg     rms          rms(c)
DAV:   1    -0.231220161835E+04    0.79442E-02   -0.40029E-01  4464   0.505E-01    0.212E-01
RMM:   2    -0.231220879189E+04   -0.71735E-02   -0.74013E-02  6121   0.102E-01    0.108E-01
RMM:   3    -0.231220945748E+04   -0.66559E-03   -0.77168E-03  4915   0.423E-02    0.644E-02
RMM:   4    -0.231220949632E+04   -0.38838E-04   -0.88870E-04  3182   0.885E-03    0.439E-02
RMM:   5    -0.231220947390E+04    0.22419E-04   -0.97958E-05  3206   0.646E-03    0.172E-02
RMM:   6    -0.231220947501E+04   -0.11132E-05   -0.20204E-05  2829   0.533E-03
  48 F= -.23322900E+04 E0= -.23322900E+04  d E =-.151261E-02  mag=     2.0000
       N       E                     dE             d eps       ncg     rms          rms(c)
DAV:   1    -0.231219743726E+04    0.12037E-01   -0.63802E-01  4400   0.610E-01    0.253E-01
RMM:   2    -0.231220920990E+04   -0.11773E-01   -0.12084E-01  6005   0.122E-01    0.137E-01
RMM:   3    -0.231221034564E+04   -0.11357E-02   -0.12888E-02  4804   0.558E-02    0.805E-02
RMM:   4    -0.231221041135E+04   -0.65718E-04   -0.14734E-03  3452   0.104E-02    0.567E-02
RMM:   5    -0.231221037314E+04    0.38215E-04   -0.15286E-04  3365   0.713E-03    0.244E-02
RMM:   6    -0.231221037466E+04   -0.15257E-05   -0.38145E-05  2852   0.570E-03
  49 F= -.23322911E+04 E0= -.23322911E+04  d E =-.109125E-02  mag=     2.0000
       N       E                     dE             d eps       ncg     rms          rms(c)
DAV:   1    -0.231211610414E+04    0.94269E-01   -0.46162E+00  4376   0.164E+00    0.682E-01
RMM:   2    -0.231220118266E+04   -0.85079E-01   -0.87385E-01  5956   0.327E-01    0.383E-01
RMM:   3    -0.231221081764E+04   -0.96350E-02   -0.11047E-01  5190   0.157E-01    0.250E-01
RMM:   4    -0.231221121678E+04   -0.39914E-03   -0.11581E-02  5306   0.282E-02    0.166E-01
RMM:   5    -0.231221085594E+04    0.36083E-03   -0.91222E-04  4600   0.142E-02    0.965E-02
RMM:   6    -0.231221081582E+04    0.40122E-04   -0.60270E-04  4436   0.141E-02    0.347E-02
RMM:   7    -0.231221080765E+04    0.81739E-05   -0.51402E-05  2944   0.757E-03
  50 F= -.23322920E+04 E0= -.23322920E+04  d E =-.195725E-02  mag=     2.0000
       N       E                     dE             d eps       ncg     rms          rms(c)
DAV:   1    -0.231218687491E+04    0.23941E-01   -0.13120E+00  4388   0.891E-01    0.372E-01
RMM:   2    -0.231221038124E+04   -0.23506E-01   -0.24169E-01  5863   0.177E-01    0.201E-01
RMM:   3    -0.231221270363E+04   -0.23224E-02   -0.26987E-02  5035   0.838E-02    0.123E-01
RMM:   4    -0.231221282568E+04   -0.12206E-03   -0.31261E-03  4444   0.156E-02    0.843E-02
RMM:   5    -0.231221273105E+04    0.94638E-04   -0.31797E-04  4098   0.101E-02    0.425E-02
RMM:   6    -0.231221272666E+04    0.43823E-05   -0.11054E-04  3502   0.792E-03    0.168E-02
RMM:   7    -0.231221272550E+04    0.11587E-05   -0.15368E-05  2818   0.518E-03
  51 F= -.23322940E+04 E0= -.23322940E+04  d E =-.207240E-02  mag=     2.0000
       N       E                     dE             d eps       ncg     rms          rms(c)
DAV:   1    -0.231219239639E+04    0.20330E-01   -0.10348E+00  4420   0.792E-01    0.330E-01
RMM:   2    -0.231221110969E+04   -0.18713E-01   -0.19202E-01  5835   0.158E-01    0.177E-01
RMM:   3    -0.231221286653E+04   -0.17568E-02   -0.20525E-02  4996   0.751E-02    0.106E-01
RMM:   4    -0.231221295662E+04   -0.90094E-04   -0.23773E-03  4198   0.139E-02    0.735E-02
RMM:   5    -0.231221288923E+04    0.67391E-04   -0.25240E-04  3915   0.946E-03    0.348E-02
RMM:   6    -0.231221288790E+04    0.13363E-05   -0.72797E-05  3068   0.706E-03
  52 F= -.23322943E+04 E0= -.23322943E+04  d E =-.233973E-02  mag=     2.0000
       N       E                     dE             d eps       ncg     rms          rms(c)
DAV:   1    -0.231219522740E+04    0.17662E-01   -0.10065E+00  4376   0.789E-01    0.318E-01
RMM:   2    -0.231221282330E+04   -0.17596E-01   -0.18025E-01  5927   0.152E-01    0.172E-01
RMM:   3    -0.231221448996E+04   -0.16667E-02   -0.19469E-02  5029   0.733E-02    0.106E-01
RMM:   4    -0.231221457390E+04   -0.83947E-04   -0.22571E-03  4043   0.136E-02    0.737E-02
RMM:   5    -0.231221450987E+04    0.64033E-04   -0.24275E-04  3794   0.886E-03    0.373E-02
RMM:   6    -0.231221450849E+04    0.13765E-05   -0.76610E-05  3065   0.710E-03
  53 F= -.23322960E+04 E0= -.23322960E+04  d E =-.166569E-02  mag=     2.0000
       N       E                     dE             d eps       ncg     rms          rms(c)
DAV:   1    -0.231219448657E+04    0.20023E-01   -0.10692E+00  4376   0.813E-01    0.329E-01
RMM:   2    -0.231221317001E+04   -0.18683E-01   -0.19138E-01  5936   0.157E-01    0.178E-01
RMM:   3    -0.231221496240E+04   -0.17924E-02   -0.20976E-02  5035   0.758E-02    0.110E-01
RMM:   4    -0.231221505111E+04   -0.88712E-04   -0.24125E-03  4120   0.142E-02    0.771E-02
RMM:   5    -0.231221498086E+04    0.70248E-04   -0.25719E-04  3858   0.916E-03    0.402E-02
RMM:   6    -0.231221497822E+04    0.26390E-05   -0.87994E-05  3189   0.737E-03
  54 F= -.23322964E+04 E0= -.23322964E+04  d E =-.215119E-02  mag=     2.0000
       N       E                     dE             d eps       ncg     rms          rms(c)
DAV:   1    -0.231220305414E+04    0.11927E-01   -0.79718E-01  4400   0.749E-01    0.292E-01
RMM:   2    -0.231221542446E+04   -0.12370E-01   -0.12732E-01  5925   0.141E-01    0.148E-01
RMM:   3    -0.231221646686E+04   -0.10424E-02   -0.12950E-02  5146   0.619E-02    0.903E-02
RMM:   4    -0.231221651201E+04   -0.45151E-04   -0.15749E-03  4179   0.131E-02    0.610E-02
RMM:   5    -0.231221646954E+04    0.42471E-04   -0.19782E-04  3912   0.963E-03    0.282E-02
RMM:   6    -0.231221647053E+04   -0.99214E-06   -0.43618E-05  2867   0.652E-03
  55 F= -.23322980E+04 E0= -.23322980E+04  d E =-.157101E-02  mag=     2.0000
       N       E                     dE             d eps       ncg     rms          rms(c)
DAV:   1    -0.231221221807E+04    0.42515E-02   -0.24909E-01  4512   0.419E-01    0.164E-01
RMM:   2    -0.231221613834E+04   -0.39203E-02   -0.40307E-02  5936   0.798E-02    0.827E-02
RMM:   3    -0.231221644771E+04   -0.30937E-03   -0.38319E-03  4427   0.355E-02    0.504E-02
RMM:   4    -0.231221646111E+04   -0.13406E-04   -0.49297E-04  3147   0.779E-03    0.341E-02
RMM:   5    -0.231221644932E+04    0.11789E-04   -0.62177E-05  2977   0.615E-03    0.148E-02
RMM:   6    -0.231221645126E+04   -0.19304E-05   -0.13177E-05  2816   0.490E-03
  56 F= -.23322980E+04 E0= -.23322980E+04  d E =-.158799E-02  mag=     2.0000
       N       E                     dE             d eps       ncg     rms          rms(c)
DAV:   1    -0.231221582218E+04    0.62715E-03   -0.43460E-02  4560   0.175E-01    0.673E-02
RMM:   2    -0.231221648718E+04   -0.66500E-03   -0.68114E-03  6067   0.341E-02    0.343E-02
RMM:   3    -0.231221654159E+04   -0.54418E-04   -0.68576E-04  3065   0.135E-02    0.226E-02
RMM:   4    -0.231221654265E+04   -0.10528E-05   -0.83338E-05  2827   0.379E-03
  57 F= -.23322981E+04 E0= -.23322981E+04  d E =-.166497E-02  mag=     2.0000
       N       E                     dE             d eps       ncg     rms          rms(c)
DAV:   1    -0.231220706492E+04    0.94767E-02   -0.62049E-01  4376   0.651E-01    0.251E-01
RMM:   2    -0.231221675737E+04   -0.96925E-02   -0.99466E-02  5827   0.122E-01    0.130E-01
RMM:   3    -0.231221767152E+04   -0.91415E-03   -0.10884E-02  4967   0.554E-02    0.780E-02
RMM:   4    -0.231221770852E+04   -0.36996E-04   -0.12083E-03  3938   0.111E-02    0.532E-02
RMM:   5    -0.231221767174E+04    0.36784E-04   -0.14223E-04  3447   0.835E-03    0.232E-02
RMM:   6    -0.231221767261E+04   -0.87530E-06   -0.32003E-05  2827   0.580E-03
  58 F= -.23322994E+04 E0= -.23322994E+04  d E =-.127256E-02  mag=     2.0000
       N       E                     dE             d eps       ncg     rms          rms(c)
DAV:   1    -0.231221282400E+04    0.48477E-02   -0.28773E-01  4400   0.443E-01    0.172E-01
RMM:   2    -0.231221734006E+04   -0.45161E-02   -0.46375E-02  5957   0.842E-02    0.899E-02
RMM:   3    -0.231221775238E+04   -0.41232E-03   -0.49148E-03  4494   0.369E-02    0.544E-02
RMM:   4    -0.231221777193E+04   -0.19541E-04   -0.57323E-04  3193   0.791E-03    0.369E-02
RMM:   5    -0.231221775763E+04    0.14297E-04   -0.71223E-05  2998   0.613E-03    0.147E-02
RMM:   6    -0.231221775948E+04   -0.18522E-05   -0.13638E-05  2818   0.475E-03
  59 F= -.23322996E+04 E0= -.23322996E+04  d E =-.144868E-02  mag=     2.0000
       N       E                     dE             d eps       ncg     rms          rms(c)
DAV:   1    -0.231220541033E+04    0.12347E-01   -0.73479E-01  4376   0.706E-01    0.276E-01
RMM:   2    -0.231221758150E+04   -0.12171E-01   -0.12497E-01  5784   0.137E-01    0.151E-01
RMM:   3    -0.231221876270E+04   -0.11812E-02   -0.13899E-02  4943   0.662E-02    0.931E-02
RMM:   4    -0.231221880586E+04   -0.43151E-04   -0.15441E-03  4162   0.128E-02    0.653E-02
RMM:   5    -0.231221875591E+04    0.49944E-04   -0.20814E-04  3788   0.935E-03    0.315E-02
RMM:   6    -0.231221875451E+04    0.14053E-05   -0.51575E-05  2883   0.626E-03
  60 F= -.23323007E+04 E0= -.23323007E+04  d E =-.109765E-02  mag=     2.0000
       N       E                     dE             d eps       ncg     rms          rms(c)
DAV:   1    -0.231221770776E+04    0.10481E-02   -0.56172E-02  4688   0.195E-01    0.787E-02
RMM:   2    -0.231221863962E+04   -0.93186E-03   -0.96381E-03  6082   0.397E-02    0.432E-02
RMM:   3    -0.231221872922E+04   -0.89602E-04   -0.10236E-03  3157   0.176E-02    0.271E-02
RMM:   4    -0.231221873347E+04   -0.42481E-05   -0.12194E-04  2859   0.431E-03    0.194E-02
RMM:   5    -0.231221873196E+04    0.15103E-05   -0.17581E-05  2817   0.329E-03
  61 F= -.23323007E+04 E0= -.23323007E+04  d E =-.110046E-02  mag=     2.0000
       N       E                     dE             d eps       ncg     rms          rms(c)
DAV:   1    -0.231220650033E+04    0.12233E-01   -0.69905E-01  4388   0.688E-01    0.273E-01
RMM:   2    -0.231221842931E+04   -0.11929E-01   -0.12256E-01  5879   0.136E-01    0.148E-01
RMM:   3    -0.231221962399E+04   -0.11947E-02   -0.13787E-02  5033   0.602E-02    0.913E-02
RMM:   4    -0.231221967828E+04   -0.54292E-04   -0.15379E-03  4068   0.122E-02    0.637E-02
RMM:   5    -0.231221963579E+04    0.42488E-04   -0.19213E-04  3674   0.923E-03    0.298E-02
RMM:   6    -0.231221963810E+04   -0.23098E-05   -0.42258E-05  2824   0.616E-03
  62 F= -.23323016E+04 E0= -.23323016E+04  d E =-.971549E-03  mag=     2.0000
       N       E                     dE             d eps       ncg     rms          rms(c)
DAV:   1    -0.231221857983E+04    0.10560E-02   -0.57058E-02  4544   0.196E-01    0.804E-02
RMM:   2    -0.231221954685E+04   -0.96702E-03   -0.10009E-02  6050   0.398E-02    0.445E-02
RMM:   3    -0.231221964650E+04   -0.99647E-04   -0.11170E-03  3223   0.190E-02    0.283E-02
RMM:   4    -0.231221965257E+04   -0.60706E-05   -0.13047E-04  2860   0.433E-03    0.208E-02
RMM:   5    -0.231221965191E+04    0.65980E-06   -0.19140E-05  2820   0.330E-03
  63 F= -.23323017E+04 E0= -.23323017E+04  d E =-.100146E-02  mag=     2.0000
       N       E                     dE             d eps       ncg     rms          rms(c)
DAV:   1    -0.231220746788E+04    0.12185E-01   -0.72542E-01  4388   0.717E-01    0.278E-01
RMM:   2    -0.231221927286E+04   -0.11805E-01   -0.12159E-01  5894   0.139E-01    0.148E-01
RMM:   3    -0.231222051224E+04   -0.12394E-02   -0.14326E-02  5089   0.601E-02    0.900E-02
RMM:   4    -0.231222056397E+04   -0.51727E-04   -0.15479E-03  4116   0.126E-02    0.611E-02
RMM:   5    -0.231222052220E+04    0.41771E-04   -0.18191E-04  3807   0.982E-03    0.243E-02
RMM:   6    -0.231222052620E+04   -0.39962E-05   -0.30921E-05  2826   0.590E-03
  64 F= -.23323026E+04 E0= -.23323026E+04  d E =-.927611E-03  mag=     2.0000
       N       E                     dE             d eps       ncg     rms          rms(c)
DAV:   1    -0.231222040851E+04    0.11369E-03   -0.61097E-03  5208   0.659E-02    0.295E-02
RMM:   2    -0.231222051239E+04   -0.10388E-03   -0.10822E-03  5205   0.141E-02    0.182E-02
RMM:   3    -0.231222052440E+04   -0.12007E-04   -0.12327E-04  2821   0.621E-03    0.140E-02
RMM:   4    -0.231222052583E+04   -0.14271E-05   -0.16696E-05  2794   0.189E-03
  65 F= -.23323026E+04 E0= -.23323026E+04  d E =-.931550E-03  mag=     2.0000
       N       E                     dE             d eps       ncg     rms          rms(c)
DAV:   1    -0.231221244667E+04    0.80777E-02   -0.52294E-01  4400   0.634E-01    0.239E-01
RMM:   2    -0.231222038258E+04   -0.79359E-02   -0.81915E-02  5867   0.121E-01    0.123E-01
RMM:   3    -0.231222115837E+04   -0.77579E-03   -0.92805E-03  5058   0.498E-02    0.744E-02
RMM:   4    -0.231222118053E+04   -0.22161E-04   -0.10056E-03  4051   0.112E-02    0.494E-02
RMM:   5    -0.231222116281E+04    0.17720E-04   -0.12920E-04  3433   0.890E-03    0.245E-02
RMM:   6    -0.231222116173E+04    0.10756E-05   -0.33856E-05  2842   0.561E-03
  66 F= -.23323033E+04 E0= -.23323033E+04  d E =-.675535E-03  mag=     2.0000
       N       E                     dE             d eps       ncg     rms          rms(c)
DAV:   1    -0.231222116346E+04   -0.64887E-06   -0.64956E-05  4392   0.739E-03    0.121E-02
RMM:   2    -0.231222116478E+04   -0.13209E-05   -0.75405E-06  2783   0.220E-03
  67 F= -.23323033E+04 E0= -.23323033E+04  d E =-.678274E-03  mag=     2.0000
       N       E                     dE             d eps       ncg     rms          rms(c)
DAV:   1    -0.231221614065E+04    0.50228E-02   -0.34989E-01  4400   0.536E-01    0.193E-01
RMM:   2    -0.231222125946E+04   -0.51188E-02   -0.52903E-02  5859   0.101E-01    0.973E-02
RMM:   3    -0.231222169813E+04   -0.43867E-03   -0.53495E-03  4869   0.412E-02    0.595E-02
RMM:   4    -0.231222171123E+04   -0.13096E-04   -0.67100E-04  3720   0.957E-03    0.408E-02
RMM:   5    -0.231222169684E+04    0.14388E-04   -0.79790E-05  2980   0.727E-03    0.221E-02
RMM:   6    -0.231222169510E+04    0.17424E-05   -0.27400E-05  2829   0.511E-03
  68 F= -.23323038E+04 E0= -.23323038E+04  d E =-.543564E-03  mag=     2.0000
       N       E                     dE             d eps       ncg     rms          rms(c)
DAV:   1    -0.231222150343E+04    0.19341E-03   -0.11539E-02  4944   0.976E-02    0.374E-02
RMM:   2    -0.231222167452E+04   -0.17109E-03   -0.17819E-03  5768   0.202E-02    0.203E-02
RMM:   3    -0.231222169356E+04   -0.19047E-04   -0.21780E-04  2837   0.795E-03    0.136E-02
RMM:   4    -0.231222169523E+04   -0.16646E-05   -0.26408E-05  2813   0.238E-03
  69 F= -.23323038E+04 E0= -.23323038E+04  d E =-.545444E-03  mag=     2.0000
       N       E                     dE             d eps       ncg     rms          rms(c)
DAV:   1    -0.231221747797E+04    0.42156E-02   -0.32916E-01  4388   0.540E-01    0.183E-01
RMM:   2    -0.231222185169E+04   -0.43737E-02   -0.45249E-02  5955   0.101E-01    0.907E-02
RMM:   3    -0.231222220035E+04   -0.34867E-03   -0.44301E-03  4935   0.373E-02    0.572E-02
RMM:   4    -0.231222221106E+04   -0.10705E-04   -0.58833E-04  3546   0.945E-03    0.401E-02
RMM:   5    -0.231222219415E+04    0.16905E-04   -0.72863E-05  2979   0.706E-03    0.209E-02
RMM:   6    -0.231222219265E+04    0.15014E-05   -0.26485E-05  2830   0.534E-03
  70 F= -.23323043E+04 E0= -.23323043E+04  d E =-.477194E-03  mag=     2.0000
       N       E                     dE             d eps       ncg     rms          rms(c)
DAV:   1    -0.231222200691E+04    0.18725E-03   -0.12764E-02  4832   0.106E-01    0.376E-02
RMM:   2    -0.231222217847E+04   -0.17157E-03   -0.17886E-03  5855   0.218E-02    0.197E-02
RMM:   3    -0.231222219528E+04   -0.16802E-04   -0.20455E-04  2832   0.814E-03    0.129E-02
RMM:   4    -0.231222219658E+04   -0.13014E-05   -0.25391E-05  2813   0.252E-03
  71 F= -.23323043E+04 E0= -.23323043E+04  d E =-.476562E-03  mag=     2.0000
       N       E                     dE             d eps       ncg     rms          rms(c)
DAV:   1    -0.231221845115E+04    0.37441E-02   -0.33213E-01  4388   0.548E-01    0.173E-01
RMM:   2    -0.231222243643E+04   -0.39853E-02   -0.41168E-02  5991   0.101E-01    0.868E-02
RMM:   3    -0.231222272858E+04   -0.29215E-03   -0.38542E-03  4905   0.345E-02    0.557E-02
RMM:   4    -0.231222273692E+04   -0.83338E-05   -0.53160E-04  3405   0.919E-03    0.384E-02
RMM:   5    -0.231222272131E+04    0.15605E-04   -0.66512E-05  2985   0.670E-03    0.200E-02
RMM:   6    -0.231222272023E+04    0.10829E-05   -0.24786E-05  2823   0.529E-03
  72 F= -.23323048E+04 E0= -.23323048E+04  d E =-.474946E-03  mag=     2.0000
       N       E                     dE             d eps       ncg     rms          rms(c)
DAV:   1    -0.231222235061E+04    0.37070E-03   -0.30220E-02  4560   0.165E-01    0.534E-02
RMM:   2    -0.231222271411E+04   -0.36350E-03   -0.37689E-03  6126   0.322E-02    0.274E-02
RMM:   3    -0.231222274337E+04   -0.29258E-04   -0.38286E-04  2950   0.106E-02    0.177E-02
RMM:   4    -0.231222274541E+04   -0.20423E-05   -0.51359E-05  2823   0.333E-03
  73 F= -.23323048E+04 E0= -.23323048E+04  d E =-.484732E-03  mag=     2.0000
       N       E                     dE             d eps       ncg     rms          rms(c)
DAV:   1    -0.231221961421E+04    0.31292E-02   -0.31795E-01  4376   0.545E-01    0.165E-01
RMM:   2    -0.231222309598E+04   -0.34818E-02   -0.36075E-02  5979   0.998E-02    0.840E-02
RMM:   3    -0.231222330792E+04   -0.21194E-03   -0.31833E-03  4865   0.331E-02    0.552E-02
RMM:   4    -0.231222330980E+04   -0.18812E-05   -0.50317E-04  3462   0.931E-03    0.375E-02
RMM:   5    -0.231222329136E+04    0.18447E-04   -0.66002E-05  3009   0.669E-03    0.189E-02
RMM:   6    -0.231222328916E+04    0.21924E-05   -0.24827E-05  2831   0.529E-03
  74 F= -.23323052E+04 E0= -.23323052E+04  d E =-.474957E-03  mag=     2.0000
       N       E                     dE             d eps       ncg     rms          rms(c)
DAV:   1    -0.231222306245E+04    0.22890E-03   -0.21071E-02  4720   0.141E-01    0.439E-02
RMM:   2    -0.231222330011E+04   -0.23766E-03   -0.24696E-03  6038   0.275E-02    0.231E-02
RMM:   3    -0.231222331244E+04   -0.12328E-04   -0.18832E-04  2887   0.868E-03    0.149E-02
RMM:   4    -0.231222331236E+04    0.75204E-07   -0.29209E-05  2823   0.301E-03
  75 F= -.23323053E+04 E0= -.23323053E+04  d E =-.479874E-03  mag=     2.0000
       N       E                     dE             d eps       ncg     rms          rms(c)
DAV:   1    -0.231222074586E+04    0.25666E-02   -0.28700E-01  4408   0.528E-01    0.159E-01
RMM:   2    -0.231222370367E+04   -0.29578E-02   -0.30733E-02  5959   0.954E-02    0.779E-02
RMM:   3    -0.231222383564E+04   -0.13197E-03   -0.22595E-03  4742   0.309E-02    0.493E-02
RMM:   4    -0.231222383137E+04    0.42700E-05   -0.37558E-04  3435   0.879E-03    0.312E-02
RMM:   5    -0.231222382364E+04    0.77353E-05   -0.51929E-05  2961   0.664E-03
  76 F= -.23323057E+04 E0= -.23323057E+04  d E =-.442931E-03  mag=     2.0000
       N       E                     dE             d eps       ncg     rms          rms(c)
DAV:   1    -0.231222325853E+04    0.57284E-03   -0.56009E-02  4432   0.233E-01    0.708E-02
RMM:   2    -0.231222382439E+04   -0.56586E-03   -0.58960E-03  5943   0.423E-02    0.360E-02
RMM:   3    -0.231222385840E+04   -0.34002E-04   -0.53893E-04  3499   0.169E-02    0.223E-02
RMM:   4    -0.231222385922E+04   -0.82863E-06   -0.76865E-05  2830   0.444E-03
  77 F= -.23323057E+04 E0= -.23323057E+04  d E =-.447111E-03  mag=     2.0000
       N       E                     dE             d eps       ncg     rms          rms(c)
DAV:   1    -0.231222229996E+04    0.15584E-02   -0.19056E-01  4376   0.429E-01    0.122E-01
RMM:   2    -0.231222422284E+04   -0.19229E-02   -0.19876E-02  6078   0.774E-02    0.629E-02
RMM:   3    -0.231222433751E+04   -0.11466E-03   -0.17040E-03  4371   0.242E-02    0.434E-02
RMM:   4    -0.231222433828E+04   -0.77793E-06   -0.27442E-04  2902   0.705E-03    0.300E-02
RMM:   5    -0.231222432676E+04    0.11520E-04   -0.35203E-05  2864   0.497E-03    0.149E-02
RMM:   6    -0.231222432622E+04    0.54762E-06   -0.15269E-05  2812   0.454E-03
  78 F= -.23323061E+04 E0= -.23323061E+04  d E =-.398340E-03  mag=     2.0000
       N       E                     dE             d eps       ncg     rms          rms(c)
DAV:   1    -0.231222082291E+04    0.35039E-02   -0.35119E-01  4376   0.583E-01    0.165E-01
RMM:   2    -0.231222439467E+04   -0.35718E-02   -0.37011E-02  5937   0.105E-01    0.849E-02
RMM:   3    -0.231222455177E+04   -0.15710E-03   -0.26363E-03  4912   0.330E-02    0.534E-02
RMM:   4    -0.231222454928E+04    0.24856E-05   -0.43571E-04  3480   0.929E-03    0.338E-02
RMM:   5    -0.231222454021E+04    0.90745E-05   -0.57567E-05  3013   0.662E-03
  79 F= -.23323062E+04 E0= -.23323062E+04  d E =-.516131E-03  mag=     2.0000
       N       E                     dE             d eps       ncg     rms          rms(c)
DAV:   1    -0.231222319727E+04    0.13520E-02   -0.18210E-01  4400   0.419E-01    0.120E-01
RMM:   2    -0.231222495138E+04   -0.17541E-02   -0.18247E-02  5957   0.746E-02    0.616E-02
RMM:   3    -0.231222505270E+04   -0.10131E-03   -0.15458E-03  4285   0.277E-02    0.382E-02
RMM:   4    -0.231222505440E+04   -0.17043E-05   -0.21917E-04  2943   0.711E-03    0.243E-02
RMM:   5    -0.231222505175E+04    0.26492E-05   -0.28913E-05  2826   0.528E-03
  80 F= -.23323067E+04 E0= -.23323067E+04  d E =-.447508E-03  mag=     2.0000
       N       E                     dE             d eps       ncg     rms          rms(c)
DAV:   1    -0.231222055972E+04    0.44947E-02   -0.46631E-01  4376   0.672E-01    0.191E-01
RMM:   2    -0.231222510445E+04   -0.45447E-02   -0.47201E-02  6045   0.120E-01    0.970E-02
RMM:   3    -0.231222535377E+04   -0.24932E-03   -0.38587E-03  4994   0.392E-02    0.608E-02
RMM:   4    -0.231222535009E+04    0.36816E-05   -0.53142E-04  3765   0.106E-02    0.385E-02
RMM:   5    -0.231222533894E+04    0.11146E-04   -0.69831E-05  3117   0.751E-03    0.209E-02
RMM:   6    -0.231222533563E+04    0.33122E-05   -0.28599E-05  2835   0.557E-03
  81 F= -.23323068E+04 E0= -.23323068E+04  d E =-.625792E-03  mag=     2.0000
       N       E                     dE             d eps       ncg     rms          rms(c)
DAV:   1    -0.231222290096E+04    0.24380E-02   -0.28230E-01  4376   0.519E-01    0.149E-01
RMM:   2    -0.231222577316E+04   -0.28722E-02   -0.29881E-02  6081   0.936E-02    0.777E-02
RMM:   3    -0.231222592029E+04   -0.14713E-03   -0.23225E-03  4738   0.297E-02    0.489E-02
RMM:   4    -0.231222592027E+04    0.20620E-07   -0.34284E-04  3183   0.829E-03    0.309E-02
RMM:   5    -0.231222591403E+04    0.62486E-05   -0.46177E-05  2908   0.606E-03
  82 F= -.23323073E+04 E0= -.23323073E+04  d E =-.496558E-03  mag=     2.0000
       N       E                     dE             d eps       ncg     rms          rms(c)
DAV:   1    -0.231222412483E+04    0.17954E-02   -0.17917E-01  4400   0.413E-01    0.120E-01
RMM:   2    -0.231222595068E+04   -0.18259E-02   -0.19013E-02  6043   0.739E-02    0.624E-02
RMM:   3    -0.231222605483E+04   -0.10415E-03   -0.15677E-03  4185   0.259E-02    0.390E-02
RMM:   4    -0.231222605429E+04    0.53755E-06   -0.21723E-04  2949   0.703E-03    0.249E-02
RMM:   5    -0.231222605041E+04    0.38790E-05   -0.29207E-05  2829   0.521E-03
  83 F= -.23323074E+04 E0= -.23323074E+04  d E =-.565829E-03  mag=     2.0000
       N       E                     dE             d eps       ncg     rms          rms(c)
DAV:   1    -0.231222479218E+04    0.12621E-02   -0.17674E-01  4420   0.419E-01    0.130E-01
RMM:   2    -0.231222648727E+04   -0.16951E-02   -0.17830E-02  5982   0.749E-02    0.615E-02
RMM:   3    -0.231222657555E+04   -0.88277E-04   -0.14878E-03  4384   0.274E-02    0.386E-02
RMM:   4    -0.231222657478E+04    0.77106E-06   -0.21906E-04  3114   0.748E-03    0.245E-02
RMM:   5    -0.231222656882E+04    0.59517E-05   -0.30566E-05  2833   0.564E-03
  84 F= -.23323079E+04 E0= -.23323079E+04  d E =-.444614E-03  mag=     2.0000
       N       E                     dE             d eps       ncg     rms          rms(c)
DAV:   1    -0.231222593145E+04    0.64333E-03   -0.70603E-02  4464   0.265E-01    0.818E-02
RMM:   2    -0.231222661241E+04   -0.68096E-03   -0.71537E-03  5973   0.476E-02    0.394E-02
RMM:   3    -0.231222664748E+04   -0.35068E-04   -0.59217E-04  3608   0.182E-02    0.247E-02
RMM:   4    -0.231222664644E+04    0.10321E-05   -0.83017E-05  2833   0.502E-03
  85 F= -.23323079E+04 E0= -.23323079E+04  d E =-.474477E-03  mag=     2.0000
       N       E                     dE             d eps       ncg     rms          rms(c)
DAV:   1    -0.231222516765E+04    0.14798E-02   -0.19496E-01  4388   0.438E-01    0.133E-01
RMM:   2    -0.231222701600E+04   -0.18483E-02   -0.19383E-02  5972   0.783E-02    0.659E-02
RMM:   3    -0.231222712114E+04   -0.10514E-03   -0.16224E-03  4572   0.259E-02    0.448E-02
RMM:   4    -0.231222711981E+04    0.13291E-05   -0.26307E-04  3005   0.769E-03    0.294E-02
RMM:   5    -0.231222710978E+04    0.10033E-04   -0.40193E-05  2870   0.558E-03    0.139E-02
RMM:   6    -0.231222710911E+04    0.67298E-06   -0.14759E-05  2820   0.475E-03
  86 F= -.23323082E+04 E0= -.23323082E+04  d E =-.365569E-03  mag=     2.0000
       N       E                     dE             d eps       ncg     rms          rms(c)
DAV:   1    -0.231222679846E+04    0.31132E-03   -0.35580E-02  4480   0.188E-01    0.574E-02
RMM:   2    -0.231222714653E+04   -0.34807E-03   -0.36524E-03  6045   0.351E-02    0.281E-02
RMM:   3    -0.231222716455E+04   -0.18018E-04   -0.28738E-04  3088   0.116E-02    0.183E-02
RMM:   4    -0.231222716432E+04    0.22286E-06   -0.45523E-05  2824   0.373E-03
  87 F= -.23323083E+04 E0= -.23323083E+04  d E =-.378671E-03  mag=     2.0000
       N       E                     dE             d eps       ncg     rms          rms(c)
DAV:   1    -0.231222598149E+04    0.11831E-02   -0.16397E-01  4400   0.401E-01    0.126E-01
RMM:   2    -0.231222752224E+04   -0.15407E-02   -0.16291E-02  5970   0.737E-02    0.611E-02
RMM:   3    -0.231222760259E+04   -0.80355E-04   -0.13246E-03  4380   0.241E-02    0.410E-02
RMM:   4    -0.231222759926E+04    0.33317E-05   -0.21831E-04  3082   0.746E-03    0.263E-02
RMM:   5    -0.231222759165E+04    0.76116E-05   -0.35388E-05  2866   0.563E-03
  88 F= -.23323086E+04 E0= -.23323086E+04  d E =-.359039E-03  mag=     2.0000
       N       E                     dE             d eps       ncg     rms          rms(c)
DAV:   1    -0.231222755937E+04    0.39890E-04   -0.40869E-03  5192   0.635E-02    0.216E-02
RMM:   2    -0.231222759820E+04   -0.38828E-04   -0.41732E-04  5057   0.126E-02    0.112E-02
RMM:   3    -0.231222760122E+04   -0.30274E-05   -0.43089E-05  2800   0.551E-03
  89 F= -.23323086E+04 E0= -.23323086E+04  d E =-.357511E-03  mag=     2.0000
       N       E                     dE             d eps       ncg     rms          rms(c)
DAV:   1    -0.231222687372E+04    0.72448E-03   -0.12108E-01  4400   0.352E-01    0.110E-01
RMM:   2    -0.231222796021E+04   -0.10865E-02   -0.11552E-02  5929   0.650E-02    0.537E-02
RMM:   3    -0.231222800292E+04   -0.42718E-04   -0.93800E-04  3979   0.191E-02    0.351E-02
RMM:   4    -0.231222799703E+04    0.58947E-05   -0.16436E-04  3054   0.698E-03    0.213E-02
RMM:   5    -0.231222799221E+04    0.48184E-05   -0.25819E-05  2834   0.517E-03
  90 F= -.23323090E+04 E0= -.23323090E+04  d E =-.332921E-03  mag=     2.0000
       N       E                     dE             d eps       ncg     rms          rms(c)
DAV:   1    -0.231222789978E+04    0.97249E-04   -0.11766E-02  4808   0.110E-01    0.351E-02
RMM:   2    -0.231222800776E+04   -0.10798E-03   -0.11549E-03  5754   0.210E-02    0.176E-02
RMM:   3    -0.231222801133E+04   -0.35664E-05   -0.89207E-05  2861   0.784E-03
  91 F= -.23323090E+04 E0= -.23323090E+04  d E =-.333543E-03  mag=     2.0000
       N       E                     dE             d eps       ncg     rms          rms(c)
DAV:   1    -0.231222731250E+04    0.69527E-03   -0.12670E-01  4400   0.360E-01    0.110E-01
RMM:   2    -0.231222840114E+04   -0.10886E-02   -0.11544E-02  5947   0.657E-02    0.542E-02
RMM:   3    -0.231222843568E+04   -0.34538E-04   -0.90394E-04  3854   0.183E-02    0.351E-02
RMM:   4    -0.231222842915E+04    0.65348E-05   -0.16478E-04  3019   0.693E-03    0.205E-02
RMM:   5    -0.231222842512E+04    0.40242E-05   -0.24644E-05  2841   0.501E-03
  92 F= -.23323093E+04 E0= -.23323093E+04  d E =-.322390E-03  mag=     2.0000
       N       E                     dE             d eps       ncg     rms          rms(c)
DAV:   1    -0.231222813385E+04    0.29529E-03   -0.39578E-02  4400   0.201E-01    0.617E-02
RMM:   2    -0.231222847625E+04   -0.34239E-03   -0.36325E-03  6008   0.371E-02    0.303E-02
RMM:   3    -0.231222848584E+04   -0.95987E-05   -0.26772E-04  3195   0.125E-02    0.184E-02
RMM:   4    -0.231222848349E+04    0.23512E-05   -0.43084E-05  2826   0.407E-03
  93 F= -.23323093E+04 E0= -.23323093E+04  d E =-.329036E-03  mag=     2.0000
       N       E                     dE             d eps       ncg     rms          rms(c)
DAV:   1    -0.231222808268E+04    0.40316E-03   -0.89841E-02  4400   0.302E-01    0.903E-02
RMM:   2    -0.231222882775E+04   -0.74507E-03   -0.79011E-03  6048   0.549E-02    0.439E-02
RMM:   3    -0.231222885412E+04   -0.26363E-04   -0.61433E-04  3632   0.170E-02    0.282E-02
RMM:   4    -0.231222884997E+04    0.41493E-05   -0.10666E-04  2862   0.586E-03    0.164E-02
RMM:   5    -0.231222884755E+04    0.24206E-05   -0.16446E-05  2821   0.426E-03
  94 F= -.23323096E+04 E0= -.23323096E+04  d E =-.306724E-03  mag=     2.0000
       N       E                     dE             d eps       ncg     rms          rms(c)
DAV:   1    -0.231222831110E+04    0.53886E-03   -0.75120E-02  4400   0.276E-01    0.827E-02
RMM:   2    -0.231222894500E+04   -0.63390E-03   -0.67398E-03  6092   0.514E-02    0.409E-02
RMM:   3    -0.231222895874E+04   -0.13738E-04   -0.43570E-04  3530   0.153E-02    0.251E-02
RMM:   4    -0.231222895352E+04    0.52251E-05   -0.64923E-05  2837   0.512E-03
  95 F= -.23323096E+04 E0= -.23323096E+04  d E =-.359831E-03  mag=     2.0000
       N       E                     dE             d eps       ncg     rms          rms(c)
DAV:   1    -0.231222860311E+04    0.35563E-03   -0.10001E-01  4400   0.321E-01    0.102E-01
RMM:   2    -0.231222933437E+04   -0.73125E-03   -0.78486E-03  5953   0.578E-02    0.456E-02
RMM:   3    -0.231222934456E+04   -0.10191E-04   -0.49664E-04  3940   0.190E-02    0.287E-02
RMM:   4    -0.231222933943E+04    0.51301E-05   -0.99657E-05  3007   0.645E-03
  96 F= -.23323100E+04 E0= -.23323100E+04  d E =-.339031E-03  mag=     2.0000
       N       E                     dE             d eps       ncg     rms          rms(c)
DAV:   1    -0.231222915748E+04    0.18708E-03   -0.30788E-02  4608   0.178E-01    0.567E-02
RMM:   2    -0.231222938344E+04   -0.22596E-03   -0.24120E-03  6030   0.332E-02    0.263E-02
RMM:   3    -0.231222939152E+04   -0.80817E-05   -0.19541E-04  3132   0.115E-02    0.177E-02
RMM:   4    -0.231222939083E+04    0.68282E-06   -0.36314E-05  2823   0.379E-03
  97 F= -.23323100E+04 E0= -.23323100E+04  d E =-.364052E-03  mag=     2.0000
       N       E                     dE             d eps       ncg     rms          rms(c)
DAV:   1    -0.231222917562E+04    0.21590E-03   -0.77270E-02  4400   0.283E-01    0.936E-02
RMM:   2    -0.231222973436E+04   -0.55874E-03   -0.60624E-03  6003   0.526E-02    0.417E-02
RMM:   3    -0.231222974927E+04   -0.14916E-04   -0.49412E-04  3729   0.173E-02    0.282E-02
RMM:   4    -0.231222974564E+04    0.36389E-05   -0.90250E-05  2878   0.572E-03
  98 F= -.23323103E+04 E0= -.23323103E+04  d E =-.264123E-03  mag=     2.0000
       N       E                     dE             d eps       ncg     rms          rms(c)
DAV:   1    -0.231222969785E+04    0.51424E-04   -0.11815E-02  4936   0.111E-01    0.378E-02
RMM:   2    -0.231222978202E+04   -0.84166E-04   -0.92366E-04  5822   0.212E-02    0.184E-02
RMM:   3    -0.231222978526E+04   -0.32395E-05   -0.91929E-05  2847   0.799E-03
  99 F= -.23323103E+04 E0= -.23323103E+04  d E =-.267675E-03  mag=     2.0000
       N       E                     dE             d eps       ncg     rms          rms(c)
DAV:   1    -0.231222953622E+04    0.24580E-03   -0.80111E-02  4400   0.286E-01    0.970E-02
RMM:   2    -0.231223013171E+04   -0.59549E-03   -0.64705E-03  5954   0.529E-02    0.468E-02
RMM:   3    -0.231223013034E+04    0.13643E-05   -0.41022E-04  3595   0.150E-02    0.286E-02
RMM:   4    -0.231223012333E+04    0.70119E-05   -0.73098E-05  2958   0.600E-03
 100 F= -.23323105E+04 E0= -.23323105E+04  d E =-.240292E-03  mag=     2.0000
       N       E                     dE             d eps       ncg     rms          rms(c)
DAV:   1    -0.231223011095E+04    0.19397E-04   -0.41947E-03  5264   0.657E-02    0.227E-02
RMM:   2    -0.231223014155E+04   -0.30605E-04   -0.33261E-04  5211   0.127E-02    0.112E-02
RMM:   3    -0.231223014287E+04   -0.13188E-05   -0.32803E-05  2801   0.534E-03
 101 F= -.23323105E+04 E0= -.23323105E+04  d E =-.236700E-03  mag=     2.0000
       N       E                     dE             d eps       ncg     rms          rms(c)
DAV:   1    -0.231222990400E+04    0.23755E-03   -0.77515E-02  4400   0.284E-01    0.953E-02
RMM:   2    -0.231223041522E+04   -0.51122E-03   -0.56512E-03  5945   0.528E-02    0.426E-02
RMM:   3    -0.231223041686E+04   -0.16393E-05   -0.39187E-04  3592   0.147E-02    0.271E-02
RMM:   4    -0.231223041032E+04    0.65388E-05   -0.81155E-05  3010   0.597E-03
 102 F= -.23323107E+04 E0= -.23323107E+04  d E =-.223505E-03  mag=     2.0000
       N       E                     dE             d eps       ncg     rms          rms(c)
DAV:   1    -0.231223038463E+04    0.32232E-04   -0.46771E-03  5232   0.700E-02    0.246E-02
RMM:   2    -0.231223041547E+04   -0.30847E-04   -0.34267E-04  5286   0.135E-02    0.120E-02
RMM:   3    -0.231223041627E+04   -0.79999E-06   -0.31425E-05  2813   0.546E-03
 103 F= -.23323107E+04 E0= -.23323107E+04  d E =-.218339E-03  mag=     2.0000
       N       E                     dE             d eps       ncg     rms          rms(c)
DAV:   1    -0.231223030797E+04    0.10751E-03   -0.62495E-02  4400   0.252E-01    0.808E-02
RMM:   2    -0.231223070440E+04   -0.39643E-03   -0.43603E-03  5970   0.464E-02    0.383E-02
RMM:   3    -0.231223070259E+04    0.18141E-05   -0.25663E-04  3360   0.118E-02    0.240E-02
RMM:   4    -0.231223069790E+04    0.46867E-05   -0.55484E-05  2854   0.523E-03
 104 F= -.23323110E+04 E0= -.23323110E+04  d E =-.238567E-03  mag=     2.0000
       N       E                     dE             d eps       ncg     rms          rms(c)
DAV:   1    -0.231223062223E+04    0.80359E-04   -0.17936E-02  4544   0.135E-01    0.433E-02
RMM:   2    -0.231223073544E+04   -0.11321E-03   -0.12345E-03  5883   0.246E-02    0.203E-02
RMM:   3    -0.231223073691E+04   -0.14753E-05   -0.87318E-05  2902   0.882E-03
 105 F= -.23323110E+04 E0= -.23323110E+04  d E =-.254162E-03  mag=     2.0000
       N       E                     dE             d eps       ncg     rms          rms(c)
DAV:   1    -0.231223066253E+04    0.72905E-04   -0.62383E-02  4400   0.254E-01    0.889E-02
RMM:   2    -0.231223104475E+04   -0.38222E-03   -0.43041E-03  5926   0.473E-02    0.397E-02
RMM:   3    -0.231223103750E+04    0.72481E-05   -0.26330E-04  3437   0.126E-02    0.246E-02
RMM:   4    -0.231223103007E+04    0.74303E-05   -0.64346E-05  3082   0.586E-03
 106 F= -.23323112E+04 E0= -.23323112E+04  d E =-.225464E-03  mag=     2.0000
       N       E                     dE             d eps       ncg     rms          rms(c)
DAV:   1    -0.231223102742E+04    0.10086E-04   -0.20970E-03  5400   0.471E-02    0.172E-02
RMM:   2    -0.231223104039E+04   -0.12977E-04   -0.14570E-04  4275   0.933E-03    0.824E-03
RMM:   3    -0.231223104064E+04   -0.24284E-06   -0.12501E-05  2719   0.454E-03
 107 F= -.23323112E+04 E0= -.23323112E+04  d E =-.223193E-03  mag=     2.0000
       N       E                     dE             d eps       ncg     rms          rms(c)
DAV:   1    -0.231223096642E+04    0.73976E-04   -0.56902E-02  4400   0.241E-01    0.789E-02
RMM:   2    -0.231223134444E+04   -0.37802E-03   -0.41691E-03  5908   0.447E-02    0.375E-02
RMM:   3    -0.231223134187E+04    0.25670E-05   -0.26255E-04  3328   0.125E-02    0.236E-02
RMM:   4    -0.231223133620E+04    0.56720E-05   -0.58887E-05  2906   0.543E-03
 108 F= -.23323114E+04 E0= -.23323114E+04  d E =-.228391E-03  mag=     2.0000
       N       E                     dE             d eps       ncg     rms          rms(c)
DAV:   1    -0.231223131008E+04    0.31794E-04   -0.81428E-03  4824   0.916E-02    0.306E-02
RMM:   2    -0.231223136379E+04   -0.53715E-04   -0.58861E-04  5660   0.173E-02    0.150E-02
RMM:   3    -0.231223136452E+04   -0.72966E-06   -0.46480E-05  2833   0.660E-03
 109 F= -.23323114E+04 E0= -.23323114E+04  d E =-.230847E-03  mag=     2.0000
       N       E                     dE             d eps       ncg     rms          rms(c)
DAV:   1    -0.231223137820E+04   -0.14404E-04   -0.42604E-02  4400   0.210E-01    0.685E-02
RMM:   2    -0.231223161607E+04   -0.23787E-03   -0.26688E-03  5925   0.375E-02    0.320E-02
RMM:   3    -0.231223160936E+04    0.67071E-05   -0.14488E-04  3161   0.988E-03    0.196E-02
RMM:   4    -0.231223160575E+04    0.36132E-05   -0.35071E-05  2836   0.449E-03
 110 F= -.23323117E+04 E0= -.23323117E+04  d E =-.222998E-03  mag=     2.0000
       N       E                     dE             d eps       ncg     rms          rms(c)
DAV:   1    -0.231223139448E+04    0.21488E-03   -0.51755E-02  4432   0.231E-01    0.745E-02
RMM:   2    -0.231223168032E+04   -0.28584E-03   -0.31739E-03  5811   0.399E-02    0.336E-02
RMM:   3    -0.231223167596E+04    0.43634E-05   -0.19496E-04  3559   0.149E-02    0.208E-02
RMM:   4    -0.231223167146E+04    0.44994E-05   -0.42851E-05  2866   0.492E-03
 111 F= -.23323117E+04 E0= -.23323117E+04  d E =-.268390E-03  mag=     2.0000
       N       E                     dE             d eps       ncg     rms          rms(c)
DAV:   1    -0.231223168758E+04   -0.11623E-04   -0.46124E-02  4416   0.217E-01    0.674E-02
RMM:   2    -0.231223190660E+04   -0.21901E-03   -0.24397E-03  6027   0.381E-02    0.312E-02
RMM:   3    -0.231223190300E+04    0.35962E-05   -0.16178E-04  3349   0.121E-02    0.195E-02
RMM:   4    -0.231223189901E+04    0.39901E-05   -0.32678E-05  2831   0.463E-03
 112 F= -.23323119E+04 E0= -.23323119E+04  d E =-.237446E-03  mag=     2.0000
       N       E                     dE             d eps       ncg     rms          rms(c)
DAV:   1    -0.231223177506E+04    0.12794E-03   -0.34690E-02  4416   0.188E-01    0.583E-02
RMM:   2    -0.231223194116E+04   -0.16610E-03   -0.18497E-03  5994   0.330E-02    0.273E-02
RMM:   3    -0.231223193839E+04    0.27755E-05   -0.12655E-04  3202   0.112E-02    0.171E-02
RMM:   4    -0.231223193509E+04    0.32922E-05   -0.25843E-05  2828   0.423E-03
 113 F= -.23323120E+04 E0= -.23323120E+04  d E =-.282143E-03  mag=     2.0000
       N       E                     dE             d eps       ncg     rms          rms(c)
DAV:   1    -0.231223200234E+04   -0.63948E-04   -0.51382E-02  4388   0.230E-01    0.775E-02
RMM:   2    -0.231223222131E+04   -0.21898E-03   -0.25347E-03  5979   0.402E-02    0.328E-02
RMM:   3    -0.231223221330E+04    0.80147E-05   -0.17241E-04  3484   0.132E-02    0.202E-02
RMM:   4    -0.231223220844E+04    0.48626E-05   -0.37455E-05  2900   0.512E-03
 114 F= -.23323122E+04 E0= -.23323122E+04  d E =-.262080E-03  mag=     2.0000
       N       E                     dE             d eps       ncg     rms          rms(c)
DAV:   1    -0.231223216334E+04    0.49956E-04   -0.18821E-02  4672   0.139E-01    0.471E-02
RMM:   2    -0.231223224565E+04   -0.82307E-04   -0.93982E-04  5890   0.248E-02    0.204E-02
RMM:   3    -0.231223224292E+04    0.27269E-05   -0.65401E-05  2940   0.879E-03
 115 F= -.23323123E+04 E0= -.23323123E+04  d E =-.289638E-03  mag=     2.0000
       N       E                     dE             d eps       ncg     rms          rms(c)
DAV:   1    -0.231223229550E+04   -0.49853E-04   -0.52455E-02  4388   0.234E-01    0.783E-02
RMM:   2    -0.231223253663E+04   -0.24113E-03   -0.27623E-03  5883   0.416E-02    0.348E-02
RMM:   3    -0.231223252682E+04    0.98144E-05   -0.17101E-04  3392   0.118E-02    0.213E-02
RMM:   4    -0.231223252108E+04    0.57380E-05   -0.42206E-05  2937   0.522E-03
 116 F= -.23323125E+04 E0= -.23323125E+04  d E =-.243008E-03  mag=     2.0000
       N       E                     dE             d eps       ncg     rms          rms(c)
DAV:   1    -0.231223250011E+04    0.26711E-04   -0.11242E-02  4848   0.109E-01    0.362E-02
RMM:   2    -0.231223255238E+04   -0.52270E-04   -0.58900E-04  5736   0.197E-02    0.161E-02
RMM:   3    -0.231223255080E+04    0.15749E-05   -0.41422E-05  2843   0.739E-03
 117 F= -.23323125E+04 E0= -.23323125E+04  d E =-.256271E-03  mag=     2.0000
       N       E                     dE             d eps       ncg     rms          rms(c)
DAV:   1    -0.231223254146E+04    0.10918E-04   -0.56349E-02  4388   0.241E-01    0.810E-02
RMM:   2    -0.231223282336E+04   -0.28190E-03   -0.32362E-03  5899   0.433E-02    0.368E-02
RMM:   3    -0.231223281444E+04    0.89158E-05   -0.21087E-04  3370   0.124E-02    0.227E-02
RMM:   4    -0.231223280835E+04    0.60949E-05   -0.51472E-05  3054   0.551E-03
 118 F= -.23323128E+04 E0= -.23323128E+04  d E =-.222874E-03  mag=     2.0000
       N       E                     dE             d eps       ncg     rms          rms(c)
DAV:   1    -0.231223279760E+04    0.16843E-04   -0.46482E-03  5224   0.695E-02    0.239E-02
RMM:   2    -0.231223282153E+04   -0.23934E-04   -0.26785E-04  5209   0.132E-02    0.111E-02
RMM:   3    -0.231223282125E+04    0.28282E-06   -0.20405E-05  2810   0.532E-03
 119 F= -.23323128E+04 E0= -.23323128E+04  d E =-.225618E-03  mag=     2.0000
       N       E                     dE             d eps       ncg     rms          rms(c)
DAV:   1    -0.231223278072E+04    0.40809E-04   -0.58459E-02  4400   0.243E-01    0.802E-02
RMM:   2    -0.231223309453E+04   -0.31381E-03   -0.35287E-03  5909   0.441E-02    0.375E-02
RMM:   3    -0.231223308879E+04    0.57412E-05   -0.22561E-04  3338   0.120E-02    0.234E-02
RMM:   4    -0.231223308261E+04    0.61748E-05   -0.51662E-05  2921   0.537E-03
 120 F= -.23323130E+04 E0= -.23323130E+04  d E =-.244403E-03  mag=     2.0000
       N       E                     dE             d eps       ncg     rms          rms(c)
DAV:   1    -0.231223303151E+04    0.57274E-04   -0.12407E-02  4712   0.112E-01    0.375E-02
RMM:   2    -0.231223309967E+04   -0.68156E-04   -0.75600E-04  5783   0.207E-02    0.177E-02
RMM:   3    -0.231223309941E+04    0.26058E-06   -0.57748E-05  2847   0.771E-03
 121 F= -.23323130E+04 E0= -.23323130E+04  d E =-.253247E-03  mag=     2.0000
       N       E                     dE             d eps       ncg     rms          rms(c)
DAV:   1    -0.231223309989E+04   -0.22291E-06   -0.45601E-02  4400   0.213E-01    0.711E-02
RMM:   2    -0.231223335081E+04   -0.25092E-03   -0.28357E-03  5927   0.391E-02    0.342E-02
RMM:   3    -0.231223334530E+04    0.55110E-05   -0.17347E-04  3214   0.108E-02    0.212E-02
RMM:   4    -0.231223334059E+04    0.47088E-05   -0.38856E-05  2851   0.482E-03
 122 F= -.23323133E+04 E0= -.23323133E+04  d E =-.237865E-03  mag=     2.0000
       N       E                     dE             d eps       ncg     rms          rms(c)
DAV:   1    -0.231223322616E+04    0.11914E-03   -0.27830E-02  4480   0.166E-01    0.549E-02
RMM:   2    -0.231223337805E+04   -0.15189E-03   -0.16974E-03  5897   0.298E-02    0.258E-02
RMM:   3    -0.231223337681E+04    0.12356E-05   -0.11686E-04  3093   0.108E-02    0.163E-02
RMM:   4    -0.231223337438E+04    0.24263E-05   -0.26378E-05  2825   0.402E-03
 123 F= -.23323133E+04 E0= -.23323133E+04  d E =-.268976E-03  mag=     2.0000
       N       E                     dE             d eps       ncg     rms          rms(c)
DAV:   1    -0.231223329019E+04    0.86625E-04   -0.52538E-02  4388   0.226E-01    0.753E-02
RMM:   2    -0.231223362083E+04   -0.33064E-03   -0.36576E-03  6079   0.425E-02    0.357E-02
RMM:   3    -0.231223362261E+04   -0.17853E-05   -0.25875E-04  3300   0.125E-02    0.228E-02
RMM:   4    -0.231223361792E+04    0.46935E-05   -0.54163E-05  2848   0.501E-03
 124 F= -.23323135E+04 E0= -.23323135E+04  d E =-.243235E-03  mag=     2.0000
       N       E                     dE             d eps       ncg     rms          rms(c)
DAV:   1    -0.231223350827E+04    0.11434E-03   -0.20563E-02  4560   0.142E-01    0.477E-02
RMM:   2    -0.231223363963E+04   -0.13136E-03   -0.14501E-03  6031   0.268E-02    0.232E-02
RMM:   3    -0.231223364092E+04   -0.12841E-05   -0.11192E-04  2916   0.882E-03    0.153E-02
RMM:   4    -0.231223363890E+04    0.20191E-05   -0.25139E-05  2823   0.350E-03
 125 F= -.23323135E+04 E0= -.23323135E+04  d E =-.263994E-03  mag=     2.0000
       N       E                     dE             d eps       ncg     rms          rms(c)
DAV:   1    -0.231223349554E+04    0.14538E-03   -0.61929E-02  4388   0.247E-01    0.845E-02
RMM:   2    -0.231223390390E+04   -0.40837E-03   -0.45129E-03  6088   0.468E-02    0.393E-02
RMM:   3    -0.231223390701E+04   -0.31037E-05   -0.33733E-04  3441   0.139E-02    0.252E-02
RMM:   4    -0.231223390164E+04    0.53665E-05   -0.67522E-05  2897   0.550E-03
 126 F= -.23323138E+04 E0= -.23323138E+04  d E =-.240228E-03  mag=     2.0000
       N       E                     dE             d eps       ncg     rms          rms(c)
DAV:   1    -0.231223384891E+04    0.58097E-04   -0.96851E-03  4904   0.979E-02    0.346E-02
RMM:   2    -0.231223391519E+04   -0.66277E-04   -0.72591E-04  5806   0.191E-02    0.168E-02
RMM:   3    -0.231223391699E+04   -0.18003E-05   -0.66712E-05  2826   0.687E-03
 127 F= -.23323138E+04 E0= -.23323138E+04  d E =-.246518E-03  mag=     2.0000
       N       E                     dE             d eps       ncg     rms          rms(c)
DAV:   1    -0.231223385751E+04    0.57681E-04   -0.60163E-02  4388   0.243E-01    0.851E-02
RMM:   2    -0.231223422081E+04   -0.36330E-03   -0.40891E-03  5963   0.448E-02    0.412E-02
RMM:   3    -0.231223421217E+04    0.86423E-05   -0.24083E-04  3356   0.122E-02    0.252E-02
RMM:   4    -0.231223420429E+04    0.78758E-05   -0.56026E-05  2944   0.551E-03
 128 F= -.23323140E+04 E0= -.23323140E+04  d E =-.245574E-03  mag=     2.0000
       N       E                     dE             d eps       ncg     rms          rms(c)
DAV:   1    -0.231223416610E+04    0.46069E-04   -0.10078E-02  4824   0.997E-02    0.346E-02
RMM:   2    -0.231223422745E+04   -0.61356E-04   -0.68198E-04  5750   0.187E-02    0.164E-02
RMM:   3    -0.231223422761E+04   -0.16064E-06   -0.51894E-05  2843   0.720E-03
 129 F= -.23323140E+04 E0= -.23323140E+04  d E =-.251544E-03  mag=     2.0000
       N       E                     dE             d eps       ncg     rms          rms(c)
DAV:   1    -0.231223414291E+04    0.84539E-04   -0.66640E-02  4388   0.255E-01    0.912E-02
RMM:   2    -0.231223448790E+04   -0.34499E-03   -0.39730E-03  5916   0.469E-02    0.418E-02
RMM:   3    -0.231223448017E+04    0.77274E-05   -0.26796E-04  3481   0.131E-02    0.260E-02
RMM:   4    -0.231223447306E+04    0.71110E-05   -0.62836E-05  3109   0.593E-03
 130 F= -.23323143E+04 E0= -.23323143E+04  d E =-.236887E-03  mag=     2.0000
       N       E                     dE             d eps       ncg     rms          rms(c)
DAV:   1    -0.231223445837E+04    0.21805E-04   -0.29213E-03  5328   0.539E-02    0.200E-02
RMM:   2    -0.231223447411E+04   -0.15736E-04   -0.17763E-04  4597   0.105E-02    0.961E-03
RMM:   3    -0.231223447430E+04   -0.19321E-06   -0.15416E-05  2770   0.495E-03
 131 F= -.23323143E+04 E0= -.23323143E+04  d E =-.236273E-03  mag=     2.0000
       N       E                     dE             d eps       ncg     rms          rms(c)
DAV:   1    -0.231223438767E+04    0.86431E-04   -0.64682E-02  4388   0.250E-01    0.890E-02
RMM:   2    -0.231223469127E+04   -0.30360E-03   -0.35527E-03  5869   0.453E-02    0.406E-02
RMM:   3    -0.231223468174E+04    0.95331E-05   -0.24727E-04  3500   0.134E-02    0.253E-02
RMM:   4    -0.231223467428E+04    0.74572E-05   -0.57660E-05  3116   0.585E-03
 132 F= -.23323145E+04 E0= -.23323145E+04  d E =-.218815E-03  mag=     2.0000
       N       E                     dE             d eps       ncg     rms          rms(c)
DAV:   1    -0.231223466209E+04    0.19655E-04   -0.13420E-03  5320   0.367E-02    0.140E-02
RMM:   2    -0.231223466857E+04   -0.64871E-05   -0.76544E-05  3448   0.727E-03
 133 F= -.23323145E+04 E0= -.23323145E+04  d E =-.215917E-03  mag=     2.0000
       N       E                     dE             d eps       ncg     rms          rms(c)
DAV:   1    -0.231223460734E+04    0.54742E-04   -0.65717E-02  4388   0.252E-01    0.910E-02
RMM:   2    -0.231223490822E+04   -0.30088E-03   -0.34973E-03  6043   0.474E-02    0.417E-02
RMM:   3    -0.231223489957E+04    0.86555E-05   -0.27123E-04  3764   0.155E-02    0.258E-02
RMM:   4    -0.231223489233E+04    0.72393E-05   -0.55629E-05  2994   0.571E-03
 134 F= -.23323147E+04 E0= -.23323147E+04  d E =-.230439E-03  mag=     2.0000
       N       E                     dE             d eps       ncg     rms          rms(c)
DAV:   1    -0.231223488306E+04    0.16511E-04   -0.14468E-03  5360   0.379E-02    0.148E-02
RMM:   2    -0.231223488975E+04   -0.66942E-05   -0.78842E-05  3478   0.753E-03
 135 F= -.23323147E+04 E0= -.23323147E+04  d E =-.228886E-03  mag=     2.0000
       N       E                     dE             d eps       ncg     rms          rms(c)
DAV:   1    -0.231223484910E+04    0.33961E-04   -0.55751E-02  4388   0.232E-01    0.857E-02
RMM:   2    -0.231223511205E+04   -0.26296E-03   -0.30595E-03  6037   0.437E-02    0.387E-02
RMM:   3    -0.231223510417E+04    0.78819E-05   -0.23863E-04  3613   0.146E-02    0.238E-02
RMM:   4    -0.231223509750E+04    0.66664E-05   -0.49739E-05  2936   0.541E-03
 136 F= -.23323149E+04 E0= -.23323149E+04  d E =-.200657E-03  mag=     2.0000
       N       E                     dE             d eps       ncg     rms          rms(c)
DAV:   1    -0.231223509076E+04    0.13411E-04   -0.13016E-03  5296   0.360E-02    0.142E-02
RMM:   2    -0.231223509688E+04   -0.61178E-05   -0.73067E-05  3402   0.727E-03
 137 F= -.23323149E+04 E0= -.23323149E+04  d E =-.198905E-03  mag=     2.0000
       N       E                     dE             d eps       ncg     rms          rms(c)
DAV:   1    -0.231223507019E+04    0.20565E-04   -0.46574E-02  4400   0.208E-01    0.761E-02
RMM:   2    -0.231223532115E+04   -0.25096E-03   -0.28529E-03  6115   0.401E-02    0.363E-02
RMM:   3    -0.231223531951E+04    0.16480E-05   -0.22296E-04  3347   0.124E-02    0.229E-02
RMM:   4    -0.231223531528E+04    0.42254E-05   -0.45999E-05  2851   0.485E-03
 138 F= -.23323151E+04 E0= -.23323151E+04  d E =-.211452E-03  mag=     2.0000
       N       E                     dE             d eps       ncg     rms          rms(c)
DAV:   1    -0.231223527997E+04    0.39535E-04   -0.86405E-03  4848   0.898E-02    0.332E-02
RMM:   2    -0.231223532701E+04   -0.47036E-04   -0.53084E-04  5594   0.175E-02    0.161E-02
RMM:   3    -0.231223532744E+04   -0.43157E-06   -0.44563E-05  2830   0.647E-03
 139 F= -.23323151E+04 E0= -.23323151E+04  d E =-.220599E-03  mag=     2.0000
       N       E                     dE             d eps       ncg     rms          rms(c)
DAV:   1    -0.231223535156E+04   -0.24550E-04   -0.36887E-02  4400   0.185E-01    0.681E-02
RMM:   2    -0.231223554522E+04   -0.19367E-03   -0.22376E-03  5955   0.337E-02    0.325E-02
RMM:   3    -0.231223553992E+04    0.52992E-05   -0.13932E-04  3031   0.942E-03    0.200E-02
RMM:   4    -0.231223553594E+04    0.39871E-05   -0.32517E-05  2835   0.437E-03
 140 F= -.23323154E+04 E0= -.23323154E+04  d E =-.210929E-03  mag=     2.0000
       N       E                     dE             d eps       ncg     rms          rms(c)
DAV:   1    -0.231223541986E+04    0.12006E-03   -0.30242E-02  4400   0.167E-01    0.604E-02
RMM:   2    -0.231223557799E+04   -0.15813E-03   -0.17989E-03  5908   0.298E-02    0.279E-02
RMM:   3    -0.231223557712E+04    0.86665E-06   -0.13096E-04  3178   0.115E-02    0.175E-02
RMM:   4    -0.231223557445E+04    0.26683E-05   -0.29289E-05  2829   0.403E-03
 141 F= -.23323154E+04 E0= -.23323154E+04  d E =-.251618E-03  mag=     2.0000
       N       E                     dE             d eps       ncg     rms          rms(c)
DAV:   1    -0.231223560378E+04   -0.26655E-04   -0.36532E-02  4388   0.181E-01    0.656E-02
RMM:   2    -0.231223581811E+04   -0.21433E-03   -0.23908E-03  6086   0.339E-02    0.314E-02
RMM:   3    -0.231223582022E+04   -0.21136E-05   -0.18849E-04  3081   0.105E-02    0.201E-02
RMM:   4    -0.231223581748E+04    0.27386E-05   -0.38263E-05  2831   0.424E-03
 142 F= -.23323156E+04 E0= -.23323156E+04  d E =-.230559E-03  mag=     2.0000
       N       E                     dE             d eps       ncg     rms          rms(c)
DAV:   1    -0.231223560959E+04    0.21063E-03   -0.51526E-02  4388   0.215E-01    0.781E-02
RMM:   2    -0.231223591350E+04   -0.30391E-03   -0.33941E-03  6093   0.401E-02    0.377E-02
RMM:   3    -0.231223591673E+04   -0.32307E-05   -0.27044E-04  3347   0.128E-02    0.242E-02
RMM:   4    -0.231223591222E+04    0.45143E-05   -0.54343E-05  2847   0.500E-03
 143 F= -.23323157E+04 E0= -.23323157E+04  d E =-.310420E-03  mag=     2.0000
       N       E                     dE             d eps       ncg     rms          rms(c)
DAV:   1    -0.231223585194E+04    0.64797E-04   -0.53698E-02  4388   0.216E-01    0.828E-02
RMM:   2    -0.231223620843E+04   -0.35649E-03   -0.39796E-03  6129   0.417E-02    0.398E-02
RMM:   3    -0.231223621506E+04   -0.66301E-05   -0.32721E-04  3377   0.134E-02    0.257E-02
RMM:   4    -0.231223621088E+04    0.41846E-05   -0.67203E-05  2851   0.526E-03
 144 F= -.23323160E+04 E0= -.23323160E+04  d E =-.273905E-03  mag=     2.0000
       N       E                     dE             d eps       ncg     rms          rms(c)
DAV:   1    -0.231223611381E+04    0.10125E-03   -0.21227E-02  4512   0.136E-01    0.527E-02
RMM:   2    -0.231223625584E+04   -0.14203E-03   -0.15824E-03  6071   0.267E-02    0.258E-02
RMM:   3    -0.231223625842E+04   -0.25881E-05   -0.13103E-04  2909   0.894E-03    0.169E-02
RMM:   4    -0.231223625661E+04    0.18106E-05   -0.29102E-05  2822   0.351E-03
 145 F= -.23323160E+04 E0= -.23323160E+04  d E =-.303975E-03  mag=     2.0000
       N       E                     dE             d eps       ncg     rms          rms(c)
DAV:   1    -0.231223612945E+04    0.12898E-03   -0.59397E-02  4404   0.222E-01    0.845E-02
RMM:   2    -0.231223654493E+04   -0.41548E-03   -0.46137E-03  6148   0.439E-02    0.416E-02
RMM:   3    -0.231223655509E+04   -0.10158E-04   -0.37200E-04  3293   0.127E-02    0.273E-02
RMM:   4    -0.231223655150E+04    0.35836E-05   -0.73986E-05  2856   0.516E-03
 146 F= -.23323163E+04 E0= -.23323163E+04  d E =-.274502E-03  mag=     2.0000
       N       E                     dE             d eps       ncg     rms          rms(c)
DAV:   1    -0.231223638533E+04    0.16976E-03   -0.29653E-02  4448   0.157E-01    0.608E-02
RMM:   2    -0.231223659546E+04   -0.21014E-03   -0.23218E-03  6145   0.312E-02    0.305E-02
RMM:   3    -0.231223660181E+04   -0.63488E-05   -0.19561E-04  3000   0.973E-03    0.203E-02
RMM:   4    -0.231223660013E+04    0.16800E-05   -0.41081E-05  2825   0.385E-03
 147 F= -.23323163E+04 E0= -.23323163E+04  d E =-.308647E-03  mag=     2.0000
       N       E                     dE             d eps       ncg     rms          rms(c)
DAV:   1    -0.231223650764E+04    0.94174E-04   -0.65536E-02  4404   0.235E-01    0.896E-02
RMM:   2    -0.231223692889E+04   -0.42125E-03   -0.47222E-03  6142   0.460E-02    0.434E-02
RMM:   3    -0.231223693693E+04   -0.80463E-05   -0.38614E-04  3434   0.136E-02    0.282E-02
RMM:   4    -0.231223693237E+04    0.45612E-05   -0.76840E-05  2891   0.550E-03
 148 F= -.23323166E+04 E0= -.23323166E+04  d E =-.317635E-03  mag=     2.0000
       N       E                     dE             d eps       ncg     rms          rms(c)
DAV:   1    -0.231223675786E+04    0.17907E-03   -0.34129E-02  4496   0.170E-01    0.655E-02
RMM:   2    -0.231223698030E+04   -0.22244E-03   -0.24797E-03  6134   0.335E-02    0.322E-02
RMM:   3    -0.231223698563E+04   -0.53270E-05   -0.20898E-04  3108   0.105E-02    0.213E-02
RMM:   4    -0.231223698330E+04    0.23224E-05   -0.43629E-05  2828   0.415E-03
 149 F= -.23323167E+04 E0= -.23323167E+04  d E =-.357958E-03  mag=     2.0000
       N       E                     dE             d eps       ncg     rms          rms(c)
DAV:   1    -0.231223690190E+04    0.83728E-04   -0.74096E-02  4420   0.248E-01    0.943E-02
RMM:   2    -0.231223734649E+04   -0.44459E-03   -0.49769E-03  6149   0.478E-02    0.459E-02
RMM:   3    -0.231223735439E+04   -0.78936E-05   -0.40522E-04  3524   0.143E-02    0.296E-02
RMM:   4    -0.231223734922E+04    0.51696E-05   -0.79120E-05  2905   0.571E-03
 150 F= -.23323170E+04 E0= -.23323170E+04  d E =-.344921E-03  mag=     2.0000
