       N       E                     dE             d eps       ncg     rms          rms(c)
DAV:   1     0.131159638273E+05    0.13116E+05   -0.84358E+05  4528   0.144E+03
DAV:   2    -0.100638435307E+04   -0.14122E+05   -0.13485E+05  4968   0.331E+02
DAV:   3    -0.248102143236E+04   -0.14746E+04   -0.14558E+04  5496   0.115E+02
DAV:   4    -0.252938754801E+04   -0.48366E+02   -0.48111E+02  6776   0.307E+01
DAV:   5    -0.253020827422E+04   -0.82073E+00   -0.81915E+00  6280   0.352E+00    0.170E+02
RMM:   6    -0.149784710397E+04    0.10324E+04   -0.19539E+03  4472   0.383E+01    0.727E+01
RMM:   7    -0.167251871535E+04   -0.17467E+03   -0.29686E+02  5155   0.144E+01    0.550E+01
RMM:   8    -0.171649900242E+04   -0.43980E+02   -0.81282E+01  5188   0.820E+00    0.464E+01
RMM:   9    -0.177182680241E+04   -0.55328E+02   -0.56474E+01  4999   0.699E+00    0.388E+01
RMM:  10    -0.186779025679E+04   -0.95963E+02   -0.59315E+01  5153   0.749E+00    0.339E+01
RMM:  11    -0.196475120828E+04   -0.96961E+02   -0.44788E+01  5228   0.608E+00    0.281E+01
RMM:  12    -0.202303007095E+04   -0.58279E+02   -0.21786E+01  5083   0.401E+00    0.227E+01
RMM:  13    -0.208926435641E+04   -0.66234E+02   -0.26994E+01  4989   0.403E+00    0.179E+01
RMM:  14    -0.216426869939E+04   -0.75004E+02   -0.38209E+01  4693   0.466E+00    0.122E+01
RMM:  15    -0.227382123899E+04   -0.10955E+03   -0.10166E+02  4490   0.703E+00    0.839E+00
RMM:  16    -0.230834698063E+04   -0.34526E+02   -0.36894E+01  4511   0.471E+00    0.485E+00
RMM:  17    -0.231686723734E+04   -0.85203E+01   -0.11065E+01  4860   0.233E+00    0.384E+00
RMM:  18    -0.231824298251E+04   -0.13757E+01   -0.14802E+00  5281   0.951E-01    0.305E+00
RMM:  19    -0.231981366433E+04   -0.15707E+01   -0.59759E-01  4511   0.569E-01    0.243E+00
RMM:  20    -0.232066303806E+04   -0.84937E+00   -0.26294E-01  4615   0.426E-01    0.178E+00
RMM:  21    -0.232180772451E+04   -0.11447E+01   -0.32525E-01  4476   0.385E-01    0.885E-01
RMM:  22    -0.232206928479E+04   -0.26156E+00   -0.11140E-01  4631   0.305E-01    0.422E-01
RMM:  23    -0.232211185003E+04   -0.42565E-01   -0.33257E-02  4944   0.136E-01    0.251E-01
RMM:  24    -0.232213116783E+04   -0.19318E-01   -0.10035E-02  4515   0.834E-02    0.207E-01
RMM:  25    -0.232213911986E+04   -0.79520E-02   -0.30038E-03  4787   0.519E-02    0.114E-01
RMM:  26    -0.232214755229E+04   -0.84324E-02   -0.22153E-03  4468   0.360E-02    0.671E-02
RMM:  27    -0.232215432470E+04   -0.67724E-02   -0.16533E-03  4486   0.334E-02    0.423E-02
RMM:  28    -0.232215932253E+04   -0.49978E-02   -0.15235E-03  4507   0.299E-02    0.409E-02
RMM:  29    -0.232216143250E+04   -0.21100E-02   -0.83461E-04  4384   0.249E-02    0.167E-02
RMM:  30    -0.232216224196E+04   -0.80946E-03   -0.27903E-04  4103   0.133E-02    0.133E-02
RMM:  31    -0.232216256336E+04   -0.32139E-03   -0.86405E-05  3709   0.902E-03    0.910E-03
RMM:  32    -0.232216271229E+04   -0.14893E-03   -0.33933E-05  3309   0.553E-03    0.777E-03
RMM:  33    -0.232216279183E+04   -0.79543E-04   -0.15453E-05  2966   0.430E-03    0.461E-03
RMM:  34    -0.232216283612E+04   -0.44292E-04   -0.11854E-05  2894   0.365E-03    0.230E-03
RMM:  35    -0.232216286082E+04   -0.24699E-04   -0.77559E-06  2848   0.307E-03    0.209E-03
RMM:  36    -0.232216286661E+04   -0.57888E-05   -0.35806E-06  2444   0.229E-03
   1 F= -.23435347E+04 E0= -.23435347E+04  d E =-.234353E+04  mag=     4.0001
       N       E                     dE             d eps       ncg     rms          rms(c)
DAV:   1    -0.232206523922E+04    0.97622E-01   -0.85688E+01  4784   0.414E+00    0.275E+00
RMM:   2    -0.232231587393E+04   -0.25063E+00   -0.50691E+00  6292   0.958E-01    0.236E+00
RMM:   3    -0.232232776918E+04   -0.11895E-01   -0.45833E-01  6130   0.315E-01    0.312E+00
RMM:   4    -0.232221824781E+04    0.10952E+00   -0.14029E-01  5986   0.144E-01    0.116E+00
RMM:   5    -0.232223543356E+04   -0.17186E-01   -0.10321E-01  6160   0.119E-01    0.186E+00
RMM:   6    -0.232219462418E+04    0.40809E-01   -0.39112E-02  6181   0.834E-02    0.335E-01
RMM:   7    -0.232219463468E+04   -0.10505E-04   -0.56704E-03  5404   0.309E-02    0.334E-01
RMM:   8    -0.232219335862E+04    0.12761E-02   -0.22239E-03  4912   0.197E-02    0.135E-01
RMM:   9    -0.232219339878E+04   -0.40157E-04   -0.52239E-04  4117   0.124E-02    0.634E-02
RMM:  10    -0.232219353622E+04   -0.13744E-03   -0.24964E-04  4171   0.108E-02    0.267E-02
RMM:  11    -0.232219365311E+04   -0.11689E-03   -0.78782E-05  3797   0.697E-03    0.160E-02
RMM:  12    -0.232219372523E+04   -0.72122E-04   -0.36507E-05  3138   0.531E-03    0.110E-02
RMM:  13    -0.232219377287E+04   -0.47637E-04   -0.31174E-05  3156   0.502E-03    0.608E-03
RMM:  14    -0.232219378751E+04   -0.14635E-04   -0.15698E-05  2913   0.445E-03    0.482E-03
RMM:  15    -0.232219379430E+04   -0.67960E-05   -0.72855E-06  2856   0.324E-03
   2 F= -.23435717E+04 E0= -.23435717E+04  d E =-.370369E-01  mag=     4.0000
       N       E                     dE             d eps       ncg     rms          rms(c)
DAV:   1    -0.232249204550E+04   -0.29826E+00   -0.23158E+01  4656   0.220E+00    0.138E+00
RMM:   2    -0.232255708793E+04   -0.65042E-01   -0.12887E+00  6116   0.559E-01    0.110E+00
RMM:   3    -0.232256098035E+04   -0.38924E-02   -0.10791E-01  6003   0.163E-01    0.158E+00
RMM:   4    -0.232253568489E+04    0.25295E-01   -0.36885E-02  5938   0.761E-02    0.604E-01
RMM:   5    -0.232254170545E+04   -0.60206E-02   -0.22288E-02  5968   0.572E-02    0.924E-01
RMM:   6    -0.232253086059E+04    0.10845E-01   -0.84380E-03  5778   0.376E-02    0.136E-01
RMM:   7    -0.232253060340E+04    0.25720E-03   -0.10354E-03  4489   0.130E-02    0.927E-02
RMM:   8    -0.232253058958E+04    0.13816E-04   -0.41459E-04  3504   0.102E-02    0.913E-02
RMM:   9    -0.232253046796E+04    0.12162E-03   -0.12564E-04  3117   0.732E-03    0.305E-02
RMM:  10    -0.232253043163E+04    0.36328E-04   -0.92232E-05  3343   0.581E-03    0.136E-02
RMM:  11    -0.232253042119E+04    0.10442E-04   -0.17102E-05  2905   0.496E-03    0.831E-03
RMM:  12    -0.232253041775E+04    0.34415E-05   -0.13782E-05  2931   0.370E-03
   3 F= -.23439051E+04 E0= -.23439051E+04  d E =-.370426E+00  mag=     4.0000
       N       E                     dE             d eps       ncg     rms          rms(c)
DAV:   1    -0.232277026134E+04   -0.23984E+00   -0.24550E+01  4592   0.275E+00    0.146E+00
RMM:   2    -0.232293505574E+04   -0.16479E+00   -0.20561E+00  6504   0.673E-01    0.113E+00
RMM:   3    -0.232295143252E+04   -0.16377E-01   -0.21663E-01  6182   0.242E-01    0.156E+00
RMM:   4    -0.232293024314E+04    0.21189E-01   -0.28781E-02  5834   0.688E-02    0.591E-01
RMM:   5    -0.232293097255E+04   -0.72941E-03   -0.16539E-02  5889   0.499E-02    0.627E-01
RMM:   6    -0.232292572025E+04    0.52523E-02   -0.91195E-03  5762   0.394E-02    0.172E-01
RMM:   7    -0.232292554418E+04    0.17607E-03   -0.94333E-04  3871   0.147E-02    0.127E-01
RMM:   8    -0.232292545494E+04    0.89241E-04   -0.47352E-04  3250   0.937E-03    0.976E-02
RMM:   9    -0.232292535847E+04    0.96468E-04   -0.12333E-04  3014   0.672E-03    0.264E-02
RMM:  10    -0.232292535872E+04   -0.24901E-06   -0.41490E-05  2991   0.478E-03
   4 F= -.23443034E+04 E0= -.23443034E+04  d E =-.398223E+00  mag=     4.0000
       N       E                     dE             d eps       ncg     rms          rms(c)
DAV:   1    -0.232293483488E+04   -0.94764E-02   -0.25474E+00  4696   0.889E-01    0.446E-01
RMM:   2    -0.232295150944E+04   -0.16675E-01   -0.20353E-01  6514   0.210E-01    0.341E-01
RMM:   3    -0.232295368339E+04   -0.21739E-02   -0.22324E-02  5697   0.770E-02    0.509E-01
RMM:   4    -0.232295144565E+04    0.22377E-02   -0.27474E-03  4203   0.218E-02    0.166E-01
RMM:   5    -0.232295153363E+04   -0.87981E-04   -0.17378E-03  4636   0.173E-02    0.183E-01
RMM:   6    -0.232295109796E+04    0.43567E-03   -0.79916E-04  3969   0.127E-02    0.587E-02
RMM:   7    -0.232295105817E+04    0.39791E-04   -0.70914E-05  2971   0.559E-03    0.247E-02
RMM:   8    -0.232295106537E+04   -0.72003E-05   -0.32012E-05  2924   0.354E-03
   5 F= -.23443302E+04 E0= -.23443302E+04  d E =-.425065E+00  mag=     4.0000
       N       E                     dE             d eps       ncg     rms          rms(c)
DAV:   1    -0.232321157404E+04   -0.26052E+00   -0.10996E+01  4528   0.187E+00    0.946E-01
RMM:   2    -0.232324602771E+04   -0.34454E-01   -0.45867E-01  5766   0.377E-01    0.838E-01
RMM:   3    -0.232324642467E+04   -0.39697E-03   -0.47506E-02  6021   0.132E-01    0.788E-01
RMM:   4    -0.232324032193E+04    0.61027E-02   -0.95057E-03  5848   0.466E-02    0.475E-01
RMM:   5    -0.232324286548E+04   -0.25435E-02   -0.83413E-03  5882   0.378E-02    0.655E-01
RMM:   6    -0.232323857129E+04    0.42942E-02   -0.43674E-03  5431   0.295E-02    0.143E-01
RMM:   7    -0.232323854731E+04    0.23982E-04   -0.98884E-04  4000   0.149E-02    0.144E-01
RMM:   8    -0.232323825883E+04    0.28848E-03   -0.25985E-04  3111   0.848E-03    0.303E-02
RMM:   9    -0.232323824785E+04    0.10981E-04   -0.82685E-05  3160   0.521E-03    0.129E-02
RMM:  10    -0.232323824802E+04   -0.17328E-06   -0.11224E-05  2922   0.387E-03
   6 F= -.23446164E+04 E0= -.23446163E+04  d E =-.286160E+00  mag=     4.0000
       N       E                     dE             d eps       ncg     rms          rms(c)
DAV:   1    -0.232328492158E+04   -0.46674E-01   -0.52346E+00  4672   0.133E+00    0.666E-01
RMM:   2    -0.232329972019E+04   -0.14799E-01   -0.21083E-01  5800   0.248E-01    0.568E-01
RMM:   3    -0.232330004723E+04   -0.32704E-03   -0.22117E-02  5946   0.905E-02    0.548E-01
RMM:   4    -0.232329712562E+04    0.29216E-02   -0.47287E-03  5693   0.328E-02    0.331E-01
RMM:   5    -0.232329834635E+04   -0.12207E-02   -0.40218E-03  5503   0.262E-02    0.455E-01
RMM:   6    -0.232329622049E+04    0.21259E-02   -0.19956E-03  4849   0.203E-02    0.823E-02
RMM:   7    -0.232329624471E+04   -0.24216E-04   -0.41037E-04  3211   0.104E-02    0.986E-02
RMM:   8    -0.232329611604E+04    0.12867E-03   -0.13023E-04  2966   0.656E-03    0.222E-02
RMM:   9    -0.232329610996E+04    0.60823E-05   -0.37777E-05  3047   0.371E-03
   7 F= -.23446736E+04 E0= -.23446735E+04  d E =-.343367E+00  mag=     4.0000
       N       E                     dE             d eps       ncg     rms          rms(c)
DAV:   1    -0.232345982696E+04   -0.16371E+00   -0.37363E+00  4688   0.102E+00    0.455E-01
RMM:   2    -0.232346843720E+04   -0.86102E-02   -0.11708E-01  6002   0.166E-01    0.376E-01
RMM:   3    -0.232347010724E+04   -0.16700E-02   -0.12659E-02  5695   0.655E-02    0.536E-01
RMM:   4    -0.232346730251E+04    0.28047E-02   -0.33515E-03  5010   0.256E-02    0.178E-01
RMM:   5    -0.232346761916E+04   -0.31665E-03   -0.18933E-03  4328   0.195E-02    0.210E-01
RMM:   6    -0.232346702815E+04    0.59101E-03   -0.63402E-04  3591   0.116E-02    0.516E-02
RMM:   7    -0.232346701563E+04    0.12519E-04   -0.10451E-04  3003   0.586E-03    0.450E-02
RMM:   8    -0.232346700228E+04    0.13350E-04   -0.55179E-05  2921   0.402E-03    0.276E-02
RMM:   9    -0.232346699713E+04    0.51484E-05   -0.15377E-05  2865   0.292E-03
   8 F= -.23448442E+04 E0= -.23448441E+04  d E =-.170585E+00  mag=     4.0000
       N       E                     dE             d eps       ncg     rms          rms(c)
DAV:   1    -0.232355896557E+04   -0.91963E-01   -0.12183E+01  4560   0.182E+00    0.782E-01
RMM:   2    -0.232358933661E+04   -0.30371E-01   -0.38756E-01  6053   0.297E-01    0.656E-01
RMM:   3    -0.232359413521E+04   -0.47986E-02   -0.40208E-02  5822   0.117E-01    0.897E-01
RMM:   4    -0.232358640373E+04    0.77315E-02   -0.94982E-03  5565   0.435E-02    0.302E-01
RMM:   5    -0.232358613733E+04    0.26639E-03   -0.48130E-03  5076   0.297E-02    0.206E-01
RMM:   6    -0.232358587334E+04    0.26399E-03   -0.13734E-03  4399   0.168E-02    0.156E-01
RMM:   7    -0.232358556148E+04    0.31186E-03   -0.29056E-04  3160   0.866E-03    0.467E-02
RMM:   8    -0.232358557971E+04   -0.18228E-04   -0.10939E-04  3019   0.585E-03    0.510E-02
RMM:   9    -0.232358555987E+04    0.19837E-04   -0.64821E-05  2941   0.491E-03    0.230E-02
RMM:  10    -0.232358555669E+04    0.31854E-05   -0.12173E-05  2906   0.311E-03
   9 F= -.23449624E+04 E0= -.23449623E+04  d E =-.288808E+00  mag=     4.0000
       N       E                     dE             d eps       ncg     rms          rms(c)
DAV:   1    -0.232361372192E+04   -0.28162E-01   -0.65140E-01  4880   0.695E-01    0.305E-01
RMM:   2    -0.232362340588E+04   -0.96840E-02   -0.10193E-01  6087   0.167E-01    0.329E-01
RMM:   3    -0.232362434284E+04   -0.93695E-03   -0.13095E-02  5833   0.713E-02    0.366E-01
RMM:   4    -0.232362309477E+04    0.12481E-02   -0.11758E-03  4743   0.181E-02    0.860E-02
RMM:   5    -0.232362303348E+04    0.61283E-04   -0.45619E-04  4540   0.127E-02    0.621E-02
RMM:   6    -0.232362304880E+04   -0.15320E-04   -0.19042E-04  3114   0.905E-03    0.677E-02
RMM:   7    -0.232362299539E+04    0.53416E-04   -0.40202E-05  2940   0.598E-03    0.209E-02
RMM:   8    -0.232362299026E+04    0.51271E-05   -0.14331E-05  2925   0.357E-03
  10 F= -.23449995E+04 E0= -.23449994E+04  d E =-.371030E-01  mag=     4.0000
       N       E                     dE             d eps       ncg     rms          rms(c)
DAV:   1    -0.232358806461E+04    0.34931E-01   -0.58776E+00  4544   0.209E+00    0.913E-01
RMM:   2    -0.232367452609E+04   -0.86461E-01   -0.92269E-01  6067   0.502E-01    0.935E-01
RMM:   3    -0.232368471514E+04   -0.10189E-01   -0.11863E-01  5984   0.211E-01    0.111E+00
RMM:   4    -0.232367285843E+04    0.11857E-01   -0.10719E-02  5750   0.542E-02    0.254E-01
RMM:   5    -0.232367205039E+04    0.80804E-03   -0.45911E-03  5270   0.365E-02    0.108E-01
RMM:   6    -0.232367204766E+04    0.27343E-05   -0.56815E-04  5084   0.189E-02    0.861E-02
RMM:   7    -0.232367202870E+04    0.18964E-04   -0.26475E-04  3647   0.935E-03    0.891E-02
RMM:   8    -0.232367193747E+04    0.91228E-04   -0.94651E-05  2956   0.671E-03    0.205E-02
RMM:   9    -0.232367193296E+04    0.45078E-05   -0.38390E-05  3005   0.445E-03
  11 F= -.23450475E+04 E0= -.23450475E+04  d E =-.851619E-01  mag=     4.0000
       N       E                     dE             d eps       ncg     rms          rms(c)
DAV:   1    -0.232367247958E+04   -0.54211E-03   -0.21649E+00  4592   0.139E+00    0.555E-01
RMM:   2    -0.232370414109E+04   -0.31662E-01   -0.33881E-01  6033   0.316E-01    0.370E-01
RMM:   3    -0.232370841875E+04   -0.42777E-02   -0.35945E-02  5897   0.133E-01    0.569E-01
RMM:   4    -0.232370494723E+04    0.34715E-02   -0.40586E-03  5639   0.335E-02    0.195E-01
RMM:   5    -0.232370495148E+04   -0.42486E-05   -0.14304E-03  5181   0.209E-02    0.221E-01
RMM:   6    -0.232370437084E+04    0.58064E-03   -0.10598E-03  5335   0.189E-02    0.709E-02
RMM:   7    -0.232370437002E+04    0.82361E-06   -0.25458E-04  3880   0.116E-02    0.673E-02
RMM:   8    -0.232370431226E+04    0.57761E-04   -0.95469E-05  3041   0.592E-03    0.288E-02
RMM:   9    -0.232370429312E+04    0.19138E-04   -0.22458E-05  2951   0.409E-03    0.105E-02
RMM:  10    -0.232370428674E+04    0.63846E-05   -0.11195E-05  2893   0.360E-03
  12 F= -.23450791E+04 E0= -.23450791E+04  d E =-.315586E-01  mag=     4.0000
       N       E                     dE             d eps       ncg     rms          rms(c)
DAV:   1    -0.232369177970E+04    0.12513E-01   -0.14616E+00  4592   0.113E+00    0.455E-01
RMM:   2    -0.232371288996E+04   -0.21110E-01   -0.22594E-01  6047   0.258E-01    0.308E-01
RMM:   3    -0.232371553519E+04   -0.26452E-02   -0.24083E-02  5883   0.109E-01    0.442E-01
RMM:   4    -0.232371338564E+04    0.21495E-02   -0.27475E-03  5435   0.276E-02    0.171E-01
RMM:   5    -0.232371333562E+04    0.50023E-04   -0.95213E-04  4963   0.175E-02    0.180E-01
RMM:   6    -0.232371293884E+04    0.39678E-03   -0.71385E-04  5037   0.157E-02    0.624E-02
RMM:   7    -0.232371293689E+04    0.19452E-05   -0.19912E-04  3464   0.107E-02    0.618E-02
RMM:   8    -0.232371288375E+04    0.53144E-04   -0.71211E-05  3006   0.546E-03    0.210E-02
RMM:   9    -0.232371286867E+04    0.15073E-04   -0.18829E-05  2946   0.399E-03    0.877E-03
RMM:  10    -0.232371286229E+04    0.63875E-05   -0.10948E-05  2889   0.361E-03
  13 F= -.23450870E+04 E0= -.23450870E+04  d E =-.394928E-01  mag=     4.0000
       N       E                     dE             d eps       ncg     rms          rms(c)
DAV:   1    -0.232369847141E+04    0.14397E-01   -0.25281E+00  4528   0.113E+00    0.489E-01
RMM:   2    -0.232374336319E+04   -0.44892E-01   -0.44262E-01  6456   0.295E-01    0.571E-01
RMM:   3    -0.232374289866E+04    0.46453E-03   -0.38044E-02  6220   0.107E-01    0.304E-01
RMM:   4    -0.232374198566E+04    0.91300E-03   -0.44207E-03  5188   0.261E-02    0.172E-01
RMM:   5    -0.232374202190E+04   -0.36237E-04   -0.92391E-04  4251   0.140E-02    0.188E-01
RMM:   6    -0.232374163700E+04    0.38490E-03   -0.81900E-04  4597   0.149E-02    0.522E-02
RMM:   7    -0.232374164074E+04   -0.37423E-05   -0.13064E-04  3132   0.785E-03    0.453E-02
RMM:   8    -0.232374162998E+04    0.10761E-04   -0.36952E-05  2925   0.452E-03    0.291E-02
RMM:   9    -0.232374161857E+04    0.11407E-04   -0.13528E-05  2915   0.290E-03    0.102E-02
RMM:  10    -0.232374161776E+04    0.81661E-06   -0.99824E-06  2882   0.257E-03
  14 F= -.23451153E+04 E0= -.23451152E+04  d E =-.282312E-01  mag=     4.0000
       N       E                     dE             d eps       ncg     rms          rms(c)
DAV:   1    -0.232365754560E+04    0.84073E-01   -0.60509E+00  4516   0.176E+00    0.758E-01
RMM:   2    -0.232376650271E+04   -0.10896E+00   -0.10719E+00  6369   0.464E-01    0.901E-01
RMM:   3    -0.232376473360E+04    0.17691E-02   -0.92110E-02  6223   0.169E-01    0.467E-01
RMM:   4    -0.232376262900E+04    0.21046E-02   -0.10615E-02  5647   0.401E-02    0.268E-01
RMM:   5    -0.232376270614E+04   -0.77139E-04   -0.22746E-03  5185   0.214E-02    0.290E-01
RMM:   6    -0.232376178287E+04    0.92327E-03   -0.19408E-03  5266   0.221E-02    0.928E-02
RMM:   7    -0.232376196837E+04   -0.18550E-03   -0.53355E-04  3684   0.124E-02    0.160E-01
RMM:   8    -0.232376172504E+04    0.24333E-03   -0.17576E-04  2975   0.683E-03    0.287E-02
RMM:   9    -0.232376170905E+04    0.15992E-04   -0.40379E-05  2950   0.425E-03    0.153E-02
RMM:  10    -0.232376170614E+04    0.29104E-05   -0.20044E-05  2926   0.362E-03
  15 F= -.23451345E+04 E0= -.23451345E+04  d E =-.474918E-01  mag=     4.0000
       N       E                     dE             d eps       ncg     rms          rms(c)
DAV:   1    -0.232371898061E+04    0.42728E-01   -0.36131E+00  4528   0.138E+00    0.647E-01
RMM:   2    -0.232379225206E+04   -0.73271E-01   -0.73564E-01  6439   0.374E-01    0.730E-01
RMM:   3    -0.232379266570E+04   -0.41364E-03   -0.72047E-02  6263   0.143E-01    0.405E-01
RMM:   4    -0.232379089240E+04    0.17733E-02   -0.73673E-03  5479   0.327E-02    0.199E-01
RMM:   5    -0.232379086882E+04    0.23577E-04   -0.14760E-03  4965   0.185E-02    0.234E-01
RMM:   6    -0.232379046485E+04    0.40397E-03   -0.11817E-03  4732   0.167E-02    0.149E-01
RMM:   7    -0.232379041561E+04    0.49244E-04   -0.40735E-04  3292   0.106E-02    0.103E-01
RMM:   8    -0.232379028610E+04    0.12951E-03   -0.10114E-04  2958   0.689E-03    0.319E-02
RMM:   9    -0.232379027256E+04    0.13543E-04   -0.29868E-05  2974   0.342E-03    0.168E-02
RMM:  10    -0.232379026832E+04    0.42378E-05   -0.21523E-05  2933   0.343E-03
  16 F= -.23451618E+04 E0= -.23451617E+04  d E =-.272375E-01  mag=     4.0000
       N       E                     dE             d eps       ncg     rms          rms(c)
DAV:   1    -0.232376263963E+04    0.27633E-01   -0.17570E+00  4528   0.963E-01    0.451E-01
RMM:   2    -0.232379814900E+04   -0.35509E-01   -0.35780E-01  6435   0.260E-01    0.502E-01
RMM:   3    -0.232379847148E+04   -0.32248E-03   -0.34951E-02  6124   0.998E-02    0.287E-01
RMM:   4    -0.232379761111E+04    0.86037E-03   -0.36214E-03  5001   0.231E-02    0.144E-01
RMM:   5    -0.232379778403E+04   -0.17292E-03   -0.72887E-04  3741   0.127E-02    0.214E-01
RMM:   6    -0.232379733024E+04    0.45379E-03   -0.65947E-04  4410   0.131E-02    0.711E-02
RMM:   7    -0.232379734459E+04   -0.14349E-04   -0.19646E-04  3065   0.863E-03    0.637E-02
RMM:   8    -0.232379729733E+04    0.47266E-04   -0.51019E-05  2937   0.539E-03    0.222E-02
RMM:   9    -0.232379728992E+04    0.74060E-05   -0.16208E-05  2956   0.276E-03
  17 F= -.23451679E+04 E0= -.23451679E+04  d E =-.333494E-01  mag=     4.0000
       N       E                     dE             d eps       ncg     rms          rms(c)
DAV:   1    -0.232376214050E+04    0.35157E-01   -0.25978E+00  4528   0.111E+00    0.570E-01
RMM:   2    -0.232381928077E+04   -0.57140E-01   -0.57185E-01  6568   0.320E-01    0.671E-01
RMM:   3    -0.232381901532E+04    0.26545E-03   -0.57477E-02  6266   0.121E-01    0.339E-01
RMM:   4    -0.232381780848E+04    0.12068E-02   -0.56346E-03  4868   0.271E-02    0.158E-01
RMM:   5    -0.232381746805E+04    0.34043E-03   -0.76821E-04  4169   0.137E-02    0.794E-02
RMM:   6    -0.232381747724E+04   -0.91864E-05   -0.36457E-04  3344   0.116E-02    0.550E-02
RMM:   7    -0.232381746379E+04    0.13444E-04   -0.74679E-05  2961   0.608E-03    0.412E-02
RMM:   8    -0.232381744855E+04    0.15247E-04   -0.21133E-05  2910   0.338E-03    0.244E-02
RMM:   9    -0.232381744405E+04    0.45009E-05   -0.13036E-05  2849   0.250E-03
  18 F= -.23451871E+04 E0= -.23451871E+04  d E =-.192643E-01  mag=     4.0000
       N       E                     dE             d eps       ncg     rms          rms(c)
DAV:   1    -0.232376009002E+04    0.57359E-01   -0.30820E+00  4528   0.121E+00    0.616E-01
RMM:   2    -0.232382778351E+04   -0.67693E-01   -0.67869E-01  6578   0.349E-01    0.714E-01
RMM:   3    -0.232382764815E+04    0.13536E-03   -0.67994E-02  6297   0.132E-01    0.363E-01
RMM:   4    -0.232382625566E+04    0.13925E-02   -0.66845E-03  5093   0.294E-02    0.171E-01
RMM:   5    -0.232382586128E+04    0.39438E-03   -0.87733E-04  4301   0.148E-02    0.869E-02
RMM:   6    -0.232382587489E+04   -0.13604E-04   -0.45293E-04  3519   0.123E-02    0.560E-02
RMM:   7    -0.232382585454E+04    0.20348E-04   -0.10200E-04  2964   0.665E-03    0.432E-02
RMM:   8    -0.232382584192E+04    0.12616E-04   -0.28727E-05  2930   0.378E-03    0.338E-02
RMM:   9    -0.232382583141E+04    0.10514E-04   -0.14852E-05  2874   0.258E-03    0.125E-02
RMM:  10    -0.232382583025E+04    0.11598E-05   -0.14014E-05  2801   0.221E-03
  19 F= -.23451946E+04 E0= -.23451946E+04  d E =-.266850E-01  mag=     4.0000
       N       E                     dE             d eps       ncg     rms          rms(c)
DAV:   1    -0.232380992378E+04    0.15908E-01   -0.16252E+00  4528   0.991E-01    0.422E-01
RMM:   2    -0.232383931710E+04   -0.29393E-01   -0.29354E-01  6371   0.254E-01    0.484E-01
RMM:   3    -0.232383949322E+04   -0.17612E-03   -0.32756E-02  6143   0.103E-01    0.279E-01
RMM:   4    -0.232383885669E+04    0.63653E-03   -0.33379E-03  5149   0.241E-02    0.209E-01
RMM:   5    -0.232383856102E+04    0.29566E-03   -0.67970E-04  3313   0.122E-02    0.140E-01
RMM:   6    -0.232383832883E+04    0.23220E-03   -0.58471E-04  4792   0.137E-02    0.534E-02
RMM:   7    -0.232383834668E+04   -0.17856E-04   -0.20879E-04  3143   0.103E-02    0.525E-02
RMM:   8    -0.232383830284E+04    0.43843E-04   -0.51834E-05  2957   0.514E-03    0.138E-02
RMM:   9    -0.232383829881E+04    0.40350E-05   -0.85386E-06  2914   0.296E-03
  20 F= -.23452066E+04 E0= -.23452066E+04  d E =-.120751E-01  mag=     4.0000
       N       E                     dE             d eps       ncg     rms          rms(c)
DAV:   1    -0.232382875544E+04    0.95474E-02   -0.69134E-01  4576   0.644E-01    0.274E-01
RMM:   2    -0.232384119213E+04   -0.12437E-01   -0.12422E-01  6368   0.166E-01    0.314E-01
RMM:   3    -0.232384128961E+04   -0.97480E-04   -0.13818E-02  5934   0.682E-02    0.182E-01
RMM:   4    -0.232384102401E+04    0.26560E-03   -0.14154E-03  3979   0.159E-02    0.138E-01
RMM:   5    -0.232384089211E+04    0.13190E-03   -0.29007E-04  3000   0.871E-03    0.910E-02
RMM:   6    -0.232384078919E+04    0.10292E-03   -0.24990E-04  4150   0.936E-03    0.324E-02
RMM:   7    -0.232384079662E+04   -0.74303E-05   -0.83433E-05  2984   0.762E-03
  21 F= -.23452089E+04 E0= -.23452089E+04  d E =-.143223E-01  mag=     4.0000
       N       E                     dE             d eps       ncg     rms          rms(c)
DAV:   1    -0.232383303399E+04    0.77552E-02   -0.68610E-01  4528   0.638E-01    0.270E-01
RMM:   2    -0.232384845397E+04   -0.15420E-01   -0.15540E-01  6477   0.172E-01    0.334E-01
RMM:   3    -0.232384893042E+04   -0.47645E-03   -0.18662E-02  5898   0.737E-02    0.218E-01
RMM:   4    -0.232384860899E+04    0.32143E-03   -0.17013E-03  3843   0.161E-02    0.152E-01
RMM:   5    -0.232384844478E+04    0.16421E-03   -0.31826E-04  2995   0.880E-03    0.939E-02
RMM:   6    -0.232384831634E+04    0.12844E-03   -0.28941E-04  4501   0.930E-03    0.328E-02
RMM:   7    -0.232384831183E+04    0.45159E-05   -0.70055E-05  3033   0.711E-03
  22 F= -.23452164E+04 E0= -.23452164E+04  d E =-.748336E-02  mag=     4.0000
       N       E                     dE             d eps       ncg     rms          rms(c)
DAV:   1    -0.232382306536E+04    0.25251E-01   -0.13048E+00  4528   0.878E-01    0.371E-01
RMM:   2    -0.232385230273E+04   -0.29237E-01   -0.29503E-01  6412   0.236E-01    0.463E-01
RMM:   3    -0.232385324166E+04   -0.93893E-03   -0.35275E-02  6088   0.103E-01    0.304E-01
RMM:   4    -0.232385262095E+04    0.62072E-03   -0.32627E-03  5078   0.222E-02    0.211E-01
RMM:   5    -0.232385229786E+04    0.32309E-03   -0.61185E-04  3144   0.111E-02    0.130E-01
RMM:   6    -0.232385205294E+04    0.24492E-03   -0.54600E-04  4942   0.124E-02    0.454E-02
RMM:   7    -0.232385204698E+04    0.59609E-05   -0.13946E-04  3315   0.891E-03    0.238E-02
RMM:   8    -0.232385204484E+04    0.21455E-05   -0.29261E-05  2928   0.477E-03
  23 F= -.23452201E+04 E0= -.23452201E+04  d E =-.111898E-01  mag=     4.0000
       N       E                     dE             d eps       ncg     rms          rms(c)
DAV:   1    -0.232384246829E+04    0.95787E-02   -0.84335E-01  4528   0.741E-01    0.304E-01
RMM:   2    -0.232385835225E+04   -0.15884E-01   -0.16386E-01  6290   0.181E-01    0.313E-01
RMM:   3    -0.232385920671E+04   -0.85446E-03   -0.18796E-02  5922   0.788E-02    0.243E-01
RMM:   4    -0.232385876382E+04    0.44289E-03   -0.18704E-03  4319   0.179E-02    0.155E-01
RMM:   5    -0.232385860272E+04    0.16110E-03   -0.39978E-04  3098   0.104E-02    0.104E-01
RMM:   6    -0.232385852965E+04    0.73072E-04   -0.31354E-04  4119   0.101E-02    0.829E-02
RMM:   7    -0.232385847806E+04    0.51589E-04   -0.19553E-04  2987   0.909E-03    0.396E-02
RMM:   8    -0.232385846126E+04    0.16792E-04   -0.28036E-05  2954   0.474E-03    0.109E-02
RMM:   9    -0.232385845962E+04    0.16456E-05   -0.52679E-06  2892   0.306E-03
  24 F= -.23452262E+04 E0= -.23452262E+04  d E =-.610778E-02  mag=     4.0000
       N       E                     dE             d eps       ncg     rms          rms(c)
DAV:   1    -0.232385199687E+04    0.64644E-02   -0.41330E-01  4576   0.519E-01    0.213E-01
RMM:   2    -0.232385981538E+04   -0.78185E-02   -0.80435E-02  6261   0.127E-01    0.220E-01
RMM:   3    -0.232386023179E+04   -0.41640E-03   -0.91652E-03  5488   0.559E-02    0.171E-01
RMM:   4    -0.232386001234E+04    0.21945E-03   -0.91900E-04  3197   0.128E-02    0.108E-01
RMM:   5    -0.232385993129E+04    0.81050E-04   -0.19339E-04  2988   0.791E-03    0.725E-02
RMM:   6    -0.232385989805E+04    0.33235E-04   -0.16021E-04  3397   0.736E-03    0.613E-02
RMM:   7    -0.232385986863E+04    0.29426E-04   -0.10308E-04  2944   0.710E-03    0.273E-02
RMM:   8    -0.232385986084E+04    0.77843E-05   -0.15322E-05  2940   0.368E-03
  25 F= -.23452274E+04 E0= -.23452274E+04  d E =-.729686E-02  mag=     4.0000
       N       E                     dE             d eps       ncg     rms          rms(c)
DAV:   1    -0.232385545850E+04    0.44101E-02   -0.45490E-01  4528   0.492E-01    0.198E-01
RMM:   2    -0.232386435924E+04   -0.89007E-02   -0.92855E-02  6457   0.124E-01    0.180E-01
RMM:   3    -0.232386512570E+04   -0.76646E-03   -0.10583E-02  4883   0.537E-02    0.160E-01
RMM:   4    -0.232386496648E+04    0.15922E-03   -0.99775E-04  3069   0.118E-02    0.937E-02
RMM:   5    -0.232386491360E+04    0.52871E-04   -0.14626E-04  2953   0.621E-03    0.662E-02
RMM:   6    -0.232386485871E+04    0.54896E-04   -0.12881E-04  3050   0.606E-03    0.320E-02
RMM:   7    -0.232386487117E+04   -0.12462E-04   -0.64937E-05  2951   0.526E-03    0.385E-02
RMM:   8    -0.232386485410E+04    0.17071E-04   -0.20420E-05  2883   0.335E-03    0.105E-02
RMM:   9    -0.232386485243E+04    0.16740E-05   -0.24937E-06  2611   0.186E-03
  26 F= -.23452319E+04 E0= -.23452319E+04  d E =-.458055E-02  mag=     4.0000
       N       E                     dE             d eps       ncg     rms          rms(c)
DAV:   1    -0.232382787481E+04    0.36979E-01   -0.20201E+00  4504   0.104E+00    0.414E-01
RMM:   2    -0.232386728257E+04   -0.39408E-01   -0.41159E-01  6575   0.263E-01    0.370E-01
RMM:   3    -0.232387084068E+04   -0.35581E-02   -0.46808E-02  5902   0.111E-01    0.334E-01
RMM:   4    -0.232387011082E+04    0.72986E-03   -0.43686E-03  4237   0.238E-02    0.191E-01
RMM:   5    -0.232386991364E+04    0.19717E-03   -0.63275E-04  3309   0.116E-02    0.142E-01
RMM:   6    -0.232386964985E+04    0.26379E-03   -0.57054E-04  4170   0.123E-02    0.643E-02
RMM:   7    -0.232386969272E+04   -0.42867E-04   -0.25686E-04  3195   0.917E-03    0.733E-02
RMM:   8    -0.232386963001E+04    0.62705E-04   -0.84526E-05  2955   0.611E-03    0.247E-02
RMM:   9    -0.232386962141E+04    0.86078E-05   -0.10347E-05  2920   0.306E-03
  27 F= -.23452359E+04 E0= -.23452359E+04  d E =-.849973E-02  mag=     4.0000
       N       E                     dE             d eps       ncg     rms          rms(c)
DAV:   1    -0.232386253346E+04    0.70966E-02   -0.69253E-01  4516   0.689E-01    0.263E-01
RMM:   2    -0.232387394137E+04   -0.11408E-01   -0.11983E-01  6318   0.165E-01    0.219E-01
RMM:   3    -0.232387492502E+04   -0.98366E-03   -0.12911E-02  5756   0.667E-02    0.210E-01
RMM:   4    -0.232387462588E+04    0.29915E-03   -0.13313E-03  3660   0.156E-02    0.116E-01
RMM:   5    -0.232387455387E+04    0.72009E-04   -0.28742E-04  3054   0.945E-03    0.860E-02
RMM:   6    -0.232387446861E+04    0.85259E-04   -0.21234E-04  3870   0.921E-03    0.456E-02
RMM:   7    -0.232387448074E+04   -0.12136E-04   -0.11647E-04  3004   0.818E-03    0.511E-02
RMM:   8    -0.232387444801E+04    0.32737E-04   -0.28113E-05  2922   0.473E-03    0.115E-02
RMM:   9    -0.232387444593E+04    0.20787E-05   -0.57465E-06  2901   0.277E-03
  28 F= -.23452403E+04 E0= -.23452403E+04  d E =-.439054E-02  mag=     4.0000
       N       E                     dE             d eps       ncg     rms          rms(c)
DAV:   1    -0.232386809857E+04    0.63494E-02   -0.45135E-01  4528   0.556E-01    0.212E-01
RMM:   2    -0.232387555413E+04   -0.74556E-02   -0.78235E-02  6302   0.134E-01    0.176E-01
RMM:   3    -0.232387617490E+04   -0.62077E-03   -0.84160E-03  5471   0.548E-02    0.167E-01
RMM:   4    -0.232387598985E+04    0.18505E-03   -0.86364E-04  3218   0.128E-02    0.939E-02
RMM:   5    -0.232387594249E+04    0.47362E-04   -0.18645E-04  2982   0.794E-03    0.696E-02
RMM:   6    -0.232387588636E+04    0.56132E-04   -0.14070E-04  3463   0.766E-03    0.371E-02
RMM:   7    -0.232387589337E+04   -0.70108E-05   -0.77049E-05  2961   0.702E-03
  29 F= -.23452414E+04 E0= -.23452414E+04  d E =-.549001E-02  mag=     4.0000
       N       E                     dE             d eps       ncg     rms          rms(c)
DAV:   1    -0.232387241683E+04    0.34695E-02   -0.30448E-01  4560   0.448E-01    0.174E-01
RMM:   2    -0.232387832668E+04   -0.59099E-02   -0.62487E-02  6503   0.115E-01    0.145E-01
RMM:   3    -0.232387901117E+04   -0.68448E-03   -0.75978E-03  5085   0.487E-02    0.162E-01
RMM:   4    -0.232387879483E+04    0.21634E-03   -0.66401E-04  3072   0.114E-02    0.658E-02
RMM:   5    -0.232387879088E+04    0.39519E-05   -0.12294E-04  2956   0.654E-03    0.640E-02
RMM:   6    -0.232387874604E+04    0.44835E-04   -0.78070E-05  2978   0.562E-03    0.348E-02
RMM:   7    -0.232387873572E+04    0.10328E-04   -0.47508E-05  2994   0.575E-03    0.158E-02
RMM:   8    -0.232387873344E+04    0.22799E-05   -0.10770E-05  2890   0.415E-03
  30 F= -.23452440E+04 E0= -.23452440E+04  d E =-.263762E-02  mag=     4.0000
       N       E                     dE             d eps       ncg     rms          rms(c)
DAV:   1    -0.232387085209E+04    0.78836E-02   -0.44647E-01  4528   0.541E-01    0.211E-01
RMM:   2    -0.232387961557E+04   -0.87635E-02   -0.91355E-02  6370   0.137E-01    0.205E-01
RMM:   3    -0.232388049510E+04   -0.87953E-03   -0.10946E-02  5525   0.573E-02    0.202E-01
RMM:   4    -0.232388016003E+04    0.33507E-03   -0.97252E-04  3275   0.134E-02    0.813E-02
RMM:   5    -0.232388014992E+04    0.10111E-04   -0.17821E-04  2976   0.744E-03    0.770E-02
RMM:   6    -0.232388007577E+04    0.74155E-04   -0.11865E-04  3105   0.674E-03    0.361E-02
RMM:   7    -0.232388006721E+04    0.85608E-05   -0.67210E-05  3094   0.662E-03
  31 F= -.23452451E+04 E0= -.23452451E+04  d E =-.372868E-02  mag=     4.0000
       N       E                     dE             d eps       ncg     rms          rms(c)
DAV:   1    -0.232387743186E+04    0.26439E-02   -0.25965E-01  4528   0.449E-01    0.164E-01
RMM:   2    -0.232388145716E+04   -0.40253E-02   -0.41573E-02  6395   0.106E-01    0.156E-01
RMM:   3    -0.232388186327E+04   -0.40611E-03   -0.49345E-03  5206   0.446E-02    0.165E-01
RMM:   4    -0.232388159881E+04    0.26447E-03   -0.47433E-04  3109   0.112E-02    0.645E-02
RMM:   5    -0.232388158531E+04    0.13494E-04   -0.13892E-04  3010   0.739E-03    0.562E-02
RMM:   6    -0.232388154771E+04    0.37603E-04   -0.99765E-05  3130   0.718E-03    0.217E-02
RMM:   7    -0.232388155054E+04   -0.28343E-05   -0.28480E-05  2970   0.569E-03
  32 F= -.23452466E+04 E0= -.23452466E+04  d E =-.154964E-02  mag=     4.0000
       N       E                     dE             d eps       ncg     rms          rms(c)
DAV:   1    -0.232387962817E+04    0.19195E-02   -0.12354E-01  4560   0.310E-01    0.113E-01
RMM:   2    -0.232388155871E+04   -0.19305E-02   -0.19883E-02  6373   0.730E-02    0.108E-01
RMM:   3    -0.232388176052E+04   -0.20181E-03   -0.23244E-03  4070   0.313E-02    0.118E-01
RMM:   4    -0.232388162477E+04    0.13574E-03   -0.22658E-04  2972   0.859E-03    0.421E-02
RMM:   5    -0.232388162054E+04    0.42359E-05   -0.67369E-05  2988   0.530E-03
  33 F= -.23452467E+04 E0= -.23452467E+04  d E =-.166619E-02  mag=     4.0000
       N       E                     dE             d eps       ncg     rms          rms(c)
DAV:   1    -0.232388002495E+04    0.15998E-02   -0.19165E-01  4528   0.350E-01    0.126E-01
RMM:   2    -0.232388286900E+04   -0.28440E-02   -0.27068E-02  6506   0.804E-02    0.183E-01
RMM:   3    -0.232388278592E+04    0.83075E-04   -0.31615E-03  4038   0.318E-02    0.969E-02
RMM:   4    -0.232388273216E+04    0.53758E-04   -0.34813E-04  3033   0.893E-03    0.704E-02
RMM:   5    -0.232388269941E+04    0.32750E-04   -0.83060E-05  2954   0.524E-03    0.441E-02
RMM:   6    -0.232388269017E+04    0.92467E-05   -0.67272E-05  3040   0.542E-03
  34 F= -.23452479E+04 E0= -.23452479E+04  d E =-.113283E-02  mag=     4.0000
       N       E                     dE             d eps       ncg     rms          rms(c)
DAV:   1    -0.232387754973E+04    0.51497E-02   -0.39644E-01  4504   0.503E-01    0.176E-01
RMM:   2    -0.232388322283E+04   -0.56731E-02   -0.55882E-02  6496   0.114E-01    0.227E-01
RMM:   3    -0.232388334535E+04   -0.12252E-03   -0.64879E-03  5238   0.436E-02    0.152E-01
RMM:   4    -0.232388317846E+04    0.16689E-03   -0.69479E-04  3117   0.114E-02    0.919E-02
RMM:   5    -0.232388312461E+04    0.53851E-04   -0.15621E-04  2978   0.693E-03    0.614E-02
RMM:   6    -0.232388310112E+04    0.23497E-04   -0.13067E-04  3270   0.729E-03    0.408E-02
RMM:   7    -0.232388309102E+04    0.10100E-04   -0.57761E-05  2964   0.602E-03    0.254E-02
RMM:   8    -0.232388308273E+04    0.82823E-05   -0.10652E-05  2906   0.301E-03
  35 F= -.23452484E+04 E0= -.23452484E+04  d E =-.161781E-02  mag=     4.0000
       N       E                     dE             d eps       ncg     rms          rms(c)
DAV:   1    -0.232388213817E+04    0.95284E-03   -0.19374E-01  4528   0.372E-01    0.131E-01
RMM:   2    -0.232388488213E+04   -0.27440E-02   -0.26751E-02  6227   0.839E-02    0.161E-01
RMM:   3    -0.232388492736E+04   -0.45236E-04   -0.30657E-03  4355   0.343E-02    0.114E-01
RMM:   4    -0.232388482282E+04    0.10454E-03   -0.33908E-04  3007   0.924E-03    0.663E-02
RMM:   5    -0.232388479151E+04    0.31306E-04   -0.81694E-05  2943   0.547E-03    0.424E-02
RMM:   6    -0.232388478208E+04    0.94378E-05   -0.61183E-05  3026   0.534E-03
  36 F= -.23452500E+04 E0= -.23452500E+04  d E =-.159184E-02  mag=     4.0000
       N       E                     dE             d eps       ncg     rms          rms(c)
DAV:   1    -0.232387420579E+04    0.10586E-01   -0.88161E-01  4504   0.795E-01    0.279E-01
RMM:   2    -0.232388652429E+04   -0.12319E-01   -0.12144E-01  6172   0.178E-01    0.326E-01
RMM:   3    -0.232388689532E+04   -0.37103E-03   -0.14019E-02  5852   0.727E-02    0.246E-01
RMM:   4    -0.232388639926E+04    0.49606E-03   -0.15556E-03  4355   0.177E-02    0.143E-01
RMM:   5    -0.232388624792E+04    0.15134E-03   -0.37151E-04  3231   0.103E-02    0.904E-02
RMM:   6    -0.232388619870E+04    0.49215E-04   -0.29221E-04  4263   0.108E-02    0.641E-02
RMM:   7    -0.232388616794E+04    0.30760E-04   -0.14026E-04  3001   0.893E-03    0.378E-02
RMM:   8    -0.232388614820E+04    0.19741E-04   -0.20472E-05  2917   0.439E-03    0.871E-03
RMM:   9    -0.232388614664E+04    0.15626E-05   -0.53170E-06  2897   0.277E-03
  37 F= -.23452511E+04 E0= -.23452511E+04  d E =-.272879E-02  mag=     4.0000
       N       E                     dE             d eps       ncg     rms          rms(c)
DAV:   1    -0.232388292764E+04    0.32206E-02   -0.37612E-01  4504   0.510E-01    0.175E-01
RMM:   2    -0.232388792252E+04   -0.49949E-02   -0.50644E-02  6204   0.114E-01    0.175E-01
RMM:   3    -0.232388827392E+04   -0.35140E-03   -0.57346E-03  5215   0.478E-02    0.163E-01
RMM:   4    -0.232388801616E+04    0.25776E-03   -0.57761E-04  3079   0.116E-02    0.795E-02
RMM:   5    -0.232388798005E+04    0.36109E-04   -0.14661E-04  2990   0.735E-03    0.613E-02
RMM:   6    -0.232388794552E+04    0.34531E-04   -0.14556E-04  3458   0.774E-03    0.329E-02
RMM:   7    -0.232388794797E+04   -0.24535E-05   -0.52556E-05  2937   0.620E-03
  38 F= -.23452527E+04 E0= -.23452527E+04  d E =-.164629E-02  mag=     4.0000
       N       E                     dE             d eps       ncg     rms          rms(c)
DAV:   1    -0.232388146326E+04    0.64823E-02   -0.53820E-01  4504   0.611E-01    0.210E-01
RMM:   2    -0.232388860005E+04   -0.71368E-02   -0.72974E-02  6237   0.137E-01    0.201E-01
RMM:   3    -0.232388915674E+04   -0.55670E-03   -0.83176E-03  5588   0.586E-02    0.195E-01
RMM:   4    -0.232388879312E+04    0.36362E-03   -0.83360E-04  3271   0.137E-02    0.968E-02
RMM:   5    -0.232388873888E+04    0.54247E-04   -0.21277E-04  3039   0.865E-03    0.735E-02
RMM:   6    -0.232388868957E+04    0.49307E-04   -0.19861E-04  3850   0.902E-03    0.405E-02
RMM:   7    -0.232388869214E+04   -0.25753E-05   -0.75699E-05  2950   0.710E-03
  39 F= -.23452533E+04 E0= -.23452533E+04  d E =-.220583E-02  mag=     4.0000
       N       E                     dE             d eps       ncg     rms          rms(c)
DAV:   1    -0.232388414417E+04    0.45454E-02   -0.48238E-01  4504   0.555E-01    0.193E-01
RMM:   2    -0.232389050903E+04   -0.63649E-02   -0.65284E-02  6358   0.126E-01    0.189E-01
RMM:   3    -0.232389087402E+04   -0.36499E-03   -0.70617E-03  5501   0.518E-02    0.167E-01
RMM:   4    -0.232389064366E+04    0.23037E-03   -0.70393E-04  3170   0.120E-02    0.939E-02
RMM:   5    -0.232389059377E+04    0.49888E-04   -0.17261E-04  2972   0.748E-03    0.668E-02
RMM:   6    -0.232389055638E+04    0.37393E-04   -0.16928E-04  3368   0.777E-03    0.471E-02
RMM:   7    -0.232389054453E+04    0.11852E-04   -0.79480E-05  2940   0.646E-03    0.308E-02
RMM:   8    -0.232389053329E+04    0.11238E-04   -0.11391E-05  2895   0.317E-03    0.771E-03
RMM:   9    -0.232389053210E+04    0.11881E-05   -0.33014E-06  2810   0.201E-03
  40 F= -.23452551E+04 E0= -.23452551E+04  d E =-.183858E-02  mag=     4.0000
       N       E                     dE             d eps       ncg     rms          rms(c)
DAV:   1    -0.232388536022E+04    0.51731E-02   -0.44119E-01  4504   0.530E-01    0.183E-01
RMM:   2    -0.232389120236E+04   -0.58421E-02   -0.59438E-02  6376   0.120E-01    0.191E-01
RMM:   3    -0.232389149990E+04   -0.29754E-03   -0.64101E-03  5332   0.483E-02    0.163E-01
RMM:   4    -0.232389127264E+04    0.22727E-03   -0.64122E-04  3144   0.115E-02    0.872E-02
RMM:   5    -0.232389122922E+04    0.43412E-04   -0.15849E-04  2976   0.727E-03    0.633E-02
RMM:   6    -0.232389119469E+04    0.34529E-04   -0.16201E-04  3376   0.759E-03    0.454E-02
RMM:   7    -0.232389118195E+04    0.12741E-04   -0.69738E-05  2933   0.630E-03    0.282E-02
RMM:   8    -0.232389117241E+04    0.95476E-05   -0.94474E-06  2881   0.293E-03
  41 F= -.23452558E+04 E0= -.23452558E+04  d E =-.247878E-02  mag=     4.0000
       N       E                     dE             d eps       ncg     rms          rms(c)
DAV:   1    -0.232388736575E+04    0.38162E-02   -0.38807E-01  4504   0.496E-01    0.187E-01
RMM:   2    -0.232389357282E+04   -0.62071E-02   -0.60057E-02  6276   0.118E-01    0.260E-01
RMM:   3    -0.232389342202E+04    0.15079E-03   -0.61486E-03  5475   0.455E-02    0.145E-01
RMM:   4    -0.232389328590E+04    0.13612E-03   -0.67057E-04  3149   0.112E-02    0.935E-02
RMM:   5    -0.232389321763E+04    0.68272E-04   -0.14828E-04  2965   0.691E-03    0.602E-02
RMM:   6    -0.232389319677E+04    0.20866E-04   -0.14202E-04  3436   0.705E-03    0.509E-02
RMM:   7    -0.232389317479E+04    0.21976E-04   -0.77890E-05  2930   0.649E-03    0.255E-02
RMM:   8    -0.232389316684E+04    0.79479E-05   -0.86245E-06  2886   0.293E-03
  42 F= -.23452577E+04 E0= -.23452577E+04  d E =-.196266E-02  mag=     4.0000
       N       E                     dE             d eps       ncg     rms          rms(c)
DAV:   1    -0.232388448345E+04    0.86913E-02   -0.63916E-01  4504   0.636E-01    0.239E-01
RMM:   2    -0.232389467336E+04   -0.10190E-01   -0.98832E-02  6323   0.151E-01    0.329E-01
RMM:   3    -0.232389446815E+04    0.20522E-03   -0.10123E-02  5787   0.583E-02    0.188E-01
RMM:   4    -0.232389423979E+04    0.22836E-03   -0.11076E-03  3566   0.142E-02    0.120E-01
RMM:   5    -0.232389412713E+04    0.11266E-03   -0.24216E-04  3005   0.845E-03    0.774E-02
RMM:   6    -0.232389409211E+04    0.35021E-04   -0.23529E-04  4032   0.891E-03    0.652E-02
RMM:   7    -0.232389405595E+04    0.36161E-04   -0.12761E-04  2949   0.792E-03    0.328E-02
RMM:   8    -0.232389404259E+04    0.13357E-04   -0.13674E-05  2912   0.351E-03    0.968E-03
RMM:   9    -0.232389404075E+04    0.18397E-05   -0.54553E-06  2856   0.228E-03
  43 F= -.23452586E+04 E0= -.23452586E+04  d E =-.279873E-02  mag=     4.0000
       N       E                     dE             d eps       ncg     rms          rms(c)
DAV:   1    -0.232388788321E+04    0.61594E-02   -0.47236E-01  4504   0.539E-01    0.207E-01
RMM:   2    -0.232389639468E+04   -0.85115E-02   -0.80941E-02  6532   0.131E-01    0.323E-01
RMM:   3    -0.232389616731E+04    0.22737E-03   -0.85521E-03  5468   0.506E-02    0.156E-01
RMM:   4    -0.232389600661E+04    0.16070E-03   -0.90809E-04  3153   0.123E-02    0.939E-02
RMM:   5    -0.232389594404E+04    0.62574E-04   -0.17048E-04  2966   0.721E-03    0.684E-02
RMM:   6    -0.232389589899E+04    0.45047E-04   -0.15012E-04  3330   0.728E-03    0.428E-02
RMM:   7    -0.232389589421E+04    0.47834E-05   -0.75500E-05  2949   0.634E-03
  44 F= -.23452604E+04 E0= -.23452604E+04  d E =-.181107E-02  mag=     4.0000
       N       E                     dE             d eps       ncg     rms          rms(c)
DAV:   1    -0.232385966696E+04    0.36232E-01   -0.22060E+00  4504   0.116E+00    0.451E-01
RMM:   2    -0.232389929856E+04   -0.39632E-01   -0.37904E-01  6568   0.284E-01    0.686E-01
RMM:   3    -0.232389856101E+04    0.73755E-03   -0.40315E-02  6235   0.109E-01    0.352E-01
RMM:   4    -0.232389775562E+04    0.80539E-03   -0.43408E-03  5087   0.263E-02    0.210E-01
RMM:   5    -0.232389742548E+04    0.33013E-03   -0.80563E-04  3796   0.130E-02    0.147E-01
RMM:   6    -0.232389722298E+04    0.20250E-03   -0.68410E-04  4756   0.141E-02    0.929E-02
RMM:   7    -0.232389719738E+04    0.25605E-04   -0.35070E-04  3191   0.116E-02    0.692E-02
RMM:   8    -0.232389713888E+04    0.58499E-04   -0.60387E-05  2955   0.570E-03    0.186E-02
RMM:   9    -0.232389713179E+04    0.70872E-05   -0.16262E-05  2935   0.340E-03
  45 F= -.23452615E+04 E0= -.23452615E+04  d E =-.296860E-02  mag=     4.0000
       N       E                     dE             d eps       ncg     rms          rms(c)
DAV:   1    -0.232389039155E+04    0.67473E-02   -0.47238E-01  4504   0.529E-01    0.209E-01
RMM:   2    -0.232389943941E+04   -0.90479E-02   -0.85137E-02  6480   0.131E-01    0.345E-01
RMM:   3    -0.232389909984E+04    0.33957E-03   -0.90814E-03  5480   0.518E-02    0.153E-01
RMM:   4    -0.232389892528E+04    0.17455E-03   -0.93010E-04  3122   0.123E-02    0.818E-02
RMM:   5    -0.232389889746E+04    0.27825E-04   -0.16093E-04  2996   0.707E-03    0.761E-02
RMM:   6    -0.232389883817E+04    0.59293E-04   -0.15688E-04  3164   0.745E-03    0.423E-02
RMM:   7    -0.232389883516E+04    0.30026E-05   -0.76583E-05  2951   0.632E-03
  46 F= -.23452632E+04 E0= -.23452632E+04  d E =-.166381E-02  mag=     4.0000
       N       E                     dE             d eps       ncg     rms          rms(c)
DAV:   1    -0.232382445086E+04    0.74387E-01   -0.42356E+00  4504   0.159E+00    0.629E-01
RMM:   2    -0.232390512768E+04   -0.80677E-01   -0.76635E-01  6561   0.393E-01    0.100E+00
RMM:   3    -0.232390320448E+04    0.19232E-02   -0.82957E-02  6261   0.154E-01    0.487E-01
RMM:   4    -0.232390146346E+04    0.17410E-02   -0.85798E-03  5485   0.366E-02    0.262E-01
RMM:   5    -0.232390107677E+04    0.38669E-03   -0.14938E-03  4872   0.172E-02    0.224E-01
RMM:   6    -0.232390053862E+04    0.53815E-03   -0.13415E-03  5103   0.185E-02    0.118E-01
RMM:   7    -0.232390053444E+04    0.41836E-05   -0.63818E-04  3703   0.147E-02    0.980E-02
RMM:   8    -0.232390041696E+04    0.11748E-03   -0.12606E-04  2986   0.670E-03    0.275E-02
RMM:   9    -0.232390040489E+04    0.12068E-04   -0.29167E-05  2936   0.441E-03    0.138E-02
RMM:  10    -0.232390040653E+04   -0.16397E-05   -0.17589E-05  2928   0.324E-03
  47 F= -.23452647E+04 E0= -.23452647E+04  d E =-.313615E-02  mag=     4.0000
       N       E                     dE             d eps       ncg     rms          rms(c)
DAV:   1    -0.232388459427E+04    0.15811E-01   -0.97202E-01  4504   0.751E-01    0.307E-01
RMM:   2    -0.232390363471E+04   -0.19040E-01   -0.18250E-01  6511   0.192E-01    0.467E-01
RMM:   3    -0.232390332275E+04    0.31197E-03   -0.19488E-02  5876   0.744E-02    0.248E-01
RMM:   4    -0.232390279995E+04    0.52280E-03   -0.19976E-03  3832   0.183E-02    0.119E-01
RMM:   5    -0.232390271936E+04    0.80584E-04   -0.36611E-04  3331   0.961E-03    0.104E-01
RMM:   6    -0.232390260088E+04    0.11849E-03   -0.35826E-04  3929   0.108E-02    0.554E-02
RMM:   7    -0.232390260756E+04   -0.66868E-05   -0.14595E-04  2986   0.773E-03    0.539E-02
RMM:   8    -0.232390257633E+04    0.31239E-04   -0.32192E-05  2927   0.438E-03    0.138E-02
RMM:   9    -0.232390257396E+04    0.23695E-05   -0.80960E-06  2890   0.249E-03
  48 F= -.23452669E+04 E0= -.23452668E+04  d E =-.216643E-02  mag=     4.0000
       N       E                     dE             d eps       ncg     rms          rms(c)
DAV:   1    -0.232389505153E+04    0.75248E-02   -0.42767E-01  4528   0.499E-01    0.203E-01
RMM:   2    -0.232390342998E+04   -0.83784E-02   -0.80304E-02  6490   0.128E-01    0.308E-01
RMM:   3    -0.232390329634E+04    0.13364E-03   -0.85655E-03  5332   0.503E-02    0.163E-01
RMM:   4    -0.232390306866E+04    0.22768E-03   -0.86665E-04  3137   0.124E-02    0.785E-02
RMM:   5    -0.232390303442E+04    0.34237E-04   -0.16059E-04  3024   0.708E-03    0.692E-02
RMM:   6    -0.232390298040E+04    0.54026E-04   -0.16192E-04  3184   0.769E-03    0.348E-02
RMM:   7    -0.232390298536E+04   -0.49655E-05   -0.63542E-05  2964   0.608E-03
  49 F= -.23452673E+04 E0= -.23452673E+04  d E =-.257930E-02  mag=     4.0000
       N       E                     dE             d eps       ncg     rms          rms(c)
DAV:   1    -0.232389813081E+04    0.48496E-02   -0.32261E-01  4548   0.473E-01    0.189E-01
RMM:   2    -0.232390448157E+04   -0.63508E-02   -0.64335E-02  6407   0.121E-01    0.202E-01
RMM:   3    -0.232390480013E+04   -0.31856E-03   -0.70798E-03  5280   0.490E-02    0.169E-01
RMM:   4    -0.232390455379E+04    0.24634E-03   -0.74718E-04  3116   0.123E-02    0.955E-02
RMM:   5    -0.232390447636E+04    0.77434E-04   -0.15509E-04  2986   0.739E-03    0.555E-02
RMM:   6    -0.232390444277E+04    0.33590E-04   -0.14026E-04  3443   0.770E-03    0.320E-02
RMM:   7    -0.232390444866E+04   -0.58930E-05   -0.57873E-05  2943   0.635E-03
  50 F= -.23452689E+04 E0= -.23452689E+04  d E =-.164914E-02  mag=     4.0000
       N       E                     dE             d eps       ncg     rms          rms(c)
DAV:   1    -0.232390157428E+04    0.28685E-02   -0.15191E-01  4592   0.324E-01    0.130E-01
RMM:   2    -0.232390458572E+04   -0.30114E-02   -0.30535E-02  6416   0.839E-02    0.139E-01
RMM:   3    -0.232390474301E+04   -0.15729E-03   -0.33795E-03  4222   0.343E-02    0.118E-01
RMM:   4    -0.232390462198E+04    0.12103E-03   -0.34827E-04  3023   0.924E-03    0.639E-02
RMM:   5    -0.232390458781E+04    0.34168E-04   -0.73357E-05  2952   0.521E-03    0.384E-02
RMM:   6    -0.232390457172E+04    0.16090E-04   -0.63652E-05  2974   0.539E-03    0.219E-02
RMM:   7    -0.232390457467E+04   -0.29495E-05   -0.28242E-05  2913   0.475E-03
  51 F= -.23452692E+04 E0= -.23452692E+04  d E =-.190286E-02  mag=     4.0000
       N       E                     dE             d eps       ncg     rms          rms(c)
DAV:   1    -0.232389803392E+04    0.65378E-02   -0.38964E-01  4504   0.506E-01    0.206E-01
RMM:   2    -0.232390627822E+04   -0.82443E-02   -0.81883E-02  6506   0.132E-01    0.250E-01
RMM:   3    -0.232390627393E+04    0.42849E-05   -0.82417E-03  5385   0.497E-02    0.164E-01
RMM:   4    -0.232390611921E+04    0.15472E-03   -0.96641E-04  3122   0.126E-02    0.116E-01
RMM:   5    -0.232390599357E+04    0.12564E-03   -0.16593E-04  2979   0.714E-03    0.564E-02
RMM:   6    -0.232390594916E+04    0.44409E-04   -0.15403E-04  3540   0.778E-03    0.185E-02
RMM:   7    -0.232390595042E+04   -0.12543E-05   -0.32367E-05  2973   0.550E-03
  52 F= -.23452708E+04 E0= -.23452708E+04  d E =-.161575E-02  mag=     4.0000
       N       E                     dE             d eps       ncg     rms          rms(c)
DAV:   1    -0.232389610522E+04    0.98439E-02   -0.49711E-01  4504   0.572E-01    0.234E-01
RMM:   2    -0.232390667969E+04   -0.10574E-01   -0.10492E-01  6534   0.149E-01    0.285E-01
RMM:   3    -0.232390664167E+04    0.38022E-04   -0.10537E-02  5608   0.564E-02    0.184E-01
RMM:   4    -0.232390644904E+04    0.19262E-03   -0.12397E-03  3238   0.140E-02    0.131E-01
RMM:   5    -0.232390628853E+04    0.16051E-03   -0.21183E-04  2988   0.789E-03    0.634E-02
RMM:   6    -0.232390623766E+04    0.50870E-04   -0.19582E-04  3837   0.856E-03    0.306E-02
RMM:   7    -0.232390625022E+04   -0.12552E-04   -0.73218E-05  2943   0.672E-03    0.393E-02
RMM:   8    -0.232390623108E+04    0.19139E-04   -0.16644E-05  2899   0.314E-03    0.817E-03
RMM:   9    -0.232390622914E+04    0.19337E-05   -0.37098E-06  2750   0.209E-03
  53 F= -.23452713E+04 E0= -.23452713E+04  d E =-.216548E-02  mag=     4.0000
       N       E                     dE             d eps       ncg     rms          rms(c)
DAV:   1    -0.232389998565E+04    0.62454E-02   -0.42930E-01  4504   0.551E-01    0.216E-01
RMM:   2    -0.232390837974E+04   -0.83941E-02   -0.80261E-02  6338   0.137E-01    0.303E-01
RMM:   3    -0.232390801465E+04    0.36509E-03   -0.81480E-03  5612   0.521E-02    0.177E-01
RMM:   4    -0.232390784052E+04    0.17413E-03   -0.10372E-03  3263   0.135E-02    0.117E-01
RMM:   5    -0.232390769525E+04    0.14528E-03   -0.19044E-04  3019   0.805E-03    0.554E-02
RMM:   6    -0.232390766100E+04    0.34250E-04   -0.17700E-04  4099   0.886E-03    0.332E-02
RMM:   7    -0.232390766316E+04   -0.21653E-05   -0.59310E-05  2936   0.681E-03
  54 F= -.23452730E+04 E0= -.23452730E+04  d E =-.166861E-02  mag=     4.0000
       N       E                     dE             d eps       ncg     rms          rms(c)
DAV:   1    -0.232390068996E+04    0.69710E-02   -0.40231E-01  4504   0.534E-01    0.211E-01
RMM:   2    -0.232390859337E+04   -0.79034E-02   -0.75689E-02  6268   0.133E-01    0.295E-01
RMM:   3    -0.232390824490E+04    0.34847E-03   -0.76876E-03  5643   0.523E-02    0.174E-01
RMM:   4    -0.232390807612E+04    0.16878E-03   -0.98915E-04  3238   0.132E-02    0.115E-01
RMM:   5    -0.232390793812E+04    0.13801E-03   -0.18107E-04  3012   0.786E-03    0.534E-02
RMM:   6    -0.232390790476E+04    0.33357E-04   -0.15686E-04  3978   0.842E-03    0.299E-02
RMM:   7    -0.232390790946E+04   -0.47009E-05   -0.53616E-05  2928   0.665E-03
  55 F= -.23452735E+04 E0= -.23452735E+04  d E =-.214263E-02  mag=     4.0000
       N       E                     dE             d eps       ncg     rms          rms(c)
DAV:   1    -0.232390325482E+04    0.46499E-02   -0.36416E-01  4504   0.531E-01    0.207E-01
RMM:   2    -0.232391050025E+04   -0.72454E-02   -0.63136E-02  6306   0.128E-01    0.378E-01
RMM:   3    -0.232390942672E+04    0.10735E-02   -0.65202E-03  5667   0.502E-02    0.139E-01
RMM:   4    -0.232390935889E+04    0.67831E-04   -0.85312E-04  3429   0.131E-02    0.999E-02
RMM:   5    -0.232390924873E+04    0.11016E-03   -0.18024E-04  3029   0.823E-03    0.521E-02
RMM:   6    -0.232390924029E+04    0.84439E-05   -0.13920E-04  3967   0.807E-03    0.512E-02
RMM:   7    -0.232390921659E+04    0.23696E-04   -0.61178E-05  2929   0.686E-03    0.259E-02
RMM:   8    -0.232390920985E+04    0.67412E-05   -0.97657E-06  2899   0.271E-03
  56 F= -.23452750E+04 E0= -.23452750E+04  d E =-.148496E-02  mag=     4.0000
       N       E                     dE             d eps       ncg     rms          rms(c)
DAV:   1    -0.232390565812E+04    0.35585E-02   -0.22890E-01  4528   0.421E-01    0.164E-01
RMM:   2    -0.232391022964E+04   -0.45715E-02   -0.39595E-02  6320   0.101E-01    0.303E-01
RMM:   3    -0.232390953030E+04    0.69933E-03   -0.40885E-03  5014   0.380E-02    0.108E-01
RMM:   4    -0.232390949117E+04    0.39131E-04   -0.53190E-04  3114   0.106E-02    0.788E-02
RMM:   5    -0.232390942189E+04    0.69283E-04   -0.11376E-04  2976   0.678E-03    0.418E-02
RMM:   6    -0.232390941734E+04    0.45546E-05   -0.90189E-05  3429   0.664E-03
  57 F= -.23452753E+04 E0= -.23452753E+04  d E =-.183844E-02  mag=     4.0000
       N       E                     dE             d eps       ncg     rms          rms(c)
DAV:   1    -0.232390439579E+04    0.50261E-02   -0.38900E-01  4504   0.544E-01    0.205E-01
RMM:   2    -0.232391204864E+04   -0.76528E-02   -0.66881E-02  6429   0.129E-01    0.392E-01
RMM:   3    -0.232391093148E+04    0.11172E-02   -0.66878E-03  5642   0.476E-02    0.122E-01
RMM:   4    -0.232391089748E+04    0.34001E-04   -0.78934E-04  3148   0.122E-02    0.910E-02
RMM:   5    -0.232391083320E+04    0.64283E-04   -0.17558E-04  2989   0.766E-03    0.649E-02
RMM:   6    -0.232391080712E+04    0.26073E-04   -0.12768E-04  3476   0.748E-03    0.495E-02
RMM:   7    -0.232391078933E+04    0.17796E-04   -0.69999E-05  2933   0.650E-03    0.304E-02
RMM:   8    -0.232391077952E+04    0.98103E-05   -0.14049E-05  2909   0.322E-03
  58 F= -.23452769E+04 E0= -.23452769E+04  d E =-.155195E-02  mag=     4.0000
       N       E                     dE             d eps       ncg     rms          rms(c)
DAV:   1    -0.232390467757E+04    0.61118E-02   -0.39267E-01  4504   0.546E-01    0.213E-01
RMM:   2    -0.232391293027E+04   -0.82527E-02   -0.68431E-02  6356   0.130E-01    0.453E-01
RMM:   3    -0.232391122256E+04    0.17077E-02   -0.66784E-03  5612   0.467E-02    0.113E-01
RMM:   4    -0.232391122197E+04    0.59856E-06   -0.83406E-04  3188   0.123E-02    0.955E-02
RMM:   5    -0.232391114338E+04    0.78590E-04   -0.17765E-04  2983   0.772E-03    0.633E-02
RMM:   6    -0.232391112098E+04    0.22401E-04   -0.11891E-04  3508   0.719E-03    0.522E-02
RMM:   7    -0.232391110133E+04    0.19641E-04   -0.74723E-05  2937   0.665E-03    0.317E-02
RMM:   8    -0.232391109046E+04    0.10870E-04   -0.15688E-05  2911   0.331E-03    0.667E-03
RMM:   9    -0.232391109012E+04    0.34164E-06   -0.29283E-06  2778   0.220E-03
  59 F= -.23452774E+04 E0= -.23452774E+04  d E =-.205344E-02  mag=     4.0000
       N       E                     dE             d eps       ncg     rms          rms(c)
DAV:   1    -0.232390804407E+04    0.30464E-02   -0.29023E-01  4504   0.476E-01    0.172E-01
RMM:   2    -0.232391308122E+04   -0.50371E-02   -0.44930E-02  6247   0.109E-01    0.311E-01
RMM:   3    -0.232391244962E+04    0.63160E-03   -0.43783E-03  5017   0.406E-02    0.106E-01
RMM:   4    -0.232391238908E+04    0.60545E-04   -0.50260E-04  3115   0.105E-02    0.720E-02
RMM:   5    -0.232391235763E+04    0.31443E-04   -0.12199E-04  2952   0.674E-03    0.572E-02
RMM:   6    -0.232391232133E+04    0.36308E-04   -0.85400E-05  3236   0.653E-03    0.285E-02
RMM:   7    -0.232391231956E+04    0.17611E-05   -0.31724E-05  2929   0.548E-03
  60 F= -.23452788E+04 E0= -.23452788E+04  d E =-.138697E-02  mag=     4.0000
       N       E                     dE             d eps       ncg     rms          rms(c)
DAV:   1    -0.232390424836E+04    0.80730E-02   -0.57017E-01  4504   0.667E-01    0.244E-01
RMM:   2    -0.232391421562E+04   -0.99673E-02   -0.88798E-02  6305   0.153E-01    0.439E-01
RMM:   3    -0.232391293974E+04    0.12759E-02   -0.86557E-03  5702   0.572E-02    0.150E-01
RMM:   4    -0.232391282381E+04    0.11593E-03   -0.10099E-03  3712   0.143E-02    0.103E-01
RMM:   5    -0.232391275512E+04    0.68687E-04   -0.24085E-04  3040   0.874E-03    0.794E-02
RMM:   6    -0.232391268549E+04    0.69631E-04   -0.16044E-04  3919   0.855E-03    0.400E-02
RMM:   7    -0.232391268131E+04    0.41775E-05   -0.61868E-05  2943   0.704E-03
  61 F= -.23452793E+04 E0= -.23452793E+04  d E =-.197072E-02  mag=     4.0000
       N       E                     dE             d eps       ncg     rms          rms(c)
DAV:   1    -0.232390833383E+04    0.43517E-02   -0.41056E-01  4504   0.563E-01    0.198E-01
RMM:   2    -0.232391433903E+04   -0.60052E-02   -0.57973E-02  6226   0.127E-01    0.270E-01
RMM:   3    -0.232391421161E+04    0.12742E-03   -0.55595E-03  5411   0.474E-02    0.162E-01
RMM:   4    -0.232391400918E+04    0.20243E-03   -0.62715E-04  3162   0.121E-02    0.834E-02
RMM:   5    -0.232391397561E+04    0.33562E-04   -0.17155E-04  2978   0.761E-03    0.671E-02
RMM:   6    -0.232391392703E+04    0.48585E-04   -0.10790E-04  3292   0.730E-03    0.271E-02
RMM:   7    -0.232391393135E+04   -0.43230E-05   -0.45587E-05  2934   0.600E-03
  62 F= -.23452807E+04 E0= -.23452807E+04  d E =-.140374E-02  mag=     4.0000
       N       E                     dE             d eps       ncg     rms          rms(c)
DAV:   1    -0.232390458616E+04    0.93409E-02   -0.71003E-01  4504   0.742E-01    0.259E-01
RMM:   2    -0.232391495770E+04   -0.10372E-01   -0.10067E-01  6286   0.167E-01    0.345E-01
RMM:   3    -0.232391481529E+04    0.14241E-03   -0.96456E-03  5740   0.621E-02    0.215E-01
RMM:   4    -0.232391445062E+04    0.36467E-03   -0.10853E-03  3814   0.157E-02    0.109E-01
RMM:   5    -0.232391439256E+04    0.58057E-04   -0.29421E-04  3106   0.930E-03    0.882E-02
RMM:   6    -0.232391430818E+04    0.84378E-04   -0.19072E-04  3861   0.932E-03    0.364E-02
RMM:   7    -0.232391431510E+04   -0.69198E-05   -0.80406E-05  2954   0.723E-03
  63 F= -.23452813E+04 E0= -.23452813E+04  d E =-.199022E-02  mag=     4.0000
       N       E                     dE             d eps       ncg     rms          rms(c)
DAV:   1    -0.232390763805E+04    0.66701E-02   -0.62504E-01  4504   0.713E-01    0.245E-01
RMM:   2    -0.232391557598E+04   -0.79379E-02   -0.81772E-02  6155   0.158E-01    0.229E-01
RMM:   3    -0.232391618467E+04   -0.60869E-03   -0.84341E-03  5686   0.628E-02    0.240E-01
RMM:   4    -0.232391566479E+04    0.51988E-03   -0.89096E-04  4185   0.156E-02    0.102E-01
RMM:   5    -0.232391563214E+04    0.32658E-04   -0.27676E-04  3081   0.978E-03    0.837E-02
RMM:   6    -0.232391556063E+04    0.71502E-04   -0.19812E-04  3943   0.954E-03    0.429E-02
RMM:   7    -0.232391555945E+04    0.11883E-05   -0.87832E-05  2946   0.733E-03
  64 F= -.23452829E+04 E0= -.23452829E+04  d E =-.153224E-02  mag=     4.0000
       N       E                     dE             d eps       ncg     rms          rms(c)
DAV:   1    -0.232391419629E+04    0.13643E-02   -0.10404E-01  4656   0.291E-01    0.101E-01
RMM:   2    -0.232391550046E+04   -0.13042E-02   -0.13658E-02  6153   0.653E-02    0.834E-02
RMM:   3    -0.232391562929E+04   -0.12884E-03   -0.14553E-03  3763   0.266E-02    0.972E-02
RMM:   4    -0.232391554253E+04    0.86760E-04   -0.14872E-04  2961   0.762E-03    0.417E-02
RMM:   5    -0.232391553907E+04    0.34593E-05   -0.49145E-05  2942   0.450E-03
  65 F= -.23452830E+04 E0= -.23452830E+04  d E =-.162971E-02  mag=     4.0000
       N       E                     dE             d eps       ncg     rms          rms(c)
DAV:   1    -0.232391415040E+04    0.13921E-02   -0.18324E-01  4504   0.403E-01    0.137E-01
RMM:   2    -0.232391611385E+04   -0.19634E-02   -0.20751E-02  6113   0.858E-02    0.109E-01
RMM:   3    -0.232391629924E+04   -0.18539E-03   -0.23430E-03  4473   0.361E-02    0.129E-01
RMM:   4    -0.232391614779E+04    0.15145E-03   -0.24902E-04  3059   0.981E-03    0.619E-02
RMM:   5    -0.232391613951E+04    0.82772E-05   -0.10322E-04  2941   0.697E-03    0.507E-02
RMM:   6    -0.232391611791E+04    0.21597E-04   -0.68972E-05  3128   0.643E-03    0.327E-02
RMM:   7    -0.232391610880E+04    0.91101E-05   -0.30673E-05  2917   0.556E-03
  66 F= -.23452838E+04 E0= -.23452838E+04  d E =-.809446E-03  mag=     4.0000
       N       E                     dE             d eps       ncg     rms          rms(c)
DAV:   1    -0.232391548566E+04    0.63225E-03   -0.46722E-02  4640   0.203E-01    0.698E-02
RMM:   2    -0.232391599841E+04   -0.51274E-03   -0.53945E-03  6129   0.442E-02    0.560E-02
RMM:   3    -0.232391604582E+04   -0.47410E-04   -0.58533E-04  3355   0.187E-02    0.660E-02
RMM:   4    -0.232391600625E+04    0.39567E-04   -0.67241E-05  2948   0.568E-03    0.335E-02
RMM:   5    -0.232391599962E+04    0.66236E-05   -0.25251E-05  2919   0.354E-03
  67 F= -.23452838E+04 E0= -.23452838E+04  d E =-.821589E-03  mag=     4.0000
       N       E                     dE             d eps       ncg     rms          rms(c)
DAV:   1    -0.232391495489E+04    0.10514E-02   -0.15055E-01  4516   0.358E-01    0.116E-01
RMM:   2    -0.232391658441E+04   -0.16295E-02   -0.16546E-02  6273   0.747E-02    0.116E-01
RMM:   3    -0.232391663142E+04   -0.47011E-04   -0.17345E-03  4006   0.288E-02    0.103E-01
RMM:   4    -0.232391655799E+04    0.73434E-04   -0.21990E-04  2996   0.850E-03    0.648E-02
RMM:   5    -0.232391652364E+04    0.34347E-04   -0.73209E-05  2948   0.536E-03    0.356E-02
RMM:   6    -0.232391651088E+04    0.12760E-04   -0.48759E-05  3025   0.541E-03    0.172E-02
RMM:   7    -0.232391651162E+04   -0.74151E-06   -0.16950E-05  2905   0.452E-03
  68 F= -.23452844E+04 E0= -.23452844E+04  d E =-.659318E-03  mag=     4.0000
       N       E                     dE             d eps       ncg     rms          rms(c)
DAV:   1    -0.232391496117E+04    0.15497E-02   -0.15206E-01  4504   0.360E-01    0.116E-01
RMM:   2    -0.232391662088E+04   -0.16597E-02   -0.16795E-02  6252   0.750E-02    0.117E-01
RMM:   3    -0.232391667956E+04   -0.58683E-04   -0.17638E-03  4021   0.290E-02    0.108E-01
RMM:   4    -0.232391659458E+04    0.84981E-04   -0.22549E-04  2994   0.848E-03    0.626E-02
RMM:   5    -0.232391656122E+04    0.33359E-04   -0.68996E-05  2947   0.529E-03    0.348E-02
RMM:   6    -0.232391654580E+04    0.15424E-04   -0.48441E-05  2994   0.543E-03    0.942E-03
RMM:   7    -0.232391654593E+04   -0.13149E-06   -0.86754E-06  2913   0.405E-03
  69 F= -.23452846E+04 E0= -.23452846E+04  d E =-.842111E-03  mag=     4.0000
       N       E                     dE             d eps       ncg     rms          rms(c)
DAV:   1    -0.232391541080E+04    0.11350E-02   -0.22159E-01  4504   0.451E-01    0.146E-01
RMM:   2    -0.232391750375E+04   -0.20929E-02   -0.21852E-02  6089   0.900E-02    0.113E-01
RMM:   3    -0.232391769509E+04   -0.19135E-03   -0.24285E-03  4680   0.380E-02    0.132E-01
RMM:   4    -0.232391753646E+04    0.15863E-03   -0.29966E-04  3067   0.102E-02    0.746E-02
RMM:   5    -0.232391749577E+04    0.40694E-04   -0.10628E-04  2963   0.713E-03    0.455E-02
RMM:   6    -0.232391747414E+04    0.21626E-04   -0.79444E-05  3362   0.704E-03    0.174E-02
RMM:   7    -0.232391747821E+04   -0.40694E-05   -0.22034E-05  2927   0.540E-03
  70 F= -.23452856E+04 E0= -.23452856E+04  d E =-.101623E-02  mag=     4.0000
       N       E                     dE             d eps       ncg     rms          rms(c)
DAV:   1    -0.232391679370E+04    0.68044E-03   -0.80953E-02  4576   0.273E-01    0.890E-02
RMM:   2    -0.232391756753E+04   -0.77383E-03   -0.80483E-03  6103   0.552E-02    0.702E-02
RMM:   3    -0.232391764212E+04   -0.74591E-04   -0.88886E-04  3670   0.236E-02    0.832E-02
RMM:   4    -0.232391757816E+04    0.63961E-04   -0.10996E-04  2948   0.694E-03    0.444E-02
RMM:   5    -0.232391756461E+04    0.13558E-04   -0.40531E-05  2941   0.439E-03    0.287E-02
RMM:   6    -0.232391755756E+04    0.70414E-05   -0.28227E-05  2928   0.436E-03
  71 F= -.23452858E+04 E0= -.23452858E+04  d E =-.114687E-02  mag=     4.0000
       N       E                     dE             d eps       ncg     rms          rms(c)
DAV:   1    -0.232391638131E+04    0.11833E-02   -0.16837E-01  4504   0.391E-01    0.127E-01
RMM:   2    -0.232391828373E+04   -0.19024E-02   -0.20281E-02  6172   0.806E-02    0.834E-02
RMM:   3    -0.232391843606E+04   -0.15233E-03   -0.23295E-03  4258   0.342E-02    0.753E-02
RMM:   4    -0.232391837808E+04    0.57980E-04   -0.21061E-04  3011   0.872E-03    0.393E-02
RMM:   5    -0.232391837698E+04    0.11050E-05   -0.77696E-05  3018   0.655E-03
  72 F= -.23452866E+04 E0= -.23452866E+04  d E =-.797207E-03  mag=     4.0000
       N       E                     dE             d eps       ncg     rms          rms(c)
DAV:   1    -0.232391675615E+04    0.16219E-02   -0.15151E-01  4532   0.371E-01    0.128E-01
RMM:   2    -0.232391860381E+04   -0.18477E-02   -0.18568E-02  6354   0.788E-02    0.141E-01
RMM:   3    -0.232391869787E+04   -0.94060E-04   -0.21915E-03  4345   0.318E-02    0.127E-01
RMM:   4    -0.232391858470E+04    0.11317E-03   -0.25264E-04  2991   0.911E-03    0.626E-02
RMM:   5    -0.232391855195E+04    0.32747E-04   -0.82220E-05  2952   0.599E-03    0.425E-02
RMM:   6    -0.232391853785E+04    0.14109E-04   -0.69422E-05  3069   0.620E-03    0.238E-02
RMM:   7    -0.232391853429E+04    0.35514E-05   -0.24150E-05  2926   0.514E-03
  73 F= -.23452867E+04 E0= -.23452867E+04  d E =-.934392E-03  mag=     4.0000
       N       E                     dE             d eps       ncg     rms          rms(c)
DAV:   1    -0.232391759805E+04    0.93980E-03   -0.13371E-01  4532   0.340E-01    0.112E-01
RMM:   2    -0.232391912975E+04   -0.15317E-02   -0.16260E-02  6233   0.719E-02    0.807E-02
RMM:   3    -0.232391928701E+04   -0.15726E-03   -0.18603E-03  3902   0.292E-02    0.948E-02
RMM:   4    -0.232391921838E+04    0.68637E-04   -0.18014E-04  2980   0.799E-03    0.463E-02
RMM:   5    -0.232391922143E+04   -0.30510E-05   -0.62939E-05  2955   0.486E-03
  74 F= -.23452874E+04 E0= -.23452874E+04  d E =-.672577E-03  mag=     4.0000
       N       E                     dE             d eps       ncg     rms          rms(c)
DAV:   1    -0.232391761539E+04    0.16030E-02   -0.14983E-01  4504   0.360E-01    0.121E-01
RMM:   2    -0.232391936598E+04   -0.17506E-02   -0.18257E-02  6367   0.770E-02    0.104E-01
RMM:   3    -0.232391951279E+04   -0.14681E-03   -0.21831E-03  4161   0.305E-02    0.101E-01
RMM:   4    -0.232391942051E+04    0.92284E-04   -0.20243E-04  2981   0.858E-03    0.475E-02
RMM:   5    -0.232391944271E+04   -0.22207E-04   -0.82427E-05  2946   0.561E-03    0.630E-02
RMM:   6    -0.232391939849E+04    0.44228E-04   -0.54321E-05  2971   0.547E-03    0.134E-02
RMM:   7    -0.232391939965E+04   -0.11591E-05   -0.11109E-05  2927   0.417E-03
  75 F= -.23452875E+04 E0= -.23452875E+04  d E =-.836215E-03  mag=     4.0000
       N       E                     dE             d eps       ncg     rms          rms(c)
DAV:   1    -0.232391805900E+04    0.13395E-02   -0.20011E-01  4504   0.411E-01    0.135E-01
RMM:   2    -0.232392016318E+04   -0.21042E-02   -0.21609E-02  6156   0.865E-02    0.123E-01
RMM:   3    -0.232392035916E+04   -0.19598E-03   -0.22630E-03  4371   0.335E-02    0.144E-01
RMM:   4    -0.232392017351E+04    0.18565E-03   -0.25241E-04  3007   0.967E-03    0.513E-02
RMM:   5    -0.232392017842E+04   -0.49108E-05   -0.97780E-05  2967   0.653E-03
  76 F= -.23452884E+04 E0= -.23452884E+04  d E =-.896224E-03  mag=     4.0000
       N       E                     dE             d eps       ncg     rms          rms(c)
DAV:   1    -0.232391773756E+04    0.24359E-02   -0.23537E-01  4504   0.446E-01    0.148E-01
RMM:   2    -0.232392024145E+04   -0.25039E-02   -0.25520E-02  6305   0.952E-02    0.145E-01
RMM:   3    -0.232392043100E+04   -0.18955E-03   -0.27530E-03  4783   0.359E-02    0.150E-01
RMM:   4    -0.232392023238E+04    0.19863E-03   -0.29552E-04  3078   0.104E-02    0.595E-02
RMM:   5    -0.232392024027E+04   -0.78952E-05   -0.12396E-04  2975   0.729E-03    0.633E-02
RMM:   6    -0.232392019068E+04    0.49592E-04   -0.84079E-05  3300   0.703E-03    0.130E-02
RMM:   7    -0.232392019039E+04    0.29054E-06   -0.12140E-05  2942   0.484E-03
  77 F= -.23452886E+04 E0= -.23452886E+04  d E =-.103708E-02  mag=     4.0000
       N       E                     dE             d eps       ncg     rms          rms(c)
DAV:   1    -0.232391925864E+04    0.93203E-03   -0.14360E-01  4544   0.332E-01    0.108E-01
RMM:   2    -0.232392075911E+04   -0.15005E-02   -0.15026E-02  6200   0.699E-02    0.116E-01
RMM:   3    -0.232392084122E+04   -0.82107E-04   -0.15030E-03  3828   0.259E-02    0.109E-01
RMM:   4    -0.232392073838E+04    0.10284E-03   -0.16345E-04  2969   0.787E-03    0.417E-02
RMM:   5    -0.232392074273E+04   -0.43499E-05   -0.63669E-05  2963   0.495E-03
  78 F= -.23452893E+04 E0= -.23452893E+04  d E =-.677858E-03  mag=     4.0000
       N       E                     dE             d eps       ncg     rms          rms(c)
DAV:   1    -0.232390785689E+04    0.12881E-01   -0.12869E+00  4504   0.993E-01    0.322E-01
RMM:   2    -0.232392132593E+04   -0.13469E-01   -0.13507E-01  6199   0.209E-01    0.355E-01
RMM:   3    -0.232392200060E+04   -0.67467E-03   -0.13488E-02  5881   0.762E-02    0.319E-01
RMM:   4    -0.232392111864E+04    0.88197E-03   -0.14797E-03  4674   0.201E-02    0.128E-01
RMM:   5    -0.232392114933E+04   -0.30697E-04   -0.58014E-04  3812   0.129E-02    0.135E-01
RMM:   6    -0.232392094600E+04    0.20333E-03   -0.39870E-04  4372   0.121E-02    0.353E-02
RMM:   7    -0.232392095229E+04   -0.62906E-05   -0.73748E-05  2990   0.801E-03
  79 F= -.23452898E+04 E0= -.23452898E+04  d E =-.126826E-02  mag=     4.0000
       N       E                     dE             d eps       ncg     rms          rms(c)
DAV:   1    -0.232392019053E+04    0.75547E-03   -0.18101E-01  4532   0.371E-01    0.124E-01
RMM:   2    -0.232392187383E+04   -0.16833E-02   -0.17240E-02  6150   0.781E-02    0.112E-01
RMM:   3    -0.232392202816E+04   -0.15433E-03   -0.16969E-03  4285   0.287E-02    0.128E-01
RMM:   4    -0.232392188939E+04    0.13876E-03   -0.20767E-04  2974   0.880E-03    0.522E-02
RMM:   5    -0.232392189489E+04   -0.54961E-05   -0.84923E-05  2967   0.585E-03
  80 F= -.23452909E+04 E0= -.23452909E+04  d E =-.102687E-02  mag=     4.0000
       N       E                     dE             d eps       ncg     rms          rms(c)
DAV:   1    -0.232391190360E+04    0.99858E-02   -0.11556E+00  4504   0.937E-01    0.313E-01
RMM:   2    -0.232392282319E+04   -0.10920E-01   -0.10991E-01  6233   0.197E-01    0.326E-01
RMM:   3    -0.232392344357E+04   -0.62038E-03   -0.10934E-02  5896   0.714E-02    0.308E-01
RMM:   4    -0.232392265619E+04    0.78738E-03   -0.13192E-03  4805   0.198E-02    0.134E-01
RMM:   5    -0.232392266344E+04   -0.72446E-05   -0.54196E-04  3658   0.129E-02    0.131E-01
RMM:   6    -0.232392246802E+04    0.19542E-03   -0.31752E-04  4291   0.118E-02    0.271E-02
RMM:   7    -0.232392247067E+04   -0.26528E-05   -0.45847E-05  2988   0.735E-03
  81 F= -.23452917E+04 E0= -.23452917E+04  d E =-.182001E-02  mag=     4.0000
       N       E                     dE             d eps       ncg     rms          rms(c)
DAV:   1    -0.232392035879E+04    0.21092E-02   -0.36719E-01  4504   0.506E-01    0.171E-01
RMM:   2    -0.232392357932E+04   -0.32205E-02   -0.32610E-02  6166   0.105E-01    0.169E-01
RMM:   3    -0.232392372991E+04   -0.15059E-03   -0.32865E-03  5114   0.390E-02    0.157E-01
RMM:   4    -0.232392354663E+04    0.18328E-03   -0.40119E-04  3142   0.109E-02    0.848E-02
RMM:   5    -0.232392352395E+04    0.22687E-04   -0.16279E-04  2984   0.766E-03    0.694E-02
RMM:   6    -0.232392347124E+04    0.52703E-04   -0.10095E-04  3208   0.713E-03    0.173E-02
RMM:   7    -0.232392347449E+04   -0.32448E-05   -0.24324E-05  2957   0.533E-03
  82 F= -.23452928E+04 E0= -.23452928E+04  d E =-.115714E-02  mag=     4.0000
       N       E                     dE             d eps       ncg     rms          rms(c)
DAV:   1    -0.232391960998E+04    0.38613E-02   -0.48415E-01  4504   0.581E-01    0.196E-01
RMM:   2    -0.232392381435E+04   -0.42044E-02   -0.42763E-02  6246   0.120E-01    0.192E-01
RMM:   3    -0.232392403816E+04   -0.22380E-03   -0.43066E-03  5361   0.439E-02    0.181E-01
RMM:   4    -0.232392379092E+04    0.24723E-03   -0.52151E-04  3384   0.122E-02    0.955E-02
RMM:   5    -0.232392376413E+04    0.26788E-04   -0.21416E-04  3024   0.861E-03    0.802E-02
RMM:   6    -0.232392369038E+04    0.73756E-04   -0.13497E-04  3506   0.812E-03    0.166E-02
RMM:   7    -0.232392369266E+04   -0.22876E-05   -0.23156E-05  2974   0.544E-03
  83 F= -.23452932E+04 E0= -.23452932E+04  d E =-.155342E-02  mag=     4.0000
       N       E                     dE             d eps       ncg     rms          rms(c)
DAV:   1    -0.232392251607E+04    0.11743E-02   -0.29606E-01  4520   0.467E-01    0.166E-01
RMM:   2    -0.232392477918E+04   -0.22631E-02   -0.23625E-02  6078   0.953E-02    0.133E-01
RMM:   3    -0.232392496111E+04   -0.18193E-03   -0.24285E-03  5068   0.371E-02    0.152E-01
RMM:   4    -0.232392475422E+04    0.20689E-03   -0.31953E-04  3382   0.107E-02    0.719E-02
RMM:   5    -0.232392476336E+04   -0.91383E-05   -0.14173E-04  2965   0.789E-03    0.738E-02
RMM:   6    -0.232392469933E+04    0.64025E-04   -0.97623E-05  3382   0.719E-03    0.127E-02
RMM:   7    -0.232392469937E+04   -0.40134E-07   -0.13494E-05  2949   0.491E-03
  84 F= -.23452944E+04 E0= -.23452944E+04  d E =-.121286E-02  mag=     4.0000
       N       E                     dE             d eps       ncg     rms          rms(c)
DAV:   1    -0.232392391502E+04    0.78431E-03   -0.11376E-01  4560   0.289E-01    0.103E-01
RMM:   2    -0.232392479146E+04   -0.87644E-03   -0.91332E-03  6051   0.596E-02    0.829E-02
RMM:   3    -0.232392485983E+04   -0.68374E-04   -0.93947E-04  3830   0.236E-02    0.940E-02
RMM:   4    -0.232392478217E+04    0.77664E-04   -0.12288E-04  2956   0.750E-03    0.450E-02
RMM:   5    -0.232392478467E+04   -0.25011E-05   -0.56139E-05  2940   0.509E-03
  85 F= -.23452946E+04 E0= -.23452946E+04  d E =-.142661E-02  mag=     4.0000
       N       E                     dE             d eps       ncg     rms          rms(c)
DAV:   1    -0.232392449840E+04    0.28376E-03   -0.10854E-01  4544   0.296E-01    0.112E-01
RMM:   2    -0.232392536061E+04   -0.86220E-03   -0.89935E-03  6050   0.619E-02    0.918E-02
RMM:   3    -0.232392546370E+04   -0.10309E-03   -0.98428E-04  3847   0.246E-02    0.118E-01
RMM:   4    -0.232392533221E+04    0.13150E-03   -0.13470E-04  2979   0.824E-03    0.422E-02
RMM:   5    -0.232392533858E+04   -0.63709E-05   -0.64635E-05  2941   0.583E-03
  86 F= -.23452954E+04 E0= -.23452954E+04  d E =-.714175E-03  mag=     4.0000
       N       E                     dE             d eps       ncg     rms          rms(c)
DAV:   1    -0.232392451327E+04    0.81894E-03   -0.10421E-01  4544   0.290E-01    0.109E-01
RMM:   2    -0.232392533696E+04   -0.82369E-03   -0.86805E-03  6101   0.607E-02    0.853E-02
RMM:   3    -0.232392544197E+04   -0.10502E-03   -0.95750E-04  3788   0.245E-02    0.114E-01
RMM:   4    -0.232392532028E+04    0.12169E-03   -0.12982E-04  2967   0.815E-03    0.416E-02
RMM:   5    -0.232392532797E+04   -0.76941E-05   -0.64701E-05  2949   0.576E-03
  87 F= -.23452955E+04 E0= -.23452955E+04  d E =-.861137E-03  mag=     4.0000
       N       E                     dE             d eps       ncg     rms          rms(c)
DAV:   1    -0.232392494979E+04    0.37049E-03   -0.84904E-02  4544   0.259E-01    0.901E-02
RMM:   2    -0.232392576598E+04   -0.81619E-03   -0.83525E-03  6224   0.548E-02    0.843E-02
RMM:   3    -0.232392583309E+04   -0.67115E-04   -0.90490E-04  3445   0.211E-02    0.925E-02
RMM:   4    -0.232392575602E+04    0.77076E-04   -0.99548E-05  2955   0.697E-03    0.350E-02
RMM:   5    -0.232392576139E+04   -0.53766E-05   -0.47332E-05  2947   0.447E-03
  88 F= -.23452961E+04 E0= -.23452961E+04  d E =-.557486E-03  mag=     4.0000
       N       E                     dE             d eps       ncg     rms          rms(c)
DAV:   1    -0.232392364461E+04    0.21114E-02   -0.24389E-01  4504   0.438E-01    0.152E-01
RMM:   2    -0.232392597223E+04   -0.23276E-02   -0.23818E-02  6081   0.901E-02    0.145E-01
RMM:   3    -0.232392615900E+04   -0.18677E-03   -0.25187E-03  4486   0.355E-02    0.158E-01
RMM:   4    -0.232392593345E+04    0.22555E-03   -0.28068E-04  3034   0.102E-02    0.590E-02
RMM:   5    -0.232392594426E+04   -0.10808E-04   -0.13236E-04  2977   0.721E-03    0.635E-02
RMM:   6    -0.232392589619E+04    0.48068E-04   -0.84057E-05  3113   0.672E-03    0.141E-02
RMM:   7    -0.232392589688E+04   -0.69104E-06   -0.14087E-05  2949   0.485E-03
[...]
RMM:   2    -0.232393544737E+04   -0.25440E-03   -0.27900E-03  5852   0.368E-02    0.352E-02
RMM:   3    -0.232393546570E+04   -0.18332E-04   -0.27287E-04  3304   0.161E-02    0.381E-02
RMM:   4    -0.232393545558E+04    0.10114E-04   -0.39924E-05  2935   0.471E-03    0.261E-02
RMM:   5    -0.232393545836E+04   -0.27738E-05   -0.23611E-05  2925   0.366E-03
 122 F= -.23453074E+04 E0= -.23453074E+04  d E =-.521140E-03  mag=     4.0000
       N       E                     dE             d eps       ncg     rms          rms(c)
DAV:   1    -0.232393380526E+04    0.16503E-02   -0.46935E-01  4536   0.609E-01    0.191E-01
RMM:   2    -0.232393607281E+04   -0.22676E-02   -0.24935E-02  5935   0.109E-01    0.108E-01
RMM:   3    -0.232393625256E+04   -0.17974E-03   -0.25081E-03  5006   0.464E-02    0.125E-01
RMM:   4    -0.232393611855E+04    0.13400E-03   -0.35892E-04  3564   0.121E-02    0.704E-02
RMM:   5    -0.232393613825E+04   -0.19695E-04   -0.19426E-04  3933   0.101E-02    0.839E-02
RMM:   6    -0.232393607225E+04    0.65993E-04   -0.79733E-05  2966   0.705E-03    0.228E-02
RMM:   7    -0.232393606650E+04    0.57561E-05   -0.92628E-06  2918   0.333E-03
 123 F= -.23453081E+04 E0= -.23453081E+04  d E =-.121702E-02  mag=     4.0000
       N       E                     dE             d eps       ncg     rms          rms(c)
DAV:   1    -0.232393628066E+04   -0.20841E-03   -0.86714E-02  4520   0.260E-01    0.884E-02
RMM:   2    -0.232393673608E+04   -0.45541E-03   -0.50070E-03  5951   0.486E-02    0.589E-02
RMM:   3    -0.232393682948E+04   -0.93408E-04   -0.57095E-04  3671   0.214E-02    0.101E-01
RMM:   4    -0.232393672377E+04    0.10571E-03   -0.85686E-05  2947   0.694E-03    0.303E-02
RMM:   5    -0.232393673053E+04   -0.67546E-05   -0.55317E-05  2951   0.524E-03
 124 F= -.23453088E+04 E0= -.23453088E+04  d E =-.696950E-03  mag=     4.0000
       N       E                     dE             d eps       ncg     rms          rms(c)
DAV:   1    -0.232393621409E+04    0.50969E-03   -0.13716E-01  4504   0.327E-01    0.111E-01
RMM:   2    -0.232393692475E+04   -0.71067E-03   -0.79258E-03  6046   0.621E-02    0.684E-02
RMM:   3    -0.232393705365E+04   -0.12890E-03   -0.86639E-04  3981   0.266E-02    0.114E-01
RMM:   4    -0.232393691589E+04    0.13776E-03   -0.13203E-04  2977   0.830E-03    0.403E-02
RMM:   5    -0.232393693230E+04   -0.16411E-04   -0.83880E-05  2983   0.637E-03    0.550E-02
RMM:   6    -0.232393689797E+04    0.34334E-04   -0.42008E-05  2943   0.574E-03    0.911E-03
RMM:   7    -0.232393689686E+04    0.11051E-05   -0.67246E-06  2893   0.340E-03
 125 F= -.23453090E+04 E0= -.23453090E+04  d E =-.905565E-03  mag=     4.0000
       N       E                     dE             d eps       ncg     rms          rms(c)
DAV:   1    -0.232393674552E+04    0.15245E-03   -0.11545E-01  4504   0.287E-01    0.950E-02
RMM:   2    -0.232393745225E+04   -0.70673E-03   -0.74229E-03  6039   0.552E-02    0.785E-02
RMM:   3    -0.232393756331E+04   -0.11106E-03   -0.84982E-04  3624   0.228E-02    0.115E-01
RMM:   4    -0.232393742944E+04    0.13387E-03   -0.10218E-04  2956   0.743E-03    0.277E-02
RMM:   5    -0.232393742481E+04    0.46269E-05   -0.58463E-05  3100   0.548E-03
 126 F= -.23453095E+04 E0= -.23453095E+04  d E =-.534272E-03  mag=     4.0000
       N       E                     dE             d eps       ncg     rms          rms(c)
DAV:   1    -0.232393658237E+04    0.84707E-03   -0.17747E-01  4504   0.356E-01    0.118E-01
RMM:   2    -0.232393767561E+04   -0.10932E-02   -0.11441E-02  6223   0.700E-02    0.966E-02
RMM:   3    -0.232393781879E+04   -0.14318E-03   -0.13219E-03  3947   0.274E-02    0.130E-01
RMM:   4    -0.232393764764E+04    0.17115E-03   -0.16573E-04  2982   0.903E-03    0.500E-02
RMM:   5    -0.232393765022E+04   -0.25850E-05   -0.95084E-05  2959   0.634E-03
 127 F= -.23453098E+04 E0= -.23453098E+04  d E =-.768765E-03  mag=     4.0000
       N       E                     dE             d eps       ncg     rms          rms(c)
DAV:   1    -0.232393766358E+04   -0.15940E-04   -0.16111E-01  4504   0.354E-01    0.128E-01
RMM:   2    -0.232393849312E+04   -0.82955E-03   -0.90492E-03  5980   0.674E-02    0.833E-02
RMM:   3    -0.232393865216E+04   -0.15904E-03   -0.10383E-03  4151   0.293E-02    0.129E-01
RMM:   4    -0.232393846632E+04    0.18584E-03   -0.17067E-04  3128   0.934E-03    0.499E-02
RMM:   5    -0.232393847932E+04   -0.13002E-04   -0.91240E-05  2964   0.709E-03    0.595E-02
RMM:   6    -0.232393844122E+04    0.38107E-04   -0.52752E-05  3021   0.615E-03    0.153E-02
RMM:   7    -0.232393844074E+04    0.47426E-06   -0.14548E-05  2913   0.482E-03
 128 F= -.23453106E+04 E0= -.23453106E+04  d E =-.800401E-03  mag=     4.0000
       N       E                     dE             d eps       ncg     rms          rms(c)
DAV:   1    -0.232393831721E+04    0.12401E-03   -0.46445E-02  4608   0.189E-01    0.676E-02
RMM:   2    -0.232393855436E+04   -0.23714E-03   -0.26198E-03  5878   0.360E-02    0.414E-02
RMM:   3    -0.232393860839E+04   -0.54034E-04   -0.28602E-04  3240   0.155E-02    0.768E-02
RMM:   4    -0.232393854729E+04    0.61100E-04   -0.47580E-05  2925   0.533E-03    0.209E-02
RMM:   5    -0.232393855024E+04   -0.29525E-05   -0.28244E-05  2950   0.394E-03
 129 F= -.23453107E+04 E0= -.23453107E+04  d E =-.915551E-03  mag=     4.0000
       N       E                     dE             d eps       ncg     rms          rms(c)
DAV:   1    -0.232393851904E+04    0.28248E-04   -0.11342E-01  4504   0.293E-01    0.103E-01
RMM:   2    -0.232393916579E+04   -0.64675E-03   -0.69481E-03  6012   0.559E-02    0.737E-02
RMM:   3    -0.232393922359E+04   -0.57794E-04   -0.75582E-04  3808   0.240E-02    0.868E-02
RMM:   4    -0.232393913779E+04    0.85798E-04   -0.10821E-04  2971   0.782E-03    0.346E-02
RMM:   5    -0.232393916759E+04   -0.29800E-04   -0.69645E-05  2985   0.581E-03    0.631E-02
RMM:   6    -0.232393912638E+04    0.41209E-04   -0.41331E-05  2936   0.527E-03    0.128E-02
RMM:   7    -0.232393912600E+04    0.38107E-06   -0.10256E-05  2911   0.352E-03
 130 F= -.23453113E+04 E0= -.23453113E+04  d E =-.592294E-03  mag=     4.0000
       N       E                     dE             d eps       ncg     rms          rms(c)
DAV:   1    -0.232393900514E+04    0.12124E-03   -0.33671E-02  4576   0.159E-01    0.559E-02
RMM:   2    -0.232393919674E+04   -0.19160E-03   -0.20868E-03  5935   0.307E-02    0.351E-02
RMM:   3    -0.232393921374E+04   -0.16997E-04   -0.20707E-04  3132   0.135E-02    0.414E-02
RMM:   4    -0.232393919336E+04    0.20382E-04   -0.31533E-05  2924   0.446E-03    0.179E-02
RMM:   5    -0.232393919270E+04    0.65162E-06   -0.17213E-05  2949   0.331E-03
 131 F= -.23453114E+04 E0= -.23453113E+04  d E =-.668315E-03  mag=     4.0000
       N       E                     dE             d eps       ncg     rms          rms(c)
DAV:   1    -0.232393915892E+04    0.34441E-04   -0.10758E-01  4504   0.286E-01    0.103E-01
RMM:   2    -0.232393982945E+04   -0.67054E-03   -0.68924E-03  5993   0.551E-02    0.949E-02
RMM:   3    -0.232393989691E+04   -0.67455E-04   -0.86296E-04  3750   0.238E-02    0.111E-01
RMM:   4    -0.232393979117E+04    0.10574E-03   -0.11898E-04  2980   0.769E-03    0.454E-02
RMM:   5    -0.232393978502E+04    0.61452E-05   -0.57774E-05  2944   0.538E-03
 132 F= -.23453120E+04 E0= -.23453120E+04  d E =-.602658E-03  mag=     4.0000
       N       E                     dE             d eps       ncg     rms          rms(c)
DAV:   1    -0.232393940048E+04    0.39068E-03   -0.82625E-02  4504   0.251E-01    0.897E-02
RMM:   2    -0.232393988573E+04   -0.48525E-03   -0.52760E-03  6079   0.486E-02    0.614E-02
RMM:   3    -0.232393994623E+04   -0.60499E-04   -0.62244E-04  3563   0.206E-02    0.811E-02
RMM:   4    -0.232393987989E+04    0.66338E-04   -0.81930E-05  2940   0.695E-03    0.331E-02
RMM:   5    -0.232393989911E+04   -0.19215E-04   -0.52570E-05  2951   0.501E-03    0.517E-02
RMM:   6    -0.232393986797E+04    0.31139E-04   -0.29517E-05  2944   0.460E-03    0.707E-03
RMM:   7    -0.232393986752E+04    0.45437E-06   -0.46112E-06  2871   0.305E-03
 133 F= -.23453120E+04 E0= -.23453120E+04  d E =-.695019E-03  mag=     4.0000
       N       E                     dE             d eps       ncg     rms          rms(c)
DAV:   1    -0.232393977312E+04    0.94849E-04   -0.12493E-01  4504   0.296E-01    0.105E-01
RMM:   2    -0.232394042495E+04   -0.65183E-03   -0.70628E-03  5949   0.557E-02    0.737E-02
RMM:   3    -0.232394048905E+04   -0.64106E-04   -0.76093E-04  3681   0.226E-02    0.920E-02
RMM:   4    -0.232394041241E+04    0.76640E-04   -0.11347E-04  2963   0.763E-03    0.435E-02
RMM:   5    -0.232394042558E+04   -0.13163E-04   -0.65338E-05  2956   0.546E-03    0.544E-02
RMM:   6    -0.232394039315E+04    0.32426E-04   -0.42532E-05  2960   0.522E-03    0.115E-02
RMM:   7    -0.232394039353E+04   -0.37687E-06   -0.10244E-05  2910   0.388E-03
 134 F= -.23453126E+04 E0= -.23453126E+04  d E =-.601187E-03  mag=     4.0000
       N       E                     dE             d eps       ncg     rms          rms(c)
DAV:   1    -0.232393997401E+04    0.41915E-03   -0.99067E-02  4504   0.264E-01    0.932E-02
RMM:   2    -0.232394049406E+04   -0.52005E-03   -0.56453E-03  5960   0.501E-02    0.629E-02
RMM:   3    -0.232394054892E+04   -0.54865E-04   -0.58999E-04  3597   0.205E-02    0.817E-02
RMM:   4    -0.232394048677E+04    0.62157E-04   -0.89166E-05  2942   0.690E-03    0.370E-02
RMM:   5    -0.232394050213E+04   -0.15360E-04   -0.53791E-05  2958   0.494E-03    0.514E-02
RMM:   6    -0.232394047228E+04    0.29849E-04   -0.33688E-05  2944   0.471E-03    0.896E-03
RMM:   7    -0.232394047247E+04   -0.19185E-06   -0.70496E-06  2898   0.329E-03
 135 F= -.23453128E+04 E0= -.23453128E+04  d E =-.747870E-03  mag=     4.0000
       N       E                     dE             d eps       ncg     rms          rms(c)
DAV:   1    -0.232394029397E+04    0.17831E-03   -0.14600E-01  4504   0.311E-01    0.110E-01
RMM:   2    -0.232394108079E+04   -0.78682E-03   -0.86192E-03  5980   0.594E-02    0.707E-02
RMM:   3    -0.232394114251E+04   -0.61727E-04   -0.84373E-04  3733   0.239E-02    0.831E-02
RMM:   4    -0.232394106399E+04    0.78519E-04   -0.12957E-04  3000   0.807E-03    0.373E-02
RMM:   5    -0.232394108329E+04   -0.19301E-04   -0.80747E-05  3005   0.628E-03    0.596E-02
RMM:   6    -0.232394105070E+04    0.32595E-04   -0.39202E-05  2942   0.538E-03    0.158E-02
RMM:   7    -0.232394104955E+04    0.11530E-05   -0.86005E-06  2868   0.291E-03
 136 F= -.23453135E+04 E0= -.23453135E+04  d E =-.681601E-03  mag=     4.0000
       N       E                     dE             d eps       ncg     rms          rms(c)
DAV:   1    -0.232394070936E+04    0.34134E-03   -0.76907E-02  4504   0.226E-01    0.803E-02
RMM:   2    -0.232394112827E+04   -0.41891E-03   -0.45741E-03  6017   0.440E-02    0.519E-02
RMM:   3    -0.232394115975E+04   -0.31488E-04   -0.44891E-04  3408   0.179E-02    0.612E-02
RMM:   4    -0.232394111832E+04    0.41438E-04   -0.67862E-05  2949   0.616E-03    0.261E-02
RMM:   5    -0.232394111918E+04   -0.86347E-06   -0.39550E-05  2969   0.469E-03
 137 F= -.23453136E+04 E0= -.23453136E+04  d E =-.827637E-03  mag=     4.0000
       N       E                     dE             d eps       ncg     rms          rms(c)
DAV:   1    -0.232394098271E+04    0.13560E-03   -0.15033E-01  4504   0.329E-01    0.120E-01
RMM:   2    -0.232394191665E+04   -0.93394E-03   -0.97203E-03  6041   0.651E-02    0.100E-01
RMM:   3    -0.232394205842E+04   -0.14177E-03   -0.11306E-03  3961   0.272E-02    0.141E-01
RMM:   4    -0.232394185795E+04    0.20047E-03   -0.16292E-04  3013   0.893E-03    0.478E-02
RMM:   5    -0.232394185932E+04   -0.13626E-05   -0.83383E-05  2952   0.630E-03
 138 F= -.23453144E+04 E0= -.23453144E+04  d E =-.758902E-03  mag=     4.0000
       N       E                     dE             d eps       ncg     rms          rms(c)
DAV:   1    -0.232394114554E+04    0.71242E-03   -0.13776E-01  4504   0.315E-01    0.114E-01
RMM:   2    -0.232394195082E+04   -0.80528E-03   -0.88584E-03  6052   0.623E-02    0.685E-02
RMM:   3    -0.232394204594E+04   -0.95124E-04   -0.98775E-04  3956   0.270E-02    0.910E-02
RMM:   4    -0.232394195243E+04    0.93513E-04   -0.13491E-04  2973   0.838E-03    0.397E-02
RMM:   5    -0.232394198081E+04   -0.28386E-04   -0.84305E-05  2982   0.629E-03    0.681E-02
RMM:   6    -0.232394193434E+04    0.46477E-04   -0.42126E-05  2943   0.559E-03    0.113E-02
RMM:   7    -0.232394193348E+04    0.85328E-06   -0.75064E-06  2915   0.329E-03
 139 F= -.23453145E+04 E0= -.23453145E+04  d E =-.852199E-03  mag=     4.0000
       N       E                     dE             d eps       ncg     rms          rms(c)
DAV:   1    -0.232394187068E+04    0.63654E-04   -0.10227E-01  4504   0.250E-01    0.888E-02
RMM:   2    -0.232394245714E+04   -0.58646E-03   -0.63702E-03  6028   0.484E-02    0.576E-02
RMM:   3    -0.232394254260E+04   -0.85464E-04   -0.70188E-04  3402   0.201E-02    0.877E-02
RMM:   4    -0.232394246804E+04    0.74568E-04   -0.93207E-05  2944   0.663E-03    0.383E-02
RMM:   5    -0.232394247321E+04   -0.51790E-05   -0.56740E-05  2952   0.451E-03
 140 F= -.23453150E+04 E0= -.23453150E+04  d E =-.514999E-03  mag=     4.0000
       N       E                     dE             d eps       ncg     rms          rms(c)
DAV:   1    -0.232393961261E+04    0.28554E-02   -0.55723E-01  4504   0.585E-01    0.208E-01
RMM:   2    -0.232394281202E+04   -0.31994E-02   -0.34720E-02  6027   0.112E-01    0.137E-01
RMM:   3    -0.232394328027E+04   -0.46825E-03   -0.37519E-03  5274   0.459E-02    0.204E-01
RMM:   4    -0.232394285496E+04    0.42531E-03   -0.51766E-04  3502   0.129E-02    0.876E-02
RMM:   5    -0.232394291086E+04   -0.55898E-04   -0.30617E-04  3235   0.101E-02    0.111E-01
RMM:   6    -0.232394278696E+04    0.12390E-03   -0.17296E-04  3499   0.871E-03    0.198E-02
RMM:   7    -0.232394278569E+04    0.12691E-05   -0.24395E-05  2963   0.531E-03
 141 F= -.23453152E+04 E0= -.23453152E+04  d E =-.772646E-03  mag=     4.0000
       N       E                     dE             d eps       ncg     rms          rms(c)
DAV:   1    -0.232394291206E+04   -0.12510E-03   -0.81057E-02  4592   0.214E-01    0.765E-02
RMM:   2    -0.232394336199E+04   -0.44993E-03   -0.48404E-03  5994   0.414E-02    0.497E-02
RMM:   3    -0.232394340229E+04   -0.40296E-04   -0.49350E-04  3154   0.170E-02    0.561E-02
RMM:   4    -0.232394337007E+04    0.32223E-04   -0.70740E-05  2962   0.579E-03    0.281E-02
RMM:   5    -0.232394337717E+04   -0.71021E-05   -0.38964E-05  2989   0.410E-03
 142 F= -.23453158E+04 E0= -.23453158E+04  d E =-.579582E-03  mag=     4.0000
       N       E                     dE             d eps       ncg     rms          rms(c)
DAV:   1    -0.232394029710E+04    0.30730E-02   -0.72822E-01  4504   0.643E-01    0.228E-01
RMM:   2    -0.232394427334E+04   -0.39762E-02   -0.43248E-02  6020   0.122E-01    0.148E-01
RMM:   3    -0.232394462470E+04   -0.35136E-03   -0.44452E-03  5405   0.499E-02    0.171E-01
RMM:   4    -0.232394432306E+04    0.30164E-03   -0.63062E-04  4013   0.140E-02    0.792E-02
RMM:   5    -0.232394426805E+04    0.55006E-04   -0.28245E-04  3934   0.107E-02    0.216E-02
RMM:   6    -0.232394427793E+04   -0.98740E-05   -0.39313E-05  2997   0.632E-03
 143 F= -.23453167E+04 E0= -.23453167E+04  d E =-.144784E-02  mag=     4.0000
       N       E                     dE             d eps       ncg     rms          rms(c)
DAV:   1    -0.232394473765E+04   -0.46959E-03   -0.54672E-02  4640   0.205E-01    0.789E-02
RMM:   2    -0.232394503738E+04   -0.29973E-03   -0.32022E-03  5948   0.398E-02    0.603E-02
RMM:   3    -0.232394510699E+04   -0.69610E-04   -0.42161E-04  3417   0.178E-02    0.953E-02
RMM:   4    -0.232394501925E+04    0.87737E-04   -0.66044E-05  2945   0.621E-03    0.264E-02
RMM:   5    -0.232394502501E+04   -0.57560E-05   -0.34726E-05  2941   0.456E-03
 144 F= -.23453175E+04 E0= -.23453175E+04  d E =-.764146E-03  mag=     4.0000
       N       E                     dE             d eps       ncg     rms          rms(c)
DAV:   1    -0.232394468131E+04    0.33795E-03   -0.14770E-01  4504   0.337E-01    0.129E-01
RMM:   2    -0.232394543694E+04   -0.75563E-03   -0.85532E-03  5966   0.654E-02    0.798E-02
RMM:   3    -0.232394554175E+04   -0.10481E-03   -0.10367E-03  4385   0.297E-02    0.111E-01
RMM:   4    -0.232394540769E+04    0.13405E-03   -0.15578E-04  3222   0.895E-03    0.423E-02
RMM:   5    -0.232394544721E+04   -0.39520E-04   -0.10188E-04  3056   0.747E-03    0.746E-02
RMM:   6    -0.232394538292E+04    0.64290E-04   -0.55449E-05  2985   0.647E-03    0.944E-03
RMM:   7    -0.232394538142E+04    0.15079E-05   -0.91468E-06  2915   0.417E-03
 145 F= -.23453178E+04 E0= -.23453178E+04  d E =-.114940E-02  mag=     4.0000
       N       E                     dE             d eps       ncg     rms          rms(c)
DAV:   1    -0.232394549203E+04   -0.10910E-03   -0.51594E-02  4576   0.193E-01    0.711E-02
RMM:   2    -0.232394582966E+04   -0.33763E-03   -0.35499E-03  5956   0.380E-02    0.601E-02
RMM:   3    -0.232394587597E+04   -0.46311E-04   -0.45947E-04  3251   0.167E-02    0.778E-02
RMM:   4    -0.232394582245E+04    0.53517E-04   -0.56664E-05  2938   0.551E-03    0.287E-02
RMM:   5    -0.232394582479E+04   -0.23430E-05   -0.30498E-05  2921   0.383E-03
 146 F= -.23453183E+04 E0= -.23453183E+04  d E =-.474026E-03  mag=     4.0000
       N       E                     dE             d eps       ncg     rms          rms(c)
DAV:   1    -0.232394520201E+04    0.62044E-03   -0.12436E-01  4504   0.300E-01    0.111E-01
RMM:   2    -0.232394601585E+04   -0.81385E-03   -0.85512E-03  6020   0.583E-02    0.951E-02
RMM:   3    -0.232394611940E+04   -0.10355E-03   -0.11034E-03  3759   0.254E-02    0.118E-01
RMM:   4    -0.232394599196E+04    0.12744E-03   -0.13537E-04  2990   0.822E-03    0.455E-02
RMM:   5    -0.232394599941E+04   -0.74492E-05   -0.76011E-05  2953   0.605E-03
 147 F= -.23453185E+04 E0= -.23453185E+04  d E =-.697382E-03  mag=     4.0000
       N       E                     dE             d eps       ncg     rms          rms(c)
DAV:   1    -0.232394609363E+04   -0.10166E-03   -0.81029E-02  4504   0.253E-01    0.944E-02
RMM:   2    -0.232394650226E+04   -0.40863E-03   -0.44725E-03  5957   0.488E-02    0.734E-02
RMM:   3    -0.232394657618E+04   -0.73925E-04   -0.59032E-04  3674   0.213E-02    0.103E-01
RMM:   4    -0.232394647708E+04    0.99103E-04   -0.88553E-05  2967   0.729E-03    0.356E-02
RMM:   5    -0.232394648540E+04   -0.83180E-05   -0.55071E-05  2938   0.544E-03
 148 F= -.23453191E+04 E0= -.23453191E+04  d E =-.578435E-03  mag=     4.0000
       N       E                     dE             d eps       ncg     rms          rms(c)
DAV:   1    -0.232394628500E+04    0.19208E-03   -0.42693E-02  4600   0.184E-01    0.687E-02
RMM:   2    -0.232394650831E+04   -0.22330E-03   -0.23978E-03  5987   0.358E-02    0.549E-02
RMM:   3    -0.232394653488E+04   -0.26573E-04   -0.30799E-04  3321   0.154E-02    0.684E-02
RMM:   4    -0.232394648969E+04    0.45187E-04   -0.47504E-05  2931   0.564E-03    0.302E-02
RMM:   5    -0.232394648879E+04    0.90616E-06   -0.28420E-05  2929   0.407E-03
 149 F= -.23453192E+04 E0= -.23453192E+04  d E =-.649466E-03  mag=     4.0000
       N       E                     dE             d eps       ncg     rms          rms(c)
DAV:   1    -0.232394659552E+04   -0.10583E-03   -0.63985E-02  4504   0.234E-01    0.847E-02
RMM:   2    -0.232394693248E+04   -0.33697E-03   -0.37094E-03  5954   0.448E-02    0.606E-02
RMM:   3    -0.232394696346E+04   -0.30973E-04   -0.45567E-04  3603   0.194E-02    0.723E-02
RMM:   4    -0.232394691039E+04    0.53067E-04   -0.71477E-05  2945   0.666E-03    0.405E-02
RMM:   5    -0.232394690369E+04    0.67014E-05   -0.37001E-05  2915   0.471E-03
 150 F= -.23453197E+04 E0= -.23453197E+04  d E =-.515990E-03  mag=     4.0000
