       N       E                     dE             d eps       ncg     rms          rms(c)
DAV:   1     0.121106140560E+05    0.12111E+05   -0.82062E+05  4560   0.139E+03
DAV:   2    -0.122238878397E+04   -0.13333E+05   -0.12809E+05  5400   0.319E+02
DAV:   3    -0.249032433182E+04   -0.12679E+04   -0.12586E+04  5440   0.102E+02
DAV:   4    -0.251696538137E+04   -0.26641E+02   -0.26521E+02  5760   0.179E+01
DAV:   5    -0.251767739964E+04   -0.71202E+00   -0.71081E+00  5680   0.252E+00    0.170E+02
RMM:   6    -0.147228462252E+04    0.10454E+04   -0.18806E+03  4491   0.373E+01    0.721E+01
RMM:   7    -0.163666571768E+04   -0.16438E+03   -0.25575E+02  4926   0.130E+01    0.481E+01
RMM:   8    -0.170075818170E+04   -0.64092E+02   -0.35795E+01  4852   0.695E+00    0.376E+01
RMM:   9    -0.182207134936E+04   -0.12131E+03   -0.66191E+01  4682   0.774E+00    0.252E+01
RMM:  10    -0.196340256237E+04   -0.14133E+03   -0.53278E+01  4750   0.676E+00    0.167E+01
RMM:  11    -0.208237618294E+04   -0.11897E+03   -0.59156E+01  4497   0.577E+00    0.131E+01
RMM:  12    -0.223920452440E+04   -0.15683E+03   -0.13839E+02  4492   0.819E+00    0.689E+00
RMM:  13    -0.230199941382E+04   -0.62795E+02   -0.65926E+01  4586   0.568E+00    0.382E+00
RMM:  14    -0.231107596177E+04   -0.90765E+01   -0.12809E+01  5025   0.310E+00    0.262E+00
RMM:  15    -0.231312463474E+04   -0.20487E+01   -0.32254E+00  5222   0.111E+00    0.188E+00
RMM:  16    -0.231445827548E+04   -0.13336E+01   -0.99525E-01  4757   0.721E-01    0.116E+00
RMM:  17    -0.231491310960E+04   -0.45483E+00   -0.18866E-01  5250   0.391E-01    0.496E-01
RMM:  18    -0.231503912500E+04   -0.12602E+00   -0.43903E-02  4787   0.163E-01    0.303E-01
RMM:  19    -0.231507365194E+04   -0.34527E-01   -0.13507E-02  4573   0.106E-01    0.158E-01
RMM:  20    -0.231509968916E+04   -0.26037E-01   -0.82761E-03  4511   0.750E-02    0.122E-01
RMM:  21    -0.231511040696E+04   -0.10718E-01   -0.39143E-03  4619   0.565E-02    0.742E-02
RMM:  22    -0.231512295164E+04   -0.12545E-01   -0.42621E-03  4493   0.467E-02    0.439E-02
RMM:  23    -0.231512803463E+04   -0.50830E-02   -0.18408E-03  4676   0.386E-02    0.351E-02
RMM:  24    -0.231513016175E+04   -0.21271E-02   -0.80587E-04  4380   0.204E-02    0.212E-02
RMM:  25    -0.231513153076E+04   -0.13690E-02   -0.43123E-04  4057   0.171E-02    0.112E-02
RMM:  26    -0.231513178655E+04   -0.25578E-03   -0.12539E-04  3823   0.106E-02    0.633E-03
RMM:  27    -0.231513193566E+04   -0.14911E-03   -0.51418E-05  3641   0.689E-03    0.346E-03
RMM:  28    -0.231513201471E+04   -0.79054E-04   -0.24082E-05  3261   0.483E-03    0.225E-03
RMM:  29    -0.231513206031E+04   -0.45600E-04   -0.12987E-05  3034   0.345E-03    0.124E-03
RMM:  30    -0.231513207092E+04   -0.10614E-04   -0.59869E-06  2813   0.274E-03    0.760E-04
RMM:  31    -0.231513207239E+04   -0.14680E-05   -0.23437E-06  2463   0.184E-03
   1 F= -.23352769E+04 E0= -.23352769E+04  d E =-.845107E-06  mag=     3.0000
       N       E                     dE             d eps       ncg     rms          rms(c)
DAV:   1    -0.231512185240E+04    0.10219E-01   -0.21597E+00  4480   0.808E-01    0.311E-01
RMM:   2    -0.231512123407E+04    0.61833E-03   -0.12041E-02  3837   0.508E-02    0.184E-01
RMM:   3    -0.231512067980E+04    0.55427E-03   -0.35652E-03  4069   0.220E-02    0.431E-02
RMM:   4    -0.231512065345E+04    0.26350E-04   -0.33752E-04  3620   0.177E-02    0.171E-02
RMM:   5    -0.231512064433E+04    0.91187E-05   -0.38226E-05  3021   0.298E-03
   2 F= -.23352652E+04 E0= -.23352652E+04  d E =-.262680E-05  mag=     3.0000
       N       E                     dE             d eps       ncg     rms          rms(c)
DAV:   1    -0.231510900644E+04    0.11647E-01   -0.86070E+00  4560   0.161E+00    0.635E-01
RMM:   2    -0.231510556651E+04    0.34399E-02   -0.43664E-02  4043   0.996E-02    0.367E-01
RMM:   3    -0.231510343759E+04    0.21289E-02   -0.14395E-02  4654   0.476E-02    0.930E-02
RMM:   4    -0.231510329234E+04    0.14524E-03   -0.12202E-03  4500   0.253E-02    0.347E-02
RMM:   5    -0.231510325408E+04    0.38263E-04   -0.13289E-04  3481   0.522E-03    0.208E-02
RMM:   6    -0.231510324583E+04    0.82474E-05   -0.50346E-05  3190   0.421E-03
   3 F= -.23352484E+04 E0= -.23352484E+04  d E =-.269242E-06  mag=     3.0000
       N       E                     dE             d eps       ncg     rms          rms(c)
DAV:   1    -0.231509268118E+04    0.10573E-01   -0.43917E+00  4480   0.119E+00    0.455E-01
RMM:   2    -0.231509074394E+04    0.19372E-02   -0.20995E-02  3934   0.719E-02    0.268E-01
RMM:   3    -0.231508962003E+04    0.11239E-02   -0.81229E-03  4120   0.322E-02    0.485E-02
RMM:   4    -0.231508954455E+04    0.75487E-04   -0.64580E-04  3636   0.272E-02    0.237E-02
RMM:   5    -0.231508952368E+04    0.20864E-04   -0.78314E-05  3295   0.393E-03    0.140E-02
RMM:   6    -0.231508952209E+04    0.15936E-05   -0.15675E-05  2806   0.335E-03
   4 F= -.23352346E+04 E0= -.23352346E+04  d E =-.104545E-05  mag=     3.0000
       N       E                     dE             d eps       ncg     rms          rms(c)
DAV:   1    -0.231513283732E+04   -0.43314E-01   -0.87498E+00  4640   0.164E+00    0.630E-01
RMM:   2    -0.231512883531E+04    0.40020E-02   -0.43836E-02  4016   0.107E-01    0.378E-01
RMM:   3    -0.231512680236E+04    0.20330E-02   -0.13899E-02  4859   0.478E-02    0.122E-01
RMM:   4    -0.231512662889E+04    0.17347E-03   -0.15119E-03  4726   0.225E-02    0.401E-02
RMM:   5    -0.231512658529E+04    0.43609E-04   -0.15612E-04  3607   0.569E-03    0.243E-02
RMM:   6    -0.231512657475E+04    0.10537E-04   -0.54780E-05  3258   0.435E-03    0.117E-02
RMM:   7    -0.231512657497E+04   -0.22659E-06   -0.89176E-06  2794   0.278E-03
   5 F= -.23352712E+04 E0= -.23352712E+04  d E =-.702058E-06  mag=     3.0000
       N       E                     dE             d eps       ncg     rms          rms(c)
DAV:   1    -0.231511051087E+04    0.16064E-01   -0.43429E+00  4480   0.117E+00    0.438E-01
RMM:   2    -0.231510874712E+04    0.17637E-02   -0.21625E-02  3927   0.721E-02    0.257E-01
RMM:   3    -0.231510771570E+04    0.10314E-02   -0.82356E-03  4430   0.341E-02    0.450E-02
RMM:   4    -0.231510759343E+04    0.12227E-03   -0.49310E-04  3725   0.222E-02    0.242E-02
RMM:   5    -0.231510758213E+04    0.11301E-04   -0.83557E-05  3369   0.416E-03    0.141E-02
RMM:   6    -0.231510758110E+04    0.10283E-05   -0.88858E-06  2742   0.317E-03
   6 F= -.23352520E+04 E0= -.23352520E+04  d E =-.122328E-05  mag=     3.0000
       N       E                     dE             d eps       ncg     rms          rms(c)
DAV:   1    -0.231512569828E+04   -0.18116E-01   -0.84436E+00  4560   0.160E+00    0.601E-01
RMM:   2    -0.231512295459E+04    0.27437E-02   -0.58149E-02  3997   0.110E-01    0.360E-01
RMM:   3    -0.231512048446E+04    0.24701E-02   -0.10248E-02  4918   0.521E-02    0.136E-01
RMM:   4    -0.231512047485E+04    0.96124E-05   -0.22659E-03  4523   0.193E-02    0.433E-02
RMM:   5    -0.231512042756E+04    0.47285E-04   -0.19415E-04  3511   0.868E-03    0.245E-02
RMM:   6    -0.231512042659E+04    0.97237E-06   -0.31522E-05  2941   0.344E-03
   7 F= -.23352657E+04 E0= -.23352657E+04  d E =-.595420E-06  mag=     3.0000
       N       E                     dE             d eps       ncg     rms          rms(c)
DAV:   1    -0.231513103967E+04   -0.10612E-01   -0.40422E+00  4560   0.992E-01    0.413E-01
RMM:   2    -0.231513081595E+04    0.22373E-03   -0.24595E-02  3972   0.708E-02    0.228E-01
RMM:   3    -0.231513020043E+04    0.61552E-03   -0.30188E-03  4639   0.306E-02    0.116E-01
RMM:   4    -0.231513032207E+04   -0.12165E-03   -0.10368E-03  4104   0.147E-02    0.438E-02
RMM:   5    -0.231513032046E+04    0.16171E-05   -0.10941E-04  3232   0.890E-03    0.207E-02
RMM:   6    -0.231513032466E+04   -0.42035E-05   -0.25289E-05  2867   0.338E-03
   8 F= -.23352747E+04 E0= -.23352747E+04  d E =-.443904E-07  mag=     3.0000
       N       E                     dE             d eps       ncg     rms          rms(c)
DAV:   1    -0.231512294828E+04    0.73722E-02   -0.81096E+00  4480   0.115E+00    0.561E-01
RMM:   2    -0.231512566497E+04   -0.27167E-02   -0.42374E-02  4109   0.886E-02    0.284E-01
RMM:   3    -0.231512538493E+04    0.28004E-03   -0.39721E-03  4614   0.401E-02    0.153E-01
RMM:   4    -0.231512561993E+04   -0.23500E-03   -0.17382E-03  4096   0.179E-02    0.636E-02
RMM:   5    -0.231512565825E+04   -0.38317E-04   -0.19646E-04  3446   0.118E-02    0.310E-02
RMM:   6    -0.231512566728E+04   -0.90362E-05   -0.43315E-05  3016   0.421E-03
   9 F= -.23352709E+04 E0= -.23352709E+04  d E =-.937166E-05  mag=     3.0000
       N       E                     dE             d eps       ncg     rms          rms(c)
DAV:   1    -0.231512971421E+04   -0.40560E-02   -0.39728E+00  4480   0.906E-01    0.424E-01
RMM:   2    -0.231513087025E+04   -0.11560E-02   -0.22082E-02  4052   0.662E-02    0.228E-01
RMM:   3    -0.231513045249E+04    0.41777E-03   -0.22611E-03  4965   0.282E-02    0.118E-01
RMM:   4    -0.231513049394E+04   -0.41456E-04   -0.11068E-03  4184   0.138E-02    0.443E-02
RMM:   5    -0.231513049816E+04   -0.42191E-05   -0.11199E-04  3249   0.898E-03    0.258E-02
RMM:   6    -0.231513049566E+04    0.24993E-05   -0.26983E-05  2947   0.309E-03
  10 F= -.23352744E+04 E0= -.23352744E+04  d E =-.235283E-06  mag=     3.0000
       N       E                     dE             d eps       ncg     rms          rms(c)
DAV:   1    -0.231510669933E+04    0.23799E-01   -0.82219E+00  4480   0.140E+00    0.692E-01
RMM:   2    -0.231510782380E+04   -0.11245E-02   -0.55687E-02  4276   0.101E-01    0.419E-01
RMM:   3    -0.231510581060E+04    0.20132E-02   -0.67969E-03  5029   0.473E-02    0.226E-01
RMM:   4    -0.231510558076E+04    0.22984E-03   -0.41799E-03  4400   0.233E-02    0.752E-02
RMM:   5    -0.231510553290E+04    0.47861E-04   -0.41988E-04  3739   0.164E-02    0.440E-02
RMM:   6    -0.231510552839E+04    0.45116E-05   -0.79922E-05  3293   0.443E-03
  11 F= -.23352512E+04 E0= -.23352512E+04  d E =-.324095E-05  mag=     3.0000
       N       E                     dE             d eps       ncg     rms          rms(c)
DAV:   1    -0.231512334156E+04   -0.17809E-01   -0.41159E+00  4480   0.971E-01    0.444E-01
RMM:   2    -0.231512504922E+04   -0.17077E-02   -0.36011E-02  4119   0.734E-02    0.261E-01
RMM:   3    -0.231512358570E+04    0.14635E-02   -0.31043E-03  4970   0.305E-02    0.130E-01
RMM:   4    -0.231512351500E+04    0.70695E-04   -0.13459E-03  4411   0.141E-02    0.380E-02
RMM:   5    -0.231512351365E+04    0.13569E-05   -0.11520E-04  3252   0.979E-03    0.224E-02
RMM:   6    -0.231512351484E+04   -0.11949E-05   -0.23860E-05  2953   0.293E-03
  12 F= -.23352684E+04 E0= -.23352684E+04  d E =-.791350E-05  mag=     3.0000
       N       E                     dE             d eps       ncg     rms          rms(c)
DAV:   1    -0.231510292670E+04    0.20587E-01   -0.83617E+00  4480   0.129E+00    0.569E-01
RMM:   2    -0.231510643901E+04   -0.35123E-02   -0.76742E-02  4204   0.112E-01    0.328E-01
RMM:   3    -0.231510367893E+04    0.27601E-02   -0.77295E-03  4797   0.532E-02    0.158E-01
RMM:   4    -0.231510369903E+04   -0.20095E-04   -0.29702E-03  4414   0.217E-02    0.585E-02
RMM:   5    -0.231510364421E+04    0.54819E-04   -0.24896E-04  3637   0.141E-02    0.322E-02
RMM:   6    -0.231510364012E+04    0.40840E-05   -0.13539E-04  3593   0.529E-03    0.137E-02
RMM:   7    -0.231510363921E+04    0.91395E-06   -0.11047E-05  2799   0.398E-03
  13 F= -.23352484E+04 E0= -.23352484E+04  d E =-.876662E-07  mag=     3.0000
       N       E                     dE             d eps       ncg     rms          rms(c)
DAV:   1    -0.231512906401E+04   -0.25424E-01   -0.24139E+00  4480   0.741E-01    0.333E-01
RMM:   2    -0.231513061434E+04   -0.15503E-02   -0.26849E-02  4012   0.633E-02    0.197E-01
RMM:   3    -0.231512975066E+04    0.86368E-03   -0.28927E-03  4810   0.320E-02    0.936E-02
RMM:   4    -0.231512979994E+04   -0.49284E-04   -0.85553E-04  4139   0.123E-02    0.343E-02
RMM:   5    -0.231512977863E+04    0.21318E-04   -0.95814E-05  3217   0.826E-03    0.178E-02
RMM:   6    -0.231512977955E+04   -0.92022E-06   -0.56187E-05  3150   0.372E-03
  14 F= -.23352745E+04 E0= -.23352745E+04  d E =-.738235E-06  mag=     3.0000
       N       E                     dE             d eps       ncg     rms          rms(c)
DAV:   1    -0.231513035882E+04   -0.58020E-03   -0.12576E+00  4640   0.560E-01    0.342E-01
RMM:   2    -0.231513061242E+04   -0.25359E-03   -0.70464E-03  3858   0.383E-02    0.206E-01
RMM:   3    -0.231513058010E+04    0.32319E-04   -0.14167E-03  3876   0.161E-02    0.220E-02
RMM:   4    -0.231513056551E+04    0.14590E-04   -0.90175E-05  3234   0.101E-02    0.124E-02
RMM:   5    -0.231513056183E+04    0.36749E-05   -0.33077E-05  2838   0.255E-03
  15 F= -.23352756E+04 E0= -.23352756E+04  d E =-.960591E-06  mag=     3.0000
       N       E                     dE             d eps       ncg     rms          rms(c)
DAV:   1    -0.231512927963E+04    0.12859E-02   -0.65673E-01  5120   0.406E-01    0.361E-01
RMM:   2    -0.231512783387E+04    0.14458E-02   -0.96916E-03  3879   0.419E-02    0.198E-01
RMM:   3    -0.231512757843E+04    0.25544E-03   -0.39375E-03  4462   0.249E-02    0.573E-02
RMM:   4    -0.231512743702E+04    0.14141E-03   -0.21366E-04  4265   0.817E-03    0.259E-02
RMM:   5    -0.231512743977E+04   -0.27450E-05   -0.98005E-05  3280   0.470E-03
  16 F= -.23352726E+04 E0= -.23352726E+04  d E =-.868333E-06  mag=     3.0000
       N       E                     dE             d eps       ncg     rms          rms(c)
DAV:   1    -0.231511316169E+04    0.14275E-01   -0.14201E+00  5120   0.593E-01    0.622E-01
RMM:   2    -0.231510772115E+04    0.54405E-02   -0.28366E-02  3993   0.736E-02    0.330E-01
RMM:   3    -0.231510669298E+04    0.10282E-02   -0.11247E-02  4712   0.415E-02    0.990E-02
RMM:   4    -0.231510631230E+04    0.38067E-03   -0.59612E-04  4455   0.157E-02    0.444E-02
RMM:   5    -0.231510632446E+04   -0.12161E-04   -0.28141E-04  3737   0.765E-03    0.196E-02
RMM:   6    -0.231510631186E+04    0.12606E-04   -0.28715E-05  2819   0.438E-03    0.756E-03
RMM:   7    -0.231510631279E+04   -0.93201E-06   -0.27223E-05  2619   0.241E-03
  17 F= -.23352508E+04 E0= -.23352508E+04  d E =-.815284E-06  mag=     3.0000
       N       E                     dE             d eps       ncg     rms          rms(c)
DAV:   1    -0.231513016938E+04   -0.23858E-01   -0.68500E-01  5040   0.412E-01    0.365E-01
RMM:   2    -0.231512874074E+04    0.14286E-02   -0.91373E-03  3904   0.402E-02    0.202E-01
RMM:   3    -0.231512846275E+04    0.27799E-03   -0.35228E-03  4461   0.221E-02    0.555E-02
RMM:   4    -0.231512834282E+04    0.11993E-03   -0.24989E-04  4050   0.103E-02    0.203E-02
RMM:   5    -0.231512834765E+04   -0.48250E-05   -0.46861E-05  2982   0.406E-03
  18 F= -.23352733E+04 E0= -.23352733E+04  d E =-.877124E-06  mag=     3.0000
       N       E                     dE             d eps       ncg     rms          rms(c)
DAV:   1    -0.231513181116E+04   -0.34683E-02   -0.12661E+00  4640   0.556E-01    0.343E-01
RMM:   2    -0.231513195041E+04   -0.13925E-03   -0.60767E-03  3824   0.368E-02    0.206E-01
RMM:   3    -0.231513185088E+04    0.99532E-04   -0.13780E-03  4021   0.173E-02    0.271E-02
RMM:   4    -0.231513184401E+04    0.68700E-05   -0.11259E-04  3330   0.971E-03    0.119E-02
RMM:   5    -0.231513184091E+04    0.30979E-05   -0.13683E-05  2625   0.215E-03
  19 F= -.23352766E+04 E0= -.23352766E+04  d E =-.796427E-06  mag=     3.0000
       N       E                     dE             d eps       ncg     rms          rms(c)
DAV:   1    -0.231511754276E+04    0.14301E-01   -0.63606E-01  4720   0.421E-01    0.281E-01
RMM:   2    -0.231511708588E+04    0.45688E-03   -0.58985E-03  3759   0.337E-02    0.162E-01
RMM:   3    -0.231511696098E+04    0.12491E-03   -0.20937E-03  4108   0.168E-02    0.363E-02
RMM:   4    -0.231511690008E+04    0.60894E-04   -0.14504E-04  3316   0.118E-02    0.181E-02
RMM:   5    -0.231511690283E+04   -0.27467E-05   -0.10888E-04  3285   0.405E-03    0.996E-03
RMM:   6    -0.231511689893E+04    0.38953E-05   -0.77921E-06  2452   0.297E-03
  20 F= -.23352617E+04 E0= -.23352617E+04  d E =-.783325E-06  mag=     3.0000
       N       E                     dE             d eps       ncg     rms          rms(c)
DAV:   1    -0.231513726791E+04   -0.20365E-01   -0.12654E+00  4720   0.560E-01    0.459E-01
RMM:   2    -0.231513493391E+04    0.23340E-02   -0.13049E-02  3815   0.527E-02    0.249E-01
RMM:   3    -0.231513460915E+04    0.32475E-03   -0.52632E-03  4567   0.314E-02    0.705E-02
RMM:   4    -0.231513444311E+04    0.16604E-03   -0.25953E-04  4244   0.916E-03    0.311E-02
RMM:   5    -0.231513444721E+04   -0.40993E-05   -0.15543E-04  3445   0.559E-03    0.122E-02
RMM:   6    -0.231513444256E+04    0.46503E-05   -0.11320E-05  2557   0.316E-03
  21 F= -.23352793E+04 E0= -.23352793E+04  d E =-.912817E-06  mag=     3.0000
       N       E                     dE             d eps       ncg     rms          rms(c)
DAV:   1    -0.231513705424E+04   -0.26070E-02   -0.63082E-01  4200   0.389E-01    0.239E-01
RMM:   2    -0.231513706271E+04   -0.84686E-05   -0.31126E-03  3588   0.267E-02    0.142E-01
RMM:   3    -0.231513704513E+04    0.17583E-04   -0.81587E-04  3912   0.118E-02    0.209E-02
RMM:   4    -0.231513703094E+04    0.14184E-04   -0.41984E-05  2793   0.625E-03    0.108E-02
RMM:   5    -0.231513702941E+04    0.15356E-05   -0.27438E-05  2584   0.237E-03
  22 F= -.23352819E+04 E0= -.23352819E+04  d E =-.753593E-06  mag=     3.0000
       N       E                     dE             d eps       ncg     rms          rms(c)
DAV:   1    -0.231512073690E+04    0.16294E-01   -0.12456E+00  4520   0.544E-01    0.377E-01
RMM:   2    -0.231511997639E+04    0.76051E-03   -0.88294E-03  3777   0.417E-02    0.214E-01
RMM:   3    -0.231511975021E+04    0.22618E-03   -0.29230E-03  4848   0.220E-02    0.563E-02
RMM:   4    -0.231511968741E+04    0.62798E-04   -0.13902E-04  3236   0.791E-03    0.284E-02
RMM:   5    -0.231511968474E+04    0.26670E-05   -0.20010E-04  3507   0.533E-03    0.125E-02
RMM:   6    -0.231511967901E+04    0.57327E-05   -0.10081E-05  2592   0.383E-03
  23 F= -.23352645E+04 E0= -.23352645E+04  d E =-.937754E-06  mag=     3.0000
       N       E                     dE             d eps       ncg     rms          rms(c)
DAV:   1    -0.231513512429E+04   -0.15440E-01   -0.64294E-01  4680   0.395E-01    0.354E-01
RMM:   2    -0.231513356197E+04    0.15623E-02   -0.82811E-03  3792   0.406E-02    0.191E-01
RMM:   3    -0.231513329496E+04    0.26701E-03   -0.32530E-03  4439   0.225E-02    0.551E-02
RMM:   4    -0.231513319104E+04    0.10392E-03   -0.16819E-04  3816   0.780E-03    0.241E-02
RMM:   5    -0.231513319532E+04   -0.42808E-05   -0.10020E-04  3208   0.463E-03    0.105E-02
RMM:   6    -0.231513319174E+04    0.35844E-05   -0.81446E-06  2460   0.296E-03
  24 F= -.23352781E+04 E0= -.23352781E+04  d E =-.767546E-06  mag=     3.0000
       N       E                     dE             d eps       ncg     rms          rms(c)
DAV:   1    -0.231512122992E+04    0.11965E-01   -0.12688E+00  4760   0.561E-01    0.461E-01
RMM:   2    -0.231511913035E+04    0.20996E-02   -0.15577E-02  3826   0.533E-02    0.251E-01
RMM:   3    -0.231511860731E+04    0.52304E-03   -0.53134E-03  4854   0.314E-02    0.706E-02
RMM:   4    -0.231511844234E+04    0.16497E-03   -0.29525E-04  3935   0.911E-03    0.302E-02
RMM:   5    -0.231511844418E+04   -0.18402E-05   -0.12578E-04  3369   0.541E-03    0.117E-02
RMM:   6    -0.231511844044E+04    0.37405E-05   -0.98510E-06  2547   0.292E-03
  25 F= -.23352633E+04 E0= -.23352633E+04  d E =-.918848E-06  mag=     3.0000
       N       E                     dE             d eps       ncg     rms          rms(c)
DAV:   1    -0.231512500091E+04   -0.65567E-02   -0.66475E-01  4760   0.422E-01    0.387E-01
RMM:   2    -0.231512256507E+04    0.24358E-02   -0.13083E-02  3929   0.492E-02    0.196E-01
RMM:   3    -0.231512227711E+04    0.28796E-03   -0.52405E-03  4831   0.305E-02    0.682E-02
RMM:   4    -0.231512213022E+04    0.14688E-03   -0.22765E-04  3800   0.884E-03    0.353E-02
RMM:   5    -0.231512214160E+04   -0.11379E-04   -0.23979E-04  3719   0.653E-03    0.191E-02
RMM:   6    -0.231512212809E+04    0.13515E-04   -0.26345E-05  2743   0.369E-03    0.644E-03
RMM:   7    -0.231512212806E+04    0.29962E-07   -0.18067E-05  2404   0.215E-03
  26 F= -.23352666E+04 E0= -.23352666E+04  d E =-.815895E-06  mag=     3.0000
       N       E                     dE             d eps       ncg     rms          rms(c)
DAV:   1    -0.231512420845E+04   -0.20804E-02   -0.13164E+00  5040   0.594E-01    0.565E-01
RMM:   2    -0.231511997624E+04    0.42322E-02   -0.23442E-02  3983   0.663E-02    0.303E-01
RMM:   3    -0.231511912636E+04    0.84989E-03   -0.89832E-03  4941   0.388E-02    0.938E-02
RMM:   4    -0.231511887484E+04    0.25152E-03   -0.43813E-04  4030   0.130E-02    0.481E-02
RMM:   5    -0.231511888179E+04   -0.69514E-05   -0.49587E-04  3938   0.844E-03    0.235E-02
RMM:   6    -0.231511885904E+04    0.22749E-04   -0.39521E-05  2977   0.491E-03    0.832E-03
RMM:   7    -0.231511885943E+04   -0.39178E-06   -0.29859E-05  2613   0.252E-03
  27 F= -.23352641E+04 E0= -.23352641E+04  d E =-.859190E-06  mag=     3.0000
       N       E                     dE             d eps       ncg     rms          rms(c)
DAV:   1    -0.231513120869E+04   -0.12350E-01   -0.63833E-01  4960   0.410E-01    0.359E-01
RMM:   2    -0.231512967129E+04    0.15374E-02   -0.95801E-03  3879   0.411E-02    0.191E-01
RMM:   3    -0.231512938191E+04    0.28939E-03   -0.30090E-03  4593   0.218E-02    0.601E-02
RMM:   4    -0.231512930590E+04    0.76006E-04   -0.16025E-04  3663   0.929E-03    0.284E-02
RMM:   5    -0.231512930986E+04   -0.39588E-05   -0.12975E-04  3369   0.492E-03    0.110E-02
RMM:   6    -0.231512930641E+04    0.34469E-05   -0.88072E-06  2548   0.330E-03
  28 F= -.23352742E+04 E0= -.23352742E+04  d E =-.693879E-06  mag=     3.0000
       N       E                     dE             d eps       ncg     rms          rms(c)
DAV:   1    -0.231513026863E+04   -0.95877E-03   -0.12368E+00  4800   0.563E-01    0.342E-01
RMM:   2    -0.231513019870E+04    0.69935E-04   -0.64378E-03  3831   0.387E-02    0.201E-01
RMM:   3    -0.231513015829E+04    0.40409E-04   -0.17865E-03  4239   0.197E-02    0.418E-02
RMM:   4    -0.231513014301E+04    0.15280E-04   -0.12133E-04  3764   0.862E-03    0.190E-02
RMM:   5    -0.231513013694E+04    0.60716E-05   -0.60808E-05  3071   0.378E-03
  29 F= -.23352750E+04 E0= -.23352750E+04  d E =-.101999E-05  mag=     3.0000
       N       E                     dE             d eps       ncg     rms          rms(c)
DAV:   1    -0.231513346915E+04   -0.33261E-02   -0.62812E-01  4880   0.397E-01    0.273E-01
RMM:   2    -0.231513316084E+04    0.30831E-03   -0.47834E-03  3770   0.314E-02    0.156E-01
RMM:   3    -0.231513307314E+04    0.87700E-04   -0.13690E-03  4222   0.152E-02    0.400E-02
RMM:   4    -0.231513304860E+04    0.24537E-04   -0.79798E-05  3331   0.777E-03    0.191E-02
RMM:   5    -0.231513304596E+04    0.26386E-05   -0.70829E-05  2996   0.356E-03
  30 F= -.23352779E+04 E0= -.23352779E+04  d E =-.115846E-05  mag=     3.0000
       N       E                     dE             d eps       ncg     rms          rms(c)
DAV:   1    -0.231512505317E+04    0.79954E-02   -0.12556E+00  4800   0.569E-01    0.374E-01
RMM:   2    -0.231512462343E+04    0.42974E-03   -0.86727E-03  3838   0.423E-02    0.216E-01
RMM:   3    -0.231512445882E+04    0.16462E-03   -0.24598E-03  4301   0.208E-02    0.527E-02
RMM:   4    -0.231512442353E+04    0.35286E-04   -0.19757E-04  3516   0.111E-02    0.252E-02
RMM:   5    -0.231512441419E+04    0.93397E-05   -0.11827E-04  3230   0.436E-03    0.906E-03
RMM:   6    -0.231512441301E+04    0.11754E-05   -0.65867E-06  2516   0.317E-03
  31 F= -.23352692E+04 E0= -.23352692E+04  d E =-.638805E-06  mag=     3.0000
       N       E                     dE             d eps       ncg     rms          rms(c)
DAV:   1    -0.231513878608E+04   -0.14372E-01   -0.61297E-01  4720   0.398E-01    0.259E-01
RMM:   2    -0.231513876377E+04    0.22307E-04   -0.47507E-03  3830   0.317E-02    0.154E-01
RMM:   3    -0.231513866031E+04    0.10347E-03   -0.91687E-04  4421   0.157E-02    0.606E-02
RMM:   4    -0.231513866675E+04   -0.64403E-05   -0.14269E-04  3579   0.635E-03    0.251E-02
RMM:   5    -0.231513866265E+04    0.40919E-05   -0.33679E-05  2882   0.367E-03
  32 F= -.23352836E+04 E0= -.23352836E+04  d E =-.802508E-06  mag=     3.0000
       N       E                     dE             d eps       ncg     rms          rms(c)
DAV:   1    -0.231512285765E+04    0.15809E-01   -0.11993E+00  4560   0.494E-01    0.366E-01
RMM:   2    -0.231512281709E+04    0.40559E-04   -0.69293E-03  3946   0.351E-02    0.221E-01
RMM:   3    -0.231512258841E+04    0.22868E-03   -0.10976E-03  4589   0.163E-02    0.112E-01
RMM:   4    -0.231512260652E+04   -0.18101E-04   -0.28567E-04  3619   0.790E-03    0.439E-02
RMM:   5    -0.231512261094E+04   -0.44200E-05   -0.63256E-05  2962   0.527E-03
  33 F= -.23352674E+04 E0= -.23352674E+04  d E =-.909725E-06  mag=     3.0000
       N       E                     dE             d eps       ncg     rms          rms(c)
DAV:   1    -0.231513006769E+04   -0.74612E-02   -0.62088E-01  4960   0.350E-01    0.318E-01
RMM:   2    -0.231512938324E+04    0.68444E-03   -0.61611E-03  3977   0.314E-02    0.181E-01
RMM:   3    -0.231512915942E+04    0.22382E-03   -0.77958E-04  4232   0.148E-02    0.960E-02
RMM:   4    -0.231512914959E+04    0.98296E-05   -0.25737E-04  3543   0.708E-03    0.334E-02
RMM:   5    -0.231512915266E+04   -0.30676E-05   -0.51796E-05  2914   0.542E-03
  34 F= -.23352737E+04 E0= -.23352737E+04  d E =-.860108E-06  mag=     3.0000
       N       E                     dE             d eps       ncg     rms          rms(c)
DAV:   1    -0.231511941744E+04    0.97322E-02   -0.13055E+00  5120   0.514E-01    0.613E-01
RMM:   2    -0.231511358499E+04    0.58324E-02   -0.29438E-02  4320   0.638E-02    0.338E-01
RMM:   3    -0.231511236945E+04    0.12155E-02   -0.37859E-03  4870   0.325E-02    0.182E-01
RMM:   4    -0.231511214748E+04    0.22197E-03   -0.99616E-04  3957   0.121E-02    0.665E-02
RMM:   5    -0.231511212652E+04    0.20959E-04   -0.25722E-04  3412   0.104E-02    0.286E-02
RMM:   6    -0.231511212477E+04    0.17520E-05   -0.35303E-05  2952   0.347E-03
  35 F= -.23352573E+04 E0= -.23352573E+04  d E =-.891883E-06  mag=     3.0000
       N       E                     dE             d eps       ncg     rms          rms(c)
DAV:   1    -0.231513897865E+04   -0.26852E-01   -0.62364E-01  5000   0.358E-01    0.319E-01
RMM:   2    -0.231513805230E+04    0.92635E-03   -0.70983E-03  3921   0.337E-02    0.176E-01
RMM:   3    -0.231513778371E+04    0.26859E-03   -0.88033E-04  4504   0.155E-02    0.931E-02
RMM:   4    -0.231513776445E+04    0.19261E-04   -0.30628E-04  3629   0.746E-03    0.310E-02
RMM:   5    -0.231513776414E+04    0.31304E-06   -0.54869E-05  2948   0.486E-03
  36 F= -.23352827E+04 E0= -.23352827E+04  d E =-.628260E-06  mag=     3.0000
       N       E                     dE             d eps       ncg     rms          rms(c)
DAV:   1    -0.231512272279E+04    0.15042E-01   -0.12049E+00  4480   0.488E-01    0.328E-01
RMM:   2    -0.231512308303E+04   -0.36024E-03   -0.58784E-03  3984   0.324E-02    0.206E-01
RMM:   3    -0.231512287186E+04    0.21117E-03   -0.11478E-03  4536   0.170E-02    0.947E-02
RMM:   4    -0.231512286346E+04    0.83980E-05   -0.26767E-04  3778   0.768E-03    0.255E-02
RMM:   5    -0.231512286811E+04   -0.46446E-05   -0.33301E-05  2832   0.435E-03
  37 F= -.23352676E+04 E0= -.23352676E+04  d E =-.129626E-05  mag=     3.0000
       N       E                     dE             d eps       ncg     rms          rms(c)
DAV:   1    -0.231511534785E+04    0.75156E-02   -0.56424E-01  4480   0.355E-01    0.197E-01
RMM:   2    -0.231511563219E+04   -0.28434E-03   -0.39151E-03  3857   0.270E-02    0.118E-01
RMM:   3    -0.231511552744E+04    0.10475E-03   -0.49347E-04  4078   0.131E-02    0.653E-02
RMM:   4    -0.231511553152E+04   -0.40774E-05   -0.11224E-04  3221   0.506E-03    0.299E-02
RMM:   5    -0.231511553337E+04   -0.18455E-05   -0.25784E-05  2842   0.353E-03
  38 F= -.23352610E+04 E0= -.23352610E+04  d E =-.662731E-06  mag=     3.0000
       N       E                     dE             d eps       ncg     rms          rms(c)
DAV:   1    -0.231514430593E+04   -0.28774E-01   -0.10594E+00  4480   0.480E-01    0.246E-01
RMM:   2    -0.231514481995E+04   -0.51403E-03   -0.59525E-03  3959   0.350E-02    0.137E-01
RMM:   3    -0.231514471402E+04    0.10593E-03   -0.67217E-04  4244   0.144E-02    0.783E-02
RMM:   4    -0.231514474335E+04   -0.29331E-04   -0.20511E-04  3408   0.618E-03    0.460E-02
RMM:   5    -0.231514474594E+04   -0.25899E-05   -0.39954E-05  2945   0.426E-03
  39 F= -.23352889E+04 E0= -.23352889E+04  d E =-.102376E-05  mag=     3.0000
       N       E                     dE             d eps       ncg     rms          rms(c)
DAV:   1    -0.231509891507E+04    0.45828E-01   -0.52290E-01  4480   0.347E-01    0.204E-01
RMM:   2    -0.231509917367E+04   -0.25860E-03   -0.51752E-03  3937   0.319E-02    0.109E-01
RMM:   3    -0.231509904781E+04    0.12587E-03   -0.48129E-04  3916   0.132E-02    0.565E-02
RMM:   4    -0.231509904153E+04    0.62778E-05   -0.94502E-05  3409   0.488E-03
  40 F= -.23352449E+04 E0= -.23352449E+04  d E =-.172729E-05  mag=     3.0000
       N       E                     dE             d eps       ncg     rms          rms(c)
DAV:   1    -0.231516151849E+04   -0.62471E-01   -0.10598E+00  4480   0.481E-01    0.244E-01
RMM:   2    -0.231516194904E+04   -0.43055E-03   -0.70242E-03  4022   0.372E-02    0.146E-01
RMM:   3    -0.231516178152E+04    0.16752E-03   -0.72905E-04  4188   0.151E-02    0.825E-02
RMM:   4    -0.231516177657E+04    0.49461E-05   -0.17577E-04  3626   0.635E-03    0.307E-02
RMM:   5    -0.231516177777E+04   -0.12005E-05   -0.31962E-05  2919   0.446E-03
  41 F= -.23353054E+04 E0= -.23353054E+04  d E =-.399626E-06  mag=     3.0000
       N       E                     dE             d eps       ncg     rms          rms(c)
DAV:   1    -0.231512582121E+04    0.35955E-01   -0.52189E-01  4480   0.341E-01    0.210E-01
RMM:   2    -0.231512579369E+04    0.27519E-04   -0.44520E-03  4416   0.283E-02    0.118E-01
RMM:   3    -0.231512563653E+04    0.15716E-03   -0.61461E-04  4173   0.146E-02    0.643E-02
RMM:   4    -0.231512561215E+04    0.24381E-04   -0.13727E-04  3565   0.516E-03    0.240E-02
RMM:   5    -0.231512561437E+04   -0.22236E-05   -0.21510E-05  2833   0.352E-03
  42 F= -.23352713E+04 E0= -.23352713E+04  d E =-.559020E-05  mag=     3.0000
       N       E                     dE             d eps       ncg     rms          rms(c)
DAV:   1    -0.231513770731E+04   -0.12095E-01   -0.10662E+00  4480   0.483E-01    0.298E-01
RMM:   2    -0.231513811546E+04   -0.40815E-03   -0.80459E-03  4119   0.368E-02    0.172E-01
RMM:   3    -0.231513772276E+04    0.39270E-03   -0.12921E-03  4745   0.192E-02    0.954E-02
RMM:   4    -0.231513767336E+04    0.49397E-04   -0.36364E-04  4147   0.815E-03    0.357E-02
RMM:   5    -0.231513768747E+04   -0.14109E-04   -0.41730E-05  3006   0.448E-03    0.148E-02
RMM:   6    -0.231513768804E+04   -0.56504E-06   -0.89150E-06  2757   0.245E-03
  43 F= -.23352815E+04 E0= -.23352815E+04  d E =-.111344E-06  mag=     3.0000
