       N       E                     dE             d eps       ncg     rms          rms(c)
DAV:   1     0.128972663186E+05    0.12897E+05   -0.83542E+05  4488   0.144E+03
DAV:   2    -0.105431980242E+04   -0.13952E+05   -0.13340E+05  5088   0.330E+02
DAV:   3    -0.247698742319E+04   -0.14227E+04   -0.14076E+04  5408   0.112E+02
DAV:   4    -0.252128874110E+04   -0.44301E+02   -0.44045E+02  6696   0.292E+01
DAV:   5    -0.252215531345E+04   -0.86657E+00   -0.86499E+00  5936   0.344E+00    0.170E+02
RMM:   6    -0.149600430660E+04    0.10262E+04   -0.19388E+03  4425   0.384E+01    0.726E+01
RMM:   7    -0.166993043193E+04   -0.17393E+03   -0.28707E+02  5037   0.140E+01    0.567E+01
RMM:   8    -0.171060009397E+04   -0.40670E+02   -0.10269E+02  5223   0.850E+00    0.440E+01
RMM:   9    -0.176975916941E+04   -0.59159E+02   -0.53016E+01  4949   0.692E+00    0.298E+01
RMM:  10    -0.192264689810E+04   -0.15289E+03   -0.62423E+01  5166   0.732E+00    0.295E+01
RMM:  11    -0.197589472513E+04   -0.53248E+02   -0.23134E+01  5345   0.408E+00    0.224E+01
RMM:  12    -0.207287568302E+04   -0.96981E+02   -0.43139E+01  4601   0.515E+00    0.197E+01
RMM:  13    -0.213390026741E+04   -0.61025E+02   -0.25216E+01  4869   0.391E+00    0.126E+01
RMM:  14    -0.225216207392E+04   -0.11826E+03   -0.11071E+02  4417   0.728E+00    0.965E+00
RMM:  15    -0.229024965052E+04   -0.38088E+02   -0.32481E+01  4412   0.469E+00    0.726E+00
RMM:  16    -0.230832843630E+04   -0.18079E+02   -0.19641E+01  4716   0.301E+00    0.374E+00
RMM:  17    -0.231210855545E+04   -0.37801E+01   -0.37512E+00  4746   0.164E+00    0.236E+00
RMM:  18    -0.231384871602E+04   -0.17402E+01   -0.11183E+00  4734   0.743E-01    0.172E+00
RMM:  19    -0.231461422513E+04   -0.76551E+00   -0.29670E-01  4726   0.521E-01    0.917E-01
RMM:  20    -0.231484977347E+04   -0.23555E+00   -0.89731E-02  4774   0.226E-01    0.368E-01
RMM:  21    -0.231493611233E+04   -0.86339E-01   -0.28849E-02  4687   0.159E-01    0.324E-01
RMM:  22    -0.231498121580E+04   -0.45103E-01   -0.15118E-02  4451   0.934E-02    0.145E-01
RMM:  23    -0.231500231977E+04   -0.21104E-01   -0.74012E-03  4523   0.725E-02    0.144E-01
RMM:  24    -0.231501345789E+04   -0.11138E-01   -0.36041E-03  4579   0.467E-02    0.756E-02
RMM:  25    -0.231502050155E+04   -0.70437E-02   -0.19957E-03  4474   0.365E-02    0.603E-02
RMM:  26    -0.231502443215E+04   -0.39306E-02   -0.12245E-03  4302   0.267E-02    0.410E-02
RMM:  27    -0.231502613458E+04   -0.17024E-02   -0.54844E-04  4129   0.200E-02    0.201E-02
RMM:  28    -0.231502674467E+04   -0.61009E-03   -0.19097E-04  3908   0.118E-02    0.968E-03
RMM:  29    -0.231502706818E+04   -0.32351E-03   -0.82332E-05  3610   0.867E-03    0.637E-03
RMM:  30    -0.231502721718E+04   -0.14900E-03   -0.38501E-05  3340   0.588E-03    0.330E-03
RMM:  31    -0.231502728312E+04   -0.65943E-04   -0.16607E-05  2987   0.444E-03    0.224E-03
RMM:  32    -0.231502731760E+04   -0.34479E-04   -0.11075E-05  2895   0.343E-03    0.143E-03
RMM:  33    -0.231502732281E+04   -0.52125E-05   -0.47631E-06  2559   0.276E-03
   1 F= -.23359045E+04 E0= -.23359045E+04  d E =-.233590E+04  mag=     7.9998
       N       E                     dE             d eps       ncg     rms          rms(c)
DAV:   1    -0.231496553428E+04    0.61783E-01   -0.84638E+00  5008   0.168E+00    0.106E+00
RMM:   2    -0.231499168858E+04   -0.26154E-01   -0.55887E-01  5806   0.330E-01    0.733E-01
RMM:   3    -0.231498955835E+04    0.21302E-02   -0.62840E-02  5327   0.142E-01    0.793E-01
RMM:   4    -0.231498396266E+04    0.55957E-02   -0.16870E-02  5297   0.541E-02    0.252E-01
RMM:   5    -0.231498295988E+04    0.10028E-02   -0.40954E-03  4743   0.335E-02    0.106E-01
RMM:   6    -0.231498292605E+04    0.33829E-04   -0.74670E-04  4403   0.154E-02    0.974E-02
RMM:   7    -0.231498287153E+04    0.54518E-04   -0.28501E-04  3338   0.996E-03    0.649E-02
RMM:   8    -0.231498282993E+04    0.41601E-04   -0.49513E-05  2922   0.541E-03    0.165E-02
RMM:   9    -0.231498282690E+04    0.30291E-05   -0.22928E-05  2913   0.413E-03
   2 F= -.23358612E+04 E0= -.23358612E+04  d E =0.433611E-01  mag=     7.9999
       N       E                     dE             d eps       ncg     rms          rms(c)
DAV:   1    -0.231505102386E+04   -0.68194E-01   -0.32421E+00  4752   0.102E+00    0.659E-01
RMM:   2    -0.231505972386E+04   -0.87000E-02   -0.20315E-01  5829   0.207E-01    0.441E-01
RMM:   3    -0.231505900602E+04    0.71784E-03   -0.25692E-02  5186   0.930E-02    0.454E-01
RMM:   4    -0.231505716030E+04    0.18457E-02   -0.64525E-03  5131   0.343E-02    0.157E-01
RMM:   5    -0.231505681410E+04    0.34620E-03   -0.13701E-03  4491   0.207E-02    0.603E-02
RMM:   6    -0.231505677573E+04    0.38375E-04   -0.19850E-04  3497   0.951E-03    0.315E-02
RMM:   7    -0.231505676005E+04    0.15680E-04   -0.42522E-05  2998   0.584E-03    0.106E-02
RMM:   8    -0.231505675836E+04    0.16833E-05   -0.12428E-05  2905   0.381E-03
   3 F= -.23359344E+04 E0= -.23359344E+04  d E =-.298562E-01  mag=     7.9999
       N       E                     dE             d eps       ncg     rms          rms(c)
DAV:   1    -0.231505546231E+04    0.12977E-02   -0.28725E+00  4624   0.136E+00    0.617E-01
RMM:   2    -0.231510899267E+04   -0.53530E-01   -0.56091E-01  5933   0.308E-01    0.412E-01
RMM:   3    -0.231511352766E+04   -0.45350E-02   -0.64857E-02  5378   0.150E-01    0.274E-01
RMM:   4    -0.231511342275E+04    0.10490E-03   -0.67882E-03  4962   0.297E-02    0.172E-01
RMM:   5    -0.231511302599E+04    0.39677E-03   -0.10560E-03  4653   0.192E-02    0.992E-02
RMM:   6    -0.231511299302E+04    0.32971E-04   -0.54165E-04  4634   0.135E-02    0.106E-01
RMM:   7    -0.231511292025E+04    0.72765E-04   -0.17673E-04  3100   0.929E-03    0.475E-02
RMM:   8    -0.231511290257E+04    0.17679E-04   -0.50534E-05  2908   0.493E-03    0.195E-02
RMM:   9    -0.231511289648E+04    0.60894E-05   -0.12494E-05  2877   0.330E-03
   4 F= -.23359906E+04 E0= -.23359906E+04  d E =-.561817E-01  mag=     8.0000
       N       E                     dE             d eps       ncg     rms          rms(c)
DAV:   1    -0.231507028286E+04    0.42620E-01   -0.31017E+00  4576   0.141E+00    0.640E-01
RMM:   2    -0.231512779248E+04   -0.57510E-01   -0.60397E-01  5898   0.320E-01    0.419E-01
RMM:   3    -0.231513286710E+04   -0.50746E-02   -0.71244E-02  5322   0.155E-01    0.281E-01
RMM:   4    -0.231513279658E+04    0.70520E-04   -0.74484E-03  4970   0.310E-02    0.177E-01
RMM:   5    -0.231513235514E+04    0.44144E-03   -0.11739E-03  4732   0.201E-02    0.101E-01
RMM:   6    -0.231513228963E+04    0.65507E-04   -0.55117E-04  4643   0.137E-02    0.939E-02
RMM:   7    -0.231513222926E+04    0.60368E-04   -0.17899E-04  3227   0.964E-03    0.415E-02
RMM:   8    -0.231513221601E+04    0.13248E-04   -0.40508E-05  2908   0.487E-03    0.209E-02
RMM:   9    -0.231513220862E+04    0.73901E-05   -0.14054E-05  2875   0.331E-03
   5 F= -.23360099E+04 E0= -.23360099E+04  d E =-.755717E-01  mag=     8.0000
       N       E                     dE             d eps       ncg     rms          rms(c)
DAV:   1    -0.231513524561E+04   -0.30296E-02   -0.32738E+00  4560   0.165E+00    0.694E-01
RMM:   2    -0.231517391595E+04   -0.38670E-01   -0.40899E-01  5745   0.318E-01    0.358E-01
RMM:   3    -0.231517708684E+04   -0.31709E-02   -0.48862E-02  5164   0.154E-01    0.300E-01
RMM:   4    -0.231517660414E+04    0.48270E-03   -0.53077E-03  5093   0.326E-02    0.157E-01
RMM:   5    -0.231517625290E+04    0.35125E-03   -0.11127E-03  4830   0.219E-02    0.820E-02
RMM:   6    -0.231517617817E+04    0.74726E-04   -0.41496E-04  4620   0.135E-02    0.507E-02
RMM:   7    -0.231517615822E+04    0.19952E-04   -0.82448E-05  3344   0.940E-03    0.155E-02
RMM:   8    -0.231517615493E+04    0.32868E-05   -0.17356E-05  2909   0.374E-03
   6 F= -.23360538E+04 E0= -.23360538E+04  d E =-.438364E-01  mag=     8.0000
       N       E                     dE             d eps       ncg     rms          rms(c)
DAV:   1    -0.231511096534E+04    0.65193E-01   -0.70239E+00  4528   0.242E+00    0.102E+00
RMM:   2    -0.231519427958E+04   -0.83314E-01   -0.88393E-01  5794   0.469E-01    0.522E-01
RMM:   3    -0.231520100914E+04   -0.67296E-02   -0.10434E-01  5211   0.222E-01    0.451E-01
RMM:   4    -0.231519988480E+04    0.11243E-02   -0.11186E-02  5314   0.478E-02    0.238E-01
RMM:   5    -0.231519912104E+04    0.76376E-03   -0.24666E-03  4941   0.309E-02    0.128E-01
RMM:   6    -0.231519894914E+04    0.17189E-03   -0.98806E-04  4843   0.198E-02    0.938E-02
RMM:   7    -0.231519891573E+04    0.33412E-04   -0.28826E-04  4016   0.142E-02    0.677E-02
RMM:   8    -0.231519887194E+04    0.43792E-04   -0.78029E-05  3017   0.558E-03    0.197E-02
RMM:   9    -0.231519886238E+04    0.95632E-05   -0.21399E-05  2914   0.399E-03
   7 F= -.23360764E+04 E0= -.23360764E+04  d E =-.664731E-01  mag=     8.0000
       N       E                     dE             d eps       ncg     rms          rms(c)
DAV:   1    -0.231522055368E+04   -0.21682E-01   -0.19747E+00  4608   0.102E+00    0.398E-01
RMM:   2    -0.231524039752E+04   -0.19844E-01   -0.20621E-01  6026   0.197E-01    0.238E-01
RMM:   3    -0.231524210399E+04   -0.17065E-02   -0.22201E-02  5151   0.914E-02    0.181E-01
RMM:   4    -0.231524203731E+04    0.66679E-04   -0.24341E-03  4154   0.189E-02    0.115E-01
RMM:   5    -0.231524190651E+04    0.13080E-03   -0.48940E-04  3807   0.124E-02    0.730E-02
RMM:   6    -0.231524187881E+04    0.27695E-04   -0.23385E-04  3495   0.962E-03    0.497E-02
RMM:   7    -0.231524186903E+04    0.97881E-05   -0.59671E-05  2919   0.642E-03
   8 F= -.23361194E+04 E0= -.23361194E+04  d E =-.430022E-01  mag=     8.0000
       N       E                     dE             d eps       ncg     rms          rms(c)
DAV:   1    -0.231514928707E+04    0.92592E-01   -0.17734E+01  4464   0.304E+00    0.122E+00
RMM:   2    -0.231532641994E+04   -0.17713E+00   -0.18581E+00  6020   0.598E-01    0.726E-01
RMM:   3    -0.231534226775E+04   -0.15848E-01   -0.20723E-01  5381   0.280E-01    0.622E-01
RMM:   4    -0.231534098525E+04    0.12825E-02   -0.22884E-02  5819   0.575E-02    0.363E-01
RMM:   5    -0.231533966025E+04    0.13250E-02   -0.44184E-03  5025   0.333E-02    0.219E-01
RMM:   6    -0.231533930974E+04    0.35051E-03   -0.23307E-03  4919   0.260E-02    0.101E-01
RMM:   7    -0.231533926578E+04    0.43958E-04   -0.35461E-04  4275   0.144E-02    0.688E-02
RMM:   8    -0.231533923279E+04    0.32995E-04   -0.13811E-04  3010   0.640E-03    0.434E-02
RMM:   9    -0.231533921280E+04    0.19991E-04   -0.46013E-05  2902   0.466E-03    0.123E-02
RMM:  10    -0.231533920918E+04    0.36193E-05   -0.16714E-05  2909   0.366E-03
   9 F= -.23362171E+04 E0= -.23362171E+04  d E =-.140648E+00  mag=     8.0000
       N       E                     dE             d eps       ncg     rms          rms(c)
DAV:   1    -0.231455985869E+04    0.77935E+00   -0.70870E+01  4472   0.612E+00    0.250E+00
RMM:   2    -0.231528179685E+04   -0.72194E+00   -0.76358E+00  6188   0.126E+00    0.148E+00
RMM:   3    -0.231534509231E+04   -0.63295E-01   -0.83603E-01  5580   0.533E-01    0.139E+00
RMM:   4    -0.231533710284E+04    0.79895E-02   -0.88726E-02  6123   0.116E-01    0.771E-01
RMM:   5    -0.231533147569E+04    0.56271E-02   -0.19095E-02  5404   0.667E-02    0.466E-01
RMM:   6    -0.231533019827E+04    0.12774E-02   -0.10287E-02  5051   0.519E-02    0.230E-01
RMM:   7    -0.231533018379E+04    0.14472E-04   -0.23709E-03  5109   0.324E-02    0.226E-01
RMM:   8    -0.231532976477E+04    0.41902E-03   -0.70566E-04  4377   0.124E-02    0.729E-02
RMM:   9    -0.231532969728E+04    0.67491E-04   -0.25194E-04  3604   0.921E-03    0.271E-02
RMM:  10    -0.231532968287E+04    0.14412E-04   -0.54655E-05  3217   0.592E-03    0.147E-02
RMM:  11    -0.231532967380E+04    0.90744E-05   -0.19813E-05  2901   0.524E-03
  10 F= -.23362094E+04 E0= -.23362094E+04  d E =-.133013E+00  mag=     8.0000
       N       E                     dE             d eps       ncg     rms          rms(c)
DAV:   1    -0.231511867242E+04    0.21101E+00   -0.24068E+01  4464   0.368E+00    0.140E+00
RMM:   2    -0.231536022499E+04   -0.24155E+00   -0.25060E+00  6093   0.716E-01    0.853E-01
RMM:   3    -0.231537905315E+04   -0.18828E-01   -0.25714E-01  5434   0.296E-01    0.644E-01
RMM:   4    -0.231537842254E+04    0.63061E-03   -0.27404E-02  5654   0.653E-02    0.422E-01
RMM:   5    -0.231537705766E+04    0.13649E-02   -0.63127E-03  5253   0.399E-02    0.335E-01
RMM:   6    -0.231537638167E+04    0.67599E-03   -0.30617E-03  5037   0.298E-02    0.176E-01
RMM:   7    -0.231537633744E+04    0.44228E-04   -0.80746E-04  4638   0.167E-02    0.154E-01
RMM:   8    -0.231537615890E+04    0.17854E-03   -0.22884E-04  3344   0.919E-03    0.320E-02
RMM:   9    -0.231537614451E+04    0.14388E-04   -0.64948E-05  3021   0.579E-03    0.170E-02
RMM:  10    -0.231537614087E+04    0.36424E-05   -0.20309E-05  2909   0.442E-03
  11 F= -.23362546E+04 E0= -.23362546E+04  d E =-.178185E+00  mag=     8.0000
       N       E                     dE             d eps       ncg     rms          rms(c)
DAV:   1    -0.231544744823E+04   -0.71304E-01   -0.49772E+00  4512   0.169E+00    0.626E-01
RMM:   2    -0.231547453734E+04   -0.27089E-01   -0.31327E-01  5700   0.304E-01    0.324E-01
RMM:   3    -0.231547662798E+04   -0.20906E-02   -0.30773E-02  5039   0.132E-01    0.259E-01
RMM:   4    -0.231547669386E+04   -0.65873E-04   -0.41584E-03  5130   0.333E-02    0.240E-01
RMM:   5    -0.231547624211E+04    0.45175E-03   -0.14132E-03  4885   0.251E-02    0.977E-02
RMM:   6    -0.231547624421E+04   -0.20963E-05   -0.33479E-04  4378   0.134E-02    0.611E-02
RMM:   7    -0.231547623028E+04    0.13928E-04   -0.11683E-04  3087   0.847E-03    0.437E-02
RMM:   8    -0.231547621915E+04    0.11127E-04   -0.32044E-05  2910   0.439E-03    0.131E-02
RMM:   9    -0.231547622044E+04   -0.12864E-05   -0.94263E-06  2892   0.301E-03
  12 F= -.23363554E+04 E0= -.23363554E+04  d E =-.100765E+00  mag=     8.0000
       N       E                     dE             d eps       ncg     rms          rms(c)
DAV:   1    -0.231544396521E+04    0.32254E-01   -0.19082E+01  4472   0.329E+00    0.123E+00
RMM:   2    -0.231554812303E+04   -0.10416E+00   -0.12017E+00  5653   0.609E-01    0.634E-01
RMM:   3    -0.231555585835E+04   -0.77353E-02   -0.11998E-01  4938   0.264E-01    0.454E-01
RMM:   4    -0.231555695041E+04   -0.10921E-02   -0.17153E-02  5166   0.701E-02    0.515E-01
RMM:   5    -0.231555484554E+04    0.21049E-02   -0.55807E-03  5106   0.488E-02    0.208E-01
RMM:   6    -0.231555478212E+04    0.63428E-04   -0.12015E-03  4705   0.238E-02    0.773E-02
RMM:   7    -0.231555479300E+04   -0.10886E-04   -0.32076E-04  4108   0.164E-02    0.787E-02
RMM:   8    -0.231555475826E+04    0.34745E-04   -0.11676E-04  3290   0.680E-03    0.325E-02
RMM:   9    -0.231555476031E+04   -0.20574E-05   -0.29541E-05  2948   0.487E-03
  13 F= -.23364354E+04 E0= -.23364354E+04  d E =-.180785E+00  mag=     8.0000
       N       E                     dE             d eps       ncg     rms          rms(c)
DAV:   1    -0.231561081017E+04   -0.56052E-01   -0.23026E+00  4632   0.107E+00    0.419E-01
RMM:   2    -0.231562040959E+04   -0.95994E-02   -0.12893E-01  5875   0.183E-01    0.229E-01
RMM:   3    -0.231562145573E+04   -0.10461E-02   -0.14141E-02  5138   0.792E-02    0.202E-01
RMM:   4    -0.231562141638E+04    0.39350E-04   -0.22829E-03  4643   0.206E-02    0.164E-01
RMM:   5    -0.231562121643E+04    0.19995E-03   -0.70772E-04  4224   0.155E-02    0.572E-02
RMM:   6    -0.231562122773E+04   -0.11296E-04   -0.12920E-04  3171   0.867E-03    0.347E-02
RMM:   7    -0.231562122957E+04   -0.18399E-05   -0.48253E-05  2928   0.543E-03
  14 F= -.23365027E+04 E0= -.23365027E+04  d E =-.672914E-01  mag=     8.0000
       N       E                     dE             d eps       ncg     rms          rms(c)
DAV:   1    -0.231561892713E+04    0.23006E-02   -0.13950E+01  4472   0.265E+00    0.103E+00
RMM:   2    -0.231567893763E+04   -0.60011E-01   -0.78516E-01  5785   0.455E-01    0.547E-01
RMM:   3    -0.231568526536E+04   -0.63277E-02   -0.85835E-02  5157   0.199E-01    0.463E-01
RMM:   4    -0.231568563032E+04   -0.36496E-03   -0.13757E-02  5478   0.508E-02    0.435E-01
RMM:   5    -0.231568420417E+04    0.14261E-02   -0.41306E-03  4955   0.356E-02    0.141E-01
RMM:   6    -0.231568424944E+04   -0.45275E-04   -0.81880E-04  4475   0.184E-02    0.521E-02
RMM:   7    -0.231568425532E+04   -0.58776E-05   -0.11835E-04  3413   0.100E-02    0.248E-02
RMM:   8    -0.231568427085E+04   -0.15532E-04   -0.39162E-05  2980   0.498E-03    0.335E-02
RMM:   9    -0.231568426854E+04    0.23124E-05   -0.21351E-05  2893   0.370E-03
  15 F= -.23365676E+04 E0= -.23365676E+04  d E =-.132229E+00  mag=     7.9999
       N       E                     dE             d eps       ncg     rms          rms(c)
DAV:   1    -0.231573944267E+04   -0.55172E-01   -0.18281E+00  4608   0.113E+00    0.438E-01
RMM:   2    -0.231574607627E+04   -0.66336E-02   -0.83182E-02  5423   0.193E-01    0.276E-01
RMM:   3    -0.231574626142E+04   -0.18515E-03   -0.77644E-03  4943   0.827E-02    0.287E-01
RMM:   4    -0.231574575017E+04    0.51125E-03   -0.14462E-03  4858   0.249E-02    0.118E-01
RMM:   5    -0.231574568507E+04    0.65096E-04   -0.78563E-04  5002   0.202E-02    0.508E-02
RMM:   6    -0.231574568803E+04   -0.29556E-05   -0.13008E-04  3546   0.953E-03    0.532E-02
RMM:   7    -0.231574566502E+04    0.23009E-04   -0.43165E-05  2939   0.521E-03    0.189E-02
RMM:   8    -0.231574566202E+04    0.30053E-05   -0.14619E-05  2913   0.329E-03
  16 F= -.23366289E+04 E0= -.23366289E+04  d E =-.612965E-01  mag=     7.9994
       N       E                     dE             d eps       ncg     rms          rms(c)
DAV:   1    -0.231577023165E+04   -0.24567E-01   -0.96346E+00  4456   0.257E+00    0.100E+00
RMM:   2    -0.231580492370E+04   -0.34692E-01   -0.43054E-01  5364   0.448E-01    0.618E-01
RMM:   3    -0.231580561844E+04   -0.69473E-03   -0.40551E-02  4924   0.191E-01    0.609E-01
RMM:   4    -0.231580341280E+04    0.22056E-02   -0.73618E-03  4979   0.570E-02    0.273E-01
RMM:   5    -0.231580308069E+04    0.33210E-03   -0.40272E-03  5231   0.470E-02    0.132E-01
RMM:   6    -0.231580306286E+04    0.17835E-04   -0.71175E-04  5222   0.202E-02    0.115E-01
RMM:   7    -0.231580295459E+04    0.10826E-03   -0.23146E-04  3544   0.860E-03    0.593E-02
RMM:   8    -0.231580292403E+04    0.30562E-04   -0.74716E-05  3089   0.619E-03    0.173E-02
RMM:   9    -0.231580292214E+04    0.18905E-05   -0.23896E-05  2935   0.475E-03
  17 F= -.23366856E+04 E0= -.23366847E+04  d E =-.118020E+00  mag=     7.9839
       N       E                     dE             d eps       ncg     rms          rms(c)
DAV:   1    -0.231582519323E+04   -0.22269E-01   -0.18070E+00  4640   0.123E+00    0.515E-01
RMM:   2    -0.231583704710E+04   -0.11854E-01   -0.13580E-01  5625   0.225E-01    0.365E-01
RMM:   3    -0.231583758810E+04   -0.54100E-03   -0.14181E-02  5155   0.972E-02    0.337E-01
RMM:   4    -0.231583666370E+04    0.92440E-03   -0.19167E-03  4976   0.269E-02    0.135E-01
RMM:   5    -0.231583657133E+04    0.92366E-04   -0.10500E-03  5179   0.220E-02    0.123E-01
RMM:   6    -0.231583648881E+04    0.82518E-04   -0.34494E-04  4482   0.114E-02    0.686E-02
RMM:   7    -0.231583645473E+04    0.34084E-04   -0.62533E-05  3070   0.622E-03    0.189E-02
RMM:   8    -0.231583645168E+04    0.30508E-05   -0.23836E-05  2936   0.412E-03
  18 F= -.23367188E+04 E0= -.23367162E+04  d E =-.331218E-01  mag=     7.9492
       N       E                     dE             d eps       ncg     rms          rms(c)
DAV:   1    -0.231583729439E+04   -0.83966E-03   -0.12707E+00  4664   0.103E+00    0.451E-01
RMM:   2    -0.231584591999E+04   -0.86256E-02   -0.95109E-02  5604   0.188E-01    0.360E-01
RMM:   3    -0.231584632731E+04   -0.40732E-03   -0.10636E-02  5101   0.816E-02    0.335E-01
RMM:   4    -0.231584558652E+04    0.74080E-03   -0.14831E-03  4841   0.229E-02    0.173E-01
RMM:   5    -0.231584571911E+04   -0.13259E-03   -0.96036E-04  4802   0.194E-02    0.269E-01
RMM:   6    -0.231584562107E+04    0.98041E-04   -0.14136E-04  3396   0.843E-03    0.230E-01
RMM:   7    -0.231584581386E+04   -0.19279E-03   -0.29012E-04  3628   0.877E-03    0.314E-01
RMM:   8    -0.231584542680E+04    0.38705E-03   -0.21982E-03  4246   0.198E-02    0.888E-02
RMM:   9    -0.231584511222E+04    0.31458E-03   -0.68637E-04  3759   0.145E-02    0.126E-01
RMM:  10    -0.231584478862E+04    0.32361E-03   -0.63498E-04  3985   0.113E-02    0.170E-01
RMM:  11    -0.231584510360E+04   -0.31498E-03   -0.21722E-04  3246   0.805E-03    0.134E-01
RMM:  12    -0.231584525071E+04   -0.14711E-03   -0.22573E-04  3297   0.752E-03    0.102E-01
RMM:  13    -0.231584547569E+04   -0.22498E-03   -0.43630E-04  3688   0.955E-03    0.107E-01
RMM:  14    -0.231584583983E+04   -0.36414E-03   -0.64762E-04  3760   0.117E-02    0.165E-01
RMM:  15    -0.231584532580E+04    0.51404E-03   -0.14674E-03  3900   0.166E-02    0.858E-02
RMM:  16    -0.231584479626E+04    0.52954E-03   -0.10297E-03  3895   0.146E-02    0.161E-01
RMM:  17    -0.231584394099E+04    0.85526E-03   -0.11094E-03  4057   0.147E-02    0.283E-01
RMM:  18    -0.231584467356E+04   -0.73257E-03   -0.37791E-04  3416   0.942E-03    0.186E-01
RMM:  19    -0.231584497664E+04   -0.30308E-03   -0.31007E-04  3285   0.790E-03    0.133E-01
RMM:  20    -0.231584531745E+04   -0.34081E-03   -0.53379E-04  3747   0.101E-02    0.991E-02
RMM:  21    -0.231584567734E+04   -0.35988E-03   -0.65085E-04  3637   0.115E-02    0.116E-01
RMM:  22    -0.231584599097E+04   -0.31364E-03   -0.40351E-04  3386   0.977E-03    0.158E-01
RMM:  23    -0.231584601754E+04   -0.26567E-04   -0.44489E-05  2950   0.504E-03    0.153E-01
RMM:  24    -0.231584620551E+04   -0.18797E-03   -0.66939E-05  2943   0.419E-03    0.188E-01
RMM:  25    -0.231584630108E+04   -0.95569E-04   -0.23773E-05  2779   0.371E-03    0.199E-01
RMM:  26    -0.231584631856E+04   -0.17482E-04   -0.47345E-06  2508   0.189E-03    0.202E-01
RMM:  27    -0.231584626362E+04    0.54944E-04   -0.60182E-06  2363   0.172E-03    0.195E-01
RMM:  28    -0.231584622327E+04    0.40346E-04   -0.96846E-06  2410   0.158E-03    0.194E-01
RMM:  29    -0.231584625840E+04   -0.35135E-04   -0.94572E-06  2597   0.171E-03    0.209E-01
RMM:  30    -0.231584646891E+04   -0.21051E-03   -0.40044E-05  2801   0.282E-03    0.252E-01
RMM:  31    -0.231584643797E+04    0.30942E-04   -0.26378E-06  2206   0.176E-03    0.239E-01
RMM:  32    -0.231584639391E+04    0.44067E-04   -0.17697E-06  1619   0.896E-04    0.233E-01
RMM:  33    -0.231584634460E+04    0.49306E-04   -0.29736E-06  1861   0.102E-03    0.226E-01
RMM:  34    -0.231584618994E+04    0.15466E-03   -0.28170E-05  2701   0.242E-03    0.199E-01
RMM:  35    -0.231584595469E+04    0.23525E-03   -0.95602E-05  2985   0.405E-03    0.160E-01
RMM:  36    -0.231584574270E+04    0.21198E-03   -0.12765E-04  2996   0.476E-03    0.130E-01
RMM:  37    -0.231584560175E+04    0.14096E-03   -0.94577E-05  2990   0.451E-03    0.116E-01
RMM:  38    -0.231584551005E+04    0.91698E-04   -0.54663E-05  2884   0.397E-03    0.110E-01
RMM:  39    -0.231584542063E+04    0.89417E-04   -0.49034E-05  2902   0.379E-03    0.107E-01
RMM:  40    -0.231584534716E+04    0.73469E-04   -0.37173E-05  2851   0.359E-03    0.107E-01
RMM:  41    -0.231584529260E+04    0.54562E-04   -0.22710E-05  2729   0.293E-03    0.109E-01
RMM:  42    -0.231584530417E+04   -0.11573E-04   -0.18157E-06  2308   0.188E-03    0.110E-01
RMM:  43    -0.231584527855E+04    0.25625E-04   -0.37887E-06  2092   0.126E-03    0.111E-01
RMM:  44    -0.231584527771E+04    0.83620E-06   -0.56299E-07  1847   0.112E-03
  19 F= -.23367272E+04 E0= -.23367224E+04  d E =-.415890E-01  mag=     7.9014
       N       E                     dE             d eps       ncg     rms          rms(c)
DAV:   1    -0.231584503807E+04    0.24048E-03   -0.15666E+00  4496   0.112E+00    0.513E-01
RMM:   2    -0.231586630220E+04   -0.21264E-01   -0.20299E-01  5850   0.233E-01    0.618E-01
RMM:   3    -0.231586595731E+04    0.34489E-03   -0.19985E-02  5385   0.845E-02    0.489E-01
RMM:   4    -0.231586592894E+04    0.28367E-04   -0.24748E-03  4667   0.199E-02    0.450E-01
RMM:   5    -0.231586563062E+04    0.29832E-03   -0.44486E-04  3672   0.122E-02    0.344E-01
RMM:   6    -0.231586489554E+04    0.73508E-03   -0.30148E-03  4394   0.213E-02    0.375E-01
RMM:   7    -0.231586363936E+04    0.12562E-02   -0.15915E-03  4476   0.192E-02    0.281E-01
RMM:   8    -0.231586173005E+04    0.19093E-02   -0.23318E-03  4623   0.243E-02    0.359E-01
RMM:   9    -0.231586173771E+04   -0.76635E-05   -0.14619E-04  3191   0.107E-02    0.360E-01
RMM:  10    -0.231586125379E+04    0.48392E-03   -0.87581E-05  3091   0.502E-03    0.371E-01
RMM:  11    -0.231586204580E+04   -0.79201E-03   -0.24563E-04  3300   0.784E-03    0.340E-01
RMM:  12    -0.231586208873E+04   -0.42925E-04   -0.94944E-05  3004   0.598E-03    0.357E-01
RMM:  13    -0.231586157590E+04    0.51282E-03   -0.47266E-04  3396   0.102E-02    0.342E-01
RMM:  14    -0.231586096574E+04    0.61016E-03   -0.72629E-04  4107   0.135E-02    0.339E-01
RMM:  15    -0.231585539463E+04    0.55711E-02   -0.18084E-02  4696   0.614E-02    0.595E-01
RMM:  16    -0.231585792884E+04   -0.25342E-02   -0.13713E-03  4276   0.309E-02    0.532E-01
RMM:  17    -0.231586028390E+04   -0.23551E-02   -0.16286E-03  4163   0.170E-02    0.514E-01
RMM:  18    -0.231586226734E+04   -0.19834E-02   -0.23051E-03  4440   0.230E-02    0.358E-01
RMM:  19    -0.231586295185E+04   -0.68451E-03   -0.10793E-03  4270   0.178E-02    0.265E-01
RMM:  20    -0.231586361715E+04   -0.66529E-03   -0.78165E-04  4144   0.135E-02    0.207E-01
RMM:  21    -0.231586366626E+04   -0.49117E-04   -0.63854E-05  2978   0.723E-03    0.217E-01
RMM:  22    -0.231586357700E+04    0.89265E-04   -0.23432E-05  2884   0.309E-03    0.210E-01
RMM:  23    -0.231586367494E+04   -0.97937E-04   -0.89879E-06  2786   0.249E-03    0.209E-01
RMM:  24    -0.231586346477E+04    0.21017E-03   -0.60315E-05  2828   0.356E-03    0.204E-01
RMM:  25    -0.231586350753E+04   -0.42759E-04   -0.31590E-06  2448   0.219E-03    0.203E-01
RMM:  26    -0.231586351864E+04   -0.11115E-04   -0.10432E-05  2556   0.173E-03    0.196E-01
RMM:  27    -0.231586302508E+04    0.49356E-03   -0.58342E-04  3596   0.976E-03    0.185E-01
RMM:  28    -0.231586132530E+04    0.16998E-02   -0.25970E-03  4300   0.210E-02    0.305E-01
RMM:  29    -0.231586327769E+04   -0.19524E-02   -0.14261E-03  4193   0.176E-02    0.196E-01
RMM:  30    -0.231586431783E+04   -0.10401E-02   -0.13435E-03  3986   0.162E-02    0.205E-01
RMM:  31    -0.231586493519E+04   -0.61736E-03   -0.59326E-04  3498   0.119E-02    0.249E-01
RMM:  32    -0.231586531821E+04   -0.38301E-03   -0.19049E-04  3196   0.707E-03    0.285E-01
RMM:  33    -0.231586517120E+04    0.14701E-03   -0.19174E-05  2843   0.461E-03    0.262E-01
RMM:  34    -0.231586470912E+04    0.46208E-03   -0.23853E-04  3177   0.653E-03    0.229E-01
RMM:  35    -0.231586396918E+04    0.73994E-03   -0.76196E-04  3710   0.114E-02    0.211E-01
RMM:  36    -0.231586339870E+04    0.57048E-03   -0.52451E-04  3432   0.102E-02    0.232E-01
RMM:  37    -0.231586267710E+04    0.72160E-03   -0.53766E-04  3687   0.103E-02    0.279E-01
RMM:  38    -0.231586230608E+04    0.37101E-03   -0.16568E-04  3097   0.735E-03    0.311E-01
RMM:  39    -0.231586255519E+04   -0.24910E-03   -0.22956E-05  2760   0.353E-03    0.293E-01
RMM:  40    -0.231586300812E+04   -0.45293E-03   -0.15007E-04  2993   0.514E-03    0.256E-01
RMM:  41    -0.231586424040E+04   -0.12323E-02   -0.16033E-03  4007   0.162E-02    0.230E-01
RMM:  42    -0.231586558385E+04   -0.13434E-02   -0.17671E-03  4020   0.183E-02    0.344E-01
RMM:  43    -0.231586666578E+04   -0.10819E-02   -0.80346E-04  3776   0.124E-02    0.459E-01
RMM:  44    -0.231586762798E+04   -0.96220E-03   -0.33148E-04  3354   0.890E-03    0.561E-01
RMM:  45    -0.231586804543E+04   -0.41745E-03   -0.86890E-05  3025   0.602E-03    0.593E-01
RMM:  46    -0.231586814378E+04   -0.98352E-04   -0.15945E-05  2793   0.333E-03    0.599E-01
RMM:  47    -0.231586827835E+04   -0.13457E-03   -0.53957E-06  2598   0.222E-03    0.615E-01
RMM:  48    -0.231586916107E+04   -0.88272E-03   -0.10343E-04  3047   0.456E-03    0.710E-01
RMM:  49    -0.231586917958E+04   -0.18507E-04   -0.10827E-05  2598   0.303E-03    0.694E-01
RMM:  50    -0.231586927542E+04   -0.95842E-04   -0.53566E-06  2347   0.151E-03    0.707E-01
RMM:  51    -0.231586874686E+04    0.52856E-03   -0.25359E-05  2423   0.246E-03    0.645E-01
RMM:  52    -0.231586798763E+04    0.75923E-03   -0.79350E-05  2901   0.389E-03    0.566E-01
RMM:  53    -0.231586765955E+04    0.32807E-03   -0.31681E-05  2565   0.282E-03    0.542E-01
RMM:  54    -0.231586745433E+04    0.20522E-03   -0.17232E-05  2598   0.225E-03    0.523E-01
RMM:  55    -0.231586748743E+04   -0.33095E-04   -0.13526E-06  2044   0.142E-03    0.531E-01
RMM:  56    -0.231586740686E+04    0.80571E-04   -0.16397E-06  1472   0.968E-04    0.519E-01
RMM:  57    -0.231586802274E+04   -0.61588E-03   -0.58557E-05  2591   0.320E-03    0.594E-01
RMM:  58    -0.231586737202E+04    0.65072E-03   -0.55236E-05  2578   0.355E-03    0.500E-01
RMM:  59    -0.231586723162E+04    0.14040E-03   -0.11084E-05  2244   0.216E-03    0.501E-01
RMM:  60    -0.231586717433E+04    0.57293E-04   -0.35571E-06  1886   0.134E-03    0.494E-01
RMM:  61    -0.231586716365E+04    0.10670E-04   -0.49927E-07  1417   0.960E-04    0.494E-01
RMM:  62    -0.231586737796E+04   -0.21431E-03   -0.88544E-06  1879   0.132E-03    0.519E-01
RMM:  63    -0.231586637289E+04    0.10051E-02   -0.23376E-04  3160   0.617E-03    0.386E-01
RMM:  64    -0.231586588290E+04    0.49000E-03   -0.12668E-04  2979   0.527E-03    0.351E-01
RMM:  65    -0.231586586606E+04    0.16833E-04   -0.16359E-05  2625   0.286E-03    0.356E-01
RMM:  66    -0.231586573794E+04    0.12812E-03   -0.11182E-05  2451   0.182E-03    0.339E-01
RMM:  67    -0.231586649497E+04   -0.75703E-03   -0.17667E-04  2889   0.539E-03    0.437E-01
RMM:  68    -0.231586629528E+04    0.19969E-03   -0.11409E-05  2274   0.261E-03    0.394E-01
RMM:  69    -0.231586597448E+04    0.32080E-03   -0.37982E-05  2586   0.264E-03    0.362E-01
RMM:  70    -0.231586612282E+04   -0.14834E-03   -0.58522E-06  1898   0.162E-03    0.388E-01
RMM:  71    -0.231586632540E+04   -0.20258E-03   -0.15999E-05  2108   0.178E-03    0.409E-01
RMM:  72    -0.231586628218E+04    0.43213E-04   -0.84772E-07  1349   0.975E-04    0.399E-01
RMM:  73    -0.231586603427E+04    0.24791E-03   -0.16798E-05  2030   0.177E-03    0.366E-01
RMM:  74    -0.231586535228E+04    0.68198E-03   -0.21225E-04  3147   0.587E-03    0.284E-01
RMM:  75    -0.231586489584E+04    0.45644E-03   -0.17972E-04  3071   0.573E-03    0.249E-01
RMM:  76    -0.231586451291E+04    0.38293E-03   -0.17651E-04  3193   0.566E-03    0.221E-01
RMM:  77    -0.231586396672E+04    0.54619E-03   -0.36785E-04  3489   0.816E-03    0.201E-01
RMM:  78    -0.231586347564E+04    0.49109E-03   -0.35883E-04  3297   0.862E-03    0.214E-01
RMM:  79    -0.231586322599E+04    0.24964E-03   -0.12716E-04  3061   0.599E-03    0.229E-01
RMM:  80    -0.231586321279E+04    0.13207E-04   -0.11057E-05  2730   0.313E-03    0.230E-01
RMM:  81    -0.231586313414E+04    0.78646E-04   -0.92230E-06  2581   0.217E-03    0.235E-01
RMM:  82    -0.231586137593E+04    0.17582E-02   -0.16595E-03  4085   0.166E-02    0.388E-01
RMM:  83    -0.231586063679E+04    0.73914E-03   -0.37698E-04  3302   0.106E-02    0.454E-01
RMM:  84    -0.231586063888E+04   -0.20909E-05   -0.43781E-05  2872   0.349E-03
  20 F= -.23367415E+04 E0= -.23367400E+04  d E =-.142325E-01  mag=     8.1327
       N       E                     dE             d eps       ncg     rms          rms(c)
DAV:   1    -0.231585471606E+04    0.59207E-02   -0.91441E-01  4480   0.856E-01    0.562E-01
RMM:   2    -0.231587020797E+04   -0.15492E-01   -0.12519E-01  5872   0.182E-01    0.677E-01
RMM:   3    -0.231586876281E+04    0.14452E-02   -0.13361E-02  5276   0.678E-02    0.451E-01
RMM:   4    -0.231586846525E+04    0.29756E-03   -0.27807E-03  4492   0.233E-02    0.405E-01
RMM:   5    -0.231586843916E+04    0.26086E-04   -0.33948E-04  3589   0.123E-02    0.446E-01
RMM:   6    -0.231586830590E+04    0.13326E-03   -0.91075E-03  4524   0.380E-02    0.571E-01
RMM:   7    -0.231586229853E+04    0.60074E-02   -0.74891E-03  4523   0.371E-02    0.770E-01
RMM:   8    -0.231586642890E+04   -0.41304E-02   -0.24992E-03  4240   0.230E-02    0.466E-01
RMM:   9    -0.231586832831E+04   -0.18994E-02   -0.49280E-03  4496   0.315E-02    0.258E-01
RMM:  10    -0.231586903244E+04   -0.70413E-03   -0.17337E-03  4187   0.206E-02    0.292E-01
RMM:  11    -0.231587101952E+04   -0.19871E-02   -0.21856E-03  4391   0.215E-02    0.558E-01
RMM:  12    -0.231587183109E+04   -0.81157E-03   -0.68763E-04  3702   0.153E-02    0.636E-01
RMM:  13    -0.231587002780E+04    0.18033E-02   -0.16315E-03  3891   0.175E-02    0.325E-01
RMM:  14    -0.231586733370E+04    0.26941E-02   -0.84316E-03  4461   0.384E-02    0.354E-01
RMM:  15    -0.231586411504E+04    0.32187E-02   -0.41001E-03  4268   0.308E-02    0.597E-01
RMM:  16    -0.231586228195E+04    0.18331E-02   -0.11702E-03  4356   0.146E-02    0.723E-01
RMM:  17    -0.231586383420E+04   -0.15522E-02   -0.20108E-04  3268   0.813E-03    0.625E-01
RMM:  18    -0.231586569254E+04   -0.18583E-02   -0.69845E-04  3636   0.111E-02    0.488E-01
RMM:  19    -0.231586786007E+04   -0.21675E-02   -0.19205E-03  4099   0.182E-02    0.339E-01
RMM:  20    -0.231586924623E+04   -0.13862E-02   -0.16633E-03  4039   0.178E-02    0.311E-01
RMM:  21    -0.231587042292E+04   -0.11767E-02   -0.11180E-03  3922   0.144E-02    0.372E-01
RMM:  22    -0.231587222043E+04   -0.17975E-02   -0.12095E-03  3967   0.158E-02    0.539E-01
RMM:  23    -0.231587092104E+04    0.12994E-02   -0.32681E-04  3297   0.985E-03    0.372E-01
RMM:  24    -0.231587004037E+04    0.88067E-03   -0.37364E-04  3335   0.836E-03    0.326E-01
RMM:  25    -0.231586941772E+04    0.62266E-03   -0.27965E-04  3246   0.774E-03    0.303E-01
RMM:  26    -0.231586820695E+04    0.12108E-02   -0.10292E-03  3957   0.135E-02    0.313E-01
RMM:  27    -0.231586719984E+04    0.10071E-02   -0.68829E-04  3659   0.121E-02    0.373E-01
RMM:  28    -0.231586677856E+04    0.42128E-03   -0.18038E-04  3169   0.685E-03    0.404E-01
RMM:  29    -0.231586675479E+04    0.23778E-04   -0.13459E-05  2821   0.337E-03    0.405E-01
RMM:  30    -0.231586677083E+04   -0.16049E-04   -0.18265E-06  2479   0.177E-03    0.404E-01
RMM:  31    -0.231586679692E+04   -0.26089E-04   -0.77374E-07  2293   0.128E-03    0.402E-01
RMM:  32    -0.231586680448E+04   -0.75533E-05   -0.28256E-07  1940   0.811E-04
  21 F= -.23367467E+04 E0= -.23367441E+04  d E =-.195267E-01  mag=     8.0896
       N       E                     dE             d eps       ncg     rms          rms(c)
DAV:   1    -0.231583987043E+04    0.26926E-01   -0.26580E+00  4464   0.145E+00    0.849E-01
RMM:   2    -0.231589411550E+04   -0.54245E-01   -0.47042E-01  5908   0.325E-01    0.107E+00
RMM:   3    -0.231589249290E+04    0.16226E-02   -0.48753E-02  5408   0.123E-01    0.952E-01
RMM:   4    -0.231589276456E+04   -0.27166E-03   -0.52482E-03  4687   0.236E-02    0.942E-01
RMM:   5    -0.231589303082E+04   -0.26626E-03   -0.15759E-03  4181   0.184E-02    0.834E-01
RMM:   6    -0.231588943796E+04    0.35929E-02   -0.11903E-02  5034   0.415E-02    0.852E-01
RMM:   7    -0.231588496917E+04    0.44688E-02   -0.44402E-03  4640   0.291E-02    0.714E-01
RMM:   8    -0.231587735086E+04    0.76183E-02   -0.72899E-03  4668   0.366E-02    0.102E+00
RMM:   9    -0.231588893031E+04   -0.11579E-01   -0.18496E-02  4692   0.575E-02    0.599E-01
RMM:  10    -0.231589346562E+04   -0.45353E-02   -0.17228E-02  4775   0.613E-02    0.885E-01
RMM:  11    -0.231590284166E+04   -0.93760E-02   -0.11068E-02  4820   0.481E-02    0.167E+00
RMM:  12    -0.231588988551E+04    0.12956E-01   -0.30079E-02  4639   0.721E-02    0.430E-01
RMM:  13    -0.231588458243E+04    0.53031E-02   -0.99625E-03  4758   0.480E-02    0.632E-01
RMM:  14    -0.231588005207E+04    0.45304E-02   -0.59656E-03  5138   0.303E-02    0.851E-01
RMM:  15    -0.231587480135E+04    0.52507E-02   -0.24310E-03  4293   0.220E-02    0.109E+00
RMM:  16    -0.231587077410E+04    0.40273E-02   -0.13071E-03  4062   0.164E-02    0.127E+00
RMM:  17    -0.231587942253E+04   -0.86484E-02   -0.35230E-03  4172   0.239E-02    0.868E-01
RMM:  18    -0.231588453195E+04   -0.51094E-02   -0.47943E-03  4484   0.294E-02    0.583E-01
RMM:  19    -0.231588752226E+04   -0.29903E-02   -0.32735E-03  4370   0.245E-02    0.516E-01
RMM:  20    -0.231588864218E+04   -0.11199E-02   -0.81448E-04  3805   0.129E-02    0.531E-01
RMM:  21    -0.231588894085E+04   -0.29867E-03   -0.12182E-04  3094   0.623E-03    0.538E-01
RMM:  22    -0.231588886013E+04    0.80723E-04   -0.81037E-06  2839   0.293E-03    0.533E-01
RMM:  23    -0.231588882130E+04    0.38828E-04   -0.16444E-06  2546   0.172E-03    0.532E-01
RMM:  24    -0.231588884334E+04   -0.22042E-04   -0.54279E-07  2204   0.105E-03    0.534E-01
RMM:  25    -0.231588890331E+04   -0.59963E-04   -0.17234E-06  2271   0.103E-03    0.535E-01
RMM:  26    -0.231588891368E+04   -0.10371E-04   -0.33216E-07  2012   0.884E-04    0.535E-01
RMM:  27    -0.231588892540E+04   -0.11720E-04   -0.16372E-07  1487   0.643E-04    0.536E-01
RMM:  28    -0.231588869182E+04    0.23358E-03   -0.78275E-06  2005   0.136E-03    0.524E-01
RMM:  29    -0.231588909351E+04   -0.40169E-03   -0.73777E-05  2951   0.381E-03    0.530E-01
RMM:  30    -0.231588929753E+04   -0.20402E-03   -0.19926E-05  2680   0.257E-03    0.536E-01
RMM:  31    -0.231588928807E+04    0.94609E-05   -0.21542E-06  2186   0.135E-03
  22 F= -.23367679E+04 E0= -.23367602E+04  d E =-.211448E-01  mag=     7.9639
       N       E                     dE             d eps       ncg     rms          rms(c)
DAV:   1    -0.231588544464E+04    0.38529E-02   -0.52755E-01  4496   0.646E-01    0.700E-01
RMM:   2    -0.231590436251E+04   -0.18918E-01   -0.10491E-01  5741   0.153E-01    0.116E+00
RMM:   3    -0.231590468884E+04   -0.32633E-03   -0.93953E-03  4878   0.574E-02    0.113E+00
RMM:   4    -0.231590437294E+04    0.31590E-03   -0.13567E-02  5023   0.451E-02    0.158E+00
RMM:   5    -0.231590526685E+04   -0.89391E-03   -0.26838E-03  3971   0.145E-02    0.163E+00
RMM:   6    -0.231589832429E+04    0.69426E-02   -0.45726E-03  4862   0.335E-02    0.983E-01
RMM:   7    -0.231589581572E+04    0.25086E-02   -0.17036E-02  5011   0.626E-02    0.858E-01
RMM:   8    -0.231589708516E+04   -0.12694E-02   -0.22556E-03  4398   0.277E-02    0.838E-01
RMM:   9    -0.231589711321E+04   -0.28051E-04   -0.15203E-04  3078   0.823E-03    0.828E-01
RMM:  10    -0.231591474395E+04   -0.17631E-01   -0.42715E-02  4865   0.987E-02    0.228E+00
RMM:  11    -0.231589985460E+04    0.14889E-01   -0.85377E-03  4697   0.535E-02    0.978E-01
RMM:  12    -0.231589233087E+04    0.75237E-02   -0.88969E-03  4600   0.409E-02    0.643E-01
RMM:  13    -0.231588925569E+04    0.30752E-02   -0.31708E-03  4514   0.270E-02    0.665E-01
RMM:  14    -0.231588314115E+04    0.61145E-02   -0.62312E-03  4776   0.344E-02    0.949E-01
RMM:  15    -0.231588587727E+04   -0.27361E-02   -0.44061E-04  3623   0.150E-02    0.835E-01
RMM:  16    -0.231589161594E+04   -0.57387E-02   -0.46972E-03  4472   0.289E-02    0.695E-01
RMM:  17    -0.231589433918E+04   -0.27232E-02   -0.23877E-03  4150   0.235E-02    0.725E-01
RMM:  18    -0.231589598210E+04   -0.16429E-02   -0.16413E-03  4337   0.178E-02    0.757E-01
RMM:  19    -0.231589976838E+04   -0.37863E-02   -0.26250E-03  4414   0.216E-02    0.981E-01
RMM:  20    -0.231589593546E+04    0.38329E-02   -0.15185E-03  4059   0.174E-02    0.705E-01
RMM:  21    -0.231589349988E+04    0.24356E-02   -0.14023E-03  4065   0.159E-02    0.638E-01
RMM:  22    -0.231589104536E+04    0.24545E-02   -0.18955E-03  4298   0.180E-02    0.646E-01
RMM:  23    -0.231589083876E+04    0.20660E-03   -0.17512E-04  3119   0.814E-03    0.653E-01
RMM:  24    -0.231589085929E+04   -0.20527E-04   -0.17145E-05  2815   0.283E-03    0.651E-01
RMM:  25    -0.231589088099E+04   -0.21710E-04   -0.16343E-06  2585   0.188E-03    0.651E-01
RMM:  26    -0.231589088417E+04   -0.31720E-05   -0.59494E-07  2093   0.104E-03
  23 F= -.23367689E+04 E0= -.23367642E+04  d E =-.221674E-01  mag=     8.1062
       N       E                     dE             d eps       ncg     rms          rms(c)
DAV:   1    -0.231585912081E+04    0.31760E-01   -0.21137E+00  4464   0.129E+00    0.100E+00
RMM:   2    -0.231591257481E+04   -0.53454E-01   -0.39064E-01  5916   0.298E-01    0.136E+00
RMM:   3    -0.231590899116E+04    0.35836E-02   -0.38324E-02  5207   0.112E-01    0.139E+00
RMM:   4    -0.231590568318E+04    0.33080E-02   -0.10173E-02  4767   0.435E-02    0.110E+00
RMM:   5    -0.231589730194E+04    0.83812E-02   -0.13813E-02  4834   0.522E-02    0.839E-01
RMM:   6    -0.231589485852E+04    0.24434E-02   -0.44194E-03  4943   0.317E-02    0.974E-01
RMM:   7    -0.231589297662E+04    0.18819E-02   -0.10777E-03  4249   0.138E-02    0.100E+00
RMM:   8    -0.231588456163E+04    0.84150E-02   -0.36595E-03  4402   0.278E-02    0.124E+00
RMM:   9    -0.231589793174E+04   -0.13370E-01   -0.19921E-02  4631   0.580E-02    0.663E-01
RMM:  10    -0.231590332094E+04   -0.53892E-02   -0.23948E-02  4858   0.673E-02    0.724E-01
RMM:  11    -0.231591573647E+04   -0.12416E-01   -0.17010E-02  4942   0.582E-02    0.162E+00
RMM:  12    -0.231592219590E+04   -0.64594E-02   -0.53744E-03  4747   0.351E-02    0.194E+00
RMM:  13    -0.231590602988E+04    0.16166E-01   -0.15699E-02  4584   0.538E-02    0.861E-01
RMM:  14    -0.231589897257E+04    0.70573E-02   -0.14857E-02  4748   0.537E-02    0.697E-01
RMM:  15    -0.231589427507E+04    0.46975E-02   -0.89365E-03  4898   0.401E-02    0.807E-01
RMM:  16    -0.231588943101E+04    0.48441E-02   -0.39051E-03  4655   0.269E-02    0.980E-01
RMM:  17    -0.231588718767E+04    0.22433E-02   -0.93716E-04  4023   0.152E-02    0.107E+00
RMM:  18    -0.231589220098E+04   -0.50133E-02   -0.15625E-03  3930   0.166E-02    0.880E-01
RMM:  19    -0.231589821861E+04   -0.60176E-02   -0.58565E-03  4566   0.323E-02    0.720E-01
RMM:  20    -0.231590615394E+04   -0.79353E-02   -0.11971E-02  4904   0.458E-02    0.970E-01
RMM:  21    -0.231591145328E+04   -0.52993E-02   -0.47659E-03  4625   0.302E-02    0.129E+00
RMM:  22    -0.231590863746E+04    0.28158E-02   -0.43288E-04  3471   0.124E-02    0.111E+00
RMM:  23    -0.231590763431E+04    0.10032E-02   -0.17027E-04  3104   0.641E-03    0.107E+00
RMM:  24    -0.231590317671E+04    0.44576E-02   -0.27463E-03  4351   0.211E-02    0.842E-01
RMM:  25    -0.231589751276E+04    0.56639E-02   -0.67736E-03  4696   0.340E-02    0.760E-01
RMM:  26    -0.231589264266E+04    0.48701E-02   -0.56053E-03  4711   0.311E-02    0.910E-01
RMM:  27    -0.231588767644E+04    0.49662E-02   -0.38334E-03  4492   0.260E-02    0.112E+00
RMM:  28    -0.231588915387E+04   -0.14774E-02   -0.20214E-04  3200   0.920E-03    0.106E+00
RMM:  29    -0.231589012738E+04   -0.97352E-03   -0.11973E-04  2977   0.523E-03    0.101E+00
RMM:  30    -0.231589394307E+04   -0.38157E-02   -0.18311E-03  4140   0.174E-02    0.852E-01
RMM:  31    -0.231589903182E+04   -0.50887E-02   -0.55671E-03  4639   0.310E-02    0.731E-01
RMM:  32    -0.231590323376E+04   -0.42019E-02   -0.51779E-03  4720   0.301E-02    0.812E-01
RMM:  33    -0.231590684540E+04   -0.36116E-02   -0.32752E-03  4397   0.233E-02    0.981E-01
RMM:  34    -0.231590896609E+04   -0.21207E-02   -0.10156E-03  3906   0.147E-02    0.110E+00
RMM:  35    -0.231590988235E+04   -0.91625E-03   -0.25017E-04  3312   0.806E-03    0.115E+00
RMM:  36    -0.231590981608E+04    0.66264E-04   -0.23138E-05  2881   0.422E-03    0.115E+00
RMM:  37    -0.231590985982E+04   -0.43734E-04   -0.36281E-06  2655   0.201E-03    0.115E+00
RMM:  38    -0.231590930273E+04    0.55709E-03   -0.25993E-05  2634   0.266E-03    0.112E+00
RMM:  39    -0.231590692171E+04    0.23810E-02   -0.60042E-04  3642   0.975E-03    0.993E-01
RMM:  40    -0.231590363504E+04    0.32867E-02   -0.16994E-03  4210   0.168E-02    0.834E-01
RMM:  41    -0.231589989405E+04    0.37410E-02   -0.32194E-03  4484   0.231E-02    0.736E-01
RMM:  42    -0.231589617247E+04    0.37216E-02   -0.36992E-03  4585   0.254E-02    0.772E-01
RMM:  43    -0.231589472197E+04    0.14505E-02   -0.10144E-03  3861   0.140E-02    0.816E-01
RMM:  44    -0.231589424835E+04    0.47362E-03   -0.15449E-04  3169   0.631E-03    0.832E-01
RMM:  45    -0.231589382530E+04    0.42306E-03   -0.48501E-05  2946   0.436E-03    0.846E-01
RMM:  46    -0.231589421244E+04   -0.38714E-03   -0.13708E-05  2695   0.298E-03    0.835E-01
RMM:  47    -0.231589520352E+04   -0.99108E-03   -0.13822E-04  2974   0.495E-03    0.803E-01
RMM:  48    -0.231589626495E+04   -0.10614E-02   -0.22196E-04  3204   0.625E-03    0.775E-01
RMM:  49    -0.231589816072E+04   -0.18958E-02   -0.74799E-04  3649   0.110E-02    0.745E-01
RMM:  50    -0.231590119386E+04   -0.30331E-02   -0.19976E-03  4312   0.185E-02    0.775E-01
RMM:  51    -0.231590495405E+04   -0.37602E-02   -0.27401E-03  4367   0.218E-02    0.929E-01
RMM:  52    -0.231590776245E+04   -0.28084E-02   -0.14120E-03  4098   0.166E-02    0.109E+00
RMM:  53    -0.231590984390E+04   -0.20815E-02   -0.66288E-04  3650   0.116E-02    0.121E+00
RMM:  54    -0.231591087417E+04   -0.10303E-02   -0.19832E-04  3201   0.791E-03    0.127E+00
RMM:  55    -0.231590978251E+04    0.10917E-02   -0.63437E-05  2938   0.524E-03    0.121E+00
RMM:  56    -0.231590795174E+04    0.18308E-02   -0.29570E-04  3263   0.705E-03    0.110E+00
RMM:  57    -0.231590342557E+04    0.45262E-02   -0.25892E-03  4289   0.202E-02    0.862E-01
RMM:  58    -0.231590023456E+04    0.31910E-02   -0.24728E-03  4214   0.213E-02    0.771E-01
RMM:  59    -0.231589836461E+04    0.18699E-02   -0.12516E-03  4078   0.147E-02    0.758E-01
RMM:  60    -0.231589819884E+04    0.16577E-03   -0.10218E-04  3051   0.651E-03    0.755E-01
RMM:  61    -0.231589822027E+04   -0.21432E-04   -0.10254E-05  2665   0.262E-03    0.753E-01
RMM:  62    -0.231589820678E+04    0.13493E-04   -0.14669E-06  2503   0.172E-03    0.752E-01
RMM:  63    -0.231589818861E+04    0.18166E-04   -0.90028E-07  2268   0.113E-03    0.753E-01
RMM:  64    -0.231589866931E+04   -0.48070E-03   -0.35683E-05  2551   0.267E-03    0.752E-01
RMM:  65    -0.231589923729E+04   -0.56798E-03   -0.72828E-05  2868   0.360E-03    0.754E-01
RMM:  66    -0.231589939460E+04   -0.15730E-03   -0.14549E-05  2204   0.205E-03    0.755E-01
RMM:  67    -0.231589938947E+04    0.51262E-05   -0.12424E-06  1926   0.109E-03
  24 F= -.23367763E+04 E0= -.23367701E+04  d E =-.295736E-01  mag=     8.0896
       N       E                     dE             d eps       ncg     rms          rms(c)
DAV:   1    -0.231589780576E+04    0.15888E-02   -0.69266E-01  4480   0.691E-01    0.875E-01
RMM:   2    -0.231592599625E+04   -0.28190E-01   -0.16552E-01  5905   0.175E-01    0.132E+00
RMM:   3    -0.231592534040E+04    0.65585E-03   -0.13141E-02  4915   0.612E-02    0.136E+00
RMM:   4    -0.231591148461E+04    0.13856E-01   -0.28225E-02  4677   0.710E-02    0.837E-01
RMM:   5    -0.231590346657E+04    0.80180E-02   -0.12692E-02  4743   0.528E-02    0.995E-01
RMM:   6    -0.231591272614E+04   -0.92596E-02   -0.76718E-03  4508   0.378E-02    0.800E-01
RMM:   7    -0.231591438605E+04   -0.16599E-02   -0.15526E-03  4046   0.206E-02    0.783E-01
RMM:   8    -0.231591671430E+04   -0.23282E-02   -0.18716E-03  4378   0.179E-02    0.832E-01
RMM:   9    -0.231591371873E+04    0.29956E-02   -0.19763E-03  4301   0.197E-02    0.825E-01
RMM:  10    -0.231589528235E+04    0.18436E-01   -0.33281E-02  4751   0.743E-02    0.134E+00
RMM:  11    -0.231596784043E+04   -0.72558E-01   -0.29814E-01  4728   0.211E-01    0.241E+00
RMM:  12    -0.231598267602E+04   -0.14836E-01   -0.41696E-02  5175   0.105E-01    0.212E+00
RMM:  13    -0.231598476664E+04   -0.20906E-02   -0.52662E-03  4850   0.253E-02    0.214E+00
RMM:  14    -0.231597699905E+04    0.77676E-02   -0.10484E-03  4130   0.171E-02    0.226E+00
RMM:  15    -0.231597702009E+04   -0.21034E-04   -0.99746E-05  3004   0.600E-03    0.227E+00
RMM:  16    -0.231597343043E+04    0.35897E-02   -0.27719E-04  3269   0.713E-03    0.231E+00
RMM:  17    -0.231601752947E+04   -0.44099E-01   -0.32335E-02  4640   0.732E-02    0.144E+00
RMM:  18    -0.231603573153E+04   -0.18202E-01   -0.20508E-02  4765   0.707E-02    0.745E-01
RMM:  19    -0.231604010539E+04   -0.43739E-02   -0.92821E-03  4884   0.466E-02    0.360E-01
RMM:  20    -0.231603933076E+04    0.77462E-03   -0.89190E-03  4837   0.391E-02    0.268E-01
RMM:  21    -0.231604000875E+04   -0.67798E-03   -0.59943E-04  3969   0.161E-02    0.120E-01
RMM:  22    -0.231604015305E+04   -0.14431E-03   -0.19749E-03  4163   0.183E-02    0.180E-01
RMM:  23    -0.231604037912E+04   -0.22607E-03   -0.62037E-04  3723   0.110E-02    0.287E-02
RMM:  24    -0.231604044002E+04   -0.60903E-04   -0.46489E-05  2944   0.489E-03    0.386E-02
RMM:  25    -0.231604049167E+04   -0.51643E-04   -0.49853E-05  2818   0.371E-03    0.139E-02
RMM:  26    -0.231604051801E+04   -0.26347E-04   -0.71049E-06  2680   0.246E-03    0.126E-02
RMM:  27    -0.231604052835E+04   -0.10338E-04   -0.80033E-06  2684   0.230E-03    0.243E-02
RMM:  28    -0.231604053150E+04   -0.31504E-05   -0.58674E-06  2455   0.199E-03
  25 F= -.23369169E+04 E0= -.23369169E+04  d E =-.140563E+00  mag=     6.0004
       N       E                     dE             d eps       ncg     rms          rms(c)
DAV:   1    -0.231593851247E+04    0.10202E+00   -0.61500E+00  4480   0.205E+00    0.834E-01
RMM:   2    -0.231606603899E+04   -0.12753E+00   -0.12194E+00  6146   0.474E-01    0.110E+00
RMM:   3    -0.231606374925E+04    0.22897E-02   -0.11875E-01  5744   0.170E-01    0.599E-01
RMM:   4    -0.231606151237E+04    0.22369E-02   -0.12394E-02  5376   0.397E-02    0.319E-01
RMM:   5    -0.231606092202E+04    0.59035E-03   -0.23681E-03  4844   0.192E-02    0.304E-01
RMM:   6    -0.231606006014E+04    0.86188E-03   -0.15503E-03  4574   0.189E-02    0.101E-01
RMM:   7    -0.231606002439E+04    0.35748E-04   -0.53734E-04  4000   0.146E-02    0.448E-02
RMM:   8    -0.231606001399E+04    0.10400E-04   -0.70398E-05  3092   0.622E-03    0.171E-02
RMM:   9    -0.231606001095E+04    0.30400E-05   -0.18781E-05  2896   0.431E-03
  26 F= -.23369348E+04 E0= -.23369348E+04  d E =-.158470E+00  mag=     6.0001
       N       E                     dE             d eps       ncg     rms          rms(c)
DAV:   1    -0.231603673962E+04    0.23274E-01   -0.13032E+00  4544   0.944E-01    0.380E-01
RMM:   2    -0.231606261391E+04   -0.25874E-01   -0.25321E-01  6105   0.214E-01    0.428E-01
RMM:   3    -0.231606330844E+04   -0.69453E-03   -0.24244E-02  5408   0.798E-02    0.292E-01
RMM:   4    -0.231606272784E+04    0.58060E-03   -0.25737E-03  4086   0.186E-02    0.150E-01
RMM:   5    -0.231606260304E+04    0.12480E-03   -0.49649E-04  3229   0.961E-03    0.142E-01
RMM:   6    -0.231606240982E+04    0.19321E-03   -0.33899E-04  3732   0.983E-03    0.420E-02
RMM:   7    -0.231606240545E+04    0.43750E-05   -0.10049E-04  3035   0.721E-03    0.190E-02
RMM:   8    -0.231606240356E+04    0.18916E-05   -0.15695E-05  2912   0.435E-03
  27 F= -.23369365E+04 E0= -.23369365E+04  d E =-.160220E+00  mag=     6.0001
       N       E                     dE             d eps       ncg     rms          rms(c)
DAV:   1    -0.231606503498E+04   -0.26295E-02   -0.11999E-01  4808   0.283E-01    0.116E-01
RMM:   2    -0.231606738464E+04   -0.23497E-02   -0.23401E-02  6169   0.649E-02    0.122E-01
RMM:   3    -0.231606747260E+04   -0.87955E-04   -0.21761E-03  3314   0.233E-02    0.687E-02
RMM:   4    -0.231606744000E+04    0.32602E-04   -0.22148E-04  2977   0.617E-03    0.330E-02
RMM:   5    -0.231606743625E+04    0.37511E-05   -0.39910E-05  2858   0.365E-03
  28 F= -.23369414E+04 E0= -.23369414E+04  d E =-.489568E-02  mag=     6.0001
       N       E                     dE             d eps       ncg     rms          rms(c)
DAV:   1    -0.231605854893E+04    0.88911E-02   -0.10788E+00  4480   0.848E-01    0.345E-01
RMM:   2    -0.231607950866E+04   -0.20960E-01   -0.20899E-01  6201   0.194E-01    0.366E-01
RMM:   3    -0.231608037384E+04   -0.86519E-03   -0.20328E-02  5400   0.692E-02    0.209E-01
RMM:   4    -0.231608008908E+04    0.28476E-03   -0.20055E-03  3813   0.155E-02    0.114E-01
RMM:   5    -0.231608014386E+04   -0.54788E-04   -0.35107E-04  3108   0.895E-03    0.148E-01
RMM:   6    -0.231607992704E+04    0.21682E-03   -0.31629E-04  3389   0.930E-03    0.487E-02
RMM:   7    -0.231607991689E+04    0.10148E-04   -0.71541E-05  2975   0.615E-03    0.148E-02
RMM:   8    -0.231607991585E+04    0.10460E-05   -0.11782E-05  2894   0.408E-03
  29 F= -.23369535E+04 E0= -.23369535E+04  d E =-.169876E-01  mag=     6.0001
       N       E                     dE             d eps       ncg     rms          rms(c)
DAV:   1    -0.231600567349E+04    0.74243E-01   -0.43369E+00  4464   0.170E+00    0.689E-01
RMM:   2    -0.231609061519E+04   -0.84942E-01   -0.84579E-01  6165   0.397E-01    0.699E-01
RMM:   3    -0.231609462980E+04   -0.40146E-02   -0.84521E-02  5776   0.141E-01    0.461E-01
RMM:   4    -0.231609317982E+04    0.14500E-02   -0.84070E-03  5229   0.314E-02    0.236E-01
RMM:   5    -0.231609315891E+04    0.20905E-04   -0.14706E-03  4325   0.162E-02    0.294E-01
RMM:   6    -0.231609241863E+04    0.74028E-03   -0.10795E-03  4365   0.150E-02    0.919E-02
RMM:   7    -0.231609237802E+04    0.40610E-04   -0.35543E-04  3811   0.114E-02    0.338E-02
RMM:   8    -0.231609237163E+04    0.63893E-05   -0.49920E-05  2979   0.587E-03
  30 F= -.23369653E+04 E0= -.23369653E+04  d E =-.287635E-01  mag=     6.0002
       N       E                     dE             d eps       ncg     rms          rms(c)
DAV:   1    -0.231610604859E+04   -0.13671E-01   -0.36853E-02  5072   0.145E-01    0.872E-02
RMM:   2    -0.231610720949E+04   -0.11609E-02   -0.10007E-02  6169   0.397E-02    0.168E-01
RMM:   3    -0.231610706863E+04    0.14086E-03   -0.12411E-03  3122   0.169E-02    0.589E-02
RMM:   4    -0.231610706027E+04    0.83651E-05   -0.13749E-04  2934   0.545E-03    0.466E-02
RMM:   5    -0.231610704146E+04    0.18810E-04   -0.27124E-05  2805   0.291E-03    0.201E-02
RMM:   6    -0.231610703599E+04    0.54683E-05   -0.14697E-05  2862   0.259E-03
  31 F= -.23369801E+04 E0= -.23369801E+04  d E =-.147927E-01  mag=     6.0001
       N       E                     dE             d eps       ncg     rms          rms(c)
DAV:   1    -0.231614059584E+04   -0.33554E-01   -0.33065E-01  4528   0.434E-01    0.261E-01
RMM:   2    -0.231615106373E+04   -0.10468E-01   -0.91182E-02  6151   0.113E-01    0.503E-01
RMM:   3    -0.231614964201E+04    0.14217E-02   -0.93568E-03  5410   0.454E-02    0.165E-01
RMM:   4    -0.231614958809E+04    0.53924E-04   -0.11789E-03  3582   0.128E-02    0.135E-01
RMM:   5    -0.231614943005E+04    0.15803E-03   -0.23115E-04  2964   0.748E-03    0.604E-02
RMM:   6    -0.231614937423E+04    0.55828E-04   -0.12496E-04  3549   0.668E-03    0.367E-02
RMM:   7    -0.231614935905E+04    0.15175E-04   -0.55558E-05  2940   0.635E-03    0.863E-03
RMM:   8    -0.231614935923E+04   -0.18126E-06   -0.10677E-05  2876   0.345E-03
  32 F= -.23370228E+04 E0= -.23370228E+04  d E =-.574972E-01  mag=     6.0000
       N       E                     dE             d eps       ncg     rms          rms(c)
DAV:   1    -0.231619125592E+04   -0.41897E-01   -0.13241E+00  4456   0.867E-01    0.520E-01
RMM:   2    -0.231623289349E+04   -0.41638E-01   -0.36517E-01  6035   0.224E-01    0.985E-01
RMM:   3    -0.231622750073E+04    0.53928E-02   -0.39490E-02  5724   0.914E-02    0.320E-01
RMM:   4    -0.231622730501E+04    0.19572E-03   -0.47448E-03  5070   0.246E-02    0.263E-01
RMM:   5    -0.231622670776E+04    0.59725E-03   -0.84664E-04  3667   0.132E-02    0.119E-01
RMM:   6    -0.231622648739E+04    0.22037E-03   -0.46161E-04  4507   0.115E-02    0.738E-02
RMM:   7    -0.231622642375E+04    0.63638E-04   -0.21901E-04  3674   0.110E-02    0.163E-02
RMM:   8    -0.231622642289E+04    0.86594E-06   -0.31741E-05  2952   0.472E-03
  33 F= -.23371006E+04 E0= -.23371006E+04  d E =-.135305E+00  mag=     6.0000
       N       E                     dE             d eps       ncg     rms          rms(c)
DAV:   1    -0.231621206703E+04    0.14357E-01   -0.53120E+00  4464   0.173E+00    0.102E+00
RMM:   2    -0.231637331602E+04   -0.16125E+00   -0.14320E+00  6013   0.441E-01    0.190E+00
RMM:   3    -0.231635316093E+04    0.20155E-01   -0.15573E-01  5773   0.183E-01    0.601E-01
RMM:   4    -0.231635265575E+04    0.50518E-03   -0.18167E-02  5459   0.476E-02    0.507E-01
RMM:   5    -0.231635055047E+04    0.21053E-02   -0.30978E-03  4961   0.245E-02    0.232E-01
RMM:   6    -0.231634968898E+04    0.86149E-03   -0.17311E-03  4814   0.208E-02    0.150E-01
RMM:   7    -0.231634942474E+04    0.26424E-03   -0.93166E-04  4620   0.199E-02    0.341E-02
RMM:   8    -0.231634941799E+04    0.67444E-05   -0.11094E-04  3645   0.726E-03    0.201E-02
RMM:   9    -0.231634941726E+04    0.73791E-06   -0.23903E-05  2948   0.539E-03
  34 F= -.23372250E+04 E0= -.23372250E+04  d E =-.259709E+00  mag=     6.0000
       N       E                     dE             d eps       ncg     rms          rms(c)
DAV:   1    -0.231591210660E+04    0.43731E+00   -0.21094E+01  4472   0.345E+00    0.200E+00
RMM:   2    -0.231654558526E+04   -0.63348E+00   -0.57598E+00  6076   0.901E-01    0.350E+00
RMM:   3    -0.231647878523E+04    0.66800E-01   -0.65493E-01  5855   0.383E-01    0.111E+00
RMM:   4    -0.231647834065E+04    0.44458E-03   -0.72834E-02  5624   0.936E-02    0.102E+00
RMM:   5    -0.231647033454E+04    0.80061E-02   -0.11022E-02  5364   0.459E-02    0.443E-01
RMM:   6    -0.231646720965E+04    0.31249E-02   -0.65660E-03  4932   0.391E-02    0.317E-01
RMM:   7    -0.231646605756E+04    0.11521E-02   -0.44696E-03  5123   0.406E-02    0.986E-02
RMM:   8    -0.231646596458E+04    0.92988E-04   -0.43697E-04  4786   0.138E-02    0.433E-02
RMM:   9    -0.231646593557E+04    0.29006E-04   -0.93222E-05  3560   0.770E-03    0.270E-02
RMM:  10    -0.231646593873E+04   -0.31588E-05   -0.77674E-05  3355   0.644E-03
  35 F= -.23373440E+04 E0= -.23373440E+04  d E =-.378696E+00  mag=     6.0000
       N       E                     dE             d eps       ncg     rms          rms(c)
DAV:   1    -0.231647842271E+04   -0.12487E-01   -0.27276E+00  4624   0.121E+00    0.678E-01
RMM:   2    -0.231654934615E+04   -0.70923E-01   -0.67526E-01  6107   0.303E-01    0.100E+00
RMM:   3    -0.231654569248E+04    0.36537E-02   -0.76187E-02  5798   0.130E-01    0.332E-01
RMM:   4    -0.231654563029E+04    0.62186E-04   -0.78732E-03  4976   0.287E-02    0.243E-01
RMM:   5    -0.231654531545E+04    0.31484E-03   -0.96001E-04  3893   0.147E-02    0.190E-01
RMM:   6    -0.231654487837E+04    0.43708E-03   -0.61191E-04  4523   0.129E-02    0.108E-01
RMM:   7    -0.231654477208E+04    0.10629E-03   -0.60102E-04  4194   0.154E-02    0.352E-02
RMM:   8    -0.231654476441E+04    0.76686E-05   -0.57459E-05  3016   0.550E-03
  36 F= -.23374240E+04 E0= -.23374240E+04  d E =-.799934E-01  mag=     6.0000
       N       E                     dE             d eps       ncg     rms          rms(c)
DAV:   1    -0.231606874419E+04    0.47603E+00   -0.22820E+01  4472   0.351E+00    0.199E+00
RMM:   2    -0.231669011322E+04   -0.62137E+00   -0.59288E+00  6107   0.919E-01    0.292E+00
RMM:   3    -0.231664355363E+04    0.46560E-01   -0.65858E-01  5843   0.383E-01    0.858E-01
RMM:   4    -0.231664580024E+04   -0.22466E-02   -0.67894E-02  5497   0.841E-02    0.867E-01
RMM:   5    -0.231664093946E+04    0.48608E-02   -0.85266E-03  5214   0.413E-02    0.474E-01
RMM:   6    -0.231663822124E+04    0.27182E-02   -0.49569E-03  4757   0.332E-02    0.362E-01
RMM:   7    -0.231663690963E+04    0.13116E-02   -0.62925E-03  5182   0.445E-02    0.161E-01
RMM:   8    -0.231663664383E+04    0.26580E-03   -0.53675E-04  4983   0.141E-02    0.502E-02
RMM:   9    -0.231663658960E+04    0.54223E-04   -0.81730E-05  3169   0.680E-03    0.329E-02
RMM:  10    -0.231663655845E+04    0.31158E-04   -0.11182E-04  3395   0.664E-03    0.117E-02
RMM:  11    -0.231663655674E+04    0.17058E-05   -0.17643E-05  2888   0.482E-03
  37 F= -.23375189E+04 E0= -.23375189E+04  d E =-.174948E+00  mag=     6.0000
       N       E                     dE             d eps       ncg     rms          rms(c)
DAV:   1    -0.231661483785E+04    0.21721E-01   -0.25229E+00  4536   0.107E+00    0.648E-01
RMM:   2    -0.231668133812E+04   -0.66500E-01   -0.63200E-01  6195   0.282E-01    0.986E-01
RMM:   3    -0.231667627770E+04    0.50604E-02   -0.62302E-02  5847   0.107E-01    0.374E-01
RMM:   4    -0.231667661198E+04   -0.33429E-03   -0.83692E-03  5175   0.283E-02    0.365E-01
RMM:   5    -0.231667559014E+04    0.10218E-02   -0.14047E-03  3890   0.157E-02    0.157E-01
RMM:   6    -0.231667531281E+04    0.27733E-03   -0.71279E-04  4473   0.129E-02    0.120E-01
RMM:   7    -0.231667519087E+04    0.12194E-03   -0.52661E-04  3628   0.142E-02    0.445E-02
RMM:   8    -0.231667517073E+04    0.20140E-04   -0.50549E-05  2963   0.530E-03    0.118E-02
RMM:   9    -0.231667516882E+04    0.19153E-05   -0.93821E-06  2872   0.368E-03
  38 F= -.23375580E+04 E0= -.23375580E+04  d E =-.390053E-01  mag=     6.0000
       N       E                     dE             d eps       ncg     rms          rms(c)
DAV:   1    -0.231661871585E+04    0.56455E-01   -0.29242E+00  4472   0.116E+00    0.699E-01
RMM:   2    -0.231669627182E+04   -0.77556E-01   -0.74214E-01  6201   0.310E-01    0.104E+00
RMM:   3    -0.231669100241E+04    0.52694E-02   -0.74029E-02  5884   0.118E-01    0.437E-01
RMM:   4    -0.231669127428E+04   -0.27188E-03   -0.10018E-02  5328   0.315E-02    0.407E-01
RMM:   5    -0.231668998013E+04    0.12941E-02   -0.16492E-03  4233   0.172E-02    0.167E-01
RMM:   6    -0.231668965926E+04    0.32088E-03   -0.90066E-04  4576   0.140E-02    0.126E-01
RMM:   7    -0.231668952596E+04    0.13329E-03   -0.61201E-04  3791   0.153E-02    0.496E-02
RMM:   8    -0.231668950022E+04    0.25739E-04   -0.60221E-05  2973   0.551E-03    0.128E-02
RMM:   9    -0.231668949719E+04    0.30320E-05   -0.10655E-05  2882   0.386E-03
  39 F= -.23375727E+04 E0= -.23375727E+04  d E =-.537648E-01  mag=     6.0000
       N       E                     dE             d eps       ncg     rms          rms(c)
DAV:   1    -0.231669063614E+04   -0.11359E-02   -0.10685E+00  4496   0.946E-01    0.452E-01
RMM:   2    -0.231671420711E+04   -0.23571E-01   -0.23286E-01  5966   0.223E-01    0.513E-01
RMM:   3    -0.231671515049E+04   -0.94338E-03   -0.25959E-02  5680   0.930E-02    0.456E-01
RMM:   4    -0.231671373613E+04    0.14144E-02   -0.30308E-03  5093   0.239E-02    0.138E-01
RMM:   5    -0.231671360765E+04    0.12848E-03   -0.66431E-04  4075   0.134E-02    0.123E-01
RMM:   6    -0.231671343723E+04    0.17042E-03   -0.32063E-04  4394   0.112E-02    0.557E-02
RMM:   7    -0.231671340424E+04    0.32988E-04   -0.14110E-04  3715   0.101E-02    0.189E-02
RMM:   8    -0.231671339896E+04    0.52793E-05   -0.26717E-05  2997   0.495E-03
  40 F= -.23375962E+04 E0= -.23375962E+04  d E =-.234593E-01  mag=     6.0000
       N       E                     dE             d eps       ncg     rms          rms(c)
DAV:   1    -0.231664521408E+04    0.68190E-01   -0.40012E+00  4464   0.183E+00    0.882E-01
RMM:   2    -0.231673597693E+04   -0.90763E-01   -0.89048E-01  5973   0.440E-01    0.104E+00
RMM:   3    -0.231673742368E+04   -0.14468E-02   -0.99694E-02  5793   0.173E-01    0.835E-01
RMM:   4    -0.231673263246E+04    0.47912E-02   -0.11324E-02  5410   0.453E-02    0.256E-01
RMM:   5    -0.231673218317E+04    0.44929E-03   -0.23493E-03  5079   0.245E-02    0.243E-01
RMM:   6    -0.231673153216E+04    0.65101E-03   -0.11933E-03  4899   0.197E-02    0.117E-01
RMM:   7    -0.231673137534E+04    0.15682E-03   -0.56032E-04  4685   0.171E-02    0.373E-02
RMM:   8    -0.231673134761E+04    0.27728E-04   -0.89125E-05  3820   0.712E-03    0.163E-02
RMM:   9    -0.231673133173E+04    0.15882E-04   -0.26338E-05  2976   0.567E-03    0.848E-03
RMM:  10    -0.231673132673E+04    0.49999E-05   -0.13818E-05  2869   0.408E-03
  41 F= -.23376132E+04 E0= -.23376132E+04  d E =-.405147E-01  mag=     6.0000
       N       E                     dE             d eps       ncg     rms          rms(c)
DAV:   1    -0.231671087848E+04    0.20453E-01   -0.16811E+00  4544   0.108E+00    0.531E-01
RMM:   2    -0.231675075378E+04   -0.39875E-01   -0.39834E-01  6105   0.269E-01    0.567E-01
RMM:   3    -0.231675328592E+04   -0.25321E-02   -0.44539E-02  5755   0.107E-01    0.558E-01
RMM:   4    -0.231675108343E+04    0.22025E-02   -0.44514E-03  5130   0.263E-02    0.126E-01
RMM:   5    -0.231675091852E+04    0.16491E-03   -0.68557E-04  4477   0.136E-02    0.106E-01
RMM:   6    -0.231675090230E+04    0.16220E-04   -0.39433E-04  3724   0.108E-02    0.103E-01
RMM:   7    -0.231675080608E+04    0.96222E-04   -0.14746E-04  3460   0.865E-03    0.271E-02
RMM:   8    -0.231675080182E+04    0.42510E-05   -0.35495E-05  2932   0.576E-03
  42 F= -.23376316E+04 E0= -.23376316E+04  d E =-.183615E-01  mag=     6.0000
       N       E                     dE             d eps       ncg     rms          rms(c)
DAV:   1    -0.231670958007E+04    0.41226E-01   -0.20814E+00  4504   0.121E+00    0.590E-01
RMM:   2    -0.231675840240E+04   -0.48822E-01   -0.49008E-01  6122   0.301E-01    0.609E-01
RMM:   3    -0.231676177794E+04   -0.33755E-02   -0.55600E-02  5743   0.120E-01    0.608E-01
RMM:   4    -0.231675913943E+04    0.26385E-02   -0.55212E-03  5266   0.293E-02    0.139E-01
RMM:   5    -0.231675892064E+04    0.21879E-03   -0.85789E-04  4651   0.150E-02    0.108E-01
RMM:   6    -0.231675893174E+04   -0.11099E-04   -0.49003E-04  4078   0.120E-02    0.121E-01
RMM:   7    -0.231675879583E+04    0.13590E-03   -0.18538E-04  3576   0.915E-03    0.300E-02
RMM:   8    -0.231675878882E+04    0.70133E-05   -0.42282E-05  2949   0.597E-03
  43 F= -.23376383E+04 E0= -.23376383E+04  d E =-.250898E-01  mag=     6.0000
       N       E                     dE             d eps       ncg     rms          rms(c)
DAV:   1    -0.231676184616E+04   -0.30503E-02   -0.31898E-01  4560   0.524E-01    0.222E-01
RMM:   2    -0.231676496345E+04   -0.31173E-02   -0.34955E-02  5973   0.107E-01    0.129E-01
RMM:   3    -0.231676542713E+04   -0.46368E-03   -0.39861E-03  5026   0.452E-02    0.220E-01
RMM:   4    -0.231676506486E+04    0.36227E-03   -0.53039E-04  3530   0.119E-02    0.618E-02
RMM:   5    -0.231676502104E+04    0.43821E-04   -0.18939E-04  3923   0.917E-03    0.380E-02
RMM:   6    -0.231676502791E+04   -0.68752E-05   -0.79214E-05  2917   0.755E-03
  44 F= -.23376442E+04 E0= -.23376442E+04  d E =-.586020E-02  mag=     6.0000
       N       E                     dE             d eps       ncg     rms          rms(c)
DAV:   1    -0.231676376043E+04    0.12606E-02   -0.27534E-01  4528   0.487E-01    0.205E-01
RMM:   2    -0.231676639261E+04   -0.26322E-02   -0.30003E-02  5898   0.988E-02    0.107E-01
RMM:   3    -0.231676666391E+04   -0.27130E-03   -0.34857E-03  4802   0.429E-02    0.142E-01
RMM:   4    -0.231676655064E+04    0.11327E-03   -0.44041E-04  3316   0.105E-02    0.723E-02
RMM:   5    -0.231676649209E+04    0.58548E-04   -0.13396E-04  3684   0.833E-03    0.258E-02
RMM:   6    -0.231676649036E+04    0.17359E-05   -0.43290E-05  2991   0.656E-03
  45 F= -.23376453E+04 E0= -.23376453E+04  d E =-.696186E-02  mag=     6.0000
       N       E                     dE             d eps       ncg     rms          rms(c)
DAV:   1    -0.231676890257E+04   -0.24105E-02   -0.87754E-02  4656   0.259E-01    0.994E-02
RMM:   2    -0.231676978259E+04   -0.88002E-03   -0.95389E-03  6190   0.513E-02    0.558E-02
RMM:   3    -0.231676986374E+04   -0.81152E-04   -0.98896E-04  3272   0.184E-02    0.703E-02
RMM:   4    -0.231676983871E+04    0.25027E-04   -0.11699E-04  2967   0.550E-03    0.369E-02
RMM:   5    -0.231676982729E+04    0.11419E-04   -0.35682E-05  2926   0.404E-03    0.182E-02
RMM:   6    -0.231676983115E+04   -0.38548E-05   -0.20735E-05  2880   0.340E-03
  46 F= -.23376486E+04 E0= -.23376486E+04  d E =-.332091E-02  mag=     6.0000
       N       E                     dE             d eps       ncg     rms          rms(c)
DAV:   1    -0.231676926059E+04    0.56670E-03   -0.79059E-01  4464   0.776E-01    0.297E-01
RMM:   2    -0.231677735866E+04   -0.80981E-02   -0.85835E-02  5925   0.150E-01    0.210E-01
RMM:   3    -0.231677843509E+04   -0.10764E-02   -0.92830E-03  5164   0.607E-02    0.334E-01
RMM:   4    -0.231677767053E+04    0.76456E-03   -0.11205E-03  3894   0.153E-02    0.943E-02
RMM:   5    -0.231677767410E+04   -0.35694E-05   -0.39019E-04  3560   0.108E-02    0.102E-01
RMM:   6    -0.231677760909E+04    0.65006E-04   -0.24481E-04  3187   0.904E-03    0.598E-02
RMM:   7    -0.231677758884E+04    0.20250E-04   -0.43201E-05  2925   0.588E-03    0.246E-02
RMM:   8    -0.231677758533E+04    0.35134E-05   -0.11774E-05  2892   0.369E-03
  47 F= -.23376563E+04 E0= -.23376563E+04  d E =-.109863E-01  mag=     6.0000
       N       E                     dE             d eps       ncg     rms          rms(c)
DAV:   1    -0.231674927006E+04    0.28319E-01   -0.31638E+00  4464   0.155E+00    0.587E-01
RMM:   2    -0.231678222250E+04   -0.32952E-01   -0.34390E-01  5938   0.303E-01    0.505E-01
RMM:   3    -0.231678590481E+04   -0.36823E-02   -0.36764E-02  5560   0.116E-01    0.695E-01
RMM:   4    -0.231678273404E+04    0.31708E-02   -0.44868E-03  5267   0.303E-02    0.198E-01
RMM:   5    -0.231678279627E+04   -0.62236E-04   -0.14593E-03  4594   0.187E-02    0.226E-01
RMM:   6    -0.231678240642E+04    0.38986E-03   -0.10242E-03  4763   0.162E-02    0.934E-02
RMM:   7    -0.231678236585E+04    0.40566E-04   -0.17094E-04  3369   0.960E-03    0.421E-02
RMM:   8    -0.231678235455E+04    0.11304E-04   -0.30997E-05  2918   0.495E-03    0.139E-02
RMM:   9    -0.231678235456E+04   -0.92841E-08   -0.11756E-05  2898   0.316E-03
  48 F= -.23376607E+04 E0= -.23376607E+04  d E =-.154669E-01  mag=     6.0000
       N       E                     dE             d eps       ncg     rms          rms(c)
DAV:   1    -0.231678724404E+04   -0.48895E-02   -0.26805E-01  4544   0.488E-01    0.178E-01
RMM:   2    -0.231678892794E+04   -0.16839E-02   -0.16902E-02  5710   0.863E-02    0.157E-01
RMM:   3    -0.231678912757E+04   -0.19963E-03   -0.17494E-03  4659   0.326E-02    0.219E-01
RMM:   4    -0.231678878307E+04    0.34451E-03   -0.28548E-04  3603   0.101E-02    0.500E-02
RMM:   5    -0.231678878568E+04   -0.26092E-05   -0.13415E-04  3344   0.785E-03    0.532E-02
RMM:   6    -0.231678876903E+04    0.16644E-04   -0.66530E-05  2910   0.649E-03    0.315E-02
RMM:   7    -0.231678876144E+04    0.75879E-05   -0.11750E-05  2872   0.400E-03
  49 F= -.23376672E+04 E0= -.23376672E+04  d E =-.649465E-02  mag=     6.0000
       N       E                     dE             d eps       ncg     rms          rms(c)
DAV:   1    -0.231678682623E+04    0.19428E-02   -0.24076E+00  4480   0.146E+00    0.526E-01
RMM:   2    -0.231680180827E+04   -0.14982E-01   -0.15173E-01  5626   0.258E-01    0.467E-01
RMM:   3    -0.231680352553E+04   -0.17173E-02   -0.16034E-02  5337   0.102E-01    0.639E-01
RMM:   4    -0.231680061163E+04    0.29139E-02   -0.25764E-03  5028   0.290E-02    0.145E-01
RMM:   5    -0.231680065025E+04   -0.38616E-04   -0.11400E-03  4937   0.210E-02    0.164E-01
RMM:   6    -0.231680046745E+04    0.18280E-03   -0.60420E-04  4758   0.138E-02    0.853E-02
RMM:   7    -0.231680040728E+04    0.60171E-04   -0.74226E-05  3110   0.806E-03    0.179E-02
RMM:   8    -0.231680040400E+04    0.32772E-05   -0.18860E-05  2899   0.422E-03
  50 F= -.23376791E+04 E0= -.23376791E+04  d E =-.183641E-01  mag=     6.0000
       N       E                     dE             d eps       ncg     rms          rms(c)
DAV:   1    -0.231673463301E+04    0.65774E-01   -0.96166E+00  4496   0.293E+00    0.104E+00
RMM:   2    -0.231679513132E+04   -0.60498E-01   -0.60584E-01  5654   0.517E-01    0.105E+00
RMM:   3    -0.231679859881E+04   -0.34675E-02   -0.64939E-02  5416   0.204E-01    0.117E+00
RMM:   4    -0.231678906975E+04    0.95291E-02   -0.92841E-03  5161   0.569E-02    0.293E-01
RMM:   5    -0.231678933917E+04   -0.26943E-03   -0.40565E-03  5157   0.400E-02    0.356E-01
RMM:   6    -0.231678832627E+04    0.10129E-02   -0.24551E-03  5156   0.285E-02    0.147E-01
RMM:   7    -0.231678815759E+04    0.16868E-03   -0.31992E-04  4413   0.175E-02    0.335E-02
RMM:   8    -0.231678814207E+04    0.15523E-04   -0.62978E-05  3263   0.615E-03    0.212E-02
RMM:   9    -0.231678813061E+04    0.11455E-04   -0.24338E-05  2996   0.488E-03    0.807E-03
RMM:  10    -0.231678812639E+04    0.42247E-05   -0.11856E-05  2841   0.412E-03
  51 F= -.23376672E+04 E0= -.23376672E+04  d E =-.641441E-02  mag=     6.0000
       N       E                     dE             d eps       ncg     rms          rms(c)
DAV:   1    -0.231677167747E+04    0.16453E-01   -0.53710E+00  4464   0.221E+00    0.781E-01
RMM:   2    -0.231680956739E+04   -0.37890E-01   -0.35384E-01  5632   0.393E-01    0.986E-01
RMM:   3    -0.231680633389E+04    0.32335E-02   -0.35232E-02  5390   0.152E-01    0.745E-01
RMM:   4    -0.231680236726E+04    0.39666E-02   -0.46642E-03  4868   0.410E-02    0.211E-01
RMM:   5    -0.231680238134E+04   -0.14079E-04   -0.21429E-03  5238   0.321E-02    0.230E-01
RMM:   6    -0.231680208330E+04    0.29804E-03   -0.10568E-03  5376   0.178E-02    0.147E-01
RMM:   7    -0.231680191412E+04    0.16918E-03   -0.18829E-04  3486   0.999E-03    0.266E-02
RMM:   8    -0.231680190472E+04    0.93993E-05   -0.36571E-05  2929   0.520E-03
  52 F= -.23376807E+04 E0= -.23376807E+04  d E =-.199614E-01  mag=     6.0000
       N       E                     dE             d eps       ncg     rms          rms(c)
DAV:   1    -0.231680697208E+04   -0.50580E-02   -0.44735E-01  4512   0.593E-01    0.208E-01
RMM:   2    -0.231681081211E+04   -0.38400E-02   -0.41491E-02  5987   0.110E-01    0.125E-01
RMM:   3    -0.231681122445E+04   -0.41234E-03   -0.47825E-03  4965   0.461E-02    0.177E-01
RMM:   4    -0.231681103016E+04    0.19429E-03   -0.50757E-04  3284   0.110E-02    0.710E-02
RMM:   5    -0.231681099011E+04    0.40044E-04   -0.22934E-04  3708   0.919E-03    0.603E-02
RMM:   6    -0.231681097471E+04    0.15400E-04   -0.11674E-04  3013   0.761E-03    0.442E-02
RMM:   7    -0.231681096057E+04    0.14145E-04   -0.24125E-05  2887   0.460E-03    0.165E-02
RMM:   8    -0.231681095735E+04    0.32148E-05   -0.71074E-06  2856   0.298E-03
  53 F= -.23376899E+04 E0= -.23376899E+04  d E =-.919917E-02  mag=     6.0000
       N       E                     dE             d eps       ncg     rms          rms(c)
DAV:   1    -0.231680056213E+04    0.10398E-01   -0.20060E+00  4464   0.125E+00    0.441E-01
RMM:   2    -0.231681780231E+04   -0.17240E-01   -0.18636E-01  5777   0.231E-01    0.260E-01
RMM:   3    -0.231681952773E+04   -0.17254E-02   -0.21548E-02  5205   0.992E-02    0.341E-01
RMM:   4    -0.231681883959E+04    0.68815E-03   -0.22896E-03  5047   0.221E-02    0.154E-01
RMM:   5    -0.231681864782E+04    0.19176E-03   -0.10345E-03  4772   0.181E-02    0.121E-01
RMM:   6    -0.231681859932E+04    0.48502E-04   -0.47775E-04  4088   0.126E-02    0.932E-02
RMM:   7    -0.231681853795E+04    0.61370E-04   -0.88449E-05  2974   0.649E-03    0.340E-02
RMM:   8    -0.231681852600E+04    0.11948E-04   -0.23868E-05  2925   0.410E-03    0.929E-03
RMM:   9    -0.231681852537E+04    0.63296E-06   -0.11006E-05  2899   0.306E-03
  54 F= -.23376978E+04 E0= -.23376978E+04  d E =-.170546E-01  mag=     6.0000
       N       E                     dE             d eps       ncg     rms          rms(c)
DAV:   1    -0.231681865011E+04   -0.12411E-03   -0.69697E-01  4504   0.707E-01    0.245E-01
RMM:   2    -0.231682589367E+04   -0.72436E-02   -0.79700E-02  5939   0.134E-01    0.158E-01
RMM:   3    -0.231682656192E+04   -0.66826E-03   -0.88140E-03  4865   0.574E-02    0.133E-01
RMM:   4    -0.231682653909E+04    0.22837E-04   -0.89303E-04  3490   0.128E-02    0.124E-01
RMM:   5    -0.231682641495E+04    0.12414E-03   -0.39921E-04  3864   0.105E-02    0.720E-02
RMM:   6    -0.231682640609E+04    0.88633E-05   -0.14053E-04  3017   0.773E-03    0.527E-02
RMM:   7    -0.231682638242E+04    0.23665E-04   -0.36720E-05  2896   0.491E-03    0.110E-02
RMM:   8    -0.231682638167E+04    0.74651E-06   -0.61098E-06  2841   0.272E-03
  55 F= -.23377059E+04 E0= -.23377059E+04  d E =-.814415E-02  mag=     6.0000
       N       E                     dE             d eps       ncg     rms          rms(c)
DAV:   1    -0.231682202224E+04    0.43602E-02   -0.58324E-01  4480   0.646E-01    0.224E-01
RMM:   2    -0.231682811679E+04   -0.60946E-02   -0.67030E-02  5821   0.123E-01    0.146E-01
RMM:   3    -0.231682868054E+04   -0.56375E-03   -0.74986E-03  4613   0.532E-02    0.124E-01
RMM:   4    -0.231682865166E+04    0.28878E-04   -0.76364E-04  3415   0.118E-02    0.108E-01
RMM:   5    -0.231682856184E+04    0.89817E-04   -0.32972E-04  3621   0.956E-03    0.707E-02
RMM:   6    -0.231682854860E+04    0.13245E-04   -0.12692E-04  3008   0.734E-03    0.485E-02
RMM:   7    -0.231682852930E+04    0.19294E-04   -0.32657E-05  2903   0.472E-03    0.101E-02
RMM:   8    -0.231682852859E+04    0.71606E-06   -0.54425E-06  2822   0.268E-03
  56 F= -.23377083E+04 E0= -.23377083E+04  d E =-.105487E-01  mag=     6.0000
       N       E                     dE             d eps       ncg     rms          rms(c)
DAV:   1    -0.231683127788E+04   -0.27486E-02   -0.34336E-01  4512   0.543E-01    0.189E-01
RMM:   2    -0.231683402605E+04   -0.27482E-02   -0.28152E-02  5574   0.965E-02    0.175E-01
RMM:   3    -0.231683417836E+04   -0.15231E-03   -0.29793E-03  4598   0.429E-02    0.172E-01
RMM:   4    -0.231683392483E+04    0.25354E-03   -0.37497E-04  3911   0.112E-02    0.555E-02
RMM:   5    -0.231683390782E+04    0.17004E-04   -0.15779E-04  3631   0.904E-03    0.523E-02
RMM:   6    -0.231683388964E+04    0.18186E-04   -0.74807E-05  2949   0.674E-03    0.243E-02
RMM:   7    -0.231683388488E+04    0.47549E-05   -0.13589E-05  2883   0.446E-03
  57 F= -.23377135E+04 E0= -.23377135E+04  d E =-.515448E-02  mag=     6.0000
       N       E                     dE             d eps       ncg     rms          rms(c)
DAV:   1    -0.231682628297E+04    0.76067E-02   -0.16443E+00  4464   0.119E+00    0.414E-01
RMM:   2    -0.231683962731E+04   -0.13344E-01   -0.13662E-01  5564   0.213E-01    0.391E-01
RMM:   3    -0.231684010897E+04   -0.48166E-03   -0.12940E-02  5027   0.953E-02    0.369E-01
RMM:   4    -0.231683893389E+04    0.11751E-02   -0.16968E-03  4836   0.240E-02    0.117E-01
RMM:   5    -0.231683883304E+04    0.10085E-03   -0.76265E-04  5106   0.187E-02    0.103E-01
RMM:   6    -0.231683876714E+04    0.65900E-04   -0.31797E-04  4436   0.107E-02    0.559E-02
RMM:   7    -0.231683873650E+04    0.30635E-04   -0.49812E-05  2980   0.573E-03    0.139E-02
RMM:   8    -0.231683873487E+04    0.16320E-05   -0.14076E-05  2892   0.365E-03
  58 F= -.23377178E+04 E0= -.23377178E+04  d E =-.953365E-02  mag=     6.0000
       N       E                     dE             d eps       ncg     rms          rms(c)
DAV:   1    -0.231684081719E+04   -0.20807E-02   -0.31341E-01  4528   0.504E-01    0.163E-01
[...]
 181 F= -.23377980E+04 E0= -.23377980E+04  d E =-.227577E-04  mag=     6.0000
       N       E                     dE             d eps       ncg     rms          rms(c)
DAV:   1    -0.231694091745E+04    0.16926E-05   -0.24573E-03  4456   0.473E-02    0.175E-02
RMM:   2    -0.231694093456E+04   -0.17113E-04   -0.18335E-04  3635   0.101E-02    0.140E-02
RMM:   3    -0.231694093698E+04   -0.24142E-05   -0.25969E-05  2672   0.586E-03
 182 F= -.23377980E+04 E0= -.23377980E+04  d E =-.194053E-04  mag=     6.0000
       N       E                     dE             d eps       ncg     rms          rms(c)
DAV:   1    -0.231694093212E+04    0.24439E-05   -0.20568E-04  4888   0.138E-02    0.906E-03
RMM:   2    -0.231694093450E+04   -0.23812E-05   -0.19745E-05  2562   0.338E-03
 183 F= -.23377980E+04 E0= -.23377980E+04  d E =-.183713E-04  mag=     6.0000
       N       E                     dE             d eps       ncg     rms          rms(c)
DAV:   1    -0.231694092690E+04    0.52229E-05   -0.23315E-03  4456   0.463E-02    0.172E-02
RMM:   2    -0.231694094495E+04   -0.18056E-04   -0.19713E-04  3578   0.103E-02    0.120E-02
RMM:   3    -0.231694094618E+04   -0.12300E-05   -0.21206E-05  2775   0.569E-03
 184 F= -.23377980E+04 E0= -.23377980E+04  d E =-.207530E-04  mag=     6.0000
       N       E                     dE             d eps       ncg     rms          rms(c)
DAV:   1    -0.231694094274E+04    0.22075E-05   -0.14317E-04  5008   0.117E-02    0.855E-03
RMM:   2    -0.231694094588E+04   -0.31357E-05   -0.17358E-05  2561   0.304E-03
 185 F= -.23377980E+04 E0= -.23377980E+04  d E =-.226988E-04  mag=     6.0000
       N       E                     dE             d eps       ncg     rms          rms(c)
DAV:   1    -0.231694093878E+04    0.39682E-05   -0.22485E-03  4448   0.447E-02    0.174E-02
RMM:   2    -0.231694095896E+04   -0.20180E-04   -0.20694E-04  3523   0.102E-02    0.167E-02
RMM:   3    -0.231694096031E+04   -0.13553E-05   -0.26727E-05  2642   0.573E-03
 186 F= -.23377981E+04 E0= -.23377981E+04  d E =-.187381E-04  mag=     6.0000
       N       E                     dE             d eps       ncg     rms          rms(c)
DAV:   1    -0.231694095553E+04    0.34304E-05   -0.23867E-04  4904   0.146E-02    0.104E-02
RMM:   2    -0.231694095958E+04   -0.40538E-05   -0.29457E-05  2622   0.373E-03
 187 F= -.23377981E+04 E0= -.23377981E+04  d E =-.194014E-04  mag=     6.0000
       N       E                     dE             d eps       ncg     rms          rms(c)
DAV:   1    -0.231694096159E+04   -0.60652E-05   -0.14419E-03  4376   0.345E-02    0.135E-02
RMM:   2    -0.231694097610E+04   -0.14507E-04   -0.15453E-04  3181   0.830E-03    0.998E-03
RMM:   3    -0.231694097715E+04   -0.10551E-05   -0.16328E-05  2467   0.455E-03
 188 F= -.23377981E+04 E0= -.23377981E+04  d E =-.150644E-04  mag=     6.0000
       N       E                     dE             d eps       ncg     rms          rms(c)
DAV:   1    -0.231694097634E+04   -0.24340E-06   -0.65341E-04  4256   0.231E-02    0.114E-02
RMM:   2    -0.231694098542E+04   -0.90758E-05   -0.72336E-05  2974   0.565E-03
 189 F= -.23377981E+04 E0= -.23377981E+04  d E =-.216426E-04  mag=     6.0000
       N       E                     dE             d eps       ncg     rms          rms(c)
DAV:   1    -0.231694099176E+04   -0.15418E-04   -0.94066E-04  4296   0.304E-02    0.132E-02
RMM:   2    -0.231694100249E+04   -0.10735E-04   -0.99081E-05  3157   0.778E-03    0.178E-02
RMM:   3    -0.231694100148E+04    0.10168E-05   -0.13090E-05  2450   0.443E-03
 190 F= -.23377981E+04 E0= -.23377981E+04  d E =-.168526E-04  mag=     6.0000
       N       E                     dE             d eps       ncg     rms          rms(c)
DAV:   1    -0.231694099950E+04    0.29963E-05   -0.71421E-04  4400   0.263E-02    0.121E-02
RMM:   2    -0.231694100585E+04   -0.63510E-05   -0.67701E-05  3014   0.634E-03
 191 F= -.23377981E+04 E0= -.23377981E+04  d E =-.219369E-04  mag=     6.0000
       N       E                     dE             d eps       ncg     rms          rms(c)
DAV:   1    -0.231694099421E+04    0.52877E-05   -0.85167E-04  4360   0.288E-02    0.145E-02
RMM:   2    -0.231694100730E+04   -0.13092E-04   -0.11052E-04  3159   0.761E-03    0.232E-02
RMM:   3    -0.231694100344E+04    0.38634E-05   -0.14837E-05  2574   0.421E-03
 192 F= -.23377981E+04 E0= -.23377981E+04  d E =-.101725E-04  mag=     6.0000
       N       E                     dE             d eps       ncg     rms          rms(c)
DAV:   1    -0.231694099710E+04    0.10206E-04   -0.16825E-04  4952   0.128E-02    0.973E-03
RMM:   2    -0.231694100166E+04   -0.45617E-05   -0.24949E-05  2578   0.349E-03
 193 F= -.23377981E+04 E0= -.23377981E+04  d E =-.140065E-04  mag=     6.0000
       N       E                     dE             d eps       ncg     rms          rms(c)
DAV:   1    -0.231694099277E+04    0.43216E-05   -0.56962E-04  4184   0.224E-02    0.896E-03
RMM:   2    -0.231694099967E+04   -0.68979E-05   -0.74381E-05  2760   0.577E-03
 194 F= -.23377981E+04 E0= -.23377981E+04  d E =-.715012E-05  mag=     6.0000
       N       E                     dE             d eps       ncg     rms          rms(c)
DAV:   1    -0.231694099353E+04   -0.75478E-06   -0.28711E-04  4320   0.162E-02    0.926E-03
RMM:   2    -0.231694099992E+04   -0.63932E-05   -0.45928E-05  2704   0.458E-03
 195 F= -.23377981E+04 E0= -.23377981E+04  d E =-.138537E-04  mag=     6.0000
       N       E                     dE             d eps       ncg     rms          rms(c)
DAV:   1    -0.231694096948E+04    0.24046E-04   -0.11300E-03  4368   0.315E-02    0.130E-02
RMM:   2    -0.231694098313E+04   -0.13651E-04   -0.14876E-04  3267   0.810E-03    0.817E-03
RMM:   3    -0.231694098410E+04   -0.96516E-06   -0.16487E-05  2630   0.444E-03
 196 F= -.23377981E+04 E0= -.23377981E+04  d E =-.109348E-04  mag=     6.0000
       N       E                     dE             d eps       ncg     rms          rms(c)
DAV:   1    -0.231694098868E+04   -0.55507E-05   -0.41216E-04  4152   0.189E-02    0.836E-03
RMM:   2    -0.231694099431E+04   -0.56284E-05   -0.49235E-05  2585   0.451E-03
 197 F= -.23377981E+04 E0= -.23377981E+04  d E =-.134137E-04  mag=     6.0000
       N       E                     dE             d eps       ncg     rms          rms(c)
DAV:   1    -0.231694099652E+04   -0.78356E-05   -0.74756E-04  4208   0.254E-02    0.955E-03
RMM:   2    -0.231694100515E+04   -0.86274E-05   -0.88825E-05  2876   0.619E-03
 198 F= -.23377981E+04 E0= -.23377981E+04  d E =-.112531E-04  mag=     6.0000
       N       E                     dE             d eps       ncg     rms          rms(c)
DAV:   1    -0.231694100136E+04   -0.48424E-05   -0.97334E-04  4304   0.292E-02    0.128E-02
RMM:   2    -0.231694101589E+04   -0.14531E-04   -0.13703E-04  3168   0.758E-03    0.179E-02
RMM:   3    -0.231694101499E+04    0.89947E-06   -0.15847E-05  2447   0.425E-03
 199 F= -.23377981E+04 E0= -.23377981E+04  d E =-.215696E-04  mag=     6.0000
       N       E                     dE             d eps       ncg     rms          rms(c)
DAV:   1    -0.231694096817E+04    0.47721E-04   -0.38285E-03  4480   0.570E-02    0.233E-02
RMM:   2    -0.231694101694E+04   -0.48769E-04   -0.48326E-04  4191   0.124E-02    0.255E-02
RMM:   3    -0.231694101745E+04   -0.50873E-06   -0.54524E-05  2869   0.625E-03
 200 F= -.23377981E+04 E0= -.23377981E+04  d E =-.249985E-04  mag=     6.0000
       N       E                     dE             d eps       ncg     rms          rms(c)
DAV:   1    -0.231694101664E+04    0.29690E-06   -0.54079E-04  4768   0.202E-02    0.124E-02
RMM:   2    -0.231694102639E+04   -0.97424E-05   -0.82500E-05  2936   0.508E-03
 201 F= -.23377982E+04 E0= -.23377982E+04  d E =-.912446E-05  mag=     6.0000
       N       E                     dE             d eps       ncg     rms          rms(c)
DAV:   1    -0.231694097670E+04    0.39945E-04   -0.48523E-03  4472   0.604E-02    0.229E-02
RMM:   2    -0.231694104044E+04   -0.63742E-04   -0.65355E-04  4198   0.142E-02    0.199E-02
RMM:   3    -0.231694104420E+04   -0.37582E-05   -0.64446E-05  2826   0.641E-03
 202 F= -.23377982E+04 E0= -.23377982E+04  d E =-.275194E-04  mag=     6.0000
       N       E                     dE             d eps       ncg     rms          rms(c)
DAV:   1    -0.231694079109E+04    0.24935E-03   -0.19358E-02  4480   0.120E-01    0.458E-02
RMM:   2    -0.231694104117E+04   -0.25008E-03   -0.25228E-03  5793   0.262E-02    0.450E-02
RMM:   3    -0.231694104839E+04   -0.72242E-05   -0.21893E-04  2949   0.953E-03    0.355E-02
RMM:   4    -0.231694104025E+04    0.81448E-05   -0.31046E-05  2907   0.323E-03
 203 F= -.23377982E+04 E0= -.23377982E+04  d E =-.248602E-04  mag=     6.0000
       N       E                     dE             d eps       ncg     rms          rms(c)
DAV:   1    -0.231694103365E+04    0.14744E-04   -0.11465E-03  4624   0.285E-02    0.202E-02
RMM:   2    -0.231694105830E+04   -0.24649E-04   -0.16125E-04  3193   0.660E-03    0.414E-02
RMM:   3    -0.231694104648E+04    0.11814E-04   -0.24293E-05  2696   0.383E-03    0.103E-02
RMM:   4    -0.231694104646E+04    0.18656E-07   -0.38123E-06  2192   0.133E-03
 204 F= -.23377982E+04 E0= -.23377982E+04  d E =-.136788E-04  mag=     6.0000
       N       E                     dE             d eps       ncg     rms          rms(c)
DAV:   1    -0.231694093444E+04    0.11205E-03   -0.10464E-02  4480   0.851E-02    0.336E-02
RMM:   2    -0.231694107018E+04   -0.13574E-03   -0.12954E-03  5126   0.180E-02    0.448E-02
RMM:   3    -0.231694106691E+04    0.32713E-05   -0.13627E-04  2919   0.737E-03    0.244E-02
RMM:   4    -0.231694106361E+04    0.33006E-05   -0.17232E-05  2808   0.234E-03
 205 F= -.23377982E+04 E0= -.23377982E+04  d E =-.532637E-04  mag=     6.0000
       N       E                     dE             d eps       ncg     rms          rms(c)
DAV:   1    -0.231694054323E+04    0.52368E-03   -0.41934E-02  4464   0.170E-01    0.646E-02
RMM:   2    -0.231694106315E+04   -0.51992E-03   -0.51298E-03  5974   0.355E-02    0.769E-02
RMM:   3    -0.231694107564E+04   -0.12492E-04   -0.54099E-04  3068   0.140E-02    0.535E-02
RMM:   4    -0.231694105790E+04    0.17739E-04   -0.67261E-05  2927   0.412E-03    0.213E-02
RMM:   5    -0.231694105756E+04    0.34668E-06   -0.14152E-05  2799   0.245E-03
 206 F= -.23377983E+04 E0= -.23377983E+04  d E =-.922628E-04  mag=     6.0000
       N       E                     dE             d eps       ncg     rms          rms(c)
DAV:   1    -0.231694103777E+04    0.20135E-04   -0.48571E-03  4592   0.616E-02    0.235E-02
RMM:   2    -0.231694108873E+04   -0.50958E-04   -0.52712E-04  4316   0.136E-02    0.201E-02
RMM:   3    -0.231694109330E+04   -0.45689E-05   -0.64004E-05  2884   0.657E-03
 207 F= -.23377983E+04 E0= -.23377983E+04  d E =-.590605E-04  mag=     6.0000
       N       E                     dE             d eps       ncg     rms          rms(c)
DAV:   1    -0.231694088998E+04    0.19875E-03   -0.19579E-02  4480   0.122E-01    0.485E-02
RMM:   2    -0.231694110242E+04   -0.21244E-03   -0.21843E-03  5728   0.263E-02    0.442E-02
RMM:   3    -0.231694110989E+04   -0.74676E-05   -0.19415E-04  2963   0.990E-03    0.393E-02
RMM:   4    -0.231694109881E+04    0.11074E-04   -0.29797E-05  2905   0.348E-03    0.183E-02
RMM:   5    -0.231694109810E+04    0.71255E-06   -0.10357E-05  2819   0.233E-03
 208 F= -.23377984E+04 E0= -.23377984E+04  d E =-.110292E-03  mag=     6.0000
       N       E                     dE             d eps       ncg     rms          rms(c)
DAV:   1    -0.231694107650E+04    0.22310E-04   -0.78452E-04  5080   0.248E-02    0.100E-02
RMM:   2    -0.231694108509E+04   -0.85880E-05   -0.90243E-05  3012   0.584E-03
 209 F= -.23377984E+04 E0= -.23377984E+04  d E =-.106871E-03  mag=     6.0000
       N       E                     dE             d eps       ncg     rms          rms(c)
DAV:   1    -0.231694108951E+04   -0.13012E-04   -0.28514E-04  4304   0.151E-02    0.771E-03
RMM:   2    -0.231694109371E+04   -0.41928E-05   -0.29744E-05  2624   0.349E-03
 210 F= -.23377984E+04 E0= -.23377984E+04  d E =-.109941E-03  mag=     6.0000
       N       E                     dE             d eps       ncg     rms          rms(c)
DAV:   1    -0.231694109203E+04   -0.25192E-05   -0.36690E-03  4472   0.544E-02    0.213E-02
RMM:   2    -0.231694112908E+04   -0.37051E-04   -0.34932E-04  3932   0.121E-02    0.278E-02
RMM:   3    -0.231694112751E+04    0.15737E-05   -0.40185E-05  2770   0.605E-03
 211 F= -.23377984E+04 E0= -.23377984E+04  d E =-.351689E-04  mag=     6.0000
       N       E                     dE             d eps       ncg     rms          rms(c)
DAV:   1    -0.231694110238E+04    0.26710E-04   -0.39841E-03  4480   0.565E-02    0.238E-02
RMM:   2    -0.231694114120E+04   -0.38829E-04   -0.39746E-04  4037   0.124E-02    0.237E-02
RMM:   3    -0.231694114119E+04    0.15047E-07   -0.38725E-05  2891   0.574E-03
 212 F= -.23377984E+04 E0= -.23377984E+04  d E =-.502818E-04  mag=     6.0000
       N       E                     dE             d eps       ncg     rms          rms(c)
DAV:   1    -0.231694115270E+04   -0.11496E-04   -0.39786E-03  4480   0.592E-02    0.242E-02
RMM:   2    -0.231694118608E+04   -0.33383E-04   -0.35450E-04  4273   0.128E-02    0.198E-02
RMM:   3    -0.231694118687E+04   -0.78575E-06   -0.36428E-05  2895   0.586E-03
 213 F= -.23377985E+04 E0= -.23377985E+04  d E =-.339725E-04  mag=     6.0000
       N       E                     dE             d eps       ncg     rms          rms(c)
DAV:   1    -0.231694118729E+04   -0.12025E-05   -0.97913E-04  4888   0.294E-02    0.155E-02
RMM:   2    -0.231694119830E+04   -0.11010E-04   -0.92234E-05  3117   0.660E-03    0.241E-02
RMM:   3    -0.231694119513E+04    0.31676E-05   -0.13922E-05  2666   0.375E-03
 214 F= -.23377985E+04 E0= -.23377985E+04  d E =-.363811E-04  mag=     6.0000
       N       E                     dE             d eps       ncg     rms          rms(c)
DAV:   1    -0.231694120317E+04   -0.48748E-05   -0.16302E-03  4448   0.408E-02    0.162E-02
RMM:   2    -0.231694121466E+04   -0.11490E-04   -0.11830E-04  3463   0.855E-03    0.148E-02
RMM:   3    -0.231694121476E+04   -0.10370E-06   -0.14205E-05  2708   0.494E-03
 215 F= -.23377985E+04 E0= -.23377985E+04  d E =-.200451E-04  mag=     6.0000
       N       E                     dE             d eps       ncg     rms          rms(c)
DAV:   1    -0.231694121321E+04    0.14464E-05   -0.32562E-04  4992   0.183E-02    0.101E-02
RMM:   2    -0.231694121627E+04   -0.30554E-05   -0.26914E-05  2700   0.426E-03
 216 F= -.23377985E+04 E0= -.23377985E+04  d E =-.217342E-04  mag=     6.0000
       N       E                     dE             d eps       ncg     rms          rms(c)
DAV:   1    -0.231694121442E+04   -0.12007E-05   -0.17929E-03  4480   0.445E-02    0.170E-02
RMM:   2    -0.231694122481E+04   -0.10392E-04   -0.11575E-04  3547   0.973E-03    0.132E-02
RMM:   3    -0.231694122613E+04   -0.13205E-05   -0.15491E-05  2776   0.551E-03
 217 F= -.23377985E+04 E0= -.23377985E+04  d E =-.173370E-04  mag=     6.0000
       N       E                     dE             d eps       ncg     rms          rms(c)
DAV:   1    -0.231694122190E+04    0.29073E-05   -0.12045E-04  5200   0.118E-02    0.785E-03
RMM:   2    -0.231694122403E+04   -0.21285E-05   -0.11722E-05  2483   0.289E-03
 218 F= -.23377985E+04 E0= -.23377985E+04  d E =-.171612E-04  mag=     6.0000
       N       E                     dE             d eps       ncg     rms          rms(c)
DAV:   1    -0.231694122678E+04   -0.48833E-05   -0.15545E-03  4480   0.408E-02    0.143E-02
RMM:   2    -0.231694123554E+04   -0.87569E-05   -0.95625E-05  3348   0.867E-03
 219 F= -.23377985E+04 E0= -.23377985E+04  d E =-.121252E-04  mag=     6.0000
       N       E                     dE             d eps       ncg     rms          rms(c)
DAV:   1    -0.231694123652E+04   -0.97338E-05   -0.62602E-05  4928   0.951E-03    0.145E-02
RMM:   2    -0.231694125149E+04   -0.14978E-04   -0.32282E-05  2654   0.390E-03    0.452E-02
RMM:   3    -0.231694123506E+04    0.16439E-04   -0.95159E-06  2260   0.241E-03    0.388E-03
RMM:   4    -0.231694123485E+04    0.20250E-06   -0.20255E-06  2189   0.122E-03
 220 F= -.23377985E+04 E0= -.23377985E+04  d E =-.115350E-04  mag=     6.0000
       N       E                     dE             d eps       ncg     rms          rms(c)
DAV:   1    -0.231694124811E+04   -0.13056E-04   -0.13595E-03  4448   0.386E-02    0.133E-02
RMM:   2    -0.231694125606E+04   -0.79519E-05   -0.85532E-05  3289   0.748E-03
 221 F= -.23377985E+04 E0= -.23377985E+04  d E =-.141977E-04  mag=     6.0000
       N       E                     dE             d eps       ncg     rms          rms(c)
DAV:   1    -0.231694125906E+04   -0.10948E-04   -0.77732E-05  5176   0.101E-02    0.143E-02
RMM:   2    -0.231694127406E+04   -0.15005E-04   -0.33973E-05  2654   0.345E-03    0.451E-02
RMM:   3    -0.231694125795E+04    0.16112E-04   -0.98262E-06  2279   0.243E-03    0.325E-03
RMM:   4    -0.231694125782E+04    0.13648E-06   -0.14369E-06  1762   0.959E-04
 222 F= -.23377985E+04 E0= -.23377985E+04  d E =-.145050E-04  mag=     6.0000
       N       E                     dE             d eps       ncg     rms          rms(c)
DAV:   1    -0.231694126216E+04   -0.42108E-05   -0.10256E-03  4384   0.339E-02    0.127E-02
RMM:   2    -0.231694126892E+04   -0.67543E-05   -0.68400E-05  3175   0.667E-03
 223 F= -.23377985E+04 E0= -.23377985E+04  d E =-.987471E-05  mag=     6.0000
       N       E                     dE             d eps       ncg     rms          rms(c)
DAV:   1    -0.231694126877E+04   -0.66016E-05   -0.15866E-05  3528   0.527E-03    0.107E-02
RMM:   2    -0.231694127664E+04   -0.78753E-05   -0.15783E-05  2424   0.233E-03
 224 F= -.23377985E+04 E0= -.23377985E+04  d E =-.176098E-04  mag=     6.0000
       N       E                     dE             d eps       ncg     rms          rms(c)
DAV:   1    -0.231694126315E+04    0.56152E-05   -0.75683E-04  4424   0.295E-02    0.108E-02
RMM:   2    -0.231694126748E+04   -0.43343E-05   -0.50986E-05  2965   0.628E-03
 225 F= -.23377985E+04 E0= -.23377985E+04  d E =0.927718E-06  mag=     6.0000
       N       E                     dE             d eps       ncg     rms          rms(c)
DAV:   1    -0.231694126832E+04   -0.51727E-05   -0.93812E-06  3272   0.481E-03    0.834E-03
RMM:   2    -0.231694127214E+04   -0.38140E-05   -0.10171E-05  2275   0.265E-03
 226 F= -.23377985E+04 E0= -.23377985E+04  d E =-.328182E-05  mag=     6.0000
       N       E                     dE             d eps       ncg     rms          rms(c)
DAV:   1    -0.231694126752E+04    0.80510E-06   -0.13218E-05  2360   0.369E-03    0.286E-03
RMM:   2    -0.231694126795E+04   -0.43451E-06   -0.16602E-06  1425   0.957E-04
 227 F= -.23377985E+04 E0= -.23377985E+04  d E =0.546012E-06  mag=     6.0000
       N       E                     dE             d eps       ncg     rms          rms(c)
DAV:   1    -0.231694125942E+04    0.80950E-05   -0.45346E-04  4240   0.216E-02    0.744E-03
RMM:   2    -0.231694126286E+04   -0.34368E-05   -0.36377E-05  2584   0.453E-03
 228 F= -.23377985E+04 E0= -.23377985E+04  d E =-.371429E-05  mag=     6.0000
       N       E                     dE             d eps       ncg     rms          rms(c)
DAV:   1    -0.231694126309E+04   -0.36661E-05   -0.78956E-06  2624   0.342E-03    0.736E-03
RMM:   2    -0.231694126707E+04   -0.39778E-05   -0.76305E-06  2028   0.156E-03
 229 F= -.23377986E+04 E0= -.23377986E+04  d E =-.803277E-05  mag=     6.0000
       N       E                     dE             d eps       ncg     rms          rms(c)
DAV:   1    -0.231694126070E+04    0.23883E-05   -0.39951E-04  4240   0.204E-02    0.732E-03
RMM:   2    -0.231694126384E+04   -0.31388E-05   -0.34894E-05  2582   0.455E-03
 230 F= -.23377986E+04 E0= -.23377986E+04  d E =-.183451E-05  mag=     6.0000
