       N       E                     dE             d eps       ncg     rms          rms(c)
DAV:   1     0.120780787917E+05    0.12078E+05   -0.82733E+05  4640   0.140E+03
DAV:   2    -0.128744872832E+04   -0.13366E+05   -0.12857E+05  5040   0.317E+02
DAV:   3    -0.248223174777E+04   -0.11948E+04   -0.11853E+04  5440   0.101E+02
DAV:   4    -0.250719295258E+04   -0.24961E+02   -0.24840E+02  5760   0.175E+01
DAV:   5    -0.250780979037E+04   -0.61684E+00   -0.61576E+00  5760   0.243E+00    0.170E+02
RMM:   6    -0.147578337839E+04    0.10320E+04   -0.18640E+03  4499   0.372E+01    0.721E+01
RMM:   7    -0.163831971243E+04   -0.16254E+03   -0.26491E+02  5005   0.135E+01    0.509E+01
RMM:   8    -0.169841525510E+04   -0.60096E+02   -0.61538E+01  5117   0.743E+00    0.443E+01
RMM:   9    -0.176867464174E+04   -0.70259E+02   -0.67449E+01  5241   0.732E+00    0.331E+01
RMM:  10    -0.191806857726E+04   -0.14939E+03   -0.63636E+01  5161   0.743E+00    0.196E+01
RMM:  11    -0.204037605458E+04   -0.12231E+03   -0.60329E+01  4910   0.617E+00    0.176E+01
RMM:  12    -0.211208769642E+04   -0.71712E+02   -0.34362E+01  4818   0.455E+00    0.117E+01
RMM:  13    -0.222631136020E+04   -0.11422E+03   -0.89425E+01  4546   0.672E+00    0.107E+01
RMM:  14    -0.227717127365E+04   -0.50860E+02   -0.43776E+01  4529   0.483E+00    0.563E+00
RMM:  15    -0.229516798604E+04   -0.17997E+02   -0.19591E+01  4717   0.321E+00    0.349E+00
RMM:  16    -0.229873482810E+04   -0.35668E+01   -0.43206E+00  4946   0.162E+00    0.140E+00
RMM:  17    -0.230024419038E+04   -0.15094E+01   -0.13130E+00  4728   0.670E-01    0.892E-01
RMM:  18    -0.230057122648E+04   -0.32704E+00   -0.33606E-01  4828   0.489E-01    0.646E-01
RMM:  19    -0.230069225837E+04   -0.12103E+00   -0.97144E-02  4714   0.186E-01    0.377E-01
RMM:  20    -0.230071925924E+04   -0.27001E-01   -0.17983E-02  4819   0.111E-01    0.323E-01
RMM:  21    -0.230073312225E+04   -0.13863E-01   -0.72639E-03  4810   0.528E-02    0.321E-01
RMM:  22    -0.230074344900E+04   -0.10327E-01   -0.38879E-03  4634   0.474E-02    0.563E-01
RMM:  23    -0.230074296475E+04    0.48425E-03   -0.38829E-03  4976   0.341E-02    0.306E-01
RMM:  24    -0.230074846044E+04   -0.54957E-02   -0.31420E-03  4575   0.309E-02    0.341E-01
RMM:  25    -0.230074913199E+04   -0.67155E-03   -0.34078E-03  4771   0.288E-02    0.416E-01
RMM:  26    -0.230074937030E+04   -0.23831E-03   -0.17745E-04  3730   0.120E-02    0.410E-01
RMM:  27    -0.230075034707E+04   -0.97677E-03   -0.28490E-04  4036   0.883E-03    0.341E-01
RMM:  28    -0.230076167983E+04   -0.11333E-01   -0.10080E-02  4738   0.493E-02    0.183E-01
RMM:  29    -0.230076877254E+04   -0.70927E-02   -0.92914E-03  4785   0.503E-02    0.437E-01
RMM:  30    -0.230077023998E+04   -0.14674E-02   -0.37307E-03  4822   0.341E-02    0.600E-01
RMM:  31    -0.230077102651E+04   -0.78652E-03   -0.69677E-03  4776   0.374E-02    0.206E-01
RMM:  32    -0.230077198344E+04   -0.95694E-03   -0.35549E-03  4563   0.317E-02    0.240E-01
RMM:  33    -0.230077224436E+04   -0.26092E-03   -0.95298E-03  5356   0.438E-02    0.352E-01
RMM:  34    -0.230077011590E+04    0.21285E-02   -0.46712E-03  4903   0.339E-02    0.554E-01
RMM:  35    -0.230076857387E+04    0.15420E-02   -0.14238E-03  4760   0.185E-02    0.669E-01
RMM:  36    -0.230076937374E+04   -0.79987E-03   -0.10421E-04  3327   0.688E-03    0.615E-01
RMM:  37    -0.230077112849E+04   -0.17548E-02   -0.94642E-04  4506   0.135E-02    0.476E-01
RMM:  38    -0.230077425847E+04   -0.31300E-02   -0.48902E-03  5035   0.316E-02    0.317E-01
RMM:  39    -0.230077655408E+04   -0.22956E-02   -0.44921E-03  4960   0.311E-02    0.398E-01
RMM:  40    -0.230077734990E+04   -0.79581E-03   -0.11519E-03  4532   0.167E-02    0.450E-01
RMM:  41    -0.230077706212E+04    0.28778E-03   -0.64972E-05  3075   0.530E-03    0.406E-01
RMM:  42    -0.230077638966E+04    0.67245E-03   -0.29918E-04  3750   0.785E-03    0.349E-01
RMM:  43    -0.230077454182E+04    0.18478E-02   -0.42951E-03  5004   0.281E-02    0.318E-01
RMM:  44    -0.230077215536E+04    0.23865E-02   -0.48101E-03  4975   0.317E-02    0.508E-01
RMM:  45    -0.230077092660E+04    0.12288E-02   -0.13834E-03  4592   0.180E-02    0.616E-01
RMM:  46    -0.230077340753E+04   -0.24809E-02   -0.19599E-03  4643   0.193E-02    0.427E-01
RMM:  47    -0.230077468612E+04   -0.12786E-02   -0.16991E-03  4687   0.199E-02    0.350E-01
RMM:  48    -0.230077606930E+04   -0.13832E-02   -0.23971E-03  5166   0.215E-02    0.354E-01
RMM:  49    -0.230077821349E+04   -0.21442E-02   -0.34655E-03  5019   0.261E-02    0.522E-01
RMM:  50    -0.230078004798E+04   -0.18345E-02   -0.20039E-03  4577   0.217E-02    0.678E-01
RMM:  51    -0.230078127714E+04   -0.12292E-02   -0.77718E-04  4477   0.127E-02    0.774E-01
RMM:  52    -0.230078102855E+04    0.24859E-03   -0.44111E-05  3003   0.556E-03    0.727E-01
RMM:  53    -0.230078033781E+04    0.69074E-03   -0.80715E-05  3128   0.455E-03    0.663E-01
RMM:  54    -0.230077941887E+04    0.91895E-03   -0.24253E-04  3825   0.684E-03    0.580E-01
RMM:  55    -0.230077841501E+04    0.10039E-02   -0.42825E-04  4020   0.905E-03    0.491E-01
RMM:  56    -0.230077717666E+04    0.12383E-02   -0.95123E-04  4549   0.135E-02    0.381E-01
RMM:  57    -0.230077634103E+04    0.83564E-03   -0.74680E-04  4214   0.124E-02    0.335E-01
RMM:  58    -0.230077576303E+04    0.57800E-03   -0.49754E-04  4123   0.103E-02    0.315E-01
RMM:  59    -0.230077549712E+04    0.26591E-03   -0.14685E-04  3343   0.666E-03    0.315E-01
RMM:  60    -0.230077533898E+04    0.15814E-03   -0.51018E-05  3045   0.458E-03    0.314E-01
RMM:  61    -0.230077525934E+04    0.79636E-04   -0.15064E-05  2896   0.338E-03    0.313E-01
RMM:  62    -0.230077481530E+04    0.44405E-03   -0.18652E-04  3767   0.641E-03    0.313E-01
RMM:  63    -0.230077424835E+04    0.56695E-03   -0.30238E-04  3819   0.831E-03    0.336E-01
RMM:  64    -0.230077385215E+04    0.39620E-03   -0.18825E-04  3438   0.693E-03    0.361E-01
RMM:  65    -0.230077400959E+04   -0.15744E-03   -0.15689E-05  2873   0.367E-03    0.354E-01
RMM:  66    -0.230077389491E+04    0.11468E-03   -0.76087E-06  2625   0.171E-03    0.357E-01
RMM:  67    -0.230077394230E+04   -0.47390E-04   -0.13139E-06  2465   0.151E-03    0.356E-01
RMM:  68    -0.230077388797E+04    0.54334E-04   -0.15152E-06  1882   0.801E-04    0.358E-01
RMM:  69    -0.230077386035E+04    0.27616E-04   -0.95696E-07  2036   0.854E-04    0.360E-01
RMM:  70    -0.230077383859E+04    0.21754E-04   -0.42298E-07  1698   0.718E-04    0.360E-01
RMM:  71    -0.230077376565E+04    0.72948E-04   -0.55296E-06  2647   0.126E-03    0.366E-01
RMM:  72    -0.230077376836E+04   -0.27148E-05   -0.43589E-07  2159   0.930E-04
   1 F= -.23210869E+04 E0= -.23210830E+04  d E =-.786226E-02  mag=     4.0166
       N       E                     dE             d eps       ncg     rms          rms(c)
DAV:   1    -0.230080687864E+04   -0.33113E-01   -0.20895E+00  4480   0.632E-01    0.318E-01
RMM:   2    -0.230080719000E+04   -0.31136E-03   -0.11298E-02  4219   0.451E-02    0.181E-01
RMM:   3    -0.230080715692E+04    0.33085E-04   -0.16889E-03  4757   0.223E-02    0.253E-01
RMM:   4    -0.230080677700E+04    0.37992E-03   -0.82112E-04  4029   0.115E-02    0.122E-01
RMM:   5    -0.230080667055E+04    0.10644E-03   -0.25481E-04  3860   0.783E-03    0.342E-02
RMM:   6    -0.230080665389E+04    0.16669E-04   -0.27865E-05  2933   0.445E-03    0.136E-02
RMM:   7    -0.230080665897E+04   -0.50799E-05   -0.89938E-06  2880   0.242E-03
   2 F= -.23211191E+04 E0= -.23211179E+04  d E =-.236678E-02  mag=     3.9871
       N       E                     dE             d eps       ncg     rms          rms(c)
DAV:   1    -0.230072478893E+04    0.81865E-01   -0.83707E+00  4480   0.124E+00    0.183E+00
RMM:   2    -0.230074839389E+04   -0.23605E-01   -0.15095E-01  4841   0.161E-01    0.269E+00
RMM:   3    -0.230075844803E+04   -0.10054E-01   -0.19026E-02  4824   0.757E-02    0.235E+00
RMM:   4    -0.230073055023E+04    0.27898E-01   -0.14864E-01  5340   0.156E-01    0.199E+00
RMM:   5    -0.230070756713E+04    0.22983E-01   -0.27211E-02  5888   0.712E-02    0.136E+00
RMM:   6    -0.230068047298E+04    0.27094E-01   -0.19311E-02  4788   0.570E-02    0.165E+00
RMM:   7    -0.230067540909E+04    0.50639E-02   -0.18727E-03  4358   0.318E-02    0.176E+00
RMM:   8    -0.230071398700E+04   -0.38578E-01   -0.36866E-02  4856   0.838E-02    0.123E+00
RMM:   9    -0.230073081493E+04   -0.16828E-01   -0.32125E-02  4955   0.863E-02    0.179E+00
RMM:  10    -0.230073171078E+04   -0.89585E-03   -0.43064E-03  4910   0.329E-02    0.170E+00
RMM:  11    -0.230073172639E+04   -0.15612E-04   -0.32731E-04  3907   0.705E-03    0.172E+00
RMM:  12    -0.230073262852E+04   -0.90213E-03   -0.34392E-05  3081   0.567E-03    0.179E+00
RMM:  13    -0.230071781337E+04    0.14815E-01   -0.71201E-03  4679   0.395E-02    0.714E-01
RMM:  14    -0.230071796760E+04   -0.15423E-03   -0.10585E-03  4157   0.241E-02    0.787E-01
RMM:  15    -0.230071431548E+04    0.36521E-02   -0.97274E-04  4267   0.144E-02    0.612E-01
RMM:  16    -0.230070822962E+04    0.60859E-02   -0.25515E-03  4734   0.245E-02    0.644E-01
RMM:  17    -0.230071302794E+04   -0.47983E-02   -0.11216E-03  4485   0.162E-02    0.617E-01
RMM:  18    -0.230072006769E+04   -0.70398E-02   -0.36062E-03  4868   0.275E-02    0.809E-01
RMM:  19    -0.230073024215E+04   -0.10174E-01   -0.63738E-03  5078   0.363E-02    0.125E+00
RMM:  20    -0.230073024082E+04    0.13376E-05   -0.61028E-04  3848   0.167E-02    0.115E+00
RMM:  21    -0.230073153643E+04   -0.12956E-02   -0.24351E-04  3605   0.603E-03    0.125E+00
RMM:  22    -0.230072940724E+04    0.21292E-02   -0.10895E-04  3302   0.619E-03    0.110E+00
RMM:  23    -0.230072525282E+04    0.41544E-02   -0.78693E-04  4368   0.124E-02    0.891E-01
RMM:  24    -0.230071953841E+04    0.57144E-02   -0.23410E-03  4930   0.220E-02    0.685E-01
RMM:  25    -0.230071151594E+04    0.80225E-02   -0.71449E-03  5283   0.374E-02    0.647E-01
RMM:  26    -0.230070851994E+04    0.29960E-02   -0.21050E-03  4805   0.233E-02    0.725E-01
RMM:  27    -0.230070726747E+04    0.12525E-02   -0.51128E-04  4396   0.105E-02    0.757E-01
RMM:  28    -0.230070391854E+04    0.33489E-02   -0.91424E-04  4536   0.146E-02    0.849E-01
RMM:  29    -0.230070614214E+04   -0.22236E-02   -0.26115E-04  3721   0.838E-03    0.789E-01
RMM:  30    -0.230071361243E+04   -0.74703E-02   -0.44041E-03  4982   0.289E-02    0.724E-01
RMM:  31    -0.230073816006E+04   -0.24548E-01   -0.28591E-02  5293   0.742E-02    0.173E+00
RMM:  32    -0.230074099823E+04   -0.28382E-02   -0.39662E-03  4779   0.376E-02    0.166E+00
RMM:  33    -0.230073195582E+04    0.90424E-02   -0.16270E-03  4636   0.186E-02    0.125E+00
RMM:  34    -0.230071799764E+04    0.13958E-01   -0.11363E-02  5215   0.474E-02    0.736E-01
RMM:  35    -0.230071462867E+04    0.33690E-02   -0.25076E-03  4839   0.273E-02    0.797E-01
RMM:  36    -0.230069566571E+04    0.18963E-01   -0.31097E-02  5244   0.758E-02    0.125E+00
RMM:  37    -0.230068111126E+04    0.14554E-01   -0.12830E-02  4911   0.622E-02    0.179E+00
RMM:  38    -0.230067702443E+04    0.40868E-02   -0.23761E-03  5210   0.224E-02    0.192E+00
RMM:  39    -0.230067939108E+04   -0.23666E-02   -0.11387E-04  3529   0.777E-03    0.185E+00
RMM:  40    -0.230067902270E+04    0.36838E-03   -0.95353E-05  3336   0.531E-03    0.190E+00
RMM:  41    -0.230068102353E+04   -0.20008E-02   -0.76723E-05  3083   0.524E-03    0.186E+00
RMM:  42    -0.230069511999E+04   -0.14096E-01   -0.50822E-03  4853   0.320E-02    0.142E+00
RMM:  43    -0.230070498489E+04   -0.98649E-02   -0.57570E-03  4941   0.375E-02    0.112E+00
RMM:  44    -0.230071638881E+04   -0.11404E-01   -0.13534E-02  5429   0.517E-02    0.111E+00
RMM:  45    -0.230071864065E+04   -0.22518E-02   -0.20721E-03  4841   0.247E-02    0.114E+00
RMM:  46    -0.230071649669E+04    0.21440E-02   -0.24541E-04  3686   0.808E-03    0.104E+00
RMM:  47    -0.230071663754E+04   -0.14084E-03   -0.27895E-05  2928   0.385E-03    0.106E+00
RMM:  48    -0.230071168147E+04    0.49561E-02   -0.18469E-03  4714   0.186E-02    0.952E-01
RMM:  49    -0.230070625455E+04    0.54269E-02   -0.28431E-03  4992   0.254E-02    0.103E+00
RMM:  50    -0.230070306467E+04    0.31899E-02   -0.13557E-03  4629   0.167E-02    0.112E+00
RMM:  51    -0.230070163779E+04    0.14269E-02   -0.34027E-04  3840   0.895E-03    0.117E+00
RMM:  52    -0.230070288032E+04   -0.12425E-02   -0.37786E-05  2992   0.500E-03    0.116E+00
RMM:  53    -0.230070434402E+04   -0.14637E-02   -0.13603E-04  3314   0.596E-03    0.112E+00
RMM:  54    -0.230070455097E+04   -0.20695E-03   -0.23237E-05  2874   0.351E-03    0.111E+00
RMM:  55    -0.230070509934E+04   -0.54837E-03   -0.32605E-05  2988   0.297E-03    0.109E+00
RMM:  56    -0.230070917475E+04   -0.40754E-02   -0.12552E-03  4635   0.155E-02    0.102E+00
RMM:  57    -0.230071208121E+04   -0.29065E-02   -0.10771E-03  4237   0.162E-02    0.101E+00
RMM:  58    -0.230071909894E+04   -0.70177E-02   -0.43796E-03  5224   0.289E-02    0.119E+00
RMM:  59    -0.230072002920E+04   -0.93027E-03   -0.50021E-04  3906   0.143E-02    0.118E+00
RMM:  60    -0.230072031717E+04   -0.28797E-03   -0.89085E-05  3188   0.426E-03    0.119E+00
RMM:  61    -0.230072044528E+04   -0.12810E-03   -0.74233E-06  2894   0.307E-03    0.120E+00
RMM:  62    -0.230071814768E+04    0.22976E-02   -0.34279E-04  3771   0.791E-03    0.110E+00
RMM:  63    -0.230071641829E+04    0.17294E-02   -0.30271E-04  3587   0.843E-03    0.106E+00
RMM:  64    -0.230071491900E+04    0.14993E-02   -0.22494E-04  3557   0.690E-03    0.101E+00
RMM:  65    -0.230071033569E+04    0.45833E-02   -0.18861E-03  4896   0.192E-02    0.970E-01
RMM:  66    -0.230071088207E+04   -0.54638E-03   -0.96348E-05  3143   0.857E-03    0.987E-01
RMM:  67    -0.230070996582E+04    0.91625E-03   -0.92269E-05  3150   0.413E-03    0.984E-01
RMM:  68    -0.230071043475E+04   -0.46893E-03   -0.16190E-05  2852   0.307E-03    0.986E-01
RMM:  69    -0.230070897577E+04    0.14590E-02   -0.16802E-04  3463   0.572E-03    0.994E-01
RMM:  70    -0.230071088404E+04   -0.19083E-02   -0.28305E-04  3686   0.801E-03    0.985E-01
RMM:  71    -0.230071132874E+04   -0.44470E-03   -0.58640E-05  2959   0.481E-03    0.975E-01
RMM:  72    -0.230071390135E+04   -0.25726E-02   -0.73153E-04  4408   0.119E-02    0.995E-01
RMM:  73    -0.230071223864E+04    0.16627E-02   -0.21558E-04  3636   0.808E-03    0.965E-01
RMM:  74    -0.230071080998E+04    0.14287E-02   -0.31149E-04  3879   0.818E-03    0.981E-01
RMM:  75    -0.230070671177E+04    0.40982E-02   -0.19257E-03  4840   0.191E-02    0.105E+00
RMM:  76    -0.230070576972E+04    0.94205E-03   -0.31296E-04  3661   0.990E-03    0.109E+00
RMM:  77    -0.230070920659E+04   -0.34369E-02   -0.56019E-04  3916   0.108E-02    0.107E+00
RMM:  78    -0.230070258424E+04    0.66223E-02   -0.32713E-03  4970   0.247E-02    0.123E+00
RMM:  79    -0.230070240397E+04    0.18028E-03   -0.23420E-04  3315   0.117E-02    0.123E+00
RMM:  80    -0.230070204021E+04    0.36376E-03   -0.40107E-05  2977   0.299E-03    0.124E+00
RMM:  81    -0.230070217254E+04   -0.13233E-03   -0.25285E-06  2569   0.202E-03    0.124E+00
RMM:  82    -0.230069012961E+04    0.12043E-01   -0.69028E-03  5097   0.363E-02    0.170E+00
RMM:  83    -0.230068212892E+04    0.80007E-02   -0.32715E-03  4683   0.296E-02    0.198E+00
RMM:  84    -0.230068370017E+04   -0.15713E-02   -0.16595E-04  3326   0.699E-03    0.193E+00
RMM:  85    -0.230068559370E+04   -0.18935E-02   -0.10509E-04  3210   0.560E-03    0.186E+00
RMM:  86    -0.230069470992E+04   -0.91162E-02   -0.31722E-03  4893   0.249E-02    0.151E+00
RMM:  87    -0.230069871406E+04   -0.40041E-02   -0.12594E-03  4270   0.183E-02    0.137E+00
RMM:  88    -0.230070427492E+04   -0.55609E-02   -0.26726E-03  5224   0.228E-02    0.117E+00
RMM:  89    -0.230070850392E+04   -0.42290E-02   -0.21206E-03  4680   0.223E-02    0.106E+00
RMM:  90    -0.230071311786E+04   -0.46139E-02   -0.28731E-03  5158   0.241E-02    0.104E+00
RMM:  91    -0.230071406485E+04   -0.94699E-03   -0.46858E-04  3980   0.122E-02    0.103E+00
RMM:  92    -0.230071489140E+04   -0.82655E-03   -0.18774E-04  3694   0.655E-03    0.104E+00
RMM:  93    -0.230071722475E+04   -0.23333E-02   -0.51650E-04  4282   0.109E-02    0.110E+00
RMM:  94    -0.230071726049E+04   -0.35747E-04   -0.43667E-05  2997   0.576E-03    0.109E+00
RMM:  95    -0.230071719459E+04    0.65900E-04   -0.75961E-06  2811   0.208E-03    0.109E+00
RMM:  96    -0.230071717647E+04    0.18126E-04   -0.10516E-06  2585   0.141E-03    0.109E+00
RMM:  97    -0.230071571023E+04    0.14662E-02   -0.14377E-04  3267   0.524E-03    0.104E+00
RMM:  98    -0.230071355076E+04    0.21595E-02   -0.45336E-04  4137   0.935E-03    0.998E-01
RMM:  99    -0.230071146057E+04    0.20902E-02   -0.49362E-04  3994   0.981E-03    0.987E-01
RMM: 100    -0.230071140620E+04    0.54375E-04   -0.31250E-05  2893   0.431E-03    0.983E-01
RMM: 101    -0.230071121870E+04    0.18750E-03   -0.67905E-06  2675   0.168E-03    0.979E-01
RMM: 102    -0.230072358534E+04   -0.12367E-01   -0.95284E-03  5023   0.416E-02    0.140E+00
RMM: 103    -0.230073341439E+04   -0.98291E-02   -0.69717E-03  4863   0.413E-02    0.178E+00
RMM: 104    -0.230075807998E+04   -0.24666E-01   -0.15510E-02  5422   0.529E-02    0.255E+00
RMM: 105    -0.230078162264E+04   -0.23543E-01   -0.11674E-02  5161   0.505E-02    0.266E+00
RMM: 106    -0.230079106103E+04   -0.94384E-02   -0.38363E-03  5282   0.282E-02    0.257E+00
RMM: 107    -0.230079494459E+04   -0.38836E-02   -0.78359E-04  4620   0.128E-02    0.251E+00
RMM: 108    -0.230079538490E+04   -0.44031E-03   -0.86357E-05  3145   0.598E-03    0.250E+00
RMM: 109    -0.230079549021E+04   -0.10531E-03   -0.94910E-06  2972   0.276E-03    0.250E+00
RMM: 110    -0.230079641389E+04   -0.92368E-03   -0.16770E-05  2969   0.263E-03    0.249E+00
RMM: 111    -0.230079544896E+04    0.96493E-03   -0.82179E-06  2795   0.223E-03    0.250E+00
RMM: 112    -0.230076322050E+04    0.32228E-01   -0.15867E-02  5108   0.518E-02    0.244E+00
RMM: 113    -0.230075450532E+04    0.87152E-02   -0.39103E-03  4670   0.353E-02    0.237E+00
RMM: 114    -0.230075522033E+04   -0.71501E-03   -0.41974E-04  3757   0.827E-03    0.242E+00
RMM: 115    -0.230075322577E+04    0.19946E-02   -0.85713E-05  3180   0.660E-03    0.236E+00
RMM: 116    -0.230075564825E+04   -0.24225E-02   -0.12007E-04  3172   0.520E-03    0.242E+00
RMM: 117    -0.230075300953E+04    0.26387E-02   -0.57901E-05  3004   0.411E-03    0.232E+00
RMM: 118    -0.230075085648E+04    0.21530E-02   -0.97877E-05  3196   0.465E-03    0.228E+00
RMM: 119    -0.230074741653E+04    0.34400E-02   -0.19917E-04  3457   0.633E-03    0.216E+00
RMM: 120    -0.230074626299E+04    0.11535E-02   -0.41785E-05  2917   0.446E-03    0.213E+00
RMM: 121    -0.230074324602E+04    0.30170E-02   -0.17608E-04  3468   0.586E-03    0.200E+00
RMM: 122    -0.230073955620E+04    0.36898E-02   -0.34709E-04  3972   0.857E-03    0.187E+00
RMM: 123    -0.230073424228E+04    0.53139E-02   -0.88711E-04  4456   0.128E-02    0.165E+00
RMM: 124    -0.230072606957E+04    0.81727E-02   -0.27444E-03  5075   0.230E-02    0.127E+00
RMM: 125    -0.230071465886E+04    0.11411E-01   -0.10140E-02  5235   0.438E-02    0.883E-01
RMM: 126    -0.230070281936E+04    0.11839E-01   -0.14115E-02  5324   0.543E-02    0.108E+00
RMM: 127    -0.230067075544E+04    0.32064E-01   -0.39632E-02  5351   0.890E-02    0.220E+00
RMM: 128    -0.230059413639E+04    0.76619E-01   -0.76930E-02  5186   0.122E-01    0.349E+00
RMM: 129    -0.230059973221E+04   -0.55958E-02   -0.30641E-03  4778   0.331E-02    0.342E+00
RMM: 130    -0.230057212887E+04    0.27603E-01   -0.10489E-02  4382   0.288E-02    0.356E+00
RMM: 131    -0.230051981128E+04    0.52318E-01   -0.24336E-02  4909   0.512E-02    0.396E+00
RMM: 132    -0.230047901937E+04    0.40792E-01   -0.12880E-02  4553   0.386E-02    0.418E+00
RMM: 133    -0.230045567441E+04    0.23345E-01   -0.48350E-03  4263   0.249E-02    0.431E+00
RMM: 134    -0.230044461176E+04    0.11063E-01   -0.11758E-03  3720   0.136E-02    0.438E+00
RMM: 135    -0.230044510841E+04   -0.49665E-03   -0.11511E-04  3079   0.497E-03    0.436E+00
RMM: 136    -0.230044603565E+04   -0.92724E-03   -0.18342E-05  2758   0.280E-03    0.436E+00
RMM: 137    -0.230064002491E+04   -0.19399E+00   -0.27203E-01  4986   0.137E-01    0.308E+00
RMM: 138    -0.230062941814E+04    0.10607E-01   -0.67595E-03  4122   0.373E-02    0.325E+00
RMM: 139    -0.230057038500E+04    0.59033E-01   -0.50066E-02  4798   0.694E-02    0.374E+00
RMM: 140    -0.230054293012E+04    0.27455E-01   -0.98432E-03  4312   0.344E-02    0.391E+00
RMM: 141    -0.230053166530E+04    0.11265E-01   -0.23133E-03  3802   0.159E-02    0.397E+00
RMM: 142    -0.230065431979E+04   -0.12265E+00   -0.15578E-01  5048   0.119E-01    0.267E+00
RMM: 143    -0.230065946216E+04   -0.51424E-02   -0.67479E-03  4914   0.440E-02    0.245E+00
RMM: 144    -0.230067442191E+04   -0.14960E-01   -0.63703E-03  5288   0.334E-02    0.202E+00
RMM: 145    -0.230068071429E+04   -0.62924E-02   -0.14096E-03  4455   0.218E-02    0.184E+00
RMM: 146    -0.230068484549E+04   -0.41312E-02   -0.63392E-04  4161   0.119E-02    0.172E+00
RMM: 147    -0.230070175091E+04   -0.16905E-01   -0.10897E-02  5166   0.473E-02    0.115E+00
RMM: 148    -0.230071245517E+04   -0.10704E-01   -0.12284E-02  5208   0.529E-02    0.974E-01
RMM: 149    -0.230073326395E+04   -0.20809E-01   -0.26083E-02  5364   0.705E-02    0.182E+00
RMM: 150    -0.230073692408E+04   -0.36601E-02   -0.31807E-03  4650   0.343E-02    0.188E+00
RMM: 151    -0.230073760687E+04   -0.68279E-03   -0.57710E-04  3707   0.865E-03    0.192E+00
RMM: 152    -0.230073936041E+04   -0.17535E-02   -0.19266E-04  3753   0.842E-03    0.207E+00
RMM: 153    -0.230074107473E+04   -0.17143E-02   -0.84658E-05  3191   0.548E-03    0.212E+00
RMM: 154    -0.230074212664E+04   -0.10519E-02   -0.35140E-05  2977   0.373E-03    0.216E+00
RMM: 155    -0.230074465927E+04   -0.25326E-02   -0.26063E-04  3931   0.720E-03    0.223E+00
RMM: 156    -0.230075213787E+04   -0.74786E-02   -0.13114E-03  4833   0.155E-02    0.244E+00
RMM: 157    -0.230074413996E+04    0.79979E-02   -0.14220E-03  4978   0.169E-02    0.216E+00
RMM: 158    -0.230074878900E+04   -0.46490E-02   -0.32512E-04  3788   0.105E-02    0.239E+00
RMM: 159    -0.230075868135E+04   -0.98924E-02   -0.19899E-03  4878   0.191E-02    0.259E+00
RMM: 160    -0.230075844012E+04    0.24123E-03   -0.15561E-04  3143   0.995E-03    0.255E+00
RMM: 161    -0.230075919026E+04   -0.75014E-03   -0.58225E-05  2989   0.320E-03    0.257E+00
RMM: 162    -0.230076193803E+04   -0.27478E-02   -0.15788E-04  3569   0.560E-03    0.261E+00
RMM: 163    -0.230076048819E+04    0.14498E-02   -0.21385E-05  2836   0.380E-03    0.257E+00
RMM: 164    -0.230074486072E+04    0.15627E-01   -0.41207E-03  4889   0.269E-02    0.212E+00
RMM: 165    -0.230073747115E+04    0.73896E-02   -0.19163E-03  4355   0.234E-02    0.192E+00
RMM: 166    -0.230073644303E+04    0.10281E-02   -0.38278E-04  3609   0.866E-03    0.191E+00
RMM: 167    -0.230073231865E+04    0.41244E-02   -0.51219E-04  4160   0.103E-02    0.170E+00
RMM: 168    -0.230072191242E+04    0.10406E-01   -0.49729E-03  5150   0.306E-02    0.120E+00
RMM: 169    -0.230071484002E+04    0.70724E-02   -0.43921E-03  4935   0.307E-02    0.103E+00
RMM: 170    -0.230071009781E+04    0.47422E-02   -0.32796E-03  5197   0.258E-02    0.102E+00
RMM: 171    -0.230070938725E+04    0.71057E-03   -0.34419E-04  3848   0.103E-02    0.104E+00
RMM: 172    -0.230070379256E+04    0.55947E-02   -0.27546E-03  5080   0.229E-02    0.115E+00
RMM: 173    -0.230069968133E+04    0.41112E-02   -0.16528E-03  4514   0.201E-02    0.129E+00
RMM: 174    -0.230070312151E+04   -0.34402E-02   -0.50371E-04  4148   0.107E-02    0.117E+00
RMM: 175    -0.230071004138E+04   -0.69199E-02   -0.46366E-03  5070   0.296E-02    0.101E+00
RMM: 176    -0.230072243685E+04   -0.12395E-01   -0.13612E-02  5255   0.517E-02    0.131E+00
RMM: 177    -0.230076727657E+04   -0.44840E-01   -0.54417E-02  5414   0.101E-01    0.264E+00
RMM: 178    -0.230079555037E+04   -0.28274E-01   -0.25730E-02  5229   0.764E-02    0.245E+00
RMM: 179    -0.230079475499E+04    0.79538E-03   -0.21989E-03  4895   0.215E-02    0.245E+00
RMM: 180    -0.230079288037E+04    0.18746E-02   -0.98628E-05  3373   0.602E-03    0.247E+00
RMM: 181    -0.230079738974E+04   -0.45094E-02   -0.28513E-04  3799   0.775E-03    0.242E+00
RMM: 182    -0.230079210619E+04    0.52836E-02   -0.43365E-04  3990   0.917E-03    0.249E+00
RMM: 183    -0.230079799812E+04   -0.58919E-02   -0.36689E-04  4003   0.872E-03    0.243E+00
RMM: 184    -0.230079551912E+04    0.24790E-02   -0.63923E-05  3014   0.496E-03    0.246E+00
RMM: 185    -0.230079611705E+04   -0.59792E-03   -0.43836E-06  2441   0.185E-03    0.245E+00
RMM: 186    -0.230079659877E+04   -0.48172E-03   -0.39363E-06  2204   0.106E-03    0.245E+00
RMM: 187    -0.230081072784E+04   -0.14129E-01   -0.31469E-03  4931   0.231E-02    0.221E+00
RMM: 188    -0.230081098230E+04   -0.25446E-03   -0.22686E-04  3336   0.110E-02    0.220E+00
RMM: 189    -0.230080876849E+04    0.22138E-02   -0.63270E-05  3032   0.394E-03    0.225E+00
RMM: 190    -0.230080924449E+04   -0.47600E-03   -0.51101E-06  2673   0.202E-03    0.224E+00
RMM: 191    -0.230080931095E+04   -0.66458E-04   -0.95639E-07  2055   0.878E-04    0.224E+00
RMM: 192    -0.230080873221E+04    0.57873E-03   -0.16130E-05  2699   0.184E-03    0.225E+00
RMM: 193    -0.230081051139E+04   -0.17792E-02   -0.46972E-05  2936   0.302E-03    0.222E+00
RMM: 194    -0.230081356893E+04   -0.30575E-02   -0.15288E-04  3443   0.523E-03    0.216E+00
RMM: 195    -0.230081460567E+04   -0.10367E-02   -0.36565E-05  2924   0.350E-03    0.213E+00
RMM: 196    -0.230081477759E+04   -0.17192E-03   -0.15468E-05  2656   0.220E-03    0.214E+00
RMM: 197    -0.230081313593E+04    0.16417E-02   -0.51405E-05  2906   0.307E-03    0.218E+00
RMM: 198    -0.230081429746E+04   -0.11615E-02   -0.11531E-05  2601   0.217E-03    0.216E+00
RMM: 199    -0.230081838329E+04   -0.40858E-02   -0.29778E-04  3794   0.720E-03    0.206E+00
RMM: 200    -0.230081871984E+04   -0.33655E-03   -0.25856E-05  2872   0.392E-03    0.205E+00
RMM: 201    -0.230081854995E+04    0.16990E-03   -0.47225E-06  2596   0.135E-03    0.205E+00
RMM: 202    -0.230081243879E+04    0.61112E-02   -0.92231E-04  4345   0.122E-02    0.222E+00
RMM: 203    -0.230081488089E+04   -0.24421E-02   -0.88741E-05  3123   0.622E-03    0.216E+00
RMM: 204    -0.230081498225E+04   -0.10135E-03   -0.51859E-06  2500   0.212E-03    0.216E+00
RMM: 205    -0.230081527748E+04   -0.29523E-03   -0.24502E-06  2069   0.117E-03    0.215E+00
RMM: 206    -0.230081556076E+04   -0.28328E-03   -0.19533E-06  1987   0.104E-03    0.214E+00
RMM: 207    -0.230081965176E+04   -0.40910E-02   -0.23725E-04  3749   0.673E-03    0.205E+00
RMM: 208    -0.230081979772E+04   -0.14596E-03   -0.18074E-05  2786   0.323E-03    0.205E+00
RMM: 209    -0.230082057794E+04   -0.78022E-03   -0.16942E-05  2816   0.207E-03    0.203E+00
RMM: 210    -0.230082051816E+04    0.59786E-04   -0.10770E-06  2480   0.137E-03    0.203E+00
RMM: 211    -0.230082016916E+04    0.34899E-03   -0.11190E-05  2199   0.142E-03    0.205E+00
RMM: 212    -0.230081795813E+04    0.22110E-02   -0.11334E-04  3204   0.457E-03    0.211E+00
RMM: 213    -0.230082378852E+04   -0.58304E-02   -0.80428E-04  4369   0.119E-02    0.193E+00
RMM: 214    -0.230082505430E+04   -0.12658E-02   -0.13697E-04  3121   0.672E-03    0.189E+00
RMM: 215    -0.230082455283E+04    0.50147E-03   -0.11288E-05  2825   0.269E-03    0.191E+00
RMM: 216    -0.230082567894E+04   -0.11261E-02   -0.23280E-05  2786   0.249E-03    0.188E+00
RMM: 217    -0.230074021245E+04    0.85466E-01   -0.15247E-01  5239   0.161E-01    0.177E+00
RMM: 218    -0.230073824386E+04    0.19686E-02   -0.10930E-02  4604   0.782E-02    0.217E+00
RMM: 219    -0.230074639981E+04   -0.81560E-02   -0.13077E-03  4850   0.158E-02    0.247E+00
RMM: 220    -0.230074890425E+04   -0.25044E-02   -0.28011E-04  3409   0.106E-02    0.251E+00
RMM: 221    -0.230075504318E+04   -0.61389E-02   -0.73019E-04  4308   0.118E-02    0.269E+00
RMM: 222    -0.230079458452E+04   -0.39541E-01   -0.15013E-02  5067   0.529E-02    0.304E+00
RMM: 223    -0.230079284625E+04    0.17383E-02   -0.92637E-04  3851   0.231E-02    0.301E+00
RMM: 224    -0.230079198704E+04    0.85920E-03   -0.14831E-04  3262   0.469E-03    0.302E+00
RMM: 225    -0.230079506750E+04   -0.30805E-02   -0.17922E-04  3816   0.639E-03    0.299E+00
RMM: 226    -0.230079486519E+04    0.20232E-03   -0.11334E-05  2835   0.328E-03    0.299E+00
RMM: 227    -0.230078383882E+04    0.11026E-01   -0.10075E-03  4328   0.136E-02    0.301E+00
RMM: 228    -0.230078991490E+04   -0.60761E-02   -0.61127E-04  4497   0.111E-02    0.299E+00
RMM: 229    -0.230078645338E+04    0.34615E-02   -0.16980E-04  3217   0.720E-03    0.299E+00
RMM: 230    -0.230078696164E+04   -0.50825E-03   -0.11285E-04  2983   0.491E-03    0.299E+00
RMM: 231    -0.230078604023E+04    0.92141E-03   -0.56373E-05  2976   0.415E-03    0.300E+00
RMM: 232    -0.230078791908E+04   -0.18789E-02   -0.11110E-04  3091   0.512E-03    0.300E+00
RMM: 233    -0.230078889602E+04   -0.97694E-03   -0.35896E-05  2900   0.372E-03    0.299E+00
RMM: 234    -0.230078464435E+04    0.42517E-02   -0.18672E-04  3274   0.572E-03    0.300E+00
RMM: 235    -0.230078270412E+04    0.19402E-02   -0.93783E-05  3028   0.450E-03    0.300E+00
RMM: 236    -0.230078181969E+04    0.88443E-03   -0.33993E-05  2827   0.314E-03    0.300E+00
RMM: 237    -0.230079181391E+04   -0.99942E-02   -0.11092E-03  4467   0.140E-02    0.297E+00
RMM: 238    -0.230078764819E+04    0.41657E-02   -0.17532E-04  3475   0.785E-03    0.298E+00
RMM: 239    -0.230077795547E+04    0.96927E-02   -0.13450E-03  4819   0.158E-02    0.298E+00
RMM: 240    -0.230076590528E+04    0.12050E-01   -0.25467E-03  5027   0.232E-02    0.287E+00
RMM: 241    -0.230075895799E+04    0.69473E-02   -0.14190E-03  4649   0.165E-02    0.276E+00
RMM: 242    -0.230075634384E+04    0.26141E-02   -0.29547E-04  3381   0.895E-03    0.266E+00
RMM: 243    -0.230072714368E+04    0.29200E-01   -0.23696E-02  5126   0.650E-02    0.136E+00
RMM: 244    -0.230070045392E+04    0.26690E-01   -0.46364E-02  5319   0.995E-02    0.133E+00
RMM: 245    -0.230070508961E+04   -0.46357E-02   -0.25350E-03  4649   0.347E-02    0.123E+00
RMM: 246    -0.230071173176E+04   -0.66422E-02   -0.33447E-03  4920   0.266E-02    0.116E+00
RMM: 247    -0.230072090105E+04   -0.91693E-02   -0.10044E-02  5225   0.435E-02    0.131E+00
RMM: 248    -0.230073212553E+04   -0.11224E-01   -0.10122E-02  5269   0.449E-02    0.170E+00
RMM: 249    -0.230073095378E+04    0.11718E-02   -0.20123E-03  4710   0.217E-02    0.156E+00
RMM: 250    -0.230072685225E+04    0.41015E-02   -0.54209E-04  4130   0.110E-02    0.141E+00
RMM: 251    -0.230072612516E+04    0.72709E-03   -0.42314E-04  3563   0.963E-03    0.142E+00
RMM: 252    -0.230070460518E+04    0.21520E-01   -0.44061E-02  5202   0.883E-02    0.114E+00
RMM: 253    -0.230069274302E+04    0.11862E-01   -0.18025E-02  4925   0.711E-02    0.154E+00
RMM: 254    -0.230067785287E+04    0.14890E-01   -0.14922E-02  5506   0.523E-02    0.209E+00
RMM: 255    -0.230068019410E+04   -0.23412E-02   -0.71119E-04  3877   0.214E-02    0.201E+00
RMM: 256    -0.230067996431E+04    0.22978E-03   -0.91770E-05  3264   0.439E-03    0.202E+00
RMM: 257    -0.230068145321E+04   -0.14889E-02   -0.49622E-04  3874   0.942E-03    0.193E+00
RMM: 258    -0.230068061321E+04    0.84000E-03   -0.40998E-05  2870   0.433E-03    0.196E+00
RMM: 259    -0.230068197896E+04   -0.13657E-02   -0.13122E-04  3190   0.487E-03    0.191E+00
RMM: 260    -0.230068729072E+04   -0.53118E-02   -0.10322E-03  4473   0.143E-02    0.172E+00
RMM: 261    -0.230068350825E+04    0.37825E-02   -0.60011E-04  4468   0.116E-02    0.187E+00
RMM: 262    -0.230070568910E+04   -0.22181E-01   -0.20356E-02  5129   0.627E-02    0.114E+00
RMM: 263    -0.230070227264E+04    0.34165E-02   -0.11259E-03  4356   0.265E-02    0.125E+00
RMM: 264    -0.230070660130E+04   -0.43287E-02   -0.13150E-03  4618   0.152E-02    0.115E+00
RMM: 265    -0.230070547055E+04    0.11308E-02   -0.15527E-04  3283   0.756E-03    0.118E+00
RMM: 266    -0.230070504511E+04    0.42544E-03   -0.24134E-05  2834   0.345E-03    0.119E+00
RMM: 267    -0.230070039362E+04    0.46515E-02   -0.12849E-03  4589   0.163E-02    0.130E+00
RMM: 268    -0.230069945874E+04    0.93488E-03   -0.44146E-04  3715   0.115E-02    0.135E+00
RMM: 269    -0.230069957837E+04   -0.11963E-03   -0.74170E-05  3060   0.431E-03    0.135E+00
RMM: 270    -0.230069903264E+04    0.54574E-03   -0.32981E-05  2914   0.340E-03    0.137E+00
RMM: 271    -0.230070828890E+04   -0.92563E-02   -0.63157E-03  5048   0.343E-02    0.110E+00
RMM: 272    -0.230072492063E+04   -0.16632E-01   -0.23239E-02  5387   0.690E-02    0.146E+00
RMM: 273    -0.230072883511E+04   -0.39145E-02   -0.50914E-03  5091   0.359E-02    0.149E+00
RMM: 274    -0.230073105794E+04   -0.22228E-02   -0.11773E-03  4821   0.133E-02    0.158E+00
RMM: 275    -0.230073136119E+04   -0.30325E-03   -0.70947E-05  3115   0.711E-03    0.158E+00
RMM: 276    -0.230073290384E+04   -0.15427E-02   -0.88547E-05  3237   0.468E-03    0.166E+00
RMM: 277    -0.230073405766E+04   -0.11538E-02   -0.70030E-05  3115   0.456E-03    0.170E+00
RMM: 278    -0.230073277056E+04    0.12871E-02   -0.35791E-05  2932   0.370E-03    0.163E+00
RMM: 279    -0.230072966751E+04    0.31030E-02   -0.39214E-04  4107   0.860E-03    0.149E+00
RMM: 280    -0.230072789578E+04    0.17717E-02   -0.20982E-04  3422   0.747E-03    0.144E+00
RMM: 281    -0.230072643487E+04    0.14609E-02   -0.19193E-04  3678   0.639E-03    0.138E+00
RMM: 282    -0.230072676004E+04   -0.32517E-03   -0.12924E-04  3015   0.579E-03    0.141E+00
RMM: 283    -0.230072751885E+04   -0.75881E-03   -0.35716E-05  2876   0.349E-03    0.143E+00
RMM: 284    -0.230072752171E+04   -0.28530E-05   -0.37087E-06  2356   0.174E-03
   3 F= -.23210414E+04 E0= -.23210280E+04  d E =-.268210E-01  mag=     3.7928
       N       E                     dE             d eps       ncg     rms          rms(c)
DAV:   1    -0.230073299611E+04   -0.54773E-02   -0.37461E+00  4480   0.828E-01    0.407E-01
RMM:   2    -0.230073304622E+04   -0.50116E-04   -0.13602E-02  4260   0.498E-02    0.430E-01
RMM:   3    -0.230073307546E+04   -0.29236E-04   -0.22748E-03  4414   0.261E-02    0.374E-01
RMM:   4    -0.230073327336E+04   -0.19791E-03   -0.13224E-03  4685   0.151E-02    0.483E-01
RMM:   5    -0.230073323801E+04    0.35352E-04   -0.17900E-04  2986   0.521E-03    0.458E-01
RMM:   6    -0.230073316378E+04    0.74230E-04   -0.16073E-03  4623   0.167E-02    0.427E-01
RMM:   7    -0.230073280020E+04    0.36358E-03   -0.51697E-04  4138   0.921E-03    0.432E-01
RMM:   8    -0.230073224220E+04    0.55800E-03   -0.29551E-04  3728   0.909E-03    0.356E-01
RMM:   9    -0.230073198577E+04    0.25643E-03   -0.19694E-04  3512   0.717E-03    0.343E-01
RMM:  10    -0.230073181023E+04    0.17553E-03   -0.76739E-05  3092   0.511E-03    0.330E-01
RMM:  11    -0.230073156204E+04    0.24819E-03   -0.82232E-05  3257   0.494E-03    0.313E-01
RMM:  12    -0.230073136603E+04    0.19601E-03   -0.57360E-05  3062   0.464E-03    0.307E-01
RMM:  13    -0.230073149092E+04   -0.12489E-03   -0.11538E-05  2795   0.301E-03    0.315E-01
RMM:  14    -0.230073153511E+04   -0.44182E-04   -0.49242E-06  2397   0.141E-03    0.314E-01
RMM:  15    -0.230073159972E+04   -0.64610E-04   -0.81395E-06  2666   0.156E-03    0.316E-01
RMM:  16    -0.230073128874E+04    0.31098E-03   -0.11488E-04  3178   0.465E-03    0.300E-01
RMM:  17    -0.230073074484E+04    0.54390E-03   -0.53972E-04  4264   0.986E-03    0.305E-01
RMM:  18    -0.230073076361E+04   -0.18763E-04   -0.30134E-05  2929   0.430E-03    0.312E-01
RMM:  19    -0.230073078626E+04   -0.22650E-04   -0.35528E-06  2611   0.138E-03    0.312E-01
RMM:  20    -0.230073109311E+04   -0.30686E-03   -0.13793E-04  3301   0.507E-03    0.310E-01
RMM:  21    -0.230073095308E+04    0.14004E-03   -0.64222E-05  3023   0.445E-03    0.310E-01
RMM:  22    -0.230073020364E+04    0.74944E-03   -0.14491E-03  4595   0.159E-02    0.382E-01
RMM:  23    -0.230073036146E+04   -0.15782E-03   -0.81457E-05  3096   0.699E-03    0.402E-01
RMM:  24    -0.230072944814E+04    0.91332E-03   -0.15395E-03  4743   0.162E-02    0.522E-01
RMM:  25    -0.230072945528E+04   -0.71387E-05   -0.90381E-05  3058   0.669E-03
   4 F= -.23210403E+04 E0= -.23210370E+04  d E =-.676756E-02  mag=     4.0933
       N       E                     dE             d eps       ncg     rms          rms(c)
DAV:   1    -0.230080415898E+04   -0.74711E-01   -0.77831E+00  4480   0.115E+00    0.769E-01
RMM:   2    -0.230080957580E+04   -0.54168E-02   -0.39383E-02  4635   0.836E-02    0.906E-01
RMM:   3    -0.230080619867E+04    0.33771E-02   -0.10016E-02  5800   0.437E-02    0.782E-01
RMM:   4    -0.230080382850E+04    0.23702E-02   -0.70922E-03  4914   0.355E-02    0.782E-01
RMM:   5    -0.230080442496E+04   -0.59646E-03   -0.14354E-03  4683   0.206E-02    0.619E-01
RMM:   6    -0.230080298963E+04    0.14353E-02   -0.75647E-03  5061   0.373E-02    0.474E-01
RMM:   7    -0.230080051919E+04    0.24704E-02   -0.51448E-03  4798   0.315E-02    0.629E-01
RMM:   8    -0.230080080421E+04   -0.28502E-03   -0.23333E-04  3611   0.112E-02    0.612E-01
RMM:   9    -0.230080027009E+04    0.53412E-03   -0.17372E-04  3536   0.662E-03    0.579E-01
RMM:  10    -0.230080205634E+04   -0.17862E-02   -0.41313E-03  4999   0.277E-02    0.315E-01
RMM:  11    -0.230080336232E+04   -0.13060E-02   -0.30805E-03  4634   0.264E-02    0.242E-01
RMM:  12    -0.230080425835E+04   -0.89603E-03   -0.14194E-03  4671   0.192E-02    0.292E-01
RMM:  13    -0.230080488142E+04   -0.62307E-03   -0.85780E-04  4453   0.139E-02    0.337E-01
RMM:  14    -0.230080303454E+04    0.18469E-02   -0.61057E-03  4961   0.333E-02    0.277E-01
RMM:  15    -0.230079929512E+04    0.37394E-02   -0.82735E-03  5156   0.420E-02    0.587E-01
RMM:  16    -0.230079963659E+04   -0.34146E-03   -0.44457E-04  3685   0.132E-02    0.566E-01
RMM:  17    -0.230080035995E+04   -0.72337E-03   -0.21622E-04  3624   0.701E-03    0.489E-01
RMM:  18    -0.230080208308E+04   -0.17231E-02   -0.15236E-03  4763   0.167E-02    0.341E-01
RMM:  19    -0.230080413716E+04   -0.20541E-02   -0.30639E-03  4976   0.248E-02    0.242E-01
RMM:  20    -0.230080553161E+04   -0.13945E-02   -0.20457E-03  4723   0.210E-02    0.267E-01
RMM:  21    -0.230080623796E+04   -0.70634E-03   -0.72170E-04  4272   0.124E-02    0.296E-01
RMM:  22    -0.230080658673E+04   -0.34877E-03   -0.17325E-04  3492   0.706E-03    0.312E-01
RMM:  23    -0.230080673414E+04   -0.14741E-03   -0.35604E-05  3011   0.431E-03    0.319E-01
RMM:  24    -0.230080659234E+04    0.14180E-03   -0.90088E-06  2784   0.280E-03    0.308E-01
RMM:  25    -0.230080564433E+04    0.94801E-03   -0.57109E-04  4191   0.101E-02    0.260E-01
RMM:  26    -0.230080311014E+04    0.25342E-02   -0.50953E-03  5169   0.313E-02    0.293E-01
RMM:  27    -0.230080032648E+04    0.27837E-02   -0.43407E-03  5019   0.299E-02    0.496E-01
RMM:  28    -0.230080000454E+04    0.32194E-03   -0.51149E-04  3890   0.121E-02    0.523E-01
RMM:  29    -0.230079970051E+04    0.30403E-03   -0.87655E-05  3174   0.468E-03    0.544E-01
RMM:  30    -0.230079977812E+04   -0.77614E-04   -0.59740E-06  2836   0.313E-03    0.539E-01
RMM:  31    -0.230080006668E+04   -0.28855E-03   -0.10667E-05  2684   0.201E-03    0.525E-01
RMM:  32    -0.230080080166E+04   -0.73498E-03   -0.76871E-05  3047   0.420E-03    0.495E-01
RMM:  33    -0.230080166332E+04   -0.86166E-03   -0.16453E-04  3390   0.598E-03    0.462E-01
RMM:  34    -0.230080249805E+04   -0.83473E-03   -0.24416E-04  3492   0.714E-03    0.433E-01
RMM:  35    -0.230080338851E+04   -0.89046E-03   -0.41109E-04  4065   0.921E-03    0.410E-01
RMM:  36    -0.230080423686E+04   -0.84836E-03   -0.54929E-04  4191   0.107E-02    0.402E-01
RMM:  37    -0.230080449676E+04   -0.25990E-03   -0.12746E-04  3205   0.641E-03    0.401E-01
RMM:  38    -0.230080508238E+04   -0.58562E-03   -0.26228E-04  3986   0.751E-03    0.420E-01
RMM:  39    -0.230080509847E+04   -0.16097E-04   -0.22029E-05  2889   0.440E-03    0.413E-01
RMM:  40    -0.230080532504E+04   -0.22656E-03   -0.46008E-05  3026   0.314E-03    0.426E-01
RMM:  41    -0.230080531948E+04    0.55553E-05   -0.34305E-06  2709   0.223E-03
   5 F= -.23211205E+04 E0= -.23211126E+04  d E =-.157611E-01  mag=     3.8797
       N       E                     dE             d eps       ncg     rms          rms(c)
DAV:   1    -0.230075627707E+04    0.49048E-01   -0.40593E+00  4480   0.904E-01    0.873E-01
RMM:   2    -0.230075886145E+04   -0.25844E-02   -0.39828E-02  4819   0.862E-02    0.881E-01
RMM:   3    -0.230076138983E+04   -0.25284E-02   -0.10817E-02  5403   0.453E-02    0.155E+00
RMM:   4    -0.230076339124E+04   -0.20014E-02   -0.52515E-03  4677   0.294E-02    0.133E+00
RMM:   5    -0.230075299320E+04    0.10398E-01   -0.13492E-02  5608   0.478E-02    0.492E-01
RMM:   6    -0.230075112006E+04    0.18731E-02   -0.59167E-03  5163   0.308E-02    0.544E-01
RMM:   7    -0.230074841691E+04    0.27032E-02   -0.20745E-03  4516   0.202E-02    0.546E-01
RMM:   8    -0.230074770710E+04    0.70981E-03   -0.29516E-04  3843   0.108E-02    0.574E-01
RMM:   9    -0.230075140846E+04   -0.37014E-02   -0.29153E-03  4612   0.234E-02    0.498E-01
RMM:  10    -0.230075263516E+04   -0.12267E-02   -0.16233E-03  4220   0.210E-02    0.467E-01
RMM:  11    -0.230075417421E+04   -0.15391E-02   -0.18124E-03  5092   0.185E-02    0.545E-01
RMM:  12    -0.230075219076E+04    0.19834E-02   -0.15544E-03  4723   0.177E-02    0.398E-01
RMM:  13    -0.230074870698E+04    0.34838E-02   -0.62214E-03  5018   0.340E-02    0.533E-01
RMM:  14    -0.230074444430E+04    0.42627E-02   -0.55711E-03  4956   0.338E-02    0.815E-01
RMM:  15    -0.230075081181E+04   -0.63675E-02   -0.85494E-03  5048   0.402E-02    0.489E-01
RMM:  16    -0.230075468365E+04   -0.38718E-02   -0.98108E-03  5206   0.450E-02    0.587E-01
RMM:  17    -0.230075942228E+04   -0.47386E-02   -0.74671E-03  5249   0.377E-02    0.947E-01
RMM:  18    -0.230076107355E+04   -0.16513E-02   -0.15480E-03  4730   0.196E-02    0.101E+00
RMM:  19    -0.230076089901E+04    0.17454E-03   -0.14175E-04  3187   0.590E-03    0.983E-01
RMM:  20    -0.230076109285E+04   -0.19384E-03   -0.11862E-05  2976   0.335E-03    0.101E+00
RMM:  21    -0.230075980568E+04    0.12872E-02   -0.11888E-04  3202   0.504E-03    0.884E-01
RMM:  22    -0.230075745428E+04    0.23514E-02   -0.65163E-04  4182   0.112E-02    0.664E-01
RMM:  23    -0.230075670972E+04    0.74456E-03   -0.15943E-04  3214   0.749E-03    0.620E-01
RMM:  24    -0.230075651565E+04    0.19407E-03   -0.46066E-05  2943   0.350E-03    0.599E-01
RMM:  25    -0.230075448214E+04    0.20335E-02   -0.11036E-03  4687   0.144E-02    0.408E-01
RMM:  26    -0.230075201256E+04    0.24696E-02   -0.32986E-03  5070   0.260E-02    0.322E-01
RMM:  27    -0.230074919809E+04    0.28145E-02   -0.57256E-03  5241   0.328E-02    0.442E-01
RMM:  28    -0.230074511707E+04    0.40810E-02   -0.64110E-03  5101   0.356E-02    0.738E-01
RMM:  29    -0.230073989233E+04    0.52247E-02   -0.48319E-03  5010   0.322E-02    0.107E+00
RMM:  30    -0.230073877250E+04    0.11198E-02   -0.61929E-04  4241   0.132E-02    0.113E+00
RMM:  31    -0.230073847647E+04    0.29603E-03   -0.84716E-05  3227   0.483E-03    0.115E+00
RMM:  32    -0.230073916746E+04   -0.69099E-03   -0.27414E-05  2985   0.378E-03    0.111E+00
RMM:  33    -0.230074100258E+04   -0.18351E-02   -0.25756E-04  3754   0.735E-03    0.101E+00
RMM:  34    -0.230074365609E+04   -0.26535E-02   -0.68932E-04  4283   0.120E-02    0.859E-01
RMM:  35    -0.230074678754E+04   -0.31314E-02   -0.16305E-03  4718   0.184E-02    0.665E-01
RMM:  36    -0.230074982736E+04   -0.30398E-02   -0.32521E-03  5009   0.258E-02    0.492E-01
RMM:  37    -0.230075168855E+04   -0.18612E-02   -0.26389E-03  4810   0.235E-02    0.453E-01
RMM:  38    -0.230075215913E+04   -0.47058E-03   -0.54435E-04  4024   0.114E-02    0.449E-01
RMM:  39    -0.230075226366E+04   -0.10453E-03   -0.54807E-05  3116   0.459E-03    0.450E-01
RMM:  40    -0.230075216064E+04    0.10302E-03   -0.53203E-06  2769   0.270E-03    0.443E-01
RMM:  41    -0.230075182830E+04    0.33234E-03   -0.49058E-05  2956   0.333E-03    0.433E-01
RMM:  42    -0.230075157651E+04    0.25179E-03   -0.43280E-05  2960   0.319E-03    0.432E-01
RMM:  43    -0.230075127222E+04    0.30429E-03   -0.68187E-05  3055   0.377E-03    0.433E-01
RMM:  44    -0.230075125485E+04    0.17369E-04   -0.61399E-06  2530   0.232E-03    0.436E-01
RMM:  45    -0.230075095593E+04    0.29892E-03   -0.50112E-05  3085   0.326E-03    0.436E-01
RMM:  46    -0.230075072018E+04    0.23575E-03   -0.38812E-05  2956   0.310E-03    0.442E-01
RMM:  47    -0.230075098519E+04   -0.26501E-03   -0.22333E-05  2729   0.267E-03    0.441E-01
RMM:  48    -0.230075098603E+04   -0.83414E-06   -0.12627E-06  1748   0.120E-03
   6 F= -.23210632E+04 E0= -.23210574E+04  d E =-.115614E-01  mag=     3.9843
       N       E                     dE             d eps       ncg     rms          rms(c)
DAV:   1    -0.230077876305E+04   -0.27778E-01   -0.82598E+00  4480   0.115E+00    0.660E-01
RMM:   2    -0.230077981333E+04   -0.10503E-02   -0.36946E-02  4306   0.809E-02    0.657E-01
RMM:   3    -0.230077889265E+04    0.92068E-03   -0.82801E-03  5401   0.379E-02    0.643E-01
RMM:   4    -0.230077598438E+04    0.29083E-02   -0.47706E-03  5244   0.289E-02    0.369E-01
RMM:   5    -0.230077475934E+04    0.12250E-02   -0.29753E-03  4719   0.227E-02    0.467E-01
RMM:   6    -0.230077504201E+04   -0.28267E-03   -0.24123E-03  4889   0.222E-02    0.241E-01
RMM:   7    -0.230077561176E+04   -0.56975E-03   -0.34999E-03  4818   0.256E-02    0.285E-01
RMM:   8    -0.230077471094E+04    0.90082E-03   -0.28859E-03  4815   0.233E-02    0.392E-01
RMM:   9    -0.230077565451E+04   -0.94357E-03   -0.11028E-03  4643   0.162E-02    0.297E-01
RMM:  10    -0.230077602043E+04   -0.36593E-03   -0.16766E-03  4846   0.185E-02    0.201E-01
RMM:  11    -0.230077653949E+04   -0.51905E-03   -0.21426E-03  4804   0.210E-02    0.238E-01
RMM:  12    -0.230077693024E+04   -0.39075E-03   -0.10838E-03  4504   0.164E-02    0.300E-01
RMM:  13    -0.230077617961E+04    0.75063E-03   -0.47959E-03  4832   0.296E-02    0.178E-01
RMM:  14    -0.230077446124E+04    0.17184E-02   -0.52926E-03  5027   0.340E-02    0.382E-01
RMM:  15    -0.230077287019E+04    0.15910E-02   -0.22483E-03  4893   0.216E-02    0.543E-01
RMM:  16    -0.230077459764E+04   -0.17275E-02   -0.86106E-04  4425   0.135E-02    0.398E-01
RMM:  17    -0.230077602035E+04   -0.14227E-02   -0.22657E-03  4932   0.209E-02    0.263E-01
RMM:  18    -0.230077683317E+04   -0.81282E-03   -0.15613E-03  4546   0.189E-02    0.235E-01
RMM:  19    -0.230077769953E+04   -0.86637E-03   -0.15557E-03  4890   0.178E-02    0.282E-01
RMM:  20    -0.230077807827E+04   -0.37873E-03   -0.44654E-04  3962   0.114E-02    0.307E-01
RMM:  21    -0.230077793614E+04    0.14213E-03   -0.30470E-05  2991   0.410E-03    0.282E-01
RMM:  22    -0.230077741794E+04    0.51820E-03   -0.33438E-04  3856   0.799E-03    0.235E-01
RMM:  23    -0.230077642795E+04    0.98999E-03   -0.18504E-03  4869   0.191E-02    0.224E-01
RMM:  24    -0.230077488171E+04    0.15462E-02   -0.31532E-03  4999   0.253E-02    0.357E-01
RMM:  25    -0.230077298754E+04    0.18942E-02   -0.25328E-03  4862   0.232E-02    0.545E-01
RMM:  26    -0.230077318015E+04   -0.19261E-03   -0.15456E-04  3238   0.823E-03    0.528E-01
RMM:  27    -0.230077313806E+04    0.42088E-04   -0.19803E-05  2867   0.292E-03    0.531E-01
RMM:  28    -0.230077313874E+04   -0.67650E-06   -0.22196E-06  2649   0.180E-03
   7 F= -.23210872E+04 E0= -.23210855E+04  d E =-.336334E-02  mag=     4.1521
       N       E                     dE             d eps       ncg     rms          rms(c)
DAV:   1    -0.230076793766E+04    0.52004E-02   -0.25926E+00  4480   0.648E-01    0.788E-01
RMM:   2    -0.230077136334E+04   -0.34257E-02   -0.34359E-02  5000   0.777E-02    0.804E-01
RMM:   3    -0.230077184555E+04   -0.48222E-03   -0.12428E-02  5705   0.462E-02    0.978E-01
RMM:   4    -0.230076562991E+04    0.62156E-02   -0.50135E-03  4762   0.315E-02    0.675E-01
RMM:   5    -0.230076609276E+04   -0.46285E-03   -0.38110E-04  3653   0.129E-02    0.602E-01
RMM:   6    -0.230076682871E+04   -0.73594E-03   -0.56036E-03  4716   0.318E-02    0.499E-01
RMM:   7    -0.230076569889E+04    0.11298E-02   -0.56286E-03  4912   0.344E-02    0.649E-01
RMM:   8    -0.230076355346E+04    0.21454E-02   -0.29134E-03  4863   0.250E-02    0.828E-01
RMM:   9    -0.230076610127E+04   -0.25478E-02   -0.22750E-03  4767   0.205E-02    0.611E-01
RMM:  10    -0.230076687528E+04   -0.77401E-03   -0.26335E-03  4969   0.232E-02    0.445E-01
RMM:  11    -0.230076767658E+04   -0.80130E-03   -0.19446E-03  4741   0.195E-02    0.400E-01
RMM:  12    -0.230076780144E+04   -0.12486E-03   -0.23529E-04  3509   0.904E-03    0.392E-01
RMM:  13    -0.230076778297E+04    0.18469E-04   -0.20649E-05  2939   0.340E-03    0.389E-01
RMM:  14    -0.230076806633E+04   -0.28336E-03   -0.11250E-04  3496   0.514E-03    0.392E-01
RMM:  15    -0.230076770975E+04    0.35658E-03   -0.10130E-04  3216   0.553E-03    0.377E-01
RMM:  16    -0.230076451182E+04    0.31979E-02   -0.65488E-03  4917   0.348E-02    0.531E-01
RMM:  17    -0.230076885147E+04   -0.43397E-02   -0.69968E-03  5215   0.365E-02    0.432E-01
RMM:  18    -0.230077196292E+04   -0.31114E-02   -0.56266E-03  5130   0.333E-02    0.622E-01
RMM:  19    -0.230076977246E+04    0.21905E-02   -0.14772E-03  4742   0.203E-02    0.374E-01
RMM:  20    -0.230076597962E+04    0.37928E-02   -0.97681E-03  5105   0.433E-02    0.478E-01
RMM:  21    -0.230076248592E+04    0.34937E-02   -0.52321E-03  4861   0.360E-02    0.761E-01
RMM:  22    -0.230075561327E+04    0.68727E-02   -0.75072E-03  5386   0.384E-02    0.121E+00
RMM:  23    -0.230075797010E+04   -0.23568E-02   -0.44588E-04  3840   0.163E-02    0.107E+00
RMM:  24    -0.230075577328E+04    0.21968E-02   -0.28188E-04  3850   0.742E-03    0.119E+00
RMM:  25    -0.230075637313E+04   -0.59985E-03   -0.35364E-05  3012   0.439E-03    0.115E+00
RMM:  26    -0.230075908297E+04   -0.27098E-02   -0.10307E-03  4591   0.139E-02    0.952E-01
RMM:  27    -0.230076388159E+04   -0.47986E-02   -0.45713E-03  5133   0.302E-02    0.594E-01
RMM:  28    -0.230076651453E+04   -0.26329E-02   -0.34786E-03  4944   0.264E-02    0.408E-01
RMM:  29    -0.230076754135E+04   -0.10268E-02   -0.10984E-03  4453   0.157E-02    0.364E-01
RMM:  30    -0.230076857831E+04   -0.10370E-02   -0.87100E-04  4468   0.138E-02    0.352E-01
RMM:  31    -0.230077007902E+04   -0.15007E-02   -0.15210E-03  4808   0.180E-02    0.408E-01
RMM:  32    -0.230077196533E+04   -0.18863E-02   -0.19738E-03  4913   0.200E-02    0.543E-01
RMM:  33    -0.230077225454E+04   -0.28921E-03   -0.26704E-04  3534   0.964E-03    0.537E-01
RMM:  34    -0.230077287225E+04   -0.61770E-03   -0.18673E-04  3631   0.636E-03    0.596E-01
RMM:  35    -0.230077304901E+04   -0.17677E-03   -0.28427E-05  2988   0.479E-03    0.601E-01
RMM:  36    -0.230077311412E+04   -0.65110E-04   -0.77882E-06  2845   0.214E-03    0.606E-01
RMM:  37    -0.230077322658E+04   -0.11246E-03   -0.52595E-06  2796   0.213E-03    0.616E-01
RMM:  38    -0.230077309312E+04    0.13346E-03   -0.30600E-06  2458   0.145E-03    0.600E-01
RMM:  39    -0.230077264641E+04    0.44670E-03   -0.46692E-05  2936   0.301E-03    0.558E-01
RMM:  40    -0.230077267171E+04   -0.25301E-04   -0.32615E-06  2316   0.165E-03    0.569E-01
RMM:  41    -0.230077281782E+04   -0.14611E-03   -0.53608E-06  2217   0.115E-03    0.580E-01
RMM:  42    -0.230077220813E+04    0.60969E-03   -0.90309E-05  3125   0.408E-03    0.517E-01
RMM:  43    -0.230077143495E+04    0.77319E-03   -0.23230E-04  3771   0.652E-03    0.459E-01
RMM:  44    -0.230077091452E+04    0.52043E-03   -0.16876E-04  3334   0.577E-03    0.429E-01
RMM:  45    -0.230076936521E+04    0.15493E-02   -0.14787E-03  4750   0.163E-02    0.343E-01
RMM:  46    -0.230076703162E+04    0.23336E-02   -0.39362E-03  5064   0.280E-02    0.401E-01
RMM:  47    -0.230076470541E+04    0.23262E-02   -0.31532E-03  4908   0.258E-02    0.565E-01
RMM:  48    -0.230076246271E+04    0.22427E-02   -0.18850E-03  4814   0.195E-02    0.729E-01
RMM:  49    -0.230075912072E+04    0.33420E-02   -0.19352E-03  4885   0.205E-02    0.949E-01
RMM:  50    -0.230075537376E+04    0.37470E-02   -0.16048E-03  4688   0.191E-02    0.116E+00
RMM:  51    -0.230075270577E+04    0.26680E-02   -0.73361E-04  4334   0.135E-02    0.130E+00
RMM:  52    -0.230075294450E+04   -0.23873E-03   -0.43546E-05  3036   0.522E-03    0.129E+00
RMM:  53    -0.230075326679E+04   -0.32229E-03   -0.86219E-06  2848   0.242E-03    0.127E+00
RMM:  54    -0.230075409212E+04   -0.82533E-03   -0.50320E-05  2987   0.341E-03    0.122E+00
RMM:  55    -0.230075693581E+04   -0.28437E-02   -0.66609E-04  4378   0.112E-02    0.106E+00
RMM:  56    -0.230075988816E+04   -0.29524E-02   -0.11648E-03  4567   0.159E-02    0.866E-01
RMM:  57    -0.230076304094E+04   -0.31528E-02   -0.19601E-03  4997   0.198E-02    0.646E-01
RMM:  58    -0.230076474599E+04   -0.17050E-02   -0.11580E-03  4483   0.160E-02    0.518E-01
RMM:  59    -0.230076649042E+04   -0.17444E-02   -0.14560E-03  4856   0.173E-02    0.401E-01
RMM:  60    -0.230076706856E+04   -0.57815E-03   -0.39183E-04  3860   0.108E-02    0.366E-01
RMM:  61    -0.230076748081E+04   -0.41224E-03   -0.16463E-04  3556   0.656E-03    0.349E-01
RMM:  62    -0.230076728444E+04    0.19637E-03   -0.23655E-05  2945   0.432E-03    0.359E-01
RMM:  63    -0.230076708675E+04    0.19768E-03   -0.30789E-05  2824   0.279E-03    0.371E-01
RMM:  64    -0.230076706082E+04    0.25931E-04   -0.25782E-06  2393   0.159E-03    0.372E-01
RMM:  65    -0.230076705659E+04    0.42339E-05   -0.45550E-07  1667   0.675E-04
   8 F= -.23210809E+04 E0= -.23210766E+04  d E =-.859913E-02  mag=     4.0116
       N       E                     dE             d eps       ncg     rms          rms(c)
DAV:   1    -0.230077225382E+04   -0.51930E-02   -0.12177E+00  4720   0.480E-01    0.500E-01
RMM:   2    -0.230077160013E+04    0.65369E-03   -0.11220E-02  4592   0.422E-02    0.433E-01
RMM:   3    -0.230077146867E+04    0.13145E-03   -0.31119E-03  4962   0.287E-02    0.432E-01
RMM:   4    -0.230077102912E+04    0.43955E-03   -0.20308E-03  4735   0.180E-02    0.347E-01
RMM:   5    -0.230076970143E+04    0.13277E-02   -0.22098E-03  4665   0.213E-02    0.410E-01
RMM:   6    -0.230076992834E+04   -0.22691E-03   -0.22982E-04  3632   0.114E-02    0.306E-01
RMM:   7    -0.230077026132E+04   -0.33298E-03   -0.17125E-03  4453   0.177E-02    0.272E-01
RMM:   8    -0.230077027055E+04   -0.92334E-05   -0.21289E-03  4580   0.207E-02    0.284E-01
RMM:   9    -0.230076965532E+04    0.61524E-03   -0.14702E-03  4582   0.186E-02    0.364E-01
RMM:  10    -0.230077010031E+04   -0.44500E-03   -0.21085E-04  3799   0.789E-03    0.316E-01
RMM:  11    -0.230077038270E+04   -0.28239E-03   -0.33441E-04  4017   0.862E-03    0.264E-01
RMM:  12    -0.230077073112E+04   -0.34842E-03   -0.53176E-04  4232   0.105E-02    0.233E-01
RMM:  13    -0.230077105828E+04   -0.32715E-03   -0.46165E-04  3958   0.102E-02    0.230E-01
RMM:  14    -0.230077123304E+04   -0.17477E-03   -0.16593E-04  3360   0.695E-03    0.232E-01
RMM:  15    -0.230077050999E+04    0.72305E-03   -0.10202E-03  4211   0.140E-02    0.217E-01
RMM:  16    -0.230077023015E+04    0.27984E-03   -0.24475E-04  3364   0.879E-03    0.242E-01
RMM:  17    -0.230077096197E+04   -0.73183E-03   -0.50287E-04  3950   0.102E-02    0.230E-01
RMM:  18    -0.230077342842E+04   -0.24665E-02   -0.54937E-03  5031   0.323E-02    0.426E-01
RMM:  19    -0.230077656504E+04   -0.31366E-02   -0.46057E-03  4891   0.315E-02    0.757E-01
RMM:  20    -0.230077594705E+04    0.61799E-03   -0.32625E-04  3448   0.124E-02    0.619E-01
RMM:  21    -0.230077523142E+04    0.71563E-03   -0.14639E-04  3363   0.612E-03    0.568E-01
RMM:  22    -0.230077701418E+04   -0.17828E-02   -0.47952E-04  3971   0.950E-03    0.797E-01
RMM:  23    -0.230077611739E+04    0.89680E-03   -0.13402E-04  3219   0.687E-03    0.655E-01
RMM:  24    -0.230077323547E+04    0.28819E-02   -0.37816E-03  4978   0.260E-02    0.314E-01
RMM:  25    -0.230077219458E+04    0.10409E-02   -0.13862E-03  4353   0.199E-02    0.286E-01
RMM:  26    -0.230077184276E+04    0.35182E-03   -0.59650E-04  4347   0.101E-02    0.267E-01
RMM:  27    -0.230077105164E+04    0.79111E-03   -0.11187E-03  4588   0.155E-02    0.242E-01
RMM:  28    -0.230077017807E+04    0.87357E-03   -0.12826E-03  4700   0.172E-02    0.294E-01
RMM:  29    -0.230076963764E+04    0.54044E-03   -0.54954E-04  4124   0.114E-02    0.344E-01
RMM:  30    -0.230076956019E+04    0.77443E-04   -0.56381E-05  3091   0.496E-03    0.353E-01
RMM:  31    -0.230076955813E+04    0.20630E-05   -0.57182E-06  2847   0.257E-03
   9 F= -.23210821E+04 E0= -.23210789E+04  d E =-.653018E-02  mag=     4.0409
       N       E                     dE             d eps       ncg     rms          rms(c)
DAV:   1    -0.230078386715E+04   -0.14307E-01   -0.58701E-01  4480   0.318E-01    0.478E-01
RMM:   2    -0.230078610961E+04   -0.22425E-02   -0.77024E-03  4822   0.376E-02    0.506E-01
RMM:   3    -0.230078605459E+04    0.55020E-04   -0.27123E-03  5087   0.223E-02    0.567E-01
RMM:   4    -0.230078523047E+04    0.82412E-03   -0.15923E-03  4447   0.156E-02    0.543E-01
RMM:   5    -0.230078387129E+04    0.13592E-02   -0.82388E-03  4928   0.378E-02    0.442E-01
RMM:   6    -0.230076764254E+04    0.16229E-01   -0.30885E-02  5126   0.783E-02    0.123E+00
RMM:   7    -0.230078425055E+04   -0.16608E-01   -0.19101E-02  4985   0.640E-02    0.476E-01
RMM:   8    -0.230078231418E+04    0.19364E-02   -0.10142E-03  4155   0.278E-02    0.474E-01
RMM:   9    -0.230078439206E+04   -0.20779E-02   -0.24758E-03  4827   0.212E-02    0.339E-01
RMM:  10    -0.230078496980E+04   -0.57774E-03   -0.70858E-04  4089   0.147E-02    0.311E-01
RMM:  11    -0.230078543530E+04   -0.46550E-03   -0.42170E-04  4224   0.100E-02    0.312E-01
RMM:  12    -0.230078538893E+04    0.46377E-04   -0.26798E-05  2984   0.522E-03    0.305E-01
RMM:  13    -0.230078545483E+04   -0.65902E-04   -0.14880E-05  2878   0.222E-03    0.305E-01
RMM:  14    -0.230078489552E+04    0.55931E-03   -0.35425E-04  3815   0.814E-03    0.307E-01
RMM:  15    -0.230078375740E+04    0.11381E-02   -0.14876E-03  4730   0.169E-02    0.387E-01
RMM:  16    -0.230078289419E+04    0.86322E-03   -0.79291E-04  4211   0.132E-02    0.463E-01
RMM:  17    -0.230078413292E+04   -0.12387E-02   -0.67534E-04  4225   0.115E-02    0.385E-01
RMM:  18    -0.230078598613E+04   -0.18532E-02   -0.29818E-03  4899   0.236E-02    0.343E-01
RMM:  19    -0.230078878838E+04   -0.28023E-02   -0.52646E-03  5111   0.322E-02    0.531E-01
RMM:  20    -0.230078785929E+04    0.92909E-03   -0.32173E-04  3688   0.133E-02    0.390E-01
RMM:  21    -0.230078688094E+04    0.97835E-03   -0.61982E-04  4349   0.113E-02    0.344E-01
RMM:  22    -0.230078663874E+04    0.24220E-03   -0.14335E-04  3254   0.707E-03    0.359E-01
RMM:  23    -0.230078612997E+04    0.50877E-03   -0.36702E-04  4224   0.838E-03    0.346E-01
RMM:  24    -0.230078437537E+04    0.17546E-02   -0.29910E-03  5009   0.237E-02    0.382E-01
RMM:  25    -0.230078339405E+04    0.98131E-03   -0.10825E-03  4345   0.157E-02    0.458E-01
RMM:  26    -0.230078293666E+04    0.45739E-03   -0.32142E-04  3858   0.837E-03    0.496E-01
RMM:  27    -0.230078339744E+04   -0.46078E-03   -0.82291E-05  3145   0.555E-03    0.462E-01
RMM:  28    -0.230078418960E+04   -0.79216E-03   -0.44852E-04  4201   0.944E-03    0.406E-01
RMM:  29    -0.230078557663E+04   -0.13870E-02   -0.17395E-03  4838   0.185E-02    0.363E-01
RMM:  30    -0.230078713088E+04   -0.15542E-02   -0.22729E-03  4928   0.216E-02    0.426E-01
RMM:  31    -0.230078865277E+04   -0.15219E-02   -0.16855E-03  4669   0.184E-02    0.546E-01
RMM:  32    -0.230078882882E+04   -0.17605E-03   -0.20223E-04  3392   0.850E-03    0.536E-01
RMM:  33    -0.230078867370E+04    0.15512E-03   -0.21690E-05  2896   0.326E-03    0.522E-01
RMM:  34    -0.230078845258E+04    0.22112E-03   -0.19758E-05  2813   0.254E-03    0.505E-01
RMM:  35    -0.230078780690E+04    0.64569E-03   -0.22642E-04  3652   0.646E-03    0.453E-01
RMM:  36    -0.230078738468E+04    0.42222E-03   -0.16863E-04  3312   0.613E-03    0.436E-01
RMM:  37    -0.230078744467E+04   -0.59994E-04   -0.18272E-05  2776   0.323E-03    0.457E-01
RMM:  38    -0.230078726757E+04    0.17710E-03   -0.17857E-05  2772   0.221E-03    0.435E-01
RMM:  39    -0.230078706523E+04    0.20234E-03   -0.19756E-05  2894   0.259E-03    0.415E-01
RMM:  40    -0.230078608209E+04    0.98314E-03   -0.58412E-04  4319   0.105E-02    0.339E-01
RMM:  41    -0.230078516541E+04    0.91668E-03   -0.73384E-04  4266   0.126E-02    0.333E-01
RMM:  42    -0.230078441468E+04    0.75073E-03   -0.64198E-04  4263   0.113E-02    0.359E-01
RMM:  43    -0.230078403965E+04    0.37502E-03   -0.20135E-04  3456   0.731E-03    0.380E-01
RMM:  44    -0.230078394922E+04    0.90430E-04   -0.31426E-05  2980   0.402E-03    0.386E-01
RMM:  45    -0.230078386432E+04    0.84903E-04   -0.95232E-06  2834   0.262E-03    0.390E-01
RMM:  46    -0.230078392332E+04   -0.59002E-04   -0.21674E-06  2587   0.181E-03    0.388E-01
RMM:  47    -0.230078416660E+04   -0.24328E-03   -0.36034E-05  2856   0.271E-03    0.375E-01
RMM:  48    -0.230078477016E+04   -0.60356E-03   -0.25341E-04  3636   0.689E-03    0.353E-01
RMM:  49    -0.230078614180E+04   -0.13716E-02   -0.15036E-03  4639   0.167E-02    0.365E-01
RMM:  50    -0.230078696902E+04   -0.82722E-03   -0.77282E-04  4138   0.131E-02    0.405E-01
RMM:  51    -0.230078765171E+04   -0.68269E-03   -0.45317E-04  4101   0.944E-03    0.455E-01
RMM:  52    -0.230078785559E+04   -0.20388E-03   -0.76055E-05  3090   0.578E-03    0.465E-01
RMM:  53    -0.230078773522E+04    0.12038E-03   -0.86441E-06  2797   0.265E-03    0.449E-01
RMM:  54    -0.230078710244E+04    0.63278E-03   -0.21244E-04  3506   0.618E-03    0.397E-01
RMM:  55    -0.230078609003E+04    0.10124E-02   -0.79869E-04  4428   0.124E-02    0.345E-01
RMM:  56    -0.230078526745E+04    0.82258E-03   -0.73532E-04  4193   0.122E-02    0.342E-01
RMM:  57    -0.230078402115E+04    0.12463E-02   -0.14255E-03  4818   0.166E-02    0.389E-01
RMM:  58    -0.230078363242E+04    0.38873E-03   -0.27370E-04  3586   0.927E-03    0.419E-01
RMM:  59    -0.230078306129E+04    0.57113E-03   -0.23832E-04  3862   0.734E-03    0.457E-01
RMM:  60    -0.230078286818E+04    0.19311E-03   -0.44664E-05  3042   0.501E-03    0.472E-01
RMM:  61    -0.230078287191E+04   -0.37381E-05   -0.55645E-06  2797   0.215E-03
  10 F= -.23210953E+04 E0= -.23210923E+04  d E =-.612333E-02  mag=     4.0886
       N       E                     dE             d eps       ncg     rms          rms(c)
DAV:   1    -0.230075759254E+04    0.25276E-01   -0.11971E+00  4720   0.462E-01    0.688E-01
RMM:   2    -0.230075660799E+04    0.98455E-03   -0.22247E-02  4898   0.603E-02    0.435E-01
RMM:   3    -0.230075762741E+04   -0.10194E-02   -0.54377E-03  4909   0.368E-02    0.746E-01
RMM:   4    -0.230075391954E+04    0.37079E-02   -0.26585E-03  5150   0.229E-02    0.384E-01
RMM:   5    -0.230075153157E+04    0.23880E-02   -0.35386E-03  4818   0.250E-02    0.557E-01
RMM:   6    -0.230075418256E+04   -0.26510E-02   -0.60913E-03  4861   0.337E-02    0.277E-01
RMM:   7    -0.230075429476E+04   -0.11220E-03   -0.48514E-03  4819   0.315E-02    0.394E-01
RMM:   8    -0.230075286355E+04    0.14312E-02   -0.39958E-03  5177   0.273E-02    0.594E-01
RMM:   9    -0.230075441863E+04   -0.15551E-02   -0.13762E-03  4740   0.182E-02    0.424E-01
RMM:  10    -0.230075496513E+04   -0.54651E-03   -0.13529E-03  4666   0.175E-02    0.300E-01
RMM:  11    -0.230075563976E+04   -0.67463E-03   -0.19041E-03  4848   0.196E-02    0.251E-01
RMM:  12    -0.230075631621E+04   -0.67645E-03   -0.12011E-03  4435   0.170E-02    0.280E-01
RMM:  13    -0.230075609130E+04    0.22491E-03   -0.82466E-05  3159   0.667E-03    0.250E-01
RMM:  14    -0.230075518048E+04    0.91083E-03   -0.24751E-03  4918   0.214E-02    0.290E-01
RMM:  15    -0.230075008924E+04    0.50912E-02   -0.14545E-02  5285   0.534E-02    0.793E-01
RMM:  16    -0.230075569127E+04   -0.56020E-02   -0.94052E-03  5236   0.429E-02    0.334E-01
RMM:  17    -0.230075541612E+04    0.27515E-03   -0.34803E-04  3633   0.158E-02    0.326E-01
RMM:  18    -0.230075691976E+04   -0.15036E-02   -0.25589E-03  4947   0.211E-02    0.269E-01
RMM:  19    -0.230075756163E+04   -0.64186E-03   -0.97987E-04  4316   0.162E-02    0.276E-01
RMM:  20    -0.230075805897E+04   -0.49735E-03   -0.51476E-04  4303   0.104E-02    0.301E-01
RMM:  21    -0.230075809525E+04   -0.36273E-04   -0.45479E-05  3047   0.570E-03    0.295E-01
RMM:  22    -0.230075820580E+04   -0.11055E-03   -0.24263E-05  2966   0.284E-03    0.305E-01
RMM:  23    -0.230075830485E+04   -0.99057E-04   -0.17669E-05  2913   0.277E-03    0.308E-01
RMM:  24    -0.230075788531E+04    0.41955E-03   -0.10687E-04  3087   0.479E-03    0.257E-01
RMM:  25    -0.230075751797E+04    0.36733E-03   -0.15431E-04  3431   0.576E-03    0.236E-01
RMM:  26    -0.230075741611E+04    0.10187E-03   -0.34130E-05  2892   0.339E-03    0.236E-01
RMM:  27    -0.230075720481E+04    0.21130E-03   -0.61118E-05  3133   0.361E-03    0.224E-01
RMM:  28    -0.230075575368E+04    0.14511E-02   -0.22526E-03  4904   0.203E-02    0.246E-01
RMM:  29    -0.230075614184E+04   -0.38816E-03   -0.14951E-04  3458   0.943E-03    0.236E-01
RMM:  30    -0.230075679233E+04   -0.65049E-03   -0.47146E-04  4197   0.985E-03    0.222E-01
RMM:  31    -0.230075833744E+04   -0.15451E-02   -0.23820E-03  4923   0.218E-02    0.307E-01
RMM:  32    -0.230076148899E+04   -0.31515E-02   -0.46171E-03  5112   0.297E-02    0.638E-01
RMM:  33    -0.230076159579E+04   -0.10680E-03   -0.48815E-04  3678   0.141E-02    0.590E-01
RMM:  34    -0.230076173550E+04   -0.13972E-03   -0.10505E-04  3125   0.419E-03    0.617E-01
RMM:  35    -0.230076203742E+04   -0.30191E-03   -0.26642E-05  2939   0.369E-03    0.650E-01
RMM:  36    -0.230076200441E+04    0.33006E-04   -0.60128E-06  2739   0.221E-03    0.637E-01
RMM:  37    -0.230076115265E+04    0.85176E-03   -0.13707E-04  3222   0.509E-03    0.538E-01
RMM:  38    -0.230076097866E+04    0.17399E-03   -0.21499E-05  2727   0.326E-03    0.529E-01
RMM:  39    -0.230076092371E+04    0.54955E-04   -0.67476E-06  2550   0.156E-03    0.522E-01
RMM:  40    -0.230076052655E+04    0.39716E-03   -0.46282E-05  3034   0.318E-03    0.475E-01
RMM:  41    -0.230076038295E+04    0.14360E-03   -0.20411E-05  2849   0.246E-03    0.472E-01
RMM:  42    -0.230075965094E+04    0.73201E-03   -0.27458E-04  3935   0.703E-03    0.394E-01
RMM:  43    -0.230075873820E+04    0.91274E-03   -0.62063E-04  4402   0.110E-02    0.318E-01
RMM:  44    -0.230075795081E+04    0.78739E-03   -0.80503E-04  4401   0.126E-02    0.273E-01
RMM:  45    -0.230075682217E+04    0.11286E-02   -0.19514E-03  4943   0.192E-02    0.245E-01
RMM:  46    -0.230075661345E+04    0.20872E-03   -0.26250E-04  3494   0.987E-03    0.263E-01
RMM:  47    -0.230075648186E+04    0.13158E-03   -0.75551E-05  3128   0.413E-03    0.264E-01
RMM:  48    -0.230075647545E+04    0.64131E-05   -0.60367E-06  2829   0.303E-03
  11 F= -.23210704E+04 E0= -.23210647E+04  d E =-.112710E-01  mag=     3.9170
       N       E                     dE             d eps       ncg     rms          rms(c)
DAV:   1    -0.230078733593E+04   -0.30854E-01   -0.62443E-01  4720   0.349E-01    0.412E-01
RMM:   2    -0.230078700048E+04    0.33545E-03   -0.96629E-03  4478   0.365E-02    0.508E-01
RMM:   3    -0.230078682104E+04    0.17944E-03   -0.10330E-03  4084   0.196E-02    0.484E-01
RMM:   4    -0.230078707629E+04   -0.25524E-03   -0.11630E-03  4404   0.135E-02    0.532E-01
RMM:   5    -0.230078707665E+04   -0.36394E-06   -0.72911E-05  2984   0.648E-03
  12 F= -.23211000E+04 E0= -.23210901E+04  d E =-.198920E-01  mag=     3.9457
       N       E                     dE             d eps       ncg     rms          rms(c)
DAV:   1    -0.230075750995E+04    0.29566E-01   -0.12189E+00  4880   0.479E-01    0.604E-01
RMM:   2    -0.230076105868E+04   -0.35487E-02   -0.26233E-02  4927   0.667E-02    0.838E-01
RMM:   3    -0.230075806495E+04    0.29937E-02   -0.76593E-03  5594   0.381E-02    0.700E-01
RMM:   4    -0.230075685765E+04    0.12073E-02   -0.20219E-03  4461   0.192E-02    0.710E-01
RMM:   5    -0.230075629060E+04    0.56706E-03   -0.46248E-03  4957   0.296E-02    0.389E-01
RMM:   6    -0.230075479774E+04    0.14929E-02   -0.38368E-03  4601   0.291E-02    0.371E-01
RMM:   7    -0.230075218098E+04    0.26168E-02   -0.46775E-03  4943   0.289E-02    0.515E-01
RMM:   8    -0.230075318265E+04   -0.10017E-02   -0.28392E-04  3898   0.127E-02    0.460E-01
RMM:   9    -0.230075401750E+04   -0.83486E-03   -0.16165E-03  4819   0.177E-02    0.301E-01
RMM:  10    -0.230075557335E+04   -0.15559E-02   -0.32965E-03  4935   0.254E-02    0.242E-01
RMM:  11    -0.230075639151E+04   -0.81815E-03   -0.19870E-03  4616   0.216E-02    0.320E-01
RMM:  12    -0.230075657319E+04   -0.18169E-03   -0.41121E-04  3983   0.105E-02    0.324E-01
RMM:  13    -0.230075578308E+04    0.79012E-03   -0.99970E-04  4246   0.140E-02    0.224E-01
RMM:  14    -0.230075359507E+04    0.21880E-02   -0.65566E-03  5049   0.358E-02    0.333E-01
RMM:  15    -0.230075278641E+04    0.80867E-03   -0.10016E-03  4357   0.169E-02    0.403E-01
RMM:  16    -0.230075404456E+04   -0.12582E-02   -0.53584E-04  4071   0.106E-02    0.326E-01
RMM:  17    -0.230075625075E+04   -0.22062E-02   -0.42078E-03  4966   0.285E-02    0.320E-01
RMM:  18    -0.230075753159E+04   -0.12808E-02   -0.20642E-03  4546   0.224E-02    0.424E-01
RMM:  19    -0.230075682152E+04    0.71007E-03   -0.20729E-04  3469   0.820E-03    0.320E-01
RMM:  20    -0.230075639762E+04    0.42391E-03   -0.19796E-04  3553   0.684E-03    0.312E-01
RMM:  21    -0.230075583852E+04    0.55909E-03   -0.47028E-04  4223   0.975E-03    0.298E-01
RMM:  22    -0.230075445213E+04    0.13864E-02   -0.23863E-03  4938   0.213E-02    0.335E-01
RMM:  23    -0.230075383636E+04    0.61577E-03   -0.61670E-04  4109   0.132E-02    0.384E-01
RMM:  24    -0.230075329627E+04    0.54009E-03   -0.36381E-04  4043   0.860E-03    0.428E-01
RMM:  25    -0.230075413789E+04   -0.84162E-03   -0.34328E-04  3924   0.887E-03    0.374E-01
RMM:  26    -0.230075566085E+04   -0.15230E-02   -0.23529E-03  4862   0.211E-02    0.331E-01
RMM:  27    -0.230075705504E+04   -0.13942E-02   -0.24448E-03  4734   0.228E-02    0.403E-01
RMM:  28    -0.230075796882E+04   -0.91378E-03   -0.11519E-03  4553   0.157E-02    0.474E-01
RMM:  29    -0.230075822060E+04   -0.25178E-03   -0.18459E-04  3409   0.703E-03    0.486E-01
RMM:  30    -0.230075820503E+04    0.15579E-04   -0.16666E-05  2905   0.343E-03    0.481E-01
RMM:  31    -0.230075789767E+04    0.30736E-03   -0.38762E-05  2915   0.323E-03    0.447E-01
RMM:  32    -0.230075709193E+04    0.80574E-03   -0.42873E-04  4070   0.891E-03    0.368E-01
RMM:  33    -0.230075680075E+04    0.29118E-03   -0.11415E-04  3134   0.597E-03    0.358E-01
RMM:  34    -0.230075608554E+04    0.71521E-03   -0.58614E-04  4221   0.104E-02    0.308E-01
RMM:  35    -0.230075529397E+04    0.79158E-03   -0.75570E-04  4323   0.129E-02    0.298E-01
RMM:  36    -0.230075464071E+04    0.65325E-03   -0.62497E-04  4289   0.118E-02    0.321E-01
RMM:  37    -0.230075412881E+04    0.51190E-03   -0.34530E-04  3898   0.925E-03    0.353E-01
RMM:  38    -0.230075384848E+04    0.28033E-03   -0.12247E-04  3253   0.656E-03    0.374E-01
RMM:  39    -0.230075414299E+04   -0.29450E-03   -0.47544E-05  2985   0.439E-03    0.355E-01
RMM:  40    -0.230075440261E+04   -0.25962E-03   -0.67981E-05  3049   0.393E-03    0.338E-01
RMM:  41    -0.230075468322E+04   -0.28061E-03   -0.89750E-05  3182   0.425E-03    0.323E-01
RMM:  42    -0.230075534043E+04   -0.65721E-03   -0.48122E-04  4118   0.943E-03    0.307E-01
RMM:  43    -0.230075676909E+04   -0.14287E-02   -0.21249E-03  4843   0.201E-02    0.369E-01
RMM:  44    -0.230075776094E+04   -0.99185E-03   -0.11846E-03  4374   0.162E-02    0.444E-01
RMM:  45    -0.230075959601E+04   -0.18351E-02   -0.16146E-03  4956   0.174E-02    0.634E-01
RMM:  46    -0.230076055216E+04   -0.95615E-03   -0.49434E-04  3975   0.122E-02    0.707E-01
RMM:  47    -0.230076060796E+04   -0.55798E-04   -0.59279E-05  3079   0.471E-03    0.696E-01
RMM:  48    -0.230076064203E+04   -0.34072E-04   -0.60684E-06  2845   0.272E-03    0.702E-01
RMM:  49    -0.230076090535E+04   -0.26332E-03   -0.16238E-05  2913   0.248E-03    0.729E-01
RMM:  50    -0.230076078618E+04    0.11918E-03   -0.28871E-06  2624   0.201E-03    0.711E-01
RMM:  51    -0.230076048265E+04    0.30353E-03   -0.19441E-05  2701   0.202E-03    0.682E-01
RMM:  52    -0.230076015015E+04    0.33250E-03   -0.30761E-05  2902   0.251E-03    0.653E-01
RMM:  53    -0.230076018860E+04   -0.38449E-04   -0.22773E-06  2244   0.137E-03    0.666E-01
RMM:  54    -0.230075961244E+04    0.57616E-03   -0.74234E-05  3109   0.371E-03    0.595E-01
RMM:  55    -0.230075922906E+04    0.38338E-03   -0.50553E-05  2961   0.350E-03    0.563E-01
RMM:  56    -0.230075978300E+04   -0.55394E-03   -0.62829E-05  2953   0.381E-03    0.631E-01
RMM:  57    -0.230075977815E+04    0.48544E-05   -0.65572E-06  2424   0.213E-03
  13 F= -.23210732E+04 E0= -.23210609E+04  d E =-.246317E-01  mag=     3.6315
       N       E                     dE             d eps       ncg     rms          rms(c)
DAV:   1    -0.230079923310E+04   -0.39450E-01   -0.56966E-01  4480   0.354E-01    0.304E-01
RMM:   2    -0.230080021453E+04   -0.98143E-03   -0.54679E-03  4579   0.317E-02    0.471E-01
RMM:   3    -0.230079961994E+04    0.59459E-03   -0.74039E-04  4151   0.146E-02    0.489E-01
RMM:   4    -0.230079961559E+04    0.43474E-05   -0.51699E-04  3851   0.893E-03    0.488E-01
RMM:   5    -0.230079842932E+04    0.11863E-02   -0.10227E-03  4331   0.141E-02    0.220E-01
RMM:   6    -0.230079748580E+04    0.94352E-03   -0.16698E-03  4605   0.185E-02    0.118E-01
RMM:   7    -0.230079724015E+04    0.24565E-03   -0.40046E-04  3862   0.110E-02    0.104E-01
RMM:   8    -0.230079706366E+04    0.17649E-03   -0.19642E-04  3528   0.645E-03    0.881E-02
RMM:   9    -0.230079686709E+04    0.19657E-03   -0.21794E-04  3652   0.799E-03    0.821E-02
RMM:  10    -0.230079678142E+04    0.85671E-04   -0.14977E-04  3448   0.658E-03    0.914E-02
RMM:  11    -0.230079671829E+04    0.63126E-04   -0.66303E-05  3085   0.516E-03    0.975E-02
RMM:  12    -0.230079869592E+04   -0.19776E-02   -0.83052E-03  4966   0.386E-02    0.375E-01
RMM:  13    -0.230079759394E+04    0.11020E-02   -0.42840E-03  5319   0.316E-02    0.475E-02
RMM:  14    -0.230079783951E+04   -0.24557E-03   -0.89672E-04  4268   0.177E-02    0.164E-01
RMM:  15    -0.230079773388E+04    0.10563E-03   -0.61806E-05  3048   0.546E-03    0.918E-02
RMM:  16    -0.230079778902E+04   -0.55142E-04   -0.11319E-04  3457   0.524E-03    0.820E-02
RMM:  17    -0.230079772419E+04    0.64836E-04   -0.27068E-04  3847   0.768E-03    0.715E-02
RMM:  18    -0.230079761860E+04    0.10559E-03   -0.44611E-04  4078   0.959E-03    0.811E-02
RMM:  19    -0.230079750409E+04    0.11451E-03   -0.30909E-04  3697   0.854E-03    0.105E-01
RMM:  20    -0.230079738704E+04    0.11705E-03   -0.19430E-04  3494   0.709E-03    0.130E-01
RMM:  21    -0.230079741846E+04   -0.31413E-04   -0.11861E-05  2850   0.376E-03    0.126E-01
RMM:  22    -0.230079733753E+04    0.80925E-04   -0.38862E-05  2931   0.306E-03    0.138E-01
RMM:  23    -0.230079737975E+04   -0.42224E-04   -0.98662E-06  2661   0.257E-03    0.129E-01
RMM:  24    -0.230079740706E+04   -0.27305E-04   -0.98499E-06  2631   0.171E-03    0.120E-01
RMM:  25    -0.230079757759E+04   -0.17054E-03   -0.32978E-04  4080   0.789E-03    0.788E-02
RMM:  26    -0.230079765108E+04   -0.73485E-04   -0.16632E-04  3346   0.642E-03    0.614E-02
RMM:  27    -0.230079774403E+04   -0.92952E-04   -0.24172E-04  3869   0.718E-03    0.540E-02
RMM:  28    -0.230079786752E+04   -0.12348E-03   -0.39840E-04  4157   0.930E-03    0.638E-02
RMM:  29    -0.230079810174E+04   -0.23422E-03   -0.75580E-04  4366   0.122E-02    0.113E-01
RMM:  30    -0.230079830566E+04   -0.20392E-03   -0.42704E-04  3886   0.102E-02    0.152E-01
RMM:  31    -0.230079828853E+04    0.17133E-04   -0.32029E-05  2967   0.442E-03    0.137E-01
RMM:  32    -0.230079824274E+04    0.45788E-04   -0.90940E-06  2739   0.236E-03    0.128E-01
RMM:  33    -0.230079824250E+04    0.24318E-06   -0.93661E-07  2496   0.123E-03
  14 F= -.23211124E+04 E0= -.23211029E+04  d E =-.189606E-01  mag=     3.6747
       N       E                     dE             d eps       ncg     rms          rms(c)
DAV:   1    -0.230075481035E+04    0.43432E-01   -0.10849E+00  4480   0.481E-01    0.890E-01
RMM:   2    -0.230077137110E+04   -0.16561E-01   -0.23379E-02  4855   0.661E-02    0.208E+00
RMM:   3    -0.230076904150E+04    0.23296E-02   -0.26799E-02  5158   0.714E-02    0.169E+00
RMM:   4    -0.230074975439E+04    0.19287E-01   -0.87852E-03  5708   0.402E-02    0.664E-01
RMM:   5    -0.230074247471E+04    0.72797E-02   -0.77707E-03  4766   0.359E-02    0.554E-01
RMM:   6    -0.230073157048E+04    0.10904E-01   -0.74639E-03  4779   0.420E-02    0.719E-01
RMM:   7    -0.230073829969E+04   -0.67292E-02   -0.15835E-03  4531   0.221E-02    0.620E-01
RMM:   8    -0.230075259376E+04   -0.14294E-01   -0.19602E-02  4937   0.596E-02    0.867E-01
RMM:   9    -0.230077206824E+04   -0.19474E-01   -0.25948E-02  5122   0.736E-02    0.183E+00
RMM:  10    -0.230075520041E+04    0.16868E-01   -0.14065E-02  5095   0.555E-02    0.622E-01
RMM:  11    -0.230075306895E+04    0.21315E-02   -0.18018E-03  4298   0.277E-02    0.893E-01
RMM:  12    -0.230075223908E+04    0.82987E-03   -0.86099E-04  4564   0.118E-02    0.800E-01
RMM:  13    -0.230075076228E+04    0.14768E-02   -0.37908E-04  3877   0.106E-02    0.679E-01
RMM:  14    -0.230074844708E+04    0.23152E-02   -0.16575E-03  4971   0.179E-02    0.584E-01
RMM:  15    -0.230074785565E+04    0.59143E-03   -0.31032E-04  3678   0.102E-02    0.592E-01
RMM:  16    -0.230074734043E+04    0.51521E-03   -0.15764E-04  3452   0.595E-03    0.576E-01
RMM:  17    -0.230074537710E+04    0.19633E-02   -0.11963E-03  4727   0.157E-02    0.565E-01
RMM:  18    -0.230074262545E+04    0.27517E-02   -0.23378E-03  4937   0.222E-02    0.677E-01
RMM:  19    -0.230074077447E+04    0.18510E-02   -0.10372E-03  4433   0.159E-02    0.779E-01
RMM:  20    -0.230074268222E+04   -0.19078E-02   -0.42907E-04  3983   0.978E-03    0.691E-01
RMM:  21    -0.230074768126E+04   -0.49990E-02   -0.62650E-03  5061   0.341E-02    0.585E-01
RMM:  22    -0.230075815901E+04   -0.10478E-01   -0.18207E-02  5239   0.596E-02    0.121E+00
RMM:  23    -0.230076335575E+04   -0.51967E-02   -0.53971E-03  4989   0.373E-02    0.144E+00
RMM:  24    -0.230076252814E+04    0.82761E-03   -0.62095E-04  3749   0.106E-02    0.133E+00
RMM:  25    -0.230076235320E+04    0.17494E-03   -0.34896E-05  2996   0.483E-03    0.135E+00
RMM:  26    -0.230076240742E+04   -0.54220E-04   -0.71720E-06  2864   0.201E-03    0.137E+00
RMM:  27    -0.230075953207E+04    0.28753E-02   -0.57652E-04  4275   0.101E-02    0.118E+00
RMM:  28    -0.230075320811E+04    0.63240E-02   -0.46152E-03  5117   0.291E-02    0.752E-01
RMM:  29    -0.230074895784E+04    0.42503E-02   -0.45590E-03  5052   0.302E-02    0.584E-01
RMM:  30    -0.230074691551E+04    0.20423E-02   -0.24666E-03  4862   0.222E-02    0.577E-01
RMM:  31    -0.230074590302E+04    0.10125E-02   -0.77410E-04  4332   0.125E-02    0.595E-01
RMM:  32    -0.230074447953E+04    0.14235E-02   -0.74631E-04  4483   0.128E-02    0.633E-01
RMM:  33    -0.230074239281E+04    0.20867E-02   -0.12059E-03  4704   0.161E-02    0.732E-01
RMM:  34    -0.230074107977E+04    0.13130E-02   -0.58649E-04  4092   0.116E-02    0.807E-01
RMM:  35    -0.230074117380E+04   -0.94029E-04   -0.39108E-05  3014   0.482E-03    0.803E-01
RMM:  36    -0.230074041105E+04    0.76275E-03   -0.10502E-04  3331   0.494E-03    0.847E-01
RMM:  37    -0.230074069418E+04   -0.28314E-03   -0.10882E-05  2812   0.305E-03    0.830E-01
RMM:  38    -0.230074163705E+04   -0.94286E-03   -0.15324E-04  3413   0.552E-03    0.774E-01
RMM:  39    -0.230074237509E+04   -0.73805E-03   -0.15128E-04  3262   0.586E-03    0.729E-01
RMM:  40    -0.230074460282E+04   -0.22277E-02   -0.13379E-03  4774   0.157E-02    0.617E-01
RMM:  41    -0.230074726703E+04   -0.26642E-02   -0.27131E-03  5025   0.235E-02    0.555E-01
RMM:  42    -0.230074887186E+04   -0.16048E-02   -0.15232E-03  4587   0.180E-02    0.572E-01
RMM:  43    -0.230074974184E+04   -0.86998E-03   -0.54801E-04  4138   0.110E-02    0.594E-01
RMM:  44    -0.230075053967E+04   -0.79783E-03   -0.28295E-04  3785   0.846E-03    0.629E-01
RMM:  45    -0.230075089564E+04   -0.35597E-03   -0.83499E-05  3131   0.585E-03    0.641E-01
RMM:  46    -0.230075091283E+04   -0.17185E-04   -0.11600E-05  2873   0.316E-03    0.638E-01
RMM:  47    -0.230075033276E+04    0.58006E-03   -0.63718E-05  2965   0.369E-03    0.601E-01
RMM:  48    -0.230074972457E+04    0.60819E-03   -0.10847E-04  3188   0.481E-03    0.575E-01
RMM:  49    -0.230074933950E+04    0.38507E-03   -0.65895E-05  3041   0.386E-03    0.563E-01
RMM:  50    -0.230074841772E+04    0.92178E-03   -0.28265E-04  3932   0.754E-03    0.532E-01
RMM:  51    -0.230074728600E+04    0.11317E-02   -0.47718E-04  4135   0.985E-03    0.518E-01
RMM:  52    -0.230074670550E+04    0.58050E-03   -0.20792E-04  3431   0.729E-03    0.525E-01
RMM:  53    -0.230074670442E+04    0.10860E-05   -0.17816E-05  2887   0.338E-03
  15 F= -.23210589E+04 E0= -.23210528E+04  d E =-.121660E-01  mag=     3.9990
       N       E                     dE             d eps       ncg     rms          rms(c)
DAV:   1    -0.230077374282E+04   -0.27037E-01   -0.53463E-01  4560   0.338E-01    0.516E-01
RMM:   2    -0.230078031112E+04   -0.65683E-02   -0.15858E-02  5092   0.524E-02    0.912E-01
RMM:   3    -0.230077535494E+04    0.49562E-02   -0.48949E-03  5576   0.296E-02    0.570E-01
RMM:   4    -0.230077495766E+04    0.39728E-03   -0.12834E-03  4228   0.143E-02    0.494E-01
RMM:   5    -0.230077093661E+04    0.40211E-02   -0.84707E-03  5159   0.398E-02    0.571E-01
RMM:   6    -0.230077234167E+04   -0.14051E-02   -0.54073E-04  3990   0.155E-02    0.523E-01
RMM:   7    -0.230077497740E+04   -0.26357E-02   -0.10544E-02  5157   0.448E-02    0.354E-01
RMM:   8    -0.230077807503E+04   -0.30976E-02   -0.19564E-02  5000   0.632E-02    0.986E-01
RMM:   9    -0.230077595479E+04    0.21202E-02   -0.10414E-02  5112   0.497E-02    0.324E-01
RMM:  10    -0.230077364375E+04    0.23110E-02   -0.84355E-03  5137   0.399E-02    0.420E-01
RMM:  11    -0.230077203300E+04    0.16107E-02   -0.32125E-03  4815   0.250E-02    0.484E-01
RMM:  12    -0.230077035359E+04    0.16794E-02   -0.15513E-03  4587   0.179E-02    0.590E-01
RMM:  13    -0.230076977037E+04    0.58322E-03   -0.27106E-04  3734   0.978E-03    0.628E-01
RMM:  14    -0.230077118741E+04   -0.14170E-02   -0.35832E-04  3840   0.875E-03    0.549E-01
RMM:  15    -0.230077376867E+04   -0.25813E-02   -0.32910E-03  4904   0.252E-02    0.428E-01
RMM:  16    -0.230077540581E+04   -0.16371E-02   -0.27121E-03  4708   0.245E-02    0.442E-01
RMM:  17    -0.230077550908E+04   -0.10327E-03   -0.31479E-04  3532   0.995E-03    0.427E-01
RMM:  18    -0.230077565944E+04   -0.15037E-03   -0.37588E-05  2976   0.383E-03    0.448E-01
RMM:  19    -0.230077628840E+04   -0.62895E-03   -0.99816E-05  3262   0.526E-03    0.520E-01
RMM:  20    -0.230077605325E+04    0.23515E-03   -0.10635E-05  2816   0.339E-03    0.479E-01
RMM:  21    -0.230077512933E+04    0.92392E-03   -0.25130E-04  3551   0.705E-03    0.388E-01
RMM:  22    -0.230077316031E+04    0.19690E-02   -0.18726E-03  4640   0.190E-02    0.342E-01
RMM:  23    -0.230077330404E+04   -0.14373E-03   -0.89870E-05  3077   0.788E-03    0.352E-01
RMM:  24    -0.230077358539E+04   -0.28135E-03   -0.45557E-05  2944   0.366E-03    0.342E-01
RMM:  25    -0.230077392449E+04   -0.33910E-03   -0.99949E-05  3295   0.466E-03    0.329E-01
RMM:  26    -0.230077552320E+04   -0.15987E-02   -0.16604E-03  4915   0.175E-02    0.364E-01
RMM:  27    -0.230077561825E+04   -0.95047E-04   -0.16844E-04  3198   0.883E-03    0.348E-01
RMM:  28    -0.230077576919E+04   -0.15095E-03   -0.55115E-05  2993   0.326E-03    0.359E-01
RMM:  29    -0.230077498062E+04    0.78858E-03   -0.27505E-04  3583   0.748E-03    0.303E-01
RMM:  30    -0.230077346635E+04    0.15143E-02   -0.15897E-03  4786   0.175E-02    0.308E-01
RMM:  31    -0.230076857108E+04    0.48953E-02   -0.85205E-03  5175   0.412E-02    0.629E-01
RMM:  32    -0.230076893431E+04   -0.36323E-03   -0.48581E-04  3633   0.159E-02    0.607E-01
RMM:  33    -0.230076910880E+04   -0.17449E-03   -0.55058E-05  3010   0.346E-03    0.586E-01
RMM:  34    -0.230077040047E+04   -0.12917E-02   -0.43687E-04  4055   0.910E-03    0.483E-01
RMM:  35    -0.230077294666E+04   -0.25462E-02   -0.29236E-03  4973   0.239E-02    0.310E-01
RMM:  36    -0.230077438373E+04   -0.14371E-02   -0.18689E-03  4567   0.203E-02    0.281E-01
RMM:  37    -0.230077480531E+04   -0.42158E-03   -0.40976E-04  3927   0.101E-02    0.281E-01
RMM:  38    -0.230077539625E+04   -0.59094E-03   -0.27494E-04  3918   0.830E-03    0.305E-01
RMM:  39    -0.230077608936E+04   -0.69312E-03   -0.31911E-04  3959   0.921E-03    0.343E-01
RMM:  40    -0.230077615788E+04   -0.68514E-04   -0.42198E-05  2988   0.490E-03    0.337E-01
RMM:  41    -0.230077601926E+04    0.13862E-03   -0.88987E-06  2770   0.245E-03    0.328E-01
RMM:  42    -0.230077563343E+04    0.38583E-03   -0.78203E-05  3079   0.399E-03    0.306E-01
RMM:  43    -0.230077529911E+04    0.33432E-03   -0.85951E-05  3108   0.428E-03    0.296E-01
RMM:  44    -0.230077419025E+04    0.11089E-02   -0.89887E-04  4531   0.127E-02    0.279E-01
RMM:  45    -0.230077278683E+04    0.14034E-02   -0.14883E-03  4732   0.176E-02    0.331E-01
RMM:  46    -0.230077174094E+04    0.10459E-02   -0.91061E-04  4392   0.139E-02    0.400E-01
RMM:  47    -0.230077084246E+04    0.89847E-03   -0.48510E-04  4080   0.107E-02    0.462E-01
RMM:  48    -0.230077029637E+04    0.54609E-03   -0.17514E-04  3487   0.729E-03    0.501E-01
RMM:  49    -0.230077025797E+04    0.38404E-04   -0.18644E-05  2926   0.369E-03    0.504E-01
RMM:  50    -0.230077030941E+04   -0.51446E-04   -0.23141E-06  2615   0.185E-03    0.500E-01
RMM:  51    -0.230077085552E+04   -0.54611E-03   -0.83702E-05  3081   0.414E-03    0.460E-01
RMM:  52    -0.230077166262E+04   -0.80710E-03   -0.26853E-04  3841   0.726E-03    0.404E-01
RMM:  53    -0.230077244222E+04   -0.77961E-03   -0.35756E-04  3844   0.841E-03    0.354E-01
RMM:  54    -0.230077288799E+04   -0.44576E-03   -0.17998E-04  3400   0.673E-03    0.330E-01
RMM:  55    -0.230077299953E+04   -0.11154E-03   -0.31497E-05  2940   0.383E-03    0.325E-01
RMM:  56    -0.230077296754E+04    0.31988E-04   -0.32000E-06  2616   0.211E-03    0.326E-01
RMM:  57    -0.230077328754E+04   -0.31999E-03   -0.59535E-05  3104   0.379E-03    0.314E-01
RMM:  58    -0.230077339206E+04   -0.10452E-03   -0.15873E-05  2804   0.278E-03    0.310E-01
RMM:  59    -0.230077348685E+04   -0.94793E-04   -0.10621E-05  2728   0.202E-03    0.308E-01
RMM:  60    -0.230077366084E+04   -0.17399E-03   -0.19605E-05  2910   0.254E-03    0.306E-01
RMM:  61    -0.230077402936E+04   -0.36852E-03   -0.83234E-05  3143   0.447E-03    0.306E-01
RMM:  62    -0.230077462648E+04   -0.59712E-03   -0.22388E-04  3727   0.679E-03    0.318E-01
RMM:  63    -0.230077558243E+04   -0.95596E-03   -0.53689E-04  4156   0.102E-02    0.366E-01
RMM:  64    -0.230077622533E+04   -0.64290E-03   -0.30283E-04  3643   0.859E-03    0.406E-01
RMM:  65    -0.230077655735E+04   -0.33202E-03   -0.11047E-04  3219   0.558E-03    0.427E-01
RMM:  66    -0.230077663773E+04   -0.80381E-04   -0.17461E-05  2883   0.352E-03    0.430E-01
RMM:  67    -0.230077788234E+04   -0.12446E-02   -0.52305E-04  4426   0.101E-02    0.544E-01
RMM:  68    -0.230077819138E+04   -0.30904E-03   -0.10305E-04  3111   0.654E-03    0.551E-01
RMM:  69    -0.230077830813E+04   -0.11675E-03   -0.27780E-05  2906   0.289E-03    0.561E-01
RMM:  70    -0.230077820683E+04    0.10131E-03   -0.29933E-06  2632   0.206E-03    0.549E-01
RMM:  71    -0.230077715646E+04    0.10504E-02   -0.32684E-04  3789   0.776E-03    0.449E-01
RMM:  72    -0.230077625660E+04    0.89986E-03   -0.40655E-04  3962   0.954E-03    0.394E-01
RMM:  73    -0.230077616503E+04    0.91568E-04   -0.71383E-05  2998   0.445E-03    0.409E-01
RMM:  74    -0.230077619435E+04   -0.29317E-04   -0.84611E-06  2668   0.229E-03    0.415E-01
RMM:  75    -0.230077612801E+04    0.66341E-04   -0.41563E-06  2437   0.171E-03    0.410E-01
RMM:  76    -0.230077596771E+04    0.16030E-03   -0.13563E-05  2845   0.211E-03    0.398E-01
RMM:  77    -0.230077481771E+04    0.11500E-02   -0.80741E-04  4517   0.124E-02    0.343E-01
RMM:  78    -0.230077596337E+04   -0.11457E-02   -0.48963E-04  4261   0.107E-02    0.435E-01
RMM:  79    -0.230077611232E+04   -0.14895E-03   -0.64244E-05  2982   0.524E-03    0.423E-01
RMM:  80    -0.230077528221E+04    0.83010E-03   -0.26740E-04  3537   0.719E-03    0.362E-01
RMM:  81    -0.230077474635E+04    0.53586E-03   -0.21757E-04  3505   0.709E-03    0.350E-01
RMM:  82    -0.230077578114E+04   -0.10348E-02   -0.36092E-04  3792   0.890E-03    0.427E-01
RMM:  83    -0.230077540285E+04    0.37829E-03   -0.43008E-05  2927   0.446E-03    0.380E-01
RMM:  84    -0.230077531308E+04    0.89773E-04   -0.85053E-06  2094   0.197E-03    0.382E-01
RMM:  85    -0.230077536802E+04   -0.54940E-04   -0.13137E-06  1452   0.101E-03    0.384E-01
RMM:  86    -0.230077539250E+04   -0.24484E-04   -0.55158E-07   966   0.540E-04    0.385E-01
RMM:  87    -0.230077537060E+04    0.21899E-04   -0.10365E-07   850   0.467E-04    0.382E-01
RMM:  88    -0.230077535803E+04    0.12568E-04   -0.72736E-08   818   0.428E-04    0.380E-01
RMM:  89    -0.230077537063E+04   -0.12599E-04   -0.25368E-08   779   0.395E-04    0.382E-01
RMM:  90    -0.230077535607E+04    0.14560E-04   -0.42792E-08   776   0.409E-04    0.381E-01
RMM:  91    -0.230077534822E+04    0.78565E-05   -0.49269E-08   799   0.418E-04
  16 F= -.23210909E+04 E0= -.23210829E+04  d E =-.161658E-01  mag=     3.8282
       N       E                     dE             d eps       ncg     rms          rms(c)
DAV:   1    -0.230077326876E+04    0.20873E-02   -0.10488E+00  4480   0.486E-01    0.307E-01
RMM:   2    -0.230077541658E+04   -0.21478E-02   -0.78924E-03  4613   0.398E-02    0.616E-01
RMM:   3    -0.230077402156E+04    0.13950E-02   -0.93771E-04  3776   0.181E-02    0.361E-01
RMM:   4    -0.230077458033E+04   -0.55878E-03   -0.76561E-04  4227   0.106E-02    0.485E-01
RMM:   5    -0.230077329691E+04    0.12834E-02   -0.15746E-03  4597   0.173E-02    0.219E-01
RMM:   6    -0.230077240607E+04    0.89084E-03   -0.19224E-03  4571   0.190E-02    0.267E-01
RMM:   7    -0.230077071539E+04    0.16907E-02   -0.22715E-03  4633   0.199E-02    0.322E-01
RMM:   8    -0.230077213698E+04   -0.14216E-02   -0.66862E-04  4356   0.136E-02    0.297E-01
RMM:   9    -0.230077347538E+04   -0.13384E-02   -0.30037E-03  4818   0.233E-02    0.244E-01
RMM:  10    -0.230077525216E+04   -0.17768E-02   -0.51519E-03  4991   0.325E-02    0.476E-01
RMM:  11    -0.230077362690E+04    0.16253E-02   -0.42061E-03  4979   0.289E-02    0.178E-01
RMM:  12    -0.230077279754E+04    0.82936E-03   -0.14345E-03  4425   0.194E-02    0.254E-01
RMM:  13    -0.230077226567E+04    0.53187E-03   -0.91463E-04  4595   0.127E-02    0.268E-01
RMM:  14    -0.230077181103E+04    0.45463E-03   -0.33517E-04  3757   0.974E-03    0.290E-01
RMM:  15    -0.230077167786E+04    0.13317E-03   -0.75483E-05  3147   0.588E-03    0.302E-01
RMM:  16    -0.230077222021E+04   -0.54234E-03   -0.27692E-04  3570   0.763E-03    0.279E-01
RMM:  17    -0.230077363285E+04   -0.14126E-02   -0.28609E-03  4874   0.230E-02    0.316E-01
RMM:  18    -0.230077405300E+04   -0.42015E-03   -0.68107E-04  4058   0.138E-02    0.336E-01
RMM:  19    -0.230077415257E+04   -0.99577E-04   -0.11069E-04  3227   0.494E-03    0.340E-01
RMM:  20    -0.230077452179E+04   -0.36922E-03   -0.10788E-04  3222   0.552E-03    0.393E-01
RMM:  21    -0.230077335154E+04    0.11702E-02   -0.12376E-03  4294   0.150E-02    0.223E-01
RMM:  22    -0.230077206956E+04    0.12820E-02   -0.25931E-03  4871   0.228E-02    0.236E-01
RMM:  23    -0.230077103140E+04    0.10382E-02   -0.16137E-03  4521   0.181E-02    0.321E-01
RMM:  24    -0.230077104234E+04   -0.10937E-04   -0.10952E-04  3136   0.625E-03    0.322E-01
RMM:  25    -0.230077052918E+04    0.51316E-03   -0.18279E-04  3622   0.643E-03    0.364E-01
RMM:  26    -0.230077065139E+04   -0.12221E-03   -0.11097E-05  2835   0.370E-03    0.356E-01
RMM:  27    -0.230077072523E+04   -0.73844E-04   -0.35789E-06  2550   0.145E-03    0.354E-01
RMM:  28    -0.230077070649E+04    0.18739E-04   -0.22623E-06  2457   0.129E-03    0.360E-01
RMM:  29    -0.230077077576E+04   -0.69273E-04   -0.92932E-06  2490   0.157E-03    0.345E-01
RMM:  30    -0.230077068122E+04    0.94541E-04   -0.24128E-06  2224   0.113E-03    0.345E-01
RMM:  31    -0.230077067633E+04    0.48922E-05   -0.18711E-06  1831   0.854E-04
  17 F= -.23210811E+04 E0= -.23210782E+04  d E =-.568617E-02  mag=     4.0569
       N       E                     dE             d eps       ncg     rms          rms(c)
DAV:   1    -0.230076645756E+04    0.42237E-02   -0.52226E-01  4480   0.332E-01    0.720E-01
RMM:   2    -0.230077082099E+04   -0.43634E-02   -0.15919E-02  4847   0.538E-02    0.873E-01
RMM:   3    -0.230077073343E+04    0.87557E-04   -0.10464E-03  3936   0.215E-02    0.810E-01
RMM:   4    -0.230076870377E+04    0.20297E-02   -0.20036E-02  5161   0.578E-02    0.104E+00
RMM:   5    -0.230076307175E+04    0.56320E-02   -0.60562E-03  5221   0.340E-02    0.905E-01
RMM:   6    -0.230075693521E+04    0.61365E-02   -0.40881E-03  4728   0.271E-02    0.106E+00
RMM:   7    -0.230076258331E+04   -0.56481E-02   -0.23190E-03  4876   0.234E-02    0.889E-01
RMM:   8    -0.230076948080E+04   -0.68975E-02   -0.19396E-02  5126   0.592E-02    0.708E-01
RMM:   9    -0.230077824231E+04   -0.87615E-02   -0.20187E-02  5040   0.624E-02    0.141E+00
RMM:  10    -0.230077215513E+04    0.60872E-02   -0.41456E-03  4709   0.358E-02    0.666E-01
RMM:  11    -0.230076907862E+04    0.30765E-02   -0.45331E-03  4870   0.295E-02    0.676E-01
RMM:  12    -0.230076644332E+04    0.26353E-02   -0.37568E-03  4875   0.279E-02    0.657E-01
RMM:  13    -0.230076391588E+04    0.25274E-02   -0.24387E-03  4918   0.220E-02    0.704E-01
RMM:  14    -0.230076185304E+04    0.20628E-02   -0.11750E-03  4451   0.161E-02    0.774E-01
RMM:  15    -0.230076253874E+04   -0.68570E-03   -0.76150E-05  3115   0.695E-03    0.751E-01
RMM:  16    -0.230076400524E+04   -0.14665E-02   -0.55642E-04  4228   0.105E-02    0.682E-01
RMM:  17    -0.230076799596E+04   -0.39907E-02   -0.45246E-03  5120   0.297E-02    0.645E-01
RMM:  18    -0.230077231419E+04   -0.43182E-02   -0.49563E-03  5045   0.316E-02    0.838E-01
RMM:  19    -0.230077077948E+04    0.15347E-02   -0.32803E-04  3716   0.126E-02    0.685E-01
RMM:  20    -0.230076999695E+04    0.78253E-03   -0.14982E-04  3318   0.623E-03    0.667E-01
RMM:  21    -0.230076860584E+04    0.13911E-02   -0.64753E-04  4408   0.111E-02    0.630E-01
RMM:  22    -0.230076489936E+04    0.37065E-02   -0.44533E-03  5091   0.287E-02    0.645E-01
RMM:  23    -0.230076123140E+04    0.36680E-02   -0.39024E-03  4930   0.297E-02    0.809E-01
RMM:  24    -0.230076121937E+04    0.12030E-04   -0.34333E-04  3541   0.996E-03    0.815E-01
RMM:  25    -0.230076127574E+04   -0.56371E-04   -0.20099E-05  2948   0.344E-03    0.801E-01
RMM:  26    -0.230076195551E+04   -0.67976E-03   -0.13821E-04  3336   0.523E-03    0.752E-01
RMM:  27    -0.230076400414E+04   -0.20486E-02   -0.16567E-03  4803   0.171E-02    0.614E-01
RMM:  28    -0.230076420496E+04   -0.20081E-03   -0.31911E-04  3648   0.974E-03    0.567E-01
RMM:  29    -0.230076424864E+04   -0.43683E-04   -0.34621E-05  2901   0.337E-03    0.568E-01
RMM:  30    -0.230076463800E+04   -0.38936E-03   -0.88670E-05  3284   0.470E-03    0.540E-01
RMM:  31    -0.230076479851E+04   -0.16051E-03   -0.15885E-04  3606   0.583E-03    0.491E-01
RMM:  32    -0.230076499413E+04   -0.19562E-03   -0.47722E-04  4530   0.950E-03    0.407E-01
RMM:  33    -0.230076526534E+04   -0.27122E-03   -0.58791E-04  4673   0.104E-02    0.336E-01
RMM:  34    -0.230076503479E+04    0.23055E-03   -0.17955E-04  3263   0.688E-03    0.325E-01
RMM:  35    -0.230076504382E+04   -0.90247E-05   -0.16543E-05  2870   0.335E-03
  18 F= -.23210800E+04 E0= -.23210763E+04  d E =-.741994E-02  mag=     3.9853
       N       E                     dE             d eps       ncg     rms          rms(c)
DAV:   1    -0.230078336901E+04   -0.18334E-01   -0.10935E+00  4480   0.482E-01    0.445E-01
RMM:   2    -0.230078537431E+04   -0.20053E-02   -0.15005E-02  5343   0.494E-02    0.679E-01
RMM:   3    -0.230078311785E+04    0.22565E-02   -0.53444E-03  5384   0.321E-02    0.388E-01
RMM:   4    -0.230078202400E+04    0.10938E-02   -0.13406E-03  4588   0.162E-02    0.117E-01
RMM:   5    -0.230078190325E+04    0.12075E-03   -0.46577E-04  4139   0.932E-03    0.850E-02
RMM:   6    -0.230078186330E+04    0.39957E-04   -0.13793E-04  3250   0.724E-03    0.625E-02
RMM:   7    -0.230078183724E+04    0.26055E-04   -0.11754E-04  3368   0.571E-03    0.425E-02
RMM:   8    -0.230078184688E+04   -0.96356E-05   -0.48935E-05  3048   0.500E-03
  19 F= -.23210931E+04 E0= -.23210885E+04  d E =-.917427E-02  mag=     3.9018
