       N       E                     dE             d eps       ncg     rms          rms(c)
DAV:   1     0.129563861782E+05    0.12956E+05   -0.83222E+05  4456   0.144E+03
DAV:   2    -0.103139112181E+04   -0.13988E+05   -0.13377E+05  5104   0.331E+02
DAV:   3    -0.246565979017E+04   -0.14343E+04   -0.14195E+04  5368   0.113E+02
DAV:   4    -0.251051093802E+04   -0.44851E+02   -0.44622E+02  6768   0.297E+01
DAV:   5    -0.251125820595E+04   -0.74727E+00   -0.74608E+00  5976   0.332E+00    0.170E+02
RMM:   6    -0.148142874899E+04    0.10298E+04   -0.19337E+03  4407   0.385E+01    0.723E+01
RMM:   7    -0.165061047055E+04   -0.16918E+03   -0.29109E+02  5086   0.144E+01    0.477E+01
RMM:   8    -0.170310988045E+04   -0.52499E+02   -0.36334E+01  5348   0.674E+00    0.363E+01
RMM:   9    -0.184098940161E+04   -0.13788E+03   -0.80771E+01  4990   0.873E+00    0.346E+01
RMM:  10    -0.193742999754E+04   -0.96441E+02   -0.48071E+01  5225   0.661E+00    0.185E+01
RMM:  11    -0.202953825272E+04   -0.92108E+02   -0.37828E+01  5128   0.506E+00    0.188E+01
RMM:  12    -0.207734639127E+04   -0.47808E+02   -0.17543E+01  5212   0.352E+00    0.139E+01
RMM:  13    -0.219746484559E+04   -0.12012E+03   -0.87517E+01  4396   0.691E+00    0.871E+00
RMM:  14    -0.227171035248E+04   -0.74246E+02   -0.65498E+01  4484   0.564E+00    0.524E+00
RMM:  15    -0.229275318330E+04   -0.21043E+02   -0.25441E+01  4710   0.395E+00    0.466E+00
RMM:  16    -0.229747752069E+04   -0.47243E+01   -0.61986E+00  5178   0.157E+00    0.380E+00
RMM:  17    -0.229884132596E+04   -0.13638E+01   -0.10497E+00  4931   0.746E-01    0.266E+00
RMM:  18    -0.230148731929E+04   -0.26460E+01   -0.16605E+00  4480   0.782E-01    0.154E+00
RMM:  19    -0.230215705048E+04   -0.66973E+00   -0.44599E-01  4603   0.498E-01    0.100E+00
RMM:  20    -0.230243076848E+04   -0.27372E+00   -0.22174E-01  4717   0.256E-01    0.601E-01
RMM:  21    -0.230256884873E+04   -0.13808E+00   -0.69951E-02  4684   0.177E-01    0.355E-01
RMM:  22    -0.230263714226E+04   -0.68294E-01   -0.21773E-02  4683   0.915E-02    0.204E-01
RMM:  23    -0.230267672763E+04   -0.39585E-01   -0.89470E-03  4532   0.696E-02    0.173E-01
RMM:  24    -0.230270558847E+04   -0.28861E-01   -0.64801E-03  4481   0.554E-02    0.110E-01
RMM:  25    -0.230272227531E+04   -0.16687E-01   -0.45813E-03  4557   0.495E-02    0.502E-02
RMM:  26    -0.230273091598E+04   -0.86407E-02   -0.25577E-03  4745   0.357E-02    0.326E-02
RMM:  27    -0.230273387293E+04   -0.29570E-02   -0.98633E-04  4401   0.217E-02    0.182E-02
RMM:  28    -0.230273481026E+04   -0.93732E-03   -0.33110E-04  4072   0.117E-02    0.928E-03
RMM:  29    -0.230273504459E+04   -0.23433E-03   -0.69010E-05  3605   0.694E-03    0.523E-03
RMM:  30    -0.230273516226E+04   -0.11767E-03   -0.30283E-05  3187   0.433E-03    0.285E-03
RMM:  31    -0.230273519546E+04   -0.33195E-04   -0.85295E-06  2825   0.366E-03    0.173E-03
RMM:  32    -0.230273521219E+04   -0.16733E-04   -0.58081E-06  2696   0.245E-03    0.102E-03
RMM:  33    -0.230273521587E+04   -0.36746E-05   -0.25859E-06  2446   0.218E-03
   1 F= -.23234252E+04 E0= -.23234252E+04  d E =-.232343E+04  mag=     3.0000
