       N       E                     dE             d eps       ncg     rms          rms(c)
DAV:   1     0.125533982983E+05    0.12553E+05   -0.81901E+05  4384   0.143E+03
DAV:   2    -0.106798849801E+04   -0.13621E+05   -0.13071E+05  5360   0.330E+02
DAV:   3    -0.246881050797E+04   -0.14008E+04   -0.13894E+04  5272   0.109E+02
DAV:   4    -0.250827080077E+04   -0.39460E+02   -0.39280E+02  6272   0.257E+01
DAV:   5    -0.250907914272E+04   -0.80834E+00   -0.80730E+00  5504   0.298E+00    0.170E+02
RMM:   6    -0.146317708564E+04    0.10459E+04   -0.19297E+03  4341   0.388E+01    0.725E+01
RMM:   7    -0.164304536664E+04   -0.17987E+03   -0.26619E+02  4921   0.138E+01    0.491E+01
RMM:   8    -0.169825499500E+04   -0.55210E+02   -0.52175E+01  4990   0.780E+00    0.365E+01
RMM:   9    -0.182047237398E+04   -0.12222E+03   -0.59246E+01  4530   0.773E+00    0.243E+01
RMM:  10    -0.196870008615E+04   -0.14823E+03   -0.61745E+01  4644   0.736E+00    0.164E+01
RMM:  11    -0.209370753352E+04   -0.12501E+03   -0.70341E+01  4435   0.637E+00    0.132E+01
RMM:  12    -0.217558289093E+04   -0.81875E+02   -0.47778E+01  4784   0.552E+00    0.109E+01
RMM:  13    -0.223707554535E+04   -0.61493E+02   -0.40554E+01  4662   0.485E+00    0.690E+00
RMM:  14    -0.228975726297E+04   -0.52682E+02   -0.48777E+01  4428   0.480E+00    0.305E+00
RMM:  15    -0.229894376405E+04   -0.91865E+01   -0.10370E+01  4554   0.311E+00    0.208E+00
RMM:  16    -0.230156328505E+04   -0.26195E+01   -0.34782E+00  5034   0.104E+00    0.125E+00
RMM:  17    -0.230189710708E+04   -0.33382E+00   -0.45185E-01  4653   0.638E-01    0.856E-01
RMM:  18    -0.230202666117E+04   -0.12955E+00   -0.93167E-02  4970   0.281E-01    0.427E-01
RMM:  19    -0.230211871508E+04   -0.92054E-01   -0.39551E-02  4612   0.171E-01    0.276E-01
RMM:  20    -0.230213346539E+04   -0.14750E-01   -0.12506E-02  4724   0.101E-01    0.174E-01
RMM:  21    -0.230214937742E+04   -0.15912E-01   -0.51303E-03  4408   0.684E-02    0.931E-02
RMM:  22    -0.230216600126E+04   -0.16624E-01   -0.60693E-03  4343   0.629E-02    0.925E-02
RMM:  23    -0.230217107813E+04   -0.50769E-02   -0.19016E-03  4555   0.426E-02    0.609E-02
RMM:  24    -0.230217661265E+04   -0.55345E-02   -0.19658E-03  4368   0.322E-02    0.272E-02
RMM:  25    -0.230217886968E+04   -0.22570E-02   -0.83144E-04  4056   0.284E-02    0.206E-02
RMM:  26    -0.230217947333E+04   -0.60365E-03   -0.26681E-04  4107   0.131E-02    0.949E-03
RMM:  27    -0.230217986997E+04   -0.39665E-03   -0.11072E-04  3589   0.101E-02    0.659E-03
RMM:  28    -0.230218002070E+04   -0.15073E-03   -0.45508E-05  3374   0.613E-03    0.365E-03
RMM:  29    -0.230218009274E+04   -0.72037E-04   -0.22080E-05  3068   0.485E-03    0.226E-03
RMM:  30    -0.230218011662E+04   -0.23879E-04   -0.98734E-06  2821   0.349E-03    0.160E-03
RMM:  31    -0.230218012073E+04   -0.41083E-05   -0.38195E-06  2412   0.246E-03
   1 F= -.23221637E+04 E0= -.23221637E+04  d E =-.232216E+04  mag=     2.0001
       N       E                     dE             d eps       ncg     rms          rms(c)
DAV:   1    -0.230184645973E+04    0.33366E+00   -0.64924E+01  4688   0.609E+00    0.240E+00
RMM:   2    -0.230210978973E+04   -0.26333E+00   -0.37909E+00  6227   0.109E+00    0.146E+00
RMM:   3    -0.230209103324E+04    0.18756E-01   -0.38209E-01  5544   0.353E-01    0.836E-01
RMM:   4    -0.230208170384E+04    0.93294E-02   -0.60493E-02  4914   0.125E-01    0.399E-01
RMM:   5    -0.230208012024E+04    0.15836E-02   -0.98847E-03  4876   0.710E-02    0.153E-01
RMM:   6    -0.230208008246E+04    0.37784E-04   -0.22323E-03  5012   0.310E-02    0.754E-02
RMM:   7    -0.230208005057E+04    0.31883E-04   -0.32496E-04  4333   0.137E-02    0.362E-02
RMM:   8    -0.230208004135E+04    0.92199E-05   -0.12398E-04  3841   0.839E-03    0.216E-02
RMM:   9    -0.230208003005E+04    0.11304E-04   -0.25710E-05  2922   0.545E-03    0.129E-02
RMM:  10    -0.230208003810E+04   -0.80486E-05   -0.28127E-05  2984   0.462E-03
   2 F= -.23220627E+04 E0= -.23220627E+04  d E =0.101021E+00  mag=     2.0000
       N       E                     dE             d eps       ncg     rms          rms(c)
DAV:   1    -0.230231807899E+04   -0.23805E+00   -0.20755E+01  4560   0.336E+00    0.132E+00
RMM:   2    -0.230239296854E+04   -0.74890E-01   -0.11180E+00  6081   0.586E-01    0.796E-01
RMM:   3    -0.230238570261E+04    0.72659E-02   -0.99190E-02  5403   0.219E-01    0.425E-01
RMM:   4    -0.230238341626E+04    0.22863E-02   -0.24182E-02  5058   0.779E-02    0.209E-01
RMM:   5    -0.230238288197E+04    0.53430E-03   -0.28480E-03  5080   0.417E-02    0.804E-02
RMM:   6    -0.230238284303E+04    0.38941E-04   -0.55297E-04  4448   0.118E-02    0.433E-02
RMM:   7    -0.230238281248E+04    0.30549E-04   -0.73290E-05  3193   0.857E-03    0.227E-02
RMM:   8    -0.230238279914E+04    0.13335E-04   -0.37829E-05  3151   0.537E-03    0.107E-02
RMM:   9    -0.230238279664E+04    0.25026E-05   -0.86409E-06  2805   0.439E-03
   3 F= -.23223660E+04 E0= -.23223660E+04  d E =-.202306E+00  mag=     2.0000
       N       E                     dE             d eps       ncg     rms          rms(c)
DAV:   1    -0.230240498663E+04   -0.22187E-01   -0.45435E+01  4416   0.589E+00    0.165E+00
RMM:   2    -0.230276739970E+04   -0.36241E+00   -0.37837E+00  6193   0.108E+00    0.884E-01
RMM:   3    -0.230278748329E+04   -0.20084E-01   -0.34711E-01  5543   0.351E-01    0.620E-01
RMM:   4    -0.230278495423E+04    0.25291E-02   -0.42711E-02  5347   0.936E-02    0.407E-01
RMM:   5    -0.230278127427E+04    0.36800E-02   -0.89852E-03  5090   0.601E-02    0.191E-01
RMM:   6    -0.230278071564E+04    0.55862E-03   -0.31200E-03  4949   0.455E-02    0.789E-02
RMM:   7    -0.230278060011E+04    0.11553E-03   -0.50540E-04  4656   0.211E-02    0.415E-02
RMM:   8    -0.230278054177E+04    0.58334E-04   -0.17296E-04  4122   0.109E-02    0.227E-02
RMM:   9    -0.230278053269E+04    0.90877E-05   -0.25739E-05  2936   0.570E-03
   4 F= -.23227644E+04 E0= -.23227644E+04  d E =-.398352E+00  mag=     2.0000
       N       E                     dE             d eps       ncg     rms          rms(c)
DAV:   1    -0.230227349488E+04    0.50705E+00   -0.85230E+01  4400   0.820E+00    0.228E+00
RMM:   2    -0.230295003525E+04   -0.67654E+00   -0.71902E+00  6172   0.146E+00    0.121E+00
RMM:   3    -0.230298272044E+04   -0.32685E-01   -0.59555E-01  5600   0.481E-01    0.831E-01
RMM:   4    -0.230297710136E+04    0.56191E-02   -0.83691E-02  5354   0.133E-01    0.553E-01
RMM:   5    -0.230297041140E+04    0.66900E-02   -0.15439E-02  5232   0.820E-02    0.256E-01
RMM:   6    -0.230296936171E+04    0.10497E-02   -0.54587E-03  4972   0.569E-02    0.110E-01
RMM:   7    -0.230296909058E+04    0.27113E-03   -0.82809E-04  4808   0.293E-02    0.590E-02
RMM:   8    -0.230296895846E+04    0.13212E-03   -0.36962E-04  4452   0.135E-02    0.342E-02
RMM:   9    -0.230296894276E+04    0.15700E-04   -0.45291E-05  3192   0.804E-03    0.241E-02
RMM:  10    -0.230296891736E+04    0.25401E-04   -0.41324E-05  3178   0.490E-03    0.123E-02
RMM:  11    -0.230296890303E+04    0.14332E-04   -0.31842E-05  3115   0.509E-03    0.725E-03
RMM:  12    -0.230296890250E+04    0.52626E-06   -0.11632E-05  2802   0.448E-03
   5 F= -.23229539E+04 E0= -.23229539E+04  d E =-.587843E+00  mag=     2.0000
       N       E                     dE             d eps       ncg     rms          rms(c)
DAV:   1    -0.230281094745E+04    0.15796E+00   -0.57360E+01  4384   0.703E+00    0.209E+00
RMM:   2    -0.230326192646E+04   -0.45098E+00   -0.48546E+00  5855   0.121E+00    0.985E-01
RMM:   3    -0.230328534283E+04   -0.23416E-01   -0.44298E-01  5145   0.482E-01    0.633E-01
RMM:   4    -0.230328169972E+04    0.36431E-02   -0.60461E-02  5207   0.119E-01    0.427E-01
RMM:   5    -0.230327804001E+04    0.36597E-02   -0.90574E-03  5147   0.733E-02    0.183E-01
RMM:   6    -0.230327767361E+04    0.36640E-03   -0.31497E-03  4800   0.416E-02    0.825E-02
RMM:   7    -0.230327757516E+04    0.98451E-04   -0.41416E-04  4425   0.267E-02    0.453E-02
RMM:   8    -0.230327753462E+04    0.40539E-04   -0.17313E-04  4107   0.920E-03    0.240E-02
RMM:   9    -0.230327753134E+04    0.32814E-05   -0.21134E-05  2853   0.614E-03
   6 F= -.23232650E+04 E0= -.23232650E+04  d E =-.311187E+00  mag=     2.0000
       N       E                     dE             d eps       ncg     rms          rms(c)
DAV:   1    -0.230292880495E+04    0.34873E+00   -0.54963E+01  4384   0.696E+00    0.205E+00
RMM:   2    -0.230335087169E+04   -0.42207E+00   -0.45669E+00  5773   0.114E+00    0.988E-01
RMM:   3    -0.230338000612E+04   -0.29134E-01   -0.49063E-01  5102   0.529E-01    0.678E-01
RMM:   4    -0.230337689160E+04    0.31145E-02   -0.61859E-02  5452   0.115E-01    0.433E-01
RMM:   5    -0.230337297878E+04    0.39128E-02   -0.87876E-03  4975   0.682E-02    0.201E-01
RMM:   6    -0.230337247518E+04    0.50360E-03   -0.37791E-03  4759   0.453E-02    0.808E-02
RMM:   7    -0.230337236883E+04    0.10635E-03   -0.48121E-04  4643   0.275E-02    0.451E-02
RMM:   8    -0.230337232349E+04    0.45337E-04   -0.18345E-04  4171   0.933E-03    0.228E-02
RMM:   9    -0.230337232046E+04    0.30305E-05   -0.23927E-05  2899   0.635E-03
   7 F= -.23233628E+04 E0= -.23233628E+04  d E =-.408960E+00  mag=     2.0000
       N       E                     dE             d eps       ncg     rms          rms(c)
DAV:   1    -0.230326339109E+04    0.10893E+00   -0.34613E+01  4384   0.544E+00    0.175E+00
RMM:   2    -0.230356679882E+04   -0.30341E+00   -0.32410E+00  5789   0.965E-01    0.841E-01
RMM:   3    -0.230358797378E+04   -0.21175E-01   -0.34798E-01  5086   0.431E-01    0.565E-01
RMM:   4    -0.230358665948E+04    0.13143E-02   -0.43088E-02  5421   0.956E-02    0.347E-01
RMM:   5    -0.230358443554E+04    0.22239E-02   -0.67871E-03  4991   0.594E-02    0.155E-01
RMM:   6    -0.230358418159E+04    0.25394E-03   -0.18309E-03  4794   0.347E-02    0.651E-02
RMM:   7    -0.230358411672E+04    0.64879E-04   -0.31903E-04  4390   0.210E-02    0.326E-02
RMM:   8    -0.230358409173E+04    0.24983E-04   -0.11778E-04  4039   0.867E-03    0.173E-02
RMM:   9    -0.230358408866E+04    0.30699E-05   -0.18124E-05  2895   0.582E-03
   8 F= -.23235788E+04 E0= -.23235788E+04  d E =-.215966E+00  mag=     2.0000
       N       E                     dE             d eps       ncg     rms          rms(c)
DAV:   1    -0.230343937022E+04    0.14472E+00   -0.21081E+01  4448   0.427E+00    0.136E+00
RMM:   2    -0.230362094599E+04   -0.18158E+00   -0.19398E+00  5791   0.761E-01    0.656E-01
RMM:   3    -0.230363347448E+04   -0.12528E-01   -0.20697E-01  5026   0.342E-01    0.434E-01
RMM:   4    -0.230363289516E+04    0.57932E-03   -0.25274E-02  5296   0.750E-02    0.262E-01
RMM:   5    -0.230363162755E+04    0.12676E-02   -0.42505E-03  4899   0.480E-02    0.113E-01
RMM:   6    -0.230363147068E+04    0.15687E-03   -0.10013E-03  4730   0.268E-02    0.493E-02
RMM:   7    -0.230363142666E+04    0.44013E-04   -0.19189E-04  4187   0.162E-02    0.246E-02
RMM:   8    -0.230363141049E+04    0.16175E-04   -0.82078E-05  3777   0.756E-03    0.128E-02
RMM:   9    -0.230363140876E+04    0.17300E-05   -0.14859E-05  2865   0.500E-03
   9 F= -.23236296E+04 E0= -.23236296E+04  d E =-.266812E+00  mag=     2.0000
       N       E                     dE             d eps       ncg     rms          rms(c)
DAV:   1    -0.230346755107E+04    0.16386E+00   -0.29074E+01  4400   0.493E+00    0.148E+00
RMM:   2    -0.230381594408E+04   -0.34839E+00   -0.36457E+00  6159   0.935E-01    0.774E-01
RMM:   3    -0.230384278088E+04   -0.26837E-01   -0.34779E-01  5355   0.350E-01    0.499E-01
RMM:   4    -0.230384291437E+04   -0.13349E-03   -0.42122E-02  5354   0.769E-02    0.341E-01
RMM:   5    -0.230384109858E+04    0.18158E-02   -0.65396E-03  4972   0.494E-02    0.142E-01
RMM:   6    -0.230384098332E+04    0.11527E-03   -0.12494E-03  4757   0.303E-02    0.552E-02
RMM:   7    -0.230384095722E+04    0.26098E-04   -0.19952E-04  4043   0.139E-02    0.284E-02
RMM:   8    -0.230384094916E+04    0.80545E-05   -0.63566E-05  3301   0.729E-03
  10 F= -.23238412E+04 E0= -.23238412E+04  d E =-.211528E+00  mag=     2.0000
       N       E                     dE             d eps       ncg     rms          rms(c)
DAV:   1    -0.230293049054E+04    0.91047E+00   -0.78334E+01  4368   0.807E+00    0.247E+00
RMM:   2    -0.230393485342E+04   -0.10044E+01   -0.10548E+01  6243   0.159E+00    0.127E+00
RMM:   3    -0.230398100579E+04   -0.46152E-01   -0.68492E-01  5540   0.469E-01    0.886E-01
RMM:   4    -0.230397896065E+04    0.20451E-02   -0.11250E-01  5600   0.122E-01    0.623E-01
RMM:   5    -0.230397320203E+04    0.57586E-02   -0.17087E-02  4929   0.753E-02    0.305E-01
RMM:   6    -0.230397266720E+04    0.53483E-03   -0.47463E-03  4927   0.539E-02    0.123E-01
RMM:   7    -0.230397269086E+04   -0.23662E-04   -0.74758E-04  4876   0.259E-02    0.832E-02
RMM:   8    -0.230397258254E+04    0.10832E-03   -0.23326E-04  4192   0.102E-02    0.395E-02
RMM:   9    -0.230397258824E+04   -0.57051E-05   -0.79663E-05  3357   0.756E-03
  11 F= -.23239766E+04 E0= -.23239766E+04  d E =-.346958E+00  mag=     2.0000
       N       E                     dE             d eps       ncg     rms          rms(c)
DAV:   1    -0.230347444437E+04    0.49814E+00   -0.50877E+01  4400   0.696E+00    0.253E+00
RMM:   2    -0.230403718209E+04   -0.56274E+00   -0.60557E+00  6075   0.132E+00    0.108E+00
RMM:   3    -0.230406478275E+04   -0.27601E-01   -0.52944E-01  5276   0.495E-01    0.742E-01
RMM:   4    -0.230406214238E+04    0.26404E-02   -0.69543E-02  5394   0.120E-01    0.472E-01
RMM:   5    -0.230405791506E+04    0.42273E-02   -0.12322E-02  4962   0.787E-02    0.221E-01
RMM:   6    -0.230405733973E+04    0.57532E-03   -0.31378E-03  5068   0.465E-02    0.101E-01
RMM:   7    -0.230405725752E+04    0.82208E-04   -0.56576E-04  4631   0.252E-02    0.721E-02
RMM:   8    -0.230405712701E+04    0.13051E-03   -0.21434E-04  4218   0.106E-02    0.357E-02
RMM:   9    -0.230405710446E+04    0.22552E-04   -0.78501E-05  3732   0.815E-03    0.287E-02
RMM:  10    -0.230405709198E+04    0.12476E-04   -0.33972E-05  3024   0.554E-03    0.139E-02
RMM:  11    -0.230405708777E+04    0.42096E-05   -0.27550E-05  3033   0.505E-03
  12 F= -.23240631E+04 E0= -.23240631E+04  d E =-.865592E-01  mag=     2.0000
       N       E                     dE             d eps       ncg     rms          rms(c)
DAV:   1    -0.230403195776E+04    0.25134E-01   -0.33540E+00  4560   0.179E+00    0.654E-01
RMM:   2    -0.230406757460E+04   -0.35617E-01   -0.38176E-01  6021   0.341E-01    0.282E-01
RMM:   3    -0.230406966887E+04   -0.20943E-02   -0.37403E-02  5138   0.137E-01    0.194E-01
RMM:   4    -0.230406955860E+04    0.11027E-03   -0.52572E-03  5233   0.329E-02    0.127E-01
RMM:   5    -0.230406931173E+04    0.24687E-03   -0.82668E-04  4731   0.188E-02    0.717E-02
RMM:   6    -0.230406922865E+04    0.83080E-04   -0.21124E-04  4216   0.115E-02    0.362E-02
RMM:   7    -0.230406921566E+04    0.12986E-04   -0.75394E-05  3607   0.830E-03    0.221E-02
RMM:   8    -0.230406921301E+04    0.26534E-05   -0.19584E-05  2827   0.530E-03
  13 F= -.23240747E+04 E0= -.23240747E+04  d E =-.981524E-01  mag=     2.0000
       N       E                     dE             d eps       ncg     rms          rms(c)
DAV:   1    -0.230380090161E+04    0.26831E+00   -0.33860E+01  4368   0.554E+00    0.168E+00
RMM:   2    -0.230409716069E+04   -0.29626E+00   -0.31956E+00  6106   0.998E-01    0.879E-01
RMM:   3    -0.230411031415E+04   -0.13153E-01   -0.24545E-01  5321   0.330E-01    0.563E-01
RMM:   4    -0.230410791777E+04    0.23964E-02   -0.37034E-02  4923   0.921E-02    0.363E-01
RMM:   5    -0.230410599685E+04    0.19209E-02   -0.84862E-03  5123   0.642E-02    0.133E-01
RMM:   6    -0.230410604706E+04   -0.50214E-04   -0.10225E-03  4973   0.281E-02    0.853E-02
RMM:   7    -0.230410605416E+04   -0.70974E-05   -0.17377E-04  3824   0.106E-02    0.622E-02
RMM:   8    -0.230410602880E+04    0.25360E-04   -0.10898E-04  3201   0.689E-03    0.280E-02
RMM:   9    -0.230410604977E+04   -0.20973E-04   -0.31815E-05  2878   0.487E-03    0.195E-02
RMM:  10    -0.230410606140E+04   -0.11625E-04   -0.16940E-05  2811   0.393E-03    0.717E-03
RMM:  11    -0.230410607580E+04   -0.14404E-04   -0.67963E-06  2798   0.292E-03    0.415E-03
RMM:  12    -0.230410609483E+04   -0.19032E-04   -0.67396E-06  2794   0.281E-03    0.218E-03
RMM:  13    -0.230410610580E+04   -0.10969E-04   -0.37872E-06  2740   0.255E-03    0.144E-03
RMM:  14    -0.230410611531E+04   -0.95037E-05   -0.37089E-06  2498   0.195E-03
  14 F= -.23241138E+04 E0= -.23241138E+04  d E =-.391033E-01  mag=     2.0000
       N       E                     dE             d eps       ncg     rms          rms(c)
DAV:   1    -0.230408602205E+04    0.20084E-01   -0.39635E+00  4400   0.191E+00    0.586E-01
RMM:   2    -0.230412054797E+04   -0.34526E-01   -0.37396E-01  6040   0.349E-01    0.311E-01
RMM:   3    -0.230412268973E+04   -0.21418E-02   -0.36261E-02  5208   0.122E-01    0.218E-01
RMM:   4    -0.230412246222E+04    0.22751E-03   -0.50692E-03  5070   0.317E-02    0.138E-01
RMM:   5    -0.230412218097E+04    0.28125E-03   -0.82103E-04  4690   0.192E-02    0.660E-02
RMM:   6    -0.230412213854E+04    0.42433E-04   -0.22023E-04  4301   0.122E-02    0.340E-02
RMM:   7    -0.230412213197E+04    0.65652E-05   -0.52771E-05  3063   0.711E-03
  15 F= -.23241291E+04 E0= -.23241291E+04  d E =-.543784E-01  mag=     2.0000
       N       E                     dE             d eps       ncg     rms          rms(c)
DAV:   1    -0.230391434857E+04    0.20779E+00   -0.30151E+01  4368   0.548E+00    0.159E+00
RMM:   2    -0.230416285309E+04   -0.24850E+00   -0.26819E+00  5812   0.932E-01    0.772E-01
RMM:   3    -0.230417753446E+04   -0.14681E-01   -0.26347E-01  5039   0.389E-01    0.523E-01
RMM:   4    -0.230417595158E+04    0.15829E-02   -0.32057E-02  5113   0.865E-02    0.333E-01
RMM:   5    -0.230417375283E+04    0.21987E-02   -0.60379E-03  4910   0.605E-02    0.146E-01
RMM:   6    -0.230417356778E+04    0.18506E-03   -0.14376E-03  4960   0.337E-02    0.799E-02
RMM:   7    -0.230417348572E+04    0.82052E-04   -0.26903E-04  4258   0.175E-02    0.497E-02
RMM:   8    -0.230417343313E+04    0.52592E-04   -0.13910E-04  3977   0.915E-03    0.309E-02
RMM:   9    -0.230417344281E+04   -0.96803E-05   -0.31104E-05  2944   0.593E-03
  16 F= -.23241820E+04 E0= -.23241820E+04  d E =-.528365E-01  mag=     2.0000
       N       E                     dE             d eps       ncg     rms          rms(c)
DAV:   1    -0.230417064220E+04    0.27909E-02   -0.50848E-01  4752   0.709E-01    0.207E-01
RMM:   2    -0.230417477760E+04   -0.41354E-02   -0.44183E-02  5862   0.120E-01    0.102E-01
RMM:   3    -0.230417501883E+04   -0.24123E-03   -0.40757E-03  4932   0.504E-02    0.670E-02
RMM:   4    -0.230417500242E+04    0.16410E-04   -0.57601E-04  4151   0.121E-02    0.450E-02
RMM:   5    -0.230417498586E+04    0.16566E-04   -0.90947E-05  3362   0.838E-03    0.257E-02
RMM:   6    -0.230417498687E+04   -0.10139E-05   -0.23859E-05  2833   0.537E-03
  17 F= -.23241833E+04 E0= -.23241833E+04  d E =-.541893E-01  mag=     2.0000
       N       E                     dE             d eps       ncg     rms          rms(c)
DAV:   1    -0.230409311771E+04    0.81868E-01   -0.14224E+01  4376   0.372E+00    0.105E+00
RMM:   2    -0.230421117374E+04   -0.11806E+00   -0.12581E+00  5581   0.618E-01    0.506E-01
RMM:   3    -0.230421809510E+04   -0.69214E-02   -0.11869E-01  4934   0.277E-01    0.332E-01
RMM:   4    -0.230421747172E+04    0.62338E-03   -0.15064E-02  4977   0.588E-02    0.215E-01
RMM:   5    -0.230421662891E+04    0.84280E-03   -0.24460E-03  4953   0.407E-02    0.936E-02
RMM:   6    -0.230421661702E+04    0.11898E-04   -0.61091E-04  4660   0.208E-02    0.586E-02
RMM:   7    -0.230421659415E+04    0.22866E-04   -0.10830E-04  3649   0.131E-02    0.401E-02
RMM:   8    -0.230421656638E+04    0.27770E-04   -0.63202E-05  3184   0.556E-03    0.214E-02
RMM:   9    -0.230421657172E+04   -0.53433E-05   -0.14026E-05  2800   0.407E-03
  18 F= -.23242255E+04 E0= -.23242255E+04  d E =-.422215E-01  mag=     2.0000
       N       E                     dE             d eps       ncg     rms          rms(c)
DAV:   1    -0.230418669388E+04    0.29873E-01   -0.40993E+00  4448   0.200E+00    0.566E-01
RMM:   2    -0.230422074780E+04   -0.34054E-01   -0.36241E-01  5455   0.329E-01    0.273E-01
RMM:   3    -0.230422237557E+04   -0.16278E-02   -0.29688E-02  4783   0.156E-01    0.173E-01
RMM:   4    -0.230422215050E+04    0.22507E-03   -0.42529E-03  4830   0.325E-02    0.109E-01
RMM:   5    -0.230422195466E+04    0.19585E-03   -0.70723E-04  4760   0.233E-02    0.474E-02
RMM:   6    -0.230422194781E+04    0.68459E-05   -0.12412E-04  4103   0.102E-02    0.305E-02
RMM:   7    -0.230422193514E+04    0.12670E-04   -0.36716E-05  2928   0.712E-03    0.144E-02
RMM:   8    -0.230422193657E+04   -0.14284E-05   -0.14131E-05  2804   0.337E-03
  19 F= -.23242312E+04 E0= -.23242312E+04  d E =-.479041E-01  mag=     2.0000
       N       E                     dE             d eps       ncg     rms          rms(c)
DAV:   1    -0.230409688685E+04    0.12505E+00   -0.14276E+01  4376   0.364E+00    0.109E+00
RMM:   2    -0.230424630051E+04   -0.14941E+00   -0.15767E+00  5687   0.637E-01    0.525E-01
RMM:   3    -0.230425352157E+04   -0.72211E-02   -0.11677E-01  5062   0.252E-01    0.342E-01
RMM:   4    -0.230425265708E+04    0.86449E-03   -0.16697E-02  4828   0.588E-02    0.228E-01
RMM:   5    -0.230425178146E+04    0.87562E-03   -0.30445E-03  5093   0.419E-02    0.983E-02
RMM:   6    -0.230425185164E+04   -0.70180E-04   -0.59449E-04  4717   0.194E-02    0.822E-02
RMM:   7    -0.230425185657E+04   -0.49349E-05   -0.99203E-05  3435   0.117E-02
  20 F= -.23242614E+04 E0= -.23242614E+04  d E =-.301801E-01  mag=     2.0000
       N       E                     dE             d eps       ncg     rms          rms(c)
DAV:   1    -0.230424491307E+04    0.69386E-02   -0.73060E-01  4784   0.823E-01    0.254E-01
RMM:   2    -0.230425268474E+04   -0.77717E-02   -0.81642E-02  5512   0.142E-01    0.130E-01
RMM:   3    -0.230425294443E+04   -0.25969E-03   -0.47552E-03  4749   0.667E-02    0.819E-02
RMM:   4    -0.230425286053E+04    0.83897E-04   -0.73105E-04  4252   0.147E-02    0.464E-02
RMM:   5    -0.230425284962E+04    0.10914E-04   -0.11395E-04  3766   0.114E-02    0.308E-02
RMM:   6    -0.230425284997E+04   -0.34682E-06   -0.20024E-05  2816   0.444E-03
  21 F= -.23242624E+04 E0= -.23242624E+04  d E =-.312185E-01  mag=     2.0000
       N       E                     dE             d eps       ncg     rms          rms(c)
DAV:   1    -0.230409614689E+04    0.15670E+00   -0.13886E+01  4376   0.339E+00    0.100E+00
RMM:   2    -0.230427608012E+04   -0.17993E+00   -0.18745E+00  5955   0.617E-01    0.537E-01
RMM:   3    -0.230428650925E+04   -0.10429E-01   -0.13240E-01  5344   0.206E-01    0.372E-01
RMM:   4    -0.230428610314E+04    0.40612E-03   -0.18417E-02  4897   0.488E-02    0.267E-01
RMM:   5    -0.230428490879E+04    0.11943E-02   -0.39123E-03  5084   0.352E-02    0.124E-01
RMM:   6    -0.230428502075E+04   -0.11196E-03   -0.84400E-04  4802   0.206E-02    0.111E-01
RMM:   7    -0.230428506669E+04   -0.45938E-04   -0.13076E-04  3185   0.858E-03    0.958E-02
RMM:   8    -0.230428499557E+04    0.71127E-04   -0.19682E-04  3057   0.618E-03    0.309E-02
RMM:   9    -0.230428499723E+04   -0.16668E-05   -0.44355E-05  2830   0.454E-03
  22 F= -.23242952E+04 E0= -.23242952E+04  d E =-.327436E-01  mag=     2.0000
       N       E                     dE             d eps       ncg     rms          rms(c)
DAV:   1    -0.230412480492E+04    0.16019E+00   -0.12523E+01  4368   0.322E+00    0.961E-01
RMM:   2    -0.230428651698E+04   -0.16171E+00   -0.16845E+00  5894   0.580E-01    0.511E-01
RMM:   3    -0.230429584060E+04   -0.93236E-02   -0.11730E-01  5242   0.202E-01    0.354E-01
RMM:   4    -0.230429549598E+04    0.34462E-03   -0.16567E-02  4920   0.463E-02    0.259E-01
RMM:   5    -0.230429435953E+04    0.11365E-02   -0.35219E-03  5004   0.335E-02    0.121E-01
RMM:   6    -0.230429442165E+04   -0.62114E-04   -0.91524E-04  4766   0.201E-02    0.110E-01
RMM:   7    -0.230429450455E+04   -0.82908E-04   -0.12367E-04  3204   0.902E-03    0.101E-01
RMM:   8    -0.230429444606E+04    0.58493E-04   -0.19763E-04  3032   0.609E-03    0.372E-02
RMM:   9    -0.230429444216E+04    0.38997E-05   -0.73241E-05  2858   0.480E-03
  23 F= -.23243050E+04 E0= -.23243050E+04  d E =-.425618E-01  mag=     2.0000
       N       E                     dE             d eps       ncg     rms          rms(c)
DAV:   1    -0.230426460326E+04    0.29843E-01   -0.31506E+00  4416   0.155E+00    0.495E-01
RMM:   2    -0.230430861386E+04   -0.44011E-01   -0.45706E-01  5667   0.275E-01    0.270E-01
RMM:   3    -0.230431111839E+04   -0.25045E-02   -0.29859E-02  4918   0.129E-01    0.179E-01
RMM:   4    -0.230431096737E+04    0.15102E-03   -0.32744E-03  4689   0.234E-02    0.131E-01
RMM:   5    -0.230431069946E+04    0.26791E-03   -0.83835E-04  4601   0.170E-02    0.584E-02
RMM:   6    -0.230431072385E+04   -0.24389E-04   -0.16827E-04  3738   0.950E-03    0.554E-02
RMM:   7    -0.230431074848E+04   -0.24630E-04   -0.29826E-05  2808   0.538E-03    0.513E-02
RMM:   8    -0.230431073586E+04    0.12622E-04   -0.57944E-05  2816   0.341E-03    0.189E-02
RMM:   9    -0.230431073632E+04   -0.46271E-06   -0.22167E-05  2802   0.263E-03
  24 F= -.23243215E+04 E0= -.23243215E+04  d E =-.165598E-01  mag=     2.0000
       N       E                     dE             d eps       ncg     rms          rms(c)
DAV:   1    -0.230405730707E+04    0.25343E+00   -0.17944E+01  4360   0.370E+00    0.118E+00
RMM:   2    -0.230431322892E+04   -0.25592E+00   -0.26648E+00  5973   0.679E-01    0.631E-01
RMM:   3    -0.230432756659E+04   -0.14338E-01   -0.16913E-01  5378   0.210E-01    0.437E-01
RMM:   4    -0.230432812384E+04   -0.55725E-03   -0.25471E-02  4874   0.516E-02    0.370E-01
RMM:   5    -0.230432697093E+04    0.11529E-02   -0.35115E-03  4944   0.309E-02    0.261E-01
RMM:   6    -0.230432578190E+04    0.11890E-02   -0.43067E-03  4663   0.266E-02    0.124E-01
RMM:   7    -0.230432627858E+04   -0.49668E-03   -0.48712E-04  4212   0.162E-02    0.171E-01
RMM:   8    -0.230432625308E+04    0.25501E-04   -0.56638E-04  3741   0.100E-02    0.772E-02
RMM:   9    -0.230432624005E+04    0.13036E-04   -0.33047E-04  3155   0.835E-03    0.213E-02
RMM:  10    -0.230432624288E+04   -0.28384E-05   -0.49713E-05  2824   0.428E-03
  25 F= -.23243375E+04 E0= -.23243375E+04  d E =-.324755E-01  mag=     2.0000
       N       E                     dE             d eps       ncg     rms          rms(c)
DAV:   1    -0.230428188814E+04    0.44352E-01   -0.36487E+00  4384   0.158E+00    0.581E-01
RMM:   2    -0.230434038253E+04   -0.58494E-01   -0.60567E-01  5815   0.298E-01    0.316E-01
RMM:   3    -0.230434463550E+04   -0.42530E-02   -0.50410E-02  5115   0.138E-01    0.210E-01
RMM:   4    -0.230434464927E+04   -0.13770E-04   -0.65247E-03  4943   0.256E-02    0.158E-01
RMM:   5    -0.230434423530E+04    0.41397E-03   -0.10632E-03  4649   0.175E-02    0.777E-02
RMM:   6    -0.230434420784E+04    0.27463E-04   -0.38003E-04  4130   0.116E-02    0.666E-02
RMM:   7    -0.230434426664E+04   -0.58808E-04   -0.46116E-05  2827   0.658E-03    0.690E-02
RMM:   8    -0.230434425977E+04    0.68718E-05   -0.47604E-05  2813   0.337E-03
  26 F= -.23243556E+04 E0= -.23243556E+04  d E =-.180917E-01  mag=     2.0000
       N       E                     dE             d eps       ncg     rms          rms(c)
DAV:   1    -0.230396670129E+04    0.37757E+00   -0.23233E+01  4368   0.398E+00    0.147E+00
RMM:   2    -0.230435151965E+04   -0.38482E+00   -0.39968E+00  6097   0.788E-01    0.764E-01
RMM:   3    -0.230437250696E+04   -0.20987E-01   -0.24508E-01  5520   0.224E-01    0.517E-01
RMM:   4    -0.230437295620E+04   -0.44923E-03   -0.37952E-02  5105   0.597E-02    0.448E-01
RMM:   5    -0.230437198831E+04    0.96788E-03   -0.35866E-03  5100   0.309E-02    0.370E-01
RMM:   6    -0.230436986315E+04    0.21252E-02   -0.54111E-03  4569   0.279E-02    0.168E-01
RMM:   7    -0.230437007301E+04   -0.20986E-03   -0.19439E-03  4835   0.241E-02    0.241E-01
RMM:   8    -0.230437024532E+04   -0.17231E-03   -0.83677E-04  4098   0.140E-02    0.140E-01
RMM:   9    -0.230437021043E+04    0.34893E-04   -0.68140E-04  3682   0.116E-02    0.406E-02
RMM:  10    -0.230437022250E+04   -0.12079E-04   -0.23652E-04  2986   0.639E-03    0.151E-02
RMM:  11    -0.230437022568E+04   -0.31793E-05   -0.28573E-05  2820   0.426E-03
  27 F= -.23243814E+04 E0= -.23243814E+04  d E =-.439399E-01  mag=     2.0000
       N       E                     dE             d eps       ncg     rms          rms(c)
DAV:   1    -0.230431250248E+04    0.57720E-01   -0.35394E+00  4416   0.155E+00    0.580E-01
RMM:   2    -0.230436909000E+04   -0.56588E-01   -0.58627E-01  5777   0.291E-01    0.310E-01
RMM:   3    -0.230437317286E+04   -0.40829E-02   -0.48119E-02  5073   0.137E-01    0.202E-01
RMM:   4    -0.230437312821E+04    0.44651E-04   -0.56926E-03  4902   0.251E-02    0.155E-01
RMM:   5    -0.230437278519E+04    0.34302E-03   -0.92628E-04  4570   0.170E-02    0.878E-02
RMM:   6    -0.230437266410E+04    0.12109E-03   -0.45134E-04  4115   0.117E-02    0.491E-02
RMM:   7    -0.230437275813E+04   -0.94035E-04   -0.51455E-05  2834   0.697E-03    0.686E-02
RMM:   8    -0.230437276146E+04   -0.33245E-05   -0.39673E-05  2806   0.348E-03
  28 F= -.23243838E+04 E0= -.23243838E+04  d E =-.463051E-01  mag=     2.0000
       N       E                     dE             d eps       ncg     rms          rms(c)
DAV:   1    -0.230427954225E+04    0.93216E-01   -0.63880E+00  4368   0.199E+00    0.829E-01
RMM:   2    -0.230439028370E+04   -0.11074E+00   -0.11496E+00  6000   0.396E-01    0.425E-01
RMM:   3    -0.230439772531E+04   -0.74416E-02   -0.85656E-02  5260   0.147E-01    0.272E-01
RMM:   4    -0.230439766418E+04    0.61136E-04   -0.12034E-02  5183   0.329E-02    0.209E-01
RMM:   5    -0.230439715457E+04    0.50960E-03   -0.14109E-03  4922   0.198E-02    0.138E-01
RMM:   6    -0.230439680552E+04    0.34905E-03   -0.10738E-03  4414   0.148E-02    0.563E-02
RMM:   7    -0.230439694928E+04   -0.14376E-03   -0.13605E-04  3304   0.926E-03    0.957E-02
RMM:   8    -0.230439697196E+04   -0.22684E-04   -0.75596E-05  2838   0.512E-03    0.700E-02
RMM:   9    -0.230439696640E+04    0.55629E-05   -0.18895E-04  3019   0.552E-03    0.198E-02
RMM:  10    -0.230439696579E+04    0.60913E-06   -0.48043E-05  2813   0.389E-03
  29 F= -.23244077E+04 E0= -.23244077E+04  d E =-.239452E-01  mag=     2.0000
       N       E                     dE             d eps       ncg     rms          rms(c)
DAV:   1    -0.230403526168E+04    0.36170E+00   -0.20537E+01  4372   0.357E+00    0.148E+00
RMM:   2    -0.230439974435E+04   -0.36448E+00   -0.37782E+00  6102   0.730E-01    0.770E-01
RMM:   3    -0.230441933489E+04   -0.19591E-01   -0.23057E-01  5483   0.213E-01    0.476E-01
RMM:   4    -0.230441952890E+04   -0.19401E-03   -0.36131E-02  5225   0.576E-02    0.396E-01
RMM:   5    -0.230441908930E+04    0.43961E-03   -0.32801E-03  5160   0.295E-02    0.341E-01
RMM:   6    -0.230441813714E+04    0.95216E-03   -0.23617E-03  4405   0.192E-02    0.230E-01
RMM:   7    -0.230441726513E+04    0.87201E-03   -0.44376E-03  4659   0.267E-02    0.219E-01
RMM:   8    -0.230441757974E+04   -0.31461E-03   -0.10072E-03  4306   0.162E-02    0.140E-01
RMM:   9    -0.230441755596E+04    0.23786E-04   -0.64811E-04  3739   0.109E-02    0.449E-02
RMM:  10    -0.230441755804E+04   -0.20870E-05   -0.23917E-04  2959   0.666E-03    0.143E-02
RMM:  11    -0.230441755599E+04    0.20482E-05   -0.51061E-05  2846   0.464E-03
  30 F= -.23244275E+04 E0= -.23244275E+04  d E =-.437453E-01  mag=     2.0000
       N       E                     dE             d eps       ncg     rms          rms(c)
DAV:   1    -0.230424396741E+04    0.17359E+00   -0.11750E+01  4368   0.270E+00    0.107E+00
RMM:   2    -0.230444072292E+04   -0.19676E+00   -0.20372E+00  6057   0.526E-01    0.578E-01
RMM:   3    -0.230445257826E+04   -0.11855E-01   -0.13659E-01  5352   0.168E-01    0.355E-01
RMM:   4    -0.230445256583E+04    0.12435E-04   -0.20076E-02  5154   0.419E-02    0.281E-01
RMM:   5    -0.230445231154E+04    0.25428E-03   -0.20215E-03  4950   0.225E-02    0.240E-01
RMM:   6    -0.230445191614E+04    0.39540E-03   -0.10519E-03  4090   0.141E-02    0.170E-01
RMM:   7    -0.230445147061E+04    0.44553E-03   -0.26433E-03  4390   0.195E-02    0.152E-01
RMM:   8    -0.230445163752E+04   -0.16692E-03   -0.51883E-04  3827   0.122E-02    0.997E-02
RMM:   9    -0.230445162426E+04    0.13262E-04   -0.29201E-04  3301   0.787E-03    0.342E-02
RMM:  10    -0.230445162499E+04   -0.72319E-06   -0.85704E-05  2842   0.512E-03
  31 F= -.23244609E+04 E0= -.23244609E+04  d E =-.333921E-01  mag=     2.0000
       N       E                     dE             d eps       ncg     rms          rms(c)
DAV:   1    -0.230407734053E+04    0.37428E+00   -0.22359E+01  4368   0.372E+00    0.149E+00
RMM:   2    -0.230445520959E+04   -0.37787E+00   -0.39079E+00  6108   0.741E-01    0.823E-01
RMM:   3    -0.230447562628E+04   -0.20417E-01   -0.24018E-01  5476   0.213E-01    0.493E-01
RMM:   4    -0.230447575217E+04   -0.12589E-03   -0.37116E-02  5172   0.581E-02    0.406E-01
RMM:   5    -0.230447584408E+04   -0.91910E-04   -0.33954E-03  5133   0.295E-02    0.370E-01
RMM:   6    -0.230447536520E+04    0.47889E-03   -0.18355E-03  4249   0.168E-02    0.285E-01
RMM:   7    -0.230447398087E+04    0.13843E-02   -0.85411E-03  4477   0.321E-02    0.222E-01
RMM:   8    -0.230447434411E+04   -0.36325E-03   -0.14564E-03  4388   0.205E-02    0.140E-01
RMM:   9    -0.230447430645E+04    0.37663E-04   -0.64570E-04  3830   0.111E-02    0.448E-02
RMM:  10    -0.230447430587E+04    0.57562E-06   -0.15104E-04  2918   0.696E-03    0.139E-02
RMM:  11    -0.230447431403E+04   -0.81576E-05   -0.47588E-05  2815   0.404E-03
  32 F= -.23244824E+04 E0= -.23244824E+04  d E =-.548794E-01  mag=     2.0000
       N       E                     dE             d eps       ncg     rms          rms(c)
DAV:   1    -0.230432408271E+04    0.15022E+00   -0.11372E+01  4368   0.271E+00    0.100E+00
RMM:   2    -0.230449061084E+04   -0.16653E+00   -0.17317E+00  5970   0.498E-01    0.566E-01
RMM:   3    -0.230450123043E+04   -0.10620E-01   -0.12672E-01  5315   0.167E-01    0.349E-01
RMM:   4    -0.230450116927E+04    0.61162E-04   -0.17723E-02  5107   0.403E-02    0.250E-01
RMM:   5    -0.230450068976E+04    0.47951E-03   -0.21505E-03  4882   0.234E-02    0.187E-01
RMM:   6    -0.230450042376E+04    0.26600E-03   -0.76886E-04  4104   0.147E-02    0.130E-01
RMM:   7    -0.230450016206E+04    0.26170E-03   -0.11804E-03  4138   0.145E-02    0.110E-01
RMM:   8    -0.230450030676E+04   -0.14470E-03   -0.26072E-04  3280   0.922E-03    0.853E-02
RMM:   9    -0.230450030868E+04   -0.19246E-05   -0.23582E-04  3127   0.701E-03    0.299E-02
RMM:  10    -0.230450031157E+04   -0.28911E-05   -0.72542E-05  2813   0.469E-03
  33 F= -.23245072E+04 E0= -.23245072E+04  d E =-.248258E-01  mag=     2.0000
       N       E                     dE             d eps       ncg     rms          rms(c)
DAV:   1    -0.230447150418E+04    0.28804E-01   -0.21048E+00  4432   0.116E+00    0.431E-01
RMM:   2    -0.230450163603E+04   -0.30132E-01   -0.31355E-01  5700   0.208E-01    0.238E-01
RMM:   3    -0.230450376414E+04   -0.21281E-02   -0.25558E-02  4907   0.955E-02    0.143E-01
RMM:   4    -0.230450373057E+04    0.33571E-04   -0.30740E-03  4528   0.180E-02    0.974E-02
RMM:   5    -0.230450358729E+04    0.14328E-03   -0.48958E-04  4252   0.127E-02    0.445E-02
RMM:   6    -0.230450357087E+04    0.16416E-04   -0.10197E-04  3111   0.753E-03    0.188E-02
RMM:   7    -0.230450357997E+04   -0.90980E-05   -0.16702E-05  2811   0.478E-03
  34 F= -.23245100E+04 E0= -.23245100E+04  d E =-.275619E-01  mag=     2.0000
       N       E                     dE             d eps       ncg     rms          rms(c)
DAV:   1    -0.230435159068E+04    0.15198E+00   -0.12545E+01  4368   0.296E+00    0.104E+00
RMM:   2    -0.230451731177E+04   -0.16572E+00   -0.17221E+00  5776   0.519E-01    0.581E-01
RMM:   3    -0.230452715232E+04   -0.98406E-02   -0.12372E-01  5103   0.202E-01    0.352E-01
RMM:   4    -0.230452684024E+04    0.31209E-03   -0.15929E-02  5084   0.442E-02    0.253E-01
RMM:   5    -0.230452665238E+04    0.18786E-03   -0.20575E-03  4986   0.263E-02    0.214E-01
RMM:   6    -0.230452647561E+04    0.17677E-03   -0.75546E-04  4003   0.128E-02    0.167E-01
RMM:   7    -0.230452595754E+04    0.51807E-03   -0.24294E-03  4297   0.191E-02    0.126E-01
RMM:   8    -0.230452615211E+04   -0.19457E-03   -0.49042E-04  4041   0.121E-02    0.887E-02
RMM:   9    -0.230452614386E+04    0.82492E-05   -0.27747E-04  3212   0.787E-03    0.282E-02
RMM:  10    -0.230452614267E+04    0.11918E-05   -0.61364E-05  2822   0.476E-03
  35 F= -.23245315E+04 E0= -.23245315E+04  d E =-.215059E-01  mag=     2.0000
       N       E                     dE             d eps       ncg     rms          rms(c)
DAV:   1    -0.230432365258E+04    0.20249E+00   -0.15171E+01  4368   0.326E+00    0.115E+00
RMM:   2    -0.230452498424E+04   -0.20133E+00   -0.20897E+00  5860   0.572E-01    0.633E-01
RMM:   3    -0.230453583316E+04   -0.10849E-01   -0.13592E-01  5182   0.199E-01    0.376E-01
RMM:   4    -0.230453550269E+04    0.33047E-03   -0.18574E-02  4917   0.476E-02    0.279E-01
RMM:   5    -0.230453534406E+04    0.15863E-03   -0.23464E-03  4986   0.285E-02    0.240E-01
RMM:   6    -0.230453505426E+04    0.28980E-03   -0.91881E-04  4088   0.136E-02    0.180E-01
RMM:   7    -0.230453447196E+04    0.58230E-03   -0.29621E-03  4443   0.208E-02    0.145E-01
RMM:   8    -0.230453468144E+04   -0.20947E-03   -0.67703E-04  4139   0.135E-02    0.919E-02
RMM:   9    -0.230453466280E+04    0.18639E-04   -0.27815E-04  3215   0.801E-03    0.300E-02
RMM:  10    -0.230453466221E+04    0.58903E-06   -0.78167E-05  2831   0.496E-03
  36 F= -.23245387E+04 E0= -.23245387E+04  d E =-.287925E-01  mag=     2.0000
       N       E                     dE             d eps       ncg     rms          rms(c)
DAV:   1    -0.230450470096E+04    0.29962E-01   -0.39921E+00  4384   0.173E+00    0.609E-01
RMM:   2    -0.230454499779E+04   -0.40297E-01   -0.42509E-01  5451   0.295E-01    0.312E-01
RMM:   3    -0.230454718761E+04   -0.21898E-02   -0.34245E-02  4709   0.137E-01    0.187E-01
RMM:   4    -0.230454695845E+04    0.22915E-03   -0.44242E-03  4630   0.295E-02    0.121E-01
RMM:   5    -0.230454682130E+04    0.13715E-03   -0.74703E-04  4622   0.222E-02    0.824E-02
RMM:   6    -0.230454674783E+04    0.73470E-04   -0.20016E-04  3881   0.869E-03    0.522E-02
RMM:   7    -0.230454671044E+04    0.37398E-04   -0.14566E-04  3284   0.870E-03    0.511E-02
RMM:   8    -0.230454673893E+04   -0.28493E-04   -0.54823E-05  2816   0.481E-03    0.359E-02
RMM:   9    -0.230454673746E+04    0.14704E-05   -0.40179E-05  2806   0.376E-03
  37 F= -.23245505E+04 E0= -.23245505E+04  d E =-.117688E-01  mag=     2.0000
       N       E                     dE             d eps       ncg     rms          rms(c)
DAV:   1    -0.230454183814E+04    0.49008E-02   -0.55756E-01  4560   0.647E-01    0.229E-01
RMM:   2    -0.230454760207E+04   -0.57639E-02   -0.60903E-02  5480   0.111E-01    0.115E-01
RMM:   3    -0.230454781543E+04   -0.21336E-03   -0.38207E-03  4663   0.470E-02    0.685E-02
RMM:   4    -0.230454775340E+04    0.62027E-04   -0.48550E-04  4091   0.115E-02    0.404E-02
RMM:   5    -0.230454773129E+04    0.22113E-04   -0.99101E-05  3306   0.906E-03    0.182E-02
RMM:   6    -0.230454772588E+04    0.54124E-05   -0.26779E-05  2825   0.501E-03
  38 F= -.23245514E+04 E0= -.23245514E+04  d E =-.126404E-01  mag=     2.0000
       N       E                     dE             d eps       ncg     rms          rms(c)
DAV:   1    -0.230453254096E+04    0.15190E-01   -0.33166E+00  4376   0.158E+00    0.494E-01
RMM:   2    -0.230455593137E+04   -0.23390E-01   -0.25328E-01  5453   0.253E-01    0.270E-01
RMM:   3    -0.230455689633E+04   -0.96496E-03   -0.21240E-02  4818   0.111E-01    0.169E-01
RMM:   4    -0.230455666701E+04    0.22932E-03   -0.31768E-03  4637   0.258E-02    0.967E-02
RMM:   5    -0.230455654357E+04    0.12344E-03   -0.52037E-04  4559   0.189E-02    0.322E-02
RMM:   6    -0.230455654401E+04   -0.44158E-06   -0.79752E-05  3500   0.742E-03
  39 F= -.23245598E+04 E0= -.23245598E+04  d E =-.839907E-02  mag=     2.0000
       N       E                     dE             d eps       ncg     rms          rms(c)
DAV:   1    -0.230455649719E+04    0.46379E-04   -0.92093E-03  5320   0.837E-02    0.286E-02
RMM:   2    -0.230455656885E+04   -0.71663E-04   -0.76021E-04  5180   0.159E-02    0.170E-02
RMM:   3    -0.230455657375E+04   -0.48981E-05   -0.56720E-05  2816   0.607E-03
  40 F= -.23245598E+04 E0= -.23245598E+04  d E =-.840674E-02  mag=     2.0000
       N       E                     dE             d eps       ncg     rms          rms(c)
DAV:   1    -0.230455159460E+04    0.49743E-02   -0.32944E+00  4376   0.166E+00    0.477E-01
RMM:   2    -0.230456759562E+04   -0.16001E-01   -0.17410E-01  5220   0.256E-01    0.240E-01
RMM:   3    -0.230456780754E+04   -0.21192E-03   -0.14065E-02  4708   0.106E-01    0.147E-01
RMM:   4    -0.230456758750E+04    0.22003E-03   -0.23230E-03  4493   0.278E-02    0.811E-02
RMM:   5    -0.230456754538E+04    0.42124E-04   -0.38326E-04  4385   0.203E-02    0.385E-02
RMM:   6    -0.230456753071E+04    0.14666E-04   -0.72924E-05  3365   0.648E-03    0.225E-02
RMM:   7    -0.230456752739E+04    0.33219E-05   -0.23317E-05  2806   0.541E-03
  41 F= -.23245703E+04 E0= -.23245703E+04  d E =-.105441E-01  mag=     2.0000
       N       E                     dE             d eps       ncg     rms          rms(c)
DAV:   1    -0.230455855363E+04    0.89771E-02   -0.25403E+00  4376   0.146E+00    0.419E-01
RMM:   2    -0.230457089308E+04   -0.12339E-01   -0.13399E-01  5218   0.225E-01    0.211E-01
RMM:   3    -0.230457107439E+04   -0.18131E-03   -0.10933E-02  4720   0.943E-02    0.129E-01
RMM:   4    -0.230457089531E+04    0.17908E-03   -0.17686E-03  4465   0.242E-02    0.697E-02
RMM:   5    -0.230457086663E+04    0.28687E-04   -0.28629E-04  4270   0.178E-02    0.363E-02
RMM:   6    -0.230457086167E+04    0.49564E-05   -0.50028E-05  3075   0.560E-03
  42 F= -.23245733E+04 E0= -.23245733E+04  d E =-.135126E-01  mag=     2.0000
       N       E                     dE             d eps       ncg     rms          rms(c)
DAV:   1    -0.230457134986E+04   -0.48323E-03   -0.26128E+00  4368   0.147E+00    0.401E-01
RMM:   2    -0.230458012748E+04   -0.87776E-02   -0.98759E-02  5203   0.225E-01    0.207E-01
RMM:   3    -0.230457971202E+04    0.41545E-03   -0.66034E-03  4870   0.791E-02    0.126E-01
RMM:   4    -0.230457948343E+04    0.22859E-03   -0.14611E-03  4513   0.257E-02    0.618E-02
RMM:   5    -0.230457948557E+04   -0.21369E-05   -0.20293E-04  4234   0.170E-02    0.374E-02
RMM:   6    -0.230457948314E+04    0.24323E-05   -0.39162E-05  2883   0.461E-03
  43 F= -.23245817E+04 E0= -.23245817E+04  d E =-.837407E-02  mag=     2.0000
       N       E                     dE             d eps       ncg     rms          rms(c)
DAV:   1    -0.230457813602E+04    0.13496E-02   -0.88744E-01  4416   0.859E-01    0.235E-01
RMM:   2    -0.230458109673E+04   -0.29607E-02   -0.33460E-02  5111   0.131E-01    0.122E-01
RMM:   3    -0.230458095073E+04    0.14600E-03   -0.22535E-03  4715   0.509E-02    0.755E-02
RMM:   4    -0.230458086176E+04    0.88971E-04   -0.51510E-04  4381   0.159E-02    0.351E-02
RMM:   5    -0.230458085767E+04    0.40943E-05   -0.70378E-05  3353   0.106E-02
  44 F= -.23245829E+04 E0= -.23245829E+04  d E =-.960194E-02  mag=     2.0000
       N       E                     dE             d eps       ncg     rms          rms(c)
DAV:   1    -0.230458234870E+04   -0.14869E-02   -0.16468E+00  4376   0.116E+00    0.294E-01
RMM:   2    -0.230458738281E+04   -0.50341E-02   -0.57003E-02  5213   0.173E-01    0.164E-01
RMM:   3    -0.230458710721E+04    0.27560E-03   -0.37944E-03  4637   0.654E-02    0.102E-01
RMM:   4    -0.230458697639E+04    0.13081E-03   -0.97111E-04  4497   0.208E-02    0.461E-02
RMM:   5    -0.230458698620E+04   -0.98099E-05   -0.11314E-04  3501   0.128E-02    0.257E-02
RMM:   6    -0.230458698880E+04   -0.25973E-05   -0.23780E-05  2823   0.373E-03
  45 F= -.23245888E+04 E0= -.23245888E+04  d E =-.584674E-02  mag=     2.0000
       N       E                     dE             d eps       ncg     rms          rms(c)
DAV:   1    -0.230458639328E+04    0.59292E-03   -0.46434E-01  4480   0.613E-01    0.157E-01
RMM:   2    -0.230458781449E+04   -0.14212E-02   -0.16033E-02  5327   0.921E-02    0.879E-02
RMM:   3    -0.230458773651E+04    0.77982E-04   -0.10394E-03  4598   0.353E-02    0.547E-02
RMM:   4    -0.230458770542E+04    0.31092E-04   -0.25146E-04  4108   0.113E-02    0.272E-02
RMM:   5    -0.230458770492E+04    0.50385E-06   -0.33548E-05  2830   0.723E-03
  46 F= -.23245893E+04 E0= -.23245893E+04  d E =-.641219E-02  mag=     2.0000
       N       E                     dE             d eps       ncg     rms          rms(c)
DAV:   1    -0.230459014311E+04   -0.24377E-02   -0.15114E+00  4368   0.113E+00    0.291E-01
RMM:   2    -0.230459392490E+04   -0.37818E-02   -0.44306E-02  5191   0.170E-01    0.150E-01
RMM:   3    -0.230459353655E+04    0.38836E-03   -0.24295E-03  4649   0.602E-02    0.912E-02
RMM:   4    -0.230459341240E+04    0.12414E-03   -0.73099E-04  4548   0.207E-02    0.397E-02
RMM:   5    -0.230459340888E+04    0.35203E-05   -0.87636E-05  3720   0.132E-02
  47 F= -.23245948E+04 E0= -.23245948E+04  d E =-.544186E-02  mag=     2.0000
       N       E                     dE             d eps       ncg     rms          rms(c)
DAV:   1    -0.230459087993E+04    0.25325E-02   -0.21587E+00  4368   0.135E+00    0.347E-01
RMM:   2    -0.230459631270E+04   -0.54328E-02   -0.63594E-02  5170   0.203E-01    0.181E-01
RMM:   3    -0.230459574625E+04    0.56645E-03   -0.34696E-03  4679   0.688E-02    0.110E-01
RMM:   4    -0.230459555838E+04    0.18787E-03   -0.10488E-03  4534   0.245E-02    0.480E-02
RMM:   5    -0.230459554840E+04    0.99787E-05   -0.13911E-04  4122   0.160E-02    0.213E-02
RMM:   6    -0.230459553746E+04    0.10946E-04   -0.37254E-05  3105   0.468E-03    0.114E-02
RMM:   7    -0.230459553942E+04   -0.19644E-05   -0.59261E-06  2800   0.362E-03
  48 F= -.23245966E+04 E0= -.23245966E+04  d E =-.725742E-02  mag=     2.0000
       N       E                     dE             d eps       ncg     rms          rms(c)
DAV:   1    -0.230459825585E+04   -0.27184E-02   -0.13012E+00  4376   0.103E+00    0.269E-01
RMM:   2    -0.230460104986E+04   -0.27940E-02   -0.33993E-02  5229   0.156E-01    0.142E-01
RMM:   3    -0.230460070051E+04    0.34935E-03   -0.20256E-03  4742   0.528E-02    0.852E-02
RMM:   4    -0.230460061806E+04    0.82452E-04   -0.61925E-04  4504   0.189E-02    0.418E-02
RMM:   5    -0.230460061592E+04    0.21355E-05   -0.74958E-05  3220   0.113E-02
  49 F= -.23246015E+04 E0= -.23246015E+04  d E =-.490965E-02  mag=     2.0000
       N       E                     dE             d eps       ncg     rms          rms(c)
DAV:   1    -0.230459864015E+04    0.19779E-02   -0.15658E+00  4368   0.113E+00    0.297E-01
RMM:   2    -0.230460202608E+04   -0.33859E-02   -0.41247E-02  5184   0.172E-01    0.159E-01
RMM:   3    -0.230460157722E+04    0.44886E-03   -0.23557E-03  4754   0.545E-02    0.942E-02
RMM:   4    -0.230460145806E+04    0.11916E-03   -0.78201E-04  4562   0.211E-02    0.384E-02
RMM:   5    -0.230460146212E+04   -0.40621E-05   -0.90131E-05  3479   0.124E-02
  50 F= -.23246022E+04 E0= -.23246022E+04  d E =-.557227E-02  mag=     2.0000
       N       E                     dE             d eps       ncg     rms          rms(c)
DAV:   1    -0.230460144559E+04    0.12464E-04   -0.16058E-01  4560   0.360E-01    0.944E-02
RMM:   2    -0.230460176106E+04   -0.31547E-03   -0.41086E-03  5288   0.547E-02    0.479E-02
RMM:   3    -0.230460171996E+04    0.41093E-04   -0.27213E-04  4258   0.205E-02    0.307E-02
RMM:   4    -0.230460171526E+04    0.47046E-05   -0.58913E-05  3152   0.633E-03
  51 F= -.23246025E+04 E0= -.23246025E+04  d E =-.588420E-02  mag=     2.0000
       N       E                     dE             d eps       ncg     rms          rms(c)
DAV:   1    -0.230460427113E+04   -0.25512E-02   -0.82692E-01  4368   0.812E-01    0.211E-01
RMM:   2    -0.230460615505E+04   -0.18839E-02   -0.23104E-02  5339   0.121E-01    0.113E-01
RMM:   3    -0.230460595875E+04    0.19630E-03   -0.14366E-03  4682   0.453E-02    0.686E-02
RMM:   4    -0.230460589778E+04    0.60966E-04   -0.46114E-04  4420   0.152E-02    0.292E-02
RMM:   5    -0.230460589680E+04    0.97998E-06   -0.47874E-05  2937   0.902E-03
  52 F= -.23246065E+04 E0= -.23246065E+04  d E =-.408086E-02  mag=     2.0000
       N       E                     dE             d eps       ncg     rms          rms(c)
DAV:   1    -0.230460575069E+04    0.14710E-03   -0.53803E-01  4376   0.655E-01    0.174E-01
RMM:   2    -0.230460700794E+04   -0.12572E-02   -0.15246E-02  5362   0.982E-02    0.954E-02
RMM:   3    -0.230460687618E+04    0.13176E-03   -0.87931E-04  4623   0.319E-02    0.568E-02
RMM:   4    -0.230460683881E+04    0.37363E-04   -0.30593E-04  4174   0.125E-02    0.222E-02
RMM:   5    -0.230460683968E+04   -0.86158E-06   -0.27059E-05  2839   0.760E-03
  53 F= -.23246074E+04 E0= -.23246074E+04  d E =-.494319E-02  mag=     2.0000
       N       E                     dE             d eps       ncg     rms          rms(c)
DAV:   1    -0.230460961054E+04   -0.27717E-02   -0.64066E-01  4368   0.739E-01    0.188E-01
RMM:   2    -0.230461093620E+04   -0.13257E-02   -0.16057E-02  5248   0.111E-01    0.990E-02
RMM:   3    -0.230461077958E+04    0.15662E-03   -0.87703E-04  4702   0.360E-02    0.595E-02
RMM:   4    -0.230461073760E+04    0.41976E-04   -0.28222E-04  4339   0.133E-02    0.230E-02
RMM:   5    -0.230461073851E+04   -0.91422E-06   -0.29673E-05  2858   0.845E-03
  54 F= -.23246113E+04 E0= -.23246113E+04  d E =-.390801E-02  mag=     2.0000
       N       E                     dE             d eps       ncg     rms          rms(c)
DAV:   1    -0.230460572020E+04    0.50174E-02   -0.57627E+00  4368   0.222E+00    0.563E-01
RMM:   2    -0.230461766745E+04   -0.11947E-01   -0.14543E-01  5224   0.333E-01    0.295E-01
RMM:   3    -0.230461621861E+04    0.14488E-02   -0.76260E-03  4713   0.106E-01    0.175E-01
RMM:   4    -0.230461584298E+04    0.37562E-03   -0.25778E-03  4577   0.391E-02    0.691E-02
RMM:   5    -0.230461583669E+04    0.62985E-05   -0.29677E-04  4569   0.239E-02    0.265E-02
RMM:   6    -0.230461582940E+04    0.72894E-05   -0.62773E-05  3507   0.627E-03
  55 F= -.23246164E+04 E0= -.23246164E+04  d E =-.903156E-02  mag=     2.0000
       N       E                     dE             d eps       ncg     rms          rms(c)
DAV:   1    -0.230461903370E+04   -0.31970E-02   -0.11202E+00  4416   0.985E-01    0.252E-01
RMM:   2    -0.230462143736E+04   -0.24037E-02   -0.29189E-02  5455   0.150E-01    0.132E-01
RMM:   3    -0.230462111867E+04    0.31869E-03   -0.15698E-03  4925   0.448E-02    0.779E-02
RMM:   4    -0.230462105637E+04    0.62301E-04   -0.46651E-04  4540   0.169E-02    0.367E-02
RMM:   5    -0.230462106119E+04   -0.48164E-05   -0.55505E-05  3048   0.965E-03
  56 F= -.23246216E+04 E0= -.23246216E+04  d E =-.511398E-02  mag=     2.0000
       N       E                     dE             d eps       ncg     rms          rms(c)
DAV:   1    -0.230461844861E+04    0.26078E-02   -0.31605E+00  4400   0.166E+00    0.423E-01
RMM:   2    -0.230462516195E+04   -0.67133E-02   -0.82084E-02  5293   0.251E-01    0.223E-01
RMM:   3    -0.230462425410E+04    0.90785E-03   -0.44402E-03  4755   0.786E-02    0.132E-01
RMM:   4    -0.230462402598E+04    0.22811E-03   -0.14451E-03  4595   0.293E-02    0.496E-02
RMM:   5    -0.230462402462E+04    0.13635E-05   -0.17848E-04  4178   0.173E-02    0.193E-02
RMM:   6    -0.230462401557E+04    0.90469E-05   -0.31804E-05  2984   0.480E-03
  57 F= -.23246243E+04 E0= -.23246243E+04  d E =-.787318E-02  mag=     2.0000
       N       E                     dE             d eps       ncg     rms          rms(c)
DAV:   1    -0.230462608744E+04   -0.20628E-02   -0.46044E-01  4592   0.635E-01    0.154E-01
RMM:   2    -0.230462723248E+04   -0.11450E-02   -0.13370E-02  5434   0.947E-02    0.848E-02
RMM:   3    -0.230462713176E+04    0.10072E-03   -0.75009E-04  4670   0.299E-02    0.512E-02
RMM:   4    -0.230462710360E+04    0.28164E-04   -0.22512E-04  4101   0.111E-02    0.209E-02
RMM:   5    -0.230462710468E+04   -0.10827E-05   -0.22109E-05  2834   0.679E-03
  58 F= -.23246273E+04 E0= -.23246273E+04  d E =-.299233E-02  mag=     2.0000
       N       E                     dE             d eps       ncg     rms          rms(c)
DAV:   1    -0.230462221554E+04    0.48881E-02   -0.41356E+00  4400   0.190E+00    0.462E-01
RMM:   2    -0.230463247642E+04   -0.10261E-01   -0.11999E-01  5419   0.282E-01    0.254E-01
RMM:   3    -0.230463163226E+04    0.84417E-03   -0.68214E-03  4684   0.934E-02    0.153E-01
RMM:   4    -0.230463137323E+04    0.25903E-03   -0.19500E-03  4550   0.321E-02    0.603E-02
RMM:   5    -0.230463139081E+04   -0.17582E-04   -0.20500E-04  4235   0.191E-02    0.230E-02
RMM:   6    -0.230463138952E+04    0.12953E-05   -0.33414E-05  2914   0.472E-03
  59 F= -.23246313E+04 E0= -.23246313E+04  d E =-.699261E-02  mag=     2.0000
       N       E                     dE             d eps       ncg     rms          rms(c)
DAV:   1    -0.230463427980E+04   -0.28890E-02   -0.22461E-01  4640   0.459E-01    0.149E-01
RMM:   2    -0.230463481039E+04   -0.53059E-03   -0.67766E-03  5289   0.725E-02    0.664E-02
RMM:   3    -0.230463472891E+04    0.81484E-04   -0.37973E-04  4575   0.262E-02    0.390E-02
RMM:   4    -0.230463471679E+04    0.12116E-04   -0.13873E-04  3986   0.973E-03    0.230E-02
RMM:   5    -0.230463471440E+04    0.23856E-05   -0.16909E-05  2811   0.653E-03
  60 F= -.23246346E+04 E0= -.23246346E+04  d E =-.334028E-02  mag=     2.0000
       N       E                     dE             d eps       ncg     rms          rms(c)
DAV:   1    -0.230463516707E+04   -0.45028E-03   -0.15778E+00  4368   0.122E+00    0.391E-01
RMM:   2    -0.230463877342E+04   -0.36063E-02   -0.47199E-02  5245   0.191E-01    0.174E-01
RMM:   3    -0.230463815524E+04    0.61818E-03   -0.27174E-03  4613   0.679E-02    0.995E-02
RMM:   4    -0.230463800450E+04    0.15074E-03   -0.11548E-03  4662   0.263E-02    0.409E-02
RMM:   5    -0.230463799952E+04    0.49822E-05   -0.97551E-05  4126   0.158E-02
  61 F= -.23246380E+04 E0= -.23246380E+04  d E =-.666607E-02  mag=     2.0000
       N       E                     dE             d eps       ncg     rms          rms(c)
DAV:   1    -0.230464027210E+04   -0.22676E-02   -0.30708E-01  4592   0.519E-01    0.138E-01
RMM:   2    -0.230464089973E+04   -0.62764E-03   -0.78805E-03  5069   0.786E-02    0.753E-02
RMM:   3    -0.230464080507E+04    0.94660E-04   -0.48382E-04  4639   0.272E-02    0.434E-02
RMM:   4    -0.230464078680E+04    0.18278E-04   -0.15150E-04  4002   0.988E-03    0.147E-02
RMM:   5    -0.230464078743E+04   -0.63189E-06   -0.14343E-05  2807   0.585E-03
  62 F= -.23246407E+04 E0= -.23246407E+04  d E =-.274165E-02  mag=     2.0000
       N       E                     dE             d eps       ncg     rms          rms(c)
DAV:   1    -0.230464103373E+04   -0.24694E-03   -0.11314E+00  4368   0.996E-01    0.262E-01
RMM:   2    -0.230464328645E+04   -0.22527E-02   -0.28689E-02  5032   0.150E-01    0.141E-01
RMM:   3    -0.230464294315E+04    0.34329E-03   -0.18154E-03  4825   0.510E-02    0.821E-02
RMM:   4    -0.230464288105E+04    0.62104E-04   -0.53690E-04  4455   0.179E-02    0.375E-02
RMM:   5    -0.230464287554E+04    0.55086E-05   -0.57784E-05  3019   0.104E-02
  63 F= -.23246427E+04 E0= -.23246427E+04  d E =-.474160E-02  mag=     2.0000
       N       E                     dE             d eps       ncg     rms          rms(c)
DAV:   1    -0.230464496707E+04   -0.20860E-02   -0.16270E-01  4592   0.388E-01    0.108E-01
RMM:   2    -0.230464532932E+04   -0.36225E-03   -0.43649E-03  5166   0.580E-02    0.574E-02
RMM:   3    -0.230464528320E+04    0.46114E-04   -0.23971E-04  4153   0.185E-02    0.391E-02
RMM:   4    -0.230464526198E+04    0.21222E-04   -0.11235E-04  3761   0.776E-03    0.170E-02
RMM:   5    -0.230464526194E+04    0.44543E-07   -0.15551E-05  2811   0.523E-03
  64 F= -.23246450E+04 E0= -.23246450E+04  d E =-.230682E-02  mag=     2.0000
       N       E                     dE             d eps       ncg     rms          rms(c)
DAV:   1    -0.230464680856E+04   -0.15466E-02   -0.14638E+00  4400   0.116E+00    0.320E-01
RMM:   2    -0.230464995069E+04   -0.31421E-02   -0.39064E-02  5091   0.172E-01    0.159E-01
RMM:   3    -0.230464948064E+04    0.47005E-03   -0.20894E-03  4627   0.611E-02    0.921E-02
RMM:   4    -0.230464937946E+04    0.10117E-03   -0.77250E-04  4524   0.215E-02    0.369E-02
RMM:   5    -0.230464938791E+04   -0.84423E-05   -0.70096E-05  3458   0.130E-02
  65 F= -.23246489E+04 E0= -.23246489E+04  d E =-.619478E-02  mag=     2.0000
       N       E                     dE             d eps       ncg     rms          rms(c)
DAV:   1    -0.230464933124E+04    0.48223E-04   -0.22350E-01  4592   0.455E-01    0.128E-01
RMM:   2    -0.230464982879E+04   -0.49755E-03   -0.60432E-03  5131   0.679E-02    0.659E-02
RMM:   3    -0.230464975749E+04    0.71309E-04   -0.32607E-04  4372   0.236E-02    0.379E-02
RMM:   4    -0.230464974498E+04    0.12507E-04   -0.11838E-04  3958   0.871E-03    0.191E-02
RMM:   5    -0.230464974700E+04   -0.20192E-05   -0.11884E-05  2809   0.563E-03
  66 F= -.23246492E+04 E0= -.23246492E+04  d E =-.646100E-02  mag=     2.0000
       N       E                     dE             d eps       ncg     rms          rms(c)
DAV:   1    -0.230465159219E+04   -0.18472E-02   -0.14580E-01  4416   0.364E-01    0.101E-01
RMM:   2    -0.230465188569E+04   -0.29350E-03   -0.37126E-03  5020   0.546E-02    0.533E-02
RMM:   3    -0.230465183832E+04    0.47369E-04   -0.20389E-04  4362   0.197E-02    0.303E-02
RMM:   4    -0.230465183478E+04    0.35426E-05   -0.71746E-05  3713   0.718E-03
  67 F= -.23246512E+04 E0= -.23246512E+04  d E =-.204571E-02  mag=     2.0000
       N       E                     dE             d eps       ncg     rms          rms(c)
DAV:   1    -0.230465346919E+04   -0.16309E-02   -0.13115E+00  4368   0.109E+00    0.299E-01
RMM:   2    -0.230465608818E+04   -0.26190E-02   -0.33365E-02  5161   0.165E-01    0.155E-01
RMM:   3    -0.230465565890E+04    0.42928E-03   -0.18672E-03  4789   0.608E-02    0.885E-02
RMM:   4    -0.230465557666E+04    0.82237E-04   -0.71240E-04  4561   0.212E-02    0.322E-02
RMM:   5    -0.230465557375E+04    0.29112E-05   -0.59342E-05  3405   0.121E-02
  68 F= -.23246548E+04 E0= -.23246548E+04  d E =-.565922E-02  mag=     2.0000
       N       E                     dE             d eps       ncg     rms          rms(c)
DAV:   1    -0.230465552671E+04    0.49951E-04   -0.28196E-01  4544   0.506E-01    0.139E-01
RMM:   2    -0.230465610610E+04   -0.57939E-03   -0.72809E-03  5051   0.767E-02    0.731E-02
RMM:   3    -0.230465601547E+04    0.90636E-04   -0.39867E-04  4569   0.267E-02    0.429E-02
RMM:   4    -0.230465599785E+04    0.17612E-04   -0.15943E-04  4043   0.102E-02    0.198E-02
RMM:   5    -0.230465599435E+04    0.35024E-05   -0.16364E-05  2809   0.641E-03
  69 F= -.23246552E+04 E0= -.23246552E+04  d E =-.602198E-02  mag=     2.0000
       N       E                     dE             d eps       ncg     rms          rms(c)
DAV:   1    -0.230465793331E+04   -0.19355E-02   -0.51347E-01  4368   0.660E-01    0.183E-01
RMM:   2    -0.230465889483E+04   -0.96152E-03   -0.12606E-02  4996   0.101E-01    0.977E-02
RMM:   3    -0.230465871877E+04    0.17606E-03   -0.79450E-04  4747   0.352E-02    0.570E-02
RMM:   4    -0.230465868319E+04    0.35580E-04   -0.25435E-04  4196   0.127E-02    0.219E-02
RMM:   5    -0.230465867994E+04    0.32489E-05   -0.27957E-05  2840   0.775E-03
  70 F= -.23246578E+04 E0= -.23246578E+04  d E =-.261006E-02  mag=     2.0000
       N       E                     dE             d eps       ncg     rms          rms(c)
DAV:   1    -0.230465766524E+04    0.10180E-02   -0.67511E-01  4368   0.757E-01    0.211E-01
RMM:   2    -0.230465893100E+04   -0.12658E-02   -0.16564E-02  4990   0.116E-01    0.113E-01
RMM:   3    -0.230465869147E+04    0.23952E-03   -0.10472E-03  4768   0.394E-02    0.638E-02
RMM:   4    -0.230465864867E+04    0.42804E-04   -0.33499E-04  4393   0.146E-02    0.275E-02
RMM:   5    -0.230465865415E+04   -0.54840E-05   -0.31242E-05  2851   0.840E-03
  71 F= -.23246577E+04 E0= -.23246577E+04  d E =-.249780E-02  mag=     2.0000
       N       E                     dE             d eps       ncg     rms          rms(c)
DAV:   1    -0.230465886043E+04   -0.21176E-03   -0.17137E-01  4400   0.381E-01    0.106E-01
RMM:   2    -0.230465915265E+04   -0.29222E-03   -0.41521E-03  5068   0.576E-02    0.553E-02
RMM:   3    -0.230465908659E+04    0.66064E-04   -0.28097E-04  4499   0.221E-02    0.301E-02
RMM:   4    -0.230465908347E+04    0.31135E-05   -0.68416E-05  3550   0.693E-03
  72 F= -.23246582E+04 E0= -.23246582E+04  d E =-.297065E-02  mag=     2.0000
       N       E                     dE             d eps       ncg     rms          rms(c)
DAV:   1    -0.230466093911E+04   -0.18525E-02   -0.48709E-01  4368   0.654E-01    0.181E-01
RMM:   2    -0.230466200298E+04   -0.10639E-02   -0.13371E-02  5278   0.980E-02    0.913E-02
RMM:   3    -0.230466186946E+04    0.13352E-03   -0.84882E-04  4544   0.397E-02    0.528E-02
RMM:   4    -0.230466183947E+04    0.29990E-04   -0.28070E-04  4246   0.128E-02    0.238E-02
RMM:   5    -0.230466184022E+04   -0.74381E-06   -0.26586E-05  2842   0.787E-03
  73 F= -.23246608E+04 E0= -.23246608E+04  d E =-.259386E-02  mag=     2.0000
       N       E                     dE             d eps       ncg     rms          rms(c)
DAV:   1    -0.230466158040E+04    0.25908E-03   -0.73273E-01  4368   0.803E-01    0.227E-01
RMM:   2    -0.230466320498E+04   -0.16246E-02   -0.20307E-02  5307   0.121E-01    0.117E-01
RMM:   3    -0.230466300166E+04    0.20332E-03   -0.11935E-03  4585   0.426E-02    0.679E-02
RMM:   4    -0.230466295463E+04    0.47026E-04   -0.42586E-04  4492   0.156E-02    0.292E-02
RMM:   5    -0.230466295233E+04    0.23028E-05   -0.36863E-05  2940   0.938E-03
  74 F= -.23246617E+04 E0= -.23246617E+04  d E =-.350609E-02  mag=     2.0000
       N       E                     dE             d eps       ncg     rms          rms(c)
DAV:   1    -0.230466487232E+04   -0.19177E-02   -0.72798E-01  4368   0.796E-01    0.218E-01
RMM:   2    -0.230466632324E+04   -0.14509E-02   -0.18060E-02  5175   0.118E-01    0.113E-01
RMM:   3    -0.230466610840E+04    0.21483E-03   -0.88861E-04  4620   0.366E-02    0.667E-02
RMM:   4    -0.230466606596E+04    0.42441E-04   -0.35756E-04  4380   0.146E-02    0.278E-02
RMM:   5    -0.230466605939E+04    0.65773E-05   -0.36634E-05  2898   0.908E-03
  75 F= -.23246646E+04 E0= -.23246646E+04  d E =-.292888E-02  mag=     2.0000
       N       E                     dE             d eps       ncg     rms          rms(c)
DAV:   1    -0.230466478252E+04    0.12834E-02   -0.19522E+00  4368   0.130E+00    0.356E-01
RMM:   2    -0.230466862621E+04   -0.38437E-02   -0.48180E-02  5161   0.192E-01    0.182E-01
RMM:   3    -0.230466804451E+04    0.58170E-03   -0.25991E-03  4588   0.633E-02    0.104E-01
RMM:   4    -0.230466793347E+04    0.11104E-03   -0.10021E-03  4542   0.245E-02    0.402E-02
RMM:   5    -0.230466793618E+04   -0.27155E-05   -0.81558E-05  3653   0.142E-02
  76 F= -.23246662E+04 E0= -.23246662E+04  d E =-.451181E-02  mag=     2.0000
       N       E                     dE             d eps       ncg     rms          rms(c)
DAV:   1    -0.230466939973E+04   -0.14663E-02   -0.97673E-01  4360   0.868E-01    0.231E-01
RMM:   2    -0.230467081771E+04   -0.14180E-02   -0.19466E-02  4620   0.127E-01    0.132E-01
RMM:   3    -0.230467055555E+04    0.26215E-03   -0.12321E-03  4764   0.459E-02    0.712E-02
RMM:   4    -0.230467051983E+04    0.35725E-04   -0.43270E-04  4299   0.165E-02    0.249E-02
RMM:   5    -0.230467051529E+04    0.45362E-05   -0.53192E-05  2951   0.103E-02
  77 F= -.23246687E+04 E0= -.23246687E+04  d E =-.256362E-02  mag=     2.0000
       N       E                     dE             d eps       ncg     rms          rms(c)
DAV:   1    -0.230467051782E+04    0.20038E-05   -0.72973E-02  4680   0.237E-01    0.641E-02
RMM:   2    -0.230467063158E+04   -0.11375E-03   -0.15108E-03  4592   0.352E-02    0.369E-02
RMM:   3    -0.230467061208E+04    0.19497E-04   -0.92360E-05  3512   0.125E-02    0.203E-02
RMM:   4    -0.230467060968E+04    0.23969E-05   -0.37238E-05  2960   0.549E-03
  78 F= -.23246688E+04 E0= -.23246688E+04  d E =-.265348E-02  mag=     2.0000
       N       E                     dE             d eps       ncg     rms          rms(c)
DAV:   1    -0.230467254924E+04   -0.19372E-02   -0.61267E-01  4368   0.691E-01    0.186E-01
RMM:   2    -0.230467343471E+04   -0.88547E-03   -0.12087E-02  4699   0.996E-02    0.102E-01
RMM:   3    -0.230467325529E+04    0.17942E-03   -0.75299E-04  4802   0.429E-02    0.554E-02
RMM:   4    -0.230467323164E+04    0.23652E-04   -0.28707E-04  4229   0.135E-02    0.187E-02
RMM:   5    -0.230467322735E+04    0.42882E-05   -0.22239E-05  2845   0.832E-03
  79 F= -.23246714E+04 E0= -.23246714E+04  d E =-.259177E-02  mag=     2.0000
       N       E                     dE             d eps       ncg     rms          rms(c)
DAV:   1    -0.230467180894E+04    0.14227E-02   -0.18762E+00  4368   0.121E+00    0.326E-01
RMM:   2    -0.230467450650E+04   -0.26976E-02   -0.37168E-02  4605   0.173E-01    0.179E-01
RMM:   3    -0.230467393763E+04    0.56887E-03   -0.21226E-03  4707   0.647E-02    0.966E-02
RMM:   4    -0.230467385658E+04    0.81052E-04   -0.91635E-04  4401   0.238E-02    0.315E-02
RMM:   5    -0.230467385037E+04    0.62113E-05   -0.61457E-05  3407   0.140E-02
  80 F= -.23246720E+04 E0= -.23246720E+04  d E =-.316715E-02  mag=     2.0000
       N       E                     dE             d eps       ncg     rms          rms(c)
DAV:   1    -0.230467393075E+04   -0.74175E-04   -0.27907E-01  4384   0.466E-01    0.124E-01
RMM:   2    -0.230467429030E+04   -0.35955E-03   -0.52514E-03  4641   0.655E-02    0.659E-02
RMM:   3    -0.230467421035E+04    0.79952E-04   -0.33265E-04  4582   0.276E-02    0.366E-02
RMM:   4    -0.230467420480E+04    0.55452E-05   -0.11981E-04  3918   0.858E-03    0.228E-02
RMM:   5    -0.230467420017E+04    0.46353E-05   -0.14143E-05  2807   0.574E-03
  81 F= -.23246724E+04 E0= -.23246724E+04  d E =-.353575E-02  mag=     2.0000
       N       E                     dE             d eps       ncg     rms          rms(c)
DAV:   1    -0.230467581375E+04   -0.16089E-02   -0.41014E-01  4384   0.570E-01    0.166E-01
RMM:   2    -0.230467637060E+04   -0.55685E-03   -0.76373E-03  4524   0.825E-02    0.825E-02
RMM:   3    -0.230467627390E+04    0.96702E-04   -0.50869E-04  4518   0.336E-02    0.491E-02
RMM:   4    -0.230467623728E+04    0.36623E-04   -0.22567E-04  4060   0.121E-02    0.160E-02
RMM:   5    -0.230467623988E+04   -0.25993E-05   -0.20939E-05  2823   0.801E-03
  82 F= -.23246744E+04 E0= -.23246744E+04  d E =-.198101E-02  mag=     2.0000
       N       E                     dE             d eps       ncg     rms          rms(c)
DAV:   1    -0.230467648316E+04   -0.24588E-03   -0.87245E-01  4400   0.832E-01    0.244E-01
RMM:   2    -0.230467766945E+04   -0.11863E-02   -0.16398E-02  4507   0.120E-01    0.121E-01
RMM:   3    -0.230467744919E+04    0.22026E-03   -0.10365E-03  4581   0.466E-02    0.660E-02
RMM:   4    -0.230467739935E+04    0.49833E-04   -0.43172E-04  4378   0.170E-02    0.223E-02
RMM:   5    -0.230467740016E+04   -0.81141E-06   -0.33009E-05  3000   0.109E-02
  83 F= -.23246754E+04 E0= -.23246754E+04  d E =-.305435E-02  mag=     2.0000
       N       E                     dE             d eps       ncg     rms          rms(c)
DAV:   1    -0.230467857578E+04   -0.11764E-02   -0.48664E-01  4352   0.603E-01    0.169E-01
RMM:   2    -0.230467925468E+04   -0.67890E-03   -0.92506E-03  4537   0.880E-02    0.911E-02
RMM:   3    -0.230467913502E+04    0.11967E-03   -0.59354E-04  4594   0.331E-02    0.496E-02
RMM:   4    -0.230467911961E+04    0.15403E-04   -0.21950E-04  4079   0.121E-02    0.255E-02
RMM:   5    -0.230467911892E+04    0.69036E-06   -0.22171E-05  2822   0.759E-03
  84 F= -.23246772E+04 E0= -.23246772E+04  d E =-.175113E-02  mag=     2.0000
       N       E                     dE             d eps       ncg     rms          rms(c)
DAV:   1    -0.230467911833E+04    0.12847E-05   -0.44700E-01  4384   0.578E-01    0.163E-01
RMM:   2    -0.230467974079E+04   -0.62246E-03   -0.84882E-03  4536   0.841E-02    0.881E-02
RMM:   3    -0.230467962850E+04    0.11229E-03   -0.55009E-04  4606   0.330E-02    0.481E-02
RMM:   4    -0.230467960810E+04    0.20394E-04   -0.20619E-04  4118   0.117E-02    0.181E-02
RMM:   5    -0.230467960715E+04    0.95236E-06   -0.19180E-05  2810   0.747E-03
  85 F= -.23246777E+04 E0= -.23246777E+04  d E =-.226976E-02  mag=     2.0000
       N       E                     dE             d eps       ncg     rms          rms(c)
DAV:   1    -0.230468053223E+04   -0.92413E-03   -0.26752E-01  4448   0.442E-01    0.120E-01
RMM:   2    -0.230468097467E+04   -0.44243E-03   -0.57962E-03  4906   0.642E-02    0.669E-02
RMM:   3    -0.230468089429E+04    0.80379E-04   -0.33004E-04  4549   0.236E-02    0.376E-02
RMM:   4    -0.230468088224E+04    0.12047E-04   -0.12364E-04  3945   0.843E-03    0.140E-02
RMM:   5    -0.230468088083E+04    0.14105E-05   -0.99709E-06  2809   0.524E-03
  86 F= -.23246790E+04 E0= -.23246790E+04  d E =-.127745E-02  mag=     2.0000
       N       E                     dE             d eps       ncg     rms          rms(c)
DAV:   1    -0.230468081309E+04    0.69154E-04   -0.55974E-01  4368   0.639E-01    0.172E-01
RMM:   2    -0.230468171759E+04   -0.90450E-03   -0.11996E-02  4920   0.928E-02    0.949E-02
RMM:   3    -0.230468155519E+04    0.16240E-03   -0.65248E-04  4599   0.341E-02    0.529E-02
RMM:   4    -0.230468152768E+04    0.27513E-04   -0.25012E-04  4153   0.121E-02    0.170E-02
RMM:   5    -0.230468152586E+04    0.18195E-05   -0.20191E-05  2820   0.753E-03
  87 F= -.23246796E+04 E0= -.23246796E+04  d E =-.192765E-02  mag=     2.0000
       N       E                     dE             d eps       ncg     rms          rms(c)
DAV:   1    -0.230468253602E+04   -0.10083E-02   -0.25766E-01  4368   0.436E-01    0.118E-01
RMM:   2    -0.230468296515E+04   -0.42913E-03   -0.54949E-03  4812   0.643E-02    0.650E-02
RMM:   3    -0.230468288799E+04    0.77166E-04   -0.29461E-04  4569   0.236E-02    0.372E-02
RMM:   4    -0.230468287300E+04    0.14989E-04   -0.11739E-04  3985   0.869E-03    0.119E-02
RMM:   5    -0.230468287248E+04    0.52064E-06   -0.99549E-06  2807   0.539E-03
  88 F= -.23246810E+04 E0= -.23246810E+04  d E =-.133780E-02  mag=     2.0000
       N       E                     dE             d eps       ncg     rms          rms(c)
DAV:   1    -0.230468228016E+04    0.59284E-03   -0.14922E+00  4368   0.105E+00    0.283E-01
RMM:   2    -0.230468471557E+04   -0.24354E-02   -0.31523E-02  4868   0.154E-01    0.154E-01
RMM:   3    -0.230468428025E+04    0.43532E-03   -0.17120E-03  4632   0.582E-02    0.863E-02
RMM:   4    -0.230468420403E+04    0.76222E-04   -0.67950E-04  4464   0.207E-02    0.296E-02
RMM:   5    -0.230468419859E+04    0.54455E-05   -0.54632E-05  3178   0.124E-02
  89 F= -.23246823E+04 E0= -.23246823E+04  d E =-.264157E-02  mag=     2.0000
       N       E                     dE             d eps       ncg     rms          rms(c)
DAV:   1    -0.230468503430E+04   -0.83027E-03   -0.49506E-01  4368   0.612E-01    0.171E-01
RMM:   2    -0.230468583884E+04   -0.80454E-03   -0.10402E-02  4660   0.897E-02    0.891E-02
RMM:   3    -0.230468570304E+04    0.13579E-03   -0.63209E-04  4658   0.328E-02    0.501E-02
RMM:   4    -0.230468567138E+04    0.31669E-04   -0.22249E-04  4106   0.118E-02    0.170E-02
RMM:   5    -0.230468567289E+04   -0.15148E-05   -0.19943E-05  2820   0.762E-03
  90 F= -.23246838E+04 E0= -.23246838E+04  d E =-.148611E-02  mag=     2.0000
       N       E                     dE             d eps       ncg     rms          rms(c)
DAV:   1    -0.230468549300E+04    0.17837E-03   -0.46125E-01  4368   0.591E-01    0.164E-01
RMM:   2    -0.230468623942E+04   -0.74642E-03   -0.96059E-03  4653   0.863E-02    0.858E-02
RMM:   3    -0.230468611770E+04    0.12173E-03   -0.59205E-04  4642   0.345E-02    0.486E-02
RMM:   4    -0.230468608648E+04    0.31215E-04   -0.21183E-04  4120   0.116E-02    0.158E-02
RMM:   5    -0.230468608645E+04    0.30399E-07   -0.17894E-05  2821   0.741E-03
  91 F= -.23246842E+04 E0= -.23246842E+04  d E =-.191044E-02  mag=     2.0000
       N       E                     dE             d eps       ncg     rms          rms(c)
DAV:   1    -0.230468645480E+04   -0.36832E-03   -0.55878E-01  4400   0.642E-01    0.173E-01
RMM:   2    -0.230468744172E+04   -0.98692E-03   -0.12634E-02  4749   0.932E-02    0.958E-02
RMM:   3    -0.230468730708E+04    0.13464E-03   -0.78702E-04  4652   0.361E-02    0.542E-02
RMM:   4    -0.230468727624E+04    0.30838E-04   -0.26017E-04  4161   0.121E-02    0.194E-02
RMM:   5    -0.230468727760E+04   -0.13640E-05   -0.22955E-05  2824   0.737E-03
  92 F= -.23246854E+04 E0= -.23246854E+04  d E =-.118946E-02  mag=     2.0000
       N       E                     dE             d eps       ncg     rms          rms(c)
DAV:   1    -0.230468718337E+04    0.92865E-04   -0.78000E-02  4624   0.240E-01    0.654E-02
RMM:   2    -0.230468732686E+04   -0.14348E-03   -0.17989E-03  4761   0.355E-02    0.367E-02
RMM:   3    -0.230468730788E+04    0.18975E-04   -0.10689E-04  3508   0.135E-02    0.209E-02
RMM:   4    -0.230468730402E+04    0.38600E-05   -0.37541E-05  2911   0.524E-03
  93 F= -.23246854E+04 E0= -.23246854E+04  d E =-.121521E-02  mag=     2.0000
       N       E                     dE             d eps       ncg     rms          rms(c)
DAV:   1    -0.230468739843E+04   -0.90544E-04   -0.61492E-01  4368   0.683E-01    0.189E-01
RMM:   2    -0.230468870008E+04   -0.13017E-02   -0.15847E-02  4948   0.101E-01    0.101E-01
RMM:   3    -0.230468857998E+04    0.12010E-03   -0.10344E-03  4587   0.434E-02    0.585E-02
RMM:   4    -0.230468854554E+04    0.34443E-04   -0.30992E-04  4218   0.134E-02    0.241E-02
RMM:   5    -0.230468854862E+04   -0.30868E-05   -0.29640E-05  2841   0.833E-03
  94 F= -.23246866E+04 E0= -.23246866E+04  d E =-.122318E-02  mag=     2.0000
       N       E                     dE             d eps       ncg     rms          rms(c)
DAV:   1    -0.230468829728E+04    0.24826E-03   -0.21842E-01  4376   0.407E-01    0.113E-01
RMM:   2    -0.230468877303E+04   -0.47575E-03   -0.57295E-03  4911   0.606E-02    0.616E-02
RMM:   3    -0.230468872809E+04    0.44939E-04   -0.34781E-04  4359   0.231E-02    0.362E-02
RMM:   4    -0.230468871467E+04    0.13424E-04   -0.11388E-04  3896   0.814E-03    0.154E-02
RMM:   5    -0.230468871416E+04    0.50195E-06   -0.11584E-05  2812   0.511E-03
  95 F= -.23246868E+04 E0= -.23246868E+04  d E =-.137570E-02  mag=     2.0000
       N       E                     dE             d eps       ncg     rms          rms(c)
DAV:   1    -0.230468915835E+04   -0.44368E-03   -0.20405E-01  4368   0.403E-01    0.126E-01
RMM:   2    -0.230468980047E+04   -0.64213E-03   -0.75664E-03  5088   0.626E-02    0.641E-02
RMM:   3    -0.230468976387E+04    0.36606E-04   -0.52086E-04  4364   0.255E-02    0.382E-02
RMM:   4    -0.230468974656E+04    0.17313E-04   -0.14293E-04  3960   0.866E-03    0.166E-02
RMM:   5    -0.230468974668E+04   -0.12881E-06   -0.15615E-05  2816   0.568E-03
  96 F= -.23246877E+04 E0= -.23246877E+04  d E =-.940817E-03  mag=     2.0000
       N       E                     dE             d eps       ncg     rms          rms(c)
DAV:   1    -0.230468973698E+04    0.95781E-05   -0.50138E-02  4544   0.200E-01    0.631E-02
RMM:   2    -0.230468989989E+04   -0.16291E-03   -0.18951E-03  5117   0.318E-02    0.331E-02
RMM:   3    -0.230468989015E+04    0.97400E-05   -0.12811E-04  3282   0.129E-02    0.198E-02
RMM:   4    -0.230468988499E+04    0.51597E-05   -0.36428E-05  2878   0.497E-03
  97 F= -.23246878E+04 E0= -.23246878E+04  d E =-.103350E-02  mag=     2.0000
       N       E                     dE             d eps       ncg     rms          rms(c)
DAV:   1    -0.230469015228E+04   -0.26213E-03   -0.15851E-01  4368   0.355E-01    0.106E-01
RMM:   2    -0.230469075545E+04   -0.60317E-03   -0.69963E-03  5388   0.553E-02    0.585E-02
RMM:   3    -0.230469074094E+04    0.14511E-04   -0.50354E-04  4146   0.224E-02    0.355E-02
RMM:   4    -0.230469072965E+04    0.11283E-04   -0.11245E-04  3528   0.724E-03    0.181E-02
RMM:   5    -0.230469073070E+04   -0.10486E-05   -0.13753E-05  2815   0.489E-03
  98 F= -.23246885E+04 E0= -.23246885E+04  d E =-.733677E-03  mag=     2.0000
       N       E                     dE             d eps       ncg     rms          rms(c)
DAV:   1    -0.230469073122E+04   -0.15658E-05   -0.26694E-02  4608   0.146E-01    0.455E-02
RMM:   2    -0.230469083501E+04   -0.10379E-03   -0.12021E-03  5255   0.232E-02    0.257E-02
RMM:   3    -0.230469083202E+04    0.29896E-05   -0.80082E-05  2898   0.989E-03
  99 F= -.23246886E+04 E0= -.23246886E+04  d E =-.788958E-03  mag=     2.0000
       N       E                     dE             d eps       ncg     rms          rms(c)
DAV:   1    -0.230469114625E+04   -0.31124E-03   -0.98018E-02  4368   0.301E-01    0.947E-02
RMM:   2    -0.230469159310E+04   -0.44685E-03   -0.50487E-03  5185   0.467E-02    0.448E-02
RMM:   3    -0.230469158664E+04    0.64549E-05   -0.36608E-04  3838   0.193E-02    0.269E-02
RMM:   4    -0.230469157880E+04    0.78450E-05   -0.80732E-05  3445   0.631E-03
 100 F= -.23246893E+04 E0= -.23246893E+04  d E =-.682359E-03  mag=     2.0000
       N       E                     dE             d eps       ncg     rms          rms(c)
DAV:   1    -0.230469098906E+04    0.59758E-03   -0.22213E-01  4368   0.452E-01    0.142E-01
RMM:   2    -0.230469202731E+04   -0.10382E-02   -0.11623E-02  5470   0.719E-02    0.662E-02
RMM:   3    -0.230469201409E+04    0.13225E-04   -0.83265E-04  4753   0.284E-02    0.399E-02
RMM:   4    -0.230469199594E+04    0.18143E-04   -0.15891E-04  3842   0.846E-03    0.202E-02
RMM:   5    -0.230469199412E+04    0.18210E-05   -0.21602E-05  2810   0.613E-03
 101 F= -.23246896E+04 E0= -.23246896E+04  d E =-.100034E-02  mag=     2.0000
       N       E                     dE             d eps       ncg     rms          rms(c)
DAV:   1    -0.230469192609E+04    0.69854E-04   -0.14461E-01  4384   0.360E-01    0.103E-01
RMM:   2    -0.230469272074E+04   -0.79466E-03   -0.87044E-03  5436   0.570E-02    0.539E-02
RMM:   3    -0.230469273509E+04   -0.14351E-04   -0.65772E-04  4021   0.231E-02    0.332E-02
RMM:   4    -0.230469272402E+04    0.11080E-04   -0.11580E-04  3241   0.670E-03    0.165E-02
RMM:   5    -0.230469272286E+04    0.11553E-05   -0.15150E-05  2809   0.489E-03
 102 F= -.23246902E+04 E0= -.23246902E+04  d E =-.600499E-03  mag=     2.0000
       N       E                     dE             d eps       ncg     rms          rms(c)
[...]
       N       E                     dE             d eps       ncg     rms          rms(c)
DAV:   1    -0.230470530738E+04   -0.86099E-04   -0.22085E-02  4368   0.140E-01    0.504E-02
RMM:   2    -0.230470536752E+04   -0.60141E-04   -0.78650E-04  5286   0.234E-02    0.226E-02
RMM:   3    -0.230470535916E+04    0.83675E-05   -0.57070E-05  2908   0.922E-03
 156 F= -.23246986E+04 E0= -.23246986E+04  d E =-.123417E-03  mag=     2.0000
       N       E                     dE             d eps       ncg     rms          rms(c)
DAV:   1    -0.230470535326E+04    0.14266E-04   -0.45947E-03  4872   0.641E-02    0.244E-02
RMM:   2    -0.230470536480E+04   -0.11546E-04   -0.16773E-04  4240   0.115E-02    0.120E-02
RMM:   3    -0.230470536292E+04    0.18862E-05   -0.15704E-05  2806   0.578E-03
 157 F= -.23246986E+04 E0= -.23246986E+04  d E =-.118819E-03  mag=     2.0000
       N       E                     dE             d eps       ncg     rms          rms(c)
DAV:   1    -0.230470547027E+04   -0.10547E-03   -0.23741E-02  4368   0.148E-01    0.528E-02
RMM:   2    -0.230470553818E+04   -0.67913E-04   -0.87316E-04  5316   0.243E-02    0.226E-02
RMM:   3    -0.230470552935E+04    0.88306E-05   -0.62207E-05  2944   0.970E-03
 158 F= -.23246987E+04 E0= -.23246987E+04  d E =-.116792E-03  mag=     2.0000
       N       E                     dE             d eps       ncg     rms          rms(c)
DAV:   1    -0.230470553549E+04    0.26900E-05   -0.38110E-03  5136   0.594E-02    0.225E-02
RMM:   2    -0.230470554532E+04   -0.98320E-05   -0.14299E-04  3992   0.106E-02    0.109E-02
RMM:   3    -0.230470554393E+04    0.13973E-05   -0.13654E-05  2805   0.555E-03
 159 F= -.23246987E+04 E0= -.23246987E+04  d E =-.110829E-03  mag=     2.0000
       N       E                     dE             d eps       ncg     rms          rms(c)
DAV:   1    -0.230470564501E+04   -0.99683E-04   -0.24585E-02  4400   0.152E-01    0.534E-02
RMM:   2    -0.230470571846E+04   -0.73454E-04   -0.93202E-04  5321   0.249E-02    0.228E-02
RMM:   3    -0.230470570925E+04    0.92141E-05   -0.68083E-05  2947   0.993E-03
 160 F= -.23246988E+04 E0= -.23246988E+04  d E =-.104333E-03  mag=     2.0000
       N       E                     dE             d eps       ncg     rms          rms(c)
DAV:   1    -0.230470571434E+04    0.41199E-05   -0.14098E-03  5272   0.367E-02    0.146E-02
RMM:   2    -0.230470571767E+04   -0.33307E-05   -0.57001E-05  3072   0.679E-03
 161 F= -.23246988E+04 E0= -.23246988E+04  d E =-.973421E-04  mag=     2.0000
       N       E                     dE             d eps       ncg     rms          rms(c)
DAV:   1    -0.230470579801E+04   -0.83671E-04   -0.21822E-02  4368   0.143E-01    0.530E-02
RMM:   2    -0.230470586536E+04   -0.67350E-04   -0.86843E-04  5511   0.258E-02    0.226E-02
RMM:   3    -0.230470585784E+04    0.75182E-05   -0.75032E-05  3097   0.101E-02
 162 F= -.23246989E+04 E0= -.23246989E+04  d E =-.101567E-03  mag=     2.0000
       N       E                     dE             d eps       ncg     rms          rms(c)
DAV:   1    -0.230470585996E+04    0.53993E-05   -0.11385E-03  5312   0.330E-02    0.138E-02
RMM:   2    -0.230470586265E+04   -0.26866E-05   -0.47017E-05  2987   0.623E-03
 163 F= -.23246989E+04 E0= -.23246989E+04  d E =-.970645E-04  mag=     2.0000
       N       E                     dE             d eps       ncg     rms          rms(c)
DAV:   1    -0.230470590577E+04   -0.45811E-04   -0.19775E-02  4368   0.136E-01    0.488E-02
RMM:   2    -0.230470597392E+04   -0.68149E-04   -0.84841E-04  5464   0.246E-02    0.217E-02
RMM:   3    -0.230470596843E+04    0.54930E-05   -0.79863E-05  3056   0.101E-02
 164 F= -.23246990E+04 E0= -.23246990E+04  d E =-.868085E-04  mag=     2.0000
       N       E                     dE             d eps       ncg     rms          rms(c)
DAV:   1    -0.230470596520E+04    0.87242E-05   -0.81606E-04  5304   0.280E-02    0.122E-02
RMM:   2    -0.230470596745E+04   -0.22482E-05   -0.39582E-05  2852   0.544E-03
 165 F= -.23246990E+04 E0= -.23246990E+04  d E =-.817458E-04  mag=     2.0000
       N       E                     dE             d eps       ncg     rms          rms(c)
DAV:   1    -0.230470602817E+04   -0.62977E-04   -0.21915E-02  4432   0.143E-01    0.511E-02
RMM:   2    -0.230470610376E+04   -0.75586E-04   -0.93308E-04  5504   0.251E-02    0.220E-02
RMM:   3    -0.230470609813E+04    0.56272E-05   -0.82338E-05  3036   0.101E-02
 166 F= -.23246991E+04 E0= -.23246991E+04  d E =-.818460E-04  mag=     2.0000
       N       E                     dE             d eps       ncg     rms          rms(c)
DAV:   1    -0.230470610070E+04    0.30588E-05   -0.70407E-04  5264   0.259E-02    0.110E-02
RMM:   2    -0.230470610264E+04   -0.19375E-05   -0.32648E-05  2790   0.494E-03
 167 F= -.23246991E+04 E0= -.23246991E+04  d E =-.770361E-04  mag=     2.0000
       N       E                     dE             d eps       ncg     rms          rms(c)
DAV:   1    -0.230470615963E+04   -0.58931E-04   -0.20277E-02  4400   0.136E-01    0.462E-02
RMM:   2    -0.230470623532E+04   -0.75690E-04   -0.90782E-04  5495   0.237E-02    0.211E-02
RMM:   3    -0.230470623165E+04    0.36741E-05   -0.82064E-05  2979   0.971E-03
 168 F= -.23246992E+04 E0= -.23246992E+04  d E =-.836667E-04  mag=     2.0000
       N       E                     dE             d eps       ncg     rms          rms(c)
DAV:   1    -0.230470623548E+04   -0.15987E-06   -0.16920E-03  5216   0.393E-02    0.149E-02
RMM:   2    -0.230470624088E+04   -0.53986E-05   -0.76871E-05  3114   0.729E-03
 169 F= -.23246992E+04 E0= -.23246992E+04  d E =-.792697E-04  mag=     2.0000
       N       E                     dE             d eps       ncg     rms          rms(c)
DAV:   1    -0.230470627711E+04   -0.41632E-04   -0.21513E-02  4368   0.139E-01    0.483E-02
RMM:   2    -0.230470636135E+04   -0.84236E-04   -0.10002E-03  5560   0.254E-02    0.222E-02
RMM:   3    -0.230470635866E+04    0.26895E-05   -0.96351E-05  3011   0.982E-03
 170 F= -.23246992E+04 E0= -.23246992E+04  d E =-.854228E-04  mag=     2.0000
       N       E                     dE             d eps       ncg     rms          rms(c)
DAV:   1    -0.230470635964E+04    0.17083E-05   -0.25641E-03  5072   0.482E-02    0.187E-02
RMM:   2    -0.230470636805E+04   -0.84127E-05   -0.11815E-04  3445   0.879E-03    0.978E-03
RMM:   3    -0.230470636762E+04    0.43900E-06   -0.12541E-05  2774   0.482E-03
 171 F= -.23246992E+04 E0= -.23246992E+04  d E =-.828902E-04  mag=     2.0000
       N       E                     dE             d eps       ncg     rms          rms(c)
DAV:   1    -0.230470640396E+04   -0.35904E-04   -0.23032E-02  4400   0.142E-01    0.485E-02
RMM:   2    -0.230470649993E+04   -0.95971E-04   -0.11249E-03  5587   0.238E-02    0.221E-02
RMM:   3    -0.230470649725E+04    0.26776E-05   -0.93728E-05  2947   0.943E-03
 172 F= -.23246993E+04 E0= -.23246993E+04  d E =-.825366E-04  mag=     2.0000
       N       E                     dE             d eps       ncg     rms          rms(c)
DAV:   1    -0.230470649876E+04    0.11749E-05   -0.16448E-03  5216   0.382E-02    0.154E-02
RMM:   2    -0.230470650461E+04   -0.58525E-05   -0.84666E-05  3113   0.697E-03
 173 F= -.23246993E+04 E0= -.23246993E+04  d E =-.768184E-04  mag=     2.0000
       N       E                     dE             d eps       ncg     rms          rms(c)
DAV:   1    -0.230470654877E+04   -0.50014E-04   -0.16253E-02  4368   0.117E-01    0.394E-02
RMM:   2    -0.230470662540E+04   -0.76636E-04   -0.87923E-04  5533   0.214E-02    0.200E-02
RMM:   3    -0.230470662636E+04   -0.95171E-06   -0.91023E-05  2861   0.844E-03
 174 F= -.23246994E+04 E0= -.23246994E+04  d E =-.757003E-04  mag=     2.0000
       N       E                     dE             d eps       ncg     rms          rms(c)
DAV:   1    -0.230470662439E+04    0.10190E-05   -0.98678E-03  4400   0.911E-02    0.311E-02
RMM:   2    -0.230470666860E+04   -0.44212E-04   -0.51973E-04  5244   0.157E-02    0.161E-02
RMM:   3    -0.230470666861E+04   -0.97789E-08   -0.51933E-05  2812   0.621E-03
 175 F= -.23246994E+04 E0= -.23246994E+04  d E =-.816625E-04  mag=     2.0000
       N       E                     dE             d eps       ncg     rms          rms(c)
DAV:   1    -0.230470670919E+04   -0.40590E-04   -0.22292E-02  4400   0.140E-01    0.486E-02
RMM:   2    -0.230470680960E+04   -0.10041E-03   -0.11725E-03  5550   0.236E-02    0.223E-02
RMM:   3    -0.230470680792E+04    0.16847E-05   -0.10404E-04  2893   0.893E-03    0.133E-02
RMM:   4    -0.230470680574E+04    0.21751E-05   -0.20470E-05  2825   0.370E-03
 176 F= -.23246995E+04 E0= -.23246995E+04  d E =-.951414E-04  mag=     2.0000
       N       E                     dE             d eps       ncg     rms          rms(c)
DAV:   1    -0.230470680924E+04   -0.13268E-05   -0.27666E-03  5112   0.494E-02    0.171E-02
RMM:   2    -0.230470682165E+04   -0.12406E-04   -0.14526E-04  3635   0.927E-03    0.802E-03
RMM:   3    -0.230470682198E+04   -0.33515E-06   -0.15218E-05  2736   0.519E-03
 177 F= -.23246995E+04 E0= -.23246995E+04  d E =-.963907E-04  mag=     2.0000
       N       E                     dE             d eps       ncg     rms          rms(c)
DAV:   1    -0.230470685477E+04   -0.33123E-04   -0.15457E-02  4432   0.116E-01    0.415E-02
RMM:   2    -0.230470692960E+04   -0.74830E-04   -0.86765E-04  5483   0.199E-02    0.189E-02
RMM:   3    -0.230470692937E+04    0.23544E-06   -0.81366E-05  2840   0.824E-03
 178 F= -.23246996E+04 E0= -.23246996E+04  d E =-.760628E-04  mag=     2.0000
       N       E                     dE             d eps       ncg     rms          rms(c)
DAV:   1    -0.230470692578E+04    0.38225E-05   -0.42684E-03  4608   0.611E-02    0.230E-02
RMM:   2    -0.230470694587E+04   -0.20087E-04   -0.24735E-04  4301   0.109E-02    0.116E-02
RMM:   3    -0.230470694568E+04    0.18709E-06   -0.26572E-05  2806   0.549E-03
 179 F= -.23246996E+04 E0= -.23246996E+04  d E =-.755508E-04  mag=     2.0000
       N       E                     dE             d eps       ncg     rms          rms(c)
DAV:   1    -0.230470697127E+04   -0.25400E-04   -0.14621E-02  4400   0.110E-01    0.379E-02
RMM:   2    -0.230470705076E+04   -0.79494E-04   -0.90052E-04  5571   0.190E-02    0.184E-02
RMM:   3    -0.230470705255E+04   -0.17941E-05   -0.88192E-05  2837   0.759E-03
 180 F= -.23246996E+04 E0= -.23246996E+04  d E =-.665536E-04  mag=     2.0000
       N       E                     dE             d eps       ncg     rms          rms(c)
DAV:   1    -0.230470705662E+04   -0.58586E-05   -0.20821E-03  4976   0.417E-02    0.161E-02
RMM:   2    -0.230470706749E+04   -0.10866E-04   -0.13367E-04  3298   0.761E-03    0.896E-03
RMM:   3    -0.230470706770E+04   -0.21048E-06   -0.15431E-05  2725   0.433E-03
 181 F= -.23246996E+04 E0= -.23246996E+04  d E =-.661399E-04  mag=     2.0000
       N       E                     dE             d eps       ncg     rms          rms(c)
DAV:   1    -0.230470710015E+04   -0.32667E-04   -0.16826E-02  4400   0.124E-01    0.448E-02
RMM:   2    -0.230470718700E+04   -0.86843E-04   -0.99820E-04  5611   0.212E-02    0.192E-02
RMM:   3    -0.230470718747E+04   -0.47960E-06   -0.92668E-05  2854   0.866E-03
 182 F= -.23246997E+04 E0= -.23246997E+04  d E =-.813045E-04  mag=     2.0000
       N       E                     dE             d eps       ncg     rms          rms(c)
DAV:   1    -0.230470718313E+04    0.38601E-05   -0.46940E-03  4576   0.657E-02    0.251E-02
RMM:   2    -0.230470720623E+04   -0.23095E-04   -0.28526E-04  4482   0.118E-02    0.122E-02
RMM:   3    -0.230470720611E+04    0.11534E-06   -0.32265E-05  2805   0.581E-03
 183 F= -.23246997E+04 E0= -.23246997E+04  d E =-.792219E-04  mag=     2.0000
       N       E                     dE             d eps       ncg     rms          rms(c)
DAV:   1    -0.230470719997E+04    0.62619E-05   -0.17252E-02  4400   0.122E-01    0.419E-02
RMM:   2    -0.230470729781E+04   -0.97845E-04   -0.11013E-03  5636   0.211E-02    0.200E-02
RMM:   3    -0.230470730057E+04   -0.27552E-05   -0.10994E-04  2846   0.799E-03    0.123E-02
RMM:   4    -0.230470729954E+04    0.10270E-05   -0.17736E-05  2815   0.307E-03
 184 F= -.23246998E+04 E0= -.23246998E+04  d E =-.600342E-04  mag=     2.0000
       N       E                     dE             d eps       ncg     rms          rms(c)
DAV:   1    -0.230470730066E+04   -0.95373E-07   -0.11724E-03  5088   0.319E-02    0.115E-02
RMM:   2    -0.230470730734E+04   -0.66757E-05   -0.76804E-05  2988   0.617E-03
 185 F= -.23246998E+04 E0= -.23246998E+04  d E =-.589669E-04  mag=     2.0000
       N       E                     dE             d eps       ncg     rms          rms(c)
DAV:   1    -0.230470730847E+04   -0.78086E-05   -0.16713E-02  4368   0.121E-01    0.435E-02
RMM:   2    -0.230470740623E+04   -0.97753E-04   -0.11007E-03  5744   0.229E-02    0.206E-02
RMM:   3    -0.230470740859E+04   -0.23689E-05   -0.10695E-04  2866   0.868E-03    0.126E-02
RMM:   4    -0.230470740715E+04    0.14452E-05   -0.16883E-05  2815   0.318E-03
 186 F= -.23246998E+04 E0= -.23246998E+04  d E =-.752375E-04  mag=     2.0000
       N       E                     dE             d eps       ncg     rms          rms(c)
DAV:   1    -0.230470740320E+04    0.53915E-05   -0.20090E-03  4888   0.422E-02    0.150E-02
RMM:   2    -0.230470741466E+04   -0.11453E-04   -0.13188E-04  3350   0.822E-03    0.738E-03
RMM:   3    -0.230470741526E+04   -0.60681E-06   -0.14612E-05  2715   0.485E-03
 187 F= -.23246998E+04 E0= -.23246998E+04  d E =-.746512E-04  mag=     2.0000
       N       E                     dE             d eps       ncg     rms          rms(c)
DAV:   1    -0.230470742965E+04   -0.14997E-04   -0.15402E-02  4400   0.116E-01    0.416E-02
RMM:   2    -0.230470751831E+04   -0.88655E-04   -0.10059E-03  5591   0.201E-02    0.190E-02
RMM:   3    -0.230470752096E+04   -0.26493E-05   -0.10321E-04  2847   0.867E-03    0.115E-02
RMM:   4    -0.230470751970E+04    0.12570E-05   -0.16625E-05  2817   0.303E-03
 188 F= -.23246999E+04 E0= -.23246999E+04  d E =-.627179E-04  mag=     2.0000
       N       E                     dE             d eps       ncg     rms          rms(c)
DAV:   1    -0.230470752327E+04   -0.23169E-05   -0.18590E-03  4936   0.404E-02    0.147E-02
RMM:   2    -0.230470753415E+04   -0.10878E-04   -0.12442E-04  3294   0.775E-03    0.691E-03
RMM:   3    -0.230470753491E+04   -0.76057E-06   -0.14888E-05  2656   0.455E-03
 189 F= -.23246999E+04 E0= -.23246999E+04  d E =-.632322E-04  mag=     2.0000
       N       E                     dE             d eps       ncg     rms          rms(c)
DAV:   1    -0.230470756253E+04   -0.28378E-04   -0.14353E-02  4368   0.111E-01    0.382E-02
RMM:   2    -0.230470764827E+04   -0.85744E-04   -0.96530E-04  5555   0.192E-02    0.183E-02
RMM:   3    -0.230470765152E+04   -0.32490E-05   -0.10030E-04  2839   0.839E-03    0.111E-02
RMM:   4    -0.230470765024E+04    0.12806E-05   -0.15686E-05  2812   0.290E-03
 190 F= -.23247000E+04 E0= -.23247000E+04  d E =-.630800E-04  mag=     2.0000
       N       E                     dE             d eps       ncg     rms          rms(c)
DAV:   1    -0.230470765854E+04   -0.70183E-05   -0.23195E-03  4672   0.445E-02    0.156E-02
RMM:   2    -0.230470767255E+04   -0.14009E-04   -0.15943E-04  3494   0.840E-03    0.758E-03
RMM:   3    -0.230470767332E+04   -0.77354E-06   -0.17091E-05  2745   0.471E-03
 191 F= -.23247000E+04 E0= -.23247000E+04  d E =-.649021E-04  mag=     2.0000
       N       E                     dE             d eps       ncg     rms          rms(c)
DAV:   1    -0.230470767916E+04   -0.66100E-05   -0.13726E-02  4400   0.109E-01    0.396E-02
RMM:   2    -0.230470775962E+04   -0.80460E-04   -0.91276E-04  5562   0.191E-02    0.182E-02
RMM:   3    -0.230470776208E+04   -0.24630E-05   -0.95961E-05  2829   0.816E-03
 192 F= -.23247000E+04 E0= -.23247000E+04  d E =-.624335E-04  mag=     2.0000
       N       E                     dE             d eps       ncg     rms          rms(c)
DAV:   1    -0.230470775815E+04    0.14758E-05   -0.22651E-03  4888   0.444E-02    0.176E-02
RMM:   2    -0.230470777093E+04   -0.12780E-04   -0.15489E-04  3446   0.815E-03    0.917E-03
RMM:   3    -0.230470777122E+04   -0.29479E-06   -0.19102E-05  2756   0.455E-03
 193 F= -.23247000E+04 E0= -.23247000E+04  d E =-.605824E-04  mag=     2.0000
       N       E                     dE             d eps       ncg     rms          rms(c)
DAV:   1    -0.230470775846E+04    0.12464E-04   -0.13639E-02  4368   0.107E-01    0.368E-02
RMM:   2    -0.230470784402E+04   -0.85555E-04   -0.94949E-04  5659   0.185E-02    0.174E-02
RMM:   3    -0.230470784843E+04   -0.44133E-05   -0.10134E-04  2833   0.767E-03    0.106E-02
RMM:   4    -0.230470784759E+04    0.83735E-06   -0.14247E-05  2806   0.257E-03
 194 F= -.23247001E+04 E0= -.23247001E+04  d E =-.518629E-04  mag=     2.0000
       N       E                     dE             d eps       ncg     rms          rms(c)
DAV:   1    -0.230470784362E+04    0.48128E-05   -0.25116E-03  4680   0.460E-02    0.161E-02
RMM:   2    -0.230470785948E+04   -0.15863E-04   -0.17658E-04  3505   0.845E-03    0.772E-03
RMM:   3    -0.230470786047E+04   -0.99214E-06   -0.18057E-05  2769   0.472E-03
 195 F= -.23247001E+04 E0= -.23247001E+04  d E =-.541256E-04  mag=     2.0000
       N       E                     dE             d eps       ncg     rms          rms(c)
DAV:   1    -0.230470787781E+04   -0.18332E-04   -0.13103E-02  4400   0.106E-01    0.376E-02
RMM:   2    -0.230470795649E+04   -0.78675E-04   -0.88839E-04  5514   0.184E-02    0.177E-02
RMM:   3    -0.230470795915E+04   -0.26588E-05   -0.90469E-05  2827   0.810E-03
 196 F= -.23247002E+04 E0= -.23247002E+04  d E =-.654277E-04  mag=     2.0000
       N       E                     dE             d eps       ncg     rms          rms(c)
DAV:   1    -0.230470795809E+04   -0.16020E-05   -0.32329E-03  4608   0.527E-02    0.200E-02
RMM:   2    -0.230470797698E+04   -0.18888E-04   -0.22532E-04  3857   0.947E-03    0.104E-02
RMM:   3    -0.230470797758E+04   -0.59952E-06   -0.27124E-05  2793   0.505E-03
 197 F= -.23247002E+04 E0= -.23247002E+04  d E =-.670037E-04  mag=     2.0000
       N       E                     dE             d eps       ncg     rms          rms(c)
DAV:   1    -0.230470799783E+04   -0.20850E-04   -0.11912E-02  4384   0.102E-01    0.362E-02
RMM:   2    -0.230470806992E+04   -0.72093E-04   -0.81167E-04  5537   0.179E-02    0.165E-02
RMM:   3    -0.230470807267E+04   -0.27505E-05   -0.85271E-05  2830   0.777E-03
 198 F= -.23247002E+04 E0= -.23247002E+04  d E =-.509616E-04  mag=     2.0000
       N       E                     dE             d eps       ncg     rms          rms(c)
DAV:   1    -0.230470807575E+04   -0.58309E-05   -0.34303E-03  4648   0.548E-02    0.206E-02
RMM:   2    -0.230470809598E+04   -0.20227E-04   -0.23708E-04  3960   0.981E-03    0.104E-02
RMM:   3    -0.230470809661E+04   -0.63442E-06   -0.27779E-05  2800   0.518E-03
 199 F= -.23247002E+04 E0= -.23247002E+04  d E =-.508572E-04  mag=     2.0000
       N       E                     dE             d eps       ncg     rms          rms(c)
DAV:   1    -0.230470810674E+04   -0.10759E-04   -0.10866E-02  4384   0.958E-02    0.337E-02
RMM:   2    -0.230470817744E+04   -0.70709E-04   -0.78560E-04  5524   0.169E-02    0.160E-02
RMM:   3    -0.230470818102E+04   -0.35782E-05   -0.86212E-05  2818   0.715E-03
 200 F= -.23247003E+04 E0= -.23247003E+04  d E =-.508114E-04  mag=     2.0000
       N       E                     dE             d eps       ncg     rms          rms(c)
DAV:   1    -0.230470818015E+04   -0.27073E-05   -0.33277E-03  4552   0.530E-02    0.197E-02
RMM:   2    -0.230470820124E+04   -0.21089E-04   -0.24320E-04  3902   0.958E-03    0.103E-02
RMM:   3    -0.230470820224E+04   -0.99973E-06   -0.29556E-05  2792   0.503E-03
 201 F= -.23247003E+04 E0= -.23247003E+04  d E =-.531928E-04  mag=     2.0000
