       N       E                     dE             d eps       ncg     rms          rms(c)
DAV:   1     0.131306745927E+05    0.13131E+05   -0.84401E+05  4536   0.144E+03
DAV:   2    -0.101142631089E+04   -0.14142E+05   -0.13511E+05  4952   0.331E+02
DAV:   3    -0.248268304927E+04   -0.14713E+04   -0.14528E+04  5536   0.115E+02
DAV:   4    -0.252879333871E+04   -0.46110E+02   -0.45855E+02  6736   0.293E+01
DAV:   5    -0.252965017968E+04   -0.85684E+00   -0.85495E+00  6296   0.348E+00    0.170E+02
RMM:   6    -0.149608606289E+04    0.10336E+04   -0.19643E+03  4472   0.383E+01    0.727E+01
RMM:   7    -0.166713783694E+04   -0.17105E+03   -0.28795E+02  5183   0.144E+01    0.524E+01
RMM:   8    -0.172183138798E+04   -0.54694E+02   -0.83528E+01  5304   0.826E+00    0.445E+01
RMM:   9    -0.178216620943E+04   -0.60335E+02   -0.59996E+01  5102   0.757E+00    0.362E+01
RMM:  10    -0.188862144608E+04   -0.10646E+03   -0.63298E+01  5343   0.774E+00    0.309E+01
RMM:  11    -0.197697821506E+04   -0.88357E+02   -0.40214E+01  5401   0.569E+00    0.235E+01
RMM:  12    -0.204394678247E+04   -0.66969E+02   -0.26183E+01  5299   0.428E+00    0.189E+01
RMM:  13    -0.213865016761E+04   -0.94703E+02   -0.51035E+01  4997   0.541E+00    0.166E+01
RMM:  14    -0.221009812900E+04   -0.71448E+02   -0.42244E+01  4736   0.500E+00    0.113E+01
RMM:  15    -0.229045770790E+04   -0.80360E+02   -0.73320E+01  4521   0.605E+00    0.912E+00
RMM:  16    -0.230674735391E+04   -0.16290E+02   -0.16675E+01  4603   0.379E+00    0.481E+00
RMM:  17    -0.231509745835E+04   -0.83501E+01   -0.90140E+00  4625   0.181E+00    0.313E+00
RMM:  18    -0.231853088186E+04   -0.34334E+01   -0.30162E+00  4783   0.145E+00    0.215E+00
RMM:  19    -0.232005256515E+04   -0.15217E+01   -0.15357E+00  5068   0.635E-01    0.116E+00
RMM:  20    -0.232053862699E+04   -0.48606E+00   -0.70719E-01  4693   0.462E-01    0.767E-01
RMM:  21    -0.232082219839E+04   -0.28357E+00   -0.29353E-01  4665   0.285E-01    0.494E-01
RMM:  22    -0.232093230682E+04   -0.11011E+00   -0.86975E-02  4835   0.191E-01    0.283E-01
RMM:  23    -0.232099301392E+04   -0.60707E-01   -0.28995E-02  4628   0.101E-01    0.164E-01
RMM:  24    -0.232101968417E+04   -0.26670E-01   -0.77380E-03  4709   0.718E-02    0.117E-01
RMM:  25    -0.232103942275E+04   -0.19739E-01   -0.47134E-03  4515   0.447E-02    0.774E-02
RMM:  26    -0.232104982984E+04   -0.10407E-01   -0.24116E-03  4593   0.394E-02    0.653E-02
RMM:  27    -0.232105554101E+04   -0.57112E-02   -0.22741E-03  4680   0.293E-02    0.391E-02
RMM:  28    -0.232105640495E+04   -0.86394E-03   -0.43800E-04  4271   0.225E-02    0.196E-02
RMM:  29    -0.232105681258E+04   -0.40763E-03   -0.20179E-04  3836   0.794E-03    0.182E-02
RMM:  30    -0.232105695549E+04   -0.14291E-03   -0.49045E-05  3367   0.765E-03    0.161E-02
RMM:  31    -0.232105704769E+04   -0.92200E-04   -0.28731E-05  3154   0.391E-03    0.120E-02
RMM:  32    -0.232105709626E+04   -0.48575E-04   -0.15185E-05  2949   0.365E-03    0.811E-03
RMM:  33    -0.232105712038E+04   -0.24120E-04   -0.14332E-05  2956   0.313E-03    0.423E-03
RMM:  34    -0.232105712476E+04   -0.43829E-05   -0.63664E-06  2622   0.275E-03
   1 F= -.23424577E+04 E0= -.23424577E+04  d E =-.234246E+04  mag=     2.0001
       N       E                     dE             d eps       ncg     rms          rms(c)
DAV:   1    -0.232019915441E+04    0.85797E+00   -0.92685E+01  4784   0.668E+00    0.323E+00
RMM:   2    -0.232083009461E+04   -0.63094E+00   -0.87837E+00  6571   0.144E+00    0.297E+00
RMM:   3    -0.232090683363E+04   -0.76739E-01   -0.97486E-01  6409   0.510E-01    0.363E+00
RMM:   4    -0.232074878094E+04    0.15805E+00   -0.19897E-01  6481   0.201E-01    0.145E+00
RMM:   5    -0.232074377369E+04    0.50073E-02   -0.96912E-02  6317   0.129E-01    0.150E+00
RMM:   6    -0.232072321259E+04    0.20561E-01   -0.47727E-02  6180   0.911E-02    0.760E-01
RMM:   7    -0.232072247391E+04    0.73868E-03   -0.17245E-02  6204   0.541E-02    0.672E-01
RMM:   8    -0.232071649532E+04    0.59786E-02   -0.42555E-03  5874   0.307E-02    0.111E-01
RMM:   9    -0.232071660860E+04   -0.11328E-03   -0.76654E-04  4067   0.105E-02    0.612E-02
RMM:  10    -0.232071675978E+04   -0.15118E-03   -0.22997E-04  3794   0.961E-03    0.409E-02
RMM:  11    -0.232071683736E+04   -0.77585E-04   -0.93116E-05  3427   0.658E-03    0.313E-02
RMM:  12    -0.232071692700E+04   -0.89637E-04   -0.79377E-05  3203   0.629E-03    0.195E-02
RMM:  13    -0.232071698487E+04   -0.57869E-04   -0.56720E-05  3098   0.562E-03    0.872E-03
RMM:  14    -0.232071700669E+04   -0.21820E-04   -0.21080E-05  2940   0.445E-03    0.483E-03
RMM:  15    -0.232071701736E+04   -0.10671E-04   -0.73215E-06  2881   0.297E-03    0.369E-03
RMM:  16    -0.232071702458E+04   -0.72218E-05   -0.44901E-06  2630   0.223E-03
   2 F= -.23421321E+04 E0= -.23421321E+04  d E =0.325524E+00  mag=     2.0000
       N       E                     dE             d eps       ncg     rms          rms(c)
DAV:   1    -0.232115854213E+04   -0.44152E+00   -0.34669E+01  4728   0.359E+00    0.190E+00
RMM:   2    -0.232135787246E+04   -0.19933E+00   -0.30980E+00  6533   0.981E-01    0.122E+00
RMM:   3    -0.232137809806E+04   -0.20226E-01   -0.31849E-01  6209   0.310E-01    0.177E+00
RMM:   4    -0.232135303828E+04    0.25060E-01   -0.63302E-02  6285   0.123E-01    0.107E+00
RMM:   5    -0.232134899235E+04    0.40459E-02   -0.37162E-02  6165   0.776E-02    0.849E-01
RMM:   6    -0.232133904048E+04    0.99519E-02   -0.12035E-02  5993   0.536E-02    0.165E-01
RMM:   7    -0.232133997136E+04   -0.93088E-03   -0.29916E-03  5519   0.210E-02    0.350E-01
RMM:   8    -0.232133866460E+04    0.13068E-02   -0.11755E-03  4507   0.145E-02    0.645E-02
RMM:   9    -0.232133862257E+04    0.42035E-04   -0.17973E-04  3113   0.690E-03    0.287E-02
RMM:  10    -0.232133861417E+04    0.83924E-05   -0.40663E-05  3009   0.493E-03
   3 F= -.23427447E+04 E0= -.23427447E+04  d E =-.287046E+00  mag=     2.0000
       N       E                     dE             d eps       ncg     rms          rms(c)
DAV:   1    -0.232122546791E+04    0.11315E+00   -0.22510E+01  4592   0.412E+00    0.144E+00
RMM:   2    -0.232170580806E+04   -0.48034E+00   -0.51236E+00  6655   0.113E+00    0.155E+00
RMM:   3    -0.232176971158E+04   -0.63904E-01   -0.65885E-01  6509   0.426E-01    0.198E+00
RMM:   4    -0.232173304423E+04    0.36667E-01   -0.55303E-02  6496   0.101E-01    0.617E-01
RMM:   5    -0.232173106316E+04    0.19811E-02   -0.10261E-02  6056   0.431E-02    0.592E-01
RMM:   6    -0.232172888705E+04    0.21761E-02   -0.55039E-03  5963   0.335E-02    0.475E-01
RMM:   7    -0.232172780682E+04    0.10802E-02   -0.61933E-03  5859   0.330E-02    0.380E-01
RMM:   8    -0.232172643073E+04    0.13761E-02   -0.30772E-03  5797   0.252E-02    0.887E-02
RMM:   9    -0.232172640136E+04    0.29366E-04   -0.28063E-04  3665   0.119E-02    0.626E-02
RMM:  10    -0.232172644905E+04   -0.47687E-04   -0.35945E-04  3940   0.101E-02    0.510E-02
RMM:  11    -0.232172653233E+04   -0.83278E-04   -0.97601E-05  3101   0.600E-03    0.306E-02
RMM:  12    -0.232172660168E+04   -0.69355E-04   -0.72963E-05  3038   0.522E-03    0.136E-02
RMM:  13    -0.232172664946E+04   -0.47779E-04   -0.25444E-05  2980   0.385E-03    0.711E-03
RMM:  14    -0.232172667533E+04   -0.25872E-04   -0.58909E-06  2783   0.263E-03    0.510E-03
RMM:  15    -0.232172669825E+04   -0.22913E-04   -0.41271E-06  2586   0.203E-03    0.322E-03
RMM:  16    -0.232172671263E+04   -0.14379E-04   -0.30906E-06  2613   0.190E-03    0.200E-03
RMM:  17    -0.232172671750E+04   -0.48757E-05   -0.16680E-06  2491   0.155E-03
   4 F= -.23431401E+04 E0= -.23431401E+04  d E =-.395441E+00  mag=     2.0000
       N       E                     dE             d eps       ncg     rms          rms(c)
DAV:   1    -0.232116358442E+04    0.56313E+00   -0.32749E+01  4528   0.489E+00    0.172E+00
RMM:   2    -0.232185487937E+04   -0.69129E+00   -0.74413E+00  6675   0.133E+00    0.163E+00
RMM:   3    -0.232195254185E+04   -0.97662E-01   -0.93827E-01  6532   0.507E-01    0.227E+00
RMM:   4    -0.232190337055E+04    0.49171E-01   -0.81220E-02  6551   0.120E-01    0.717E-01
RMM:   5    -0.232190018262E+04    0.31879E-02   -0.14483E-02  6190   0.489E-02    0.641E-01
RMM:   6    -0.232189749147E+04    0.26911E-02   -0.80261E-03  5953   0.397E-02    0.517E-01
RMM:   7    -0.232189750063E+04   -0.91615E-05   -0.90205E-03  5949   0.383E-02    0.606E-01
RMM:   8    -0.232189413469E+04    0.33659E-02   -0.46882E-03  5922   0.305E-02    0.109E-01
RMM:   9    -0.232189401056E+04    0.12413E-03   -0.45718E-04  4194   0.135E-02    0.646E-02
RMM:  10    -0.232189402537E+04   -0.14809E-04   -0.45178E-04  3907   0.118E-02    0.335E-02
RMM:  11    -0.232189412319E+04   -0.97822E-04   -0.95313E-05  3150   0.580E-03    0.212E-02
RMM:  12    -0.232189418262E+04   -0.59426E-04   -0.22931E-05  2929   0.431E-03    0.133E-02
RMM:  13    -0.232189423105E+04   -0.48430E-04   -0.19173E-05  2965   0.331E-03    0.611E-03
RMM:  14    -0.232189425214E+04   -0.21097E-04   -0.49122E-06  2821   0.268E-03    0.418E-03
RMM:  15    -0.232189426879E+04   -0.16649E-04   -0.35097E-06  2590   0.185E-03    0.276E-03
RMM:  16    -0.232189427945E+04   -0.10654E-04   -0.25095E-06  2615   0.185E-03    0.162E-03
RMM:  17    -0.232189428303E+04   -0.35864E-05   -0.14140E-06  2475   0.143E-03
   5 F= -.23433171E+04 E0= -.23433171E+04  d E =-.572361E+00  mag=     2.0000
       N       E                     dE             d eps       ncg     rms          rms(c)
DAV:   1    -0.232202586128E+04   -0.13158E+00   -0.23948E+01  4520   0.406E+00    0.120E+00
RMM:   2    -0.232218947093E+04   -0.16361E+00   -0.17911E+00  6410   0.846E-01    0.971E-01
RMM:   3    -0.232221317583E+04   -0.23705E-01   -0.21729E-01  6260   0.303E-01    0.134E+00
RMM:   4    -0.232219283900E+04    0.20337E-01   -0.23250E-02  6512   0.828E-02    0.359E-01
RMM:   5    -0.232219348343E+04   -0.64443E-03   -0.88970E-03  5243   0.475E-02    0.544E-01
RMM:   6    -0.232219112608E+04    0.23573E-02   -0.51477E-03  5962   0.382E-02    0.233E-01
RMM:   7    -0.232219121161E+04   -0.85524E-04   -0.17816E-03  5536   0.213E-02    0.211E-01
RMM:   8    -0.232219059824E+04    0.61336E-03   -0.49815E-04  4265   0.122E-02    0.370E-02
RMM:   9    -0.232219057322E+04    0.25024E-04   -0.94676E-05  3148   0.601E-03    0.203E-02
RMM:  10    -0.232219056700E+04    0.62141E-05   -0.28796E-05  2983   0.505E-03
   6 F= -.23436149E+04 E0= -.23436149E+04  d E =-.297804E+00  mag=     2.0000
       N       E                     dE             d eps       ncg     rms          rms(c)
DAV:   1    -0.232170579047E+04    0.48478E+00   -0.10384E+02  4504   0.856E+00    0.257E+00
RMM:   2    -0.232246338808E+04   -0.75760E+00   -0.83151E+00  6443   0.181E+00    0.204E+00
RMM:   3    -0.232256107507E+04   -0.97687E-01   -0.92755E-01  6287   0.614E-01    0.281E+00
RMM:   4    -0.232247243465E+04    0.88640E-01   -0.10092E-01  6602   0.174E-01    0.836E-01
RMM:   5    -0.232247581490E+04   -0.33803E-02   -0.37952E-02  5669   0.906E-02    0.117E+00
RMM:   6    -0.232246433849E+04    0.11476E-01   -0.24304E-02  6038   0.791E-02    0.498E-01
RMM:   7    -0.232246420807E+04    0.13042E-03   -0.96091E-03  6072   0.536E-02    0.411E-01
RMM:   8    -0.232246175029E+04    0.24578E-02   -0.27300E-03  5866   0.279E-02    0.952E-02
RMM:   9    -0.232246163999E+04    0.11030E-03   -0.49757E-04  4398   0.118E-02    0.493E-02
RMM:  10    -0.232246161625E+04    0.23740E-04   -0.14463E-04  4183   0.928E-03    0.204E-02
RMM:  11    -0.232246161587E+04    0.38347E-06   -0.36427E-05  3273   0.601E-03
   7 F= -.23438895E+04 E0= -.23438895E+04  d E =-.572405E+00  mag=     2.0000
       N       E                     dE             d eps       ncg     rms          rms(c)
DAV:   1    -0.232255324906E+04   -0.91633E-01   -0.88379E+00  4580   0.255E+00    0.829E-01
RMM:   2    -0.232263541774E+04   -0.82169E-01   -0.86957E-01  6449   0.564E-01    0.754E-01
RMM:   3    -0.232264379600E+04   -0.83783E-02   -0.10103E-01  6343   0.204E-01    0.884E-01
RMM:   4    -0.232263511304E+04    0.86830E-02   -0.10492E-02  6295   0.554E-02    0.251E-01
RMM:   5    -0.232263586439E+04   -0.75135E-03   -0.37269E-03  5541   0.296E-02    0.407E-01
RMM:   6    -0.232263416092E+04    0.17035E-02   -0.22538E-03  5678   0.264E-02    0.783E-02
RMM:   7    -0.232263411504E+04    0.45878E-04   -0.33488E-04  4490   0.135E-02    0.330E-02
RMM:   8    -0.232263411117E+04    0.38716E-05   -0.78584E-05  3201   0.688E-03
   8 F= -.23440625E+04 E0= -.23440625E+04  d E =-.173052E+00  mag=     2.0000
       N       E                     dE             d eps       ncg     rms          rms(c)
DAV:   1    -0.232235488360E+04    0.27923E+00   -0.49678E+01  4504   0.604E+00    0.200E+00
RMM:   2    -0.232282839378E+04   -0.47351E+00   -0.50128E+00  6446   0.139E+00    0.180E+00
RMM:   3    -0.232287124764E+04   -0.42854E-01   -0.58419E-01  6355   0.492E-01    0.201E+00
RMM:   4    -0.232282499166E+04    0.46256E-01   -0.60033E-02  6459   0.133E-01    0.611E-01
RMM:   5    -0.232282814208E+04   -0.31504E-02   -0.20496E-02  5904   0.688E-02    0.892E-01
RMM:   6    -0.232281959072E+04    0.85514E-02   -0.12191E-02  5777   0.590E-02    0.237E-01
RMM:   7    -0.232281909370E+04    0.49703E-03   -0.23090E-03  5175   0.351E-02    0.100E-01
RMM:   8    -0.232281902243E+04    0.71272E-04   -0.55563E-04  4784   0.170E-02    0.862E-02
RMM:   9    -0.232281889405E+04    0.12838E-03   -0.21912E-04  4332   0.105E-02    0.491E-02
RMM:  10    -0.232281882905E+04    0.65000E-04   -0.13821E-04  4269   0.820E-03    0.152E-02
RMM:  11    -0.232281881714E+04    0.11908E-04   -0.25786E-05  3062   0.609E-03    0.945E-03
RMM:  12    -0.232281881679E+04    0.35025E-06   -0.21173E-05  3026   0.473E-03
   9 F= -.23442491E+04 E0= -.23442491E+04  d E =-.359640E+00  mag=     2.0000
       N       E                     dE             d eps       ncg     rms          rms(c)
DAV:   1    -0.232293012883E+04   -0.11131E+00   -0.26947E+00  4776   0.145E+00    0.513E-01
RMM:   2    -0.232298467395E+04   -0.54545E-01   -0.58384E-01  6548   0.381E-01    0.381E-01
RMM:   3    -0.232299019691E+04   -0.55230E-02   -0.72605E-02  6328   0.156E-01    0.426E-01
RMM:   4    -0.232298893792E+04    0.12590E-02   -0.65982E-03  5805   0.323E-02    0.223E-01
RMM:   5    -0.232298901034E+04   -0.72424E-04   -0.16486E-03  5402   0.193E-02    0.268E-01
RMM:   6    -0.232298837015E+04    0.64019E-03   -0.13077E-03  5146   0.196E-02    0.125E-01
RMM:   7    -0.232298832630E+04    0.43855E-04   -0.55555E-04  4789   0.121E-02    0.951E-02
RMM:   8    -0.232298819421E+04    0.13209E-03   -0.14283E-04  3009   0.761E-03    0.230E-02
RMM:   9    -0.232298818584E+04    0.83694E-05   -0.24957E-05  2965   0.425E-03
  10 F= -.23444194E+04 E0= -.23444194E+04  d E =-.170341E+00  mag=     2.0000
       N       E                     dE             d eps       ncg     rms          rms(c)
DAV:   1    -0.232277884126E+04    0.20935E+00   -0.24547E+01  4600   0.431E+00    0.159E+00
RMM:   2    -0.232328447931E+04   -0.50564E+00   -0.53619E+00  6573   0.113E+00    0.131E+00
RMM:   3    -0.232332237108E+04   -0.37892E-01   -0.65042E-01  6422   0.458E-01    0.125E+00
RMM:   4    -0.232330856796E+04    0.13803E-01   -0.60190E-02  6531   0.100E-01    0.709E-01
RMM:   5    -0.232330612340E+04    0.24446E-02   -0.13786E-02  5897   0.540E-02    0.675E-01
RMM:   6    -0.232330381610E+04    0.23073E-02   -0.12821E-02  6064   0.556E-02    0.513E-01
RMM:   7    -0.232330279230E+04    0.10238E-02   -0.59730E-03  5887   0.355E-02    0.335E-01
RMM:   8    -0.232330117532E+04    0.16170E-02   -0.17208E-03  5193   0.217E-02    0.888E-02
RMM:   9    -0.232330104574E+04    0.12958E-03   -0.27081E-04  4229   0.830E-03    0.529E-02
RMM:  10    -0.232330099094E+04    0.54805E-04   -0.17219E-04  3162   0.943E-03    0.153E-02
RMM:  11    -0.232330098681E+04    0.41254E-05   -0.48005E-05  3016   0.532E-03
  11 F= -.23447360E+04 E0= -.23447360E+04  d E =-.486888E+00  mag=     2.0000
       N       E                     dE             d eps       ncg     rms          rms(c)
DAV:   1    -0.232083013026E+04    0.24709E+01   -0.10023E+02  4560   0.848E+00    0.341E+00
RMM:   2    -0.232312891878E+04   -0.22988E+01   -0.23520E+01  6614   0.231E+00    0.377E+00
RMM:   3    -0.232307449532E+04    0.54423E-01   -0.25334E+00  6370   0.885E-01    0.254E+00
RMM:   4    -0.232301757886E+04    0.56916E-01   -0.27533E-01  6295   0.210E-01    0.164E+00
RMM:   5    -0.232300071773E+04    0.16861E-01   -0.61954E-02  6242   0.114E-01    0.132E+00
RMM:   6    -0.232298643056E+04    0.14287E-01   -0.66138E-02  5866   0.121E-01    0.941E-01
RMM:   7    -0.232298722758E+04   -0.79702E-03   -0.23252E-02  5695   0.754E-02    0.826E-01
RMM:   8    -0.232297861932E+04    0.86083E-02   -0.65369E-03  5854   0.379E-02    0.151E-01
RMM:   9    -0.232297813519E+04    0.48413E-03   -0.11415E-03  5174   0.164E-02    0.931E-02
RMM:  10    -0.232297796919E+04    0.16600E-03   -0.63424E-04  4396   0.151E-02    0.279E-02
RMM:  11    -0.232297795107E+04    0.18123E-04   -0.12579E-04  3446   0.774E-03    0.147E-02
RMM:  12    -0.232297794756E+04    0.35056E-05   -0.24981E-05  2977   0.544E-03
  12 F= -.23444219E+04 E0= -.23444219E+04  d E =-.172775E+00  mag=     2.0001
       N       E                     dE             d eps       ncg     rms          rms(c)
DAV:   1    -0.232216800268E+04    0.80995E+00   -0.55972E+01  4516   0.608E+00    0.248E+00
RMM:   2    -0.232331709835E+04   -0.11491E+01   -0.12193E+01  6587   0.172E+00    0.229E+00
RMM:   3    -0.232341055176E+04   -0.93453E-01   -0.14743E+00  6442   0.660E-01    0.242E+00
RMM:   4    -0.232335862004E+04    0.51932E-01   -0.13287E-01  6210   0.152E-01    0.104E+00
RMM:   5    -0.232335534050E+04    0.32795E-02   -0.36981E-02  6324   0.889E-02    0.100E+00
RMM:   6    -0.232335123379E+04    0.41067E-02   -0.34975E-02  6350   0.867E-02    0.847E-01
RMM:   7    -0.232334454384E+04    0.66900E-02   -0.12625E-02  6162   0.523E-02    0.400E-01
RMM:   8    -0.232334269420E+04    0.18496E-02   -0.34639E-03  5948   0.280E-02    0.180E-01
RMM:   9    -0.232334225738E+04    0.43682E-03   -0.60010E-04  4624   0.129E-02    0.633E-02
RMM:  10    -0.232334216872E+04    0.88652E-04   -0.35372E-04  4257   0.114E-02    0.306E-02
RMM:  11    -0.232334217348E+04   -0.47531E-05   -0.60823E-05  3272   0.605E-03
  13 F= -.23447793E+04 E0= -.23447793E+04  d E =-.530245E+00  mag=     2.0000
       N       E                     dE             d eps       ncg     rms          rms(c)
DAV:   1    -0.232343500949E+04   -0.92841E-01   -0.51270E+00  4560   0.182E+00    0.700E-01
RMM:   2    -0.232348370551E+04   -0.48696E-01   -0.56061E-01  6474   0.408E-01    0.517E-01
RMM:   3    -0.232349132454E+04   -0.76190E-02   -0.75054E-02  6111   0.163E-01    0.766E-01
RMM:   4    -0.232348574628E+04    0.55783E-02   -0.80460E-03  5957   0.433E-02    0.264E-01
RMM:   5    -0.232348585934E+04   -0.11306E-03   -0.46146E-03  5901   0.311E-02    0.295E-01
RMM:   6    -0.232348469412E+04    0.11652E-02   -0.23876E-03  5668   0.244E-02    0.687E-02
RMM:   7    -0.232348463656E+04    0.57567E-04   -0.22039E-04  3347   0.813E-03    0.409E-02
RMM:   8    -0.232348465174E+04   -0.15185E-04   -0.79561E-05  2953   0.602E-03    0.529E-02
RMM:   9    -0.232348461877E+04    0.32977E-04   -0.26469E-05  2927   0.422E-03    0.106E-02
RMM:  10    -0.232348461766E+04    0.11007E-05   -0.10209E-05  2934   0.308E-03
  14 F= -.23449219E+04 E0= -.23449219E+04  d E =-.142538E+00  mag=     2.0000
       N       E                     dE             d eps       ncg     rms          rms(c)
DAV:   1    -0.232345599637E+04    0.28622E-01   -0.12689E+01  4528   0.290E+00    0.112E+00
RMM:   2    -0.232357403975E+04   -0.11804E+00   -0.13883E+00  6466   0.658E-01    0.792E-01
RMM:   3    -0.232359193606E+04   -0.17896E-01   -0.18405E-01  6167   0.257E-01    0.118E+00
RMM:   4    -0.232357895126E+04    0.12985E-01   -0.20325E-02  6355   0.688E-02    0.446E-01
RMM:   5    -0.232357926648E+04   -0.31521E-03   -0.11885E-02  6123   0.490E-02    0.489E-01
RMM:   6    -0.232357602705E+04    0.32394E-02   -0.60521E-03  6134   0.385E-02    0.124E-01
RMM:   7    -0.232357620320E+04   -0.17614E-03   -0.96476E-04  4775   0.143E-02    0.187E-01
RMM:   8    -0.232357582014E+04    0.38306E-03   -0.40968E-04  3365   0.940E-03    0.442E-02
RMM:   9    -0.232357579375E+04    0.26389E-04   -0.73182E-05  3156   0.576E-03    0.174E-02
RMM:  10    -0.232357578902E+04    0.47297E-05   -0.17910E-05  2944   0.444E-03
  15 F= -.23450133E+04 E0= -.23450133E+04  d E =-.233906E+00  mag=     2.0000
       N       E                     dE             d eps       ncg     rms          rms(c)
DAV:   1    -0.232362065001E+04   -0.44856E-01   -0.17633E+00  4640   0.127E+00    0.411E-01
RMM:   2    -0.232364134066E+04   -0.20691E-01   -0.21570E-01  6384   0.280E-01    0.414E-01
RMM:   3    -0.232364290853E+04   -0.15679E-02   -0.23238E-02  6169   0.102E-01    0.419E-01
RMM:   4    -0.232364114761E+04    0.17609E-02   -0.25219E-03  5473   0.299E-02    0.140E-01
RMM:   5    -0.232364121675E+04   -0.69141E-04   -0.11902E-03  5619   0.227E-02    0.149E-01
RMM:   6    -0.232364093435E+04    0.28239E-03   -0.66523E-04  5435   0.153E-02    0.483E-02
RMM:   7    -0.232364090470E+04    0.29651E-04   -0.66967E-05  3078   0.674E-03    0.254E-02
RMM:   8    -0.232364090809E+04   -0.33874E-05   -0.31673E-05  2928   0.485E-03
  16 F= -.23450793E+04 E0= -.23450793E+04  d E =-.660342E-01  mag=     2.0000
       N       E                     dE             d eps       ncg     rms          rms(c)
DAV:   1    -0.232354086147E+04    0.10004E+00   -0.15868E+01  4516   0.380E+00    0.123E+00
RMM:   2    -0.232372701379E+04   -0.18615E+00   -0.19502E+00  6372   0.849E-01    0.119E+00
RMM:   3    -0.232374312351E+04   -0.16110E-01   -0.21224E-01  6276   0.311E-01    0.128E+00
RMM:   4    -0.232372641345E+04    0.16710E-01   -0.22502E-02  5572   0.890E-02    0.407E-01
RMM:   5    -0.232372643076E+04   -0.17313E-04   -0.10223E-02  5694   0.674E-02    0.381E-01
RMM:   6    -0.232372478776E+04    0.16430E-02   -0.50361E-03  6201   0.423E-02    0.171E-01
RMM:   7    -0.232372437207E+04    0.41569E-03   -0.56814E-04  5235   0.163E-02    0.603E-02
RMM:   8    -0.232372442966E+04   -0.57590E-04   -0.23618E-04  3588   0.102E-02    0.932E-02
RMM:   9    -0.232372432530E+04    0.10436E-03   -0.93702E-05  3085   0.674E-03    0.212E-02
RMM:  10    -0.232372431967E+04    0.56285E-05   -0.43218E-05  3094   0.541E-03
  17 F= -.23451655E+04 E0= -.23451655E+04  d E =-.152206E+00  mag=     2.0000
       N       E                     dE             d eps       ncg     rms          rms(c)
DAV:   1    -0.232375159843E+04   -0.27273E-01   -0.54849E+00  4528   0.229E+00    0.742E-01
RMM:   2    -0.232379710287E+04   -0.45504E-01   -0.48672E-01  6308   0.467E-01    0.573E-01
RMM:   3    -0.232380382183E+04   -0.67190E-02   -0.53588E-02  6126   0.168E-01    0.808E-01
RMM:   4    -0.232379710239E+04    0.67194E-02   -0.65595E-03  6048   0.485E-02    0.210E-01
RMM:   5    -0.232379781670E+04   -0.71431E-03   -0.30749E-03  5639   0.316E-02    0.324E-01
RMM:   6    -0.232379656729E+04    0.12494E-02   -0.15158E-03  5857   0.225E-02    0.824E-02
RMM:   7    -0.232379649561E+04    0.71675E-04   -0.21281E-04  4178   0.104E-02    0.324E-02
RMM:   8    -0.232379649182E+04    0.37935E-05   -0.69004E-05  2984   0.664E-03
  18 F= -.23452385E+04 E0= -.23452385E+04  d E =-.730276E-01  mag=     2.0000
       N       E                     dE             d eps       ncg     rms          rms(c)
DAV:   1    -0.232377145096E+04    0.25045E-01   -0.64701E+00  4528   0.248E+00    0.808E-01
RMM:   2    -0.232382551933E+04   -0.54068E-01   -0.57633E-01  6303   0.508E-01    0.646E-01
RMM:   3    -0.232383303807E+04   -0.75187E-02   -0.62602E-02  6151   0.179E-01    0.883E-01
RMM:   4    -0.232382505256E+04    0.79855E-02   -0.77651E-03  6026   0.524E-02    0.231E-01
RMM:   5    -0.232382596847E+04   -0.91591E-03   -0.37167E-03  5733   0.344E-02    0.363E-01
RMM:   6    -0.232382434918E+04    0.16193E-02   -0.18840E-03  5945   0.249E-02    0.872E-02
RMM:   7    -0.232382427107E+04    0.78110E-04   -0.29090E-04  4445   0.121E-02    0.447E-02
RMM:   8    -0.232382425294E+04    0.18124E-04   -0.99958E-05  3039   0.727E-03    0.336E-02
RMM:   9    -0.232382422986E+04    0.23078E-04   -0.29136E-05  2946   0.472E-03    0.116E-02
RMM:  10    -0.232382422551E+04    0.43533E-05   -0.19189E-05  2961   0.438E-03
  19 F= -.23452671E+04 E0= -.23452671E+04  d E =-.101671E+00  mag=     2.0000
       N       E                     dE             d eps       ncg     rms          rms(c)
DAV:   1    -0.232380569110E+04    0.18539E-01   -0.41851E+00  4544   0.211E+00    0.662E-01
RMM:   2    -0.232386622763E+04   -0.60537E-01   -0.64892E-01  6424   0.482E-01    0.446E-01
RMM:   3    -0.232387372571E+04   -0.74981E-02   -0.76653E-02  6238   0.188E-01    0.632E-01
RMM:   4    -0.232386939417E+04    0.43315E-02   -0.71925E-03  6353   0.455E-02    0.212E-01
RMM:   5    -0.232386971233E+04   -0.31817E-03   -0.24633E-03  5408   0.285E-02    0.318E-01
RMM:   6    -0.232386868348E+04    0.10289E-02   -0.15856E-03  5594   0.239E-02    0.137E-01
RMM:   7    -0.232386859965E+04    0.83827E-04   -0.57618E-04  4978   0.136E-02    0.974E-02
RMM:   8    -0.232386846652E+04    0.13313E-03   -0.17113E-04  3403   0.889E-03    0.234E-02
RMM:   9    -0.232386845507E+04    0.11454E-04   -0.33428E-05  3009   0.515E-03    0.117E-02
RMM:  10    -0.232386845438E+04    0.68631E-06   -0.21132E-05  2964   0.473E-03
  20 F= -.23453126E+04 E0= -.23453126E+04  d E =-.455094E-01  mag=     2.0000
       N       E                     dE             d eps       ncg     rms          rms(c)
DAV:   1    -0.232385012114E+04    0.18334E-01   -0.17628E+00  4640   0.136E+00    0.428E-01
RMM:   2    -0.232387527100E+04   -0.25150E-01   -0.26891E-01  6431   0.311E-01    0.295E-01
RMM:   3    -0.232387824612E+04   -0.29751E-02   -0.31360E-02  6231   0.121E-01    0.400E-01
RMM:   4    -0.232387647418E+04    0.17719E-02   -0.30066E-03  5973   0.296E-02    0.136E-01
RMM:   5    -0.232387657750E+04   -0.10331E-03   -0.10603E-03  5356   0.195E-02    0.199E-01
RMM:   6    -0.232387616605E+04    0.41145E-03   -0.67090E-04  4922   0.159E-02    0.907E-02
RMM:   7    -0.232387613101E+04    0.35043E-04   -0.24085E-04  3810   0.945E-03    0.659E-02
RMM:   8    -0.232387607063E+04    0.60372E-04   -0.71576E-05  2982   0.693E-03    0.144E-02
RMM:   9    -0.232387606636E+04    0.42712E-05   -0.17561E-05  2935   0.420E-03
  21 F= -.23453211E+04 E0= -.23453211E+04  d E =-.539249E-01  mag=     2.0000
       N       E                     dE             d eps       ncg     rms          rms(c)
DAV:   1    -0.232386630294E+04    0.97677E-02   -0.23422E+00  4528   0.154E+00    0.501E-01
RMM:   2    -0.232389725188E+04   -0.30949E-01   -0.33850E-01  6457   0.344E-01    0.235E-01
RMM:   3    -0.232389938403E+04   -0.21321E-02   -0.35200E-02  5870   0.130E-01    0.211E-01
RMM:   4    -0.232389976824E+04   -0.38421E-03   -0.38401E-03  5459   0.300E-02    0.235E-01
RMM:   5    -0.232389915573E+04    0.61251E-03   -0.10577E-03  5283   0.185E-02    0.106E-01
RMM:   6    -0.232389915952E+04   -0.37897E-05   -0.49326E-04  4670   0.148E-02    0.958E-02
RMM:   7    -0.232389904251E+04    0.11701E-03   -0.15679E-04  3444   0.849E-03    0.387E-02
RMM:   8    -0.232389903805E+04    0.44602E-05   -0.49489E-05  2922   0.566E-03
  22 F= -.23453455E+04 E0= -.23453455E+04  d E =-.244254E-01  mag=     2.0000
       N       E                     dE             d eps       ncg     rms          rms(c)
DAV:   1    -0.232388682832E+04    0.12214E-01   -0.11424E+00  4592   0.107E+00    0.351E-01
RMM:   2    -0.232390188078E+04   -0.15052E-01   -0.16474E-01  6461   0.239E-01    0.168E-01
RMM:   3    -0.232390288062E+04   -0.99984E-03   -0.16908E-02  5853   0.898E-02    0.120E-01
RMM:   4    -0.232390304606E+04   -0.16545E-03   -0.18347E-03  5317   0.218E-02    0.153E-01
RMM:   5    -0.232390281275E+04    0.23331E-03   -0.56689E-04  4974   0.144E-02    0.856E-02
RMM:   6    -0.232390278644E+04    0.26315E-04   -0.22536E-04  3607   0.932E-03    0.704E-02
RMM:   7    -0.232390273269E+04    0.53749E-04   -0.80005E-05  2958   0.701E-03    0.194E-02
RMM:   8    -0.232390273559E+04   -0.29046E-05   -0.20764E-05  2913   0.425E-03
  23 F= -.23453502E+04 E0= -.23453502E+04  d E =-.291048E-01  mag=     2.0000
       N       E                     dE             d eps       ncg     rms          rms(c)
DAV:   1    -0.232389261017E+04    0.10123E-01   -0.23762E+00  4528   0.152E+00    0.505E-01
RMM:   2    -0.232392377025E+04   -0.31160E-01   -0.32928E-01  6469   0.328E-01    0.422E-01
RMM:   3    -0.232392623409E+04   -0.24638E-02   -0.32535E-02  6335   0.116E-01    0.443E-01
RMM:   4    -0.232392376186E+04    0.24722E-02   -0.37985E-03  5983   0.329E-02    0.171E-01
RMM:   5    -0.232392394588E+04   -0.18402E-03   -0.14004E-03  5405   0.217E-02    0.204E-01
RMM:   6    -0.232392351740E+04    0.42848E-03   -0.75659E-04  5224   0.158E-02    0.110E-01
RMM:   7    -0.232392348394E+04    0.33457E-04   -0.31269E-04  3243   0.996E-03    0.824E-02
RMM:   8    -0.232392340254E+04    0.81397E-04   -0.78338E-05  2939   0.659E-03    0.146E-02
RMM:   9    -0.232392340080E+04    0.17434E-05   -0.16394E-05  2943   0.341E-03
  24 F= -.23453708E+04 E0= -.23453708E+04  d E =-.206546E-01  mag=     2.0000
       N       E                     dE             d eps       ncg     rms          rms(c)
DAV:   1    -0.232391272914E+04    0.10673E-01   -0.11657E+00  4544   0.106E+00    0.353E-01
RMM:   2    -0.232392789919E+04   -0.15170E-01   -0.16129E-01  6471   0.230E-01    0.283E-01
RMM:   3    -0.232392922151E+04   -0.13223E-02   -0.15817E-02  6247   0.803E-02    0.310E-01
RMM:   4    -0.232392800606E+04    0.12154E-02   -0.18696E-03  5746   0.232E-02    0.119E-01
RMM:   5    -0.232392806144E+04   -0.55372E-04   -0.69274E-04  4801   0.158E-02    0.131E-01
RMM:   6    -0.232392788639E+04    0.17504E-03   -0.35260E-04  4317   0.114E-02    0.774E-02
RMM:   7    -0.232392787008E+04    0.16315E-04   -0.14921E-04  2973   0.764E-03    0.609E-02
RMM:   8    -0.232392782790E+04    0.42182E-04   -0.40782E-05  2917   0.512E-03    0.105E-02
RMM:   9    -0.232392782674E+04    0.11567E-05   -0.87342E-06  2927   0.273E-03
  25 F= -.23453752E+04 E0= -.23453752E+04  d E =-.250603E-01  mag=     2.0000
       N       E                     dE             d eps       ncg     rms          rms(c)
DAV:   1    -0.232392034803E+04    0.74799E-02   -0.16951E+00  4528   0.126E+00    0.434E-01
RMM:   2    -0.232394973690E+04   -0.29389E-01   -0.27005E-01  6556   0.286E-01    0.651E-01
RMM:   3    -0.232394702644E+04    0.27105E-02   -0.28297E-02  6353   0.101E-01    0.293E-01
RMM:   4    -0.232394622811E+04    0.79833E-03   -0.32534E-03  5145   0.253E-02    0.180E-01
RMM:   5    -0.232394607246E+04    0.15565E-03   -0.72079E-04  4191   0.148E-02    0.153E-01
RMM:   6    -0.232394592926E+04    0.14320E-03   -0.64494E-04  5033   0.146E-02    0.116E-01
RMM:   7    -0.232394580577E+04    0.12350E-03   -0.30113E-04  3409   0.118E-02    0.434E-02
RMM:   8    -0.232394578103E+04    0.24739E-04   -0.40499E-05  2958   0.530E-03    0.125E-02
RMM:   9    -0.232394577863E+04    0.23996E-05   -0.82740E-06  2915   0.331E-03
  26 F= -.23453933E+04 E0= -.23453933E+04  d E =-.180757E-01  mag=     2.0000
       N       E                     dE             d eps       ncg     rms          rms(c)
DAV:   1    -0.232389717740E+04    0.48604E-01   -0.39448E+00  4504   0.192E+00    0.665E-01
RMM:   2    -0.232396577546E+04   -0.68598E-01   -0.63111E-01  6558   0.441E-01    0.990E-01
RMM:   3    -0.232395937491E+04    0.64005E-02   -0.66136E-02  6397   0.156E-01    0.451E-01
RMM:   4    -0.232395759718E+04    0.17777E-02   -0.77355E-03  5576   0.389E-02    0.289E-01
RMM:   5    -0.232395709639E+04    0.50079E-03   -0.17409E-03  5322   0.217E-02    0.228E-01
RMM:   6    -0.232395683237E+04    0.26402E-03   -0.14897E-03  5335   0.210E-02    0.185E-01
RMM:   7    -0.232395649618E+04    0.33620E-03   -0.74010E-04  4600   0.173E-02    0.637E-02
RMM:   8    -0.232395644267E+04    0.53506E-04   -0.93465E-05  3103   0.637E-03    0.191E-02
RMM:   9    -0.232395643747E+04    0.51993E-05   -0.16380E-05  2937   0.459E-03
  27 F= -.23454042E+04 E0= -.23454042E+04  d E =-.289311E-01  mag=     2.0000
       N       E                     dE             d eps       ncg     rms          rms(c)
DAV:   1    -0.232395058540E+04    0.58573E-02   -0.17681E+00  4528   0.128E+00    0.428E-01
RMM:   2    -0.232397565822E+04   -0.25073E-01   -0.24578E-01  6503   0.280E-01    0.487E-01
RMM:   3    -0.232397613790E+04   -0.47968E-03   -0.25750E-02  6285   0.100E-01    0.356E-01
RMM:   4    -0.232397486599E+04    0.12719E-02   -0.29042E-03  5230   0.267E-02    0.175E-01
RMM:   5    -0.232397482264E+04    0.43352E-04   -0.84748E-04  4653   0.161E-02    0.170E-01
RMM:   6    -0.232397458223E+04    0.24041E-03   -0.64584E-04  4862   0.153E-02    0.992E-02
RMM:   7    -0.232397450613E+04    0.76097E-04   -0.26358E-04  3244   0.115E-02    0.468E-02
RMM:   8    -0.232397447578E+04    0.30348E-04   -0.36817E-05  2932   0.518E-03    0.120E-02
RMM:   9    -0.232397447337E+04    0.24115E-05   -0.88003E-06  2916   0.314E-03
  28 F= -.23454221E+04 E0= -.23454221E+04  d E =-.179788E-01  mag=     2.0000
       N       E                     dE             d eps       ncg     rms          rms(c)
DAV:   1    -0.232389584310E+04    0.78633E-01   -0.68286E+00  4504   0.251E+00    0.839E-01
RMM:   2    -0.232399290826E+04   -0.97065E-01   -0.95446E-01  6501   0.554E-01    0.939E-01
RMM:   3    -0.232399504096E+04   -0.21327E-02   -0.10015E-01  6363   0.198E-01    0.704E-01
RMM:   4    -0.232399010082E+04    0.49401E-02   -0.11404E-02  5499   0.522E-02    0.358E-01
RMM:   5    -0.232398973342E+04    0.36740E-03   -0.31894E-03  5716   0.303E-02    0.326E-01
RMM:   6    -0.232398888702E+04    0.84640E-03   -0.24118E-03  5342   0.286E-02    0.197E-01
RMM:   7    -0.232398858173E+04    0.30529E-03   -0.10616E-03  4860   0.209E-02    0.932E-02
RMM:   8    -0.232398845741E+04    0.12432E-03   -0.14474E-04  3381   0.731E-03    0.239E-02
RMM:   9    -0.232398844714E+04    0.10264E-04   -0.30034E-05  2958   0.502E-03    0.137E-02
RMM:  10    -0.232398844276E+04    0.43845E-05   -0.21284E-05  2917   0.379E-03
  29 F= -.23454360E+04 E0= -.23454360E+04  d E =-.318308E-01  mag=     2.0000
       N       E                     dE             d eps       ncg     rms          rms(c)
DAV:   1    -0.232397305908E+04    0.15388E-01   -0.25298E+00  4504   0.144E+00    0.473E-01
RMM:   2    -0.232400563014E+04   -0.32571E-01   -0.33616E-01  6517   0.306E-01    0.411E-01
RMM:   3    -0.232400878732E+04   -0.31572E-02   -0.33339E-02  6316   0.108E-01    0.449E-01
RMM:   4    -0.232400666596E+04    0.21214E-02   -0.38917E-03  5604   0.290E-02    0.189E-01
RMM:   5    -0.232400681737E+04   -0.15141E-03   -0.11869E-03  4974   0.168E-02    0.210E-01
RMM:   6    -0.232400635770E+04    0.45967E-03   -0.86145E-04  5060   0.162E-02    0.906E-02
RMM:   7    -0.232400635217E+04    0.55314E-05   -0.29354E-04  3328   0.970E-03    0.671E-02
RMM:   8    -0.232400628761E+04    0.64556E-04   -0.71267E-05  2930   0.624E-03    0.166E-02
RMM:   9    -0.232400628491E+04    0.27028E-05   -0.15238E-05  2946   0.295E-03
  30 F= -.23454552E+04 E0= -.23454552E+04  d E =-.191761E-01  mag=     2.0000
       N       E                     dE             d eps       ncg     rms          rms(c)
DAV:   1    -0.232372442555E+04    0.28186E+00   -0.22700E+01  4504   0.431E+00    0.142E+00
RMM:   2    -0.232401876108E+04   -0.29434E+00   -0.30669E+00  6532   0.922E-01    0.113E+00
RMM:   3    -0.232405151491E+04   -0.32754E-01   -0.31348E-01  6432   0.330E-01    0.136E+00
RMM:   4    -0.232403158217E+04    0.19933E-01   -0.35710E-02  6245   0.860E-02    0.589E-01
RMM:   5    -0.232403198232E+04   -0.40015E-03   -0.96745E-03  6155   0.446E-02    0.601E-01
RMM:   6    -0.232402879408E+04    0.31882E-02   -0.78992E-03  5913   0.457E-02    0.312E-01
RMM:   7    -0.232402858167E+04    0.21241E-03   -0.29304E-03  5853   0.271E-02    0.215E-01
RMM:   8    -0.232402793685E+04    0.64482E-03   -0.81919E-04  4166   0.145E-02    0.589E-02
RMM:   9    -0.232402787933E+04    0.57519E-04   -0.13794E-04  3100   0.691E-03    0.315E-02
RMM:  10    -0.232402788005E+04   -0.71515E-06   -0.82327E-05  3003   0.626E-03
  31 F= -.23454806E+04 E0= -.23454806E+04  d E =-.445882E-01  mag=     2.0000
       N       E                     dE             d eps       ncg     rms          rms(c)
DAV:   1    -0.232399861353E+04    0.29266E-01   -0.49137E+00  4504   0.199E+00    0.691E-01
RMM:   2    -0.232405145273E+04   -0.52839E-01   -0.54855E-01  6433   0.417E-01    0.552E-01
RMM:   3    -0.232405653850E+04   -0.50858E-02   -0.54480E-02  6337   0.148E-01    0.601E-01
RMM:   4    -0.232405215958E+04    0.43789E-02   -0.68885E-03  6071   0.426E-02    0.262E-01
RMM:   5    -0.232405259950E+04   -0.43993E-03   -0.25311E-03  5588   0.258E-02    0.315E-01
RMM:   6    -0.232405162074E+04    0.97876E-03   -0.15723E-03  5482   0.215E-02    0.142E-01
RMM:   7    -0.232405156685E+04    0.53889E-04   -0.56775E-04  3913   0.129E-02    0.966E-02
RMM:   8    -0.232405144274E+04    0.12411E-03   -0.13201E-04  2974   0.718E-03    0.207E-02
RMM:   9    -0.232405143833E+04    0.44104E-05   -0.27484E-05  2967   0.397E-03
  32 F= -.23455060E+04 E0= -.23455060E+04  d E =-.254609E-01  mag=     2.0000
       N       E                     dE             d eps       ncg     rms          rms(c)
DAV:   1    -0.232400657972E+04    0.44863E-01   -0.49152E+00  4504   0.199E+00    0.691E-01
RMM:   2    -0.232405950240E+04   -0.52923E-01   -0.54910E-01  6421   0.417E-01    0.558E-01
RMM:   3    -0.232406457561E+04   -0.50732E-02   -0.54403E-02  6321   0.148E-01    0.606E-01
RMM:   4    -0.232406014280E+04    0.44328E-02   -0.68918E-03  6049   0.427E-02    0.261E-01
RMM:   5    -0.232406057277E+04   -0.42997E-03   -0.24881E-03  5614   0.257E-02    0.315E-01
RMM:   6    -0.232405958249E+04    0.99029E-03   -0.15577E-03  5494   0.215E-02    0.139E-01
RMM:   7    -0.232405953904E+04    0.43441E-04   -0.56472E-04  3975   0.130E-02    0.980E-02
RMM:   8    -0.232405940963E+04    0.12942E-03   -0.13855E-04  2983   0.716E-03    0.211E-02
RMM:   9    -0.232405940266E+04    0.69718E-05   -0.28481E-05  2965   0.407E-03
  33 F= -.23455158E+04 E0= -.23455158E+04  d E =-.352449E-01  mag=     2.0000
       N       E                     dE             d eps       ncg     rms          rms(c)
DAV:   1    -0.232404646666E+04    0.12943E-01   -0.26664E+00  4504   0.148E+00    0.531E-01
RMM:   2    -0.232408097155E+04   -0.34505E-01   -0.33974E-01  6472   0.336E-01    0.587E-01
RMM:   3    -0.232408034383E+04    0.62771E-03   -0.34115E-02  6338   0.118E-01    0.390E-01
RMM:   4    -0.232407844960E+04    0.18942E-02   -0.38754E-03  5543   0.328E-02    0.178E-01
RMM:   5    -0.232407875038E+04   -0.30079E-03   -0.16422E-03  5523   0.227E-02    0.226E-01
RMM:   6    -0.232407820641E+04    0.54397E-03   -0.90192E-04  5282   0.169E-02    0.132E-01
RMM:   7    -0.232407809825E+04    0.10817E-03   -0.33917E-04  3091   0.113E-02    0.735E-02
RMM:   8    -0.232407803916E+04    0.59084E-04   -0.52590E-05  2935   0.540E-03    0.147E-02
RMM:   9    -0.232407803533E+04    0.38365E-05   -0.14837E-05  2945   0.349E-03
  34 F= -.23455344E+04 E0= -.23455344E+04  d E =-.186144E-01  mag=     2.0000
       N       E                     dE             d eps       ncg     rms          rms(c)
DAV:   1    -0.232404390044E+04    0.34139E-01   -0.35047E+00  4504   0.170E+00    0.609E-01
RMM:   2    -0.232408933055E+04   -0.45430E-01   -0.44784E-01  6471   0.387E-01    0.671E-01
RMM:   3    -0.232408851401E+04    0.81654E-03   -0.45130E-02  6348   0.136E-01    0.447E-01
RMM:   4    -0.232408603607E+04    0.24779E-02   -0.51190E-03  5607   0.376E-02    0.208E-01
RMM:   5    -0.232408643018E+04   -0.39411E-03   -0.21499E-03  5629   0.257E-02    0.267E-01
RMM:   6    -0.232408569100E+04    0.73918E-03   -0.12189E-03  5379   0.195E-02    0.157E-01
RMM:   7    -0.232408552607E+04    0.16493E-03   -0.47949E-04  3383   0.132E-02    0.787E-02
RMM:   8    -0.232408545278E+04    0.73291E-04   -0.68405E-05  2979   0.595E-03    0.170E-02
RMM:   9    -0.232408544784E+04    0.49448E-05   -0.19556E-05  2954   0.388E-03
  35 F= -.23455418E+04 E0= -.23455418E+04  d E =-.259818E-01  mag=     2.0000
       N       E                     dE             d eps       ncg     rms          rms(c)
DAV:   1    -0.232407175135E+04    0.13701E-01   -0.23410E+00  4504   0.136E+00    0.467E-01
RMM:   2    -0.232410424562E+04   -0.32494E-01   -0.31450E-01  6556   0.312E-01    0.584E-01
RMM:   3    -0.232410300127E+04    0.12444E-02   -0.32675E-02  6396   0.108E-01    0.330E-01
RMM:   4    -0.232410175008E+04    0.12512E-02   -0.34216E-03  5245   0.268E-02    0.178E-01
RMM:   5    -0.232410194414E+04   -0.19406E-03   -0.11663E-03  4707   0.173E-02    0.228E-01
RMM:   6    -0.232410146565E+04    0.47849E-03   -0.88282E-04  5063   0.158E-02    0.115E-01
RMM:   7    -0.232410137961E+04    0.86045E-04   -0.33858E-04  3179   0.119E-02    0.564E-02
RMM:   8    -0.232410134009E+04    0.39519E-04   -0.45563E-05  2953   0.518E-03    0.139E-02
RMM:   9    -0.232410133939E+04    0.70462E-06   -0.11446E-05  2937   0.309E-03
  36 F= -.23455570E+04 E0= -.23455570E+04  d E =-.151946E-01  mag=     2.0000
       N       E                     dE             d eps       ncg     rms          rms(c)
DAV:   1    -0.232400719135E+04    0.94149E-01   -0.84196E+00  4504   0.258E+00    0.894E-01
RMM:   2    -0.232412633466E+04   -0.11914E+00   -0.11488E+00  6554   0.601E-01    0.114E+00
RMM:   3    -0.232412019128E+04    0.61434E-02   -0.12078E-01  6453   0.210E-01    0.616E-01
RMM:   4    -0.232411600409E+04    0.41872E-02   -0.12565E-02  5618   0.511E-02    0.360E-01
RMM:   5    -0.232411629965E+04   -0.29557E-03   -0.40854E-03  5621   0.310E-02    0.413E-01
RMM:   6    -0.232411485892E+04    0.14407E-02   -0.32103E-03  5490   0.287E-02    0.236E-01
RMM:   7    -0.232411442673E+04    0.43219E-03   -0.13283E-03  4766   0.218E-02    0.101E-01
RMM:   8    -0.232411429500E+04    0.13173E-03   -0.15750E-04  3294   0.730E-03    0.268E-02
RMM:   9    -0.232411429037E+04    0.46313E-05   -0.35749E-05  2974   0.513E-03
  37 F= -.23455686E+04 E0= -.23455686E+04  d E =-.267718E-01  mag=     2.0000
       N       E                     dE             d eps       ncg     rms          rms(c)
DAV:   1    -0.232409279494E+04    0.21500E-01   -0.37793E+00  4504   0.173E+00    0.564E-01
RMM:   2    -0.232413457441E+04   -0.41779E-01   -0.43532E-01  6498   0.372E-01    0.513E-01
RMM:   3    -0.232413784899E+04   -0.32746E-02   -0.46216E-02  6358   0.133E-01    0.497E-01
RMM:   4    -0.232413503156E+04    0.28174E-02   -0.49433E-03  5822   0.351E-02    0.234E-01
RMM:   5    -0.232413550159E+04   -0.47003E-03   -0.21172E-03  5511   0.234E-02    0.318E-01
RMM:   6    -0.232413447977E+04    0.10218E-02   -0.15369E-03  5355   0.213E-02    0.938E-02
RMM:   7    -0.232413446901E+04    0.10754E-04   -0.37641E-04  3413   0.123E-02    0.746E-02
RMM:   8    -0.232413438704E+04    0.81971E-04   -0.11052E-04  2981   0.664E-03    0.219E-02
RMM:   9    -0.232413437882E+04    0.82195E-05   -0.23426E-05  2961   0.381E-03
  38 F= -.23455874E+04 E0= -.23455874E+04  d E =-.188721E-01  mag=     2.0000
       N       E                     dE             d eps       ncg     rms          rms(c)
DAV:   1    -0.232410975844E+04    0.24629E-01   -0.28492E+00  4504   0.150E+00    0.489E-01
RMM:   2    -0.232414128854E+04   -0.31530E-01   -0.32856E-01  6487   0.324E-01    0.445E-01
RMM:   3    -0.232414373229E+04   -0.24438E-02   -0.34654E-02  6344   0.114E-01    0.430E-01
RMM:   4    -0.232414161135E+04    0.21209E-02   -0.37168E-03  5687   0.305E-02    0.201E-01
RMM:   5    -0.232414197831E+04   -0.36696E-03   -0.16060E-03  5274   0.207E-02    0.277E-01
RMM:   6    -0.232414119960E+04    0.77871E-03   -0.11516E-03  5208   0.186E-02    0.817E-02
RMM:   7    -0.232414119079E+04    0.88075E-05   -0.28150E-04  3169   0.111E-02    0.647E-02
RMM:   8    -0.232414112873E+04    0.62067E-04   -0.82771E-05  2952   0.615E-03    0.190E-02
RMM:   9    -0.232414112239E+04    0.63306E-05   -0.18462E-05  2954   0.344E-03
  39 F= -.23455931E+04 E0= -.23455931E+04  d E =-.245281E-01  mag=     2.0000
       N       E                     dE             d eps       ncg     rms          rms(c)
DAV:   1    -0.232411824459E+04    0.22884E-01   -0.32989E+00  4504   0.158E+00    0.519E-01
RMM:   2    -0.232415443780E+04   -0.36193E-01   -0.38783E-01  6377   0.327E-01    0.420E-01
RMM:   3    -0.232415903097E+04   -0.45932E-02   -0.43288E-02  6115   0.123E-01    0.559E-01
RMM:   4    -0.232415594077E+04    0.30902E-02   -0.42883E-03  5590   0.322E-02    0.189E-01
RMM:   5    -0.232415581537E+04    0.12541E-03   -0.19273E-03  5501   0.231E-02    0.179E-01
RMM:   6    -0.232415566980E+04    0.14556E-03   -0.97636E-04  5033   0.178E-02    0.129E-01
RMM:   7    -0.232415547638E+04    0.19343E-03   -0.18672E-04  3436   0.836E-03    0.254E-02
RMM:   8    -0.232415547290E+04    0.34752E-05   -0.55470E-05  2963   0.584E-03
  40 F= -.23456079E+04 E0= -.23456079E+04  d E =-.147657E-01  mag=     2.0000
       N       E                     dE             d eps       ncg     rms          rms(c)
DAV:   1    -0.232413928163E+04    0.16195E-01   -0.16944E+00  4528   0.113E+00    0.375E-01
RMM:   2    -0.232415802047E+04   -0.18739E-01   -0.19930E-01  6384   0.234E-01    0.326E-01
RMM:   3    -0.232416020761E+04   -0.21871E-02   -0.22075E-02  6002   0.869E-02    0.399E-01
RMM:   4    -0.232415862278E+04    0.15848E-02   -0.22029E-03  4960   0.233E-02    0.136E-01
RMM:   5    -0.232415862147E+04    0.13130E-05   -0.10354E-03  5283   0.173E-02    0.145E-01
RMM:   6    -0.232415845882E+04    0.16265E-03   -0.51370E-04  4249   0.132E-02    0.810E-02
RMM:   7    -0.232415838851E+04    0.70310E-04   -0.89721E-05  3019   0.689E-03    0.237E-02
RMM:   8    -0.232415838592E+04    0.25888E-05   -0.34545E-05  2927   0.488E-03
  41 F= -.23456110E+04 E0= -.23456110E+04  d E =-.179405E-01  mag=     2.0000
       N       E                     dE             d eps       ncg     rms          rms(c)
DAV:   1    -0.232411441172E+04    0.43977E-01   -0.42071E+00  4504   0.177E+00    0.588E-01
RMM:   2    -0.232416853438E+04   -0.54123E-01   -0.58844E-01  6435   0.367E-01    0.371E-01
RMM:   3    -0.232417423696E+04   -0.57026E-02   -0.66117E-02  5953   0.146E-01    0.465E-01
RMM:   4    -0.232417301271E+04    0.12242E-02   -0.63237E-03  5680   0.328E-02    0.252E-01
RMM:   5    -0.232417243398E+04    0.57874E-03   -0.19180E-03  5558   0.237E-02    0.150E-01
RMM:   6    -0.232417273932E+04   -0.30535E-03   -0.12466E-03  5317   0.185E-02    0.206E-01
RMM:   7    -0.232417221139E+04    0.52793E-03   -0.42956E-04  4105   0.111E-02    0.329E-02
RMM:   8    -0.232417218941E+04    0.21979E-04   -0.72484E-05  2950   0.610E-03    0.189E-02
RMM:   9    -0.232417219121E+04   -0.18011E-05   -0.28595E-05  2952   0.394E-03
  42 F= -.23456248E+04 E0= -.23456248E+04  d E =-.137370E-01  mag=     2.0000
       N       E                     dE             d eps       ncg     rms          rms(c)
DAV:   1    -0.232415931237E+04    0.12877E-01   -0.10812E+00  4560   0.894E-01    0.297E-01
RMM:   2    -0.232417325872E+04   -0.13946E-01   -0.15110E-01  6444   0.185E-01    0.193E-01
RMM:   3    -0.232417468942E+04   -0.14307E-02   -0.16159E-02  5771   0.729E-02    0.243E-01
RMM:   4    -0.232417431732E+04    0.37211E-03   -0.16061E-03  3559   0.171E-02    0.125E-01
RMM:   5    -0.232417417160E+04    0.14572E-03   -0.55403E-04  4647   0.141E-02    0.749E-02
RMM:   6    -0.232417423207E+04   -0.60478E-04   -0.28106E-04  3496   0.107E-02    0.958E-02
RMM:   7    -0.232417411660E+04    0.11548E-03   -0.89728E-05  2970   0.696E-03    0.154E-02
RMM:   8    -0.232417411274E+04    0.38513E-05   -0.18935E-05  2941   0.411E-03
  43 F= -.23456267E+04 E0= -.23456267E+04  d E =-.156224E-01  mag=     2.0000
       N       E                     dE             d eps       ncg     rms          rms(c)
DAV:   1    -0.232412706190E+04    0.47055E-01   -0.37056E+00  4504   0.167E+00    0.563E-01
RMM:   2    -0.232418289335E+04   -0.55831E-01   -0.60494E-01  6418   0.354E-01    0.329E-01
RMM:   3    -0.232418727707E+04   -0.43837E-02   -0.63307E-02  5695   0.144E-01    0.234E-01
RMM:   4    -0.232418783514E+04   -0.55808E-03   -0.64489E-03  5302   0.320E-02    0.312E-01
RMM:   5    -0.232418696982E+04    0.86532E-03   -0.14736E-03  5014   0.197E-02    0.150E-01
RMM:   6    -0.232418673599E+04    0.23383E-03   -0.67041E-04  4863   0.144E-02    0.376E-02
RMM:   7    -0.232418672865E+04    0.73360E-05   -0.77569E-05  3020   0.948E-03
  44 F= -.23456382E+04 E0= -.23456382E+04  d E =-.115208E-01  mag=     2.0000
       N       E                     dE             d eps       ncg     rms          rms(c)
DAV:   1    -0.232415960128E+04    0.27135E-01   -0.18641E+00  4504   0.119E+00    0.402E-01
RMM:   2    -0.232418779061E+04   -0.28189E-01   -0.30541E-01  6417   0.252E-01    0.241E-01
RMM:   3    -0.232419011249E+04   -0.23219E-02   -0.31320E-02  5739   0.103E-01    0.201E-01
RMM:   4    -0.232419022357E+04   -0.11108E-03   -0.31360E-03  4817   0.225E-02    0.205E-01
RMM:   5    -0.232418979994E+04    0.42363E-03   -0.87980E-04  5026   0.155E-02    0.118E-01
RMM:   6    -0.232418978202E+04    0.17918E-04   -0.57316E-04  4567   0.125E-02    0.111E-01
RMM:   7    -0.232418967267E+04    0.10936E-03   -0.15539E-04  2983   0.826E-03    0.375E-02
RMM:   8    -0.232418967055E+04    0.21183E-05   -0.60230E-05  2950   0.558E-03
  45 F= -.23456404E+04 E0= -.23456404E+04  d E =-.136941E-01  mag=     2.0000
       N       E                     dE             d eps       ncg     rms          rms(c)
DAV:   1    -0.232414643937E+04    0.43233E-01   -0.29358E+00  4504   0.144E+00    0.479E-01
RMM:   2    -0.232419739337E+04   -0.50954E-01   -0.54873E-01  6585   0.321E-01    0.306E-01
RMM:   3    -0.232420190233E+04   -0.45090E-02   -0.57674E-02  5950   0.126E-01    0.263E-01
RMM:   4    -0.232420191906E+04   -0.16728E-04   -0.52822E-03  4964   0.265E-02    0.236E-01
RMM:   5    -0.232420134040E+04    0.57866E-03   -0.12242E-03  4689   0.165E-02    0.128E-01
RMM:   6    -0.232420130707E+04    0.33331E-04   -0.68870E-04  4428   0.139E-02    0.117E-01
RMM:   7    -0.232420118792E+04    0.11915E-03   -0.30934E-04  3514   0.963E-03    0.545E-02
RMM:   8    -0.232420117594E+04    0.11984E-04   -0.82747E-05  2964   0.647E-03    0.459E-02
RMM:   9    -0.232420114684E+04    0.29098E-04   -0.30434E-05  2920   0.405E-03    0.123E-02
RMM:  10    -0.232420114379E+04    0.30450E-05   -0.11478E-05  2910   0.256E-03
  46 F= -.23456504E+04 E0= -.23456504E+04  d E =-.100604E-01  mag=     2.0000
       N       E                     dE             d eps       ncg     rms          rms(c)
DAV:   1    -0.232404867442E+04    0.15247E+00   -0.86089E+00  4504   0.247E+00    0.823E-01
RMM:   2    -0.232419965544E+04   -0.15098E+00   -0.16200E+00  6571   0.555E-01    0.569E-01
RMM:   3    -0.232421389618E+04   -0.14241E-01   -0.17928E-01  6062   0.220E-01    0.542E-01
RMM:   4    -0.232421270690E+04    0.11893E-02   -0.15755E-02  6118   0.467E-02    0.395E-01
RMM:   5    -0.232421102656E+04    0.16803E-02   -0.34226E-03  5182   0.261E-02    0.213E-01
RMM:   6    -0.232421079258E+04    0.23398E-03   -0.22637E-03  5297   0.225E-02    0.178E-01
RMM:   7    -0.232421058602E+04    0.20656E-03   -0.93847E-04  5066   0.162E-02    0.115E-01
RMM:   8    -0.232421046748E+04    0.11855E-03   -0.22308E-04  3223   0.833E-03    0.697E-02
RMM:   9    -0.232421040746E+04    0.60015E-04   -0.85043E-05  2940   0.643E-03    0.277E-02
RMM:  10    -0.232421039358E+04    0.13886E-04   -0.37958E-05  2935   0.381E-03    0.119E-02
RMM:  11    -0.232421039277E+04    0.80635E-06   -0.11202E-05  2931   0.317E-03
  47 F= -.23456573E+04 E0= -.23456573E+04  d E =-.169182E-01  mag=     2.0000
       N       E                     dE             d eps       ncg     rms          rms(c)
DAV:   1    -0.232411773058E+04    0.92663E-01   -0.57623E+00  4504   0.199E+00    0.675E-01
RMM:   2    -0.232421739749E+04   -0.99667E-01   -0.10772E+00  6554   0.443E-01    0.419E-01
RMM:   3    -0.232422654816E+04   -0.91507E-02   -0.11802E-01  5900   0.175E-01    0.350E-01
RMM:   4    -0.232422664698E+04   -0.98815E-04   -0.10530E-02  5641   0.372E-02    0.327E-01
RMM:   5    -0.232422558372E+04    0.10633E-02   -0.21273E-03  4869   0.206E-02    0.186E-01
RMM:   6    -0.232422541106E+04    0.17267E-03   -0.15719E-03  5382   0.197E-02    0.153E-01
RMM:   7    -0.232422518357E+04    0.22749E-03   -0.63975E-04  4786   0.133E-02    0.681E-02
RMM:   8    -0.232422517709E+04    0.64763E-05   -0.14680E-04  3045   0.731E-03    0.677E-02
RMM:   9    -0.232422511928E+04    0.57805E-04   -0.55327E-05  2924   0.546E-03    0.238E-02
RMM:  10    -0.232422511002E+04    0.92629E-05   -0.25802E-05  2915   0.339E-03
  48 F= -.23456708E+04 E0= -.23456708E+04  d E =-.135134E-01  mag=     2.0000
       N       E                     dE             d eps       ncg     rms          rms(c)
DAV:   1    -0.232416708962E+04    0.58030E-01   -0.33755E+00  4504   0.152E+00    0.515E-01
RMM:   2    -0.232422529073E+04   -0.58201E-01   -0.62976E-01  6565   0.338E-01    0.310E-01
RMM:   3    -0.232423045600E+04   -0.51653E-02   -0.67761E-02  5854   0.134E-01    0.234E-01
RMM:   4    -0.232423067977E+04   -0.22377E-03   -0.61643E-03  5257   0.286E-02    0.238E-01
RMM:   5    -0.232423012323E+04    0.55654E-03   -0.12205E-03  4821   0.163E-02    0.151E-01
RMM:   6    -0.232423000880E+04    0.11443E-03   -0.84152E-04  4775   0.149E-02    0.121E-01
RMM:   7    -0.232422987868E+04    0.13012E-03   -0.34535E-04  3814   0.101E-02    0.524E-02
RMM:   8    -0.232422988385E+04   -0.51710E-05   -0.92180E-05  2948   0.670E-03
  49 F= -.23456747E+04 E0= -.23456747E+04  d E =-.173893E-01  mag=     2.0000
       N       E                     dE             d eps       ncg     rms          rms(c)
DAV:   1    -0.232416797319E+04    0.61905E-01   -0.36004E+00  4504   0.157E+00    0.568E-01
RMM:   2    -0.232423403684E+04   -0.66064E-01   -0.71582E-01  6453   0.354E-01    0.357E-01
RMM:   3    -0.232424067018E+04   -0.66333E-02   -0.80638E-02  6145   0.151E-01    0.365E-01
RMM:   4    -0.232424001774E+04    0.65245E-03   -0.73419E-03  5752   0.315E-02    0.236E-01
RMM:   5    -0.232423945601E+04    0.56173E-03   -0.12975E-03  5142   0.185E-02    0.159E-01
RMM:   6    -0.232423958850E+04   -0.13249E-03   -0.12745E-03  5201   0.167E-02    0.198E-01
RMM:   7    -0.232423913919E+04    0.44930E-03   -0.46301E-04  4422   0.118E-02    0.379E-02
RMM:   8    -0.232423913372E+04    0.54688E-05   -0.94702E-05  2997   0.714E-03
  50 F= -.23456837E+04 E0= -.23456837E+04  d E =-.906734E-02  mag=     2.0000
       N       E                     dE             d eps       ncg     rms          rms(c)
DAV:   1    -0.232421210502E+04    0.27034E-01   -0.14373E+00  4528   0.992E-01    0.361E-01
RMM:   2    -0.232423848516E+04   -0.26380E-01   -0.28628E-01  6481   0.224E-01    0.233E-01
RMM:   3    -0.232424113604E+04   -0.26509E-02   -0.31277E-02  5963   0.937E-02    0.253E-01
RMM:   4    -0.232424079788E+04    0.33816E-03   -0.29313E-03  3881   0.200E-02    0.148E-01
RMM:   5    -0.232424061104E+04    0.18685E-03   -0.55411E-04  4186   0.129E-02    0.111E-01
RMM:   6    -0.232424057587E+04    0.35163E-04   -0.47339E-04  4178   0.114E-02    0.103E-01
RMM:   7    -0.232424045777E+04    0.11811E-03   -0.18108E-04  3560   0.823E-03    0.340E-02
RMM:   8    -0.232424045029E+04    0.74721E-05   -0.52155E-05  2949   0.635E-03
  51 F= -.23456849E+04 E0= -.23456849E+04  d E =-.102768E-01  mag=     2.0000
       N       E                     dE             d eps       ncg     rms          rms(c)
DAV:   1    -0.232418142472E+04    0.59033E-01   -0.31380E+00  4504   0.139E+00    0.501E-01
RMM:   2    -0.232424377301E+04   -0.62348E-01   -0.66434E-01  6601   0.316E-01    0.397E-01
RMM:   3    -0.232424989866E+04   -0.61257E-02   -0.72231E-02  6314   0.135E-01    0.408E-01
RMM:   4    -0.232424855207E+04    0.13466E-02   -0.68100E-03  5510   0.293E-02    0.201E-01
RMM:   5    -0.232424826522E+04    0.28685E-03   -0.98620E-04  4564   0.147E-02    0.188E-01
RMM:   6    -0.232424802108E+04    0.24414E-03   -0.84275E-04  3974   0.134E-02    0.134E-01
RMM:   7    -0.232424783668E+04    0.18440E-03   -0.46721E-04  4395   0.108E-02    0.376E-02
RMM:   8    -0.232424784236E+04   -0.56845E-05   -0.81084E-05  2967   0.752E-03
  52 F= -.23456920E+04 E0= -.23456920E+04  d E =-.707093E-02  mag=     2.0000
       N       E                     dE             d eps       ncg     rms          rms(c)
DAV:   1    -0.232407091029E+04    0.17693E+00   -0.85329E+00  4504   0.229E+00    0.832E-01
RMM:   2    -0.232424167671E+04   -0.17077E+00   -0.18181E+00  6615   0.526E-01    0.664E-01
RMM:   3    -0.232425857235E+04   -0.16896E-01   -0.20376E-01  6377   0.223E-01    0.666E-01
RMM:   4    -0.232425478638E+04    0.37860E-02   -0.18918E-02  6286   0.495E-02    0.341E-01
RMM:   5    -0.232425384496E+04    0.94142E-03   -0.26732E-03  5427   0.231E-02    0.302E-01
RMM:   6    -0.232425339111E+04    0.45385E-03   -0.24055E-03  5046   0.203E-02    0.247E-01
RMM:   7    -0.232425276290E+04    0.62821E-03   -0.13061E-03  5086   0.164E-02    0.704E-02
RMM:   8    -0.232425280168E+04   -0.38774E-04   -0.30650E-04  3308   0.115E-02    0.812E-02
RMM:   9    -0.232425270684E+04    0.94840E-04   -0.10137E-04  3013   0.690E-03    0.309E-02
RMM:  10    -0.232425268995E+04    0.16888E-04   -0.52829E-05  2920   0.469E-03    0.130E-02
RMM:  11    -0.232425268853E+04    0.14193E-05   -0.15952E-05  2938   0.338E-03
  53 F= -.23456963E+04 E0= -.23456963E+04  d E =-.114099E-01  mag=     2.0000
       N       E                     dE             d eps       ncg     rms          rms(c)
DAV:   1    -0.232418308125E+04    0.69609E-01   -0.38561E+00  4504   0.156E+00    0.560E-01
RMM:   2    -0.232425866951E+04   -0.75588E-01   -0.80088E-01  6588   0.358E-01    0.439E-01
RMM:   3    -0.232426559703E+04   -0.69275E-02   -0.83899E-02  6380   0.150E-01    0.435E-01
RMM:   4    -0.232426390300E+04    0.16940E-02   -0.83116E-03  5944   0.336E-02    0.218E-01
RMM:   5    -0.232426342833E+04    0.47467E-03   -0.12636E-03  4806   0.166E-02    0.184E-01
RMM:   6    -0.232426331255E+04    0.11579E-03   -0.10630E-03  4436   0.151E-02    0.168E-01
RMM:   7    -0.232426306383E+04    0.24872E-03   -0.48024E-04  4400   0.115E-02    0.578E-02
RMM:   8    -0.232426304895E+04    0.14876E-04   -0.14075E-04  3043   0.828E-03    0.445E-02
RMM:   9    -0.232426301892E+04    0.30028E-04   -0.30424E-05  2933   0.441E-03    0.158E-02
RMM:  10    -0.232426301477E+04    0.41568E-05   -0.16366E-05  2925   0.305E-03
  54 F= -.23457057E+04 E0= -.23457057E+04  d E =-.937895E-02  mag=     2.0000
       N       E                     dE             d eps       ncg     rms          rms(c)
DAV:   1    -0.232418603137E+04    0.76988E-01   -0.39620E+00  4504   0.159E+00    0.568E-01
RMM:   2    -0.232426370922E+04   -0.77678E-01   -0.82321E-01  6584   0.363E-01    0.443E-01
RMM:   3    -0.232427085829E+04   -0.71491E-02   -0.86467E-02  6380   0.152E-01    0.441E-01
RMM:   4    -0.232426913555E+04    0.17227E-02   -0.85584E-03  5959   0.340E-02    0.221E-01
RMM:   5    -0.232426865177E+04    0.48378E-03   -0.12823E-03  4857   0.167E-02    0.188E-01
RMM:   6    -0.232426852522E+04    0.12655E-03   -0.10841E-03  4471   0.152E-02    0.169E-01
RMM:   7    -0.232426826647E+04    0.25875E-03   -0.49874E-04  4471   0.116E-02    0.569E-02
RMM:   8    -0.232426825477E+04    0.11697E-04   -0.14176E-04  3035   0.831E-03    0.457E-02
RMM:   9    -0.232426822319E+04    0.31585E-04   -0.32946E-05  2933   0.452E-03    0.163E-02
RMM:  10    -0.232426821881E+04    0.43803E-05   -0.17412E-05  2924   0.313E-03
  55 F= -.23457100E+04 E0= -.23457100E+04  d E =-.136314E-01  mag=     2.0000
       N       E                     dE             d eps       ncg     rms          rms(c)
DAV:   1    -0.232426084147E+04    0.73817E-02   -0.38605E-01  4624   0.494E-01    0.176E-01
RMM:   2    -0.232426838056E+04   -0.75391E-02   -0.79855E-02  6561   0.113E-01    0.140E-01
RMM:   3    -0.232426905258E+04   -0.67203E-03   -0.79269E-03  5320   0.461E-02    0.144E-01
RMM:   4    -0.232426887938E+04    0.17320E-03   -0.81678E-04  3120   0.109E-02    0.669E-02
RMM:   5    -0.232426884834E+04    0.31046E-04   -0.13463E-04  3051   0.655E-03    0.668E-02
RMM:   6    -0.232426881245E+04    0.35888E-04   -0.96373E-05  2940   0.591E-03    0.403E-02
RMM:   7    -0.232426879937E+04    0.13081E-04   -0.44781E-05  2990   0.494E-03    0.161E-02
RMM:   8    -0.232426879821E+04    0.11588E-05   -0.11191E-05  2903   0.383E-03
  56 F= -.23457103E+04 E0= -.23457103E+04  d E =-.139152E-01  mag=     2.0000
       N       E                     dE             d eps       ncg     rms          rms(c)
DAV:   1    -0.232418914418E+04    0.79655E-01   -0.43594E+00  4504   0.166E+00    0.595E-01
RMM:   2    -0.232427391935E+04   -0.84775E-01   -0.89419E-01  6545   0.389E-01    0.500E-01
RMM:   3    -0.232428151365E+04   -0.75943E-02   -0.94740E-02  6372   0.161E-01    0.475E-01
RMM:   4    -0.232427930276E+04    0.22109E-02   -0.92235E-03  5975   0.363E-02    0.234E-01
RMM:   5    -0.232427875932E+04    0.54344E-03   -0.14823E-03  4874   0.180E-02    0.182E-01
RMM:   6    -0.232427859169E+04    0.16763E-03   -0.11000E-03  4735   0.167E-02    0.167E-01
RMM:   7    -0.232427837092E+04    0.22077E-03   -0.59367E-04  4843   0.123E-02    0.890E-02
RMM:   8    -0.232427830949E+04    0.61430E-04   -0.18010E-04  2982   0.872E-03    0.377E-02
RMM:   9    -0.232427828935E+04    0.20139E-04   -0.28072E-05  2950   0.438E-03    0.170E-02
RMM:  10    -0.232427828542E+04    0.39352E-05   -0.15992E-05  2928   0.338E-03
  57 F= -.23457181E+04 E0= -.23457181E+04  d E =-.784772E-02  mag=     2.0000
       N       E                     dE             d eps       ncg     rms          rms(c)
DAV:   1    -0.232425834856E+04    0.19941E-01   -0.10784E+00  4528   0.824E-01    0.293E-01
RMM:   2    -0.232427909134E+04   -0.20743E-01   -0.21992E-01  6552   0.192E-01    0.226E-01
RMM:   3    -0.232428100280E+04   -0.19115E-02   -0.22470E-02  6137   0.786E-02    0.224E-01
RMM:   4    -0.232428053189E+04    0.47091E-03   -0.22405E-03  3806   0.179E-02    0.113E-01
RMM:   5    -0.232428039615E+04    0.13574E-03   -0.36757E-04  3732   0.103E-02    0.904E-02
RMM:   6    -0.232428035862E+04    0.37533E-04   -0.24967E-04  3077   0.917E-03    0.814E-02
RMM:   7    -0.232428030723E+04    0.51387E-04   -0.13332E-04  3182   0.767E-03    0.378E-02
RMM:   8    -0.232428029601E+04    0.11224E-04   -0.37576E-05  2919   0.577E-03    0.155E-02
RMM:   9    -0.232428029250E+04    0.35025E-05   -0.68167E-06  2871   0.274E-03
  58 F= -.23457193E+04 E0= -.23457193E+04  d E =-.904000E-02  mag=     2.0000
       N       E                     dE             d eps       ncg     rms          rms(c)
DAV:   1    -0.232425038200E+04    0.29914E-01   -0.21324E+00  4504   0.123E+00    0.410E-01
RMM:   2    -0.232428405010E+04   -0.33668E-01   -0.36242E-01  6408   0.265E-01    0.272E-01
RMM:   3    -0.232428715242E+04   -0.31023E-02   -0.37085E-02  6030   0.108E-01    0.273E-01
RMM:   4    -0.232428668584E+04    0.46658E-03   -0.37318E-03  4820   0.239E-02    0.172E-01
RMM:   5    -0.232428638557E+04    0.30028E-03   -0.77066E-04  4371   0.144E-02    0.116E-01
RMM:   6    -0.232428635174E+04    0.33826E-04   -0.56659E-04  4352   0.134E-02    0.109E-01
RMM:   7    -0.232428623303E+04    0.11871E-03   -0.20693E-04  3793   0.855E-03    0.478E-02
RMM:   8    -0.232428621728E+04    0.15745E-04   -0.66519E-05  2928   0.648E-03    0.296E-02
RMM:   9    -0.232428620467E+04    0.12611E-04   -0.15027E-05  2918   0.330E-03    0.979E-03
RMM:  10    -0.232428620286E+04    0.18077E-05   -0.72341E-06  2914   0.267E-03
  59 F= -.23457245E+04 E0= -.23457245E+04  d E =-.519854E-02  mag=     2.0000
       N       E                     dE             d eps       ncg     rms          rms(c)
DAV:   1    -0.232428177432E+04    0.44304E-02   -0.31270E-01  4576   0.469E-01    0.156E-01
RMM:   2    -0.232428668232E+04   -0.49080E-02   -0.53058E-02  6418   0.101E-01    0.939E-02
RMM:   3    -0.232428709332E+04   -0.41101E-03   -0.52220E-03  4531   0.400E-02    0.809E-02
RMM:   4    -0.232428708439E+04    0.89354E-05   -0.53007E-04  3081   0.953E-03    0.686E-02
RMM:   5    -0.232428703083E+04    0.53558E-04   -0.11335E-04  3004   0.659E-03    0.412E-02
RMM:   6    -0.232428703064E+04    0.19223E-06   -0.73577E-05  2953   0.603E-03
  60 F= -.23457251E+04 E0= -.23457251E+04  d E =-.575106E-02  mag=     2.0000
       N       E                     dE             d eps       ncg     rms          rms(c)
DAV:   1    -0.232426920406E+04    0.17827E-01   -0.15620E+00  4504   0.110E+00    0.342E-01
RMM:   2    -0.232428990498E+04   -0.20701E-01   -0.22567E-01  6251   0.223E-01    0.211E-01
RMM:   3    -0.232429179711E+04   -0.18921E-02   -0.23996E-02  5700   0.936E-02    0.206E-01
RMM:   4    -0.232429167318E+04    0.12393E-03   -0.23029E-03  4189   0.201E-02    0.153E-01
RMM:   5    -0.232429145304E+04    0.22014E-03   -0.54117E-04  4248   0.131E-02    0.883E-02
RMM:   6    -0.232429141673E+04    0.36311E-04   -0.40201E-04  4325   0.119E-02    0.687E-02
RMM:   7    -0.232429135474E+04    0.61993E-04   -0.10591E-04  3047   0.747E-03    0.187E-02
RMM:   8    -0.232429135466E+04    0.81694E-07   -0.19265E-05  2921   0.456E-03
  61 F= -.23457289E+04 E0= -.23457289E+04  d E =-.384202E-02  mag=     2.0000
       N       E                     dE             d eps       ncg     rms          rms(c)
DAV:   1    -0.232428577903E+04    0.55757E-02   -0.43620E-01  4528   0.582E-01    0.181E-01
RMM:   2    -0.232429156728E+04   -0.57882E-02   -0.63137E-02  6320   0.118E-01    0.106E-01
RMM:   3    -0.232429208131E+04   -0.51403E-03   -0.65657E-03  5183   0.481E-02    0.949E-02
RMM:   4    -0.232429206813E+04    0.13175E-04   -0.64830E-04  3166   0.111E-02    0.798E-02
RMM:   5    -0.232429199789E+04    0.70240E-04   -0.15973E-04  3159   0.788E-03    0.448E-02
RMM:   6    -0.232429200278E+04   -0.48896E-05   -0.91220E-05  3002   0.709E-03
  62 F= -.23457293E+04 E0= -.23457293E+04  d E =-.423254E-02  mag=     2.0000
       N       E                     dE             d eps       ncg     rms          rms(c)
DAV:   1    -0.232427643155E+04    0.15566E-01   -0.13916E+00  4504   0.107E+00    0.297E-01
RMM:   2    -0.232429411529E+04   -0.17684E-01   -0.19195E-01  6303   0.207E-01    0.172E-01
RMM:   3    -0.232429563376E+04   -0.15185E-02   -0.20316E-02  5520   0.848E-02    0.130E-01
RMM:   4    -0.232429579056E+04   -0.15680E-03   -0.19760E-03  3939   0.178E-02    0.149E-01
RMM:   5    -0.232429553386E+04    0.25670E-03   -0.38513E-04  3688   0.116E-02    0.745E-02
RMM:   6    -0.232429550548E+04    0.28380E-04   -0.25758E-04  4122   0.980E-03    0.650E-02
RMM:   7    -0.232429547556E+04    0.29913E-04   -0.84833E-05  2934   0.725E-03    0.304E-02
RMM:   8    -0.232429547039E+04    0.51728E-05   -0.19664E-05  2917   0.363E-03
  63 F= -.23457323E+04 E0= -.23457323E+04  d E =-.299596E-02  mag=     2.0000
       N       E                     dE             d eps       ncg     rms          rms(c)
DAV:   1    -0.232428158834E+04    0.13887E-01   -0.11157E+00  4504   0.954E-01    0.265E-01
RMM:   2    -0.232429578688E+04   -0.14199E-01   -0.15370E-01  6352   0.185E-01    0.158E-01
RMM:   3    -0.232429706499E+04   -0.12781E-02   -0.16068E-02  5478   0.749E-02    0.152E-01
RMM:   4    -0.232429706336E+04    0.16276E-05   -0.15715E-03  3353   0.157E-02    0.122E-01
RMM:   5    -0.232429688434E+04    0.17902E-03   -0.30755E-04  3758   0.107E-02    0.624E-02
RMM:   6    -0.232429689399E+04   -0.96521E-05   -0.23709E-04  3898   0.975E-03    0.650E-02
RMM:   7    -0.232429684347E+04    0.50525E-04   -0.66531E-05  2958   0.651E-03    0.211E-02
RMM:   8    -0.232429684266E+04    0.80423E-06   -0.19575E-05  2930   0.383E-03
  64 F= -.23457332E+04 E0= -.23457332E+04  d E =-.394238E-02  mag=     2.0000
       N       E                     dE             d eps       ncg     rms          rms(c)
DAV:   1    -0.232428124238E+04    0.15601E-01   -0.16296E+00  4504   0.123E+00    0.348E-01
RMM:   2    -0.232430043956E+04   -0.19197E-01   -0.20467E-01  6274   0.239E-01    0.226E-01
RMM:   3    -0.232430219916E+04   -0.17596E-02   -0.20864E-02  5943   0.995E-02    0.244E-01
RMM:   4    -0.232430160428E+04    0.59487E-03   -0.21386E-03  5498   0.223E-02    0.129E-01
RMM:   5    -0.232430141310E+04    0.19119E-03   -0.62363E-04  4345   0.147E-02    0.876E-02
RMM:   6    -0.232430141702E+04   -0.39257E-05   -0.32649E-04  3612   0.120E-02    0.968E-02
RMM:   7    -0.232430134372E+04    0.73306E-04   -0.12756E-04  3330   0.791E-03    0.361E-02
RMM:   8    -0.232430133323E+04    0.10490E-04   -0.37182E-05  2922   0.593E-03    0.204E-02
RMM:   9    -0.232430132665E+04    0.65803E-05   -0.89458E-06  2909   0.284E-03
  65 F= -.23457368E+04 E0= -.23457368E+04  d E =-.361454E-02  mag=     2.0000
       N       E                     dE             d eps       ncg     rms          rms(c)
DAV:   1    -0.232429985632E+04    0.14769E-02   -0.15942E-01  4656   0.385E-01    0.109E-01
RMM:   2    -0.232430174283E+04   -0.18865E-02   -0.20050E-02  6270   0.755E-02    0.729E-02
RMM:   3    -0.232430191437E+04   -0.17154E-03   -0.20281E-03  4121   0.315E-02    0.791E-02
RMM:   4    -0.232430184928E+04    0.65086E-04   -0.20918E-04  3009   0.830E-03    0.390E-02
RMM:   5    -0.232430183222E+04    0.17063E-04   -0.63222E-05  2988   0.584E-03    0.290E-02
RMM:   6    -0.232430182962E+04    0.25922E-05   -0.35076E-05  2936   0.519E-03
  66 F= -.23457371E+04 E0= -.23457371E+04  d E =-.384607E-02  mag=     2.0000
       N       E                     dE             d eps       ncg     rms          rms(c)
DAV:   1    -0.232429357687E+04    0.82553E-02   -0.86957E-01  4504   0.914E-01    0.250E-01
RMM:   2    -0.232430486633E+04   -0.11289E-01   -0.11387E-01  6367   0.185E-01    0.261E-01
RMM:   3    -0.232430542229E+04   -0.55596E-03   -0.12299E-02  6002   0.737E-02    0.214E-01
RMM:   4    -0.232430490787E+04    0.51442E-03   -0.12131E-03  4529   0.171E-02    0.996E-02
RMM:   5    -0.232430488164E+04    0.26235E-04   -0.28862E-04  3140   0.953E-03    0.104E-01
RMM:   6    -0.232430478229E+04    0.99346E-04   -0.25665E-04  4081   0.105E-02    0.528E-02
RMM:   7    -0.232430477221E+04    0.10084E-04   -0.11872E-04  3066   0.829E-03    0.402E-02
RMM:   8    -0.232430475047E+04    0.21739E-04   -0.24918E-05  2914   0.495E-03    0.831E-03
RMM:   9    -0.232430474976E+04    0.70590E-06   -0.53254E-06  2904   0.298E-03
  67 F= -.23457395E+04 E0= -.23457395E+04  d E =-.239397E-02  mag=     2.0000
       N       E                     dE             d eps       ncg     rms          rms(c)
DAV:   1    -0.232430064549E+04    0.41050E-02   -0.38262E-01  4528   0.606E-01    0.164E-01
RMM:   2    -0.232430557923E+04   -0.49337E-02   -0.50003E-02  6442   0.123E-01    0.165E-01
RMM:   3    -0.232430585377E+04   -0.27454E-03   -0.53197E-03  5655   0.486E-02    0.138E-01
RMM:   4    -0.232430562877E+04    0.22500E-03   -0.51894E-04  3281   0.116E-02    0.605E-02
RMM:   5    -0.232430562650E+04    0.22717E-05   -0.13267E-04  2993   0.737E-03    0.729E-02
RMM:   6    -0.232430557658E+04    0.49915E-04   -0.11047E-04  3237   0.727E-03    0.330E-02
RMM:   7    -0.232430557624E+04    0.33775E-06   -0.51810E-05  2962   0.620E-03
  68 F= -.23457399E+04 E0= -.23457399E+04  d E =-.287280E-02  mag=     2.0000
       N       E                     dE             d eps       ncg     rms          rms(c)
DAV:   1    -0.232429636137E+04    0.92152E-02   -0.10208E+00  4504   0.102E+00    0.273E-01
RMM:   2    -0.232430841849E+04   -0.12057E-01   -0.12200E-01  6434   0.206E-01    0.264E-01
RMM:   3    -0.232430918084E+04   -0.76235E-03   -0.12946E-02  6134   0.789E-02    0.246E-01
RMM:   4    -0.232430846170E+04    0.71914E-03   -0.12991E-03  4701   0.190E-02    0.960E-02
RMM:   5    -0.232430844826E+04    0.13442E-04   -0.35660E-04  3370   0.105E-02    0.107E-01
RMM:   6    -0.232430834421E+04    0.10405E-03   -0.26638E-04  4176   0.108E-02    0.540E-02
RMM:   7    -0.232430833746E+04    0.67470E-05   -0.11785E-04  3032   0.834E-03    0.427E-02
RMM:   8    -0.232430831376E+04    0.23705E-04   -0.25955E-05  2911   0.510E-03    0.809E-03
RMM:   9    -0.232430831317E+04    0.59388E-06   -0.52331E-06  2896   0.293E-03
  69 F= -.23457422E+04 E0= -.23457422E+04  d E =-.229272E-02  mag=     2.0000
       N       E                     dE             d eps       ncg     rms          rms(c)
DAV:   1    -0.232429743489E+04    0.10879E-01   -0.99795E-01  4504   0.101E+00    0.269E-01
RMM:   2    -0.232430923291E+04   -0.11798E-01   -0.11898E-01  6411   0.203E-01    0.263E-01
RMM:   3    -0.232430993240E+04   -0.69949E-03   -0.12552E-02  6104   0.775E-02    0.241E-01
RMM:   4    -0.232430923898E+04    0.69342E-03   -0.12614E-03  4677   0.186E-02    0.956E-02
RMM:   5    -0.232430922622E+04    0.12763E-04   -0.34464E-04  3318   0.104E-02    0.107E-01
RMM:   6    -0.232430911893E+04    0.10729E-03   -0.27326E-04  4181   0.109E-02    0.518E-02
RMM:   7    -0.232430911156E+04    0.73675E-05   -0.11189E-04  3038   0.831E-03    0.408E-02
RMM:   8    -0.232430908929E+04    0.22267E-04   -0.24825E-05  2913   0.495E-03    0.805E-03
RMM:   9    -0.232430908856E+04    0.73535E-06   -0.51943E-06  2899   0.290E-03
  70 F= -.23457426E+04 E0= -.23457426E+04  d E =-.262828E-02  mag=     2.0000
       N       E                     dE             d eps       ncg     rms          rms(c)
DAV:   1    -0.232430784393E+04    0.12454E-02   -0.10428E-01  4624   0.326E-01    0.862E-02
RMM:   2    -0.232430906066E+04   -0.12167E-02   -0.12344E-02  6375   0.654E-02    0.823E-02
RMM:   3    -0.232430914020E+04   -0.79548E-04   -0.12956E-03  3785   0.241E-02    0.786E-02
RMM:   4    -0.232430906628E+04    0.73925E-04   -0.12996E-04  2968   0.722E-03    0.306E-02
RMM:   5    -0.232430906515E+04    0.11297E-05   -0.37404E-05  2956   0.408E-03
  71 F= -.23457427E+04 E0= -.23457427E+04  d E =-.274722E-02  mag=     2.0000
       N       E                     dE             d eps       ncg     rms          rms(c)
DAV:   1    -0.232430026178E+04    0.88045E-02   -0.88505E-01  4516   0.948E-01    0.245E-01
RMM:   2    -0.232431132022E+04   -0.11058E-01   -0.11403E-01  6337   0.194E-01    0.210E-01
RMM:   3    -0.232431231059E+04   -0.99037E-03   -0.12020E-02  5877   0.750E-02    0.233E-01
RMM:   4    -0.232431171971E+04    0.59089E-03   -0.11923E-03  3940   0.173E-02    0.917E-02
RMM:   5    -0.232431168678E+04    0.32924E-04   -0.26915E-04  3162   0.951E-03    0.855E-02
RMM:   6    -0.232431160867E+04    0.78114E-04   -0.24249E-04  4016   0.103E-02    0.429E-02
RMM:   7    -0.232431161555E+04   -0.68800E-05   -0.86305E-05  2992   0.737E-03
  72 F= -.23457447E+04 E0= -.23457447E+04  d E =-.204277E-02  mag=     2.0000
       N       E                     dE             d eps       ncg     rms          rms(c)
DAV:   1    -0.232428165589E+04    0.29953E-01   -0.24402E+00  4504   0.157E+00    0.407E-01
RMM:   2    -0.232431214452E+04   -0.30489E-01   -0.31632E-01  6400   0.324E-01    0.333E-01
RMM:   3    -0.232431501903E+04   -0.28745E-02   -0.33376E-02  6202   0.123E-01    0.378E-01
RMM:   4    -0.232431341420E+04    0.16048E-02   -0.33021E-03  5504   0.288E-02    0.149E-01
RMM:   5    -0.232431335253E+04    0.61665E-04   -0.82736E-04  4428   0.145E-02    0.151E-01
RMM:   6    -0.232431314912E+04    0.20341E-03   -0.64125E-04  4821   0.145E-02    0.798E-02
RMM:   7    -0.232431314997E+04   -0.84570E-06   -0.24867E-04  3597   0.105E-02    0.716E-02
RMM:   8    -0.232431308466E+04    0.65304E-04   -0.75774E-05  2972   0.663E-03    0.165E-02
RMM:   9    -0.232431307904E+04    0.56243E-05   -0.11953E-05  2944   0.374E-03
  73 F= -.23457454E+04 E0= -.23457454E+04  d E =-.265666E-02  mag=     2.0000
       N       E                     dE             d eps       ncg     rms          rms(c)
DAV:   1    -0.232431023504E+04    0.28496E-02   -0.21669E-01  4528   0.469E-01    0.119E-01
RMM:   2    -0.232431290526E+04   -0.26702E-02   -0.27794E-02  6384   0.957E-02    0.926E-02
RMM:   3    -0.232431315284E+04   -0.24759E-03   -0.28572E-03  4575   0.352E-02    0.107E-01
RMM:   4    -0.232431302498E+04    0.12787E-03   -0.28360E-04  3006   0.930E-03    0.440E-02
RMM:   5    -0.232431302103E+04    0.39472E-05   -0.69727E-05  2984   0.544E-03
  74 F= -.23457455E+04 E0= -.23457455E+04  d E =-.285222E-02  mag=     2.0000
       N       E                     dE             d eps       ncg     rms          rms(c)
DAV:   1    -0.232430244253E+04    0.10582E-01   -0.93142E-01  4504   0.982E-01    0.255E-01
RMM:   2    -0.232431503722E+04   -0.12595E-01   -0.13183E-01  6354   0.205E-01    0.172E-01
RMM:   3    -0.232431631662E+04   -0.12794E-02   -0.13992E-02  5875   0.793E-02    0.226E-01
RMM:   4    -0.232431584414E+04    0.47248E-03   -0.13224E-03  3747   0.174E-02    0.900E-02
RMM:   5    -0.232431578596E+04    0.58176E-04   -0.26773E-04  3404   0.989E-03    0.705E-02
RMM:   6    -0.232431573873E+04    0.47229E-04   -0.22402E-04  3551   0.974E-03    0.424E-02
RMM:   7    -0.232431571585E+04    0.22885E-04   -0.52836E-05  3039   0.664E-03    0.957E-03
RMM:   8    -0.232431571536E+04    0.48787E-06   -0.83437E-06  2914   0.426E-03
  75 F= -.23457477E+04 E0= -.23457477E+04  d E =-.213825E-02  mag=     2.0000
       N       E                     dE             d eps       ncg     rms          rms(c)
DAV:   1    -0.232430311486E+04    0.12601E-01   -0.99522E-01  4504   0.102E+00    0.263E-01
RMM:   2    -0.232431652956E+04   -0.13415E-01   -0.14134E-01  6373   0.213E-01    0.155E-01
RMM:   3    -0.232431773842E+04   -0.12089E-02   -0.14645E-02  5881   0.804E-02    0.181E-01
RMM:   4    -0.232431750545E+04    0.23296E-03   -0.14222E-03  3663   0.173E-02    0.105E-01
RMM:   5    -0.232431742022E+04    0.85238E-04   -0.29132E-04  3409   0.103E-02    0.723E-02
RMM:   6    -0.232431738184E+04    0.38381E-04   -0.23634E-04  3597   0.988E-03    0.480E-02
RMM:   7    -0.232431735417E+04    0.27667E-04   -0.60347E-05  3022   0.672E-03    0.127E-02
RMM:   8    -0.232431735661E+04   -0.24394E-05   -0.13850E-05  2942   0.449E-03
  76 F= -.23457488E+04 E0= -.23457488E+04  d E =-.320321E-02  mag=     2.0000
       N       E                     dE             d eps       ncg     rms          rms(c)
DAV:   1    -0.232431472053E+04    0.26336E-02   -0.20894E-01  4528   0.465E-01    0.122E-01
RMM:   2    -0.232431754510E+04   -0.28246E-02   -0.29789E-02  6340   0.974E-02    0.739E-02
RMM:   3    -0.232431780852E+04   -0.26342E-03   -0.30726E-03  4338   0.362E-02    0.888E-02
RMM:   4    -0.232431774652E+04    0.61994E-04   -0.30261E-04  3019   0.891E-03    0.478E-02
RMM:   5    -0.232431773242E+04    0.14107E-04   -0.62636E-05  2963   0.520E-03    0.362E-02
RMM:   6    -0.232431772117E+04    0.11250E-04   -0.50460E-05  2941   0.500E-03    0.207E-02
RMM:   7    -0.232431771734E+04    0.38301E-05   -0.13644E-05  2935   0.381E-03
  77 F= -.23457488E+04 E0= -.23457488E+04  d E =-.329981E-02  mag=     2.0000
       N       E                     dE             d eps       ncg     rms          rms(c)
DAV:   1    -0.232430539479E+04    0.12326E-01   -0.10669E+00  4504   0.106E+00    0.273E-01
[...]
       N       E                     dE             d eps       ncg     rms          rms(c)
DAV:   1    -0.232445579720E+04    0.91931E-03   -0.10504E-01  4504   0.354E-01    0.986E-02
RMM:   2    -0.232445697891E+04   -0.11817E-02   -0.12392E-02  6242   0.695E-02    0.649E-02
RMM:   3    -0.232445710509E+04   -0.12618E-03   -0.12802E-03  3894   0.273E-02    0.839E-02
RMM:   4    -0.232445701963E+04    0.85456E-04   -0.13165E-04  2945   0.770E-03    0.286E-02
RMM:   5    -0.232445701734E+04    0.22898E-05   -0.42759E-05  2955   0.503E-03
 163 F= -.23458419E+04 E0= -.23458419E+04  d E =-.185519E-03  mag=     2.0000
       N       E                     dE             d eps       ncg     rms          rms(c)
DAV:   1    -0.232445700785E+04    0.11781E-04   -0.73005E-04  5360   0.306E-02    0.170E-02
RMM:   2    -0.232445703605E+04   -0.28196E-04   -0.12220E-04  3088   0.746E-03    0.435E-02
RMM:   3    -0.232445701523E+04    0.20820E-04   -0.23729E-05  2754   0.463E-03    0.740E-03
RMM:   4    -0.232445701512E+04    0.10747E-06   -0.35004E-06  2543   0.157E-03
 164 F= -.23458419E+04 E0= -.23458419E+04  d E =-.173220E-03  mag=     2.0000
       N       E                     dE             d eps       ncg     rms          rms(c)
DAV:   1    -0.232445639063E+04    0.62460E-03   -0.76061E-02  4504   0.302E-01    0.826E-02
RMM:   2    -0.232445720811E+04   -0.81749E-03   -0.86169E-03  6139   0.585E-02    0.544E-02
RMM:   3    -0.232445729529E+04   -0.87179E-04   -0.89144E-04  3675   0.234E-02    0.726E-02
RMM:   4    -0.232445723545E+04    0.59844E-04   -0.93227E-05  2925   0.660E-03    0.243E-02
RMM:   5    -0.232445723292E+04    0.25256E-05   -0.31297E-05  2956   0.437E-03
 165 F= -.23458420E+04 E0= -.23458420E+04  d E =-.151110E-03  mag=     2.0000
       N       E                     dE             d eps       ncg     rms          rms(c)
DAV:   1    -0.232445722266E+04    0.12785E-04   -0.84755E-04  5336   0.327E-02    0.160E-02
RMM:   2    -0.232445724913E+04   -0.26469E-04   -0.12605E-04  3166   0.779E-03    0.389E-02
RMM:   3    -0.232445723084E+04    0.18294E-04   -0.22355E-05  2766   0.467E-03    0.686E-03
RMM:   4    -0.232445723053E+04    0.30803E-06   -0.33402E-06  2572   0.162E-03
 166 F= -.23458420E+04 E0= -.23458420E+04  d E =-.141427E-03  mag=     2.0000
       N       E                     dE             d eps       ncg     rms          rms(c)
DAV:   1    -0.232445693052E+04    0.30031E-03   -0.46036E-02  4516   0.235E-01    0.664E-02
RMM:   2    -0.232445739288E+04   -0.46236E-03   -0.49474E-03  6125   0.456E-02    0.377E-02
RMM:   3    -0.232445744270E+04   -0.49820E-04   -0.51051E-04  3415   0.189E-02    0.543E-02
RMM:   4    -0.232445741352E+04    0.29187E-04   -0.54872E-05  2930   0.536E-03    0.202E-02
RMM:   5    -0.232445740934E+04    0.41716E-05   -0.19495E-05  2938   0.378E-03
 167 F= -.23458421E+04 E0= -.23458421E+04  d E =-.103588E-03  mag=     2.0000
       N       E                     dE             d eps       ncg     rms          rms(c)
DAV:   1    -0.232445740903E+04    0.44822E-05   -0.15520E-05  3848   0.624E-03    0.130E-02
RMM:   2    -0.232445742772E+04   -0.18685E-04   -0.31219E-05  2837   0.360E-03    0.391E-02
RMM:   3    -0.232445740739E+04    0.20324E-04   -0.10363E-05  2437   0.244E-03    0.365E-03
RMM:   4    -0.232445740716E+04    0.23488E-06   -0.10836E-06  1890   0.101E-03
 168 F= -.23458421E+04 E0= -.23458421E+04  d E =-.101659E-03  mag=     2.0000
       N       E                     dE             d eps       ncg     rms          rms(c)
DAV:   1    -0.232445726939E+04    0.13800E-03   -0.28057E-02  4528   0.185E-01    0.534E-02
RMM:   2    -0.232445752979E+04   -0.26039E-03   -0.28137E-03  6141   0.357E-02    0.302E-02
RMM:   3    -0.232445755968E+04   -0.29895E-04   -0.28815E-04  3109   0.141E-02    0.456E-02
RMM:   4    -0.232445753883E+04    0.20847E-04   -0.32809E-05  2933   0.456E-03    0.155E-02
RMM:   5    -0.232445753610E+04    0.27314E-05   -0.13164E-05  2918   0.318E-03
 169 F= -.23458422E+04 E0= -.23458422E+04  d E =-.739092E-04  mag=     2.0000
       N       E                     dE             d eps       ncg     rms          rms(c)
DAV:   1    -0.232445753425E+04    0.45881E-05   -0.23399E-05  4304   0.692E-03    0.796E-03
RMM:   2    -0.232445753843E+04   -0.41831E-05   -0.13616E-05  2578   0.373E-03
 170 F= -.23458422E+04 E0= -.23458422E+04  d E =-.774347E-04  mag=     2.0000
       N       E                     dE             d eps       ncg     rms          rms(c)
DAV:   1    -0.232445743585E+04    0.98393E-04   -0.19898E-02  4528   0.157E-01    0.442E-02
RMM:   2    -0.232445759103E+04   -0.15517E-03   -0.17018E-03  6099   0.298E-02    0.231E-02
RMM:   3    -0.232445760716E+04   -0.16136E-04   -0.17642E-04  3042   0.124E-02    0.339E-02
RMM:   4    -0.232445759698E+04    0.10186E-04   -0.19624E-05  2923   0.367E-03    0.129E-02
RMM:   5    -0.232445759507E+04    0.19117E-05   -0.80011E-06  2901   0.261E-03
 171 F= -.23458423E+04 E0= -.23458423E+04  d E =-.556570E-04  mag=     2.0000
       N       E                     dE             d eps       ncg     rms          rms(c)
DAV:   1    -0.232445759408E+04    0.29013E-05   -0.45933E-05  5256   0.835E-03    0.666E-03
RMM:   2    -0.232445759723E+04   -0.31585E-05   -0.11320E-05  2532   0.252E-03
 172 F= -.23458423E+04 E0= -.23458423E+04  d E =-.577804E-04  mag=     2.0000
       N       E                     dE             d eps       ncg     rms          rms(c)
DAV:   1    -0.232445750428E+04    0.89792E-04   -0.16707E-02  4528   0.143E-01    0.389E-02
RMM:   2    -0.232445762488E+04   -0.12060E-03   -0.13244E-03  6042   0.268E-02    0.187E-02
RMM:   3    -0.232445763289E+04   -0.80070E-05   -0.12861E-04  2993   0.114E-02    0.207E-02
RMM:   4    -0.232445763009E+04    0.27965E-05   -0.15606E-05  2936   0.327E-03
 173 F= -.23458423E+04 E0= -.23458423E+04  d E =-.410077E-04  mag=     2.0000
       N       E                     dE             d eps       ncg     rms          rms(c)
DAV:   1    -0.232445762796E+04    0.49344E-05   -0.70575E-06  3792   0.436E-03    0.897E-03
RMM:   2    -0.232445763208E+04   -0.41278E-05   -0.13169E-05  2490   0.256E-03
 174 F= -.23458423E+04 E0= -.23458423E+04  d E =-.429660E-04  mag=     2.0000
       N       E                     dE             d eps       ncg     rms          rms(c)
DAV:   1    -0.232445756124E+04    0.66715E-04   -0.14717E-02  4528   0.134E-01    0.362E-02
RMM:   2    -0.232445766662E+04   -0.10538E-03   -0.11301E-03  6119   0.251E-02    0.223E-02
RMM:   3    -0.232445767830E+04   -0.11677E-04   -0.11679E-04  2946   0.999E-03    0.312E-02
RMM:   4    -0.232445766744E+04    0.10865E-04   -0.14156E-05  2903   0.327E-03    0.125E-02
RMM:   5    -0.232445766709E+04    0.34741E-06   -0.59252E-06  2817   0.205E-03
 175 F= -.23458424E+04 E0= -.23458424E+04  d E =-.376340E-04  mag=     2.0000
       N       E                     dE             d eps       ncg     rms          rms(c)
DAV:   1    -0.232445766427E+04    0.31660E-05   -0.12971E-04  5280   0.132E-02    0.699E-03
RMM:   2    -0.232445766913E+04   -0.48575E-05   -0.16682E-05  2627   0.320E-03
 176 F= -.23458424E+04 E0= -.23458424E+04  d E =-.399318E-04  mag=     2.0000
       N       E                     dE             d eps       ncg     rms          rms(c)
DAV:   1    -0.232445763345E+04    0.30823E-04   -0.12871E-02  4528   0.125E-01    0.332E-02
RMM:   2    -0.232445772404E+04   -0.90594E-04   -0.98941E-04  6136   0.239E-02    0.175E-02
RMM:   3    -0.232445773143E+04   -0.73843E-05   -0.92905E-05  2953   0.942E-03
 177 F= -.23458424E+04 E0= -.23458424E+04  d E =-.429365E-04  mag=     2.0000
       N       E                     dE             d eps       ncg     rms          rms(c)
DAV:   1    -0.232445772707E+04   -0.30281E-05   -0.13117E-04  5368   0.136E-02    0.117E-02
RMM:   2    -0.232445773261E+04   -0.55425E-05   -0.19494E-05  2682   0.360E-03
 178 F= -.23458424E+04 E0= -.23458424E+04  d E =-.422277E-04  mag=     2.0000
       N       E                     dE             d eps       ncg     rms          rms(c)
DAV:   1    -0.232445767922E+04    0.47850E-04   -0.13058E-02  4504   0.126E-01    0.337E-02
RMM:   2    -0.232445778053E+04   -0.10131E-03   -0.11030E-03  6139   0.242E-02    0.193E-02
RMM:   3    -0.232445778972E+04   -0.91932E-05   -0.10661E-04  2943   0.967E-03    0.248E-02
RMM:   4    -0.232445778351E+04    0.62182E-05   -0.12538E-05  2907   0.307E-03
 179 F= -.23458424E+04 E0= -.23458424E+04  d E =-.294265E-04  mag=     2.0000
       N       E                     dE             d eps       ncg     rms          rms(c)
DAV:   1    -0.232445778391E+04    0.58136E-05   -0.43694E-05  5240   0.805E-03    0.113E-02
RMM:   2    -0.232445779251E+04   -0.85968E-05   -0.22156E-05  2649   0.283E-03
 180 F= -.23458424E+04 E0= -.23458424E+04  d E =-.370812E-04  mag=     2.0000
       N       E                     dE             d eps       ncg     rms          rms(c)
DAV:   1    -0.232445774020E+04    0.43706E-04   -0.95867E-03  4528   0.108E-01    0.280E-02
RMM:   2    -0.232445782100E+04   -0.80797E-04   -0.84053E-04  6072   0.210E-02    0.210E-02
RMM:   3    -0.232445782594E+04   -0.49355E-05   -0.81954E-05  2920   0.829E-03
 181 F= -.23458425E+04 E0= -.23458425E+04  d E =-.304384E-04  mag=     2.0000
       N       E                     dE             d eps       ncg     rms          rms(c)
DAV:   1    -0.232445781908E+04    0.19200E-05   -0.31645E-04  5344   0.204E-02    0.142E-02
RMM:   2    -0.232445783102E+04   -0.11938E-04   -0.47123E-05  2887   0.495E-03    0.346E-02
RMM:   3    -0.232445782033E+04    0.10688E-04   -0.13268E-05  2447   0.315E-03    0.747E-03
RMM:   4    -0.232445782043E+04   -0.10039E-06   -0.34192E-06  2156   0.132E-03
 182 F= -.23458425E+04 E0= -.23458425E+04  d E =-.243918E-04  mag=     2.0000
       N       E                     dE             d eps       ncg     rms          rms(c)
DAV:   1    -0.232445777681E+04    0.43524E-04   -0.92031E-03  4528   0.106E-01    0.294E-02
RMM:   2    -0.232445785086E+04   -0.74057E-04   -0.80791E-04  6064   0.200E-02    0.158E-02
RMM:   3    -0.232445785713E+04   -0.62636E-05   -0.79352E-05  2910   0.802E-03
 183 F= -.23458425E+04 E0= -.23458425E+04  d E =-.348343E-04  mag=     2.0000
       N       E                     dE             d eps       ncg     rms          rms(c)
DAV:   1    -0.232445784977E+04    0.10934E-05   -0.52743E-04  5320   0.259E-02    0.123E-02
RMM:   2    -0.232445785864E+04   -0.88743E-05   -0.56431E-05  2981   0.579E-03
 184 F= -.23458425E+04 E0= -.23458425E+04  d E =-.359081E-04  mag=     2.0000
       N       E                     dE             d eps       ncg     rms          rms(c)
DAV:   1    -0.232445783374E+04    0.16034E-04   -0.58159E-03  4528   0.836E-02    0.235E-02
RMM:   2    -0.232445788645E+04   -0.52718E-04   -0.57547E-04  5642   0.178E-02    0.128E-02
RMM:   3    -0.232445789060E+04   -0.41424E-05   -0.67195E-05  2910   0.762E-03
 185 F= -.23458425E+04 E0= -.23458425E+04  d E =-.247174E-04  mag=     2.0000
       N       E                     dE             d eps       ncg     rms          rms(c)
DAV:   1    -0.232445788533E+04    0.11263E-05   -0.10374E-03  4752   0.356E-02    0.149E-02
RMM:   2    -0.232445790361E+04   -0.18280E-04   -0.11473E-04  3301   0.793E-03    0.298E-02
RMM:   3    -0.232445789479E+04    0.88152E-05   -0.18227E-05  2818   0.463E-03
 186 F= -.23458425E+04 E0= -.23458425E+04  d E =-.258462E-04  mag=     2.0000
       N       E                     dE             d eps       ncg     rms          rms(c)
DAV:   1    -0.232445788276E+04    0.20846E-04   -0.59450E-03  4528   0.840E-02    0.246E-02
RMM:   2    -0.232445792452E+04   -0.41756E-04   -0.45885E-04  5658   0.161E-02    0.148E-02
RMM:   3    -0.232445792738E+04   -0.28622E-05   -0.47550E-05  2905   0.713E-03
 187 F= -.23458426E+04 E0= -.23458426E+04  d E =-.314112E-04  mag=     2.0000
       N       E                     dE             d eps       ncg     rms          rms(c)
DAV:   1    -0.232445791953E+04    0.49884E-05   -0.54662E-04  5128   0.261E-02    0.116E-02
RMM:   2    -0.232445792623E+04   -0.67027E-05   -0.50079E-05  2973   0.580E-03
 188 F= -.23458426E+04 E0= -.23458426E+04  d E =-.299084E-04  mag=     2.0000
       N       E                     dE             d eps       ncg     rms          rms(c)
DAV:   1    -0.232445792330E+04   -0.37665E-05   -0.16451E-04  4728   0.145E-02    0.773E-03
RMM:   2    -0.232445792727E+04   -0.39746E-05   -0.16136E-05  2509   0.358E-03
 189 F= -.23458426E+04 E0= -.23458426E+04  d E =-.311286E-04  mag=     2.0000
       N       E                     dE             d eps       ncg     rms          rms(c)
DAV:   1    -0.232445790146E+04    0.21836E-04   -0.59879E-03  4528   0.842E-02    0.228E-02
RMM:   2    -0.232445794207E+04   -0.40607E-04   -0.45158E-04  5404   0.170E-02    0.106E-02
RMM:   3    -0.232445794392E+04   -0.18559E-05   -0.42399E-05  2908   0.701E-03
 190 F= -.23458426E+04 E0= -.23458426E+04  d E =-.149175E-04  mag=     2.0000
       N       E                     dE             d eps       ncg     rms          rms(c)
DAV:   1    -0.232445794423E+04   -0.21643E-05   -0.36893E-05  4912   0.737E-03    0.906E-03
RMM:   2    -0.232445794951E+04   -0.52791E-05   -0.13486E-05  2497   0.294E-03
 191 F= -.23458426E+04 E0= -.23458426E+04  d E =-.203727E-04  mag=     2.0000
       N       E                     dE             d eps       ncg     rms          rms(c)
DAV:   1    -0.232445793039E+04    0.13845E-04   -0.44556E-03  4528   0.725E-02    0.200E-02
RMM:   2    -0.232445796150E+04   -0.31116E-04   -0.33112E-04  5124   0.141E-02    0.146E-02
RMM:   3    -0.232445796452E+04   -0.30220E-05   -0.39330E-05  2881   0.673E-03
 192 F= -.23458426E+04 E0= -.23458426E+04  d E =-.208668E-04  mag=     2.0000
       N       E                     dE             d eps       ncg     rms          rms(c)
DAV:   1    -0.232445795917E+04    0.23332E-05   -0.22745E-04  5184   0.168E-02    0.909E-03
RMM:   2    -0.232445796296E+04   -0.37877E-05   -0.23757E-05  2650   0.391E-03
 193 F= -.23458426E+04 E0= -.23458426E+04  d E =-.206257E-04  mag=     2.0000
       N       E                     dE             d eps       ncg     rms          rms(c)
DAV:   1    -0.232445795742E+04    0.17534E-05   -0.34393E-03  4528   0.640E-02    0.184E-02
RMM:   2    -0.232445798349E+04   -0.26074E-04   -0.29010E-04  4553   0.134E-02    0.951E-03
RMM:   3    -0.232445798531E+04   -0.18175E-05   -0.29939E-05  2860   0.666E-03
 194 F= -.23458426E+04 E0= -.23458426E+04  d E =-.187290E-04  mag=     2.0000
       N       E                     dE             d eps       ncg     rms          rms(c)
DAV:   1    -0.232445798447E+04   -0.98450E-06   -0.42799E-04  4880   0.228E-02    0.109E-02
RMM:   2    -0.232445799415E+04   -0.96738E-05   -0.46246E-05  2926   0.529E-03
 195 F= -.23458426E+04 E0= -.23458426E+04  d E =-.262854E-04  mag=     2.0000
       N       E                     dE             d eps       ncg     rms          rms(c)
DAV:   1    -0.232445797782E+04    0.66545E-05   -0.30908E-03  4528   0.608E-02    0.171E-02
RMM:   2    -0.232445800204E+04   -0.24216E-04   -0.26392E-04  4422   0.134E-02    0.114E-02
RMM:   3    -0.232445800576E+04   -0.37263E-05   -0.33519E-05  2883   0.659E-03
 196 F= -.23458426E+04 E0= -.23458426E+04  d E =-.145152E-04  mag=     2.0000
       N       E                     dE             d eps       ncg     rms          rms(c)
DAV:   1    -0.232445799990E+04    0.21324E-05   -0.23997E-04  5192   0.173E-02    0.793E-03
RMM:   2    -0.232445800234E+04   -0.24344E-05   -0.23333E-05  2595   0.419E-03
 197 F= -.23458426E+04 E0= -.23458426E+04  d E =-.119017E-04  mag=     2.0000
       N       E                     dE             d eps       ncg     rms          rms(c)
DAV:   1    -0.232445799732E+04    0.25841E-05   -0.22231E-03  4480   0.514E-02    0.141E-02
RMM:   2    -0.232445801589E+04   -0.18576E-04   -0.18773E-04  3817   0.113E-02    0.147E-02
RMM:   3    -0.232445801703E+04   -0.11376E-05   -0.24797E-05  2565   0.611E-03
 198 F= -.23458426E+04 E0= -.23458426E+04  d E =-.153649E-04  mag=     2.0000
       N       E                     dE             d eps       ncg     rms          rms(c)
DAV:   1    -0.232445800778E+04    0.81173E-05   -0.11517E-03  4448   0.369E-02    0.109E-02
RMM:   2    -0.232445801697E+04   -0.91944E-05   -0.97295E-05  3300   0.812E-03
 199 F= -.23458426E+04 E0= -.23458426E+04  d E =-.157906E-04  mag=     2.0000
       N       E                     dE             d eps       ncg     rms          rms(c)
DAV:   1    -0.232445800328E+04    0.44997E-05   -0.25394E-03  4528   0.552E-02    0.177E-02
RMM:   2    -0.232445803098E+04   -0.27705E-04   -0.21337E-04  4112   0.127E-02    0.306E-02
RMM:   3    -0.232445802268E+04    0.83005E-05   -0.27067E-05  2871   0.606E-03
 200 F= -.23458427E+04 E0= -.23458427E+04  d E =-.185869E-04  mag=     2.0000
       N       E                     dE             d eps       ncg     rms          rms(c)
DAV:   1    -0.232445801430E+04    0.16681E-04   -0.56899E-04  4800   0.261E-02    0.103E-02
RMM:   2    -0.232445801967E+04   -0.53725E-05   -0.47353E-05  2975   0.608E-03
 201 F= -.23458427E+04 E0= -.23458427E+04  d E =-.217414E-04  mag=     2.0000
       N       E                     dE             d eps       ncg     rms          rms(c)
DAV:   1    -0.232445802335E+04   -0.90459E-05   -0.13460E-03  4496   0.406E-02    0.133E-02
RMM:   2    -0.232445803303E+04   -0.96846E-05   -0.10514E-04  3497   0.967E-03    0.108E-02
RMM:   3    -0.232445803436E+04   -0.13283E-05   -0.16049E-05  2654   0.557E-03
 202 F= -.23458427E+04 E0= -.23458427E+04  d E =-.131422E-04  mag=     2.0000
       N       E                     dE             d eps       ncg     rms          rms(c)
DAV:   1    -0.232445803306E+04   -0.26368E-07   -0.18219E-04  5232   0.152E-02    0.715E-03
RMM:   2    -0.232445803544E+04   -0.23815E-05   -0.17096E-05  2553   0.376E-03
 203 F= -.23458427E+04 E0= -.23458427E+04  d E =-.136491E-04  mag=     2.0000
       N       E                     dE             d eps       ncg     rms          rms(c)
DAV:   1    -0.232445803417E+04   -0.11137E-05   -0.10613E-03  4448   0.359E-02    0.113E-02
RMM:   2    -0.232445804308E+04   -0.89076E-05   -0.91260E-05  3219   0.832E-03
 204 F= -.23458427E+04 E0= -.23458427E+04  d E =-.685291E-05  mag=     2.0000
       N       E                     dE             d eps       ncg     rms          rms(c)
DAV:   1    -0.232445804375E+04   -0.95750E-05   -0.17804E-05  3224   0.628E-03    0.107E-02
RMM:   2    -0.232445805628E+04   -0.12537E-04   -0.21608E-05  2533   0.339E-03    0.323E-02
RMM:   3    -0.232445804266E+04    0.13620E-04   -0.62718E-06  2139   0.219E-03    0.262E-03
RMM:   4    -0.232445804258E+04    0.81578E-07   -0.88929E-07  1814   0.977E-04
 205 F= -.23458427E+04 E0= -.23458427E+04  d E =-.638104E-05  mag=     2.0000
       N       E                     dE             d eps       ncg     rms          rms(c)
DAV:   1    -0.232445804407E+04   -0.14033E-05   -0.46504E-04  4216   0.237E-02    0.665E-03
RMM:   2    -0.232445804781E+04   -0.37424E-05   -0.41654E-05  2602   0.524E-03
 206 F= -.23458427E+04 E0= -.23458427E+04  d E =-.675488E-05  mag=     2.0000
       N       E                     dE             d eps       ncg     rms          rms(c)
DAV:   1    -0.232445804802E+04   -0.39488E-05   -0.25737E-05  3576   0.633E-03    0.410E-03
RMM:   2    -0.232445804979E+04   -0.17734E-05   -0.65860E-06  2351   0.338E-03
 207 F= -.23458427E+04 E0= -.23458427E+04  d E =-.906698E-05  mag=     2.0000
       N       E                     dE             d eps       ncg     rms          rms(c)
DAV:   1    -0.232445804742E+04    0.59762E-06   -0.15686E-04  4224   0.140E-02    0.478E-03
RMM:   2    -0.232445804886E+04   -0.14391E-05   -0.16686E-05  2403   0.352E-03
 208 F= -.23458427E+04 E0= -.23458427E+04  d E =-.420805E-05  mag=     2.0000
