       N       E                     dE             d eps       ncg     rms          rms(c)
DAV:   1     0.124037403058E+05    0.12404E+05   -0.83906E+05  4640   0.142E+03
DAV:   2    -0.125917683294E+04   -0.13663E+05   -0.13123E+05  5040   0.321E+02
DAV:   3    -0.249817402428E+04   -0.12390E+04   -0.12283E+04  5440   0.104E+02
DAV:   4    -0.252615731288E+04   -0.27983E+02   -0.27805E+02  5600   0.194E+01
DAV:   5    -0.252706661697E+04   -0.90930E+00   -0.90770E+00  5920   0.293E+00    0.170E+02
RMM:   6    -0.149440941580E+04    0.10327E+04   -0.19125E+03  4506   0.377E+01    0.723E+01
RMM:   7    -0.165460969425E+04   -0.16020E+03   -0.28035E+02  5092   0.139E+01    0.477E+01
RMM:   8    -0.171120461617E+04   -0.56595E+02   -0.33387E+01  5229   0.653E+00    0.351E+01
RMM:   9    -0.186212040960E+04   -0.15092E+03   -0.73011E+01  5138   0.822E+00    0.369E+01
RMM:  10    -0.193987246287E+04   -0.77752E+02   -0.43647E+01  5297   0.599E+00    0.236E+01
RMM:  11    -0.201077292129E+04   -0.70900E+02   -0.28777E+01  5314   0.450E+00    0.200E+01
RMM:  12    -0.207743311996E+04   -0.66660E+02   -0.24159E+01  5081   0.399E+00    0.146E+01
RMM:  13    -0.215927800317E+04   -0.81845E+02   -0.40201E+01  4600   0.475E+00    0.111E+01
RMM:  14    -0.228591883545E+04   -0.12664E+03   -0.12716E+02  4486   0.743E+00    0.920E+00
RMM:  15    -0.230608469365E+04   -0.20166E+02   -0.21221E+01  4513   0.445E+00    0.597E+00
RMM:  16    -0.231367202614E+04   -0.75873E+01   -0.99989E+00  4757   0.188E+00    0.361E+00
RMM:  17    -0.231812909814E+04   -0.44571E+01   -0.32298E+00  5010   0.148E+00    0.222E+00
RMM:  18    -0.231962163155E+04   -0.14925E+01   -0.11329E+00  5021   0.666E-01    0.105E+00
RMM:  19    -0.232009983995E+04   -0.47821E+00   -0.40929E-01  4918   0.385E-01    0.957E-01
RMM:  20    -0.232022405701E+04   -0.12422E+00   -0.13347E-01  4783   0.212E-01    0.420E-01
RMM:  21    -0.232027805844E+04   -0.54001E-01   -0.42410E-02  4788   0.137E-01    0.253E-01
RMM:  22    -0.232030979813E+04   -0.31740E-01   -0.14792E-02  4591   0.807E-02    0.135E-01
RMM:  23    -0.232033430410E+04   -0.24506E-01   -0.78051E-03  4516   0.650E-02    0.860E-02
RMM:  24    -0.232034932279E+04   -0.15019E-01   -0.51888E-03  4548   0.526E-02    0.566E-02
RMM:  25    -0.232035579152E+04   -0.64687E-02   -0.22542E-03  4763   0.385E-02    0.367E-02
RMM:  26    -0.232035926796E+04   -0.34764E-02   -0.12076E-03  4218   0.233E-02    0.191E-02
RMM:  27    -0.232036029919E+04   -0.10312E-02   -0.34736E-04  4067   0.185E-02    0.131E-02
RMM:  28    -0.232036071406E+04   -0.41487E-03   -0.15820E-04  3818   0.932E-03    0.696E-03
RMM:  29    -0.232036084514E+04   -0.13108E-03   -0.43824E-05  3490   0.793E-03    0.442E-03
RMM:  30    -0.232036092394E+04   -0.78794E-04   -0.25031E-05  3227   0.433E-03    0.237E-03
RMM:  31    -0.232036095834E+04   -0.34398E-04   -0.11071E-05  2953   0.377E-03    0.184E-03
RMM:  32    -0.232036096937E+04   -0.11037E-04   -0.53944E-06  2763   0.258E-03    0.879E-04
RMM:  33    -0.232036097206E+04   -0.26860E-05   -0.28280E-06  2506   0.201E-03
   1 F= -.23412463E+04 E0= -.23412463E+04  d E =-.157057E-04  mag=     4.9998
       N       E                     dE             d eps       ncg     rms          rms(c)
DAV:   1    -0.232033315432E+04    0.27815E-01   -0.20348E+00  4480   0.577E-01    0.346E-01
RMM:   2    -0.232033239258E+04    0.76174E-03   -0.15426E-02  3949   0.430E-02    0.235E-01
RMM:   3    -0.232033269076E+04   -0.29818E-03   -0.33697E-03  4586   0.263E-02    0.354E-01
RMM:   4    -0.232033151498E+04    0.11758E-02   -0.17652E-03  4538   0.163E-02    0.860E-02
RMM:   5    -0.232033155853E+04   -0.43553E-04   -0.41569E-04  3355   0.898E-03    0.110E-01
RMM:   6    -0.232033142712E+04    0.13141E-03   -0.13681E-04  3036   0.584E-03    0.201E-02
RMM:   7    -0.232033142541E+04    0.17094E-05   -0.21148E-05  2827   0.255E-03
   2 F= -.23412170E+04 E0= -.23412170E+04  d E =-.144102E-04  mag=     4.9999
       N       E                     dE             d eps       ncg     rms          rms(c)
DAV:   1    -0.232037121483E+04   -0.39788E-01   -0.80615E+00  4480   0.113E+00    0.679E-01
RMM:   2    -0.232036780469E+04    0.34101E-02   -0.54375E-02  4237   0.867E-02    0.463E-01
RMM:   3    -0.232036886462E+04   -0.10599E-02   -0.12383E-02  5391   0.511E-02    0.689E-01
RMM:   4    -0.232036442838E+04    0.44362E-02   -0.65061E-03  5430   0.311E-02    0.173E-01
RMM:   5    -0.232036462341E+04   -0.19504E-03   -0.16435E-03  4317   0.173E-02    0.218E-01
RMM:   6    -0.232036410888E+04    0.51453E-03   -0.55268E-04  3701   0.104E-02    0.417E-02
RMM:   7    -0.232036409990E+04    0.89830E-05   -0.72336E-05  3137   0.430E-03
   3 F= -.23412490E+04 E0= -.23412490E+04  d E =-.156724E-04  mag=     4.9999
       N       E                     dE             d eps       ncg     rms          rms(c)
DAV:   1    -0.232036413366E+04   -0.24781E-04   -0.38323E+00  4480   0.812E-01    0.403E-01
RMM:   2    -0.232036387849E+04    0.25517E-03   -0.19509E-02  4149   0.514E-02    0.301E-01
RMM:   3    -0.232036440075E+04   -0.52227E-03   -0.41963E-03  5119   0.284E-02    0.413E-01
RMM:   4    -0.232036276800E+04    0.16328E-02   -0.20837E-03  4706   0.180E-02    0.953E-02
RMM:   5    -0.232036272179E+04    0.46210E-04   -0.28325E-04  3400   0.776E-03    0.323E-02
RMM:   6    -0.232036273568E+04   -0.13889E-04   -0.70356E-05  2902   0.452E-03    0.462E-02
RMM:   7    -0.232036271541E+04    0.20263E-04   -0.24331E-05  2702   0.293E-03    0.144E-02
RMM:   8    -0.232036271431E+04    0.11036E-05   -0.77046E-06  2551   0.168E-03
   4 F= -.23412483E+04 E0= -.23412483E+04  d E =-.118518E-04  mag=     4.9999
       N       E                     dE             d eps       ncg     rms          rms(c)
DAV:   1    -0.232035620453E+04    0.65109E-02   -0.75715E+00  4480   0.103E+00    0.482E-01
RMM:   2    -0.232035688490E+04   -0.68037E-03   -0.24574E-02  4202   0.570E-02    0.358E-01
RMM:   3    -0.232035774223E+04   -0.85734E-03   -0.61886E-03  5560   0.319E-02    0.484E-01
RMM:   4    -0.232035549512E+04    0.22471E-02   -0.24727E-03  4769   0.207E-02    0.139E-01
RMM:   5    -0.232035563506E+04   -0.13994E-03   -0.91303E-04  3767   0.115E-02    0.160E-01
RMM:   6    -0.232035540684E+04    0.22822E-03   -0.19316E-04  3080   0.671E-03    0.266E-02
RMM:   7    -0.232035540278E+04    0.40606E-05   -0.42656E-05  2985   0.333E-03
   5 F= -.23412404E+04 E0= -.23412404E+04  d E =-.200015E-04  mag=     4.9999
       N       E                     dE             d eps       ncg     rms          rms(c)
DAV:   1    -0.232034393255E+04    0.11474E-01   -0.40695E+00  4480   0.843E-01    0.445E-01
RMM:   2    -0.232034407454E+04   -0.14199E-03   -0.26368E-02  4289   0.617E-02    0.414E-01
RMM:   3    -0.232034313035E+04    0.94420E-03   -0.54420E-03  5505   0.319E-02    0.355E-01
RMM:   4    -0.232034189827E+04    0.12321E-02   -0.24471E-03  4980   0.198E-02    0.173E-01
RMM:   5    -0.232034169059E+04    0.20768E-03   -0.61626E-04  3513   0.106E-02    0.906E-02
RMM:   6    -0.232034162615E+04    0.64442E-04   -0.71806E-05  3002   0.528E-03    0.272E-02
RMM:   7    -0.232034162344E+04    0.27078E-05   -0.25614E-05  2930   0.342E-03
   6 F= -.23412273E+04 E0= -.23412273E+04  d E =-.710444E-04  mag=     4.9996
       N       E                     dE             d eps       ncg     rms          rms(c)
DAV:   1    -0.232034835358E+04   -0.67274E-02   -0.86242E+00  4480   0.121E+00    0.723E-01
RMM:   2    -0.232034496666E+04    0.33869E-02   -0.67087E-02  4359   0.961E-02    0.537E-01
RMM:   3    -0.232034544570E+04   -0.47904E-03   -0.14767E-02  5841   0.521E-02    0.659E-01
RMM:   4    -0.232034068691E+04    0.47588E-02   -0.71414E-03  5458   0.342E-02    0.240E-01
RMM:   5    -0.232034057933E+04    0.10758E-03   -0.16905E-03  4289   0.157E-02    0.213E-01
RMM:   6    -0.232034013300E+04    0.44633E-03   -0.39716E-04  3468   0.975E-03    0.413E-02
RMM:   7    -0.232034011599E+04    0.17013E-04   -0.72964E-05  3273   0.485E-03    0.196E-02
RMM:   8    -0.232034011543E+04    0.55631E-06   -0.13295E-05  2956   0.324E-03
   7 F= -.23412251E+04 E0= -.23412251E+04  d E =-.306216E-05  mag=     4.9999
       N       E                     dE             d eps       ncg     rms          rms(c)
DAV:   1    -0.232034789638E+04   -0.77804E-02   -0.50062E+00  4640   0.949E-01    0.604E-01
RMM:   2    -0.232034237487E+04    0.55215E-02   -0.42830E-02  4076   0.749E-02    0.430E-01
RMM:   3    -0.232034248212E+04   -0.10725E-03   -0.10984E-02  5874   0.423E-02    0.572E-01
RMM:   4    -0.232033859562E+04    0.38865E-02   -0.53361E-03  5247   0.300E-02    0.141E-01
RMM:   5    -0.232033886505E+04   -0.26943E-03   -0.14086E-03  4174   0.143E-02    0.220E-01
RMM:   6    -0.232033840419E+04    0.46085E-03   -0.40334E-04  3472   0.893E-03    0.315E-02
RMM:   7    -0.232033838735E+04    0.16841E-04   -0.63220E-05  3253   0.400E-03    0.159E-02
RMM:   8    -0.232033838781E+04   -0.46137E-06   -0.95206E-06  2852   0.251E-03
   8 F= -.23412242E+04 E0= -.23412242E+04  d E =-.109463E-04  mag=     4.9999
       N       E                     dE             d eps       ncg     rms          rms(c)
DAV:   1    -0.232034691568E+04   -0.85283E-02   -0.87432E+00  4320   0.132E+00    0.780E-01
RMM:   2    -0.232033622260E+04    0.10693E-01   -0.62925E-02  3944   0.847E-02    0.447E-01
RMM:   3    -0.232033649498E+04   -0.27239E-03   -0.14657E-02  5790   0.500E-02    0.661E-01
RMM:   4    -0.232033164032E+04    0.48547E-02   -0.61772E-03  5342   0.312E-02    0.134E-01
RMM:   5    -0.232033157249E+04    0.67827E-04   -0.12218E-03  3926   0.120E-02    0.838E-02
RMM:   6    -0.232033155797E+04    0.14518E-04   -0.22896E-04  3160   0.769E-03    0.812E-02
RMM:   7    -0.232033149000E+04    0.67976E-04   -0.52030E-05  2942   0.407E-03    0.176E-02
RMM:   8    -0.232033148566E+04    0.43408E-05   -0.28012E-05  2992   0.260E-03
   9 F= -.23412164E+04 E0= -.23412164E+04  d E =-.226181E-04  mag=     4.9999
       N       E                     dE             d eps       ncg     rms          rms(c)
DAV:   1    -0.232036075749E+04   -0.29267E-01   -0.42857E+00  4320   0.823E-01    0.443E-01
RMM:   2    -0.232035749997E+04    0.32575E-02   -0.19563E-02  3765   0.494E-02    0.248E-01
RMM:   3    -0.232035759198E+04   -0.92012E-04   -0.47755E-03  5386   0.268E-02    0.371E-01
RMM:   4    -0.232035608721E+04    0.15048E-02   -0.21273E-03  4580   0.178E-02    0.709E-02
RMM:   5    -0.232035609532E+04   -0.81049E-05   -0.37887E-04  3335   0.700E-03    0.608E-02
RMM:   6    -0.232035606903E+04    0.26282E-04   -0.77016E-05  2804   0.465E-03    0.373E-02
RMM:   7    -0.232035605575E+04    0.13288E-04   -0.14163E-05  2633   0.248E-03    0.112E-02
RMM:   8    -0.232035605485E+04    0.89056E-06   -0.89026E-06  2742   0.173E-03
  10 F= -.23412414E+04 E0= -.23412414E+04  d E =-.158250E-04  mag=     4.9999
       N       E                     dE             d eps       ncg     rms          rms(c)
DAV:   1    -0.232036395282E+04   -0.78971E-02   -0.83768E+00  4480   0.105E+00    0.453E-01
RMM:   2    -0.232036084318E+04    0.31096E-02   -0.18592E-02  3793   0.453E-02    0.245E-01
RMM:   3    -0.232035958168E+04    0.12615E-02   -0.65425E-03  4611   0.257E-02    0.126E-01
RMM:   4    -0.232035941811E+04    0.16357E-03   -0.68493E-04  3527   0.146E-02    0.709E-02
RMM:   5    -0.232035937930E+04    0.38812E-04   -0.68114E-05  2984   0.476E-03    0.351E-02
RMM:   6    -0.232035938360E+04   -0.42967E-05   -0.33120E-05  2639   0.315E-03
  11 F= -.23412447E+04 E0= -.23412447E+04  d E =-.148259E-04  mag=     4.9999
       N       E                     dE             d eps       ncg     rms          rms(c)
DAV:   1    -0.232031674008E+04    0.42639E-01   -0.43427E+00  4320   0.823E-01    0.479E-01
RMM:   2    -0.232031275283E+04    0.39873E-02   -0.26627E-02  3800   0.540E-02    0.260E-01
RMM:   3    -0.232031266182E+04    0.91016E-04   -0.52235E-03  5316   0.292E-02    0.416E-01
RMM:   4    -0.232031104788E+04    0.16139E-02   -0.22506E-03  4636   0.179E-02    0.969E-02
RMM:   5    -0.232031103399E+04    0.13884E-04   -0.48314E-04  3564   0.826E-03    0.820E-02
RMM:   6    -0.232031097055E+04    0.63440E-04   -0.13013E-04  2939   0.580E-03    0.348E-02
RMM:   7    -0.232031095907E+04    0.11482E-04   -0.16439E-05  2724   0.277E-03    0.115E-02
RMM:   8    -0.232031095788E+04    0.11898E-05   -0.80929E-06  2795   0.191E-03
  12 F= -.23411962E+04 E0= -.23411962E+04  d E =-.148708E-04  mag=     4.9999
       N       E                     dE             d eps       ncg     rms          rms(c)
DAV:   1    -0.232037352552E+04   -0.62566E-01   -0.88068E+00  4480   0.126E+00    0.814E-01
RMM:   2    -0.232036035707E+04    0.13168E-01   -0.64862E-02  3925   0.878E-02    0.425E-01
RMM:   3    -0.232036033423E+04    0.22842E-04   -0.12516E-02  5649   0.489E-02    0.670E-01
RMM:   4    -0.232035624088E+04    0.40933E-02   -0.60326E-03  5357   0.286E-02    0.174E-01
RMM:   5    -0.232035625914E+04   -0.18260E-04   -0.16779E-03  4418   0.142E-02    0.169E-01
RMM:   6    -0.232035595455E+04    0.30459E-03   -0.44677E-04  3397   0.954E-03    0.501E-02
RMM:   7    -0.232035592667E+04    0.27877E-04   -0.47080E-05  2995   0.397E-03    0.180E-02
RMM:   8    -0.232035592231E+04    0.43547E-05   -0.21787E-05  2981   0.268E-03
  13 F= -.23412414E+04 E0= -.23412414E+04  d E =-.167142E-04  mag=     4.9999
       N       E                     dE             d eps       ncg     rms          rms(c)
DAV:   1    -0.232035775636E+04   -0.18297E-02   -0.23774E+00  4480   0.654E-01    0.384E-01
RMM:   2    -0.232035574437E+04    0.20120E-02   -0.17812E-02  3724   0.482E-02    0.223E-01
RMM:   3    -0.232035590152E+04   -0.15715E-03   -0.34827E-03  5175   0.242E-02    0.355E-01
RMM:   4    -0.232035475054E+04    0.11510E-02   -0.16494E-03  4352   0.154E-02    0.843E-02
RMM:   5    -0.232035476946E+04   -0.18924E-04   -0.39057E-04  3545   0.784E-03    0.846E-02
RMM:   6    -0.232035469641E+04    0.73055E-04   -0.11945E-04  2895   0.556E-03    0.276E-02
RMM:   7    -0.232035468917E+04    0.72390E-05   -0.15027E-05  2691   0.254E-03
  14 F= -.23412398E+04 E0= -.23412398E+04  d E =-.163504E-04  mag=     4.9999
       N       E                     dE             d eps       ncg     rms          rms(c)
DAV:   1    -0.232036210725E+04   -0.74108E-02   -0.12306E+00  4560   0.425E-01    0.343E-01
RMM:   2    -0.232036172109E+04    0.38616E-03   -0.54854E-03  3593   0.255E-02    0.198E-01
RMM:   3    -0.232036163393E+04    0.87167E-04   -0.87439E-04  4201   0.117E-02    0.103E-01
RMM:   4    -0.232036172069E+04   -0.86766E-04   -0.52574E-04  3527   0.922E-03    0.120E-01
RMM:   5    -0.232036157202E+04    0.14868E-03   -0.12113E-04  3023   0.608E-03    0.150E-02
RMM:   6    -0.232036157409E+04   -0.20690E-05   -0.15008E-05  2502   0.234E-03
  15 F= -.23412472E+04 E0= -.23412472E+04  d E =-.147691E-04  mag=     4.9999
       N       E                     dE             d eps       ncg     rms          rms(c)
DAV:   1    -0.232035969527E+04    0.18767E-02   -0.60423E-01  4320   0.302E-01    0.246E-01
RMM:   2    -0.232035946194E+04    0.23332E-03   -0.22599E-03  3365   0.171E-02    0.142E-01
RMM:   3    -0.232035942373E+04    0.38209E-04   -0.42275E-04  3562   0.783E-03    0.565E-02
RMM:   4    -0.232035947856E+04   -0.54824E-04   -0.21395E-04  2933   0.680E-03    0.782E-02
RMM:   5    -0.232035941223E+04    0.66327E-04   -0.55902E-05  2640   0.419E-03    0.107E-02
RMM:   6    -0.232035941243E+04   -0.19869E-06   -0.69236E-06  2261   0.174E-03
  16 F= -.23412447E+04 E0= -.23412447E+04  d E =-.167450E-04  mag=     4.9999
       N       E                     dE             d eps       ncg     rms          rms(c)
DAV:   1    -0.232036119227E+04   -0.17800E-02   -0.11796E+00  4400   0.421E-01    0.335E-01
RMM:   2    -0.232036114329E+04    0.48980E-04   -0.39161E-03  3477   0.228E-02    0.199E-01
RMM:   3    -0.232036124729E+04   -0.10400E-03   -0.10559E-03  3998   0.122E-02    0.132E-01
RMM:   4    -0.232036111164E+04    0.13564E-03   -0.34122E-04  3057   0.829E-03    0.541E-02
RMM:   5    -0.232036109405E+04    0.17595E-04   -0.42349E-05  2748   0.381E-03    0.291E-02
RMM:   6    -0.232036108615E+04    0.78924E-05   -0.14691E-05  2307   0.233E-03
  17 F= -.23412464E+04 E0= -.23412464E+04  d E =-.143950E-04  mag=     4.9999
       N       E                     dE             d eps       ncg     rms          rms(c)
DAV:   1    -0.232036123986E+04   -0.14581E-03   -0.65249E-01  4640   0.319E-01    0.380E-01
RMM:   2    -0.232035919113E+04    0.20487E-02   -0.84674E-03  3788   0.335E-02    0.197E-01
RMM:   3    -0.232035891954E+04    0.27159E-03   -0.11466E-03  3778   0.168E-02    0.123E-01
RMM:   4    -0.232035911985E+04   -0.20031E-03   -0.85457E-04  3915   0.121E-02    0.172E-01
RMM:   5    -0.232035881200E+04    0.30785E-03   -0.24462E-04  3377   0.803E-03    0.417E-02
RMM:   6    -0.232035880839E+04    0.36076E-05   -0.57914E-05  2705   0.379E-03
  18 F= -.23412442E+04 E0= -.23412441E+04  d E =-.142669E-04  mag=     4.9999
       N       E                     dE             d eps       ncg     rms          rms(c)
DAV:   1    -0.232034577450E+04    0.13038E-01   -0.13440E+00  4800   0.450E-01    0.620E-01
RMM:   2    -0.232033916431E+04    0.66102E-02   -0.25330E-02  3960   0.584E-02    0.308E-01
RMM:   3    -0.232033818408E+04    0.98023E-03   -0.32885E-03  4253   0.303E-02    0.182E-01
RMM:   4    -0.232033878200E+04   -0.59792E-03   -0.22468E-03  4727   0.192E-02    0.285E-01
RMM:   5    -0.232033790520E+04    0.87679E-03   -0.69412E-04  4110   0.123E-02    0.602E-02
RMM:   6    -0.232033790731E+04   -0.21020E-05   -0.15023E-04  2994   0.540E-03    0.601E-02
RMM:   7    -0.232033787014E+04    0.37162E-04   -0.30315E-05  2619   0.331E-03    0.112E-02
RMM:   8    -0.232033786939E+04    0.75444E-06   -0.75384E-06  2536   0.173E-03
  19 F= -.23412232E+04 E0= -.23412232E+04  d E =-.158335E-04  mag=     4.9999
       N       E                     dE             d eps       ncg     rms          rms(c)
DAV:   1    -0.232036439814E+04   -0.26528E-01   -0.60369E-01  4640   0.327E-01    0.333E-01
RMM:   2    -0.232036299669E+04    0.14015E-02   -0.72647E-03  3891   0.323E-02    0.188E-01
RMM:   3    -0.232036334445E+04   -0.34777E-03   -0.21275E-03  4454   0.221E-02    0.291E-01
RMM:   4    -0.232036260254E+04    0.74191E-03   -0.10841E-03  4061   0.132E-02    0.811E-02
RMM:   5    -0.232036261664E+04   -0.14104E-04   -0.23132E-04  3257   0.711E-03    0.864E-02
RMM:   6    -0.232036253623E+04    0.80415E-04   -0.96888E-05  2841   0.502E-03    0.205E-02
RMM:   7    -0.232036253304E+04    0.31910E-05   -0.10597E-05  2640   0.222E-03
  20 F= -.23412468E+04 E0= -.23412468E+04  d E =-.796871E-05  mag=     4.9999
       N       E                     dE             d eps       ncg     rms          rms(c)
DAV:   1    -0.232036127762E+04    0.12586E-02   -0.10766E+00  4480   0.421E-01    0.331E-01
RMM:   2    -0.232036068938E+04    0.58824E-03   -0.72518E-03  4679   0.333E-02    0.219E-01
RMM:   3    -0.232036110510E+04   -0.41572E-03   -0.25420E-03  4825   0.223E-02    0.328E-01
RMM:   4    -0.232036016471E+04    0.94039E-03   -0.10891E-03  4329   0.130E-02    0.872E-02
RMM:   5    -0.232036023725E+04   -0.72535E-04   -0.38994E-04  3376   0.856E-03    0.110E-01
RMM:   6    -0.232036011127E+04    0.12598E-03   -0.12486E-04  3079   0.578E-03    0.237E-02
RMM:   7    -0.232036010825E+04    0.30173E-05   -0.17246E-05  2813   0.257E-03
  21 F= -.23412463E+04 E0= -.23412463E+04  d E =-.301615E-04  mag=     4.9998
       N       E                     dE             d eps       ncg     rms          rms(c)
DAV:   1    -0.232035974146E+04    0.36981E-03   -0.54096E-01  4480   0.303E-01    0.215E-01
RMM:   2    -0.232036007364E+04   -0.33218E-03   -0.38484E-03  4452   0.259E-02    0.251E-01
RMM:   3    -0.232035952868E+04    0.54496E-03   -0.10521E-03  4301   0.138E-02    0.134E-01
RMM:   4    -0.232035943549E+04    0.93186E-04   -0.34052E-04  3579   0.845E-03    0.978E-02
RMM:   5    -0.232035939686E+04    0.38634E-04   -0.19625E-04  3058   0.632E-03    0.652E-02
RMM:   6    -0.232035935901E+04    0.37845E-04   -0.40478E-05  2871   0.388E-03    0.123E-02
RMM:   7    -0.232035935838E+04    0.63067E-06   -0.76708E-06  2634   0.210E-03
  22 F= -.23412442E+04 E0= -.23412442E+04  d E =-.117893E-04  mag=     4.9999
       N       E                     dE             d eps       ncg     rms          rms(c)
DAV:   1    -0.232035808399E+04    0.12750E-02   -0.10953E+00  4480   0.425E-01    0.262E-01
RMM:   2    -0.232035982840E+04   -0.17444E-02   -0.69583E-03  4578   0.354E-02    0.442E-01
RMM:   3    -0.232035786577E+04    0.19626E-02   -0.16285E-03  4676   0.176E-02    0.131E-01
RMM:   4    -0.232035798596E+04   -0.12018E-03   -0.68191E-04  3755   0.105E-02    0.162E-01
RMM:   5    -0.232035778937E+04    0.19658E-03   -0.37649E-04  3315   0.799E-03    0.578E-02
RMM:   6    -0.232035775733E+04    0.32049E-04   -0.47155E-05  2966   0.401E-03    0.144E-02
RMM:   7    -0.232035775562E+04    0.17047E-05   -0.85294E-06  2580   0.210E-03
  23 F= -.23412436E+04 E0= -.23412435E+04  d E =-.203566E-04  mag=     4.9999
       N       E                     dE             d eps       ncg     rms          rms(c)
DAV:   1    -0.232035919353E+04   -0.14362E-02   -0.57045E-01  4480   0.308E-01    0.235E-01
RMM:   2    -0.232036034168E+04   -0.11481E-02   -0.52571E-03  4510   0.307E-02    0.361E-01
RMM:   3    -0.232035906520E+04    0.12765E-02   -0.14207E-03  4530   0.162E-02    0.127E-01
RMM:   4    -0.232035907209E+04   -0.68943E-05   -0.42591E-04  3649   0.882E-03    0.129E-01
RMM:   5    -0.232035896566E+04    0.10643E-03   -0.27402E-04  3249   0.706E-03    0.648E-02
RMM:   6    -0.232035893215E+04    0.33507E-04   -0.37420E-05  2960   0.394E-03    0.154E-02
RMM:   7    -0.232035892959E+04    0.25666E-05   -0.79110E-06  2667   0.230E-03
  24 F= -.23412440E+04 E0= -.23412440E+04  d E =-.277188E-04  mag=     4.9998
       N       E                     dE             d eps       ncg     rms          rms(c)
DAV:   1    -0.232035728096E+04    0.16512E-02   -0.11396E+00  4480   0.429E-01    0.333E-01
RMM:   2    -0.232035832586E+04   -0.10449E-02   -0.74577E-03  4273   0.369E-02    0.317E-01
RMM:   3    -0.232035788590E+04    0.43996E-03   -0.22663E-03  4990   0.198E-02    0.254E-01
RMM:   4    -0.232035733864E+04    0.54725E-03   -0.85569E-04  4239   0.125E-02    0.126E-01
RMM:   5    -0.232035740366E+04   -0.65017E-04   -0.54572E-04  3634   0.921E-03    0.141E-01
RMM:   6    -0.232035722016E+04    0.18351E-03   -0.14570E-04  3113   0.639E-03    0.288E-02
RMM:   7    -0.232035721153E+04    0.86272E-05   -0.25423E-05  2816   0.309E-03
  25 F= -.23412428E+04 E0= -.23412428E+04  d E =-.858010E-05  mag=     4.9999
       N       E                     dE             d eps       ncg     rms          rms(c)
DAV:   1    -0.232034811916E+04    0.91010E-02   -0.61824E-01  4800   0.352E-01    0.349E-01
RMM:   2    -0.232034684337E+04    0.12758E-02   -0.97962E-03  3863   0.392E-02    0.228E-01
RMM:   3    -0.232034725666E+04   -0.41329E-03   -0.24588E-03  4798   0.219E-02    0.312E-01
RMM:   4    -0.232034624693E+04    0.10097E-02   -0.10687E-03  4244   0.142E-02    0.103E-01
RMM:   5    -0.232034634645E+04   -0.99518E-04   -0.44507E-04  3522   0.841E-03    0.141E-01
RMM:   6    -0.232034615422E+04    0.19223E-03   -0.16587E-04  3008   0.626E-03    0.206E-02
RMM:   7    -0.232034614978E+04    0.44419E-05   -0.17410E-05  2688   0.252E-03
  26 F= -.23412317E+04 E0= -.23412317E+04  d E =-.150085E-04  mag=     4.9999
       N       E                     dE             d eps       ncg     rms          rms(c)
DAV:   1    -0.232035671047E+04   -0.10556E-01   -0.13583E+00  4800   0.500E-01    0.650E-01
RMM:   2    -0.232034957660E+04    0.71339E-02   -0.28969E-02  3931   0.608E-02    0.325E-01
RMM:   3    -0.232034881778E+04    0.75883E-03   -0.37828E-03  4740   0.300E-02    0.275E-01
RMM:   4    -0.232034883344E+04   -0.15667E-04   -0.24574E-03  4841   0.201E-02    0.267E-01
RMM:   5    -0.232034814645E+04    0.68699E-03   -0.63925E-04  4051   0.119E-02    0.874E-02
RMM:   6    -0.232034811118E+04    0.35273E-04   -0.19252E-04  3064   0.664E-03    0.576E-02
RMM:   7    -0.232034807588E+04    0.35299E-04   -0.29180E-05  2724   0.345E-03    0.115E-02
RMM:   8    -0.232034807454E+04    0.13422E-05   -0.69998E-06  2564   0.189E-03
  27 F= -.23412332E+04 E0= -.23412332E+04  d E =-.163169E-04  mag=     4.9999
       N       E                     dE             d eps       ncg     rms          rms(c)
DAV:   1    -0.232036561490E+04   -0.17539E-01   -0.64495E-01  4480   0.349E-01    0.387E-01
RMM:   2    -0.232036351198E+04    0.21029E-02   -0.91100E-03  3768   0.337E-02    0.202E-01
RMM:   3    -0.232036340466E+04    0.10731E-03   -0.14309E-03  4222   0.176E-02    0.190E-01
RMM:   4    -0.232036329178E+04    0.11288E-03   -0.91276E-04  4002   0.126E-02    0.152E-01
RMM:   5    -0.232036308950E+04    0.20229E-03   -0.22149E-04  3404   0.751E-03    0.555E-02
RMM:   6    -0.232036307448E+04    0.15012E-04   -0.73459E-05  2774   0.446E-03    0.349E-02
RMM:   7    -0.232036306125E+04    0.13233E-04   -0.10475E-05  2484   0.236E-03    0.731E-03
RMM:   8    -0.232036306070E+04    0.54995E-06   -0.28669E-06  2322   0.137E-03
  28 F= -.23412484E+04 E0= -.23412484E+04  d E =-.145107E-04  mag=     4.9999
       N       E                     dE             d eps       ncg     rms          rms(c)
DAV:   1    -0.232035779500E+04    0.52663E-02   -0.11898E+00  4480   0.470E-01    0.341E-01
RMM:   2    -0.232035784550E+04   -0.50504E-04   -0.41946E-03  3608   0.254E-02    0.204E-01
RMM:   3    -0.232035814525E+04   -0.29974E-03   -0.13643E-03  4321   0.147E-02    0.187E-01
RMM:   4    -0.232035777450E+04    0.37075E-03   -0.48474E-04  3417   0.101E-02    0.389E-02
RMM:   5    -0.232035777344E+04    0.10565E-05   -0.63501E-05  2915   0.396E-03
  29 F= -.23412431E+04 E0= -.23412431E+04  d E =-.188054E-04  mag=     4.9999
       N       E                     dE             d eps       ncg     rms          rms(c)
DAV:   1    -0.232036091762E+04   -0.31431E-02   -0.61005E-01  4400   0.334E-01    0.238E-01
RMM:   2    -0.232036089123E+04    0.26383E-04   -0.27480E-03  3503   0.206E-02    0.144E-01
RMM:   3    -0.232036129861E+04   -0.40738E-03   -0.94598E-04  4260   0.114E-02    0.219E-01
RMM:   4    -0.232036081869E+04    0.47992E-03   -0.49577E-04  3393   0.101E-02    0.380E-02
RMM:   5    -0.232036082338E+04   -0.46880E-05   -0.69038E-05  2875   0.403E-03
  30 F= -.23412465E+04 E0= -.23412465E+04  d E =-.163406E-04  mag=     4.9999
       N       E                     dE             d eps       ncg     rms          rms(c)
DAV:   1    -0.232035666495E+04    0.41537E-02   -0.12451E+00  4480   0.466E-01    0.336E-01
RMM:   2    -0.232035644628E+04    0.21867E-03   -0.45645E-03  3547   0.280E-02    0.199E-01
RMM:   3    -0.232035669359E+04   -0.24731E-03   -0.12464E-03  4313   0.142E-02    0.195E-01
RMM:   4    -0.232035637579E+04    0.31780E-03   -0.58422E-04  3536   0.107E-02    0.777E-02
RMM:   5    -0.232035632925E+04    0.46532E-04   -0.50136E-05  2941   0.453E-03    0.197E-02
RMM:   6    -0.232035632774E+04    0.15153E-05   -0.12874E-05  2357   0.240E-03
  31 F= -.23412413E+04 E0= -.23412413E+04  d E =-.136969E-04  mag=     4.9999
