       N       E                     dE             d eps       ncg     rms          rms(c)
DAV:   1     0.120755395774E+05    0.12076E+05   -0.81900E+05  4560   0.138E+03
DAV:   2    -0.121345060620E+04   -0.13289E+05   -0.12746E+05  5360   0.318E+02
DAV:   3    -0.248443646741E+04   -0.12710E+04   -0.12615E+04  5480   0.102E+02
DAV:   4    -0.251129888565E+04   -0.26862E+02   -0.26745E+02  5720   0.180E+01
DAV:   5    -0.251201458460E+04   -0.71570E+00   -0.71450E+00  5680   0.252E+00    0.170E+02
RMM:   6    -0.146408295819E+04    0.10479E+04   -0.18819E+03  4487   0.374E+01    0.725E+01
RMM:   7    -0.163307633603E+04   -0.16899E+03   -0.25346E+02  4994   0.130E+01    0.517E+01
RMM:   8    -0.168632909814E+04   -0.53253E+02   -0.59828E+01  5056   0.728E+00    0.381E+01
RMM:   9    -0.180871875332E+04   -0.12239E+03   -0.61034E+01  4657   0.772E+00    0.256E+01
RMM:  10    -0.195556362524E+04   -0.14684E+03   -0.56665E+01  4786   0.695E+00    0.169E+01
RMM:  11    -0.208313742696E+04   -0.12757E+03   -0.68777E+01  4591   0.613E+00    0.130E+01
RMM:  12    -0.226127689128E+04   -0.17814E+03   -0.18754E+02  4484   0.891E+00    0.664E+00
RMM:  13    -0.228955580182E+04   -0.28279E+02   -0.28418E+01  4586   0.435E+00    0.458E+00
RMM:  14    -0.230150375752E+04   -0.11948E+02   -0.14071E+01  4562   0.277E+00    0.250E+00
RMM:  15    -0.230479324294E+04   -0.32895E+01   -0.30108E+00  4819   0.156E+00    0.200E+00
RMM:  16    -0.230557055276E+04   -0.77731E+00   -0.61278E-01  5091   0.483E-01    0.129E+00
RMM:  17    -0.230640696706E+04   -0.83641E+00   -0.32438E-01  4809   0.404E-01    0.794E-01
RMM:  18    -0.230648250531E+04   -0.75538E-01   -0.38438E-02  4778   0.222E-01    0.544E-01
RMM:  19    -0.230652523608E+04   -0.42731E-01   -0.16358E-02  4710   0.915E-02    0.293E-01
RMM:  20    -0.230655988520E+04   -0.34649E-01   -0.12453E-02  4671   0.926E-02    0.139E-01
RMM:  21    -0.230657649320E+04   -0.16608E-01   -0.59646E-03  4540   0.686E-02    0.846E-02
RMM:  22    -0.230658765954E+04   -0.11166E-01   -0.38030E-03  4553   0.519E-02    0.609E-02
RMM:  23    -0.230659557145E+04   -0.79119E-02   -0.25899E-03  4543   0.415E-02    0.467E-02
RMM:  24    -0.230660024603E+04   -0.46746E-02   -0.17554E-03  4629   0.330E-02    0.267E-02
RMM:  25    -0.230660135306E+04   -0.11070E-02   -0.47282E-04  4271   0.210E-02    0.185E-02
RMM:  26    -0.230660207968E+04   -0.72662E-03   -0.21413E-04  3904   0.107E-02    0.900E-03
RMM:  27    -0.230660239191E+04   -0.31222E-03   -0.89659E-05  3722   0.942E-03    0.669E-03
RMM:  28    -0.230660250946E+04   -0.11755E-03   -0.39132E-05  3468   0.541E-03    0.410E-03
RMM:  29    -0.230660257915E+04   -0.69695E-04   -0.19658E-05  3148   0.470E-03    0.249E-03
RMM:  30    -0.230660261893E+04   -0.39783E-04   -0.13535E-05  3047   0.354E-03    0.153E-03
RMM:  31    -0.230660262869E+04   -0.97611E-05   -0.61648E-06  2729   0.289E-03
   1 F= -.23266533E+04 E0= -.23266533E+04  d E =-.177839E-13  mag=     1.0000
       N       E                     dE             d eps       ncg     rms          rms(c)
DAV:   1    -0.230659364416E+04    0.89748E-02   -0.21692E+00  4400   0.725E-01    0.429E-01
RMM:   2    -0.230659241987E+04    0.12243E-02   -0.15477E-02  4168   0.529E-02    0.258E-01
RMM:   3    -0.230659078039E+04    0.16395E-02   -0.40541E-03  4799   0.307E-02    0.102E-01
RMM:   4    -0.230659097537E+04   -0.19498E-03   -0.94181E-04  4218   0.129E-02    0.695E-02
RMM:   5    -0.230659097955E+04   -0.41808E-05   -0.12902E-04  3216   0.654E-03    0.484E-02
RMM:   6    -0.230659096386E+04    0.15688E-04   -0.89161E-05  3086   0.433E-03    0.254E-02
RMM:   7    -0.230659095930E+04    0.45597E-05   -0.26319E-05  2818   0.338E-03
   2 F= -.23266420E+04 E0= -.23266420E+04  d E =-.106445E-13  mag=     1.0000
       N       E                     dE             d eps       ncg     rms          rms(c)
DAV:   1    -0.230659807452E+04   -0.71107E-02   -0.85812E+00  4560   0.143E+00    0.827E-01
RMM:   2    -0.230659246163E+04    0.56129E-02   -0.49430E-02  4358   0.100E-01    0.503E-01
RMM:   3    -0.230658632374E+04    0.61379E-02   -0.13943E-02  5160   0.579E-02    0.206E-01
RMM:   4    -0.230658693969E+04   -0.61595E-03   -0.37116E-03  4780   0.245E-02    0.142E-01
RMM:   5    -0.230658695568E+04   -0.15986E-04   -0.55255E-04  3901   0.122E-02    0.103E-01
RMM:   6    -0.230658686114E+04    0.94536E-04   -0.28012E-04  3576   0.697E-03    0.524E-02
RMM:   7    -0.230658683628E+04    0.24863E-04   -0.93891E-05  3187   0.535E-03    0.165E-02
RMM:   8    -0.230658683540E+04    0.88300E-06   -0.12652E-05  2879   0.334E-03
   3 F= -.23266372E+04 E0= -.23266372E+04  d E =-.228706E-16  mag=     1.0000
       N       E                     dE             d eps       ncg     rms          rms(c)
DAV:   1    -0.230658052179E+04    0.63145E-02   -0.42953E+00  4480   0.104E+00    0.531E-01
RMM:   2    -0.230657830377E+04    0.22180E-02   -0.25124E-02  4072   0.710E-02    0.317E-01
RMM:   3    -0.230657605223E+04    0.22515E-02   -0.71554E-03  4924   0.389E-02    0.150E-01
RMM:   4    -0.230657625078E+04   -0.19855E-03   -0.15838E-03  4702   0.175E-02    0.915E-02
RMM:   5    -0.230657623900E+04    0.11781E-04   -0.26440E-04  3531   0.718E-03    0.688E-02
RMM:   6    -0.230657618901E+04    0.49988E-04   -0.11721E-04  3160   0.494E-03    0.299E-02
RMM:   7    -0.230657618926E+04   -0.24369E-06   -0.30741E-05  2941   0.388E-03
   4 F= -.23266269E+04 E0= -.23266269E+04  d E =-.101848E-13  mag=     1.0000
       N       E                     dE             d eps       ncg     rms          rms(c)
DAV:   1    -0.230659301729E+04   -0.16828E-01   -0.86978E+00  4480   0.149E+00    0.647E-01
RMM:   2    -0.230658911238E+04    0.39049E-02   -0.36687E-02  4074   0.937E-02    0.386E-01
RMM:   3    -0.230658679517E+04    0.23172E-02   -0.15034E-02  4654   0.467E-02    0.127E-01
RMM:   4    -0.230658665376E+04    0.14141E-03   -0.15494E-03  4638   0.253E-02    0.658E-02
RMM:   5    -0.230658658688E+04    0.66877E-04   -0.15974E-04  3407   0.625E-03    0.355E-02
RMM:   6    -0.230658656776E+04    0.19126E-04   -0.61203E-05  3086   0.412E-03    0.194E-02
RMM:   7    -0.230658656582E+04    0.19396E-05   -0.16531E-05  2893   0.321E-03
   5 F= -.23266371E+04 E0= -.23266371E+04  d E =-.494112E-15  mag=     1.0000
       N       E                     dE             d eps       ncg     rms          rms(c)
DAV:   1    -0.230658965003E+04   -0.30823E-02   -0.42505E+00  4480   0.103E+00    0.426E-01
RMM:   2    -0.230658765502E+04    0.19950E-02   -0.17127E-02  3913   0.612E-02    0.249E-01
RMM:   3    -0.230658664387E+04    0.10112E-02   -0.60074E-03  4984   0.312E-02    0.125E-01
RMM:   4    -0.230658640523E+04    0.23864E-03   -0.89840E-04  4357   0.153E-02    0.408E-02
RMM:   5    -0.230658638483E+04    0.20397E-04   -0.85276E-05  3138   0.479E-03    0.196E-02
RMM:   6    -0.230658638210E+04    0.27291E-05   -0.20521E-05  2801   0.295E-03
   6 F= -.23266370E+04 E0= -.23266370E+04  d E =-.749268E-16  mag=     1.0000
       N       E                     dE             d eps       ncg     rms          rms(c)
DAV:   1    -0.230659905259E+04   -0.12668E-01   -0.81952E+00  4480   0.140E+00    0.548E-01
RMM:   2    -0.230659750285E+04    0.15497E-02   -0.40386E-02  3982   0.837E-02    0.309E-01
RMM:   3    -0.230659539905E+04    0.21038E-02   -0.73920E-03  5262   0.375E-02    0.144E-01
RMM:   4    -0.230659529656E+04    0.10249E-03   -0.14676E-03  4238   0.152E-02    0.686E-02
RMM:   5    -0.230659525984E+04    0.36723E-04   -0.14476E-04  3179   0.713E-03    0.303E-02
RMM:   6    -0.230659525635E+04    0.34947E-05   -0.52915E-05  3034   0.347E-03
   7 F= -.23266460E+04 E0= -.23266460E+04  d E =-.542390E-15  mag=     1.0000
       N       E                     dE             d eps       ncg     rms          rms(c)
DAV:   1    -0.230659889608E+04   -0.36362E-02   -0.41809E+00  4400   0.789E-01    0.408E-01
RMM:   2    -0.230659953765E+04   -0.64157E-03   -0.32243E-02  4100   0.661E-02    0.235E-01
RMM:   3    -0.230659809657E+04    0.14411E-02   -0.35707E-03  4988   0.311E-02    0.116E-01
RMM:   4    -0.230659811278E+04   -0.16217E-04   -0.12365E-03  4244   0.140E-02    0.564E-02
RMM:   5    -0.230659813394E+04   -0.21157E-04   -0.15740E-04  3400   0.782E-03    0.428E-02
RMM:   6    -0.230659812629E+04    0.76502E-05   -0.38185E-05  2899   0.350E-03
   8 F= -.23266483E+04 E0= -.23266483E+04  d E =-.850751E-18  mag=     1.0000
       N       E                     dE             d eps       ncg     rms          rms(c)
DAV:   1    -0.230658519668E+04    0.12937E-01   -0.76526E+00  4480   0.800E-01    0.680E-01
RMM:   2    -0.230658698132E+04   -0.17846E-02   -0.67944E-02  4797   0.751E-02    0.381E-01
RMM:   3    -0.230658468699E+04    0.22943E-02   -0.10474E-02  4505   0.484E-02    0.243E-01
RMM:   4    -0.230658452754E+04    0.15946E-03   -0.35640E-03  4829   0.202E-02    0.132E-01
RMM:   5    -0.230658443386E+04    0.93681E-04   -0.65105E-04  4540   0.974E-03    0.944E-02
RMM:   6    -0.230658445350E+04   -0.19642E-04   -0.13520E-04  3136   0.616E-03    0.593E-02
RMM:   7    -0.230658442564E+04    0.27863E-04   -0.10598E-04  3214   0.499E-03    0.202E-02
RMM:   8    -0.230658443838E+04   -0.12741E-04   -0.18590E-05  2896   0.371E-03    0.117E-02
RMM:   9    -0.230658443839E+04   -0.17666E-07   -0.50641E-06  2795   0.197E-03
   9 F= -.23266356E+04 E0= -.23266356E+04  d E =-.309950E-11  mag=     1.0000
       N       E                     dE             d eps       ncg     rms          rms(c)
DAV:   1    -0.230660480615E+04   -0.20368E-01   -0.37891E+00  4480   0.495E-01    0.453E-01
RMM:   2    -0.230660556494E+04   -0.75879E-03   -0.27981E-02  4467   0.488E-02    0.248E-01
RMM:   3    -0.230660451944E+04    0.10455E-02   -0.40197E-03  4334   0.313E-02    0.156E-01
RMM:   4    -0.230660445954E+04    0.59904E-04   -0.12894E-03  4351   0.132E-02    0.797E-02
RMM:   5    -0.230660444244E+04    0.17093E-04   -0.26912E-04  3779   0.664E-03    0.547E-02
RMM:   6    -0.230660443715E+04    0.52935E-05   -0.45465E-05  2984   0.442E-03
  10 F= -.23266548E+04 E0= -.23266548E+04  d E =-.190177E-16  mag=     1.0000
       N       E                     dE             d eps       ncg     rms          rms(c)
DAV:   1    -0.230660097066E+04    0.34718E-02   -0.70370E+00  4480   0.734E-01    0.535E-01
RMM:   2    -0.230660021888E+04    0.75178E-03   -0.28581E-02  4217   0.511E-02    0.248E-01
RMM:   3    -0.230659943591E+04    0.78298E-03   -0.31256E-03  4411   0.284E-02    0.116E-01
RMM:   4    -0.230659951898E+04   -0.83071E-04   -0.72394E-04  3954   0.102E-02    0.677E-02
RMM:   5    -0.230659951585E+04    0.31268E-05   -0.16352E-04  3243   0.650E-03    0.352E-02
RMM:   6    -0.230659951322E+04    0.26314E-05   -0.40272E-05  2916   0.385E-03
  11 F= -.23266505E+04 E0= -.23266505E+04  d E =-.441119E-15  mag=     1.0000
       N       E                     dE             d eps       ncg     rms          rms(c)
DAV:   1    -0.230659951294E+04    0.29058E-05   -0.36664E+00  4400   0.550E-01    0.383E-01
RMM:   2    -0.230660059892E+04   -0.10860E-02   -0.23587E-02  4376   0.433E-02    0.202E-01
RMM:   3    -0.230659964980E+04    0.94912E-03   -0.23324E-03  4407   0.248E-02    0.102E-01
RMM:   4    -0.230659971812E+04   -0.68321E-04   -0.58455E-04  3895   0.840E-03    0.527E-02
RMM:   5    -0.230659972334E+04   -0.52140E-05   -0.92151E-05  2988   0.575E-03
  12 F= -.23266513E+04 E0= -.23266513E+04  d E =-.238755E-16  mag=     1.0000
       N       E                     dE             d eps       ncg     rms          rms(c)
DAV:   1    -0.230659468371E+04    0.50344E-02   -0.71557E+00  4480   0.845E-01    0.548E-01
RMM:   2    -0.230659693136E+04   -0.22476E-02   -0.43423E-02  4389   0.630E-02    0.318E-01
RMM:   3    -0.230659475810E+04    0.21733E-02   -0.52291E-03  4728   0.356E-02    0.176E-01
RMM:   4    -0.230659476175E+04   -0.36494E-05   -0.15768E-03  4802   0.143E-02    0.111E-01
RMM:   5    -0.230659482137E+04   -0.59622E-04   -0.31577E-04  3471   0.830E-03    0.910E-02
RMM:   6    -0.230659478141E+04    0.39961E-04   -0.12154E-04  3150   0.493E-03    0.586E-02
RMM:   7    -0.230659475307E+04    0.28341E-04   -0.89228E-05  3141   0.495E-03    0.170E-02
RMM:   8    -0.230659475457E+04   -0.15023E-05   -0.11271E-05  2778   0.308E-03
  13 F= -.23266446E+04 E0= -.23266446E+04  d E =-.699155E-14  mag=     1.0000
       N       E                     dE             d eps       ncg     rms          rms(c)
DAV:   1    -0.230659745133E+04   -0.26983E-02   -0.21207E+00  4480   0.517E-01    0.323E-01
RMM:   2    -0.230659823082E+04   -0.77949E-03   -0.15762E-02  4222   0.414E-02    0.185E-01
RMM:   3    -0.230659754420E+04    0.68662E-03   -0.17908E-03  4419   0.227E-02    0.875E-02
RMM:   4    -0.230659766178E+04   -0.11758E-03   -0.42877E-04  3735   0.794E-03    0.561E-02
RMM:   5    -0.230659766380E+04   -0.20193E-05   -0.71183E-05  2902   0.518E-03
  14 F= -.23266482E+04 E0= -.23266482E+04  d E =-.444200E-16  mag=     1.0000
       N       E                     dE             d eps       ncg     rms          rms(c)
DAV:   1    -0.230660248462E+04   -0.48228E-02   -0.12304E+00  4600   0.509E-01    0.342E-01
RMM:   2    -0.230660250814E+04   -0.23514E-04   -0.81300E-03  3828   0.389E-02    0.202E-01
RMM:   3    -0.230660244193E+04    0.66206E-04   -0.12475E-03  4334   0.156E-02    0.686E-02
RMM:   4    -0.230660242037E+04    0.21557E-04   -0.20101E-04  3328   0.810E-03    0.413E-02
RMM:   5    -0.230660239637E+04    0.24001E-04   -0.66169E-05  3147   0.423E-03    0.204E-02
RMM:   6    -0.230660240145E+04   -0.50766E-05   -0.11566E-05  2678   0.271E-03
  15 F= -.23266532E+04 E0= -.23266532E+04  d E =-.273386E-16  mag=     1.0000
       N       E                     dE             d eps       ncg     rms          rms(c)
DAV:   1    -0.230658714879E+04    0.15248E-01   -0.61167E-01  4840   0.363E-01    0.256E-01
RMM:   2    -0.230658691592E+04    0.23287E-03   -0.45128E-03  3712   0.289E-02    0.149E-01
RMM:   3    -0.230658689304E+04    0.22872E-04   -0.10839E-03  4102   0.132E-02    0.699E-02
RMM:   4    -0.230658682898E+04    0.64069E-04   -0.20270E-04  3333   0.732E-03    0.304E-02
RMM:   5    -0.230658681373E+04    0.15247E-04   -0.41879E-05  3010   0.341E-03    0.112E-02
RMM:   6    -0.230658681534E+04   -0.16156E-05   -0.57233E-06  2506   0.217E-03
  16 F= -.23266380E+04 E0= -.23266380E+04  d E =-.322680E-16  mag=     1.0000
       N       E                     dE             d eps       ncg     rms          rms(c)
DAV:   1    -0.230660250451E+04   -0.15691E-01   -0.12760E+00  5080   0.535E-01    0.529E-01
RMM:   2    -0.230659890029E+04    0.36042E-02   -0.20472E-02  4108   0.599E-02    0.293E-01
RMM:   3    -0.230659856308E+04    0.33721E-03   -0.51019E-03  4959   0.305E-02    0.184E-01
RMM:   4    -0.230659811417E+04    0.44891E-03   -0.11069E-03  4374   0.139E-02    0.830E-02
RMM:   5    -0.230659800796E+04    0.10621E-03   -0.29653E-04  3792   0.743E-03    0.306E-02
RMM:   6    -0.230659802248E+04   -0.14518E-04   -0.34269E-05  2951   0.452E-03    0.194E-02
RMM:   7    -0.230659802177E+04    0.71165E-06   -0.12235E-05  2609   0.211E-03
  17 F= -.23266481E+04 E0= -.23266481E+04  d E =-.287775E-16  mag=     1.0000
       N       E                     dE             d eps       ncg     rms          rms(c)
DAV:   1    -0.230660567242E+04   -0.76499E-02   -0.61548E-01  4880   0.364E-01    0.259E-01
RMM:   2    -0.230660570083E+04   -0.28406E-04   -0.48790E-03  3791   0.277E-02    0.155E-01
RMM:   3    -0.230660563867E+04    0.62155E-04   -0.97987E-04  4495   0.128E-02    0.867E-02
RMM:   4    -0.230660553089E+04    0.10779E-03   -0.22579E-04  3425   0.734E-03    0.250E-02
RMM:   5    -0.230660552310E+04    0.77848E-05   -0.32071E-05  2947   0.321E-03
  18 F= -.23266558E+04 E0= -.23266558E+04  d E =-.347499E-16  mag=     1.0000
       N       E                     dE             d eps       ncg     rms          rms(c)
DAV:   1    -0.230659229336E+04    0.13238E-01   -0.12192E+00  4840   0.511E-01    0.419E-01
RMM:   2    -0.230659138604E+04    0.90732E-03   -0.13314E-02  3900   0.440E-02    0.238E-01
RMM:   3    -0.230659090736E+04    0.47869E-03   -0.26232E-03  4857   0.210E-02    0.896E-02
RMM:   4    -0.230659084502E+04    0.62341E-04   -0.34021E-04  3408   0.930E-03    0.548E-02
RMM:   5    -0.230659079703E+04    0.47985E-04   -0.12686E-04  3456   0.521E-03    0.240E-02
RMM:   6    -0.230659080085E+04   -0.38226E-05   -0.15954E-05  2787   0.335E-03
  19 F= -.23266418E+04 E0= -.23266418E+04  d E =-.290878E-16  mag=     1.0000
       N       E                     dE             d eps       ncg     rms          rms(c)
DAV:   1    -0.230658838860E+04    0.24084E-02   -0.60327E-01  5200   0.384E-01    0.333E-01
RMM:   2    -0.230658769201E+04    0.69659E-03   -0.72525E-03  3760   0.356E-02    0.196E-01
RMM:   3    -0.230658737778E+04    0.31423E-03   -0.16885E-03  4540   0.173E-02    0.733E-02
RMM:   4    -0.230658730489E+04    0.72894E-04   -0.27605E-04  3290   0.843E-03    0.413E-02
RMM:   5    -0.230658726648E+04    0.38410E-04   -0.60125E-05  3178   0.406E-03    0.156E-02
RMM:   6    -0.230658727080E+04   -0.43221E-05   -0.10479E-05  2580   0.242E-03
  20 F= -.23266383E+04 E0= -.23266383E+04  d E =-.227963E-16  mag=     1.0000
       N       E                     dE             d eps       ncg     rms          rms(c)
DAV:   1    -0.230659819689E+04   -0.10930E-01   -0.12585E+00  5160   0.488E-01    0.603E-01
RMM:   2    -0.230659252211E+04    0.56748E-02   -0.26234E-02  4108   0.641E-02    0.321E-01
RMM:   3    -0.230659198444E+04    0.53767E-03   -0.60599E-03  4940   0.351E-02    0.181E-01
RMM:   4    -0.230659163549E+04    0.34895E-03   -0.11843E-03  4369   0.145E-02    0.108E-01
RMM:   5    -0.230659143342E+04    0.20207E-03   -0.40745E-04  3971   0.864E-03    0.417E-02
RMM:   6    -0.230659145560E+04   -0.22182E-04   -0.55443E-05  3066   0.514E-03    0.252E-02
RMM:   7    -0.230659145713E+04   -0.15272E-05   -0.14912E-05  2649   0.263E-03
  21 F= -.23266416E+04 E0= -.23266416E+04  d E =-.373608E-16  mag=     1.0000
       N       E                     dE             d eps       ncg     rms          rms(c)
DAV:   1    -0.230660335141E+04   -0.11896E-01   -0.62244E-01  5000   0.349E-01    0.339E-01
RMM:   2    -0.230660206601E+04    0.12854E-02   -0.81720E-03  3944   0.343E-02    0.186E-01
RMM:   3    -0.230660193845E+04    0.12756E-03   -0.17653E-03  4656   0.160E-02    0.101E-01
RMM:   4    -0.230660183025E+04    0.10820E-03   -0.34050E-04  3468   0.821E-03    0.573E-02
RMM:   5    -0.230660177760E+04    0.52652E-04   -0.11679E-04  3433   0.503E-03    0.213E-02
RMM:   6    -0.230660178543E+04   -0.78338E-05   -0.15422E-05  2738   0.320E-03
  22 F= -.23266524E+04 E0= -.23266524E+04  d E =-.424177E-16  mag=     1.0000
       N       E                     dE             d eps       ncg     rms          rms(c)
DAV:   1    -0.230660006386E+04    0.17137E-02   -0.11964E+00  4560   0.458E-01    0.298E-01
RMM:   2    -0.230660043000E+04   -0.36614E-03   -0.49627E-03  3757   0.318E-02    0.180E-01
RMM:   3    -0.230660045416E+04   -0.24165E-04   -0.85171E-04  3966   0.131E-02    0.295E-02
RMM:   4    -0.230660046490E+04   -0.10741E-04   -0.79264E-05  3049   0.731E-03    0.208E-02
RMM:   5    -0.230660046000E+04    0.49030E-05   -0.14277E-05  2620   0.238E-03
  23 F= -.23266511E+04 E0= -.23266511E+04  d E =-.214105E-16  mag=     1.0000
       N       E                     dE             d eps       ncg     rms          rms(c)
DAV:   1    -0.230660907491E+04   -0.86100E-02   -0.59163E-01  4520   0.339E-01    0.227E-01
RMM:   2    -0.230660945680E+04   -0.38189E-03   -0.34670E-03  3776   0.247E-02    0.143E-01
RMM:   3    -0.230660932793E+04    0.12887E-03   -0.57009E-04  4031   0.124E-02    0.520E-02
RMM:   4    -0.230660939380E+04   -0.65865E-04   -0.12943E-04  3257   0.569E-03    0.488E-02
RMM:   5    -0.230660938194E+04    0.11857E-04   -0.27424E-05  2714   0.336E-03    0.313E-02
RMM:   6    -0.230660937143E+04    0.10508E-04   -0.22728E-05  2802   0.265E-03    0.102E-02
RMM:   7    -0.230660937198E+04   -0.54574E-06   -0.51665E-06  2513   0.198E-03
  24 F= -.23266602E+04 E0= -.23266602E+04  d E =-.167952E-15  mag=     1.0000
       N       E                     dE             d eps       ncg     rms          rms(c)
DAV:   1    -0.230659409532E+04    0.15276E-01   -0.11641E+00  4520   0.475E-01    0.381E-01
RMM:   2    -0.230659486071E+04   -0.76539E-03   -0.85322E-03  4187   0.355E-02    0.240E-01
RMM:   3    -0.230659423174E+04    0.62897E-03   -0.16334E-03  4491   0.213E-02    0.112E-01
RMM:   4    -0.230659440757E+04   -0.17583E-03   -0.59755E-04  4205   0.998E-03    0.105E-01
RMM:   5    -0.230659435288E+04    0.54692E-04   -0.17195E-04  3310   0.624E-03    0.589E-02
RMM:   6    -0.230659432347E+04    0.29404E-04   -0.98734E-05  3171   0.468E-03    0.191E-02
RMM:   7    -0.230659432838E+04   -0.49070E-05   -0.17037E-05  2788   0.333E-03
  25 F= -.23266448E+04 E0= -.23266448E+04  d E =-.618312E-15  mag=     1.0000
       N       E                     dE             d eps       ncg     rms          rms(c)
DAV:   1    -0.230659846208E+04   -0.41386E-02   -0.60543E-01  4480   0.361E-01    0.263E-01
RMM:   2    -0.230659884115E+04   -0.37907E-03   -0.36092E-03  3758   0.265E-02    0.169E-01
RMM:   3    -0.230659854975E+04    0.29140E-03   -0.75398E-04  4146   0.139E-02    0.533E-02
RMM:   4    -0.230659865198E+04   -0.10223E-03   -0.12124E-04  3226   0.600E-03    0.505E-02
RMM:   5    -0.230659864635E+04    0.56292E-05   -0.27942E-05  2675   0.339E-03
  26 F= -.23266491E+04 E0= -.23266491E+04  d E =-.240528E-16  mag=     1.0000
       N       E                     dE             d eps       ncg     rms          rms(c)
DAV:   1    -0.230660139409E+04   -0.27421E-02   -0.12369E+00  4480   0.499E-01    0.342E-01
RMM:   2    -0.230660145366E+04   -0.59573E-04   -0.75962E-03  3763   0.366E-02    0.204E-01
RMM:   3    -0.230660142593E+04    0.27733E-04   -0.14224E-03  4320   0.160E-02    0.689E-02
RMM:   4    -0.230660139071E+04    0.35218E-04   -0.22454E-04  3442   0.837E-03    0.350E-02
RMM:   5    -0.230660137624E+04    0.14471E-04   -0.42345E-05  3054   0.366E-03    0.172E-02
RMM:   6    -0.230660137759E+04   -0.13547E-05   -0.75613E-06  2614   0.227E-03
  27 F= -.23266522E+04 E0= -.23266522E+04  d E =-.345750E-16  mag=     1.0000
       N       E                     dE             d eps       ncg     rms          rms(c)
DAV:   1    -0.230659969422E+04    0.16820E-02   -0.64852E-01  4960   0.365E-01    0.370E-01
RMM:   2    -0.230659809989E+04    0.15943E-02   -0.10690E-02  3972   0.407E-02    0.210E-01
RMM:   3    -0.230659795329E+04    0.14660E-03   -0.26105E-03  4763   0.221E-02    0.142E-01
RMM:   4    -0.230659768250E+04    0.27078E-03   -0.64423E-04  3905   0.106E-02    0.567E-02
RMM:   5    -0.230659763770E+04    0.44805E-04   -0.14945E-04  3467   0.574E-03    0.220E-02
RMM:   6    -0.230659764561E+04   -0.79072E-05   -0.16799E-05  2763   0.331E-03
  28 F= -.23266478E+04 E0= -.23266478E+04  d E =-.297948E-16  mag=     1.0000
       N       E                     dE             d eps       ncg     rms          rms(c)
DAV:   1    -0.230659198488E+04    0.56528E-02   -0.12812E+00  4920   0.523E-01    0.537E-01
RMM:   2    -0.230658829157E+04    0.36933E-02   -0.23787E-02  4080   0.591E-02    0.300E-01
RMM:   3    -0.230658792764E+04    0.36393E-03   -0.53039E-03  5201   0.294E-02    0.199E-01
RMM:   4    -0.230658740457E+04    0.52307E-03   -0.12483E-03  4368   0.145E-02    0.843E-02
RMM:   5    -0.230658730329E+04    0.10128E-03   -0.34955E-04  3779   0.729E-03    0.316E-02
RMM:   6    -0.230658731338E+04   -0.10091E-04   -0.37510E-05  2966   0.472E-03    0.199E-02
RMM:   7    -0.230658731213E+04    0.12531E-05   -0.12992E-05  2656   0.210E-03
  29 F= -.23266384E+04 E0= -.23266384E+04  d E =-.292187E-16  mag=     1.0000
       N       E                     dE             d eps       ncg     rms          rms(c)
DAV:   1    -0.230659665938E+04   -0.93460E-02   -0.64674E-01  4880   0.367E-01    0.406E-01
RMM:   2    -0.230659449140E+04    0.21680E-02   -0.13509E-02  3985   0.451E-02    0.225E-01
RMM:   3    -0.230659428465E+04    0.20675E-03   -0.32488E-03  4750   0.226E-02    0.144E-01
RMM:   4    -0.230659401519E+04    0.26946E-03   -0.71260E-04  4049   0.113E-02    0.674E-02
RMM:   5    -0.230659393795E+04    0.77236E-04   -0.20828E-04  3560   0.598E-03    0.254E-02
RMM:   6    -0.230659394521E+04   -0.72594E-05   -0.23595E-05  2836   0.382E-03
  30 F= -.23266442E+04 E0= -.23266442E+04  d E =-.490965E-16  mag=     1.0000
       N       E                     dE             d eps       ncg     rms          rms(c)
DAV:   1    -0.230660351655E+04   -0.95786E-02   -0.12339E+00  4560   0.503E-01    0.431E-01
RMM:   2    -0.230660237672E+04    0.11398E-02   -0.13470E-02  3941   0.429E-02    0.240E-01
RMM:   3    -0.230660194594E+04    0.43078E-03   -0.26060E-03  4801   0.214E-02    0.986E-02
RMM:   4    -0.230660189368E+04    0.52256E-04   -0.43585E-04  3638   0.911E-03    0.653E-02
RMM:   5    -0.230660182236E+04    0.71321E-04   -0.13757E-04  3515   0.561E-03    0.236E-02
RMM:   6    -0.230660182939E+04   -0.70297E-05   -0.16616E-05  2802   0.325E-03
  31 F= -.23266528E+04 E0= -.23266528E+04  d E =-.179992E-16  mag=     1.0000
