       N       E                     dE             d eps       ncg     rms          rms(c)
DAV:   1     0.128842616290E+05    0.12884E+05   -0.83526E+05  4488   0.144E+03
DAV:   2    -0.104663310869E+04   -0.13931E+05   -0.13324E+05  5072   0.330E+02
DAV:   3    -0.247284851844E+04   -0.14262E+04   -0.14108E+04  5416   0.112E+02
DAV:   4    -0.251793818085E+04   -0.45090E+02   -0.44849E+02  6688   0.296E+01
DAV:   5    -0.251875855334E+04   -0.82037E+00   -0.81881E+00  5952   0.343E+00    0.170E+02
RMM:   6    -0.149971078156E+04    0.10190E+04   -0.19308E+03  4424   0.386E+01    0.747E+01
RMM:   7    -0.167219303335E+04   -0.17248E+03   -0.32136E+02  5032   0.145E+01    0.588E+01
RMM:   8    -0.169434300059E+04   -0.22150E+02   -0.77859E+01  5232   0.806E+00    0.434E+01
RMM:   9    -0.177730817919E+04   -0.82965E+02   -0.69900E+01  5030   0.663E+00    0.385E+01
RMM:  10    -0.189315326086E+04   -0.11585E+03   -0.61876E+01  5195   0.776E+00    0.341E+01
RMM:  11    -0.193901003269E+04   -0.45857E+02   -0.26698E+01  5368   0.455E+00    0.224E+01
RMM:  12    -0.204053460755E+04   -0.10152E+03   -0.41164E+01  4661   0.501E+00    0.150E+01
RMM:  13    -0.213893675133E+04   -0.98402E+02   -0.53070E+01  4657   0.552E+00    0.123E+01
RMM:  14    -0.223217158598E+04   -0.93235E+02   -0.70870E+01  4669   0.617E+00    0.962E+00
RMM:  15    -0.228725630649E+04   -0.55085E+02   -0.51020E+01  4669   0.514E+00    0.617E+00
RMM:  16    -0.229839045227E+04   -0.11134E+02   -0.10774E+01  4857   0.289E+00    0.421E+00
RMM:  17    -0.230623146319E+04   -0.78410E+01   -0.66016E+00  4444   0.159E+00    0.225E+00
RMM:  18    -0.231011253038E+04   -0.38811E+01   -0.24259E+00  4480   0.127E+00    0.111E+00
RMM:  19    -0.231144761633E+04   -0.13351E+01   -0.84220E-01  5052   0.557E-01    0.621E-01
RMM:  20    -0.231170736011E+04   -0.25974E+00   -0.14954E-01  4918   0.290E-01    0.528E-01
RMM:  21    -0.231177825695E+04   -0.70897E-01   -0.36683E-02  4758   0.150E-01    0.230E-01
RMM:  22    -0.231180930632E+04   -0.31049E-01   -0.17222E-02  4649   0.965E-02    0.160E-01
RMM:  23    -0.231182521047E+04   -0.15904E-01   -0.67448E-03  4521   0.668E-02    0.110E-01
RMM:  24    -0.231183712317E+04   -0.11913E-01   -0.44190E-03  4505   0.502E-02    0.713E-02
RMM:  25    -0.231184301482E+04   -0.58916E-02   -0.18557E-03  4637   0.376E-02    0.559E-02
RMM:  26    -0.231184693894E+04   -0.39241E-02   -0.12972E-03  4455   0.255E-02    0.448E-02
RMM:  27    -0.231184815522E+04   -0.12163E-02   -0.32638E-04  4101   0.184E-02    0.224E-02
RMM:  28    -0.231184926896E+04   -0.11137E-02   -0.30358E-04  3868   0.112E-02    0.141E-02
RMM:  29    -0.231184961707E+04   -0.34811E-03   -0.72636E-05  3620   0.865E-03    0.746E-03
RMM:  30    -0.231184986412E+04   -0.24705E-03   -0.53365E-05  3468   0.546E-03    0.394E-03
RMM:  31    -0.231184996272E+04   -0.98597E-04   -0.20305E-05  3036   0.525E-03    0.269E-03
RMM:  32    -0.231185000420E+04   -0.41475E-04   -0.12413E-05  2899   0.344E-03    0.179E-03
RMM:  33    -0.231185002177E+04   -0.17574E-04   -0.61559E-06  2641   0.300E-03    0.116E-03
RMM:  34    -0.231185002512E+04   -0.33491E-05   -0.31911E-06  2399   0.206E-03
   1 F= -.23327359E+04 E0= -.23327359E+04  d E =-.233274E+04  mag=     8.0000
       N       E                     dE             d eps       ncg     rms          rms(c)
DAV:   1    -0.231395061875E+04   -0.21006E+01   -0.14299E+02  4696   0.365E+00    0.457E+00
RMM:   2    -0.231377482346E+04    0.17580E+00   -0.57273E+00  5093   0.983E-01    0.354E+00
RMM:   3    -0.231389725981E+04   -0.12244E+00   -0.77069E-01  5206   0.407E-01    0.402E+00
RMM:   4    -0.231383372460E+04    0.63535E-01   -0.25748E-01  4958   0.204E-01    0.731E-01
RMM:   5    -0.231391718407E+04   -0.83459E-01   -0.10254E-01  4616   0.133E-01    0.635E-01
RMM:   6    -0.231392426453E+04   -0.70805E-02   -0.16879E-02  4859   0.722E-02    0.451E-01
RMM:   7    -0.231392867975E+04   -0.44152E-02   -0.55991E-03  4502   0.387E-02    0.183E-01
RMM:   8    -0.231393096744E+04   -0.22877E-02   -0.21379E-03  4282   0.281E-02    0.110E-01
RMM:   9    -0.231393173773E+04   -0.77029E-03   -0.59215E-04  3966   0.152E-02    0.415E-02
RMM:  10    -0.231393236383E+04   -0.62610E-03   -0.31225E-04  3763   0.123E-02    0.290E-02
RMM:  11    -0.231393257491E+04   -0.21108E-03   -0.72309E-05  3376   0.686E-03    0.169E-02
RMM:  12    -0.231393275551E+04   -0.18060E-03   -0.47591E-05  3321   0.566E-03    0.112E-02
RMM:  13    -0.231393282820E+04   -0.72682E-04   -0.22552E-05  2992   0.459E-03    0.803E-03
RMM:  14    -0.231393285098E+04   -0.22780E-04   -0.12173E-05  2871   0.376E-03    0.451E-03
RMM:  15    -0.231393285942E+04   -0.84478E-05   -0.60763E-06  2787   0.313E-03
   2 F= -.23348162E+04 E0= -.23348162E+04  d E =-.208037E+01  mag=     7.9999
       N       E                     dE             d eps       ncg     rms          rms(c)
DAV:   1    -0.231393367667E+04   -0.82569E-03   -0.42680E-02  4852   0.707E-02    0.801E-02
RMM:   2    -0.231393358903E+04    0.87635E-04   -0.16109E-03  3752   0.138E-02    0.550E-02
RMM:   3    -0.231393358707E+04    0.19650E-05   -0.23092E-04  3089   0.718E-03    0.730E-02
RMM:   4    -0.231393354325E+04    0.43819E-04   -0.66127E-05  2835   0.403E-03    0.168E-02
RMM:   5    -0.231393353900E+04    0.42512E-05   -0.18328E-05  2648   0.206E-03
   3 F= -.23348169E+04 E0= -.23348169E+04  d E =-.208102E+01  mag=     7.9999
       N       E                     dE             d eps       ncg     rms          rms(c)
DAV:   1    -0.231411960984E+04   -0.18607E+00   -0.20457E+01  4544   0.237E+00    0.154E+00
RMM:   2    -0.231424276753E+04   -0.12316E+00   -0.17826E+00  5984   0.565E-01    0.122E+00
RMM:   3    -0.231424315819E+04   -0.39066E-03   -0.16184E-01  5600   0.208E-01    0.108E+00
RMM:   4    -0.231423216852E+04    0.10990E-01   -0.29926E-02  5439   0.646E-02    0.392E-01
RMM:   5    -0.231423058791E+04    0.15806E-02   -0.76027E-03  4861   0.362E-02    0.290E-01
RMM:   6    -0.231423048425E+04    0.10366E-03   -0.27515E-03  4832   0.238E-02    0.227E-01
RMM:   7    -0.231423006458E+04    0.41967E-03   -0.55796E-04  3960   0.129E-02    0.789E-02
RMM:   8    -0.231423002695E+04    0.37633E-04   -0.14237E-04  3162   0.720E-03    0.228E-02
RMM:   9    -0.231423002104E+04    0.59095E-05   -0.24853E-05  2925   0.446E-03
   4 F= -.23351106E+04 E0= -.23351106E+04  d E =-.293739E+00  mag=     8.0000
       N       E                     dE             d eps       ncg     rms          rms(c)
DAV:   1    -0.231423252374E+04   -0.24968E-02   -0.28226E-01  4848   0.275E-01    0.188E-01
RMM:   2    -0.231423401301E+04   -0.14893E-02   -0.23818E-02  5958   0.640E-02    0.131E-01
RMM:   3    -0.231423409406E+04   -0.81046E-04   -0.21935E-03  3708   0.244E-02    0.132E-01
RMM:   4    -0.231423393658E+04    0.15748E-03   -0.41026E-04  3201   0.887E-03    0.488E-02
RMM:   5    -0.231423390789E+04    0.28691E-04   -0.92849E-05  2921   0.491E-03    0.185E-02
RMM:   6    -0.231423390616E+04    0.17237E-05   -0.16608E-05  2811   0.350E-03
   5 F= -.23351142E+04 E0= -.23351142E+04  d E =-.297335E+00  mag=     8.0000
       N       E                     dE             d eps       ncg     rms          rms(c)
DAV:   1    -0.231437827788E+04   -0.14437E+00   -0.43768E+00  4576   0.104E+00    0.662E-01
RMM:   2    -0.231441559681E+04   -0.37319E-01   -0.42030E-01  6104   0.243E-01    0.614E-01
RMM:   3    -0.231441514501E+04    0.45180E-03   -0.37058E-02  5329   0.950E-02    0.464E-01
RMM:   4    -0.231441343748E+04    0.17075E-02   -0.52624E-03  4522   0.261E-02    0.193E-01
RMM:   5    -0.231441314879E+04    0.28869E-03   -0.20602E-03  4330   0.166E-02    0.173E-01
RMM:   6    -0.231441301530E+04    0.13350E-03   -0.83150E-04  3527   0.128E-02    0.108E-01
RMM:   7    -0.231441293577E+04    0.79524E-04   -0.98297E-05  2940   0.625E-03    0.277E-02
RMM:   8    -0.231441292777E+04    0.79987E-05   -0.22739E-05  2863   0.312E-03
   6 F= -.23352924E+04 E0= -.23352924E+04  d E =-.178177E+00  mag=     8.0000
       N       E                     dE             d eps       ncg     rms          rms(c)
DAV:   1    -0.231443503351E+04   -0.22098E-01   -0.19463E+00  4624   0.680E-01    0.454E-01
RMM:   2    -0.231445087057E+04   -0.15837E-01   -0.18168E-01  6079   0.161E-01    0.409E-01
RMM:   3    -0.231445072719E+04    0.14338E-03   -0.16049E-02  4885   0.626E-02    0.330E-01
RMM:   4    -0.231444983998E+04    0.88721E-03   -0.23823E-03  3801   0.183E-02    0.134E-01
RMM:   5    -0.231444974112E+04    0.98864E-04   -0.10421E-03  3829   0.121E-02    0.129E-01
RMM:   6    -0.231444964817E+04    0.92951E-04   -0.39177E-04  3152   0.943E-03    0.657E-02
RMM:   7    -0.231444961872E+04    0.29443E-04   -0.42941E-05  2852   0.455E-03    0.178E-02
RMM:   8    -0.231444961572E+04    0.29998E-05   -0.10525E-05  2734   0.237E-03
   7 F= -.23353286E+04 E0= -.23353286E+04  d E =-.214354E+00  mag=     8.0000
       N       E                     dE             d eps       ncg     rms          rms(c)
DAV:   1    -0.231447150977E+04   -0.21891E-01   -0.28342E-01  4608   0.376E-01    0.213E-01
RMM:   2    -0.231447383636E+04   -0.23266E-02   -0.30961E-02  5817   0.818E-02    0.137E-01
RMM:   3    -0.231447402118E+04   -0.18482E-03   -0.26938E-03  4239   0.320E-02    0.132E-01
RMM:   4    -0.231447389805E+04    0.12313E-03   -0.35233E-04  3122   0.955E-03    0.527E-02
RMM:   5    -0.231447388102E+04    0.17025E-04   -0.10283E-04  3133   0.615E-03    0.454E-02
RMM:   6    -0.231447387292E+04    0.81038E-05   -0.55594E-05  2924   0.568E-03
   8 F= -.23353528E+04 E0= -.23353528E+04  d E =-.242130E-01  mag=     8.0000
       N       E                     dE             d eps       ncg     rms          rms(c)
DAV:   1    -0.231449545241E+04   -0.21571E-01   -0.25421E+00  4512   0.113E+00    0.646E-01
RMM:   2    -0.231451689593E+04   -0.21444E-01   -0.28220E-01  5742   0.245E-01    0.439E-01
RMM:   3    -0.231451834021E+04   -0.14443E-02   -0.23875E-02  5240   0.928E-02    0.407E-01
RMM:   4    -0.231451722007E+04    0.11201E-02   -0.31780E-03  4997   0.266E-02    0.156E-01
RMM:   5    -0.231451705921E+04    0.16085E-03   -0.89659E-04  4725   0.166E-02    0.132E-01
RMM:   6    -0.231451700055E+04    0.58661E-04   -0.48186E-04  4223   0.123E-02    0.873E-02
RMM:   7    -0.231451694248E+04    0.58071E-04   -0.10286E-04  3229   0.776E-03    0.249E-02
RMM:   8    -0.231451693517E+04    0.73112E-05   -0.18620E-05  2905   0.442E-03
   9 F= -.23353957E+04 E0= -.23353957E+04  d E =-.671541E-01  mag=     8.0000
       N       E                     dE             d eps       ncg     rms          rms(c)
DAV:   1    -0.231451712352E+04   -0.18104E-03   -0.55991E-01  4616   0.526E-01    0.300E-01
RMM:   2    -0.231452179886E+04   -0.46753E-02   -0.60956E-02  5882   0.114E-01    0.203E-01
RMM:   3    -0.231452219525E+04   -0.39639E-03   -0.60835E-03  4815   0.484E-02    0.189E-01
RMM:   4    -0.231452195228E+04    0.24298E-03   -0.70890E-04  3565   0.129E-02    0.745E-02
RMM:   5    -0.231452191711E+04    0.35164E-04   -0.21151E-04  3606   0.848E-03    0.649E-02
RMM:   6    -0.231452190020E+04    0.16911E-04   -0.11199E-04  2977   0.731E-03    0.391E-02
RMM:   7    -0.231452188828E+04    0.11920E-04   -0.25062E-05  2904   0.506E-03    0.109E-02
RMM:   8    -0.231452188685E+04    0.14311E-05   -0.60628E-06  2838   0.324E-03
  10 F= -.23354006E+04 E0= -.23354006E+04  d E =-.720551E-01  mag=     8.0000
       N       E                     dE             d eps       ncg     rms          rms(c)
DAV:   1    -0.231453619743E+04   -0.14309E-01   -0.71411E-01  4576   0.504E-01    0.319E-01
RMM:   2    -0.231454325095E+04   -0.70535E-02   -0.89126E-02  6141   0.122E-01    0.247E-01
RMM:   3    -0.231454353606E+04   -0.28511E-03   -0.72505E-03  4889   0.433E-02    0.199E-01
RMM:   4    -0.231454322770E+04    0.30836E-03   -0.98665E-04  3385   0.128E-02    0.708E-02
RMM:   5    -0.231454316685E+04    0.60844E-04   -0.18946E-04  3023   0.722E-03    0.371E-02
RMM:   6    -0.231454317354E+04   -0.66856E-05   -0.85342E-05  2921   0.602E-03
  11 F= -.23354218E+04 E0= -.23354218E+04  d E =-.211321E-01  mag=     8.0000
       N       E                     dE             d eps       ncg     rms          rms(c)
DAV:   1    -0.231454300630E+04    0.16055E-03   -0.73397E-01  4584   0.511E-01    0.323E-01
RMM:   2    -0.231455019036E+04   -0.71841E-02   -0.91144E-02  6088   0.125E-01    0.236E-01
RMM:   3    -0.231455060554E+04   -0.41518E-03   -0.78517E-03  4908   0.440E-02    0.203E-01
RMM:   4    -0.231455030103E+04    0.30450E-03   -0.10295E-03  3364   0.130E-02    0.776E-02
RMM:   5    -0.231455026266E+04    0.38374E-04   -0.20953E-04  3045   0.707E-03    0.681E-02
RMM:   6    -0.231455024540E+04    0.17259E-04   -0.14510E-04  2925   0.685E-03    0.437E-02
RMM:   7    -0.231455022929E+04    0.16116E-04   -0.23044E-05  2854   0.402E-03    0.139E-02
RMM:   8    -0.231455022842E+04    0.86370E-06   -0.54860E-06  2762   0.251E-03
  12 F= -.23354287E+04 E0= -.23354287E+04  d E =-.280245E-01  mag=     8.0000
       N       E                     dE             d eps       ncg     rms          rms(c)
DAV:   1    -0.231455959384E+04   -0.93646E-02   -0.90846E-01  4496   0.717E-01    0.326E-01
RMM:   2    -0.231457169197E+04   -0.12098E-01   -0.12282E-01  5895   0.160E-01    0.282E-01
RMM:   3    -0.231457209123E+04   -0.39926E-03   -0.10336E-02  5288   0.609E-02    0.183E-01
RMM:   4    -0.231457188595E+04    0.20528E-03   -0.12032E-03  4238   0.147E-02    0.714E-02
RMM:   5    -0.231457185860E+04    0.27344E-04   -0.16069E-04  3436   0.896E-03    0.761E-02
RMM:   6    -0.231457181842E+04    0.40184E-04   -0.12285E-04  3180   0.770E-03    0.393E-02
RMM:   7    -0.231457180842E+04    0.10001E-04   -0.37325E-05  2955   0.622E-03    0.112E-02
RMM:   8    -0.231457180709E+04    0.13266E-05   -0.96992E-06  2858   0.429E-03
  13 F= -.23354501E+04 E0= -.23354501E+04  d E =-.214668E-01  mag=     8.0000
       N       E                     dE             d eps       ncg     rms          rms(c)
DAV:   1    -0.231449098413E+04    0.80824E-01   -0.81623E+00  4464   0.215E+00    0.980E-01
RMM:   2    -0.231460118758E+04   -0.11020E+00   -0.11188E+00  5937   0.495E-01    0.856E-01
RMM:   3    -0.231460535470E+04   -0.41671E-02   -0.10348E-01  5653   0.187E-01    0.550E-01
RMM:   4    -0.231460355686E+04    0.17978E-02   -0.10885E-02  5414   0.436E-02    0.213E-01
RMM:   5    -0.231460319716E+04    0.35971E-03   -0.15576E-03  5012   0.249E-02    0.201E-01
RMM:   6    -0.231460298659E+04    0.21056E-03   -0.11519E-03  5032   0.185E-02    0.144E-01
RMM:   7    -0.231460283748E+04    0.14911E-03   -0.28736E-04  4407   0.131E-02    0.362E-02
RMM:   8    -0.231460281918E+04    0.18299E-04   -0.64382E-05  3022   0.699E-03    0.165E-02
RMM:   9    -0.231460281297E+04    0.62076E-05   -0.18394E-05  2876   0.423E-03
  14 F= -.23354807E+04 E0= -.23354807E+04  d E =-.520896E-01  mag=     8.0000
       N       E                     dE             d eps       ncg     rms          rms(c)
DAV:   1    -0.231461141181E+04   -0.85926E-02   -0.17974E+00  4496   0.116E+00    0.492E-01
RMM:   2    -0.231462755314E+04   -0.16141E-01   -0.17028E-01  5740   0.231E-01    0.365E-01
RMM:   3    -0.231462806658E+04   -0.51344E-03   -0.15951E-02  5447   0.931E-02    0.306E-01
RMM:   4    -0.231462720191E+04    0.86467E-03   -0.20691E-03  5037   0.254E-02    0.991E-02
RMM:   5    -0.231462708587E+04    0.11604E-03   -0.56445E-04  4827   0.175E-02    0.868E-02
RMM:   6    -0.231462704809E+04    0.37778E-04   -0.27902E-04  4617   0.110E-02    0.706E-02
RMM:   7    -0.231462700041E+04    0.47675E-04   -0.65288E-05  3179   0.785E-03    0.149E-02
RMM:   8    -0.231462699476E+04    0.56529E-05   -0.17746E-05  2912   0.427E-03
  15 F= -.23355047E+04 E0= -.23355047E+04  d E =-.239424E-01  mag=     8.0000
       N       E                     dE             d eps       ncg     rms          rms(c)
DAV:   1    -0.231462163789E+04    0.53625E-02   -0.13751E+00  4512   0.102E+00    0.428E-01
RMM:   2    -0.231463399385E+04   -0.12356E-01   -0.13041E-01  5726   0.203E-01    0.313E-01
RMM:   3    -0.231463441509E+04   -0.42124E-03   -0.12154E-02  5381   0.828E-02    0.266E-01
RMM:   4    -0.231463375601E+04    0.65907E-03   -0.15824E-03  4981   0.223E-02    0.869E-02
RMM:   5    -0.231463365531E+04    0.10071E-03   -0.42983E-04  4686   0.157E-02    0.751E-02
RMM:   6    -0.231463362250E+04    0.32814E-04   -0.21742E-04  4480   0.990E-03    0.627E-02
RMM:   7    -0.231463358242E+04    0.40075E-04   -0.52690E-05  3097   0.737E-03    0.135E-02
RMM:   8    -0.231463357665E+04    0.57700E-05   -0.16055E-05  2909   0.409E-03
  16 F= -.23355111E+04 E0= -.23355110E+04  d E =-.303056E-01  mag=     8.0000
       N       E                     dE             d eps       ncg     rms          rms(c)
DAV:   1    -0.231463283642E+04    0.74600E-03   -0.68073E-01  4576   0.661E-01    0.260E-01
RMM:   2    -0.231464170085E+04   -0.88644E-02   -0.89993E-02  5984   0.140E-01    0.189E-01
RMM:   3    -0.231464220079E+04   -0.49994E-03   -0.79124E-03  5157   0.555E-02    0.153E-01
RMM:   4    -0.231464205464E+04    0.14614E-03   -0.86103E-04  3552   0.126E-02    0.612E-02
RMM:   5    -0.231464202335E+04    0.31292E-04   -0.13183E-04  3329   0.766E-03    0.536E-02
RMM:   6    -0.231464201246E+04    0.10889E-04   -0.89153E-05  2942   0.707E-03    0.396E-02
RMM:   7    -0.231464200321E+04    0.92549E-05   -0.28866E-05  2935   0.526E-03
  17 F= -.23355197E+04 E0= -.23355197E+04  d E =-.862273E-02  mag=     8.0000
       N       E                     dE             d eps       ncg     rms          rms(c)
DAV:   1    -0.231456582650E+04    0.76186E-01   -0.61077E+00  4464   0.198E+00    0.778E-01
RMM:   2    -0.231464554191E+04   -0.79715E-01   -0.80931E-01  5909   0.423E-01    0.561E-01
RMM:   3    -0.231465044550E+04   -0.49036E-02   -0.75054E-02  5575   0.169E-01    0.455E-01
RMM:   4    -0.231464914827E+04    0.12972E-02   -0.78653E-03  5420   0.368E-02    0.184E-01
RMM:   5    -0.231464877831E+04    0.36995E-03   -0.11531E-03  4844   0.204E-02    0.125E-01
RMM:   6    -0.231464878309E+04   -0.47802E-05   -0.76761E-04  4706   0.165E-02    0.135E-01
RMM:   7    -0.231464866356E+04    0.11953E-03   -0.26393E-04  4127   0.110E-02    0.442E-02
RMM:   8    -0.231464864689E+04    0.16672E-04   -0.44660E-05  2931   0.566E-03    0.159E-02
RMM:   9    -0.231464864259E+04    0.43003E-05   -0.16527E-05  2909   0.373E-03
  18 F= -.23355269E+04 E0= -.23355269E+04  d E =-.158312E-01  mag=     7.9999
       N       E                     dE             d eps       ncg     rms          rms(c)
DAV:   1    -0.231464491315E+04    0.37337E-02   -0.34597E-01  4528   0.474E-01    0.184E-01
RMM:   2    -0.231464943351E+04   -0.45204E-02   -0.45854E-02  5996   0.101E-01    0.132E-01
RMM:   3    -0.231464968770E+04   -0.25419E-03   -0.39851E-03  4571   0.383E-02    0.108E-01
RMM:   4    -0.231464960962E+04    0.78080E-04   -0.44220E-04  3114   0.943E-03    0.426E-02
RMM:   5    -0.231464958873E+04    0.20890E-04   -0.56647E-05  3038   0.578E-03    0.263E-02
RMM:   6    -0.231464959231E+04   -0.35798E-05   -0.42033E-05  2907   0.557E-03
  19 F= -.23355277E+04 E0= -.23355277E+04  d E =-.166476E-01  mag=     7.9999
       N       E                     dE             d eps       ncg     rms          rms(c)
DAV:   1    -0.231465104758E+04   -0.14588E-02   -0.29348E-01  4560   0.414E-01    0.173E-01
RMM:   2    -0.231465437012E+04   -0.33225E-02   -0.35976E-02  6313   0.892E-02    0.149E-01
RMM:   3    -0.231465450182E+04   -0.13170E-03   -0.32633E-03  4242   0.314E-02    0.102E-01
RMM:   4    -0.231465442830E+04    0.73515E-04   -0.39634E-04  3034   0.882E-03    0.412E-02
RMM:   5    -0.231465441285E+04    0.15449E-04   -0.55759E-05  2950   0.494E-03    0.264E-02
RMM:   6    -0.231465441460E+04   -0.17435E-05   -0.37652E-05  2898   0.448E-03
  20 F= -.23355327E+04 E0= -.23355327E+04  d E =-.496422E-02  mag=     7.9999
       N       E                     dE             d eps       ncg     rms          rms(c)
DAV:   1    -0.231465010489E+04    0.43080E-02   -0.56219E-01  4496   0.572E-01    0.239E-01
RMM:   2    -0.231465642194E+04   -0.63171E-02   -0.69108E-02  6078   0.121E-01    0.186E-01
RMM:   3    -0.231465675875E+04   -0.33681E-03   -0.62333E-03  4828   0.447E-02    0.140E-01
RMM:   4    -0.231465663361E+04    0.12514E-03   -0.76725E-04  3221   0.114E-02    0.588E-02
RMM:   5    -0.231465660161E+04    0.31993E-04   -0.10203E-04  3015   0.639E-03    0.311E-02
RMM:   6    -0.231465660532E+04   -0.37123E-05   -0.61733E-05  2958   0.567E-03
  21 F= -.23355350E+04 E0= -.23355350E+04  d E =-.734965E-02  mag=     7.9999
       N       E                     dE             d eps       ncg     rms          rms(c)
DAV:   1    -0.231465816380E+04   -0.15622E-02   -0.20177E-01  4752   0.408E-01    0.162E-01
RMM:   2    -0.231466077076E+04   -0.26070E-02   -0.27136E-02  5878   0.866E-02    0.126E-01
RMM:   3    -0.231466089267E+04   -0.12192E-03   -0.23433E-03  4567   0.325E-02    0.945E-02
RMM:   4    -0.231466082841E+04    0.64263E-04   -0.28014E-04  3135   0.828E-03    0.367E-02
RMM:   5    -0.231466081262E+04    0.15786E-04   -0.41067E-05  2946   0.567E-03    0.181E-02
RMM:   6    -0.231466081176E+04    0.86053E-06   -0.27098E-05  2929   0.521E-03
  22 F= -.23355392E+04 E0= -.23355392E+04  d E =-.415640E-02  mag=     7.9999
       N       E                     dE             d eps       ncg     rms          rms(c)
DAV:   1    -0.231465049804E+04    0.10315E-01   -0.10823E+00  4456   0.944E-01    0.378E-01
RMM:   2    -0.231466462245E+04   -0.14124E-01   -0.14568E-01  5851   0.199E-01    0.327E-01
RMM:   3    -0.231466507899E+04   -0.45654E-03   -0.12906E-02  5348   0.782E-02    0.220E-01
RMM:   4    -0.231466472311E+04    0.35589E-03   -0.14910E-03  4745   0.180E-02    0.810E-02
RMM:   5    -0.231466464324E+04    0.79869E-04   -0.22269E-04  4150   0.117E-02    0.474E-02
RMM:   6    -0.231466465077E+04   -0.75324E-05   -0.15696E-04  3835   0.923E-03    0.595E-02
RMM:   7    -0.231466462422E+04    0.26547E-04   -0.49692E-05  2952   0.686E-03    0.138E-02
RMM:   8    -0.231466462476E+04   -0.53966E-06   -0.95588E-06  2878   0.320E-03
  23 F= -.23355429E+04 E0= -.23355429E+04  d E =-.784879E-02  mag=     7.9998
       N       E                     dE             d eps       ncg     rms          rms(c)
DAV:   1    -0.231466445115E+04    0.17307E-03   -0.20138E-01  4688   0.394E-01    0.172E-01
RMM:   2    -0.231466861352E+04   -0.41624E-02   -0.41304E-02  6122   0.933E-02    0.193E-01
RMM:   3    -0.231466863440E+04   -0.20883E-04   -0.36253E-03  4324   0.346E-02    0.901E-02
RMM:   4    -0.231466860256E+04    0.31844E-04   -0.40255E-04  3076   0.813E-03    0.397E-02
RMM:   5    -0.231466858865E+04    0.13914E-04   -0.44216E-05  2922   0.460E-03    0.381E-02
RMM:   6    -0.231466857743E+04    0.11216E-04   -0.34183E-05  2903   0.433E-03    0.221E-02
RMM:   7    -0.231466857504E+04    0.23921E-05   -0.17298E-05  2876   0.383E-03
  24 F= -.23355466E+04 E0= -.23355466E+04  d E =-.369722E-02  mag=     7.9998
       N       E                     dE             d eps       ncg     rms          rms(c)
DAV:   1    -0.231464083776E+04    0.27740E-01   -0.18102E+00  4472   0.118E+00    0.517E-01
RMM:   2    -0.231467814696E+04   -0.37309E-01   -0.37086E-01  6142   0.280E-01    0.574E-01
RMM:   3    -0.231467841429E+04   -0.26734E-03   -0.32461E-02  5700   0.101E-01    0.278E-01
RMM:   4    -0.231467806146E+04    0.35283E-03   -0.36063E-03  4757   0.225E-02    0.115E-01
RMM:   5    -0.231467788295E+04    0.17851E-03   -0.33621E-04  4098   0.119E-02    0.840E-02
RMM:   6    -0.231467787809E+04    0.48579E-05   -0.34151E-04  3817   0.112E-02    0.899E-02
RMM:   7    -0.231467781577E+04    0.62317E-04   -0.11535E-04  3175   0.829E-03    0.134E-02
RMM:   8    -0.231467781871E+04   -0.29337E-05   -0.15229E-05  2923   0.461E-03
  25 F= -.23355551E+04 E0= -.23355551E+04  d E =-.121783E-01  mag=     7.9999
       N       E                     dE             d eps       ncg     rms          rms(c)
DAV:   1    -0.231453595709E+04    0.14186E+00   -0.72410E+00  4472   0.237E+00    0.103E+00
RMM:   2    -0.231468488534E+04   -0.14893E+00   -0.14807E+00  6125   0.564E-01    0.115E+00
RMM:   3    -0.231468722593E+04   -0.23406E-02   -0.14357E-01  5780   0.203E-01    0.576E-01
RMM:   4    -0.231468564438E+04    0.15815E-02   -0.15002E-02  5287   0.454E-02    0.237E-01
RMM:   5    -0.231468503434E+04    0.61005E-03   -0.13782E-03  4971   0.223E-02    0.193E-01
RMM:   6    -0.231468483698E+04    0.19736E-03   -0.14029E-03  5055   0.205E-02    0.165E-01
RMM:   7    -0.231468464179E+04    0.19519E-03   -0.52309E-04  4447   0.152E-02    0.283E-02
RMM:   8    -0.231468464774E+04   -0.59499E-05   -0.55974E-05  2996   0.618E-03
  26 F= -.23355604E+04 E0= -.23355604E+04  d E =-.174770E-01  mag=     8.0000
       N       E                     dE             d eps       ncg     rms          rms(c)
DAV:   1    -0.231468455554E+04    0.86250E-04   -0.16689E-01  4800   0.344E-01    0.158E-01
RMM:   2    -0.231468800432E+04   -0.34488E-02   -0.33844E-02  6245   0.848E-02    0.194E-01
RMM:   3    -0.231468794486E+04    0.59452E-04   -0.29396E-03  4032   0.299E-02    0.813E-02
RMM:   4    -0.231468792627E+04    0.18592E-04   -0.33120E-04  3049   0.754E-03    0.363E-02
RMM:   5    -0.231468791723E+04    0.90383E-05   -0.35551E-05  2924   0.418E-03
  27 F= -.23355634E+04 E0= -.23355634E+04  d E =-.306916E-02  mag=     8.0000
       N       E                     dE             d eps       ncg     rms          rms(c)
DAV:   1    -0.231466541128E+04    0.22515E-01   -0.14942E+00  4472   0.103E+00    0.462E-01
RMM:   2    -0.231469587801E+04   -0.30467E-01   -0.30108E-01  6194   0.250E-01    0.555E-01
RMM:   3    -0.231469564909E+04    0.22892E-03   -0.26235E-02  5691   0.872E-02    0.249E-01
RMM:   4    -0.231469540535E+04    0.24374E-03   -0.29328E-03  4502   0.198E-02    0.107E-01
RMM:   5    -0.231469525147E+04    0.15389E-03   -0.28280E-04  4071   0.107E-02    0.749E-02
RMM:   6    -0.231469524848E+04    0.29858E-05   -0.29172E-04  3779   0.108E-02    0.758E-02
RMM:   7    -0.231469520829E+04    0.40190E-04   -0.74667E-05  2978   0.703E-03    0.142E-02
RMM:   8    -0.231469521220E+04   -0.39118E-05   -0.99605E-06  2872   0.342E-03
  28 F= -.23355701E+04 E0= -.23355701E+04  d E =-.976052E-02  mag=     8.0000
       N       E                     dE             d eps       ncg     rms          rms(c)
DAV:   1    -0.231457966389E+04    0.11554E+00   -0.59909E+00  4464   0.205E+00    0.936E-01
RMM:   2    -0.231470242949E+04   -0.12277E+00   -0.12096E+00  6184   0.501E-01    0.115E+00
RMM:   3    -0.231470079092E+04    0.16386E-02   -0.10842E-01  5805   0.173E-01    0.511E-01
RMM:   4    -0.231469979927E+04    0.99165E-03   -0.11971E-02  5171   0.399E-02    0.219E-01
RMM:   5    -0.231469939253E+04    0.40674E-03   -0.12900E-03  4867   0.201E-02    0.206E-01
RMM:   6    -0.231469907885E+04    0.31368E-03   -0.11301E-03  4955   0.178E-02    0.135E-01
RMM:   7    -0.231469896782E+04    0.11103E-03   -0.42588E-04  4146   0.134E-02    0.274E-02
RMM:   8    -0.231469897699E+04   -0.91611E-05   -0.47549E-05  2943   0.581E-03
  29 F= -.23355727E+04 E0= -.23355727E+04  d E =-.123126E-01  mag=     8.0000
       N       E                     dE             d eps       ncg     rms          rms(c)
DAV:   1    -0.231468814167E+04    0.10826E-01   -0.56783E-01  4512   0.631E-01    0.285E-01
RMM:   2    -0.231469958808E+04   -0.11446E-01   -0.11250E-01  6194   0.153E-01    0.346E-01
RMM:   3    -0.231469948152E+04    0.10656E-03   -0.98804E-03  5232   0.554E-02    0.148E-01
RMM:   4    -0.231469940018E+04    0.81346E-04   -0.10856E-03  3492   0.123E-02    0.649E-02
RMM:   5    -0.231469935774E+04    0.42434E-04   -0.11658E-04  3123   0.701E-03    0.578E-02
RMM:   6    -0.231469934290E+04    0.14843E-04   -0.10007E-04  3008   0.670E-03    0.423E-02
RMM:   7    -0.231469933114E+04    0.11764E-04   -0.41507E-05  2907   0.550E-03    0.797E-03
RMM:   8    -0.231469933129E+04   -0.15784E-06   -0.60870E-06  2822   0.348E-03
  30 F= -.23355734E+04 E0= -.23355734E+04  d E =-.130405E-01  mag=     8.0000
       N       E                     dE             d eps       ncg     rms          rms(c)
DAV:   1    -0.231469399760E+04    0.53335E-02   -0.68182E-01  4488   0.672E-01    0.319E-01
RMM:   2    -0.231470603405E+04   -0.12036E-01   -0.12068E-01  6077   0.163E-01    0.367E-01
RMM:   3    -0.231470577828E+04    0.25577E-03   -0.10664E-02  5359   0.579E-02    0.170E-01
RMM:   4    -0.231470561149E+04    0.16679E-03   -0.12055E-03  3888   0.135E-02    0.699E-02
RMM:   5    -0.231470553896E+04    0.72538E-04   -0.14813E-04  3450   0.834E-03    0.487E-02
RMM:   6    -0.231470554249E+04   -0.35326E-05   -0.12365E-04  3114   0.773E-03    0.585E-02
RMM:   7    -0.231470551978E+04    0.22704E-04   -0.40742E-05  2922   0.576E-03    0.840E-03
RMM:   8    -0.231470552111E+04   -0.13290E-05   -0.70849E-06  2835   0.291E-03
  31 F= -.23355792E+04 E0= -.23355792E+04  d E =-.577914E-02  mag=     8.0000
       N       E                     dE             d eps       ncg     rms          rms(c)
DAV:   1    -0.231469636575E+04    0.91540E-02   -0.67537E-01  4472   0.669E-01    0.319E-01
RMM:   2    -0.231470830734E+04   -0.11942E-01   -0.11963E-01  6033   0.162E-01    0.370E-01
RMM:   3    -0.231470801861E+04    0.28873E-03   -0.10567E-02  5322   0.558E-02    0.169E-01
RMM:   4    -0.231470785972E+04    0.15889E-03   -0.12027E-03  3875   0.133E-02    0.703E-02
RMM:   5    -0.231470779227E+04    0.67450E-04   -0.15059E-04  3403   0.820E-03    0.532E-02
RMM:   6    -0.231470779168E+04    0.59104E-06   -0.12437E-04  3090   0.758E-03    0.587E-02
RMM:   7    -0.231470777027E+04    0.21407E-04   -0.42406E-05  2922   0.575E-03    0.889E-03
RMM:   8    -0.231470777223E+04   -0.19519E-05   -0.74702E-06  2845   0.314E-03
  32 F= -.23355810E+04 E0= -.23355810E+04  d E =-.761858E-02  mag=     8.0000
       N       E                     dE             d eps       ncg     rms          rms(c)
DAV:   1    -0.231470433203E+04    0.34382E-02   -0.55497E-01  4488   0.564E-01    0.278E-01
RMM:   2    -0.231471435442E+04   -0.10022E-01   -0.96652E-02  6108   0.135E-01    0.358E-01
RMM:   3    -0.231471382641E+04    0.52801E-03   -0.79401E-03  5136   0.459E-02    0.132E-01
RMM:   4    -0.231471377823E+04    0.48185E-04   -0.96076E-04  3372   0.110E-02    0.626E-02
RMM:   5    -0.231471375938E+04    0.18847E-04   -0.11361E-04  3002   0.651E-03    0.677E-02
RMM:   6    -0.231471372962E+04    0.29760E-04   -0.81705E-05  2966   0.618E-03    0.387E-02
RMM:   7    -0.231471372370E+04    0.59204E-05   -0.40909E-05  2881   0.520E-03
  33 F= -.23355867E+04 E0= -.23355867E+04  d E =-.568799E-02  mag=     8.0000
       N       E                     dE             d eps       ncg     rms          rms(c)
DAV:   1    -0.231464205095E+04    0.71679E-01   -0.49840E+00  4464   0.169E+00    0.836E-01
RMM:   2    -0.231473270522E+04   -0.90654E-01   -0.87603E-01  6187   0.412E-01    0.108E+00
RMM:   3    -0.231472766724E+04    0.50380E-02   -0.73018E-02  5789   0.140E-01    0.397E-01
RMM:   4    -0.231472737598E+04    0.29125E-03   -0.86453E-03  5081   0.323E-02    0.189E-01
RMM:   5    -0.231472719542E+04    0.18057E-03   -0.10578E-03  4646   0.181E-02    0.200E-01
RMM:   6    -0.231472694249E+04    0.25293E-03   -0.73136E-04  4661   0.147E-02    0.124E-01
RMM:   7    -0.231472686783E+04    0.74668E-04   -0.38098E-04  3348   0.123E-02    0.398E-02
RMM:   8    -0.231472686015E+04    0.76745E-05   -0.35621E-05  2923   0.527E-03
  34 F= -.23355990E+04 E0= -.23355990E+04  d E =-.179844E-01  mag=     8.0000
       N       E                     dE             d eps       ncg     rms          rms(c)
DAV:   1    -0.231439010128E+04    0.33677E+00   -0.19911E+01  4464   0.338E+00    0.167E+00
RMM:   2    -0.231475770304E+04   -0.36760E+00   -0.35585E+00  6175   0.837E-01    0.215E+00
RMM:   3    -0.231473431389E+04    0.23389E-01   -0.29573E-01  5781   0.280E-01    0.783E-01
RMM:   4    -0.231473347660E+04    0.83728E-03   -0.34498E-02  5305   0.647E-02    0.388E-01
RMM:   5    -0.231473280107E+04    0.67554E-03   -0.46236E-03  5379   0.360E-02    0.412E-01
RMM:   6    -0.231473167712E+04    0.11239E-02   -0.29098E-03  5350   0.282E-02    0.244E-01
RMM:   7    -0.231473139203E+04    0.28509E-03   -0.16324E-03  4483   0.234E-02    0.865E-02
RMM:   8    -0.231473134543E+04    0.46599E-04   -0.13689E-04  3068   0.791E-03    0.278E-02
RMM:   9    -0.231473136666E+04   -0.21225E-04   -0.40922E-05  2923   0.462E-03    0.161E-02
RMM:  10    -0.231473138774E+04   -0.21080E-04   -0.23808E-05  2884   0.389E-03    0.631E-03
RMM:  11    -0.231473139556E+04   -0.78265E-05   -0.61138E-06  2859   0.285E-03
  35 F= -.23356017E+04 E0= -.23356017E+04  d E =-.206492E-01  mag=     7.9998
       N       E                     dE             d eps       ncg     rms          rms(c)
DAV:   1    -0.231467645435E+04    0.54933E-01   -0.33786E+00  4464   0.139E+00    0.676E-01
RMM:   2    -0.231473572455E+04   -0.59270E-01   -0.57900E-01  6138   0.333E-01    0.806E-01
RMM:   3    -0.231473401568E+04    0.17089E-02   -0.47483E-02  5745   0.112E-01    0.338E-01
RMM:   4    -0.231473345685E+04    0.55883E-03   -0.55941E-03  5010   0.267E-02    0.165E-01
RMM:   5    -0.231473334496E+04    0.11188E-03   -0.75575E-04  4135   0.144E-02    0.167E-01
RMM:   6    -0.231473312769E+04    0.21727E-03   -0.50076E-04  4326   0.130E-02    0.767E-02
RMM:   7    -0.231473310109E+04    0.26597E-04   -0.19062E-04  3059   0.978E-03    0.205E-02
RMM:   8    -0.231473310003E+04    0.10614E-05   -0.22298E-05  2898   0.459E-03
  36 F= -.23356042E+04 E0= -.23356042E+04  d E =-.231506E-01  mag=     7.9999
       N       E                     dE             d eps       ncg     rms          rms(c)
DAV:   1    -0.231473003374E+04    0.30674E-02   -0.50553E-01  4496   0.513E-01    0.261E-01
RMM:   2    -0.231473929949E+04   -0.92657E-02   -0.89329E-02  6277   0.124E-01    0.328E-01
RMM:   3    -0.231473888601E+04    0.41348E-03   -0.71203E-03  4868   0.409E-02    0.120E-01
RMM:   4    -0.231473883880E+04    0.47207E-04   -0.84520E-04  3264   0.101E-02    0.594E-02
RMM:   5    -0.231473882306E+04    0.15741E-04   -0.10313E-04  2951   0.584E-03    0.630E-02
RMM:   6    -0.231473879373E+04    0.29326E-04   -0.66712E-05  2935   0.543E-03    0.329E-02
RMM:   7    -0.231473878879E+04    0.49463E-05   -0.35761E-05  2866   0.461E-03
  37 F= -.23356096E+04 E0= -.23356096E+04  d E =-.540472E-02  mag=     7.9999
       N       E                     dE             d eps       ncg     rms          rms(c)
DAV:   1    -0.231467333302E+04    0.65461E-01   -0.45420E+00  4464   0.154E+00    0.786E-01
RMM:   2    -0.231475746701E+04   -0.84134E-01   -0.81109E-01  6268   0.373E-01    0.995E-01
RMM:   3    -0.231475360818E+04    0.38588E-02   -0.66675E-02  5781   0.124E-01    0.364E-01
RMM:   4    -0.231475333801E+04    0.27017E-03   -0.77591E-03  4980   0.288E-02    0.175E-01
RMM:   5    -0.231475317275E+04    0.16526E-03   -0.89619E-04  4310   0.156E-02    0.184E-01
RMM:   6    -0.231475295421E+04    0.21854E-03   -0.61829E-04  4305   0.134E-02    0.110E-01
RMM:   7    -0.231475289960E+04    0.54608E-04   -0.29972E-04  3112   0.108E-02    0.342E-02
RMM:   8    -0.231475289531E+04    0.42944E-05   -0.29461E-05  2902   0.511E-03
  38 F= -.23356228E+04 E0= -.23356228E+04  d E =-.186320E-01  mag=     7.9995
       N       E                     dE             d eps       ncg     rms          rms(c)
DAV:   1    -0.231444846387E+04    0.30444E+00   -0.18135E+01  4464   0.307E+00    0.156E+00
RMM:   2    -0.231478751677E+04   -0.33905E+00   -0.32703E+00  6250   0.755E-01    0.198E+00
RMM:   3    -0.231477171073E+04    0.15806E-01   -0.27670E-01  5830   0.250E-01    0.733E-01
RMM:   4    -0.231477054819E+04    0.11625E-02   -0.31225E-02  5337   0.571E-02    0.341E-01
RMM:   5    -0.231476972917E+04    0.81902E-03   -0.31545E-03  5081   0.290E-02    0.334E-01
RMM:   6    -0.231476919118E+04    0.53799E-03   -0.26278E-03  5256   0.251E-02    0.255E-01
RMM:   7    -0.231476886817E+04    0.32302E-03   -0.11965E-03  4242   0.186E-02    0.746E-02
RMM:   8    -0.231476883526E+04    0.32909E-04   -0.11029E-04  2950   0.736E-03    0.253E-02
RMM:   9    -0.231476885214E+04   -0.16884E-04   -0.36070E-05  2933   0.389E-03    0.151E-02
RMM:  10    -0.231476886551E+04   -0.13368E-04   -0.15978E-05  2873   0.337E-03    0.552E-03
RMM:  11    -0.231476887091E+04   -0.54007E-05   -0.43829E-06  2830   0.234E-03
  39 F= -.23356369E+04 E0= -.23356361E+04  d E =-.327355E-01  mag=     7.9865
       N       E                     dE             d eps       ncg     rms          rms(c)
DAV:   1    -0.231474806386E+04    0.20802E-01   -0.19184E+00  4520   0.959E-01    0.505E-01
RMM:   2    -0.231478304956E+04   -0.34986E-01   -0.33788E-01  6266   0.231E-01    0.631E-01
RMM:   3    -0.231478180912E+04    0.12404E-02   -0.28106E-02  5606   0.776E-02    0.246E-01
RMM:   4    -0.231478158789E+04    0.22122E-03   -0.32323E-03  4161   0.185E-02    0.111E-01
RMM:   5    -0.231478153099E+04    0.56903E-04   -0.31781E-04  3528   0.979E-03    0.114E-01
RMM:   6    -0.231478147323E+04    0.57757E-04   -0.26754E-04  3161   0.908E-03    0.766E-02
RMM:   7    -0.231478144845E+04    0.24786E-04   -0.10609E-04  2936   0.700E-03    0.231E-02
RMM:   8    -0.231478144681E+04    0.16419E-05   -0.15042E-05  2871   0.418E-03
  40 F= -.23356490E+04 E0= -.23356465E+04  d E =-.120700E-01  mag=     7.9541
       N       E                     dE             d eps       ncg     rms          rms(c)
DAV:   1    -0.231449747925E+04    0.28397E+00   -0.17220E+01  4464   0.287E+00    0.165E+00
RMM:   2    -0.231482859031E+04   -0.33111E+00   -0.30790E+00  6247   0.712E-01    0.246E+00
RMM:   3    -0.231483265084E+04   -0.40605E-02   -0.28885E-01  5513   0.256E-01    0.223E+00
RMM:   4    -0.231482904038E+04    0.36105E-02   -0.32171E-02  5302   0.518E-02    0.191E+00
RMM:   5    -0.231481820530E+04    0.10835E-01   -0.41690E-02  4973   0.813E-02    0.175E+00
RMM:   6    -0.231480316205E+04    0.15043E-01   -0.74831E-03  4920   0.442E-02    0.732E-01
RMM:   7    -0.231479923169E+04    0.39304E-02   -0.10251E-02  5353   0.436E-02    0.846E-01
RMM:   8    -0.231479290114E+04    0.63305E-02   -0.61530E-03  4742   0.343E-02    0.620E-01
RMM:   9    -0.231478955173E+04    0.33494E-02   -0.24719E-03  4578   0.263E-02    0.763E-01
RMM:  10    -0.231478678515E+04    0.27666E-02   -0.14117E-03  4413   0.185E-02    0.922E-01
RMM:  11    -0.231479246443E+04   -0.56793E-02   -0.23350E-03  4190   0.211E-02    0.683E-01
RMM:  12    -0.231480000549E+04   -0.75411E-02   -0.83774E-03  4512   0.406E-02    0.637E-01
RMM:  13    -0.231480743567E+04   -0.74302E-02   -0.52194E-03  4556   0.341E-02    0.110E+00
RMM:  14    -0.231479962760E+04    0.78081E-02   -0.32235E-03  4383   0.252E-02    0.540E-01
RMM:  15    -0.231479901115E+04    0.61646E-03   -0.39811E-04  3532   0.119E-02    0.609E-01
RMM:  16    -0.231479527356E+04    0.37376E-02   -0.23103E-03  4418   0.201E-02    0.573E-01
RMM:  17    -0.231479285270E+04    0.24209E-02   -0.11693E-03  4004   0.174E-02    0.657E-01
RMM:  18    -0.231479283521E+04    0.17489E-04   -0.12265E-04  3035   0.600E-03    0.659E-01
RMM:  19    -0.231479286965E+04   -0.34440E-04   -0.85012E-06  2706   0.290E-03    0.651E-01
RMM:  20    -0.231479285078E+04    0.18869E-04   -0.13775E-05  2664   0.225E-03    0.633E-01
RMM:  21    -0.231479353870E+04   -0.68792E-03   -0.22386E-04  3368   0.688E-03    0.566E-01
RMM:  22    -0.231479569617E+04   -0.21575E-02   -0.13382E-03  4286   0.165E-02    0.444E-01
RMM:  23    -0.231479963713E+04   -0.39410E-02   -0.40818E-03  4566   0.291E-02    0.378E-01
RMM:  24    -0.231480275665E+04   -0.31195E-02   -0.33027E-03  4806   0.285E-02    0.379E-01
RMM:  25    -0.231480293319E+04   -0.17654E-03   -0.51926E-04  4189   0.118E-02    0.350E-01
RMM:  26    -0.231480238643E+04    0.54676E-03   -0.47544E-05  2987   0.444E-03    0.328E-01
RMM:  27    -0.231480160656E+04    0.77987E-03   -0.12078E-04  3162   0.528E-03    0.308E-01
RMM:  28    -0.231480065825E+04    0.94831E-03   -0.36393E-04  3771   0.869E-03    0.355E-01
RMM:  29    -0.231479985918E+04    0.79907E-03   -0.20692E-04  3183   0.791E-03    0.379E-01
RMM:  30    -0.231479924008E+04    0.61909E-03   -0.10343E-04  2937   0.534E-03    0.383E-01
RMM:  31    -0.231479905111E+04    0.18897E-03   -0.18695E-05  2737   0.333E-03    0.381E-01
RMM:  32    -0.231479901863E+04    0.32481E-04   -0.36298E-06  2548   0.164E-03    0.381E-01
RMM:  33    -0.231479906114E+04   -0.42513E-04   -0.66755E-07  2329   0.119E-03    0.382E-01
RMM:  34    -0.231479855011E+04    0.51103E-03   -0.31378E-05  2719   0.253E-03    0.382E-01
RMM:  35    -0.231479893378E+04   -0.38367E-03   -0.15291E-05  2433   0.218E-03    0.380E-01
RMM:  36    -0.231479944951E+04   -0.51573E-03   -0.44544E-05  2686   0.288E-03    0.376E-01
RMM:  37    -0.231480230701E+04   -0.28575E-02   -0.12564E-03  4006   0.142E-02    0.335E-01
RMM:  38    -0.231480683608E+04   -0.45291E-02   -0.20459E-03  4203   0.192E-02    0.462E-01
RMM:  39    -0.231481100288E+04   -0.41668E-02   -0.13528E-03  4133   0.165E-02    0.671E-01
RMM:  40    -0.231481215390E+04   -0.11510E-02   -0.24560E-04  3203   0.825E-03    0.718E-01
RMM:  41    -0.231481349671E+04   -0.13428E-02   -0.11071E-04  2958   0.485E-03    0.827E-01
RMM:  42    -0.231481349126E+04    0.54453E-05   -0.11375E-05  2656   0.318E-03
  41 F= -.23356794E+04 E0= -.23356664E+04  d E =-.425305E-01  mag=     7.6096
       N       E                     dE             d eps       ncg     rms          rms(c)
DAV:   1    -0.231353256376E+04    0.12809E+01   -0.68112E+01  4456   0.578E+00    0.480E+00
RMM:   2    -0.231506197822E+04   -0.15294E+01   -0.13565E+01  6000   0.154E+00    0.577E+00
RMM:   3    -0.231502400755E+04    0.37971E-01   -0.15857E+00  5332   0.633E-01    0.380E+00
RMM:   4    -0.231489156858E+04    0.13244E+00   -0.15501E-01  4930   0.177E-01    0.130E+00
RMM:   5    -0.231492293903E+04   -0.31370E-01   -0.67754E-02  4567   0.122E-01    0.908E-01
RMM:   6    -0.231496621077E+04   -0.43272E-01   -0.49082E-02  4877   0.105E-01    0.109E+00
RMM:   7    -0.231497626512E+04   -0.10054E-01   -0.20711E-02  4810   0.677E-02    0.290E-01
RMM:   8    -0.231500207618E+04   -0.25811E-01   -0.87688E-03  4409   0.433E-02    0.196E-01
RMM:   9    -0.231502105088E+04   -0.18975E-01   -0.52553E-03  4382   0.382E-02    0.145E-01
RMM:  10    -0.231503207862E+04   -0.11028E-01   -0.32769E-03  4431   0.329E-02    0.922E-02
RMM:  11    -0.231503729931E+04   -0.52207E-02   -0.12893E-03  4316   0.245E-02    0.577E-02
RMM:  12    -0.231504042270E+04   -0.31234E-02   -0.90753E-04  4144   0.204E-02    0.246E-02
RMM:  13    -0.231504137835E+04   -0.95565E-03   -0.21546E-04  3869   0.136E-02    0.164E-02
RMM:  14    -0.231504192303E+04   -0.54468E-03   -0.11044E-04  3642   0.728E-03    0.828E-03
RMM:  15    -0.231504208543E+04   -0.16239E-03   -0.28166E-05  3132   0.637E-03    0.508E-03
RMM:  16    -0.231504213213E+04   -0.46703E-04   -0.12429E-05  2908   0.330E-03    0.231E-03
RMM:  17    -0.231504214891E+04   -0.16783E-04   -0.50374E-06  2724   0.287E-03    0.137E-03
RMM:  18    -0.231504215247E+04   -0.35639E-05   -0.26596E-06  2533   0.199E-03
  42 F= -.23359046E+04 E0= -.23359046E+04  d E =-.267674E+00  mag=     6.0006
       N       E                     dE             d eps       ncg     rms          rms(c)
DAV:   1    -0.231452807679E+04    0.51407E+00   -0.30371E+01  4448   0.381E+00    0.200E+00
RMM:   2    -0.231510741786E+04   -0.57934E+00   -0.53621E+00  6261   0.966E-01    0.297E+00
RMM:   3    -0.231504789474E+04    0.59523E-01   -0.47763E-01  5775   0.336E-01    0.906E-01
RMM:   4    -0.231504572973E+04    0.21650E-02   -0.57763E-02  5277   0.762E-02    0.577E-01
RMM:   5    -0.231504546434E+04    0.26539E-03   -0.89348E-03  5534   0.386E-02    0.589E-01
RMM:   6    -0.231504278854E+04    0.26758E-02   -0.47339E-03  5076   0.323E-02    0.263E-01
RMM:   7    -0.231504239800E+04    0.39054E-03   -0.23053E-03  4510   0.257E-02    0.102E-01
RMM:   8    -0.231504231757E+04    0.80431E-04   -0.23034E-04  3281   0.841E-03    0.402E-02
RMM:   9    -0.231504233390E+04   -0.16333E-04   -0.69271E-05  2984   0.565E-03    0.156E-02
RMM:  10    -0.231504235692E+04   -0.23020E-04   -0.18535E-05  2896   0.375E-03    0.102E-02
RMM:  11    -0.231504237151E+04   -0.14593E-04   -0.69695E-06  2845   0.297E-03    0.460E-03
RMM:  12    -0.231504238143E+04   -0.99152E-05   -0.42156E-06  2759   0.221E-03
  43 F= -.23359072E+04 E0= -.23359072E+04  d E =-.270293E+00  mag=     6.0001
       N       E                     dE             d eps       ncg     rms          rms(c)
DAV:   1    -0.231492100484E+04    0.12137E+00   -0.75369E+00  4448   0.191E+00    0.101E+00
RMM:   2    -0.231506465507E+04   -0.14365E+00   -0.13439E+00  6262   0.475E-01    0.151E+00
RMM:   3    -0.231505277970E+04    0.11875E-01   -0.11868E-01  5873   0.160E-01    0.477E-01
RMM:   4    -0.231505191845E+04    0.86125E-03   -0.12288E-02  4910   0.357E-02    0.230E-01
RMM:   5    -0.231505212593E+04   -0.20748E-03   -0.19444E-03  4820   0.207E-02    0.290E-01
RMM:   6    -0.231505147224E+04    0.65369E-03   -0.12299E-03  4857   0.165E-02    0.143E-01
RMM:   7    -0.231505135502E+04    0.11722E-03   -0.37602E-04  3304   0.109E-02    0.314E-02
RMM:   8    -0.231505135040E+04    0.46201E-05   -0.48416E-05  2918   0.530E-03
  44 F= -.23359150E+04 E0= -.23359150E+04  d E =-.278096E+00  mag=     6.0000
       N       E                     dE             d eps       ncg     rms          rms(c)
DAV:   1    -0.231505166979E+04   -0.31477E-03   -0.12223E-01  4672   0.240E-01    0.129E-01
RMM:   2    -0.231505404380E+04   -0.23740E-02   -0.21726E-02  6115   0.606E-02    0.199E-01
RMM:   3    -0.231505380295E+04    0.24085E-03   -0.17964E-03  3306   0.198E-02    0.584E-02
RMM:   4    -0.231505379511E+04    0.78468E-05   -0.21006E-04  2958   0.584E-03    0.334E-02
RMM:   5    -0.231505379933E+04   -0.42179E-05   -0.34487E-05  2821   0.321E-03
  45 F= -.23359173E+04 E0= -.23359173E+04  d E =-.230415E-02  mag=     6.0000
       N       E                     dE             d eps       ncg     rms          rms(c)
DAV:   1    -0.231504112673E+04    0.12668E-01   -0.10956E+00  4480   0.718E-01    0.374E-01
RMM:   2    -0.231506165303E+04   -0.20526E-01   -0.19158E-01  6240   0.178E-01    0.547E-01
RMM:   3    -0.231506010721E+04    0.15458E-02   -0.15568E-02  5346   0.567E-02    0.179E-01
RMM:   4    -0.231505996892E+04    0.13829E-03   -0.17531E-03  3474   0.135E-02    0.870E-02
RMM:   5    -0.231505999800E+04   -0.29080E-04   -0.25151E-04  3123   0.828E-03    0.106E-01
RMM:   6    -0.231505991957E+04    0.78432E-04   -0.17072E-04  2991   0.760E-03    0.568E-02
RMM:   7    -0.231505990143E+04    0.18134E-04   -0.50756E-05  2878   0.530E-03    0.113E-02
RMM:   8    -0.231505990204E+04   -0.60613E-06   -0.81117E-06  2827   0.310E-03
  46 F= -.23359230E+04 E0= -.23359230E+04  d E =-.796648E-02  mag=     6.0000
       N       E                     dE             d eps       ncg     rms          rms(c)
DAV:   1    -0.231499087212E+04    0.69029E-01   -0.43890E+00  4432   0.144E+00    0.758E-01
RMM:   2    -0.231507499240E+04   -0.84120E-01   -0.77462E-01  6232   0.359E-01    0.118E+00
RMM:   3    -0.231506725004E+04    0.77424E-02   -0.66163E-02  5785   0.118E-01    0.348E-01
RMM:   4    -0.231506688229E+04    0.36775E-03   -0.71683E-03  4713   0.268E-02    0.173E-01
RMM:   5    -0.231506704287E+04   -0.16058E-03   -0.10747E-03  4256   0.155E-02    0.224E-01
RMM:   6    -0.231506666084E+04    0.38203E-03   -0.65965E-04  4112   0.127E-02    0.108E-01
RMM:   7    -0.231506659731E+04    0.63531E-04   -0.22338E-04  3029   0.895E-03    0.253E-02
RMM:   8    -0.231506659642E+04    0.88981E-06   -0.29486E-05  2908   0.478E-03
  47 F= -.23359288E+04 E0= -.23359288E+04  d E =-.137517E-01  mag=     6.0000
       N       E                     dE             d eps       ncg     rms          rms(c)
DAV:   1    -0.231507550416E+04   -0.89069E-02   -0.38248E-02  4920   0.128E-01    0.740E-02
RMM:   2    -0.231507625325E+04   -0.74909E-03   -0.69465E-03  5484   0.339E-02    0.110E-01
RMM:   3    -0.231507617873E+04    0.74519E-04   -0.58350E-04  2951   0.116E-02    0.347E-02
RMM:   4    -0.231507617517E+04    0.35550E-05   -0.68030E-05  2924   0.370E-03
  48 F= -.23359383E+04 E0= -.23359383E+04  d E =-.951761E-02  mag=     6.0000
       N       E                     dE             d eps       ncg     rms          rms(c)
DAV:   1    -0.231509769015E+04   -0.21511E-01   -0.34267E-01  4496   0.384E-01    0.218E-01
RMM:   2    -0.231510419684E+04   -0.65067E-02   -0.61182E-02  6176   0.993E-02    0.317E-01
RMM:   3    -0.231510368738E+04    0.50946E-03   -0.52920E-03  4165   0.330E-02    0.109E-01
RMM:   4    -0.231510364070E+04    0.46677E-04   -0.60818E-04  3081   0.869E-03    0.649E-02
RMM:   5    -0.231510364991E+04   -0.92072E-05   -0.12324E-04  2872   0.536E-03    0.739E-02
RMM:   6    -0.231510360258E+04    0.47328E-04   -0.64049E-05  2881   0.484E-03    0.246E-02
RMM:   7    -0.231510360154E+04    0.10368E-05   -0.21113E-05  2818   0.340E-03
  49 F= -.23359655E+04 E0= -.23359655E+04  d E =-.367587E-01  mag=     6.0000
       N       E                     dE             d eps       ncg     rms          rms(c)
DAV:   1    -0.231512893986E+04   -0.25337E-01   -0.13730E+00  4456   0.768E-01    0.433E-01
RMM:   2    -0.231515523337E+04   -0.26294E-01   -0.24612E-01  6245   0.200E-01    0.637E-01
RMM:   3    -0.231515301317E+04    0.22202E-02   -0.20704E-02  5432   0.643E-02    0.208E-01
RMM:   4    -0.231515279280E+04    0.22036E-03   -0.23396E-03  3818   0.157E-02    0.105E-01
RMM:   5    -0.231515285975E+04   -0.66948E-04   -0.40356E-04  3167   0.930E-03    0.142E-01
RMM:   6    -0.231515269296E+04    0.16680E-03   -0.22858E-04  3092   0.819E-03    0.560E-02
RMM:   7    -0.231515267954E+04    0.13420E-04   -0.72045E-05  2886   0.581E-03    0.129E-02
RMM:   8    -0.231515268143E+04   -0.18907E-05   -0.95093E-06  2842   0.314E-03
  50 F= -.23360142E+04 E0= -.23360142E+04  d E =-.854596E-01  mag=     6.0000
       N       E                     dE             d eps       ncg     rms          rms(c)
DAV:   1    -0.231513158877E+04    0.21091E-01   -0.54932E+00  4448   0.154E+00    0.854E-01
RMM:   2    -0.231523603614E+04   -0.10445E+00   -0.98393E-01  6249   0.399E-01    0.126E+00
RMM:   3    -0.231522865328E+04    0.73829E-02   -0.86204E-02  5790   0.131E-01    0.437E-01
RMM:   4    -0.231522760179E+04    0.10515E-02   -0.93493E-03  4921   0.311E-02    0.205E-01
RMM:   5    -0.231522783709E+04   -0.23530E-03   -0.15417E-03  4374   0.179E-02    0.273E-01
RMM:   6    -0.231522722983E+04    0.60727E-03   -0.91982E-04  4406   0.139E-02    0.117E-01
RMM:   7    -0.231522716816E+04    0.61670E-04   -0.24815E-04  3001   0.894E-03    0.282E-02
RMM:   8    -0.231522717365E+04   -0.54906E-05   -0.34813E-05  2923   0.476E-03
  51 F= -.23360879E+04 E0= -.23360879E+04  d E =-.159158E+00  mag=     6.0000
       N       E                     dE             d eps       ncg     rms          rms(c)
DAV:   1    -0.231487989451E+04    0.34727E+00   -0.21865E+01  4448   0.309E+00    0.168E+00
RMM:   2    -0.231530588570E+04   -0.42599E+00   -0.40760E+00  6304   0.813E-01    0.241E+00
RMM:   3    -0.231528807013E+04    0.17816E-01   -0.37346E-01  5897   0.274E-01    0.993E-01
RMM:   4    -0.231528167930E+04    0.63908E-02   -0.37273E-02  5381   0.642E-02    0.415E-01
RMM:   5    -0.231528200982E+04   -0.33053E-03   -0.60847E-03  5114   0.356E-02    0.488E-01
RMM:   6    -0.231528030359E+04    0.17062E-02   -0.38127E-03  5460   0.262E-02    0.271E-01
RMM:   7    -0.231527992488E+04    0.37871E-03   -0.96152E-04  4098   0.154E-02    0.609E-02
RMM:   8    -0.231527995547E+04   -0.30589E-04   -0.16554E-04  3026   0.792E-03    0.281E-02
RMM:   9    -0.231527998961E+04   -0.34139E-04   -0.42750E-05  2964   0.454E-03    0.137E-02
RMM:  10    -0.231528002107E+04   -0.31458E-04   -0.14005E-05  2881   0.363E-03    0.870E-03
RMM:  11    -0.231528004126E+04   -0.20192E-04   -0.69434E-06  2832   0.289E-03    0.529E-03
RMM:  12    -0.231528005489E+04   -0.13631E-04   -0.43154E-06  2744   0.235E-03    0.400E-03
RMM:  13    -0.231528006594E+04   -0.11046E-04   -0.38520E-06  2648   0.212E-03    0.240E-03
RMM:  14    -0.231528006908E+04   -0.31460E-05   -0.17958E-06  2531   0.183E-03
  52 F= -.23361391E+04 E0= -.23361391E+04  d E =-.210320E+00  mag=     6.0000
       N       E                     dE             d eps       ncg     rms          rms(c)
DAV:   1    -0.231527043282E+04    0.96331E-02   -0.27468E+00  4472   0.110E+00    0.607E-01
RMM:   2    -0.231533076725E+04   -0.60334E-01   -0.55979E-01  6348   0.302E-01    0.897E-01
RMM:   3    -0.231532769249E+04    0.30748E-02   -0.52612E-02  5723   0.105E-01    0.312E-01
RMM:   4    -0.231532753023E+04    0.16226E-03   -0.54729E-03  4557   0.240E-02    0.188E-01
RMM:   5    -0.231532743369E+04    0.96543E-04   -0.65893E-04  3386   0.111E-02    0.165E-01
RMM:   6    -0.231532721490E+04    0.21878E-03   -0.33905E-04  3688   0.102E-02    0.770E-02
RMM:   7    -0.231532718276E+04    0.32146E-04   -0.20761E-04  3156   0.886E-03    0.204E-02
RMM:   8    -0.231532718469E+04   -0.19370E-05   -0.21138E-05  2908   0.456E-03
  53 F= -.23361858E+04 E0= -.23361858E+04  d E =-.467440E-01  mag=     6.0000
       N       E                     dE             d eps       ncg     rms          rms(c)
DAV:   1    -0.231490936232E+04    0.41782E+00   -0.24653E+01  4464   0.333E+00    0.178E+00
RMM:   2    -0.231544637187E+04   -0.53701E+00   -0.51279E+00  6380   0.918E-01    0.234E+00
RMM:   3    -0.231544809769E+04   -0.17258E-02   -0.52886E-01  5908   0.347E-01    0.114E+00
RMM:   4    -0.231544169391E+04    0.64038E-02   -0.49340E-02  5481   0.764E-02    0.540E-01
RMM:   5    -0.231544110526E+04    0.58865E-03   -0.61872E-03  5258   0.322E-02    0.508E-01
RMM:   6    -0.231543907335E+04    0.20319E-02   -0.35685E-03  5059   0.278E-02    0.239E-01
RMM:   7    -0.231543878200E+04    0.29135E-03   -0.18459E-03  4897   0.228E-02    0.593E-02
RMM:   8    -0.231543880200E+04   -0.19993E-04   -0.20145E-04  3301   0.894E-03    0.313E-02
RMM:   9    -0.231543883369E+04   -0.31689E-04   -0.42689E-05  2958   0.512E-03    0.176E-02
RMM:  10    -0.231543887169E+04   -0.38007E-04   -0.25990E-05  2906   0.425E-03    0.807E-03
RMM:  11    -0.231543889288E+04   -0.21185E-04   -0.91726E-06  2872   0.325E-03    0.592E-03
RMM:  12    -0.231543890851E+04   -0.15633E-04   -0.52625E-06  2801   0.247E-03    0.390E-03
RMM:  13    -0.231543892009E+04   -0.11579E-04   -0.43428E-06  2699   0.237E-03    0.247E-03
RMM:  14    -0.231543892404E+04   -0.39460E-05   -0.22520E-06  2573   0.199E-03
  54 F= -.23362964E+04 E0= -.23362964E+04  d E =-.157300E+00  mag=     6.0000
       N       E                     dE             d eps       ncg     rms          rms(c)
DAV:   1    -0.231310237050E+04    0.23365E+01   -0.97385E+01  4456   0.682E+00    0.351E+00
RMM:   2    -0.231546617248E+04   -0.23638E+01   -0.23001E+01  6374   0.201E+00    0.462E+00
RMM:   3    -0.231559822138E+04   -0.13205E+00   -0.25024E+00  5461   0.921E-01    0.379E+00
RMM:   4    -0.231551214611E+04    0.86075E-01   -0.26814E-01  6096   0.206E-01    0.172E+00
RMM:   5    -0.231551423871E+04   -0.20926E-02   -0.46562E-02  5776   0.847E-02    0.124E+00
RMM:   6    -0.231551152264E+04    0.27161E-02   -0.14759E-02  5581   0.529E-02    0.782E-01
RMM:   7    -0.231550820319E+04    0.33195E-02   -0.93392E-03  5026   0.444E-02    0.439E-01
RMM:   8    -0.231550739173E+04    0.81146E-03   -0.65468E-03  5125   0.449E-02    0.164E-01
RMM:   9    -0.231550768392E+04   -0.29219E-03   -0.90367E-04  4501   0.160E-02    0.113E-01
RMM:  10    -0.231550779463E+04   -0.11071E-03   -0.13306E-04  3372   0.840E-03    0.795E-02
RMM:  11    -0.231550790918E+04   -0.11456E-03   -0.10179E-04  3356   0.630E-03    0.420E-02
RMM:  12    -0.231550797281E+04   -0.63623E-04   -0.34153E-05  3003   0.486E-03    0.185E-02
RMM:  13    -0.231550802592E+04   -0.53115E-04   -0.17015E-05  2922   0.371E-03    0.893E-03
RMM:  14    -0.231550806848E+04   -0.42557E-04   -0.12355E-05  2868   0.366E-03    0.533E-03
RMM:  15    -0.231550808529E+04   -0.16814E-04   -0.58281E-06  2798   0.305E-03    0.382E-03
RMM:  16    -0.231550809519E+04   -0.98980E-05   -0.36971E-06  2562   0.229E-03
  55 F= -.23363629E+04 E0= -.23363629E+04  d E =-.223859E+00  mag=     6.0000
       N       E                     dE             d eps       ncg     rms          rms(c)
DAV:   1    -0.231538689767E+04    0.12119E+00   -0.55761E+00  4472   0.167E+00    0.867E-01
RMM:   2    -0.231552252782E+04   -0.13563E+00   -0.12661E+00  6365   0.500E-01    0.134E+00
RMM:   3    -0.231551347695E+04    0.90509E-02   -0.10886E-01  5661   0.156E-01    0.431E-01
RMM:   4    -0.231551349968E+04   -0.22723E-04   -0.11995E-02  5126   0.354E-02    0.256E-01
RMM:   5    -0.231551339589E+04    0.10379E-03   -0.13208E-03  4309   0.155E-02    0.258E-01
RMM:   6    -0.231551285917E+04    0.53673E-03   -0.83669E-04  4518   0.150E-02    0.138E-01
RMM:   7    -0.231551273699E+04    0.12218E-03   -0.62828E-04  4227   0.136E-02    0.405E-02
RMM:   8    -0.231551273629E+04    0.69385E-06   -0.47220E-05  2906   0.539E-03
  56 F= -.23363682E+04 E0= -.23363682E+04  d E =-.229151E+00  mag=     6.0000
       N       E                     dE             d eps       ncg     rms          rms(c)
DAV:   1    -0.231553496554E+04   -0.22229E-01   -0.10997E+00  4576   0.102E+00    0.434E-01
RMM:   2    -0.231555425660E+04   -0.19291E-01   -0.20766E-01  5859   0.246E-01    0.243E-01
RMM:   3    -0.231555563504E+04   -0.13784E-02   -0.20384E-02  5458   0.100E-01    0.225E-01
RMM:   4    -0.231555530315E+04    0.33190E-03   -0.21639E-03  5231   0.230E-02    0.143E-01
RMM:   5    -0.231555504084E+04    0.26230E-03   -0.62183E-04  5005   0.171E-02    0.570E-02
RMM:   6    -0.231555501843E+04    0.22415E-04   -0.19933E-04  4535   0.107E-02    0.485E-02
RMM:   7    -0.231555500980E+04    0.86278E-05   -0.64898E-05  3066   0.710E-03
  57 F= -.23364100E+04 E0= -.23364100E+04  d E =-.418030E-01  mag=     6.0000
       N       E                     dE             d eps       ncg     rms          rms(c)
DAV:   1    -0.231551391635E+04    0.41102E-01   -0.38224E+00  4464   0.191E+00    0.818E-01
RMM:   2    -0.231558316536E+04   -0.69249E-01   -0.74599E-01  5859   0.472E-01    0.492E-01
RMM:   3    -0.231558813405E+04   -0.49687E-02   -0.76283E-02  5537   0.191E-01    0.455E-01
RMM:   4    -0.231558657420E+04    0.15598E-02   -0.77616E-03  5706   0.438E-02    0.251E-01
RMM:   5    -0.231558570865E+04    0.86555E-03   -0.21307E-03  5409   0.303E-02    0.113E-01
RMM:   6    -0.231558555360E+04    0.15505E-03   -0.72535E-04  5030   0.183E-02    0.756E-02
RMM:   7    -0.231558554480E+04    0.88015E-05   -0.22254E-04  4212   0.125E-02    0.832E-02
RMM:   8    -0.231558547153E+04    0.73270E-04   -0.65654E-05  3066   0.592E-03    0.194E-02
RMM:   9    -0.231558545714E+04    0.14392E-04   -0.23617E-05  2924   0.454E-03    0.858E-03
RMM:  10    -0.231558545276E+04    0.43754E-05   -0.16105E-05  2883   0.418E-03
  58 F= -.23364396E+04 E0= -.23364396E+04  d E =-.713579E-01  mag=     6.0000
       N       E                     dE             d eps       ncg     rms          rms(c)
DAV:   1    -0.231558831873E+04   -0.28616E-02   -0.13300E+00  4512   0.904E-01    0.435E-01
RMM:   2    -0.231561428237E+04   -0.25964E-01   -0.28712E-01  6095   0.246E-01    0.242E-01
RMM:   3    -0.231561634285E+04   -0.20605E-02   -0.28356E-02  5460   0.960E-02    0.196E-01
RMM:   4    -0.231561622333E+04    0.11952E-03   -0.29626E-03  4319   0.205E-02    0.153E-01
RMM:   5    -0.231561594986E+04    0.27347E-03   -0.57093E-04  4115   0.122E-02    0.656E-02
RMM:   6    -0.231561594654E+04    0.33155E-05   -0.22216E-04  3514   0.895E-03    0.538E-02
RMM:   7    -0.231561593177E+04    0.14768E-04   -0.73302E-05  2991   0.649E-03    0.389E-02
RMM:   8    -0.231561591774E+04    0.14029E-04   -0.18109E-05  2905   0.378E-03    0.788E-03
RMM:   9    -0.231561591761E+04    0.13801E-06   -0.53549E-06  2850   0.264E-03
  59 F= -.23364694E+04 E0= -.23364694E+04  d E =-.297697E-01  mag=     6.0000
       N       E                     dE             d eps       ncg     rms          rms(c)
DAV:   1    -0.231559456970E+04    0.21348E-01   -0.15977E+00  4480   0.997E-01    0.482E-01
RMM:   2    -0.231562661371E+04   -0.32044E-01   -0.35563E-01  6032   0.273E-01    0.280E-01
RMM:   3    -0.231562934765E+04   -0.27339E-02   -0.36305E-02  5500   0.109E-01    0.236E-01
RMM:   4    -0.231562907298E+04    0.27467E-03   -0.35864E-03  4637   0.226E-02    0.160E-01
RMM:   5    -0.231562875850E+04    0.31448E-03   -0.71120E-04  4291   0.133E-02    0.773E-02
RMM:   6    -0.231562875622E+04    0.22711E-05   -0.31402E-04  3756   0.998E-03    0.654E-02
RMM:   7    -0.231562872659E+04    0.29633E-04   -0.93572E-05  3029   0.695E-03    0.414E-02
RMM:   8    -0.231562871055E+04    0.16040E-04   -0.22673E-05  2924   0.408E-03    0.936E-03
RMM:   9    -0.231562871001E+04    0.53806E-06   -0.65396E-06  2889   0.279E-03
  60 F= -.23364814E+04 E0= -.23364814E+04  d E =-.417953E-01  mag=     6.0000
       N       E                     dE             d eps       ncg     rms          rms(c)
DAV:   1    -0.231562163228E+04    0.70783E-02   -0.18797E+00  4480   0.130E+00    0.549E-01
RMM:   2    -0.231565964282E+04   -0.38011E-01   -0.39585E-01  5920   0.323E-01    0.274E-01
RMM:   3    -0.231566270975E+04   -0.30669E-02   -0.38623E-02  5494   0.119E-01    0.224E-01
RMM:   4    -0.231566263910E+04    0.70645E-04   -0.34601E-03  5044   0.248E-02    0.166E-01
RMM:   5    -0.231566234976E+04    0.28934E-03   -0.67425E-04  4847   0.159E-02    0.870E-02
RMM:   6    -0.231566226060E+04    0.89166E-04   -0.27489E-04  4573   0.114E-02    0.306E-02
RMM:   7    -0.231566225998E+04    0.61236E-06   -0.47777E-05  3024   0.769E-03
  61 F= -.23365143E+04 E0= -.23365143E+04  d E =-.328774E-01  mag=     6.0000
       N       E                     dE             d eps       ncg     rms          rms(c)
DAV:   1    -0.231533589595E+04    0.32636E+00   -0.16918E+01  4464   0.390E+00    0.164E+00
RMM:   2    -0.231568066605E+04   -0.34477E+00   -0.35937E+00  5882   0.101E+00    0.926E-01
RMM:   3    -0.231571125226E+04   -0.30586E-01   -0.39053E-01  5499   0.434E-01    0.846E-01
RMM:   4    -0.231570749582E+04    0.37564E-02   -0.32630E-02  6019   0.794E-02    0.460E-01
RMM:   5    -0.231570519720E+04    0.22986E-02   -0.57574E-03  5466   0.432E-02    0.270E-01
RMM:   6    -0.231570451384E+04    0.68336E-03   -0.34834E-03  5194   0.340E-02    0.186E-01
RMM:   7    -0.231570431583E+04    0.19802E-03   -0.10119E-03  4981   0.240E-02    0.142E-01
RMM:   8    -0.231570412027E+04    0.19556E-03   -0.29117E-04  4564   0.101E-02    0.350E-02
RMM:   9    -0.231570410220E+04    0.18070E-04   -0.63318E-05  2939   0.664E-03    0.151E-02
RMM:  10    -0.231570409782E+04    0.43830E-05   -0.27774E-05  2972   0.461E-03
  62 F= -.23365541E+04 E0= -.23365541E+04  d E =-.726854E-01  mag=     6.0000
       N       E                     dE             d eps       ncg     rms          rms(c)
DAV:   1    -0.231567989820E+04    0.24204E-01   -0.21562E+00  4640   0.122E+00    0.553E-01
RMM:   2    -0.231573038422E+04   -0.50486E-01   -0.51048E-01  6184   0.335E-01    0.331E-01
RMM:   3    -0.231573495540E+04   -0.45712E-02   -0.52931E-02  5605   0.124E-01    0.295E-01
RMM:   4    -0.231573454539E+04    0.41001E-03   -0.43755E-03  4266   0.242E-02    0.167E-01
RMM:   5    -0.231573425370E+04    0.29169E-03   -0.70014E-04  4000   0.134E-02    0.950E-02
RMM:   6    -0.231573418495E+04    0.68754E-04   -0.38577E-04  4419   0.106E-02    0.551E-02
RMM:   7    -0.231573417478E+04    0.10161E-04   -0.94157E-05  2979   0.712E-03    0.436E-02
RMM:   8    -0.231573415967E+04    0.15109E-04   -0.26288E-05  2892   0.385E-03    0.113E-02
RMM:   9    -0.231573416176E+04   -0.20896E-05   -0.74762E-06  2851   0.255E-03
  63 F= -.23365834E+04 E0= -.23365834E+04  d E =-.292755E-01  mag=     6.0000
       N       E                     dE             d eps       ncg     rms          rms(c)
DAV:   1    -0.231527910503E+04    0.45505E+00   -0.19237E+01  4464   0.369E+00    0.166E+00
RMM:   2    -0.231575452455E+04   -0.47542E+00   -0.48780E+00  6053   0.107E+00    0.105E+00
RMM:   3    -0.231580424024E+04   -0.49716E-01   -0.60158E-01  5411   0.505E-01    0.995E-01
RMM:   4    -0.231579895543E+04    0.52848E-02   -0.41821E-02  5864   0.779E-02    0.517E-01
RMM:   5    -0.231579700295E+04    0.19525E-02   -0.66746E-03  5335   0.348E-02    0.414E-01
RMM:   6    -0.231579603033E+04    0.97262E-03   -0.58253E-03  5554   0.348E-02    0.319E-01
RMM:   7    -0.231579514378E+04    0.88655E-03   -0.17248E-03  4996   0.211E-02    0.118E-01
RMM:   8    -0.231579501812E+04    0.12566E-03   -0.32927E-04  4098   0.107E-02    0.555E-02
RMM:   9    -0.231579499068E+04    0.27441E-04   -0.98611E-05  2931   0.732E-03    0.165E-02
RMM:  10    -0.231579499412E+04   -0.34367E-05   -0.27037E-05  2909   0.390E-03
  64 F= -.23366419E+04 E0= -.23366419E+04  d E =-.877836E-01  mag=     6.0000
       N       E                     dE             d eps       ncg     rms          rms(c)
DAV:   1    -0.231352588361E+04    0.22691E+01   -0.77469E+01  4448   0.746E+00    0.327E+00
RMM:   2    -0.231554751209E+04   -0.20216E+01   -0.21048E+01  6078   0.217E+00    0.240E+00
RMM:   3    -0.231569505689E+04   -0.14754E+00   -0.25019E+00  5319   0.104E+00    0.166E+00
RMM:   4    -0.231568344666E+04    0.11610E-01   -0.15161E-01  5827   0.150E-01    0.921E-01
RMM:   5    -0.231567791234E+04    0.55343E-02   -0.20581E-02  5688   0.634E-02    0.806E-01
RMM:   6    -0.231567348427E+04    0.44281E-02   -0.16410E-02  5662   0.558E-02    0.561E-01
RMM:   7    -0.231567120757E+04    0.22767E-02   -0.60778E-03  5678   0.395E-02    0.256E-01
RMM:   8    -0.231567069122E+04    0.51636E-03   -0.18216E-03  5385   0.229E-02    0.146E-01
RMM:   9    -0.231567043147E+04    0.25975E-03   -0.38504E-04  3304   0.128E-02    0.373E-02
RMM:  10    -0.231567041695E+04    0.14512E-04   -0.10883E-04  3068   0.615E-03    0.240E-02
RMM:  11    -0.231567041029E+04    0.66636E-05   -0.20152E-05  2886   0.467E-03
  65 F= -.23365129E+04 E0= -.23365129E+04  d E =0.411346E-01  mag=     6.0000
       N       E                     dE             d eps       ncg     rms          rms(c)
DAV:   1    -0.231433355193E+04    0.13369E+01   -0.57460E+01  4472   0.641E+00    0.307E+00
RMM:   2    -0.231581311935E+04   -0.14796E+01   -0.14904E+01  6193   0.188E+00    0.309E+00
RMM:   3    -0.231582572230E+04   -0.12603E-01   -0.14159E+00  5802   0.641E-01    0.174E+00
RMM:   4    -0.231580759871E+04    0.18124E-01   -0.11963E-01  5894   0.125E-01    0.769E-01
RMM:   5    -0.231580541014E+04    0.21886E-02   -0.15116E-02  5708   0.537E-02    0.661E-01
RMM:   6    -0.231580107570E+04    0.43344E-02   -0.67848E-03  5224   0.423E-02    0.308E-01
RMM:   7    -0.231580040934E+04    0.66636E-03   -0.28590E-03  5327   0.309E-02    0.859E-02
RMM:   8    -0.231580039512E+04    0.14223E-04   -0.37387E-04  4357   0.152E-02    0.451E-02
RMM:   9    -0.231580037552E+04    0.19597E-04   -0.84116E-05  3120   0.688E-03    0.215E-02
RMM:  10    -0.231580036843E+04    0.70936E-05   -0.21997E-05  2966   0.437E-03
  66 F= -.23366466E+04 E0= -.23366466E+04  d E =-.925239E-01  mag=     6.0000
       N       E                     dE             d eps       ncg     rms          rms(c)
DAV:   1    -0.231578888177E+04    0.11494E-01   -0.32652E+00  4504   0.176E+00    0.758E-01
RMM:   2    -0.231585228225E+04   -0.63400E-01   -0.65560E-01  5912   0.431E-01    0.375E-01
RMM:   3    -0.231585762327E+04   -0.53410E-02   -0.71037E-02  5452   0.158E-01    0.431E-01
RMM:   4    -0.231585663614E+04    0.98713E-03   -0.60287E-03  5359   0.343E-02    0.195E-01
RMM:   5    -0.231585603456E+04    0.60159E-03   -0.13118E-03  5357   0.230E-02    0.999E-02
RMM:   6    -0.231585592699E+04    0.10757E-03   -0.46153E-04  4857   0.150E-02    0.418E-02
RMM:   7    -0.231585593370E+04   -0.67133E-05   -0.11542E-04  3671   0.846E-03    0.585E-02
RMM:   8    -0.231585589720E+04    0.36500E-04   -0.40907E-05  2953   0.563E-03    0.121E-02
RMM:   9    -0.231585589275E+04    0.44516E-05   -0.13226E-05  2899   0.341E-03
  67 F= -.23367020E+04 E0= -.23367020E+04  d E =-.553955E-01  mag=     6.0000
       N       E                     dE             d eps       ncg     rms          rms(c)
DAV:   1    -0.231568140394E+04    0.17449E+00   -0.10129E+01  4464   0.310E+00    0.133E+00
RMM:   2    -0.231588012714E+04   -0.19872E+00   -0.20836E+00  5925   0.753E-01    0.617E-01
RMM:   3    -0.231589543319E+04   -0.15306E-01   -0.22877E-01  5371   0.279E-01    0.483E-01
RMM:   4    -0.231589604154E+04   -0.60835E-03   -0.19965E-02  5638   0.614E-02    0.478E-01
RMM:   5    -0.231589346860E+04    0.25729E-02   -0.40295E-03  5411   0.357E-02    0.210E-01
RMM:   6    -0.231589294802E+04    0.52058E-03   -0.19094E-03  5187   0.270E-02    0.911E-02
RMM:   7    -0.231589295350E+04   -0.54759E-05   -0.40778E-04  4655   0.176E-02    0.962E-02
RMM:   8    -0.231589284825E+04    0.10524E-03   -0.13129E-04  3522   0.721E-03    0.364E-02
RMM:   9    -0.231589282516E+04    0.23095E-04   -0.28735E-05  2915   0.519E-03    0.130E-02
RMM:  10    -0.231589281936E+04    0.58006E-05   -0.15313E-05  2876   0.413E-03
  68 F= -.23367387E+04 E0= -.23367387E+04  d E =-.920645E-01  mag=     6.0000
       N       E                     dE             d eps       ncg     rms          rms(c)
DAV:   1    -0.231582331665E+04    0.69509E-01   -0.52213E+00  4480   0.184E+00    0.820E-01
RMM:   2    -0.231593243548E+04   -0.10912E+00   -0.11320E+00  5988   0.456E-01    0.466E-01
RMM:   3    -0.231594082314E+04   -0.83877E-02   -0.11999E-01  5602   0.176E-01    0.270E-01
RMM:   4    -0.231594119004E+04   -0.36691E-03   -0.10130E-02  5388   0.363E-02    0.302E-01
RMM:   5    -0.231594028729E+04    0.90275E-03   -0.13743E-03  5049   0.195E-02    0.144E-01
RMM:   6    -0.231594006019E+04    0.22710E-03   -0.10006E-03  5006   0.165E-02    0.775E-02
RMM:   7    -0.231594008303E+04   -0.22847E-04   -0.22930E-04  3463   0.996E-03    0.911E-02
RMM:   8    -0.231594000092E+04    0.82114E-04   -0.82706E-05  2910   0.594E-03    0.184E-02
RMM:   9    -0.231593999702E+04    0.38967E-05   -0.19627E-05  2913   0.400E-03
  69 F= -.23367863E+04 E0= -.23367863E+04  d E =-.476513E-01  mag=     6.0000
       N       E                     dE             d eps       ncg     rms          rms(c)
DAV:   1    -0.231586380540E+04    0.76196E-01   -0.39367E+00  4528   0.159E+00    0.714E-01
RMM:   2    -0.231594692188E+04   -0.83116E-01   -0.86777E-01  5981   0.396E-01    0.409E-01
RMM:   3    -0.231595359513E+04   -0.66732E-02   -0.92758E-02  5622   0.153E-01    0.252E-01
RMM:   4    -0.231595376717E+04   -0.17204E-03   -0.78156E-03  5215   0.320E-02    0.258E-01
RMM:   5    -0.231595308358E+04    0.68359E-03   -0.10011E-03  4938   0.165E-02    0.130E-01
RMM:   6    -0.231595294166E+04    0.14192E-03   -0.89833E-04  4873   0.154E-02    0.100E-01
RMM:   7    -0.231595288642E+04    0.55241E-04   -0.23798E-04  3597   0.967E-03    0.712E-02
RMM:   8    -0.231595283279E+04    0.53630E-04   -0.54030E-05  2905   0.551E-03    0.149E-02
RMM:   9    -0.231595282845E+04    0.43385E-05   -0.17145E-05  2906   0.408E-03
  70 F= -.23367995E+04 E0= -.23367995E+04  d E =-.608860E-01  mag=     6.0000
       N       E                     dE             d eps       ncg     rms          rms(c)
DAV:   1    -0.231586299572E+04    0.89837E-01   -0.61010E+00  4464   0.202E+00    0.889E-01
RMM:   2    -0.231596984898E+04   -0.10685E+00   -0.11300E+00  5946   0.485E-01    0.650E-01
RMM:   3    -0.231597736095E+04   -0.75120E-02   -0.11999E-01  5757   0.188E-01    0.478E-01
RMM:   4    -0.231597561336E+04    0.17476E-02   -0.11531E-02  5602   0.427E-02    0.296E-01
RMM:   5    -0.231597483493E+04    0.77843E-03   -0.20165E-03  5097   0.231E-02    0.208E-01
RMM:   6    -0.231597458776E+04    0.24717E-03   -0.17233E-03  4931   0.205E-02    0.151E-01
RMM:   7    -0.231597437468E+04    0.21308E-03   -0.41976E-04  4575   0.128E-02    0.619E-02
RMM:   8    -0.231597433840E+04    0.36283E-04   -0.60090E-05  2927   0.576E-03    0.177E-02
RMM:   9    -0.231597433748E+04    0.92249E-06   -0.18799E-05  2884   0.423E-03
  71 F= -.23368207E+04 E0= -.23368207E+04  d E =-.211761E-01  mag=     6.0000
       N       E                     dE             d eps       ncg     rms          rms(c)
DAV:   1    -0.231596990934E+04    0.44291E-02   -0.37267E-01  4560   0.497E-01    0.222E-01
RMM:   2    -0.231597659519E+04   -0.66859E-02   -0.71242E-02  6010   0.121E-01    0.157E-01
RMM:   3    -0.231597707824E+04   -0.48305E-03   -0.71037E-03  4862   0.445E-02    0.123E-01
RMM:   4    -0.231597695235E+04    0.12589E-03   -0.69804E-04  3238   0.111E-02    0.687E-02
RMM:   5    -0.231597689685E+04    0.55501E-04   -0.14453E-04  3095   0.727E-03    0.407E-02
RMM:   6    -0.231597690081E+04   -0.39611E-05   -0.91610E-05  2917   0.644E-03
  72 F= -.23368234E+04 E0= -.23368234E+04  d E =-.238227E-01  mag=     6.0000
       N       E                     dE             d eps       ncg     rms          rms(c)
DAV:   1    -0.231594024248E+04    0.36654E-01   -0.32461E+00  4464   0.155E+00    0.672E-01
RMM:   2    -0.231600730546E+04   -0.67063E-01   -0.67650E-01  6095   0.380E-01    0.615E-01
RMM:   3    -0.231601051970E+04   -0.32142E-02   -0.67242E-02  5859   0.145E-01    0.380E-01
RMM:   4    -0.231600933312E+04    0.11866E-02   -0.62491E-03  5301   0.320E-02    0.160E-01
RMM:   5    -0.231600899094E+04    0.34218E-03   -0.72399E-04  4711   0.162E-02    0.871E-02
RMM:   6    -0.231600892528E+04    0.65660E-04   -0.43160E-04  4553   0.139E-02    0.549E-02
RMM:   7    -0.231600891021E+04    0.15068E-04   -0.10053E-04  3044   0.874E-03    0.407E-02
RMM:   8    -0.231600889946E+04    0.10758E-04   -0.23842E-05  2881   0.406E-03    0.142E-02
RMM:   9    -0.231600890368E+04   -0.42260E-05   -0.11391E-05  2871   0.274E-03
  73 F= -.23368547E+04 E0= -.23368547E+04  d E =-.312847E-01  mag=     6.0000
       N       E                     dE             d eps       ncg     rms          rms(c)
DAV:   1    -0.231587784567E+04    0.13105E+00   -0.72572E+00  4472   0.231E+00    0.100E+00
RMM:   2    -0.231602585010E+04   -0.14800E+00   -0.14958E+00  6078   0.562E-01    0.901E-01
RMM:   3    -0.231603322198E+04   -0.73719E-02   -0.14933E-01  5882   0.206E-01    0.569E-01
RMM:   4    -0.231603061132E+04    0.26107E-02   -0.13884E-02  5536   0.473E-02    0.240E-01
RMM:   5    -0.231602996908E+04    0.64225E-03   -0.17064E-03  5125   0.232E-02    0.159E-01
RMM:   6    -0.231603003145E+04   -0.62371E-04   -0.12920E-03  4841   0.193E-02    0.183E-01
RMM:   7    -0.231602969164E+04    0.33980E-03   -0.47022E-04  4655   0.141E-02    0.429E-02
RMM:   8    -0.231602969208E+04   -0.43803E-06   -0.67600E-05  2975   0.592E-03
  74 F= -.23368744E+04 E0= -.23368744E+04  d E =-.510131E-01  mag=     6.0000
       N       E                     dE             d eps       ncg     rms          rms(c)
DAV:   1    -0.231597306010E+04    0.56632E-01   -0.42895E+00  4464   0.188E+00    0.784E-01
RMM:   2    -0.231605436940E+04   -0.81309E-01   -0.81637E-01  5979   0.451E-01    0.720E-01
RMM:   3    -0.231605746555E+04   -0.30962E-02   -0.81178E-02  5781   0.171E-01    0.478E-01
RMM:   4    -0.231605546682E+04    0.19987E-02   -0.78800E-03  5372   0.399E-02    0.182E-01
RMM:   5    -0.231605499976E+04    0.46706E-03   -0.11673E-03  5139   0.229E-02    0.112E-01
RMM:   6    -0.231605510053E+04   -0.10077E-03   -0.92548E-04  5140   0.186E-02    0.164E-01
RMM:   7    -0.231605485485E+04    0.24568E-03   -0.28211E-04  3727   0.122E-02    0.238E-02
RMM:   8    -0.231605485851E+04   -0.36628E-05   -0.44052E-05  2921   0.471E-03
  75 F= -.23368981E+04 E0= -.23368981E+04  d E =-.236670E-01  mag=     6.0000
       N       E                     dE             d eps       ncg     rms          rms(c)
DAV:   1    -0.231604741698E+04    0.74379E-02   -0.50111E-01  4656   0.640E-01    0.267E-01
RMM:   2    -0.231605685656E+04   -0.94396E-02   -0.94756E-02  5985   0.154E-01    0.245E-01
RMM:   3    -0.231605719464E+04   -0.33808E-03   -0.92981E-03  5522   0.610E-02    0.159E-01
RMM:   4    -0.231605699173E+04    0.20291E-03   -0.93407E-04  4101   0.139E-02    0.619E-02
RMM:   5    -0.231605692871E+04    0.63016E-04   -0.12027E-04  3598   0.872E-03    0.334E-02
RMM:   6    -0.231605692618E+04    0.25315E-05   -0.94127E-05  3765   0.795E-03
  76 F= -.23368996E+04 E0= -.23368996E+04  d E =-.252253E-01  mag=     6.0000
       N       E                     dE             d eps       ncg     rms          rms(c)
DAV:   1    -0.231603820569E+04    0.18723E-01   -0.18026E+00  4464   0.106E+00    0.453E-01
RMM:   2    -0.231606221169E+04   -0.24006E-01   -0.25621E-01  6183   0.240E-01    0.429E-01
RMM:   3    -0.231606325951E+04   -0.10478E-02   -0.26954E-02  5715   0.951E-02    0.307E-01
RMM:   4    -0.231606249553E+04    0.76398E-03   -0.28262E-03  4810   0.224E-02    0.115E-01
RMM:   5    -0.231606240942E+04    0.86110E-04   -0.53497E-04  4038   0.123E-02    0.104E-01
RMM:   6    -0.231606235017E+04    0.59250E-04   -0.34143E-04  3537   0.101E-02    0.796E-02
RMM:   7    -0.231606229765E+04    0.52518E-04   -0.72600E-05  2943   0.684E-03    0.132E-02
RMM:   8    -0.231606230023E+04   -0.25791E-05   -0.13350E-05  2911   0.382E-03
  77 F= -.23369044E+04 E0= -.23369044E+04  d E =-.482645E-02  mag=     6.0000
       N       E                     dE             d eps       ncg     rms          rms(c)
DAV:   1    -0.231606127965E+04    0.10180E-02   -0.11212E-01  4544   0.264E-01    0.113E-01
RMM:   2    -0.231606279219E+04   -0.15125E-02   -0.15937E-02  6198   0.606E-02    0.117E-01
RMM:   3    -0.231606281882E+04   -0.26625E-04   -0.16013E-03  3614   0.235E-02    0.728E-02
RMM:   4    -0.231606277848E+04    0.40342E-04   -0.17297E-04  2981   0.656E-03    0.279E-02
RMM:   5    -0.231606277380E+04    0.46723E-05   -0.35777E-05  2889   0.386E-03
  78 F= -.23369050E+04 E0= -.23369050E+04  d E =-.543534E-02  mag=     6.0000
       N       E                     dE             d eps       ncg     rms          rms(c)
DAV:   1    -0.231605877572E+04    0.40028E-02   -0.11044E+00  4464   0.897E-01    0.331E-01
RMM:   2    -0.231607091643E+04   -0.12141E-01   -0.12489E-01  5890   0.186E-01    0.338E-01
RMM:   3    -0.231607115400E+04   -0.23756E-03   -0.12283E-02  5501   0.739E-02    0.222E-01
RMM:   4    -0.231607074717E+04    0.40682E-03   -0.12653E-03  4746   0.173E-02    0.816E-02
RMM:   5    -0.231607070956E+04    0.37611E-04   -0.25665E-04  3951   0.110E-02    0.814E-02
RMM:   6    -0.231607065657E+04    0.52991E-04   -0.18326E-04  3571   0.897E-03    0.493E-02
RMM:   7    -0.231607063568E+04    0.20891E-04   -0.41791E-05  2958   0.666E-03    0.104E-02
RMM:   8    -0.231607063539E+04    0.28682E-06   -0.87550E-06  2860   0.402E-03
  79 F= -.23369126E+04 E0= -.23369126E+04  d E =-.752540E-02  mag=     6.0000
       N       E                     dE             d eps       ncg     rms          rms(c)
DAV:   1    -0.231606229394E+04    0.83417E-02   -0.10076E+00  4448   0.858E-01    0.313E-01
RMM:   2    -0.231607331061E+04   -0.11017E-01   -0.11442E-01  5973   0.179E-01    0.299E-01
RMM:   3    -0.231607368826E+04   -0.37764E-03   -0.11194E-02  5551   0.678E-02    0.213E-01
RMM:   4    -0.231607330442E+04    0.38383E-03   -0.11548E-03  4651   0.166E-02    0.787E-02
[...]
DAV:   1    -0.231614764987E+04    0.13821E-01   -0.12441E+00  4448   0.825E-01    0.334E-01
RMM:   2    -0.231616173862E+04   -0.14089E-01   -0.14884E-01  5901   0.190E-01    0.253E-01
RMM:   3    -0.231616286857E+04   -0.11299E-02   -0.16018E-02  5291   0.736E-02    0.225E-01
RMM:   4    -0.231616247454E+04    0.39403E-03   -0.14803E-03  4127   0.167E-02    0.933E-02
RMM:   5    -0.231616242876E+04    0.45773E-04   -0.32992E-04  3655   0.107E-02    0.822E-02
RMM:   6    -0.231616240991E+04    0.18857E-04   -0.21383E-04  3158   0.906E-03    0.660E-02
RMM:   7    -0.231616237383E+04    0.36082E-04   -0.51414E-05  2945   0.640E-03    0.145E-02
RMM:   8    -0.231616237195E+04    0.18764E-05   -0.98151E-06  2886   0.362E-03
 121 F= -.23369997E+04 E0= -.23369997E+04  d E =-.238294E-02  mag=     6.0000
       N       E                     dE             d eps       ncg     rms          rms(c)
DAV:   1    -0.231616051949E+04    0.18543E-02   -0.26890E-01  4504   0.382E-01    0.152E-01
RMM:   2    -0.231616342669E+04   -0.29072E-02   -0.30748E-02  6010   0.865E-02    0.113E-01
RMM:   3    -0.231616365435E+04   -0.22766E-03   -0.31330E-03  3944   0.325E-02    0.105E-01
RMM:   4    -0.231616356994E+04    0.84409E-04   -0.30624E-04  3018   0.855E-03    0.417E-02
RMM:   5    -0.231616355434E+04    0.15594E-04   -0.69172E-05  2931   0.539E-03    0.245E-02
RMM:   6    -0.231616356109E+04   -0.67438E-05   -0.36014E-05  2895   0.469E-03
 122 F= -.23370009E+04 E0= -.23370009E+04  d E =-.116160E-02  mag=     6.0000
       N       E                     dE             d eps       ncg     rms          rms(c)
DAV:   1    -0.231615973680E+04    0.38175E-02   -0.37400E-01  4448   0.450E-01    0.179E-01
RMM:   2    -0.231616372523E+04   -0.39884E-02   -0.42370E-02  5941   0.101E-01    0.127E-01
RMM:   3    -0.231616408764E+04   -0.36242E-03   -0.47348E-03  4406   0.407E-02    0.121E-01
RMM:   4    -0.231616397674E+04    0.11090E-03   -0.43140E-04  3039   0.964E-03    0.517E-02
RMM:   5    -0.231616396292E+04    0.13822E-04   -0.98142E-05  2964   0.612E-03    0.433E-02
RMM:   6    -0.231616395990E+04    0.30167E-05   -0.60777E-05  2929   0.560E-03
 123 F= -.23370013E+04 E0= -.23370013E+04  d E =-.153109E-02  mag=     6.0000
       N       E                     dE             d eps       ncg     rms          rms(c)
DAV:   1    -0.231616408993E+04   -0.12701E-03   -0.83389E-02  4592   0.238E-01    0.919E-02
RMM:   2    -0.231616486643E+04   -0.77650E-03   -0.84958E-03  5945   0.518E-02    0.536E-02
RMM:   3    -0.231616494336E+04   -0.76929E-04   -0.96310E-04  3430   0.217E-02    0.590E-02
RMM:   4    -0.231616491748E+04    0.25875E-04   -0.92964E-05  2928   0.586E-03    0.275E-02
RMM:   5    -0.231616491287E+04    0.46153E-05   -0.29971E-05  2869   0.411E-03
 124 F= -.23370022E+04 E0= -.23370022E+04  d E =-.903760E-03  mag=     6.0000
       N       E                     dE             d eps       ncg     rms          rms(c)
DAV:   1    -0.231616260293E+04    0.23146E-02   -0.31856E-01  4448   0.464E-01    0.180E-01
RMM:   2    -0.231616563060E+04   -0.30277E-02   -0.32528E-02  5962   0.101E-01    0.133E-01
RMM:   3    -0.231616584811E+04   -0.21751E-03   -0.33594E-03  4590   0.402E-02    0.133E-01
RMM:   4    -0.231616568735E+04    0.16076E-03   -0.34937E-04  3409   0.105E-02    0.462E-02
RMM:   5    -0.231616567181E+04    0.15536E-04   -0.12190E-04  3570   0.797E-03    0.420E-02
RMM:   6    -0.231616566621E+04    0.56035E-05   -0.60562E-05  2909   0.658E-03
 125 F= -.23370028E+04 E0= -.23370028E+04  d E =-.156299E-02  mag=     6.0000
       N       E                     dE             d eps       ncg     rms          rms(c)
DAV:   1    -0.231616579490E+04   -0.12309E-03   -0.62247E-02  4608   0.223E-01    0.813E-02
RMM:   2    -0.231616638458E+04   -0.58968E-03   -0.63203E-03  6066   0.471E-02    0.500E-02
RMM:   3    -0.231616642851E+04   -0.43930E-04   -0.62354E-04  3312   0.174E-02    0.509E-02
RMM:   4    -0.231616641117E+04    0.17345E-04   -0.68163E-05  2909   0.550E-03    0.236E-02
RMM:   5    -0.231616640589E+04    0.52783E-05   -0.21451E-05  2879   0.396E-03
 126 F= -.23370036E+04 E0= -.23370036E+04  d E =-.748867E-03  mag=     6.0000
       N       E                     dE             d eps       ncg     rms          rms(c)
DAV:   1    -0.231616466763E+04    0.17435E-02   -0.23061E-01  4464   0.429E-01    0.155E-01
RMM:   2    -0.231616681532E+04   -0.21477E-02   -0.22944E-02  5910   0.878E-02    0.978E-02
RMM:   3    -0.231616697748E+04   -0.16216E-03   -0.23028E-03  4601   0.347E-02    0.992E-02
RMM:   4    -0.231616690387E+04    0.73603E-04   -0.24870E-04  3073   0.899E-03    0.445E-02
RMM:   5    -0.231616688198E+04    0.21899E-04   -0.79211E-05  3143   0.723E-03    0.213E-02
RMM:   6    -0.231616687941E+04    0.25700E-05   -0.28236E-05  2918   0.560E-03
 127 F= -.23370041E+04 E0= -.23370041E+04  d E =-.124098E-02  mag=     6.0000
       N       E                     dE             d eps       ncg     rms          rms(c)
DAV:   1    -0.231616668784E+04    0.19414E-03   -0.81018E-02  4512   0.256E-01    0.916E-02
RMM:   2    -0.231616745384E+04   -0.76600E-03   -0.81774E-03  6146   0.522E-02    0.745E-02
RMM:   3    -0.231616749309E+04   -0.39254E-04   -0.82067E-04  3509   0.188E-02    0.641E-02
RMM:   4    -0.231616745638E+04    0.36711E-04   -0.91553E-05  2921   0.599E-03    0.246E-02
RMM:   5    -0.231616744931E+04    0.70729E-05   -0.31142E-05  2908   0.428E-03
 128 F= -.23370047E+04 E0= -.23370047E+04  d E =-.649295E-03  mag=     6.0000
       N       E                     dE             d eps       ncg     rms          rms(c)
DAV:   1    -0.231616695481E+04    0.50157E-03   -0.61699E-02  4576   0.223E-01    0.791E-02
RMM:   2    -0.231616752630E+04   -0.57149E-03   -0.62200E-03  6158   0.459E-02    0.525E-02
RMM:   3    -0.231616756651E+04   -0.40210E-04   -0.62003E-04  3293   0.166E-02    0.487E-02
RMM:   4    -0.231616754689E+04    0.19620E-04   -0.70768E-05  2922   0.553E-03    0.237E-02
RMM:   5    -0.231616754082E+04    0.60650E-05   -0.22873E-05  2891   0.372E-03
 129 F= -.23370049E+04 E0= -.23370049E+04  d E =-.810730E-03  mag=     6.0000
       N       E                     dE             d eps       ncg     rms          rms(c)
DAV:   1    -0.231616715658E+04    0.39031E-03   -0.95461E-02  4464   0.288E-01    0.988E-02
RMM:   2    -0.231616818049E+04   -0.10239E-02   -0.10471E-02  6096   0.597E-02    0.954E-02
RMM:   3    -0.231616819941E+04   -0.18924E-04   -0.96190E-04  3737   0.216E-02    0.702E-02
RMM:   4    -0.231616815854E+04    0.40873E-04   -0.10796E-04  2932   0.662E-03    0.271E-02
RMM:   5    -0.231616815424E+04    0.42984E-05   -0.36603E-05  2926   0.480E-03
 130 F= -.23370057E+04 E0= -.23370057E+04  d E =-.790491E-03  mag=     6.0000
       N       E                     dE             d eps       ncg     rms          rms(c)
DAV:   1    -0.231616673651E+04    0.14220E-02   -0.14410E-01  4464   0.354E-01    0.121E-01
RMM:   2    -0.231616825459E+04   -0.15181E-02   -0.15628E-02  6106   0.734E-02    0.111E-01
RMM:   3    -0.231616829346E+04   -0.38872E-04   -0.14476E-03  4215   0.272E-02    0.807E-02
RMM:   4    -0.231616823613E+04    0.57330E-04   -0.16217E-04  3000   0.772E-03    0.342E-02
RMM:   5    -0.231616822152E+04    0.14607E-04   -0.53120E-05  3066   0.611E-03    0.143E-02
RMM:   6    -0.231616822344E+04   -0.19190E-05   -0.16620E-05  2903   0.499E-03
 131 F= -.23370060E+04 E0= -.23370060E+04  d E =-.107800E-02  mag=     6.0000
       N       E                     dE             d eps       ncg     rms          rms(c)
DAV:   1    -0.231616761891E+04    0.60261E-03   -0.11383E-01  4464   0.322E-01    0.108E-01
RMM:   2    -0.231616884599E+04   -0.12271E-02   -0.12703E-02  5991   0.652E-02    0.930E-02
RMM:   3    -0.231616889987E+04   -0.53880E-04   -0.11820E-03  3983   0.251E-02    0.763E-02
RMM:   4    -0.231616885128E+04    0.48588E-04   -0.12981E-04  2997   0.669E-03    0.300E-02
RMM:   5    -0.231616884637E+04    0.49151E-05   -0.41940E-05  2929   0.483E-03
 132 F= -.23370067E+04 E0= -.23370067E+04  d E =-.729602E-03  mag=     6.0000
       N       E                     dE             d eps       ncg     rms          rms(c)
DAV:   1    -0.231616673900E+04    0.21123E-02   -0.20944E-01  4448   0.437E-01    0.147E-01
RMM:   2    -0.231616903064E+04   -0.22916E-02   -0.23483E-02  6089   0.895E-02    0.140E-01
RMM:   3    -0.231616908227E+04   -0.51622E-04   -0.22165E-03  4765   0.334E-02    0.968E-02
RMM:   4    -0.231616899946E+04    0.82807E-04   -0.23222E-04  3075   0.858E-03    0.403E-02
RMM:   5    -0.231616897990E+04    0.19557E-04   -0.72024E-05  3276   0.688E-03    0.162E-02
RMM:   6    -0.231616898036E+04   -0.46269E-06   -0.16832E-05  2888   0.532E-03
 133 F= -.23370070E+04 E0= -.23370070E+04  d E =-.100952E-02  mag=     6.0000
       N       E                     dE             d eps       ncg     rms          rms(c)
DAV:   1    -0.231616863009E+04    0.34981E-03   -0.10426E-01  4536   0.313E-01    0.102E-01
RMM:   2    -0.231616967924E+04   -0.10491E-02   -0.10655E-02  5991   0.625E-02    0.990E-02
RMM:   3    -0.231616969408E+04   -0.14845E-04   -0.94398E-04  3863   0.228E-02    0.694E-02
RMM:   4    -0.231616965225E+04    0.41839E-04   -0.10573E-04  2967   0.654E-03    0.278E-02
RMM:   5    -0.231616964515E+04    0.70993E-05   -0.36655E-05  2934   0.499E-03
 134 F= -.23370077E+04 E0= -.23370077E+04  d E =-.694012E-03  mag=     6.0000
       N       E                     dE             d eps       ncg     rms          rms(c)
DAV:   1    -0.231616852449E+04    0.11278E-02   -0.13586E-01  4464   0.358E-01    0.116E-01
RMM:   2    -0.231616988167E+04   -0.13572E-02   -0.13887E-02  6125   0.725E-02    0.109E-01
RMM:   3    -0.231616991312E+04   -0.31448E-04   -0.12288E-03  4168   0.254E-02    0.780E-02
RMM:   4    -0.231616985940E+04    0.53713E-04   -0.13946E-04  3009   0.737E-03    0.329E-02
RMM:   5    -0.231616984819E+04    0.11215E-04   -0.44678E-05  2993   0.579E-03    0.132E-02
RMM:   6    -0.231616984945E+04   -0.12593E-05   -0.13623E-05  2883   0.462E-03
 135 F= -.23370079E+04 E0= -.23370079E+04  d E =-.932123E-03  mag=     6.0000
       N       E                     dE             d eps       ncg     rms          rms(c)
DAV:   1    -0.231616977026E+04    0.77928E-04   -0.11593E-01  4472   0.333E-01    0.108E-01
RMM:   2    -0.231617069056E+04   -0.92030E-03   -0.95717E-03  5750   0.632E-02    0.102E-01
RMM:   3    -0.231617068890E+04    0.16584E-05   -0.84012E-04  3973   0.242E-02    0.736E-02
RMM:   4    -0.231617063588E+04    0.53022E-04   -0.10197E-04  2999   0.692E-03    0.288E-02
RMM:   5    -0.231617062649E+04    0.93823E-05   -0.46426E-05  3034   0.570E-03
 136 F= -.23370086E+04 E0= -.23370086E+04  d E =-.722777E-03  mag=     6.0000
       N       E                     dE             d eps       ncg     rms          rms(c)
DAV:   1    -0.231617042132E+04    0.21456E-03   -0.44260E-02  4624   0.206E-01    0.668E-02
RMM:   2    -0.231617077331E+04   -0.35199E-03   -0.36977E-03  6100   0.416E-02    0.580E-02
RMM:   3    -0.231617078000E+04   -0.66931E-05   -0.35796E-04  3237   0.144E-02    0.463E-02
RMM:   4    -0.231617075902E+04    0.20977E-04   -0.40557E-05  2928   0.505E-03    0.185E-02
RMM:   5    -0.231617075931E+04   -0.28404E-06   -0.20985E-05  2913   0.370E-03
 137 F= -.23370087E+04 E0= -.23370087E+04  d E =-.821991E-03  mag=     6.0000
       N       E                     dE             d eps       ncg     rms          rms(c)
DAV:   1    -0.231617066113E+04    0.97892E-04   -0.13556E-01  4464   0.364E-01    0.114E-01
RMM:   2    -0.231617161668E+04   -0.95555E-03   -0.97400E-03  5772   0.665E-02    0.109E-01
RMM:   3    -0.231617161229E+04    0.43938E-05   -0.89827E-04  4084   0.261E-02    0.767E-02
RMM:   4    -0.231617155455E+04    0.57736E-04   -0.10343E-04  2991   0.730E-03    0.329E-02
RMM:   5    -0.231617155819E+04   -0.36421E-05   -0.52874E-05  2941   0.584E-03
 138 F= -.23370095E+04 E0= -.23370095E+04  d E =-.787807E-03  mag=     6.0000
       N       E                     dE             d eps       ncg     rms          rms(c)
DAV:   1    -0.231617062729E+04    0.92726E-03   -0.17099E-01  4464   0.409E-01    0.127E-01
RMM:   2    -0.231617183105E+04   -0.12038E-02   -0.12432E-02  5849   0.751E-02    0.113E-01
RMM:   3    -0.231617185012E+04   -0.19071E-04   -0.11948E-03  4216   0.299E-02    0.872E-02
RMM:   4    -0.231617177198E+04    0.78141E-04   -0.12772E-04  3042   0.823E-03    0.342E-02
RMM:   5    -0.231617175998E+04    0.12002E-04   -0.65115E-05  3380   0.676E-03    0.146E-02
RMM:   6    -0.231617176228E+04   -0.23067E-05   -0.17207E-05  2873   0.534E-03
 139 F= -.23370097E+04 E0= -.23370097E+04  d E =-.979512E-03  mag=     6.0000
       N       E                     dE             d eps       ncg     rms          rms(c)
DAV:   1    -0.231617185027E+04   -0.90297E-04   -0.98518E-02  4464   0.307E-01    0.921E-02
RMM:   2    -0.231617252350E+04   -0.67323E-03   -0.68231E-03  5681   0.546E-02    0.861E-02
RMM:   3    -0.231617251963E+04    0.38728E-05   -0.57675E-04  3644   0.206E-02    0.604E-02
RMM:   4    -0.231617248574E+04    0.33886E-04   -0.69678E-05  2936   0.604E-03    0.255E-02
RMM:   5    -0.231617248012E+04    0.56182E-05   -0.30348E-05  2892   0.491E-03
 140 F= -.23370104E+04 E0= -.23370104E+04  d E =-.723458E-03  mag=     6.0000
       N       E                     dE             d eps       ncg     rms          rms(c)
DAV:   1    -0.231616978013E+04    0.27056E-02   -0.52620E-01  4464   0.709E-01    0.211E-01
RMM:   2    -0.231617336038E+04   -0.35802E-02   -0.36269E-02  5733   0.127E-01    0.200E-01
RMM:   3    -0.231617333553E+04    0.24845E-04   -0.31442E-03  5024   0.477E-02    0.137E-01
RMM:   4    -0.231617314782E+04    0.18771E-03   -0.36756E-04  4280   0.120E-02    0.588E-02
RMM:   5    -0.231617312699E+04    0.20835E-04   -0.16567E-04  3987   0.102E-02    0.423E-02
RMM:   6    -0.231617312671E+04    0.27491E-06   -0.70458E-05  2996   0.689E-03
 141 F= -.23370111E+04 E0= -.23370111E+04  d E =-.138366E-02  mag=     6.0000
       N       E                     dE             d eps       ncg     rms          rms(c)
DAV:   1    -0.231617299142E+04    0.13557E-03   -0.18603E-01  4464   0.414E-01    0.129E-01
RMM:   2    -0.231617428022E+04   -0.12888E-02   -0.13289E-02  5818   0.753E-02    0.117E-01
RMM:   3    -0.231617429327E+04   -0.13044E-04   -0.11880E-03  4204   0.285E-02    0.886E-02
RMM:   4    -0.231617422135E+04    0.71917E-04   -0.14445E-04  3049   0.795E-03    0.388E-02
RMM:   5    -0.231617422557E+04   -0.42170E-05   -0.65505E-05  2960   0.636E-03
 142 F= -.23370122E+04 E0= -.23370122E+04  d E =-.114651E-02  mag=     6.0000
       N       E                     dE             d eps       ncg     rms          rms(c)
DAV:   1    -0.231617170303E+04    0.25183E-02   -0.45409E-01  4464   0.646E-01    0.200E-01
RMM:   2    -0.231617483715E+04   -0.31341E-02   -0.32244E-02  5783   0.117E-01    0.186E-01
RMM:   3    -0.231617485540E+04   -0.18254E-04   -0.30776E-03  4977   0.470E-02    0.131E-01
RMM:   4    -0.231617468422E+04    0.17118E-03   -0.34996E-04  4093   0.116E-02    0.557E-02
RMM:   5    -0.231617465285E+04    0.31377E-04   -0.14754E-04  4058   0.977E-03    0.182E-02
RMM:   6    -0.231617465430E+04   -0.14569E-05   -0.20500E-05  2894   0.578E-03
 143 F= -.23370127E+04 E0= -.23370127E+04  d E =-.165114E-02  mag=     6.0000
       N       E                     dE             d eps       ncg     rms          rms(c)
DAV:   1    -0.231617422480E+04    0.42805E-03   -0.16794E-01  4560   0.383E-01    0.121E-01
RMM:   2    -0.231617556071E+04   -0.13359E-02   -0.13456E-02  5888   0.704E-02    0.122E-01
RMM:   3    -0.231617554609E+04    0.14613E-04   -0.11727E-03  3997   0.259E-02    0.777E-02
RMM:   4    -0.231617549421E+04    0.51881E-04   -0.14245E-04  2999   0.721E-03    0.344E-02
RMM:   5    -0.231617549092E+04    0.32973E-05   -0.55652E-05  2996   0.583E-03
 144 F= -.23370136E+04 E0= -.23370136E+04  d E =-.865816E-03  mag=     6.0000
       N       E                     dE             d eps       ncg     rms          rms(c)
DAV:   1    -0.231617345579E+04    0.20384E-02   -0.31358E-01  4464   0.523E-01    0.164E-01
RMM:   2    -0.231617589908E+04   -0.24433E-02   -0.24927E-02  5950   0.963E-02    0.157E-01
RMM:   3    -0.231617591980E+04   -0.20722E-04   -0.23838E-03  4583   0.374E-02    0.102E-01
RMM:   4    -0.231617582137E+04    0.98438E-04   -0.25587E-04  3223   0.940E-03    0.473E-02
RMM:   5    -0.231617580571E+04    0.15660E-04   -0.10168E-04  3591   0.792E-03    0.311E-02
RMM:   6    -0.231617580861E+04   -0.29003E-05   -0.41417E-05  2926   0.609E-03
 145 F= -.23370140E+04 E0= -.23370140E+04  d E =-.122492E-02  mag=     6.0000
       N       E                     dE             d eps       ncg     rms          rms(c)
DAV:   1    -0.231617563103E+04    0.17467E-03   -0.13919E-01  4496   0.348E-01    0.120E-01
RMM:   2    -0.231617673859E+04   -0.11076E-02   -0.11460E-02  5743   0.650E-02    0.101E-01
RMM:   3    -0.231617677017E+04   -0.31586E-04   -0.11044E-03  3991   0.260E-02    0.784E-02
RMM:   4    -0.231617671011E+04    0.60067E-04   -0.12368E-04  2966   0.727E-03    0.319E-02
RMM:   5    -0.231617669859E+04    0.11520E-04   -0.49464E-05  3038   0.592E-03    0.117E-02
RMM:   6    -0.231617669953E+04   -0.94385E-06   -0.10683E-05  2871   0.455E-03
 146 F= -.23370149E+04 E0= -.23370149E+04  d E =-.928244E-03  mag=     6.0000
       N       E                     dE             d eps       ncg     rms          rms(c)
DAV:   1    -0.231617526304E+04    0.14355E-02   -0.23538E-01  4464   0.453E-01    0.156E-01
RMM:   2    -0.231617716618E+04   -0.19031E-02   -0.19412E-02  5561   0.837E-02    0.143E-01
RMM:   3    -0.231617717516E+04   -0.89809E-05   -0.18035E-03  4537   0.353E-02    0.104E-01
RMM:   4    -0.231617707137E+04    0.10379E-03   -0.21153E-04  3332   0.873E-03    0.418E-02
RMM:   5    -0.231617706374E+04    0.76302E-05   -0.84682E-05  3171   0.715E-03
 147 F= -.23370153E+04 E0= -.23370153E+04  d E =-.134214E-02  mag=     6.0000
       N       E                     dE             d eps       ncg     rms          rms(c)
DAV:   1    -0.231617719461E+04   -0.12323E-03   -0.67122E-02  4592   0.238E-01    0.892E-02
RMM:   2    -0.231617775491E+04   -0.56030E-03   -0.56650E-03  6069   0.476E-02    0.914E-02
RMM:   3    -0.231617773116E+04    0.23742E-04   -0.58855E-04  3479   0.183E-02    0.529E-02
RMM:   4    -0.231617770165E+04    0.29509E-04   -0.62677E-05  2931   0.596E-03    0.233E-02
RMM:   5    -0.231617770563E+04   -0.39789E-05   -0.33982E-05  2929   0.482E-03
 148 F= -.23370159E+04 E0= -.23370159E+04  d E =-.603575E-03  mag=     6.0000
       N       E                     dE             d eps       ncg     rms          rms(c)
DAV:   1    -0.231617733161E+04    0.37005E-03   -0.84644E-02  4464   0.266E-01    0.969E-02
RMM:   2    -0.231617800414E+04   -0.67254E-03   -0.69730E-03  6011   0.528E-02    0.872E-02
RMM:   3    -0.231617800952E+04   -0.53739E-05   -0.66182E-04  3589   0.205E-02    0.650E-02
RMM:   4    -0.231617796754E+04    0.41980E-04   -0.79455E-05  2930   0.652E-03    0.284E-02
RMM:   5    -0.231617796854E+04   -0.10073E-05   -0.40260E-05  2928   0.510E-03
 149 F= -.23370161E+04 E0= -.23370161E+04  d E =-.823889E-03  mag=     6.0000
       N       E                     dE             d eps       ncg     rms          rms(c)
DAV:   1    -0.231617782797E+04    0.13957E-03   -0.91650E-02  4464   0.263E-01    0.988E-02
RMM:   2    -0.231617855592E+04   -0.72794E-03   -0.77226E-03  6031   0.526E-02    0.860E-02
RMM:   3    -0.231617857128E+04   -0.15365E-04   -0.77313E-04  3570   0.209E-02    0.657E-02
RMM:   4    -0.231617852522E+04    0.46057E-04   -0.86933E-05  2935   0.657E-03    0.267E-02
RMM:   5    -0.231617851816E+04    0.70602E-05   -0.42797E-05  2988   0.511E-03
 150 F= -.23370166E+04 E0= -.23370166E+04  d E =-.502580E-03  mag=     6.0000
