       N       E                     dE             d eps       ncg     rms          rms(c)
DAV:   1     0.126870514234E+05    0.12687E+05   -0.82902E+05  4440   0.144E+03
DAV:   2    -0.107397166654E+04   -0.13761E+05   -0.13177E+05  5312   0.330E+02
DAV:   3    -0.247309835837E+04   -0.13991E+04   -0.13861E+04  5352   0.111E+02
DAV:   4    -0.251965156027E+04   -0.46553E+02   -0.46331E+02  6648   0.302E+01
DAV:   5    -0.252056913590E+04   -0.91758E+00   -0.91616E+00  5584   0.332E+00    0.170E+02
RMM:   6    -0.147712660027E+04    0.10434E+04   -0.19581E+03  4390   0.388E+01    0.740E+01
RMM:   7    -0.166296412921E+04   -0.18584E+03   -0.28676E+02  4995   0.139E+01    0.581E+01
RMM:   8    -0.169429082785E+04   -0.31327E+02   -0.84583E+01  5175   0.835E+00    0.429E+01
RMM:   9    -0.177589363042E+04   -0.81603E+02   -0.57304E+01  4734   0.752E+00    0.330E+01
RMM:  10    -0.190766078774E+04   -0.13177E+03   -0.58605E+01  5017   0.739E+00    0.202E+01
RMM:  11    -0.203143250517E+04   -0.12377E+03   -0.52346E+01  4925   0.596E+00    0.155E+01
RMM:  12    -0.213738768794E+04   -0.10596E+03   -0.61341E+01  4559   0.594E+00    0.118E+01
RMM:  13    -0.226862062366E+04   -0.13123E+03   -0.12568E+02  4381   0.762E+00    0.713E+00
RMM:  14    -0.230497922919E+04   -0.36359E+02   -0.38435E+01  4665   0.496E+00    0.365E+00
RMM:  15    -0.231136144535E+04   -0.63822E+01   -0.93436E+00  5020   0.235E+00    0.245E+00
RMM:  16    -0.231364696120E+04   -0.22855E+01   -0.25945E+00  4907   0.106E+00    0.197E+00
RMM:  17    -0.231485947638E+04   -0.12125E+01   -0.87644E-01  4822   0.697E-01    0.397E+00
RMM:  18    -0.231485895736E+04    0.51903E-03   -0.13491E-01  5353   0.272E-01    0.395E+00
RMM:  19    -0.231486142731E+04   -0.24700E-02   -0.16402E-02  5910   0.558E-02    0.397E+00
RMM:  20    -0.231480826138E+04    0.53166E-01   -0.31124E-01  4439   0.287E-01    0.210E+00
RMM:  21    -0.231502208095E+04   -0.21382E+00   -0.39596E-01  4545   0.364E-01    0.289E+00
RMM:  22    -0.231497884749E+04    0.43233E-01   -0.75517E-02  4669   0.186E-01    0.300E+00
RMM:  23    -0.231496231954E+04    0.16528E-01   -0.18263E-02  5437   0.652E-02    0.314E+00
RMM:  24    -0.231529901891E+04   -0.33670E+00   -0.47939E-01  4383   0.249E-01    0.209E+00
RMM:  25    -0.231549104611E+04   -0.19203E+00   -0.18495E-01  4870   0.195E-01    0.292E+00
RMM:  26    -0.231534983942E+04    0.14121E+00   -0.62651E-02  4778   0.122E-01    0.211E+00
RMM:  27    -0.231536793248E+04   -0.18093E-01   -0.15905E-02  4385   0.577E-02    0.223E+00
RMM:  28    -0.231525913280E+04    0.10880E+00   -0.32445E-01  4380   0.204E-01    0.246E+00
RMM:  29    -0.231519406380E+04    0.65069E-01   -0.79869E-02  4619   0.110E-01    0.282E+00
RMM:  30    -0.231519927322E+04   -0.52094E-02   -0.38693E-03  5034   0.290E-02    0.278E+00
RMM:  31    -0.231516094320E+04    0.38330E-01   -0.81927E-03  4435   0.368E-02    0.286E+00
RMM:  32    -0.231515563944E+04    0.53038E-02   -0.29778E-03  4359   0.255E-02    0.293E+00
RMM:  33    -0.231519023295E+04   -0.34594E-01   -0.14322E-02  4610   0.461E-02    0.306E+00
RMM:  34    -0.231527572002E+04   -0.85487E-01   -0.50195E-02  4870   0.762E-02    0.293E+00
RMM:  35    -0.231534476165E+04   -0.69042E-01   -0.97527E-02  4595   0.102E-01    0.297E+00
RMM:  36    -0.231535686093E+04   -0.12099E-01   -0.20301E-02  4285   0.549E-02    0.298E+00
RMM:  37    -0.231537837869E+04   -0.21518E-01   -0.22695E-02  4477   0.497E-02    0.294E+00
RMM:  38    -0.231542184233E+04   -0.43464E-01   -0.42532E-02  4481   0.738E-02    0.274E+00
RMM:  39    -0.231545712117E+04   -0.35279E-01   -0.24237E-02  4377   0.581E-02    0.265E+00
RMM:  40    -0.231550532930E+04   -0.48208E-01   -0.45522E-02  4417   0.738E-02    0.260E+00
RMM:  41    -0.231553521768E+04   -0.29888E-01   -0.12803E-02  4236   0.488E-02    0.255E+00
RMM:  42    -0.231554485960E+04   -0.96419E-02   -0.31391E-03  3986   0.212E-02    0.254E+00
RMM:  43    -0.231550019563E+04    0.44664E-01   -0.88754E-03  4156   0.359E-02    0.259E+00
RMM:  44    -0.231551897499E+04   -0.18779E-01   -0.18877E-02  4351   0.526E-02    0.257E+00
RMM:  45    -0.231558452026E+04   -0.65545E-01   -0.49329E-02  4394   0.824E-02    0.238E+00
RMM:  46    -0.231567281523E+04   -0.88295E-01   -0.17935E-01  4598   0.167E-01    0.216E+00
RMM:  47    -0.231558494361E+04    0.87872E-01   -0.35862E-01  4487   0.273E-01    0.227E+00
RMM:  48    -0.231533592835E+04    0.24902E+00   -0.13013E-01  4612   0.176E-01    0.251E+00
RMM:  49    -0.231558755082E+04   -0.25162E+00   -0.87551E-02  5095   0.843E-02    0.230E+00
RMM:  50    -0.231554254450E+04    0.45006E-01   -0.44055E-03  4532   0.297E-02    0.236E+00
RMM:  51    -0.231545943596E+04    0.83109E-01   -0.11309E-02  4385   0.396E-02    0.255E+00
RMM:  52    -0.231545463001E+04    0.48059E-02   -0.91257E-03  4597   0.452E-02    0.244E+00
RMM:  53    -0.231541640958E+04    0.38220E-01   -0.29737E-03  4096   0.288E-02    0.251E+00
RMM:  54    -0.231538688318E+04    0.29526E-01   -0.21641E-03  3802   0.182E-02    0.253E+00
RMM:  55    -0.231530496666E+04    0.81917E-01   -0.10201E-02  3959   0.342E-02    0.261E+00
RMM:  56    -0.231514217271E+04    0.16279E+00   -0.27742E-02  4401   0.591E-02    0.283E+00
RMM:  57    -0.231544485546E+04   -0.30268E+00   -0.89031E-02  4405   0.903E-02    0.248E+00
RMM:  58    -0.231578814724E+04   -0.34329E+00   -0.22233E-01  4537   0.154E-01    0.199E+00
RMM:  59    -0.231604758392E+04   -0.25944E+00   -0.51233E-01  4485   0.227E-01    0.147E+00
RMM:  60    -0.231609707840E+04   -0.49494E-01   -0.92974E-02  4593   0.141E-01    0.160E+00
RMM:  61    -0.231607437555E+04    0.22703E-01   -0.38378E-02  4432   0.941E-02    0.190E+00
RMM:  62    -0.231607449741E+04   -0.12186E-03   -0.31180E-03  4471   0.449E-02    0.191E+00
RMM:  63    -0.231607461648E+04   -0.11908E-03   -0.42274E-04  4089   0.909E-03    0.192E+00
RMM:  64    -0.231608336260E+04   -0.87461E-02   -0.33899E-03  4336   0.258E-02    0.210E+00
RMM:  65    -0.231608378686E+04   -0.42426E-03   -0.20605E-04  3307   0.120E-02    0.210E+00
RMM:  66    -0.231606473716E+04    0.19050E-01   -0.13171E-02  4430   0.471E-02    0.165E+00
RMM:  67    -0.231602895857E+04    0.35779E-01   -0.36198E-02  4531   0.802E-02    0.235E+00
RMM:  68    -0.231598624527E+04    0.42713E-01   -0.46263E-02  4751   0.911E-02    0.192E+00
RMM:  69    -0.231596863516E+04    0.17610E-01   -0.14648E-02  4607   0.630E-02    0.184E+00
RMM:  70    -0.231593699252E+04    0.31643E-01   -0.91018E-03  4461   0.372E-02    0.195E+00
RMM:  71    -0.231602824205E+04   -0.91250E-01   -0.12361E-01  4388   0.129E-01    0.174E+00
RMM:  72    -0.231602927762E+04   -0.10356E-02   -0.46547E-03  4703   0.485E-02    0.178E+00
RMM:  73    -0.231603539984E+04   -0.61222E-02   -0.25776E-03  4347   0.204E-02    0.171E+00
RMM:  74    -0.231602554646E+04    0.98534E-02   -0.29536E-02  4444   0.708E-02    0.156E+00
RMM:  75    -0.231597136584E+04    0.54181E-01   -0.43168E-02  4705   0.826E-02    0.161E+00
RMM:  76    -0.231595933380E+04    0.12032E-01   -0.71157E-03  4623   0.393E-02    0.157E+00
RMM:  77    -0.231589107335E+04    0.68260E-01   -0.34209E-02  4738   0.702E-02    0.164E+00
RMM:  78    -0.231569211734E+04    0.19896E+00   -0.14344E-01  4696   0.154E-01    0.187E+00
RMM:  79    -0.231557942753E+04    0.11269E+00   -0.41661E-02  4475   0.884E-02    0.200E+00
RMM:  80    -0.231563595983E+04   -0.56532E-01   -0.46484E-03  4230   0.311E-02    0.193E+00
RMM:  81    -0.231566365186E+04   -0.27692E-01   -0.48190E-03  4475   0.349E-02    0.178E+00
RMM:  82    -0.231587621424E+04   -0.21256E+00   -0.11141E-01  4446   0.107E-01    0.157E+00
RMM:  83    -0.231608804251E+04   -0.21183E+00   -0.43283E-01  4636   0.180E-01    0.126E+00
RMM:  84    -0.231610530240E+04   -0.17260E-01   -0.41273E-02  4622   0.940E-02    0.123E+00
RMM:  85    -0.231608807579E+04    0.17227E-01   -0.11118E-02  4390   0.369E-02    0.137E+00
RMM:  86    -0.231611757956E+04   -0.29504E-01   -0.46500E-02  4576   0.866E-02    0.111E+00
RMM:  87    -0.231612553346E+04   -0.79539E-02   -0.66800E-03  4593   0.541E-02    0.111E+00
RMM:  88    -0.231612523529E+04    0.29817E-03   -0.33244E-03  4480   0.309E-02    0.114E+00
RMM:  89    -0.231613675111E+04   -0.11516E-01   -0.58213E-03  4954   0.327E-02    0.114E+00
RMM:  90    -0.231613641905E+04    0.33206E-03   -0.38661E-04  3498   0.150E-02    0.114E+00
RMM:  91    -0.231614112113E+04   -0.47021E-02   -0.10711E-01  4520   0.122E-01    0.142E+00
RMM:  92    -0.231614129774E+04   -0.17661E-03   -0.89463E-03  4148   0.647E-02    0.148E+00
RMM:  93    -0.231614913780E+04   -0.78401E-02   -0.19875E-03  4087   0.202E-02    0.133E+00
RMM:  94    -0.231615854490E+04   -0.94071E-02   -0.25264E-03  4217   0.244E-02    0.122E+00
RMM:  95    -0.231616766481E+04   -0.91199E-02   -0.36935E-03  4157   0.282E-02    0.118E+00
RMM:  96    -0.231616924942E+04   -0.15846E-02   -0.56239E-03  4560   0.313E-02    0.130E+00
RMM:  97    -0.231617570363E+04   -0.64542E-02   -0.23779E-03  4777   0.243E-02    0.110E+00
RMM:  98    -0.231618000544E+04   -0.43018E-02   -0.94997E-03  4257   0.370E-02    0.904E-01
RMM:  99    -0.231618061335E+04   -0.60791E-03   -0.11875E-03  3817   0.214E-02    0.891E-01
RMM: 100    -0.231618250283E+04   -0.18895E-02   -0.15103E-03  4053   0.155E-02    0.852E-01
RMM: 101    -0.231618242898E+04    0.73856E-04   -0.15843E-02  4418   0.479E-02    0.110E+00
RMM: 102    -0.231618534056E+04   -0.29116E-02   -0.11789E-03  4040   0.229E-02    0.976E-01
RMM: 103    -0.231618566401E+04   -0.32345E-03   -0.18766E-04  3168   0.622E-03    0.965E-01
RMM: 104    -0.231618508062E+04    0.58338E-03   -0.73876E-05  2993   0.508E-03    0.988E-01
RMM: 105    -0.231618449323E+04    0.58740E-03   -0.15264E-04  3109   0.520E-03    0.101E+00
RMM: 106    -0.231616557226E+04    0.18921E-01   -0.25180E-02  4471   0.636E-02    0.131E+00
RMM: 107    -0.231617066987E+04   -0.50976E-02   -0.15454E-03  4408   0.322E-02    0.119E+00
RMM: 108    -0.231617962781E+04   -0.89579E-02   -0.62413E-03  4348   0.315E-02    0.885E-01
RMM: 109    -0.231618606234E+04   -0.64345E-02   -0.42547E-03  4122   0.307E-02    0.685E-01
RMM: 110    -0.231619320426E+04   -0.71419E-02   -0.68532E-03  4388   0.334E-02    0.518E-01
RMM: 111    -0.231619619568E+04   -0.29914E-02   -0.43483E-03  3963   0.294E-02    0.486E-01
RMM: 112    -0.231619571466E+04    0.48102E-03   -0.37100E-03  4509   0.230E-02    0.449E-01
RMM: 113    -0.231619587087E+04   -0.15621E-03   -0.14013E-03  3698   0.163E-02    0.460E-01
RMM: 114    -0.231619484785E+04    0.10230E-02   -0.19006E-03  3864   0.163E-02    0.488E-01
RMM: 115    -0.231619580275E+04   -0.95490E-03   -0.70963E-04  3462   0.124E-02    0.469E-01
RMM: 116    -0.231619508147E+04    0.72128E-03   -0.32200E-04  3103   0.724E-03    0.479E-01
RMM: 117    -0.231619507313E+04    0.83382E-05   -0.73775E-05  2890   0.485E-03
   1 F= -.23366685E+04 E0= -.23366685E+04  d E =-.233667E+04  mag=     3.9797
       N       E                     dE             d eps       ncg     rms          rms(c)
DAV:   1    -0.231628567082E+04   -0.90589E-01   -0.47068E+01  4496   0.429E+00    0.199E+00
RMM:   2    -0.231700224232E+04   -0.71657E+00   -0.67568E+00  6302   0.110E+00    0.265E+00
RMM:   3    -0.231694131387E+04    0.60928E-01   -0.54026E-01  5618   0.314E-01    0.103E+00
RMM:   4    -0.231693841517E+04    0.28987E-02   -0.79296E-02  5253   0.856E-02    0.648E-01
RMM:   5    -0.231693519378E+04    0.32214E-02   -0.18679E-02  5359   0.645E-02    0.458E-01
RMM:   6    -0.231693330486E+04    0.18889E-02   -0.76681E-03  5584   0.424E-02    0.139E-01
RMM:   7    -0.231693339731E+04   -0.92447E-04   -0.75348E-04  4174   0.173E-02    0.750E-02
RMM:   8    -0.231693358238E+04   -0.18507E-03   -0.27897E-04  3941   0.984E-03    0.443E-02
RMM:   9    -0.231693371471E+04   -0.13233E-03   -0.10689E-04  3520   0.752E-03    0.284E-02
RMM:  10    -0.231693378223E+04   -0.67524E-04   -0.47778E-05  3023   0.548E-03    0.185E-02
RMM:  11    -0.231693382587E+04   -0.43637E-04   -0.34753E-05  2941   0.499E-03    0.123E-02
RMM:  12    -0.231693383886E+04   -0.12997E-04   -0.15469E-05  2844   0.420E-03    0.543E-03
RMM:  13    -0.231693384479E+04   -0.59275E-05   -0.76942E-06  2805   0.282E-03
   2 F= -.23374057E+04 E0= -.23374057E+04  d E =-.737171E+00  mag=     3.9996
       N       E                     dE             d eps       ncg     rms          rms(c)
DAV:   1    -0.231679772727E+04    0.13611E+00   -0.18635E+01  4488   0.273E+00    0.118E+00
RMM:   2    -0.231706847831E+04   -0.27075E+00   -0.26582E+00  6318   0.720E-01    0.127E+00
RMM:   3    -0.231706358802E+04    0.48903E-02   -0.21438E-01  5596   0.197E-01    0.691E-01
RMM:   4    -0.231706239422E+04    0.11938E-02   -0.29328E-02  5196   0.520E-02    0.403E-01
RMM:   5    -0.231706076067E+04    0.16336E-02   -0.74504E-03  5305   0.404E-02    0.209E-01
RMM:   6    -0.231706045679E+04    0.30388E-03   -0.19449E-03  5044   0.257E-02    0.669E-02
RMM:   7    -0.231706045836E+04   -0.15719E-05   -0.29759E-04  3583   0.968E-03    0.380E-02
RMM:   8    -0.231706047008E+04   -0.11711E-04   -0.77742E-05  3079   0.612E-03    0.227E-02
RMM:   9    -0.231706048817E+04   -0.18099E-04   -0.40947E-05  2982   0.523E-03    0.107E-02
RMM:  10    -0.231706050076E+04   -0.12590E-04   -0.13291E-05  2858   0.398E-03    0.749E-03
RMM:  11    -0.231706051173E+04   -0.10966E-04   -0.77500E-06  2819   0.298E-03    0.515E-03
RMM:  12    -0.231706051754E+04   -0.58060E-05   -0.43733E-06  2792   0.279E-03
   3 F= -.23375319E+04 E0= -.23375319E+04  d E =-.863388E+00  mag=     4.0000
       N       E                     dE             d eps       ncg     rms          rms(c)
DAV:   1    -0.231700459229E+04    0.55919E-01   -0.24878E+01  4444   0.419E+00    0.208E+00
RMM:   2    -0.231750409074E+04   -0.49950E+00   -0.51115E+00  6287   0.117E+00    0.222E+00
RMM:   3    -0.231747299789E+04    0.31093E-01   -0.42716E-01  5542   0.325E-01    0.121E+00
RMM:   4    -0.231746318934E+04    0.98085E-02   -0.45696E-02  5432   0.808E-02    0.481E-01
RMM:   5    -0.231746087419E+04    0.23151E-02   -0.10931E-02  5191   0.541E-02    0.293E-01
RMM:   6    -0.231746002865E+04    0.84554E-03   -0.36648E-03  5410   0.390E-02    0.922E-02
RMM:   7    -0.231745996812E+04    0.60538E-04   -0.51210E-04  4555   0.150E-02    0.544E-02
RMM:   8    -0.231745994372E+04    0.24401E-04   -0.15979E-04  3590   0.740E-03    0.273E-02
RMM:   9    -0.231745993662E+04    0.70960E-05   -0.49673E-05  3077   0.610E-03
   4 F= -.23379288E+04 E0= -.23379288E+04  d E =-.396856E+00  mag=     4.0000
       N       E                     dE             d eps       ncg     rms          rms(c)
DAV:   1    -0.231727816635E+04    0.18178E+00   -0.15900E+01  4616   0.335E+00    0.165E+00
RMM:   2    -0.231758863391E+04   -0.31047E+00   -0.32130E+00  6244   0.922E-01    0.169E+00
RMM:   3    -0.231757575924E+04    0.12875E-01   -0.26862E-01  5634   0.261E-01    0.103E+00
RMM:   4    -0.231756881627E+04    0.69430E-02   -0.29648E-02  5334   0.647E-02    0.388E-01
RMM:   5    -0.231756729497E+04    0.15213E-02   -0.80191E-03  5194   0.460E-02    0.236E-01
RMM:   6    -0.231756674631E+04    0.54866E-03   -0.22580E-03  5287   0.309E-02    0.784E-02
RMM:   7    -0.231756671275E+04    0.33560E-04   -0.35653E-04  4150   0.120E-02    0.494E-02
RMM:   8    -0.231756669593E+04    0.16822E-04   -0.10815E-04  3254   0.682E-03    0.228E-02
RMM:   9    -0.231756669203E+04    0.38956E-05   -0.33215E-05  2931   0.526E-03
   5 F= -.23380336E+04 E0= -.23380336E+04  d E =-.501635E+00  mag=     4.0000
       N       E                     dE             d eps       ncg     rms          rms(c)
DAV:   1    -0.231782491620E+04   -0.25822E+00   -0.16364E+01  4484   0.304E+00    0.144E+00
RMM:   2    -0.231789287581E+04   -0.67960E-01   -0.77373E-01  4986   0.672E-01    0.167E+00
RMM:   3    -0.231787169467E+04    0.21181E-01   -0.10143E-01  5501   0.220E-01    0.984E-01
RMM:   4    -0.231786207253E+04    0.96221E-02   -0.15963E-02  4895   0.769E-02    0.378E-01
RMM:   5    -0.231786098520E+04    0.10873E-02   -0.94628E-03  5293   0.566E-02    0.217E-01
RMM:   6    -0.231786041726E+04    0.56793E-03   -0.12667E-03  5211   0.298E-02    0.590E-02
RMM:   7    -0.231786036864E+04    0.48623E-04   -0.27063E-04  4149   0.987E-03    0.423E-02
RMM:   8    -0.231786034313E+04    0.25511E-04   -0.65954E-05  3217   0.769E-03    0.234E-02
RMM:   9    -0.231786034072E+04    0.24082E-05   -0.49690E-05  3267   0.603E-03
   6 F= -.23383261E+04 E0= -.23383261E+04  d E =-.292525E+00  mag=     4.0000
       N       E                     dE             d eps       ncg     rms          rms(c)
DAV:   1    -0.231786849141E+04   -0.81483E-02   -0.69728E-01  4864   0.627E-01    0.297E-01
RMM:   2    -0.231787125449E+04   -0.27631E-02   -0.33441E-02  5027   0.137E-01    0.335E-01
RMM:   3    -0.231787042499E+04    0.82950E-03   -0.43733E-03  5270   0.459E-02    0.211E-01
RMM:   4    -0.231786998534E+04    0.43966E-03   -0.73810E-04  4354   0.168E-02    0.829E-02
RMM:   5    -0.231786992624E+04    0.59095E-04   -0.43772E-04  4405   0.127E-02    0.473E-02
RMM:   6    -0.231786990246E+04    0.23780E-04   -0.60058E-05  3052   0.821E-03    0.157E-02
RMM:   7    -0.231786990079E+04    0.16724E-05   -0.15655E-05  2876   0.376E-03
   7 F= -.23383355E+04 E0= -.23383355E+04  d E =-.301892E+00  mag=     4.0000
       N       E                     dE             d eps       ncg     rms          rms(c)
DAV:   1    -0.231791045079E+04   -0.40548E-01   -0.28450E+00  4472   0.137E+00    0.538E-01
RMM:   2    -0.231793687129E+04   -0.26421E-01   -0.29750E-01  5945   0.251E-01    0.278E-01
RMM:   3    -0.231793920537E+04   -0.23341E-02   -0.33582E-02  5294   0.103E-01    0.263E-01
RMM:   4    -0.231793908545E+04    0.11992E-03   -0.35463E-03  5070   0.239E-02    0.198E-01
RMM:   5    -0.231793867229E+04    0.41316E-03   -0.10191E-03  4596   0.174E-02    0.661E-02
RMM:   6    -0.231793866531E+04    0.69739E-05   -0.24973E-04  4079   0.121E-02    0.227E-02
RMM:   7    -0.231793866083E+04    0.44793E-05   -0.36976E-05  2984   0.524E-03
   8 F= -.23384050E+04 E0= -.23384050E+04  d E =-.695874E-01  mag=     4.0000
       N       E                     dE             d eps       ncg     rms          rms(c)
DAV:   1    -0.231792003360E+04    0.18632E-01   -0.50047E+00  4432   0.180E+00    0.718E-01
RMM:   2    -0.231796667174E+04   -0.46638E-01   -0.52619E-01  5931   0.331E-01    0.376E-01
RMM:   3    -0.231797099706E+04   -0.43253E-02   -0.61367E-02  5295   0.140E-01    0.362E-01
RMM:   4    -0.231797066809E+04    0.32896E-03   -0.62913E-03  5400   0.319E-02    0.258E-01
RMM:   5    -0.231796996102E+04    0.70707E-03   -0.16589E-03  4733   0.221E-02    0.867E-02
RMM:   6    -0.231796995198E+04    0.90453E-05   -0.39452E-04  4318   0.154E-02    0.276E-02
RMM:   7    -0.231796994780E+04    0.41756E-05   -0.61239E-05  3248   0.606E-03
   9 F= -.23384374E+04 E0= -.23384374E+04  d E =-.101974E+00  mag=     4.0000
       N       E                     dE             d eps       ncg     rms          rms(c)
DAV:   1    -0.231799415813E+04   -0.24206E-01   -0.20090E+00  4536   0.123E+00    0.538E-01
RMM:   2    -0.231801502165E+04   -0.20864E-01   -0.24205E-01  5934   0.246E-01    0.304E-01
RMM:   3    -0.231801696400E+04   -0.19423E-02   -0.27261E-02  5452   0.985E-02    0.348E-01
RMM:   4    -0.231801615868E+04    0.80532E-03   -0.32064E-03  5375   0.254E-02    0.160E-01
RMM:   5    -0.231801590146E+04    0.25722E-03   -0.99139E-04  4719   0.198E-02    0.554E-02
RMM:   6    -0.231801588359E+04    0.17872E-04   -0.10962E-04  4005   0.112E-02    0.211E-02
RMM:   7    -0.231801587650E+04    0.70898E-05   -0.35839E-05  3155   0.441E-03
  10 F= -.23384844E+04 E0= -.23384844E+04  d E =-.469520E-01  mag=     4.0000
       N       E                     dE             d eps       ncg     rms          rms(c)
DAV:   1    -0.231801348602E+04    0.23976E-02   -0.11850E+00  4536   0.951E-01    0.411E-01
RMM:   2    -0.231802590054E+04   -0.12415E-01   -0.14344E-01  5931   0.192E-01    0.237E-01
RMM:   3    -0.231802703008E+04   -0.11295E-02   -0.16242E-02  5435   0.777E-02    0.273E-01
RMM:   4    -0.231802650555E+04    0.52454E-03   -0.18516E-03  5089   0.198E-02    0.120E-01
RMM:   5    -0.231802635008E+04    0.15546E-03   -0.63568E-04  4559   0.157E-02    0.433E-02
RMM:   6    -0.231802633420E+04    0.15884E-04   -0.70874E-05  3525   0.944E-03    0.174E-02
RMM:   7    -0.231802632800E+04    0.62027E-05   -0.26546E-05  3014   0.426E-03
  11 F= -.23384956E+04 E0= -.23384956E+04  d E =-.581976E-01  mag=     4.0000
       N       E                     dE             d eps       ncg     rms          rms(c)
DAV:   1    -0.231803526155E+04   -0.89273E-02   -0.97777E-01  4512   0.851E-01    0.320E-01
RMM:   2    -0.231804756262E+04   -0.12301E-01   -0.13481E-01  5783   0.169E-01    0.191E-01
RMM:   3    -0.231804865071E+04   -0.10881E-02   -0.16184E-02  5197   0.796E-02    0.142E-01
RMM:   4    -0.231804859649E+04    0.54215E-04   -0.15103E-03  4455   0.161E-02    0.107E-01
RMM:   5    -0.231804851392E+04    0.82567E-04   -0.49638E-04  4141   0.134E-02    0.785E-02
RMM:   6    -0.231804844636E+04    0.67567E-04   -0.23868E-04  4375   0.912E-03    0.288E-02
RMM:   7    -0.231804843577E+04    0.10587E-04   -0.21836E-05  2869   0.623E-03    0.997E-03
RMM:   8    -0.231804843292E+04    0.28494E-05   -0.12161E-05  2880   0.271E-03
  12 F= -.23385177E+04 E0= -.23385177E+04  d E =-.220696E-01  mag=     4.0000
       N       E                     dE             d eps       ncg     rms          rms(c)
DAV:   1    -0.231804100124E+04    0.74345E-02   -0.11665E+00  4520   0.928E-01    0.350E-01
RMM:   2    -0.231805564543E+04   -0.14644E-01   -0.16079E-01  5727   0.183E-01    0.208E-01
RMM:   3    -0.231805695697E+04   -0.13115E-02   -0.19610E-02  5136   0.865E-02    0.154E-01
RMM:   4    -0.231805688643E+04    0.70547E-04   -0.18153E-03  4584   0.176E-02    0.117E-01
RMM:   5    -0.231805679375E+04    0.92673E-04   -0.59095E-04  4231   0.144E-02    0.906E-02
RMM:   6    -0.231805670229E+04    0.91467E-04   -0.29960E-04  4532   0.978E-03    0.334E-02
RMM:   7    -0.231805668711E+04    0.15175E-04   -0.26974E-05  2883   0.674E-03    0.115E-02
RMM:   8    -0.231805668257E+04    0.45433E-05   -0.16449E-05  2883   0.304E-03
  13 F= -.23385259E+04 E0= -.23385259E+04  d E =-.302682E-01  mag=     4.0000
       N       E                     dE             d eps       ncg     rms          rms(c)
