       N       E                     dE             d eps       ncg     rms          rms(c)
DAV:   1     0.126941617170E+05    0.12694E+05   -0.82969E+05  4432   0.144E+03
DAV:   2    -0.107873580059E+04   -0.13773E+05   -0.13202E+05  5312   0.329E+02
DAV:   3    -0.247998846300E+04   -0.14013E+04   -0.13882E+04  5368   0.111E+02
DAV:   4    -0.252554390130E+04   -0.45555E+02   -0.45338E+02  6688   0.298E+01
DAV:   5    -0.252640100821E+04   -0.85711E+00   -0.85563E+00  5560   0.321E+00    0.171E+02
RMM:   6    -0.146910553341E+04    0.10573E+04   -0.19684E+03  4392   0.388E+01    0.736E+01
RMM:   7    -0.165957764486E+04   -0.19047E+03   -0.29805E+02  4924   0.138E+01    0.494E+01
RMM:   8    -0.171108600284E+04   -0.51508E+02   -0.43674E+01  5328   0.659E+00    0.439E+01
RMM:   9    -0.177605406070E+04   -0.64968E+02   -0.57765E+01  4921   0.643E+00    0.357E+01
RMM:  10    -0.192374360827E+04   -0.14769E+03   -0.72521E+01  5057   0.817E+00    0.223E+01
RMM:  11    -0.203314003623E+04   -0.10940E+03   -0.45479E+01  4948   0.559E+00    0.208E+01
RMM:  12    -0.207397381842E+04   -0.40834E+02   -0.13483E+01  4838   0.300E+00    0.136E+01
RMM:  13    -0.221699328291E+04   -0.14302E+03   -0.10567E+02  4395   0.753E+00    0.132E+01
RMM:  14    -0.225666695688E+04   -0.39674E+02   -0.26110E+01  4528   0.404E+00    0.103E+01
RMM:  15    -0.230851813434E+04   -0.51851E+02   -0.45101E+01  4384   0.459E+00    0.107E+01
RMM:  16    -0.232145828429E+04   -0.12940E+02   -0.12805E+01  4514   0.313E+00    0.821E+00
RMM:  17    -0.232456391137E+04   -0.31056E+01   -0.47476E+00  5296   0.135E+00    0.203E+00
RMM:  18    -0.232531153776E+04   -0.74763E+00   -0.62918E-01  4927   0.560E-01    0.198E+00
RMM:  19    -0.232552239867E+04   -0.21086E+00   -0.15766E-01  4822   0.329E-01    0.114E+00
RMM:  20    -0.232559556886E+04   -0.73170E-01   -0.54960E-02  5025   0.157E-01    0.101E+00
RMM:  21    -0.232558332072E+04    0.12248E-01   -0.84313E-03  4946   0.735E-02    0.117E+00
RMM:  22    -0.232558441646E+04   -0.10957E-02   -0.32710E-02  4393   0.955E-02    0.893E-01
RMM:  23    -0.232560306348E+04   -0.18647E-01   -0.12303E-02  4435   0.795E-02    0.687E-01
RMM:  24    -0.232565280455E+04   -0.49741E-01   -0.52772E-02  4391   0.138E-01    0.690E-01
RMM:  25    -0.232569128609E+04   -0.38482E-01   -0.71822E-02  4554   0.162E-01    0.296E-01
RMM:  26    -0.232570019974E+04   -0.89137E-02   -0.18873E-02  4584   0.107E-01    0.364E-01
RMM:  27    -0.232570273439E+04   -0.25347E-02   -0.57654E-03  5184   0.406E-02    0.321E-01
RMM:  28    -0.232570504754E+04   -0.23131E-02   -0.30655E-03  4398   0.400E-02    0.267E-01
RMM:  29    -0.232570741948E+04   -0.23719E-02   -0.24205E-03  4318   0.394E-02    0.237E-01
RMM:  30    -0.232571111574E+04   -0.36963E-02   -0.46191E-03  4326   0.420E-02    0.329E-01
RMM:  31    -0.232571117249E+04   -0.56754E-04   -0.39833E-04  3587   0.157E-02    0.324E-01
RMM:  32    -0.232571256714E+04   -0.13947E-02   -0.40051E-04  3639   0.922E-03    0.447E-01
RMM:  33    -0.232571275438E+04   -0.18724E-03   -0.72910E-04  3986   0.200E-02    0.313E-01
RMM:  34    -0.232571530409E+04   -0.25497E-02   -0.81582E-03  4387   0.441E-02    0.146E-01
RMM:  35    -0.232571527732E+04    0.26767E-04   -0.88964E-04  3868   0.239E-02    0.135E-01
RMM:  36    -0.232571578561E+04   -0.50828E-03   -0.90068E-04  3919   0.137E-02    0.151E-01
RMM:  37    -0.232571650329E+04   -0.71769E-03   -0.44247E-03  4271   0.296E-02    0.153E-01
RMM:  38    -0.232571777935E+04   -0.12761E-02   -0.48021E-03  4653   0.318E-02    0.938E-02
RMM:  39    -0.232571817160E+04   -0.39225E-03   -0.78620E-04  4049   0.166E-02    0.674E-02
RMM:  40    -0.232571839519E+04   -0.22359E-03   -0.34158E-04  3644   0.109E-02    0.425E-02
RMM:  41    -0.232571850222E+04   -0.10703E-03   -0.18004E-04  3413   0.846E-03    0.362E-02
RMM:  42    -0.232571863988E+04   -0.13766E-03   -0.46058E-04  3668   0.108E-02    0.456E-02
RMM:  43    -0.232571872182E+04   -0.81934E-04   -0.54201E-04  3683   0.115E-02    0.347E-02
RMM:  44    -0.232571879204E+04   -0.70224E-04   -0.85056E-05  3066   0.676E-03    0.343E-02
RMM:  45    -0.232571889287E+04   -0.10083E-03   -0.44281E-05  3076   0.548E-03    0.339E-02
RMM:  46    -0.232571895460E+04   -0.61726E-04   -0.26665E-05  3026   0.483E-03    0.239E-02
RMM:  47    -0.232571897504E+04   -0.20443E-04   -0.53172E-05  2905   0.472E-03    0.181E-02
RMM:  48    -0.232571898853E+04   -0.13488E-04   -0.25028E-05  2822   0.383E-03    0.104E-02
RMM:  49    -0.232571899228E+04   -0.37497E-05   -0.10282E-05  2622   0.293E-03
   1 F= -.23462377E+04 E0= -.23462305E+04  d E =-.234624E+04  mag=     5.9954
       N       E                     dE             d eps       ncg     rms          rms(c)
DAV:   1    -0.232573262809E+04   -0.13640E-01   -0.14952E+00  4856   0.932E-01    0.392E-01
RMM:   2    -0.232573842494E+04   -0.57969E-02   -0.73761E-02  5339   0.161E-01    0.342E-01
RMM:   3    -0.232574009851E+04   -0.16736E-02   -0.77300E-03  4765   0.736E-02    0.481E-01
RMM:   4    -0.232573989333E+04    0.20518E-03   -0.82890E-04  3933   0.137E-02    0.475E-01
RMM:   5    -0.232573892709E+04    0.96624E-03   -0.14121E-03  3740   0.148E-02    0.440E-01
RMM:   6    -0.232573762464E+04    0.13025E-02   -0.17148E-03  4188   0.179E-02    0.249E-01
RMM:   7    -0.232573775426E+04   -0.12963E-03   -0.19119E-03  4573   0.216E-02    0.330E-01
RMM:   8    -0.232573764379E+04    0.11048E-03   -0.32930E-04  3246   0.950E-03    0.263E-01
RMM:   9    -0.232573759747E+04    0.46318E-04   -0.10042E-03  3646   0.118E-02    0.167E-01
RMM:  10    -0.232573766641E+04   -0.68935E-04   -0.87601E-04  3914   0.131E-02    0.156E-01
RMM:  11    -0.232573767345E+04   -0.70456E-05   -0.14491E-03  3962   0.173E-02    0.817E-02
RMM:  12    -0.232573765388E+04    0.19568E-04   -0.51884E-04  3594   0.111E-02    0.462E-02
RMM:  13    -0.232573764518E+04    0.87043E-05   -0.16880E-04  3051   0.694E-03    0.316E-02
RMM:  14    -0.232573762829E+04    0.16888E-04   -0.84422E-05  2862   0.509E-03    0.271E-02
RMM:  15    -0.232573764251E+04   -0.14221E-04   -0.28583E-05  2838   0.380E-03    0.299E-02
RMM:  16    -0.232573764994E+04   -0.74253E-05   -0.25577E-05  2796   0.308E-03
   2 F= -.23462572E+04 E0= -.23462535E+04  d E =-.195308E-01  mag=     5.9331
       N       E                     dE             d eps       ncg     rms          rms(c)
DAV:   1    -0.232574033810E+04   -0.26956E-02   -0.31140E-01  4640   0.543E-01    0.241E-01
RMM:   2    -0.232574244812E+04   -0.21100E-02   -0.23703E-02  5470   0.939E-02    0.205E-01
RMM:   3    -0.232574281156E+04   -0.36344E-03   -0.28273E-03  4667   0.443E-02    0.299E-01
RMM:   4    -0.232574244104E+04    0.37052E-03   -0.54017E-04  4207   0.127E-02    0.145E-01
RMM:   5    -0.232574241581E+04    0.25232E-04   -0.29792E-04  3553   0.106E-02    0.125E-01
RMM:   6    -0.232574248122E+04   -0.65411E-04   -0.66131E-05  2872   0.568E-03    0.137E-01
RMM:   7    -0.232574235104E+04    0.13017E-03   -0.89528E-05  2946   0.553E-03    0.117E-01
RMM:   8    -0.232574208873E+04    0.26232E-03   -0.56191E-04  3818   0.110E-02    0.694E-02
RMM:   9    -0.232574210663E+04   -0.17900E-04   -0.16040E-04  2976   0.794E-03    0.680E-02
RMM:  10    -0.232574213841E+04   -0.31781E-04   -0.80107E-05  2864   0.465E-03    0.521E-02
RMM:  11    -0.232574217630E+04   -0.37889E-04   -0.18009E-04  3134   0.618E-03    0.205E-02
RMM:  12    -0.232574218639E+04   -0.10093E-04   -0.56178E-05  2860   0.461E-03    0.108E-02
RMM:  13    -0.232574218985E+04   -0.34610E-05   -0.25155E-05  2844   0.324E-03
   3 F= -.23462621E+04 E0= -.23462575E+04  d E =-.488408E-02  mag=     5.8888
       N       E                     dE             d eps       ncg     rms          rms(c)
DAV:   1    -0.232574170746E+04    0.47893E-03   -0.20535E-01  4592   0.422E-01    0.213E-01
RMM:   2    -0.232574505631E+04   -0.33488E-02   -0.31609E-02  5704   0.800E-02    0.292E-01
RMM:   3    -0.232574532583E+04   -0.26952E-03   -0.37633E-03  4287   0.410E-02    0.236E-01
RMM:   4    -0.232574539195E+04   -0.66122E-04   -0.40700E-04  3017   0.792E-03    0.246E-01
RMM:   5    -0.232574524868E+04    0.14327E-03   -0.14342E-03  3892   0.146E-02    0.240E-01
RMM:   6    -0.232574518086E+04    0.67818E-04   -0.38944E-04  3160   0.976E-03    0.253E-01
RMM:   7    -0.232574510914E+04    0.71721E-04   -0.44147E-04  3210   0.905E-03    0.205E-01
RMM:   8    -0.232574500164E+04    0.10750E-03   -0.20125E-04  2965   0.655E-03    0.203E-01
RMM:   9    -0.232574504482E+04   -0.43184E-04   -0.11226E-04  2878   0.532E-03    0.179E-01
RMM:  10    -0.232574506482E+04   -0.19996E-04   -0.26418E-03  4100   0.208E-02    0.101E-01
RMM:  11    -0.232574491027E+04    0.15454E-03   -0.16063E-03  4230   0.189E-02    0.526E-02
RMM:  12    -0.232574487633E+04    0.33942E-04   -0.66504E-04  3961   0.121E-02    0.371E-02
RMM:  13    -0.232574491740E+04   -0.41067E-04   -0.77952E-05  3033   0.646E-03    0.234E-02
RMM:  14    -0.232574494962E+04   -0.32219E-04   -0.32108E-05  2873   0.472E-03    0.248E-02
RMM:  15    -0.232574497187E+04   -0.22251E-04   -0.32177E-05  2847   0.431E-03    0.218E-02
RMM:  16    -0.232574500350E+04   -0.31636E-04   -0.54332E-05  2871   0.434E-03    0.215E-02
RMM:  17    -0.232574505171E+04   -0.48210E-04   -0.14496E-04  3039   0.615E-03    0.285E-02
RMM:  18    -0.232574506548E+04   -0.13765E-04   -0.58245E-05  2830   0.455E-03    0.290E-02
RMM:  19    -0.232574504785E+04    0.17634E-04   -0.58991E-05  2751   0.370E-03    0.206E-02
RMM:  20    -0.232574502880E+04    0.19042E-04   -0.24287E-04  3154   0.688E-03    0.223E-02
RMM:  21    -0.232574501622E+04    0.12588E-04   -0.12830E-04  2884   0.530E-03    0.246E-02
RMM:  22    -0.232574502360E+04   -0.73890E-05   -0.77017E-06  2662   0.280E-03
   4 F= -.23462653E+04 E0= -.23462573E+04  d E =-.327649E-02  mag=     5.7034
       N       E                     dE             d eps       ncg     rms          rms(c)
DAV:   1    -0.232574528405E+04   -0.26783E-03   -0.86692E-02  4552   0.230E-01    0.296E-01
RMM:   2    -0.232574901728E+04   -0.37332E-02   -0.22730E-02  5736   0.524E-02    0.539E-01
RMM:   3    -0.232574919219E+04   -0.17490E-03   -0.21235E-03  3617   0.222E-02    0.590E-01
RMM:   4    -0.232574756004E+04    0.16322E-02   -0.22308E-03  3932   0.175E-02    0.347E-01
RMM:   5    -0.232574693307E+04    0.62697E-03   -0.17540E-03  3821   0.158E-02    0.263E-01
RMM:   6    -0.232574705879E+04   -0.12572E-03   -0.15290E-04  2902   0.671E-03    0.290E-01
RMM:   7    -0.232574715809E+04   -0.99303E-04   -0.55243E-05  2727   0.308E-03    0.302E-01
RMM:   8    -0.232574694264E+04    0.21545E-03   -0.38470E-04  3208   0.739E-03    0.301E-01
RMM:   9    -0.232574666718E+04    0.27546E-03   -0.36959E-04  3424   0.826E-03    0.289E-01
RMM:  10    -0.232574642511E+04    0.24207E-03   -0.43524E-04  3441   0.946E-03    0.300E-01
RMM:  11    -0.232574760717E+04   -0.11821E-02   -0.74943E-03  4343   0.355E-02    0.284E-01
RMM:  12    -0.232574849078E+04   -0.88361E-03   -0.68489E-03  4522   0.358E-02    0.344E-01
RMM:  13    -0.232574824388E+04    0.24690E-03   -0.82826E-04  3803   0.147E-02    0.326E-01
RMM:  14    -0.232574818194E+04    0.61941E-04   -0.25837E-04  3181   0.819E-03    0.335E-01
RMM:  15    -0.232574834438E+04   -0.16244E-03   -0.14368E-03  3823   0.153E-02    0.305E-01
RMM:  16    -0.232574913211E+04   -0.78772E-03   -0.19531E-02  4465   0.536E-02    0.297E-01
RMM:  17    -0.232574886389E+04    0.26821E-03   -0.12374E-03  4222   0.221E-02    0.226E-01
RMM:  18    -0.232574890423E+04   -0.40333E-04   -0.91529E-05  2907   0.514E-03    0.227E-01
RMM:  19    -0.232574901410E+04   -0.10987E-03   -0.18269E-04  2875   0.502E-03    0.220E-01
RMM:  20    -0.232574926020E+04   -0.24610E-03   -0.17200E-03  3896   0.155E-02    0.175E-01
RMM:  21    -0.232574923514E+04    0.25059E-04   -0.43125E-03  4367   0.243E-02    0.119E-01
RMM:  22    -0.232574943540E+04   -0.20026E-03   -0.10588E-03  3988   0.145E-02    0.206E-01
RMM:  23    -0.232574937818E+04    0.57226E-04   -0.27504E-03  4011   0.194E-02    0.575E-02
RMM:  24    -0.232574940388E+04   -0.25702E-04   -0.57977E-04  3330   0.112E-02    0.401E-02
RMM:  25    -0.232574941201E+04   -0.81306E-05   -0.97043E-05  2867   0.446E-03
   5 F= -.23462700E+04 E0= -.23462595E+04  d E =-.469629E-02  mag=     5.5550
       N       E                     dE             d eps       ncg     rms          rms(c)
DAV:   1    -0.232574709548E+04    0.23084E-02   -0.34756E-02  5376   0.175E-01    0.194E-01
RMM:   2    -0.232574859471E+04   -0.14992E-02   -0.76030E-03  5684   0.378E-02    0.376E-01
RMM:   3    -0.232574842654E+04    0.16817E-03   -0.84462E-04  3412   0.177E-02    0.348E-01
RMM:   4    -0.232574807555E+04    0.35099E-03   -0.86544E-04  3237   0.990E-03    0.321E-01
RMM:   5    -0.232574760757E+04    0.46799E-03   -0.49380E-04  3411   0.895E-03    0.152E-01
RMM:   6    -0.232574748389E+04    0.12368E-03   -0.25276E-04  2973   0.767E-03    0.845E-02
RMM:   7    -0.232574744551E+04    0.38385E-04   -0.30283E-04  3162   0.781E-03    0.451E-02
RMM:   8    -0.232574744062E+04    0.48832E-05   -0.76405E-05  2873   0.580E-03
   6 F= -.23462679E+04 E0= -.23462565E+04  d E =0.215160E-02  mag=     5.5093
       N       E                     dE             d eps       ncg     rms          rms(c)
DAV:   1    -0.232574860582E+04   -0.11603E-02   -0.34553E-01  4480   0.564E-01    0.594E-01
RMM:   2    -0.232576147099E+04   -0.12865E-01   -0.62440E-02  5304   0.108E-01    0.119E+00
RMM:   3    -0.232576094353E+04    0.52746E-03   -0.82916E-03  4722   0.609E-02    0.123E+00
RMM:   4    -0.232575371644E+04    0.72271E-02   -0.10802E-02  4538   0.362E-02    0.574E-01
RMM:   5    -0.232575210638E+04    0.16101E-02   -0.25021E-03  4547   0.211E-02    0.203E-01
RMM:   6    -0.232575187879E+04    0.22759E-03   -0.76043E-04  4058   0.130E-02    0.123E-01
RMM:   7    -0.232575185968E+04    0.19117E-04   -0.64393E-04  3918   0.119E-02    0.903E-02
RMM:   8    -0.232575187083E+04   -0.11149E-04   -0.25782E-04  2982   0.857E-03    0.886E-02
RMM:   9    -0.232575189078E+04   -0.19958E-04   -0.38387E-04  3321   0.834E-03    0.697E-02
RMM:  10    -0.232575189557E+04   -0.47840E-05   -0.22726E-04  3008   0.727E-03    0.302E-02
RMM:  11    -0.232575193550E+04   -0.39937E-04   -0.91038E-05  2911   0.511E-03    0.189E-02
RMM:  12    -0.232575194949E+04   -0.13986E-04   -0.12395E-05  2789   0.351E-03    0.142E-02
RMM:  13    -0.232575196202E+04   -0.12530E-04   -0.93232E-06  2601   0.212E-03    0.935E-03
RMM:  14    -0.232575197903E+04   -0.17014E-04   -0.90241E-06  2743   0.231E-03    0.727E-03
RMM:  15    -0.232575198358E+04   -0.45448E-05   -0.47750E-06  2553   0.201E-03
   7 F= -.23462731E+04 E0= -.23462640E+04  d E =-.516747E-02  mag=     5.6576
       N       E                     dE             d eps       ncg     rms          rms(c)
DAV:   1    -0.232575237710E+04   -0.39807E-03   -0.51950E-02  5040   0.243E-01    0.843E-02
RMM:   2    -0.232575282859E+04   -0.45149E-03   -0.39192E-03  5339   0.403E-02    0.129E-01
RMM:   3    -0.232575285191E+04   -0.23313E-04   -0.38865E-04  3551   0.192E-02    0.129E-01
RMM:   4    -0.232575283650E+04    0.15403E-04   -0.53898E-05  2880   0.384E-03    0.126E-01
RMM:   5    -0.232575277251E+04    0.63992E-04   -0.15213E-04  2909   0.518E-03    0.851E-02
RMM:   6    -0.232575271825E+04    0.54265E-04   -0.69380E-05  2853   0.422E-03    0.572E-02
RMM:   7    -0.232575268829E+04    0.29956E-04   -0.81822E-05  2977   0.545E-03    0.225E-02
RMM:   8    -0.232575268543E+04    0.28573E-05   -0.25551E-05  2844   0.479E-03
   8 F= -.23462739E+04 E0= -.23462642E+04  d E =-.802807E-03  mag=     5.6368
       N       E                     dE             d eps       ncg     rms          rms(c)
DAV:   1    -0.232575224651E+04    0.44178E-03   -0.24607E-01  4464   0.509E-01    0.249E-01
RMM:   2    -0.232575567243E+04   -0.34259E-02   -0.24273E-02  5381   0.838E-02    0.493E-01
RMM:   3    -0.232575514585E+04    0.52657E-03   -0.28668E-03  4574   0.432E-02    0.350E-01
RMM:   4    -0.232575535804E+04   -0.21219E-03   -0.16726E-03  3972   0.146E-02    0.470E-01
RMM:   5    -0.232575442804E+04    0.93000E-03   -0.66039E-04  3334   0.999E-03    0.154E-01
RMM:   6    -0.232575429203E+04    0.13601E-03   -0.30044E-04  3184   0.753E-03    0.990E-02
RMM:   7    -0.232575422376E+04    0.68275E-04   -0.22032E-04  3476   0.845E-03    0.750E-02
RMM:   8    -0.232575420134E+04    0.22418E-04   -0.11193E-04  2896   0.667E-03    0.463E-02
RMM:   9    -0.232575418070E+04    0.20639E-04   -0.87472E-05  2902   0.513E-03    0.282E-02
RMM:  10    -0.232575417780E+04    0.29007E-05   -0.36098E-05  2853   0.438E-03
   9 F= -.23462757E+04 E0= -.23462678E+04  d E =-.188793E-02  mag=     5.7071
       N       E                     dE             d eps       ncg     rms          rms(c)
DAV:   1    -0.232575436162E+04   -0.18092E-03   -0.41909E-02  4824   0.207E-01    0.732E-02
RMM:   2    -0.232575488638E+04   -0.52476E-03   -0.47020E-03  5593   0.356E-02    0.108E-01
RMM:   3    -0.232575493515E+04   -0.48767E-04   -0.49281E-04  3161   0.159E-02    0.111E-01
RMM:   4    -0.232575492765E+04    0.75000E-05   -0.60230E-05  2875   0.354E-03
  10 F= -.23462766E+04 E0= -.23462695E+04  d E =-.815704E-03  mag=     5.7068
       N       E                     dE             d eps       ncg     rms          rms(c)
DAV:   1    -0.232575507522E+04   -0.14008E-03   -0.11887E-02  4752   0.106E-01    0.124E-01
RMM:   2    -0.232575603713E+04   -0.96190E-03   -0.23077E-03  5371   0.208E-02    0.400E-01
RMM:   3    -0.232575573252E+04    0.30460E-03   -0.15140E-04  2901   0.885E-03    0.307E-01
RMM:   4    -0.232575532660E+04    0.40592E-03   -0.53189E-04  3338   0.876E-03    0.206E-01
RMM:   5    -0.232575510390E+04    0.22270E-03   -0.39787E-04  2938   0.676E-03    0.969E-02
RMM:   6    -0.232575506819E+04    0.35709E-04   -0.10289E-04  2834   0.437E-03    0.830E-02
RMM:   7    -0.232575498698E+04    0.81217E-04   -0.29532E-04  3466   0.769E-03    0.287E-02
RMM:   8    -0.232575498691E+04    0.68772E-07   -0.51229E-05  2858   0.499E-03
  11 F= -.23462766E+04 E0= -.23462674E+04  d E =-.803888E-04  mag=     5.6623
       N       E                     dE             d eps       ncg     rms          rms(c)
DAV:   1    -0.232575504152E+04   -0.54548E-04   -0.49735E-02  5168   0.227E-01    0.632E-02
RMM:   2    -0.232575555523E+04   -0.51370E-03   -0.50748E-03  5731   0.379E-02    0.882E-02
RMM:   3    -0.232575560802E+04   -0.52798E-04   -0.56559E-04  3179   0.161E-02    0.791E-02
RMM:   4    -0.232575561557E+04   -0.75427E-05   -0.63580E-05  2876   0.398E-03
  12 F= -.23462774E+04 E0= -.23462675E+04  d E =-.769993E-03  mag=     5.6587
       N       E                     dE             d eps       ncg     rms          rms(c)
DAV:   1    -0.232575554573E+04    0.62293E-04   -0.46092E-02  4528   0.215E-01    0.101E-01
RMM:   2    -0.232575627064E+04   -0.72490E-03   -0.52143E-03  5412   0.362E-02    0.214E-01
RMM:   3    -0.232575631845E+04   -0.47814E-04   -0.52089E-04  3347   0.182E-02    0.218E-01
RMM:   4    -0.232575613610E+04    0.18234E-03   -0.31720E-04  3004   0.709E-03    0.147E-01
RMM:   5    -0.232575604821E+04    0.87893E-04   -0.12818E-04  2878   0.472E-03    0.675E-02
RMM:   6    -0.232575602021E+04    0.28002E-04   -0.54591E-05  2896   0.440E-03    0.391E-02
RMM:   7    -0.232575600720E+04    0.13007E-04   -0.59839E-05  2919   0.502E-03    0.280E-02
RMM:   8    -0.232575600389E+04    0.33083E-05   -0.27784E-05  2868   0.431E-03
  13 F= -.23462780E+04 E0= -.23462692E+04  d E =-.562744E-03  mag=     5.6739
       N       E                     dE             d eps       ncg     rms          rms(c)
DAV:   1    -0.232574942070E+04    0.65865E-02   -0.69622E-01  4448   0.835E-01    0.261E-01
RMM:   2    -0.232575756865E+04   -0.81480E-02   -0.78213E-02  5235   0.137E-01    0.385E-01
RMM:   3    -0.232575858903E+04   -0.10204E-02   -0.80445E-03  4541   0.754E-02    0.437E-01
RMM:   4    -0.232575835073E+04    0.23830E-03   -0.13664E-03  4332   0.146E-02    0.317E-01
RMM:   5    -0.232575810010E+04    0.25064E-03   -0.13358E-03  3753   0.145E-02    0.344E-01
RMM:   6    -0.232575751419E+04    0.58591E-03   -0.39470E-04  2988   0.826E-03    0.138E-01
RMM:   7    -0.232575738210E+04    0.13209E-03   -0.28537E-04  3452   0.775E-03    0.853E-02
RMM:   8    -0.232575734311E+04    0.38986E-04   -0.10122E-04  2951   0.691E-03    0.841E-02
RMM:   9    -0.232575726515E+04    0.77961E-04   -0.18307E-04  3701   0.803E-03    0.488E-02
RMM:  10    -0.232575724585E+04    0.19302E-04   -0.83332E-05  2896   0.742E-03    0.353E-02
RMM:  11    -0.232575724353E+04    0.23186E-05   -0.63651E-05  2886   0.485E-03
  14 F= -.23462798E+04 E0= -.23462723E+04  d E =-.178300E-02  mag=     5.7518
       N       E                     dE             d eps       ncg     rms          rms(c)
DAV:   1    -0.232575703237E+04    0.21348E-03   -0.49016E-02  4728   0.220E-01    0.609E-02
RMM:   2    -0.232575763555E+04   -0.60318E-03   -0.60466E-03  5867   0.389E-02    0.657E-02
RMM:   3    -0.232575770038E+04   -0.64832E-04   -0.62384E-04  3095   0.150E-02    0.811E-02
RMM:   4    -0.232575767526E+04    0.25124E-04   -0.74512E-05  2861   0.446E-03    0.208E-02
RMM:   5    -0.232575767675E+04   -0.14981E-05   -0.94282E-06  2850   0.247E-03
  15 F= -.23462803E+04 E0= -.23462735E+04  d E =-.562175E-03  mag=     5.7590
       N       E                     dE             d eps       ncg     rms          rms(c)
DAV:   1    -0.232575706648E+04    0.60878E-03   -0.65097E-02  4464   0.260E-01    0.121E-01
RMM:   2    -0.232575793579E+04   -0.86931E-03   -0.70342E-03  5581   0.437E-02    0.179E-01
RMM:   3    -0.232575799762E+04   -0.61831E-04   -0.73311E-04  3437   0.213E-02    0.178E-01
RMM:   4    -0.232575800743E+04   -0.98120E-05   -0.68744E-05  2898   0.402E-03
  16 F= -.23462805E+04 E0= -.23462751E+04  d E =-.144871E-03  mag=     5.7662
       N       E                     dE             d eps       ncg     rms          rms(c)
DAV:   1    -0.232575793623E+04    0.61393E-04   -0.16402E-03  4680   0.402E-02    0.175E-01
RMM:   2    -0.232575821799E+04   -0.28176E-03   -0.88650E-04  4319   0.126E-02    0.232E-01
RMM:   3    -0.232575813454E+04    0.83447E-04   -0.79093E-04  3341   0.108E-02    0.248E-01
RMM:   4    -0.232575794222E+04    0.19233E-03   -0.60621E-04  3133   0.859E-03    0.226E-01
RMM:   5    -0.232575784116E+04    0.10106E-03   -0.29878E-04  2979   0.647E-03    0.198E-01
RMM:   6    -0.232575752649E+04    0.31467E-03   -0.94597E-04  3737   0.120E-02    0.756E-02
RMM:   7    -0.232575752821E+04   -0.17186E-05   -0.48837E-04  3135   0.876E-03    0.558E-02
RMM:   8    -0.232575755703E+04   -0.28819E-04   -0.14520E-04  2899   0.585E-03    0.350E-02
RMM:   9    -0.232575756452E+04   -0.74927E-05   -0.51484E-05  2792   0.351E-03
  17 F= -.23462801E+04 E0= -.23462715E+04  d E =0.412015E-03  mag=     5.6983
       N       E                     dE             d eps       ncg     rms          rms(c)
DAV:   1    -0.232575675289E+04    0.80414E-03   -0.90754E-02  4632   0.294E-01    0.115E-01
RMM:   2    -0.232575806506E+04   -0.13122E-02   -0.11996E-02  5733   0.514E-02    0.183E-01
RMM:   3    -0.232575820758E+04   -0.14252E-03   -0.12598E-03  3504   0.239E-02    0.194E-01
RMM:   4    -0.232575823520E+04   -0.27615E-04   -0.17932E-04  2895   0.558E-03    0.201E-01
RMM:   5    -0.232575816247E+04    0.72730E-04   -0.11700E-04  2875   0.456E-03    0.146E-01
RMM:   6    -0.232575803389E+04    0.12857E-03   -0.21091E-04  2946   0.609E-03    0.108E-01
RMM:   7    -0.232575797383E+04    0.60066E-04   -0.10587E-04  2875   0.463E-03    0.550E-02
RMM:   8    -0.232575796993E+04    0.38977E-05   -0.26046E-05  2835   0.363E-03
  18 F= -.23462807E+04 E0= -.23462724E+04  d E =-.610554E-03  mag=     5.7115
       N       E                     dE             d eps       ncg     rms          rms(c)
DAV:   1    -0.232575793340E+04    0.40424E-04   -0.10660E-02  5208   0.983E-02    0.534E-02
RMM:   2    -0.232575816954E+04   -0.23614E-03   -0.16271E-03  5382   0.184E-02    0.133E-01
RMM:   3    -0.232575813065E+04    0.38890E-04   -0.17857E-04  2868   0.772E-03    0.899E-02
RMM:   4    -0.232575812459E+04    0.60628E-05   -0.26485E-05  2856   0.238E-03
  19 F= -.23462809E+04 E0= -.23462722E+04  d E =-.226652E-03  mag=     5.7135
       N       E                     dE             d eps       ncg     rms          rms(c)
DAV:   1    -0.232575776231E+04    0.36835E-03   -0.35948E-02  4464   0.179E-01    0.979E-02
RMM:   2    -0.232575852319E+04   -0.76089E-03   -0.53633E-03  5610   0.318E-02    0.241E-01
RMM:   3    -0.232575854930E+04   -0.26108E-04   -0.62952E-04  3022   0.152E-02    0.227E-01
RMM:   4    -0.232575854371E+04    0.55858E-05   -0.63968E-05  2882   0.331E-03
  20 F= -.23462814E+04 E0= -.23462721E+04  d E =-.553257E-03  mag=     5.7182
       N       E                     dE             d eps       ncg     rms          rms(c)
DAV:   1    -0.232575764504E+04    0.90426E-03   -0.63204E-02  4488   0.231E-01    0.197E-01
RMM:   2    -0.232576118054E+04   -0.35355E-02   -0.13087E-02  5723   0.442E-02    0.710E-01
RMM:   3    -0.232575898881E+04    0.21917E-02   -0.17656E-03  3761   0.191E-02    0.289E-01
RMM:   4    -0.232575873569E+04    0.25312E-03   -0.45777E-04  3204   0.798E-03    0.206E-01
RMM:   5    -0.232575854134E+04    0.19435E-03   -0.44091E-04  2996   0.758E-03    0.106E-01
RMM:   6    -0.232575847074E+04    0.70602E-04   -0.24499E-04  2914   0.621E-03    0.781E-02
RMM:   7    -0.232575843333E+04    0.37409E-04   -0.81136E-05  2873   0.477E-03    0.545E-02
RMM:   8    -0.232575839741E+04    0.35918E-04   -0.14922E-04  3066   0.621E-03    0.363E-02
RMM:   9    -0.232575838936E+04    0.80557E-05   -0.48471E-05  2877   0.471E-03
  21 F= -.23462815E+04 E0= -.23462746E+04  d E =-.146015E-04  mag=     5.7728
       N       E                     dE             d eps       ncg     rms          rms(c)
DAV:   1    -0.232575788338E+04    0.51403E-03   -0.32744E-02  4768   0.171E-01    0.542E-02
RMM:   2    -0.232575835759E+04   -0.47421E-03   -0.47570E-03  5711   0.303E-02    0.555E-02
RMM:   3    -0.232575841651E+04   -0.58920E-04   -0.50612E-04  2988   0.133E-02    0.607E-02
RMM:   4    -0.232575841305E+04    0.34597E-05   -0.56531E-05  2867   0.333E-03
  22 F= -.23462813E+04 E0= -.23462753E+04  d E =0.112721E-03  mag=     5.7783
       N       E                     dE             d eps       ncg     rms          rms(c)
DAV:   1    -0.232574617396E+04    0.12243E-01   -0.85297E-01  4448   0.882E-01    0.258E-01
RMM:   2    -0.232575776261E+04   -0.11589E-01   -0.11987E-01  5376   0.149E-01    0.214E-01
RMM:   3    -0.232575935647E+04   -0.15939E-02   -0.12890E-02  4726   0.763E-02    0.299E-01
RMM:   4    -0.232575908614E+04    0.27033E-03   -0.14657E-03  3792   0.135E-02    0.174E-01
RMM:   5    -0.232575908982E+04   -0.36795E-05   -0.98937E-05  2878   0.555E-03
  23 F= -.23462827E+04 E0= -.23462750E+04  d E =-.132598E-02  mag=     5.7791
       N       E                     dE             d eps       ncg     rms          rms(c)
DAV:   1    -0.232575332736E+04    0.57588E-02   -0.38802E-01  4448   0.595E-01    0.267E-01
RMM:   2    -0.232575975478E+04   -0.64274E-02   -0.54746E-02  5299   0.101E-01    0.470E-01
RMM:   3    -0.232576005773E+04   -0.30295E-03   -0.52084E-03  4592   0.528E-02    0.453E-01
RMM:   4    -0.232575973904E+04    0.31869E-03   -0.21808E-03  4186   0.164E-02    0.431E-01
RMM:   5    -0.232575883459E+04    0.90446E-03   -0.99561E-04  3668   0.122E-02    0.206E-01
RMM:   6    -0.232575855221E+04    0.28238E-03   -0.46736E-04  3596   0.982E-03    0.150E-01
RMM:   7    -0.232575815320E+04    0.39901E-03   -0.86972E-04  4136   0.133E-02    0.131E-01
RMM:   8    -0.232575792626E+04    0.22695E-03   -0.63345E-04  3428   0.122E-02    0.162E-01
RMM:   9    -0.232575782716E+04    0.99096E-04   -0.19009E-04  2941   0.630E-03    0.168E-01
RMM:  10    -0.232575798122E+04   -0.15406E-03   -0.79567E-05  2857   0.502E-03    0.160E-01
RMM:  11    -0.232575822059E+04   -0.23937E-03   -0.63183E-04  3327   0.845E-03    0.123E-01
RMM:  12    -0.232575894603E+04   -0.72544E-03   -0.40446E-03  4125   0.206E-02    0.160E-01
RMM:  13    -0.232575888369E+04    0.62340E-04   -0.25400E-04  2932   0.902E-03    0.153E-01
RMM:  14    -0.232575892681E+04   -0.43120E-04   -0.77337E-05  2753   0.277E-03    0.162E-01
RMM:  15    -0.232575894767E+04   -0.20864E-04   -0.89429E-06  2456   0.197E-03    0.162E-01
RMM:  16    -0.232575882143E+04    0.12625E-03   -0.10734E-04  2766   0.415E-03    0.166E-01
RMM:  17    -0.232575877358E+04    0.47852E-04   -0.11602E-04  2905   0.468E-03    0.187E-01
RMM:  18    -0.232575886908E+04   -0.95508E-04   -0.50405E-05  2688   0.374E-03    0.184E-01
RMM:  19    -0.232575893210E+04   -0.63015E-04   -0.43460E-05  2745   0.327E-03    0.184E-01
RMM:  20    -0.232575878199E+04    0.15011E-03   -0.11880E-04  2726   0.450E-03    0.176E-01
RMM:  21    -0.232575826694E+04    0.51505E-03   -0.35729E-03  4108   0.218E-02    0.212E-01
RMM:  22    -0.232575803072E+04    0.23622E-03   -0.16708E-03  3757   0.168E-02    0.274E-01
RMM:  23    -0.232575865493E+04   -0.62421E-03   -0.38774E-03  4024   0.220E-02    0.195E-01
RMM:  24    -0.232576112546E+04   -0.24705E-02   -0.13456E-02  4466   0.414E-02    0.504E-01
RMM:  25    -0.232576007969E+04    0.10458E-02   -0.65190E-04  3710   0.170E-02    0.346E-01
RMM:  26    -0.232576026157E+04   -0.18188E-03   -0.12355E-04  2876   0.465E-03    0.397E-01
RMM:  27    -0.232576008880E+04    0.17277E-03   -0.56051E-05  2740   0.355E-03    0.382E-01
RMM:  28    -0.232575941803E+04    0.67077E-03   -0.81036E-04  3611   0.101E-02    0.291E-01
RMM:  29    -0.232575894564E+04    0.47239E-03   -0.98864E-04  3523   0.115E-02    0.223E-01
RMM:  30    -0.232575870249E+04    0.24315E-03   -0.77097E-04  3372   0.966E-03    0.187E-01
RMM:  31    -0.232575852649E+04    0.17600E-03   -0.46331E-04  3126   0.831E-03    0.171E-01
RMM:  32    -0.232575828720E+04    0.23928E-03   -0.82843E-04  3618   0.106E-02    0.173E-01
RMM:  33    -0.232575800540E+04    0.28180E-03   -0.11236E-03  3689   0.124E-02    0.217E-01
RMM:  34    -0.232575798322E+04    0.22187E-04   -0.18799E-04  2890   0.639E-03    0.226E-01
RMM:  35    -0.232575797576E+04    0.74513E-05   -0.25047E-05  2683   0.267E-03
  24 F= -.23462820E+04 E0= -.23462779E+04  d E =0.670666E-03  mag=     6.0087
       N       E                     dE             d eps       ncg     rms          rms(c)
DAV:   1    -0.232569599273E+04    0.61990E-01   -0.40659E+00  4416   0.192E+00    0.547E-01
RMM:   2    -0.232575438650E+04   -0.58394E-01   -0.58183E-01  5406   0.330E-01    0.553E-01
RMM:   3    -0.232576057398E+04   -0.61875E-02   -0.66071E-02  4906   0.163E-01    0.630E-01
RMM:   4    -0.232575944689E+04    0.11271E-02   -0.70622E-03  5528   0.298E-02    0.217E-01
RMM:   5    -0.232575905310E+04    0.39378E-03   -0.91747E-04  3892   0.139E-02    0.149E-01
RMM:   6    -0.232575883874E+04    0.21437E-03   -0.45848E-04  4216   0.119E-02    0.113E-01
RMM:   7    -0.232575877674E+04    0.61999E-04   -0.38238E-04  3665   0.124E-02    0.502E-02
RMM:   8    -0.232575880776E+04   -0.31020E-04   -0.17839E-04  3720   0.755E-03    0.570E-02
RMM:   9    -0.232575883461E+04   -0.26849E-04   -0.47633E-05  2876   0.591E-03    0.475E-02
RMM:  10    -0.232575884522E+04   -0.10615E-04   -0.97199E-05  2872   0.423E-03    0.240E-02
RMM:  11    -0.232575884962E+04   -0.43935E-05   -0.29601E-05  2882   0.362E-03
  25 F= -.23462814E+04 E0= -.23462782E+04  d E =0.576529E-03  mag=     5.9692
       N       E                     dE             d eps       ncg     rms          rms(c)
DAV:   1    -0.232575938088E+04   -0.53566E-03   -0.10046E-02  5224   0.100E-01    0.472E-02
RMM:   2    -0.232575954167E+04   -0.16079E-03   -0.15384E-03  5557   0.201E-02    0.546E-02
RMM:   3    -0.232575955180E+04   -0.10135E-04   -0.20404E-04  2870   0.901E-03    0.440E-02
RMM:   4    -0.232575955009E+04    0.17160E-05   -0.29762E-05  2846   0.277E-03
  26 F= -.23462821E+04 E0= -.23462792E+04  d E =-.704565E-03  mag=     5.9704
       N       E                     dE             d eps       ncg     rms          rms(c)
DAV:   1    -0.232554220517E+04    0.21735E+00   -0.12362E+01  4416   0.324E+00    0.101E+00
RMM:   2    -0.232573817322E+04   -0.19597E+00   -0.20011E+00  5567   0.586E-01    0.795E-01
RMM:   3    -0.232576161696E+04   -0.23444E-01   -0.24554E-01  5073   0.288E-01    0.103E+00
RMM:   4    -0.232575884258E+04    0.27744E-02   -0.22558E-02  5858   0.511E-02    0.402E-01
RMM:   5    -0.232575748345E+04    0.13591E-02   -0.25510E-03  4613   0.212E-02    0.255E-01
RMM:   6    -0.232575712909E+04    0.35437E-03   -0.12216E-03  4495   0.161E-02    0.246E-01
RMM:   7    -0.232575692521E+04    0.20387E-03   -0.57290E-04  3486   0.131E-02    0.167E-01
RMM:   8    -0.232575665435E+04    0.27086E-03   -0.17652E-03  4355   0.181E-02    0.993E-02
RMM:   9    -0.232575660419E+04    0.50155E-04   -0.35196E-04  3797   0.131E-02    0.324E-02
RMM:  10    -0.232575660205E+04    0.21427E-05   -0.49638E-05  2939   0.478E-03
  27 F= -.23462764E+04 E0= -.23462737E+04  d E =0.573215E-02  mag=     5.9934
       N       E                     dE             d eps       ncg     rms          rms(c)
DAV:   1    -0.232575192255E+04    0.46816E-02   -0.52095E-01  4432   0.705E-01    0.205E-01
RMM:   2    -0.232575859879E+04   -0.66762E-02   -0.69001E-02  5532   0.121E-01    0.132E-01
RMM:   3    -0.232575930992E+04   -0.71113E-03   -0.67941E-03  4705   0.602E-02    0.192E-01
RMM:   4    -0.232575917246E+04    0.13746E-03   -0.77659E-04  3442   0.110E-02    0.735E-02
RMM:   5    -0.232575912418E+04    0.48282E-04   -0.10066E-04  2888   0.696E-03    0.394E-02
RMM:   6    -0.232575910293E+04    0.21256E-04   -0.97547E-05  3743   0.698E-03    0.341E-02
RMM:   7    -0.232575909564E+04    0.72839E-05   -0.21348E-05  2842   0.584E-03
  28 F= -.23462794E+04 E0= -.23462767E+04  d E =-.296753E-02  mag=     5.9973
       N       E                     dE             d eps       ncg     rms          rms(c)
DAV:   1    -0.232575890308E+04    0.19985E-03   -0.10141E-01  4480   0.320E-01    0.822E-02
RMM:   2    -0.232576000342E+04   -0.11003E-02   -0.11370E-02  5395   0.525E-02    0.503E-02
RMM:   3    -0.232576011079E+04   -0.10737E-03   -0.11507E-03  3774   0.260E-02    0.563E-02
RMM:   4    -0.232576010481E+04    0.59813E-05   -0.12839E-04  2876   0.505E-03    0.341E-02
RMM:   5    -0.232576009570E+04    0.91018E-05   -0.17993E-05  2841   0.329E-03
  29 F= -.23462805E+04 E0= -.23462779E+04  d E =-.117381E-02  mag=     5.9985
       N       E                     dE             d eps       ncg     rms          rms(c)
DAV:   1    -0.232575832452E+04    0.17803E-02   -0.26672E-01  4448   0.516E-01    0.132E-01
RMM:   2    -0.232576127073E+04   -0.29462E-02   -0.30352E-02  5584   0.848E-02    0.914E-02
RMM:   3    -0.232576158289E+04   -0.31216E-03   -0.32237E-03  4270   0.388E-02    0.113E-01
RMM:   4    -0.232576154900E+04    0.33896E-04   -0.35555E-04  2999   0.802E-03    0.595E-02
RMM:   5    -0.232576152412E+04    0.24881E-04   -0.53575E-05  2848   0.502E-03    0.304E-02
RMM:   6    -0.232576151359E+04    0.10529E-04   -0.62542E-05  3077   0.532E-03    0.283E-02
RMM:   7    -0.232576150925E+04    0.43384E-05   -0.10024E-05  2836   0.411E-03
  30 F= -.23462822E+04 E0= -.23462797E+04  d E =-.168449E-02  mag=     5.9994
       N       E                     dE             d eps       ncg     rms          rms(c)
DAV:   1    -0.232575182788E+04    0.96857E-02   -0.98199E-01  4416   0.988E-01    0.250E-01
RMM:   2    -0.232576281053E+04   -0.10983E-01   -0.11328E-01  5272   0.161E-01    0.166E-01
RMM:   3    -0.232576406294E+04   -0.12524E-02   -0.13022E-02  4665   0.853E-02    0.200E-01
RMM:   4    -0.232576396379E+04    0.99147E-04   -0.13298E-03  4132   0.142E-02    0.112E-01
RMM:   5    -0.232576387664E+04    0.87150E-04   -0.16591E-04  2895   0.798E-03    0.562E-02
RMM:   6    -0.232576384101E+04    0.35630E-04   -0.16591E-04  3904   0.811E-03    0.536E-02
RMM:   7    -0.232576382507E+04    0.15943E-04   -0.33557E-05  2855   0.658E-03    0.328E-02
RMM:   8    -0.232576381754E+04    0.75275E-05   -0.64852E-05  2965   0.424E-03
  31 F= -.23462850E+04 E0= -.23462827E+04  d E =-.281517E-02  mag=     5.9998
       N       E                     dE             d eps       ncg     rms          rms(c)
DAV:   1    -0.232575675629E+04    0.70688E-02   -0.63809E-01  4416   0.782E-01    0.210E-01
RMM:   2    -0.232576467234E+04   -0.79160E-02   -0.81216E-02  5215   0.130E-01    0.153E-01
RMM:   3    -0.232576555592E+04   -0.88358E-03   -0.85992E-03  4527   0.651E-02    0.201E-01
RMM:   4    -0.232576541813E+04    0.13779E-03   -0.94399E-04  3681   0.117E-02    0.805E-02
RMM:   5    -0.232576536730E+04    0.50834E-04   -0.10802E-04  2891   0.681E-03    0.428E-02
RMM:   6    -0.232576534252E+04    0.24776E-04   -0.12788E-04  3698   0.732E-03    0.348E-02
RMM:   7    -0.232576533564E+04    0.68810E-05   -0.17937E-05  2852   0.579E-03
  32 F= -.23462870E+04 E0= -.23462847E+04  d E =-.192156E-02  mag=     5.9999
       N       E                     dE             d eps       ncg     rms          rms(c)
DAV:   1    -0.232575958139E+04    0.57611E-02   -0.46008E-01  4432   0.650E-01    0.182E-01
RMM:   2    -0.232576582603E+04   -0.62446E-02   -0.64011E-02  5391   0.110E-01    0.134E-01
RMM:   3    -0.232576656293E+04   -0.73690E-03   -0.70019E-03  4530   0.557E-02    0.174E-01
RMM:   4    -0.232576646359E+04    0.99345E-04   -0.74212E-04  3261   0.100E-02    0.706E-02
RMM:   5    -0.232576642509E+04    0.38499E-04   -0.83171E-05  2860   0.576E-03    0.394E-02
RMM:   6    -0.232576640746E+04    0.17631E-04   -0.60534E-05  3104   0.529E-03    0.339E-02
RMM:   7    -0.232576640065E+04    0.68053E-05   -0.19300E-05  2841   0.437E-03
  33 F= -.23462884E+04 E0= -.23462862E+04  d E =-.144973E-02  mag=     6.0000
       N       E                     dE             d eps       ncg     rms          rms(c)
DAV:   1    -0.232576381485E+04    0.25926E-02   -0.20163E-01  4480   0.422E-01    0.124E-01
RMM:   2    -0.232576675619E+04   -0.29413E-02   -0.30047E-02  5543   0.726E-02    0.955E-02
RMM:   3    -0.232576710287E+04   -0.34668E-03   -0.32528E-03  3994   0.358E-02    0.122E-01
RMM:   4    -0.232576705315E+04    0.49721E-04   -0.34687E-04  2944   0.710E-03    0.450E-02
RMM:   5    -0.232576703624E+04    0.16913E-04   -0.37898E-05  2844   0.406E-03    0.260E-02
RMM:   6    -0.232576702796E+04    0.82734E-05   -0.25795E-05  2908   0.364E-03
  34 F= -.23462893E+04 E0= -.23462871E+04  d E =-.892005E-03  mag=     6.0000
       N       E                     dE             d eps       ncg     rms          rms(c)
DAV:   1    -0.232576591513E+04    0.11211E-02   -0.85844E-02  4592   0.266E-01    0.829E-02
RMM:   2    -0.232576730705E+04   -0.13919E-02   -0.14035E-02  5723   0.475E-02    0.845E-02
RMM:   3    -0.232576746447E+04   -0.15741E-03   -0.15519E-03  3249   0.215E-02    0.945E-02
RMM:   4    -0.232576743277E+04    0.31693E-04   -0.16495E-04  2910   0.516E-03    0.321E-02
RMM:   5    -0.232576742459E+04    0.81868E-05   -0.21249E-05  2795   0.275E-03
  35 F= -.23462899E+04 E0= -.23462877E+04  d E =-.582112E-03  mag=     6.0000
       N       E                     dE             d eps       ncg     rms          rms(c)
DAV:   1    -0.232576668874E+04    0.74403E-03   -0.53689E-02  4480   0.199E-01    0.696E-02
RMM:   2    -0.232576766910E+04   -0.98036E-03   -0.99044E-03  5767   0.369E-02    0.631E-02
RMM:   3    -0.232576777533E+04   -0.10623E-03   -0.10101E-03  3050   0.161E-02    0.745E-02
RMM:   4    -0.232576775768E+04    0.17651E-04   -0.11673E-04  2871   0.429E-03    0.266E-02
RMM:   5    -0.232576775287E+04    0.48109E-05   -0.13791E-05  2726   0.223E-03
  36 F= -.23462904E+04 E0= -.23462882E+04  d E =-.491496E-03  mag=     6.0000
       N       E                     dE             d eps       ncg     rms          rms(c)
DAV:   1    -0.232576681926E+04    0.93842E-03   -0.63123E-02  4448   0.214E-01    0.759E-02
RMM:   2    -0.232576798075E+04   -0.11615E-02   -0.11818E-02  5826   0.398E-02    0.523E-02
RMM:   3    -0.232576810368E+04   -0.12293E-03   -0.11804E-03  3069   0.167E-02    0.564E-02
RMM:   4    -0.232576809952E+04    0.41634E-05   -0.13528E-04  2868   0.433E-03    0.312E-02
RMM:   5    -0.232576809334E+04    0.61748E-05   -0.13384E-05  2749   0.224E-03
  37 F= -.23462909E+04 E0= -.23462887E+04  d E =-.517801E-03  mag=     6.0000
       N       E                     dE             d eps       ncg     rms          rms(c)
DAV:   1    -0.232576705752E+04    0.10420E-02   -0.70174E-02  4456   0.231E-01    0.770E-02
RMM:   2    -0.232576828696E+04   -0.12294E-02   -0.12500E-02  5834   0.423E-02    0.493E-02
RMM:   3    -0.232576840694E+04   -0.11997E-03   -0.12521E-03  3113   0.177E-02    0.315E-02
RMM:   4    -0.232576841425E+04   -0.73174E-05   -0.13786E-04  2880   0.440E-03    0.361E-02
RMM:   5    -0.232576840793E+04    0.63211E-05   -0.14066E-05  2739   0.238E-03
  38 F= -.23462914E+04 E0= -.23462892E+04  d E =-.493763E-03  mag=     6.0000
       N       E                     dE             d eps       ncg     rms          rms(c)
DAV:   1    -0.232576646564E+04    0.19486E-02   -0.11301E-01  4448   0.280E-01    0.100E-01
RMM:   2    -0.232576862441E+04   -0.21588E-02   -0.21822E-02  5883   0.528E-02    0.782E-02
RMM:   3    -0.232576885225E+04   -0.22784E-03   -0.21583E-03  3268   0.214E-02    0.891E-02
RMM:   4    -0.232576883376E+04    0.18494E-04   -0.24802E-04  2874   0.566E-03    0.380E-02
RMM:   5    -0.232576882226E+04    0.11497E-04   -0.22385E-05  2813   0.288E-03    0.230E-02
RMM:   6    -0.232576881882E+04    0.34467E-05   -0.27908E-05  2858   0.305E-03
  39 F= -.23462920E+04 E0= -.23462899E+04  d E =-.648006E-03  mag=     6.0000
       N       E                     dE             d eps       ncg     rms          rms(c)
DAV:   1    -0.232576766792E+04    0.11543E-02   -0.69982E-02  4496   0.219E-01    0.826E-02
RMM:   2    -0.232576900759E+04   -0.13397E-02   -0.13621E-02  5834   0.414E-02    0.715E-02
RMM:   3    -0.232576917586E+04   -0.16827E-03   -0.14997E-03  3096   0.191E-02    0.930E-02
RMM:   4    -0.232576914230E+04    0.33558E-04   -0.16063E-04  2901   0.473E-03    0.283E-02
RMM:   5    -0.232576913714E+04    0.51630E-05   -0.17269E-05  2718   0.233E-03
  40 F= -.23462925E+04 E0= -.23462904E+04  d E =-.498939E-03  mag=     6.0000
       N       E                     dE             d eps       ncg     rms          rms(c)
DAV:   1    -0.232576846236E+04    0.67994E-03   -0.42600E-02  4520   0.166E-01    0.654E-02
RMM:   2    -0.232576933636E+04   -0.87400E-03   -0.87504E-03  5792   0.320E-02    0.702E-02
RMM:   3    -0.232576942359E+04   -0.87224E-04   -0.88224E-04  2965   0.138E-02    0.728E-02
RMM:   4    -0.232576940528E+04    0.18310E-04   -0.10183E-04  2868   0.387E-03    0.215E-02
RMM:   5    -0.232576940200E+04    0.32836E-05   -0.10518E-05  2625   0.188E-03
  41 F= -.23462929E+04 E0= -.23462908E+04  d E =-.409576E-03  mag=     6.0000
       N       E                     dE             d eps       ncg     rms          rms(c)
DAV:   1    -0.232576050558E+04    0.88997E-02   -0.44812E-01  4416   0.546E-01    0.209E-01
RMM:   2    -0.232576931494E+04   -0.88094E-02   -0.89164E-02  5754   0.103E-01    0.186E-01
RMM:   3    -0.232577037120E+04   -0.10563E-02   -0.95297E-03  4526   0.474E-02    0.232E-01
RMM:   4    -0.232577017813E+04    0.19307E-03   -0.10399E-03  3057   0.102E-02    0.696E-02
RMM:   5    -0.232577014091E+04    0.37218E-04   -0.99555E-05  2869   0.528E-03    0.418E-02
RMM:   6    -0.232577011807E+04    0.22835E-04   -0.79692E-05  2986   0.500E-03    0.321E-02
RMM:   7    -0.232577011190E+04    0.61668E-05   -0.14688E-05  2839   0.378E-03
  42 F= -.23462941E+04 E0= -.23462920E+04  d E =-.117949E-02  mag=     6.0000
       N       E                     dE             d eps       ncg     rms          rms(c)
DAV:   1    -0.232576774256E+04    0.23755E-02   -0.12504E-01  4448   0.286E-01    0.111E-01
RMM:   2    -0.232577023660E+04   -0.24940E-02   -0.25295E-02  5844   0.547E-02    0.966E-02
RMM:   3    -0.232577053503E+04   -0.29843E-03   -0.26627E-03  3424   0.258E-02    0.119E-01
RMM:   4    -0.232577048560E+04    0.49436E-04   -0.29386E-04  2895   0.605E-03    0.361E-02
RMM:   5    -0.232577047485E+04    0.10748E-04   -0.27680E-05  2809   0.299E-03    0.219E-02
RMM:   6    -0.232577046950E+04    0.53456E-05   -0.13031E-05  2832   0.234E-03
  43 F= -.23462947E+04 E0= -.23462926E+04  d E =-.604720E-03  mag=     6.0000
       N       E                     dE             d eps       ncg     rms          rms(c)
DAV:   1    -0.232577041936E+04    0.55489E-04   -0.67588E-03  4736   0.693E-02    0.247E-02
RMM:   2    -0.232577055284E+04   -0.13348E-03   -0.12966E-03  4524   0.143E-02    0.377E-02
RMM:   3    -0.232577056273E+04   -0.98897E-05   -0.14846E-04  2817   0.704E-03    0.244E-02
RMM:   4    -0.232577056117E+04    0.15609E-05   -0.16226E-05  2705   0.204E-03
  44 F= -.23462949E+04 E0= -.23462927E+04  d E =-.151112E-03  mag=     6.0000
       N       E                     dE             d eps       ncg     rms          rms(c)
DAV:   1    -0.232576113978E+04    0.94230E-02   -0.45114E-01  4432   0.533E-01    0.213E-01
RMM:   2    -0.232577037486E+04   -0.92351E-02   -0.93038E-02  5791   0.102E-01    0.213E-01
RMM:   3    -0.232577144313E+04   -0.10683E-02   -0.99760E-03  4423   0.484E-02    0.243E-01
RMM:   4    -0.232577123196E+04    0.21117E-03   -0.10848E-03  3128   0.104E-02    0.683E-02
RMM:   5    -0.232577119382E+04    0.38144E-04   -0.10230E-04  2873   0.525E-03    0.423E-02
RMM:   6    -0.232577117056E+04    0.23258E-04   -0.70820E-05  2965   0.472E-03    0.326E-02
RMM:   7    -0.232577116406E+04    0.65054E-05   -0.15947E-05  2829   0.370E-03
  45 F= -.23462960E+04 E0= -.23462938E+04  d E =-.107768E-02  mag=     6.0000
       N       E                     dE             d eps       ncg     rms          rms(c)
DAV:   1    -0.232577079126E+04    0.37930E-03   -0.22773E-02  4592   0.118E-01    0.485E-02
RMM:   2    -0.232577126478E+04   -0.47352E-03   -0.48331E-03  5610   0.235E-02    0.324E-02
RMM:   3    -0.232577131678E+04   -0.52000E-04   -0.47996E-04  2919   0.107E-02    0.324E-02
RMM:   4    -0.232577131606E+04    0.71715E-06   -0.56078E-05  2825   0.277E-03
  46 F= -.23462962E+04 E0= -.23462940E+04  d E =-.262670E-03  mag=     6.0000
       N       E                     dE             d eps       ncg     rms          rms(c)
DAV:   1    -0.232576721770E+04    0.40991E-02   -0.19480E-01  4448   0.342E-01    0.140E-01
RMM:   2    -0.232577137288E+04   -0.41552E-02   -0.41406E-02  5804   0.666E-02    0.165E-01
RMM:   3    -0.232577178285E+04   -0.40997E-03   -0.43033E-03  3606   0.316E-02    0.158E-01
RMM:   4    -0.232577169462E+04    0.88232E-04   -0.47405E-04  2966   0.727E-03    0.426E-02
RMM:   5    -0.232577167827E+04    0.16343E-04   -0.43221E-05  2841   0.355E-03    0.280E-02
RMM:   6    -0.232577166684E+04    0.11438E-04   -0.36023E-05  2916   0.349E-03    0.181E-02
RMM:   7    -0.232577166501E+04    0.18215E-05   -0.65530E-06  2759   0.270E-03
  47 F= -.23462969E+04 E0= -.23462947E+04  d E =-.667469E-03  mag=     6.0000
       N       E                     dE             d eps       ncg     rms          rms(c)
DAV:   1    -0.232577102210E+04    0.64473E-03   -0.30217E-02  4448   0.155E-01    0.549E-02
RMM:   2    -0.232577154566E+04   -0.52356E-03   -0.51787E-03  5329   0.281E-02    0.697E-02
RMM:   3    -0.232577158513E+04   -0.39469E-04   -0.52761E-04  3012   0.142E-02    0.565E-02
RMM:   4    -0.232577157507E+04    0.10061E-04   -0.61977E-05  2850   0.325E-03    0.141E-02
RMM:   5    -0.232577157276E+04    0.23107E-05   -0.57358E-06  2510   0.172E-03
  48 F= -.23462967E+04 E0= -.23462945E+04  d E =0.198744E-03  mag=     6.0000
       N       E                     dE             d eps       ncg     rms          rms(c)
DAV:   1    -0.232577062877E+04    0.94630E-03   -0.47103E-02  4456   0.159E-01    0.758E-02
RMM:   2    -0.232577169508E+04   -0.10663E-02   -0.10608E-02  5660   0.322E-02    0.102E-01
RMM:   3    -0.232577178515E+04   -0.90071E-04   -0.11063E-03  3051   0.165E-02    0.801E-02
RMM:   4    -0.232577176713E+04    0.18021E-04   -0.12714E-04  2894   0.391E-03    0.180E-02
RMM:   5    -0.232577176349E+04    0.36418E-05   -0.10879E-05  2463   0.182E-03
  49 F= -.23462970E+04 E0= -.23462948E+04  d E =-.352246E-03  mag=     6.0000
       N       E                     dE             d eps       ncg     rms          rms(c)
DAV:   1    -0.232576977430E+04    0.19928E-02   -0.93052E-02  4448   0.224E-01    0.981E-02
RMM:   2    -0.232577183972E+04   -0.20654E-02   -0.20767E-02  5925   0.453E-02    0.958E-02
RMM:   3    -0.232577206448E+04   -0.22476E-03   -0.20685E-03  3068   0.191E-02    0.108E-01
RMM:   4    -0.232577202571E+04    0.38771E-04   -0.24276E-04  2890   0.533E-03    0.326E-02
RMM:   5    -0.232577201697E+04    0.87397E-05   -0.21067E-05  2707   0.244E-03
  50 F= -.23462975E+04 E0= -.23462953E+04  d E =-.489334E-03  mag=     6.0000
       N       E                     dE             d eps       ncg     rms          rms(c)
DAV:   1    -0.232576721390E+04    0.48118E-02   -0.21415E-01  4432   0.340E-01    0.149E-01
RMM:   2    -0.232577193811E+04   -0.47242E-02   -0.47708E-02  5965   0.685E-02    0.134E-01
RMM:   3    -0.232577247514E+04   -0.53703E-03   -0.47817E-03  3471   0.286E-02    0.161E-01
RMM:   4    -0.232577238919E+04    0.85954E-04   -0.55355E-04  2933   0.760E-03    0.511E-02
RMM:   5    -0.232577236986E+04    0.19321E-04   -0.50520E-05  2818   0.355E-03    0.311E-02
RMM:   6    -0.232577235756E+04    0.12302E-04   -0.39831E-05  2897   0.333E-03    0.240E-02
RMM:   7    -0.232577235418E+04    0.33864E-05   -0.79005E-06  2741   0.260E-03
  51 F= -.23462982E+04 E0= -.23462960E+04  d E =-.680062E-03  mag=     6.0000
       N       E                     dE             d eps       ncg     rms          rms(c)
DAV:   1    -0.232577199832E+04    0.35924E-03   -0.24522E-02  4592   0.135E-01    0.478E-02
RMM:   2    -0.232577244256E+04   -0.44424E-03   -0.45508E-03  5735   0.248E-02    0.308E-02
RMM:   3    -0.232577248854E+04   -0.45974E-04   -0.42153E-04  2939   0.107E-02    0.316E-02
RMM:   4    -0.232577248758E+04    0.95676E-06   -0.52269E-05  2848   0.275E-03
  52 F= -.23462984E+04 E0= -.23462962E+04  d E =-.233547E-03  mag=     6.0000
       N       E                     dE             d eps       ncg     rms          rms(c)
DAV:   1    -0.232577236333E+04    0.12520E-03   -0.75454E-03  4632   0.647E-02    0.283E-02
RMM:   2    -0.232577253747E+04   -0.17414E-03   -0.16936E-03  4601   0.139E-02    0.420E-02
RMM:   3    -0.232577254869E+04   -0.11222E-04   -0.17366E-04  2856   0.720E-03    0.296E-02
RMM:   4    -0.232577254559E+04    0.31053E-05   -0.20333E-05  2719   0.198E-03
  53 F= -.23462986E+04 E0= -.23462963E+04  d E =-.118395E-03  mag=     6.0000
       N       E                     dE             d eps       ncg     rms          rms(c)
DAV:   1    -0.232576595647E+04    0.65922E-02   -0.28380E-01  4432   0.380E-01    0.174E-01
RMM:   2    -0.232577235810E+04   -0.64016E-02   -0.64516E-02  5853   0.769E-02    0.168E-01
RMM:   3    -0.232577308337E+04   -0.72527E-03   -0.65049E-03  3816   0.367E-02    0.193E-01
RMM:   4    -0.232577295603E+04    0.12734E-03   -0.75330E-04  2992   0.840E-03    0.555E-02
RMM:   5    -0.232577293091E+04    0.25117E-04   -0.64261E-05  2841   0.394E-03    0.344E-02
RMM:   6    -0.232577291545E+04    0.15463E-04   -0.38001E-05  2909   0.329E-03    0.259E-02
RMM:   7    -0.232577291151E+04    0.39392E-05   -0.10868E-05  2754   0.271E-03
  54 F= -.23462993E+04 E0= -.23462971E+04  d E =-.765403E-03  mag=     6.0000
       N       E                     dE             d eps       ncg     rms          rms(c)
DAV:   1    -0.232577054875E+04    0.23667E-02   -0.10388E-01  4464   0.230E-01    0.105E-01
RMM:   2    -0.232577288732E+04   -0.23386E-02   -0.23714E-02  5948   0.468E-02    0.898E-02
RMM:   3    -0.232577315749E+04   -0.27016E-03   -0.23301E-03  3132   0.206E-02    0.111E-01
RMM:   4    -0.232577311693E+04    0.40560E-04   -0.27731E-04  2893   0.544E-03    0.335E-02
RMM:   5    -0.232577310756E+04    0.93657E-05   -0.21844E-05  2735   0.249E-03
  55 F= -.23462998E+04 E0= -.23462975E+04  d E =-.440744E-03  mag=     6.0000
       N       E                     dE             d eps       ncg     rms          rms(c)
DAV:   1    -0.232576872345E+04    0.43935E-02   -0.18748E-01  4472   0.307E-01    0.140E-01
RMM:   2    -0.232577295767E+04   -0.42342E-02   -0.42734E-02  6003   0.627E-02    0.126E-01
RMM:   3    -0.232577344565E+04   -0.48798E-03   -0.43394E-03  3287   0.268E-02    0.149E-01
RMM:   4    -0.232577337605E+04    0.69603E-04   -0.50540E-04  2934   0.711E-03    0.499E-02
RMM:   5    -0.232577335724E+04    0.18808E-04   -0.44182E-05  2800   0.330E-03    0.304E-02
RMM:   6    -0.232577334628E+04    0.10959E-04   -0.29178E-05  2898   0.283E-03    0.232E-02
RMM:   7    -0.232577334309E+04    0.31915E-05   -0.84899E-06  2690   0.233E-03
  56 F= -.23463003E+04 E0= -.23462981E+04  d E =-.553726E-03  mag=     6.0000
       N       E                     dE             d eps       ncg     rms          rms(c)
DAV:   1    -0.232577142285E+04    0.19234E-02   -0.76911E-02  4448   0.211E-01    0.952E-02
RMM:   2    -0.232577313345E+04   -0.17106E-02   -0.16873E-02  5637   0.418E-02    0.129E-01
RMM:   3    -0.232577325153E+04   -0.11808E-03   -0.15903E-03  3197   0.197E-02    0.978E-02
RMM:   4    -0.232577322554E+04    0.25989E-04   -0.20058E-04  2895   0.487E-03    0.222E-02
RMM:   5    -0.232577321947E+04    0.60718E-05   -0.14294E-05  2726   0.220E-03
  57 F= -.23463000E+04 E0= -.23462977E+04  d E =0.324101E-03  mag=     6.0000
       N       E                     dE             d eps       ncg     rms          rms(c)
DAV:   1    -0.232577095365E+04    0.22719E-02   -0.96593E-02  4464   0.210E-01    0.111E-01
RMM:   2    -0.232577321946E+04   -0.22658E-02   -0.22754E-02  5779   0.441E-02    0.138E-01
RMM:   3    -0.232577345019E+04   -0.23073E-03   -0.24285E-03  3199   0.232E-02    0.123E-01
RMM:   4    -0.232577340422E+04    0.45968E-04   -0.28384E-04  2924   0.546E-03    0.274E-02
RMM:   5    -0.232577339636E+04    0.78591E-05   -0.24971E-05  2638   0.245E-03
  58 F= -.23463004E+04 E0= -.23462981E+04  d E =-.408794E-03  mag=     6.0000
       N       E                     dE             d eps       ncg     rms          rms(c)
DAV:   1    -0.232577209361E+04    0.13106E-02   -0.57015E-02  4480   0.163E-01    0.762E-02
RMM:   2    -0.232577341638E+04   -0.13228E-02   -0.13280E-02  5905   0.341E-02    0.700E-02
RMM:   3    -0.232577355872E+04   -0.14234E-03   -0.12950E-03  2945   0.142E-02    0.801E-02
RMM:   4    -0.232577353897E+04    0.19752E-04   -0.15601E-04  2861   0.408E-03    0.284E-02
RMM:   5    -0.232577353276E+04    0.62124E-05   -0.13841E-05  2532   0.190E-03
  59 F= -.23463007E+04 E0= -.23462984E+04  d E =-.315453E-03  mag=     6.0000
       N       E                     dE             d eps       ncg     rms          rms(c)
DAV:   1    -0.232577017220E+04    0.33668E-02   -0.14207E-01  4448   0.258E-01    0.123E-01
RMM:   2    -0.232577344460E+04   -0.32724E-02   -0.33108E-02  6020   0.534E-02    0.105E-01
RMM:   3    -0.232577381344E+04   -0.36883E-03   -0.32040E-03  3145   0.226E-02    0.127E-01
RMM:   4    -0.232577376220E+04    0.51232E-04   -0.38800E-04  2913   0.627E-03    0.426E-02
RMM:   5    -0.232577374891E+04    0.13293E-04   -0.31917E-05  2758   0.280E-03    0.256E-02
RMM:   6    -0.232577374069E+04    0.82241E-05   -0.28504E-05  2867   0.264E-03
  60 F= -.23463012E+04 E0= -.23462989E+04  d E =-.487744E-03  mag=     6.0000
       N       E                     dE             d eps       ncg     rms          rms(c)
DAV:   1    -0.232577215282E+04    0.15961E-02   -0.68227E-02  4496   0.175E-01    0.846E-02
RMM:   2    -0.232577373225E+04   -0.15794E-02   -0.15930E-02  5716   0.366E-02    0.812E-02
RMM:   3    -0.232577391954E+04   -0.18729E-03   -0.16586E-03  3057   0.185E-02    0.943E-02
RMM:   4    -0.232577388998E+04    0.29566E-04   -0.19054E-04  2899   0.441E-03    0.314E-02
RMM:   5    -0.232577388313E+04    0.68500E-05   -0.18183E-05  2587   0.208E-03
  61 F= -.23463015E+04 E0= -.23462993E+04  d E =-.338390E-03  mag=     6.0000
       N       E                     dE             d eps       ncg     rms          rms(c)
DAV:   1    -0.232577387019E+04    0.19787E-04   -0.92615E-04  4728   0.318E-02    0.180E-02
RMM:   2    -0.232577387804E+04   -0.78481E-05   -0.99170E-05  3014   0.622E-03
  62 F= -.23463015E+04 E0= -.23462992E+04  d E =0.156123E-04  mag=     6.0000
       N       E                     dE             d eps       ncg     rms          rms(c)
DAV:   1    -0.232577166698E+04    0.22032E-02   -0.93117E-02  4464   0.203E-01    0.101E-01
RMM:   2    -0.232577379042E+04   -0.21234E-02   -0.21711E-02  5932   0.443E-02    0.610E-02
RMM:   3    -0.232577402719E+04   -0.23677E-03   -0.21290E-03  3057   0.189E-02    0.455E-02
RMM:   4    -0.232577403580E+04   -0.86038E-05   -0.24578E-04  2880   0.474E-03    0.392E-02
RMM:   5    -0.232577402750E+04    0.83014E-05   -0.17070E-05  2693   0.213E-03
  63 F= -.23463019E+04 E0= -.23462996E+04  d E =-.379554E-03  mag=     6.0000
       N       E                     dE             d eps       ncg     rms          rms(c)
DAV:   1    -0.232577375860E+04    0.27719E-03   -0.10316E-02  4448   0.845E-02    0.420E-02
RMM:   2    -0.232577396499E+04   -0.20638E-03   -0.21227E-03  5287   0.169E-02    0.494E-02
RMM:   3    -0.232577398558E+04   -0.20589E-04   -0.21085E-04  2865   0.781E-03    0.487E-02
RMM:   4    -0.232577397582E+04    0.97564E-05   -0.26440E-05  2613   0.238E-03
  64 F= -.23463018E+04 E0= -.23462995E+04  d E =0.109127E-03  mag=     6.0000
       N       E                     dE             d eps       ncg     rms          rms(c)
DAV:   1    -0.232576737785E+04    0.66077E-02   -0.26798E-01  4440   0.339E-01    0.176E-01
RMM:   2    -0.232577366813E+04   -0.62903E-02   -0.63582E-02  6027   0.716E-02    0.172E-01
RMM:   3    -0.232577438005E+04   -0.71193E-03   -0.62242E-03  3641   0.324E-02    0.198E-01
RMM:   4    -0.232577424957E+04    0.13048E-03   -0.74529E-04  2954   0.824E-03    0.515E-02
RMM:   5    -0.232577422776E+04    0.21807E-04   -0.61462E-05  2832   0.369E-03    0.317E-02
RMM:   6    -0.232577421506E+04    0.12707E-04   -0.32375E-05  2877   0.286E-03    0.240E-02
RMM:   7    -0.232577421166E+04    0.34003E-05   -0.86750E-06  2641   0.232E-03
  65 F= -.23463024E+04 E0= -.23463001E+04  d E =-.625467E-03  mag=     6.0000
       N       E                     dE             d eps       ncg     rms          rms(c)
DAV:   1    -0.232577140699E+04    0.28081E-02   -0.11517E-01  4472   0.222E-01    0.112E-01
RMM:   2    -0.232577409744E+04   -0.26905E-02   -0.27337E-02  5965   0.467E-02    0.873E-02
RMM:   3    -0.232577440703E+04   -0.30959E-03   -0.26197E-03  3105   0.208E-02    0.109E-01
RMM:   4    -0.232577437170E+04    0.35330E-04   -0.31939E-04  2898   0.540E-03    0.373E-02
RMM:   5    -0.232577436071E+04    0.10990E-04   -0.24324E-05  2723   0.242E-03    0.218E-02
RMM:   6    -0.232577435508E+04    0.56313E-05   -0.11347E-05  2738   0.186E-03
  66 F= -.23463028E+04 E0= -.23463005E+04  d E =-.400126E-03  mag=     6.0000
       N       E                     dE             d eps       ncg     rms          rms(c)
DAV:   1    -0.232577290089E+04    0.14598E-02   -0.59955E-02  4496   0.156E-01    0.790E-02
RMM:   2    -0.232577432664E+04   -0.14258E-02   -0.14276E-02  5566   0.331E-02    0.833E-02
RMM:   3    -0.232577448151E+04   -0.15486E-03   -0.14096E-03  3057   0.174E-02    0.902E-02
RMM:   4    -0.232577445435E+04    0.27153E-04   -0.16997E-04  2879   0.406E-03    0.279E-02
RMM:   5    -0.232577444807E+04    0.62827E-05   -0.15229E-05  2520   0.191E-03
  67 F= -.23463031E+04 E0= -.23463008E+04  d E =-.281502E-03  mag=     6.0000
       N       E                     dE             d eps       ncg     rms          rms(c)
DAV:   1    -0.232577430260E+04    0.15175E-03   -0.69039E-03  4608   0.581E-02    0.268E-02
RMM:   2    -0.232577445761E+04   -0.15501E-03   -0.15679E-03  4066   0.127E-02    0.185E-02
RMM:   3    -0.232577447191E+04   -0.14304E-04   -0.14167E-04  2818   0.634E-03    0.154E-02
RMM:   4    -0.232577447283E+04   -0.91722E-06   -0.19031E-05  2587   0.175E-03
  68 F= -.23463032E+04 E0= -.23463009E+04  d E =-.954099E-04  mag=     6.0000
       N       E                     dE             d eps       ncg     rms          rms(c)
DAV:   1    -0.232576831329E+04    0.61586E-02   -0.24601E-01  4432   0.318E-01    0.163E-01
RMM:   2    -0.232577414625E+04   -0.58330E-02   -0.58692E-02  5944   0.669E-02    0.160E-01
RMM:   3    -0.232577478670E+04   -0.64045E-03   -0.56618E-03  3511   0.319E-02    0.184E-01
RMM:   4    -0.232577467050E+04    0.11620E-03   -0.69052E-04  2945   0.773E-03    0.511E-02
RMM:   5    -0.232577464846E+04    0.22039E-04   -0.55810E-05  2829   0.350E-03    0.321E-02
RMM:   6    -0.232577463394E+04    0.14520E-04   -0.35530E-05  2892   0.300E-03    0.214E-02
RMM:   7    -0.232577463143E+04    0.25083E-05   -0.79900E-06  2649   0.235E-03
  69 F= -.23463037E+04 E0= -.23463015E+04  d E =-.535460E-03  mag=     6.0000
       N       E                     dE             d eps       ncg     rms          rms(c)
DAV:   1    -0.232577462478E+04    0.91598E-05   -0.11460E-03  4704   0.296E-02    0.141E-02
RMM:   2    -0.232577464606E+04   -0.21282E-04   -0.20874E-04  2915   0.623E-03    0.184E-02
RMM:   3    -0.232577464713E+04   -0.10646E-05   -0.21432E-05  2534   0.377E-03
  70 F= -.23463038E+04 E0= -.23463015E+04  d E =-.394735E-04  mag=     6.0000
       N       E                     dE             d eps       ncg     rms          rms(c)
DAV:   1    -0.232577064508E+04    0.40010E-02   -0.15890E-01  4448   0.250E-01    0.134E-01
RMM:   2    -0.232577443548E+04   -0.37904E-02   -0.38295E-02  6022   0.536E-02    0.124E-01
RMM:   3    -0.232577486134E+04   -0.42586E-03   -0.36425E-03  3184   0.242E-02    0.150E-01
RMM:   4    -0.232577478255E+04    0.78790E-04   -0.45668E-04  2912   0.649E-03    0.404E-02
RMM:   5    -0.232577476915E+04    0.13398E-04   -0.36248E-05  2778   0.281E-03    0.248E-02
RMM:   6    -0.232577476028E+04    0.88723E-05   -0.23131E-05  2814   0.240E-03
  71 F= -.23463042E+04 E0= -.23463020E+04  d E =-.424817E-03  mag=     6.0000
       N       E                     dE             d eps       ncg     rms          rms(c)
DAV:   1    -0.232577259428E+04    0.21749E-02   -0.87077E-02  4456   0.186E-01    0.955E-02
RMM:   2    -0.232577464830E+04   -0.20540E-02   -0.20734E-02  5662   0.395E-02    0.872E-02
RMM:   3    -0.232577488703E+04   -0.23873E-03   -0.20556E-03  3121   0.207E-02    0.103E-01
RMM:   4    -0.232577485418E+04    0.32848E-04   -0.25017E-04  2909   0.474E-03    0.357E-02
RMM:   5    -0.232577484489E+04    0.92943E-05   -0.22030E-05  2599   0.220E-03
  72 F= -.23463045E+04 E0= -.23463022E+04  d E =-.311430E-03  mag=     6.0000
       N       E                     dE             d eps       ncg     rms          rms(c)
DAV:   1    -0.232577467555E+04    0.17863E-03   -0.66455E-03  4432   0.648E-02    0.353E-02
RMM:   2    -0.232577481441E+04   -0.13886E-03   -0.14330E-03  4415   0.132E-02    0.419E-02
RMM:   3    -0.232577482766E+04   -0.13244E-04   -0.13776E-04  2819   0.641E-03    0.397E-02
RMM:   4    -0.232577482205E+04    0.56044E-05   -0.18132E-05  2573   0.202E-03
  73 F= -.23463045E+04 E0= -.23463022E+04  d E =0.656630E-04  mag=     6.0000
       N       E                     dE             d eps       ncg     rms          rms(c)
DAV:   1    -0.232577464303E+04    0.18463E-03   -0.77741E-03  4312   0.539E-02    0.307E-02
RMM:   2    -0.232577482596E+04   -0.18294E-03   -0.18769E-03  3967   0.123E-02    0.231E-02
RMM:   3    -0.232577484735E+04   -0.21390E-04   -0.17483E-04  2743   0.613E-03    0.299E-02
RMM:   4    -0.232577484484E+04    0.25105E-05   -0.21852E-05  2420   0.188E-03
  74 F= -.23463045E+04 E0= -.23463023E+04  d E =-.936437E-04  mag=     6.0000
       N       E                     dE             d eps       ncg     rms          rms(c)
DAV:   1    -0.232577257138E+04    0.22760E-02   -0.89883E-02  4440   0.184E-01    0.984E-02
RMM:   2    -0.232577473371E+04   -0.21623E-02   -0.21739E-02  5761   0.393E-02    0.970E-02
RMM:   3    -0.232577496426E+04   -0.23055E-03   -0.20154E-03  3102   0.193E-02    0.111E-01
RMM:   4    -0.232577492177E+04    0.42487E-04   -0.25695E-04  2888   0.485E-03    0.305E-02
RMM:   5    -0.232577491353E+04    0.82485E-05   -0.19884E-05  2617   0.212E-03
  75 F= -.23463049E+04 E0= -.23463026E+04  d E =-.309631E-03  mag=     6.0000
       N       E                     dE             d eps       ncg     rms          rms(c)
DAV:   1    -0.232577486155E+04    0.60219E-04   -0.36753E-03  4632   0.510E-02    0.192E-02
RMM:   2    -0.232577492770E+04   -0.66148E-04   -0.64024E-04  3524   0.983E-03    0.266E-02
RMM:   3    -0.232577493167E+04   -0.39707E-05   -0.59827E-05  2747   0.529E-03
  76 F= -.23463049E+04 E0= -.23463027E+04  d E =-.556788E-04  mag=     6.0000
       N       E                     dE             d eps       ncg     rms          rms(c)
DAV:   1    -0.232576514640E+04    0.97813E-02   -0.38180E-01  4432   0.378E-01    0.204E-01
RMM:   2    -0.232577421949E+04   -0.90731E-02   -0.91790E-02  6078   0.809E-02    0.177E-01
RMM:   3    -0.232577527068E+04   -0.10512E-02   -0.88804E-03  3796   0.378E-02    0.218E-01
RMM:   4    -0.232577511698E+04    0.15370E-03   -0.11095E-03  2998   0.911E-03    0.686E-02
RMM:   5    -0.232577507953E+04    0.37443E-04   -0.88280E-05  2832   0.417E-03    0.408E-02
RMM:   6    -0.232577505992E+04    0.19617E-04   -0.47589E-05  2903   0.324E-03    0.296E-02
RMM:   7    -0.232577505503E+04    0.48891E-05   -0.15220E-05  2713   0.266E-03
  77 F= -.23463055E+04 E0= -.23463033E+04  d E =-.622279E-03  mag=     6.0000
       N       E                     dE             d eps       ncg     rms          rms(c)
DAV:   1    -0.232577471469E+04    0.34522E-03   -0.12455E-02  4392   0.673E-02    0.427E-02
RMM:   2    -0.232577502196E+04   -0.30726E-03   -0.30571E-03  4501   0.152E-02    0.524E-02
RMM:   3    -0.232577504816E+04   -0.26200E-04   -0.27624E-04  2849   0.732E-03    0.477E-02
RMM:   4    -0.232577504032E+04    0.78334E-05   -0.39460E-05  2586   0.225E-03
  78 F= -.23463054E+04 E0= -.23463032E+04  d E =0.105283E-03  mag=     6.0000
       N       E                     dE             d eps       ncg     rms          rms(c)
DAV:   1    -0.232576483921E+04    0.10209E-01   -0.39015E-01  4432   0.386E-01    0.204E-01
RMM:   2    -0.232577406026E+04   -0.92211E-02   -0.93446E-02  6054   0.822E-02    0.164E-01
RMM:   3    -0.232577512306E+04   -0.10628E-02   -0.88504E-03  3786   0.368E-02    0.217E-01
RMM:   4    -0.232577497138E+04    0.15168E-03   -0.11134E-03  2980   0.899E-03    0.631E-02
RMM:   5    -0.232577493574E+04    0.35641E-04   -0.80192E-05  2854   0.406E-03    0.421E-02
RMM:   6    -0.232577492697E+04    0.87708E-05   -0.33204E-05  2811   0.292E-03
  79 F= -.23463048E+04 E0= -.23463026E+04  d E =0.618242E-03  mag=     6.0000
       N       E                     dE             d eps       ncg     rms          rms(c)
DAV:   1    -0.232577477658E+04    0.15916E-03   -0.60637E-03  4216   0.462E-02    0.415E-02
RMM:   2    -0.232577491052E+04   -0.13394E-03   -0.15451E-03  3763   0.116E-02    0.198E-02
RMM:   3    -0.232577493344E+04   -0.22928E-04   -0.16801E-04  2795   0.651E-03    0.257E-02
RMM:   4    -0.232577493237E+04    0.10685E-05   -0.23426E-05  2483   0.197E-03
  80 F= -.23463049E+04 E0= -.23463026E+04  d E =-.683777E-04  mag=     6.0000
       N       E                     dE             d eps       ncg     rms          rms(c)
DAV:   1    -0.232577492384E+04    0.95998E-05   -0.31211E-04  4400   0.143E-02    0.951E-03
RMM:   2    -0.232577493113E+04   -0.72913E-05   -0.66210E-05  2596   0.372E-03
  81 F= -.23463049E+04 E0= -.23463026E+04  d E =0.127701E-04  mag=     6.0000
       N       E                     dE             d eps       ncg     rms          rms(c)
DAV:   1    -0.232577492949E+04   -0.56507E-05   -0.22920E-05  2560   0.352E-03    0.823E-03
RMM:   2    -0.232577493305E+04   -0.35539E-05   -0.89443E-06  2130   0.178E-03
  82 F= -.23463049E+04 E0= -.23463026E+04  d E =-.438813E-06  mag=     6.0000
       N       E                     dE             d eps       ncg     rms          rms(c)
DAV:   1    -0.232577492991E+04   -0.42087E-06   -0.21067E-05  2384   0.231E-03    0.285E-03
RMM:   2    -0.232577493002E+04   -0.10915E-06   -0.68699E-07  1014   0.705E-04
  83 F= -.23463049E+04 E0= -.23463026E+04  d E =0.282406E-05  mag=     6.0000
       N       E                     dE             d eps       ncg     rms          rms(c)
DAV:   1    -0.232577485279E+04    0.77128E-04   -0.27461E-03  4288   0.433E-02    0.187E-02
RMM:   2    -0.232577491217E+04   -0.59380E-04   -0.57475E-04  3324   0.866E-03    0.305E-02
RMM:   3    -0.232577491462E+04   -0.24562E-05   -0.59296E-05  2462   0.473E-03
  84 F= -.23463048E+04 E0= -.23463026E+04  d E =0.378401E-04  mag=     6.0000
       N       E                     dE             d eps       ncg     rms          rms(c)
DAV:   1    -0.232577487437E+04    0.37799E-04   -0.23279E-03  4152   0.344E-02    0.175E-02
RMM:   2    -0.232577492100E+04   -0.46628E-04   -0.47604E-04  3150   0.766E-03    0.192E-02
RMM:   3    -0.232577492574E+04   -0.47415E-05   -0.50117E-05  2401   0.477E-03
  85 F= -.23463049E+04 E0= -.23463026E+04  d E =-.501908E-04  mag=     6.0000
       N       E                     dE             d eps       ncg     rms          rms(c)
DAV:   1    -0.232577487634E+04    0.44653E-04   -0.17261E-03  4144   0.322E-02    0.140E-02
RMM:   2    -0.232577491187E+04   -0.35526E-04   -0.37027E-04  2997   0.694E-03    0.935E-03
RMM:   3    -0.232577491582E+04   -0.39542E-05   -0.34679E-05  2281   0.420E-03
  86 F= -.23463048E+04 E0= -.23463026E+04  d E =0.322930E-04  mag=     6.0000
       N       E                     dE             d eps       ncg     rms          rms(c)
DAV:   1    -0.232577491620E+04   -0.43305E-05   -0.36116E-05  2832   0.462E-03    0.464E-03
RMM:   2    -0.232577491706E+04   -0.85554E-06   -0.76551E-06  2230   0.189E-03
  87 F= -.23463048E+04 E0= -.23463026E+04  d E =-.538588E-05  mag=     6.0000
       N       E                     dE             d eps       ncg     rms          rms(c)
DAV:   1    -0.232577490780E+04    0.84031E-05   -0.26323E-04  4224   0.128E-02    0.509E-03
RMM:   2    -0.232577491341E+04   -0.56135E-05   -0.56448E-05  2382   0.305E-03
  88 F= -.23463048E+04 E0= -.23463026E+04  d E =0.130669E-04  mag=     6.0000
       N       E                     dE             d eps       ncg     rms          rms(c)
DAV:   1    -0.232577490775E+04    0.45184E-07   -0.21449E-04  4080   0.118E-02    0.468E-03
RMM:   2    -0.232577491291E+04   -0.51581E-05   -0.50301E-05  2337   0.315E-03
  89 F= -.23463048E+04 E0= -.23463026E+04  d E =0.934404E-05  mag=     6.0000
       N       E                     dE             d eps       ncg     rms          rms(c)
DAV:   1    -0.232577468744E+04    0.22032E-03   -0.10596E-02  4392   0.745E-02    0.365E-02
RMM:   2    -0.232577492105E+04   -0.23362E-03   -0.23763E-03  4581   0.157E-02    0.357E-02
RMM:   3    -0.232577494847E+04   -0.27420E-04   -0.23659E-04  2808   0.765E-03    0.380E-02
RMM:   4    -0.232577494399E+04    0.44789E-05   -0.29306E-05  2442   0.222E-03
  90 F= -.23463049E+04 E0= -.23463027E+04  d E =-.960118E-04  mag=     6.0000
       N       E                     dE             d eps       ncg     rms          rms(c)
DAV:   1    -0.232577486779E+04    0.80683E-04   -0.36699E-03  4280   0.412E-02    0.178E-02
RMM:   2    -0.232577494829E+04   -0.80504E-04   -0.80437E-04  3307   0.931E-03    0.127E-02
RMM:   3    -0.232577495615E+04   -0.78585E-05   -0.82230E-05  2490   0.545E-03
  91 F= -.23463050E+04 E0= -.23463028E+04  d E =-.626023E-04  mag=     6.0000
       N       E                     dE             d eps       ncg     rms          rms(c)
DAV:   1    -0.232577492840E+04    0.19895E-04   -0.23464E-03  4344   0.359E-02    0.144E-02
RMM:   2    -0.232577497552E+04   -0.47118E-04   -0.46868E-04  3114   0.816E-03    0.107E-02
RMM:   3    -0.232577498030E+04   -0.47856E-05   -0.54654E-05  2451   0.515E-03
  92 F= -.23463050E+04 E0= -.23463028E+04  d E =-.488081E-04  mag=     6.0000
       N       E                     dE             d eps       ncg     rms          rms(c)
DAV:   1    -0.232577488655E+04    0.88971E-04   -0.45740E-03  4320   0.456E-02    0.202E-02
RMM:   2    -0.232577498965E+04   -0.10310E-03   -0.10288E-03  3456   0.100E-02    0.174E-02
RMM:   3    -0.232577499983E+04   -0.10188E-04   -0.96362E-05  2642   0.570E-03    0.198E-02
RMM:   4    -0.232577499906E+04    0.77745E-06   -0.13605E-05  2349   0.169E-03
  93 F= -.23463051E+04 E0= -.23463029E+04  d E =-.728680E-04  mag=     6.0000
       N       E                     dE             d eps       ncg     rms          rms(c)
DAV:   1    -0.232577495536E+04    0.44479E-04   -0.14716E-03  4368   0.308E-02    0.162E-02
RMM:   2    -0.232577498368E+04   -0.28320E-04   -0.28110E-04  3056   0.741E-03    0.225E-02
RMM:   3    -0.232577498503E+04   -0.13530E-05   -0.32176E-05  2401   0.464E-03
  94 F= -.23463051E+04 E0= -.23463029E+04  d E =0.305448E-04  mag=     6.0000
       N       E                     dE             d eps       ncg     rms          rms(c)
DAV:   1    -0.232577493975E+04    0.43928E-04   -0.16934E-03  4336   0.296E-02    0.147E-02
RMM:   2    -0.232577497746E+04   -0.37710E-04   -0.38494E-04  3024   0.734E-03    0.114E-02
RMM:   3    -0.232577498200E+04   -0.45432E-05   -0.40205E-05  2412   0.462E-03
  95 F= -.23463050E+04 E0= -.23463028E+04  d E =0.369673E-04  mag=     6.0000
       N       E                     dE             d eps       ncg     rms          rms(c)
DAV:   1    -0.232577498196E+04   -0.45021E-05   -0.71709E-05  4392   0.868E-03    0.570E-03
RMM:   2    -0.232577498270E+04   -0.74570E-06   -0.73088E-06  2277   0.222E-03
  96 F= -.23463050E+04 E0= -.23463028E+04  d E =-.481721E-05  mag=     6.0000
       N       E                     dE             d eps       ncg     rms          rms(c)
DAV:   1    -0.232577498425E+04   -0.22888E-05   -0.66668E-05  4024   0.780E-03    0.484E-03
RMM:   2    -0.232577498577E+04   -0.15181E-05   -0.11810E-05  2263   0.239E-03
  97 F= -.23463050E+04 E0= -.23463028E+04  d E =-.619123E-05  mag=     6.0000
       N       E                     dE             d eps       ncg     rms          rms(c)
DAV:   1    -0.232577497960E+04    0.46505E-05   -0.43771E-04  4160   0.190E-02    0.728E-03
RMM:   2    -0.232577498691E+04   -0.73087E-05   -0.71937E-05  2497   0.467E-03
  98 F= -.23463051E+04 E0= -.23463029E+04  d E =-.153657E-04  mag=     6.0000
       N       E                     dE             d eps       ncg     rms          rms(c)
DAV:   1    -0.232577491155E+04    0.68047E-04   -0.36075E-03  4280   0.404E-02    0.197E-02
RMM:   2    -0.232577499645E+04   -0.84900E-04   -0.83921E-04  3252   0.102E-02    0.247E-02
RMM:   3    -0.232577500541E+04   -0.89640E-05   -0.96354E-05  2544   0.604E-03
  99 F= -.23463051E+04 E0= -.23463029E+04  d E =-.639376E-04  mag=     6.0000
       N       E                     dE             d eps       ncg     rms          rms(c)
DAV:   1    -0.232577498411E+04    0.12339E-04   -0.14463E-03  4224   0.269E-02    0.113E-02
RMM:   2    -0.232577501662E+04   -0.32509E-04   -0.32304E-04  2912   0.669E-03    0.845E-03
RMM:   3    -0.232577501982E+04   -0.32002E-05   -0.35423E-05  2302   0.424E-03
 100 F= -.23463052E+04 E0= -.23463030E+04  d E =-.398293E-04  mag=     6.0000
       N       E                     dE             d eps       ncg     rms          rms(c)
DAV:   1    -0.232577500348E+04    0.13136E-04   -0.50948E-04  4112   0.186E-02    0.124E-02
RMM:   2    -0.232577501388E+04   -0.10399E-04   -0.92940E-05  2623   0.424E-03    0.248E-02
RMM:   3    -0.232577501239E+04    0.14976E-05   -0.10638E-05  2254   0.276E-03
 101 F= -.23463052E+04 E0= -.23463029E+04  d E =0.187977E-04  mag=     6.0000
       N       E                     dE             d eps       ncg     rms          rms(c)
DAV:   1    -0.232577497467E+04    0.39208E-04   -0.21137E-03  4096   0.295E-02    0.144E-02
RMM:   2    -0.232577502059E+04   -0.45915E-04   -0.46800E-04  2984   0.655E-03    0.909E-03
RMM:   3    -0.232577502527E+04   -0.46799E-05   -0.43066E-05  2298   0.402E-03
 102 F= -.23463052E+04 E0= -.23463030E+04  d E =-.491295E-04  mag=     6.0000
       N       E                     dE             d eps       ncg     rms          rms(c)
DAV:   1    -0.232577502422E+04   -0.36328E-05   -0.28645E-04  4184   0.139E-02    0.656E-03
RMM:   2    -0.232577503080E+04   -0.65783E-05   -0.60005E-05  2519   0.374E-03
 103 F= -.23463052E+04 E0= -.23463030E+04  d E =-.157512E-04  mag=     6.0000
       N       E                     dE             d eps       ncg     rms          rms(c)
DAV:   1    -0.232577497601E+04    0.48214E-04   -0.30056E-03  4216   0.360E-02    0.164E-02
RMM:   2    -0.232577504293E+04   -0.66923E-04   -0.67235E-04  3160   0.884E-03    0.103E-02
RMM:   3    -0.232577504988E+04   -0.69530E-05   -0.71635E-05  2444   0.544E-03
 104 F= -.23463053E+04 E0= -.23463031E+04  d E =-.554835E-04  mag=     6.0000
       N       E                     dE             d eps       ncg     rms          rms(c)
DAV:   1    -0.232577432074E+04    0.72219E-03   -0.31938E-02  4440   0.112E-01    0.563E-02
RMM:   2    -0.232577504903E+04   -0.72828E-03   -0.72092E-03  5358   0.231E-02    0.672E-02
RMM:   3    -0.232577511539E+04   -0.66364E-04   -0.67862E-04  2914   0.115E-02    0.649E-02
RMM:   4    -0.232577510122E+04    0.14169E-04   -0.89630E-05  2846   0.315E-03    0.167E-02
RMM:   5    -0.232577509797E+04    0.32537E-05   -0.63815E-06  2495   0.152E-03
 105 F= -.23463055E+04 E0= -.23463033E+04  d E =-.184610E-03  mag=     6.0000
       N       E                     dE             d eps       ncg     rms          rms(c)
DAV:   1    -0.232577484781E+04    0.25341E-03   -0.11746E-02  4424   0.695E-02    0.333E-02
RMM:   2    -0.232577510289E+04   -0.25508E-03   -0.25704E-03  4336   0.145E-02    0.230E-02
RMM:   3    -0.232577512888E+04   -0.25984E-04   -0.23555E-04  2824   0.712E-03    0.263E-02
RMM:   4    -0.232577512789E+04    0.98771E-06   -0.30923E-05  2610   0.202E-03
 106 F= -.23463056E+04 E0= -.23463034E+04  d E =-.114720E-03  mag=     6.0000
       N       E                     dE             d eps       ncg     rms          rms(c)
DAV:   1    -0.232577333247E+04    0.17964E-02   -0.72501E-02  4432   0.170E-01    0.880E-02
RMM:   2    -0.232577490194E+04   -0.15695E-02   -0.16063E-02  5843   0.348E-02    0.506E-02
RMM:   3    -0.232577506474E+04   -0.16279E-03   -0.14172E-03  2983   0.157E-02    0.563E-02
RMM:   4    -0.232577506312E+04    0.16208E-05   -0.18804E-04  2862   0.405E-03    0.295E-02
RMM:   5    -0.232577505630E+04    0.68102E-05   -0.11038E-05  2544   0.190E-03
 107 F= -.23463053E+04 E0= -.23463031E+04  d E =0.272152E-03  mag=     6.0000
       N       E                     dE             d eps       ncg     rms          rms(c)
DAV:   1    -0.232577505576E+04    0.73593E-05   -0.28605E-05  3648   0.399E-03    0.110E-02
RMM:   2    -0.232577506334E+04   -0.75798E-05   -0.14883E-05  2414   0.238E-03
 108 F= -.23463053E+04 E0= -.23463031E+04  d E =-.781172E-05  mag=     6.0000
       N       E                     dE             d eps       ncg     rms          rms(c)
[...]
       N       E                     dE             d eps       ncg     rms          rms(c)
DAV:   1    -0.232577520747E+04    0.47902E-04   -0.23235E-03  4168   0.288E-02    0.154E-02
RMM:   2    -0.232577526191E+04   -0.54439E-04   -0.53194E-04  3073   0.754E-03    0.204E-02
RMM:   3    -0.232577526698E+04   -0.50681E-05   -0.60892E-05  2377   0.486E-03
 153 F= -.23463063E+04 E0= -.23463042E+04  d E =-.496829E-04  mag=     6.0000
       N       E                     dE             d eps       ncg     rms          rms(c)
DAV:   1    -0.232577526497E+04   -0.30572E-05   -0.81408E-04  4336   0.239E-02    0.984E-03
RMM:   2    -0.232577528088E+04   -0.15910E-04   -0.16185E-04  2834   0.599E-03    0.763E-03
RMM:   3    -0.232577528223E+04   -0.13565E-05   -0.17967E-05  2317   0.389E-03
 154 F= -.23463064E+04 E0= -.23463043E+04  d E =-.288531E-04  mag=     6.0000
       N       E                     dE             d eps       ncg     rms          rms(c)
DAV:   1    -0.232577527646E+04    0.44129E-05   -0.60574E-04  4176   0.174E-02    0.772E-03
RMM:   2    -0.232577529001E+04   -0.13546E-04   -0.13231E-04  2632   0.443E-03    0.103E-02
RMM:   3    -0.232577529130E+04   -0.12885E-05   -0.15500E-05  2248   0.309E-03
 155 F= -.23463064E+04 E0= -.23463043E+04  d E =-.279172E-04  mag=     6.0000
       N       E                     dE             d eps       ncg     rms          rms(c)
DAV:   1    -0.232577528690E+04    0.31053E-05   -0.32196E-04  4080   0.107E-02    0.540E-03
RMM:   2    -0.232577529446E+04   -0.75563E-05   -0.74968E-05  2450   0.287E-03
 156 F= -.23463064E+04 E0= -.23463043E+04  d E =-.185168E-04  mag=     6.0000
       N       E                     dE             d eps       ncg     rms          rms(c)
DAV:   1    -0.232577529241E+04   -0.55106E-05   -0.19522E-04  3240   0.847E-03    0.420E-03
RMM:   2    -0.232577529765E+04   -0.52399E-05   -0.50225E-05  2311   0.320E-03
 157 F= -.23463064E+04 E0= -.23463043E+04  d E =-.147414E-04  mag=     6.0000
       N       E                     dE             d eps       ncg     rms          rms(c)
DAV:   1    -0.232577523784E+04    0.54572E-04   -0.26747E-03  4088   0.276E-02    0.154E-02
RMM:   2    -0.232577530112E+04   -0.63278E-04   -0.62947E-04  3071   0.707E-03    0.135E-02
RMM:   3    -0.232577530856E+04   -0.74416E-05   -0.71468E-05  2332   0.456E-03
 158 F= -.23463065E+04 E0= -.23463044E+04  d E =-.529958E-04  mag=     6.0000
       N       E                     dE             d eps       ncg     rms          rms(c)
DAV:   1    -0.232577529060E+04    0.10517E-04   -0.88571E-04  4168   0.174E-02    0.886E-03
RMM:   2    -0.232577531177E+04   -0.21168E-04   -0.20929E-04  2720   0.453E-03    0.693E-03
RMM:   3    -0.232577531390E+04   -0.21279E-05   -0.24851E-05  2238   0.310E-03
 159 F= -.23463065E+04 E0= -.23463044E+04  d E =-.308632E-04  mag=     6.0000
       N       E                     dE             d eps       ncg     rms          rms(c)
DAV:   1    -0.232577531415E+04   -0.23783E-05   -0.10342E-04  3216   0.615E-03    0.734E-03
RMM:   2    -0.232577531883E+04   -0.46828E-05   -0.27871E-05  2313   0.204E-03
 160 F= -.23463065E+04 E0= -.23463044E+04  d E =-.127328E-04  mag=     6.0000
       N       E                     dE             d eps       ncg     rms          rms(c)
DAV:   1    -0.232577529494E+04    0.19207E-04   -0.69470E-04  3904   0.140E-02    0.104E-02
RMM:   2    -0.232577531012E+04   -0.15174E-04   -0.15863E-04  2598   0.364E-03    0.841E-03
RMM:   3    -0.232577531213E+04   -0.20180E-05   -0.15183E-05  2136   0.238E-03
 161 F= -.23463065E+04 E0= -.23463044E+04  d E =0.281875E-04  mag=     6.0000
       N       E                     dE             d eps       ncg     rms          rms(c)
DAV:   1    -0.232577529404E+04    0.16071E-04   -0.86239E-04  4136   0.172E-02    0.104E-02
RMM:   2    -0.232577531303E+04   -0.18988E-04   -0.19557E-04  2717   0.426E-03    0.893E-03
RMM:   3    -0.232577531536E+04   -0.23323E-05   -0.19156E-05  2225   0.285E-03
 162 F= -.23463065E+04 E0= -.23463044E+04  d E =-.267094E-04  mag=     6.0000
       N       E                     dE             d eps       ncg     rms          rms(c)
DAV:   1    -0.232577531072E+04    0.23170E-05   -0.18064E-04  4136   0.112E-02    0.495E-03
RMM:   2    -0.232577531430E+04   -0.35800E-05   -0.36245E-05  2301   0.301E-03
 163 F= -.23463065E+04 E0= -.23463044E+04  d E =-.956498E-05  mag=     6.0000
       N       E                     dE             d eps       ncg     rms          rms(c)
DAV:   1    -0.232577528589E+04    0.24821E-04   -0.10727E-03  4216   0.222E-02    0.126E-02
RMM:   2    -0.232577531289E+04   -0.26997E-04   -0.24639E-04  2848   0.595E-03    0.267E-02
RMM:   3    -0.232577531230E+04    0.59052E-06   -0.27787E-05  2296   0.380E-03
 164 F= -.23463066E+04 E0= -.23463045E+04  d E =-.251546E-04  mag=     6.0000
       N       E                     dE             d eps       ncg     rms          rms(c)
DAV:   1    -0.232577515024E+04    0.16265E-03   -0.74951E-03  4328   0.495E-02    0.268E-02
RMM:   2    -0.232577531852E+04   -0.16827E-03   -0.16892E-03  3652   0.114E-02    0.197E-02
RMM:   3    -0.232577533563E+04   -0.17112E-04   -0.16366E-04  2725   0.644E-03    0.198E-02
RMM:   4    -0.232577533565E+04   -0.26965E-07   -0.21422E-05  2430   0.176E-03
 165 F= -.23463067E+04 E0= -.23463046E+04  d E =-.890119E-04  mag=     6.0000
       N       E                     dE             d eps       ncg     rms          rms(c)
DAV:   1    -0.232577521095E+04    0.12467E-03   -0.54685E-03  4280   0.416E-02    0.223E-02
RMM:   2    -0.232577533584E+04   -0.12489E-03   -0.12233E-03  3362   0.971E-03    0.278E-02
RMM:   3    -0.232577534769E+04   -0.11851E-04   -0.12949E-04  2677   0.582E-03    0.252E-02
RMM:   4    -0.232577534543E+04    0.22590E-05   -0.15711E-05  2349   0.165E-03
 166 F= -.23463067E+04 E0= -.23463046E+04  d E =-.713318E-04  mag=     6.0000
       N       E                     dE             d eps       ncg     rms          rms(c)
DAV:   1    -0.232577483819E+04    0.50950E-03   -0.19948E-02  4432   0.769E-02    0.494E-02
RMM:   2    -0.232577529150E+04   -0.45331E-03   -0.45642E-03  4602   0.179E-02    0.518E-02
RMM:   3    -0.232577534107E+04   -0.49573E-04   -0.46883E-04  2879   0.921E-03    0.528E-02
RMM:   4    -0.232577533280E+04    0.82752E-05   -0.59526E-05  2721   0.277E-03
 167 F= -.23463066E+04 E0= -.23463045E+04  d E =0.130404E-03  mag=     6.0000
       N       E                     dE             d eps       ncg     rms          rms(c)
DAV:   1    -0.232577532981E+04    0.11262E-04   -0.17452E-04  4256   0.111E-02    0.988E-03
RMM:   2    -0.232577533276E+04   -0.29498E-05   -0.35965E-05  2464   0.296E-03
 168 F= -.23463066E+04 E0= -.23463045E+04  d E =-.126328E-04  mag=     6.0000
       N       E                     dE             d eps       ncg     rms          rms(c)
DAV:   1    -0.232577532907E+04    0.74369E-06   -0.23595E-04  3912   0.101E-02    0.967E-03
RMM:   2    -0.232577533892E+04   -0.98531E-05   -0.61231E-05  2510   0.329E-03
 169 F= -.23463066E+04 E0= -.23463045E+04  d E =-.175346E-04  mag=     6.0000
       N       E                     dE             d eps       ncg     rms          rms(c)
DAV:   1    -0.232577529591E+04    0.33155E-04   -0.18482E-03  4112   0.241E-02    0.134E-02
RMM:   2    -0.232577533968E+04   -0.43763E-04   -0.44232E-04  2978   0.649E-03    0.832E-03
RMM:   3    -0.232577534505E+04   -0.53781E-05   -0.53918E-05  2259   0.428E-03
 170 F= -.23463067E+04 E0= -.23463046E+04  d E =-.365479E-04  mag=     6.0000
       N       E                     dE             d eps       ncg     rms          rms(c)
DAV:   1    -0.232577530685E+04    0.32828E-04   -0.18183E-03  4152   0.249E-02    0.128E-02
RMM:   2    -0.232577534979E+04   -0.42945E-04   -0.42515E-04  2911   0.616E-03    0.116E-02
RMM:   3    -0.232577535494E+04   -0.51448E-05   -0.48706E-05  2302   0.403E-03
 171 F= -.23463067E+04 E0= -.23463046E+04  d E =-.454041E-04  mag=     6.0000
       N       E                     dE             d eps       ncg     rms          rms(c)
DAV:   1    -0.232577534214E+04    0.76536E-05   -0.63677E-04  4208   0.147E-02    0.758E-03
RMM:   2    -0.232577535713E+04   -0.14992E-04   -0.14815E-04  2634   0.377E-03    0.667E-03
RMM:   3    -0.232577535854E+04   -0.14051E-05   -0.16665E-05  2219   0.256E-03
 172 F= -.23463067E+04 E0= -.23463047E+04  d E =-.248567E-04  mag=     6.0000
       N       E                     dE             d eps       ncg     rms          rms(c)
DAV:   1    -0.232577535433E+04    0.27965E-05   -0.99207E-05  4032   0.810E-03    0.610E-03
RMM:   2    -0.232577535618E+04   -0.18496E-05   -0.18840E-05  2268   0.200E-03
 173 F= -.23463067E+04 E0= -.23463046E+04  d E =0.782641E-05  mag=     6.0000
       N       E                     dE             d eps       ncg     rms          rms(c)
DAV:   1    -0.232577532411E+04    0.30228E-04   -0.84050E-04  4096   0.177E-02    0.102E-02
RMM:   2    -0.232577534391E+04   -0.19803E-04   -0.19519E-04  2677   0.467E-03    0.136E-02
RMM:   3    -0.232577534578E+04   -0.18665E-05   -0.21973E-05  2237   0.316E-03
 174 F= -.23463067E+04 E0= -.23463046E+04  d E =0.289433E-04  mag=     6.0000
       N       E                     dE             d eps       ncg     rms          rms(c)
DAV:   1    -0.232577534641E+04   -0.24974E-05   -0.68284E-06  2336   0.190E-03    0.248E-03
RMM:   2    -0.232577534637E+04    0.31941E-07   -0.62126E-07  1845   0.960E-04
 175 F= -.23463067E+04 E0= -.23463046E+04  d E =-.778553E-06  mag=     6.0000
       N       E                     dE             d eps       ncg     rms          rms(c)
DAV:   1    -0.232577533781E+04    0.85995E-05   -0.98003E-05  3648   0.776E-03    0.409E-03
RMM:   2    -0.232577534015E+04   -0.23452E-05   -0.19928E-05  2261   0.218E-03
 176 F= -.23463067E+04 E0= -.23463046E+04  d E =0.109824E-04  mag=     6.0000
       N       E                     dE             d eps       ncg     rms          rms(c)
DAV:   1    -0.232577523012E+04    0.10769E-03   -0.50702E-03  4328   0.418E-02    0.239E-02
RMM:   2    -0.232577534238E+04   -0.11226E-03   -0.11482E-03  3374   0.102E-02    0.141E-02
RMM:   3    -0.232577535413E+04   -0.11752E-04   -0.10424E-04  2578   0.586E-03    0.161E-02
RMM:   4    -0.232577535381E+04    0.31714E-06   -0.13919E-05  2224   0.161E-03
 177 F= -.23463068E+04 E0= -.23463047E+04  d E =-.668806E-04  mag=     6.0000
       N       E                     dE             d eps       ncg     rms          rms(c)
DAV:   1    -0.232577534408E+04    0.10050E-04   -0.57525E-04  4152   0.175E-02    0.696E-03
RMM:   2    -0.232577535612E+04   -0.12037E-04   -0.11969E-04  2598   0.460E-03    0.523E-03
RMM:   3    -0.232577535714E+04   -0.10265E-05   -0.12215E-05  2223   0.309E-03
 178 F= -.23463068E+04 E0= -.23463047E+04  d E =-.267654E-04  mag=     6.0000
       N       E                     dE             d eps       ncg     rms          rms(c)
DAV:   1    -0.232577531321E+04    0.42904E-04   -0.22081E-03  4168   0.274E-02    0.146E-02
RMM:   2    -0.232577536360E+04   -0.50381E-04   -0.49948E-04  2970   0.639E-03    0.155E-02
RMM:   3    -0.232577536894E+04   -0.53449E-05   -0.51861E-05  2358   0.415E-03
 179 F= -.23463068E+04 E0= -.23463048E+04  d E =-.486898E-04  mag=     6.0000
       N       E                     dE             d eps       ncg     rms          rms(c)
DAV:   1    -0.232577535496E+04    0.86347E-05   -0.11586E-03  4328   0.243E-02    0.110E-02
RMM:   2    -0.232577538033E+04   -0.25368E-04   -0.25465E-04  2888   0.620E-03    0.840E-03
RMM:   3    -0.232577538266E+04   -0.23294E-05   -0.27679E-05  2337   0.396E-03
 180 F= -.23463069E+04 E0= -.23463048E+04  d E =-.321501E-04  mag=     6.0000
       N       E                     dE             d eps       ncg     rms          rms(c)
DAV:   1    -0.232577536447E+04    0.15861E-04   -0.10790E-03  4176   0.207E-02    0.976E-03
RMM:   2    -0.232577538935E+04   -0.24877E-04   -0.24423E-04  2781   0.517E-03    0.118E-02
RMM:   3    -0.232577539181E+04   -0.24620E-05   -0.26959E-05  2273   0.354E-03
 181 F= -.23463069E+04 E0= -.23463048E+04  d E =-.361225E-04  mag=     6.0000
       N       E                     dE             d eps       ncg     rms          rms(c)
DAV:   1    -0.232577537916E+04    0.10182E-04   -0.63782E-04  4224   0.144E-02    0.742E-03
RMM:   2    -0.232577539405E+04   -0.14883E-04   -0.14734E-04  2624   0.373E-03    0.621E-03
RMM:   3    -0.232577539547E+04   -0.14199E-05   -0.16285E-05  2227   0.254E-03
 182 F= -.23463069E+04 E0= -.23463049E+04  d E =-.259830E-04  mag=     6.0000
       N       E                     dE             d eps       ncg     rms          rms(c)
DAV:   1    -0.232577539561E+04   -0.15671E-05   -0.71559E-05  2808   0.477E-03    0.368E-03
RMM:   2    -0.232577539779E+04   -0.21762E-05   -0.18091E-05  2073   0.161E-03
 183 F= -.23463069E+04 E0= -.23463049E+04  d E =-.931928E-05  mag=     6.0000
       N       E                     dE             d eps       ncg     rms          rms(c)
DAV:   1    -0.232577539709E+04   -0.14786E-05   -0.39578E-05  2512   0.368E-03    0.223E-03
RMM:   2    -0.232577539812E+04   -0.10267E-05   -0.10237E-05  1921   0.154E-03
 184 F= -.23463069E+04 E0= -.23463049E+04  d E =-.570148E-05  mag=     6.0000
       N       E                     dE             d eps       ncg     rms          rms(c)
DAV:   1    -0.232577539707E+04    0.21479E-07   -0.34886E-05  2480   0.354E-03    0.314E-03
RMM:   2    -0.232577539778E+04   -0.70705E-06   -0.70137E-06  1693   0.118E-03
 185 F= -.23463069E+04 E0= -.23463049E+04  d E =0.586438E-05  mag=     6.0000
       N       E                     dE             d eps       ncg     rms          rms(c)
DAV:   1    -0.232577529968E+04    0.97387E-04   -0.43339E-03  4184   0.357E-02    0.212E-02
RMM:   2    -0.232577539669E+04   -0.97005E-04   -0.98006E-04  3260   0.839E-03    0.159E-02
RMM:   3    -0.232577540787E+04   -0.11178E-04   -0.99068E-05  2514   0.510E-03    0.203E-02
RMM:   4    -0.232577540688E+04    0.98480E-06   -0.12304E-05  1694   0.134E-03
 186 F= -.23463070E+04 E0= -.23463049E+04  d E =-.625762E-04  mag=     6.0000
       N       E                     dE             d eps       ncg     rms          rms(c)
DAV:   1    -0.232577539916E+04    0.87025E-05   -0.41670E-04  4256   0.133E-02    0.599E-03
RMM:   2    -0.232577540847E+04   -0.93062E-05   -0.90840E-05  2514   0.348E-03
 187 F= -.23463070E+04 E0= -.23463050E+04  d E =-.226515E-04  mag=     6.0000
       N       E                     dE             d eps       ncg     rms          rms(c)
DAV:   1    -0.232577535667E+04    0.42496E-04   -0.22684E-03  4104   0.257E-02    0.149E-02
RMM:   2    -0.232577541322E+04   -0.56550E-04   -0.54427E-04  3003   0.683E-03    0.240E-02
RMM:   3    -0.232577541653E+04   -0.33081E-05   -0.55485E-05  2376   0.445E-03
 188 F= -.23463071E+04 E0= -.23463050E+04  d E =-.469989E-04  mag=     6.0000
       N       E                     dE             d eps       ncg     rms          rms(c)
DAV:   1    -0.232577540760E+04    0.56141E-05   -0.78135E-04  4248   0.210E-02    0.902E-03
RMM:   2    -0.232577542443E+04   -0.16828E-04   -0.16899E-04  2781   0.533E-03    0.693E-03
RMM:   3    -0.232577542591E+04   -0.14773E-05   -0.19025E-05  2261   0.347E-03
 189 F= -.23463071E+04 E0= -.23463050E+04  d E =-.284241E-04  mag=     6.0000
       N       E                     dE             d eps       ncg     rms          rms(c)
DAV:   1    -0.232577541552E+04    0.89088E-05   -0.65934E-04  4216   0.154E-02    0.104E-02
RMM:   2    -0.232577543414E+04   -0.18620E-04   -0.15701E-04  2676   0.398E-03    0.273E-02
RMM:   3    -0.232577543202E+04    0.21274E-05   -0.15546E-05  2260   0.266E-03
 190 F= -.23463071E+04 E0= -.23463051E+04  d E =-.279792E-04  mag=     6.0000
       N       E                     dE             d eps       ncg     rms          rms(c)
DAV:   1    -0.232577543182E+04    0.23239E-05   -0.15026E-04  3272   0.694E-03    0.386E-03
RMM:   2    -0.232577543555E+04   -0.37277E-05   -0.36196E-05  2282   0.221E-03
 191 F= -.23463071E+04 E0= -.23463051E+04  d E =-.130533E-04  mag=     6.0000
       N       E                     dE             d eps       ncg     rms          rms(c)
DAV:   1    -0.232577543276E+04   -0.94491E-06   -0.33210E-05  2520   0.393E-03    0.460E-03
RMM:   2    -0.232577543349E+04   -0.72748E-06   -0.63893E-06  2018   0.169E-03
 192 F= -.23463071E+04 E0= -.23463051E+04  d E =0.490083E-05  mag=     6.0000
       N       E                     dE             d eps       ncg     rms          rms(c)
DAV:   1    -0.232577540465E+04    0.28113E-04   -0.12600E-03  4104   0.196E-02    0.119E-02
RMM:   2    -0.232577543337E+04   -0.28720E-04   -0.28429E-04  2792   0.487E-03    0.142E-02
RMM:   3    -0.232577543601E+04   -0.26357E-05   -0.27321E-05  2230   0.323E-03
 193 F= -.23463072E+04 E0= -.23463051E+04  d E =-.341505E-04  mag=     6.0000
       N       E                     dE             d eps       ncg     rms          rms(c)
DAV:   1    -0.232577542938E+04    0.39901E-05   -0.13900E-04  4232   0.103E-02    0.456E-03
RMM:   2    -0.232577543190E+04   -0.25142E-05   -0.26057E-05  2288   0.278E-03
 194 F= -.23463072E+04 E0= -.23463051E+04  d E =-.691267E-05  mag=     6.0000
       N       E                     dE             d eps       ncg     rms          rms(c)
DAV:   1    -0.232577539368E+04    0.35698E-04   -0.14971E-03  4120   0.222E-02    0.122E-02
RMM:   2    -0.232577542819E+04   -0.34509E-04   -0.33750E-04  2875   0.577E-03    0.158E-02
RMM:   3    -0.232577543122E+04   -0.30258E-05   -0.36129E-05  2270   0.377E-03
 195 F= -.23463072E+04 E0= -.23463052E+04  d E =-.349986E-04  mag=     6.0000
       N       E                     dE             d eps       ncg     rms          rms(c)
DAV:   1    -0.232577544071E+04   -0.12514E-04   -0.48876E-04  4272   0.207E-02    0.836E-03
RMM:   2    -0.232577544976E+04   -0.90569E-05   -0.88721E-05  2688   0.495E-03
 196 F= -.23463072E+04 E0= -.23463052E+04  d E =-.204594E-04  mag=     6.0000
       N       E                     dE             d eps       ncg     rms          rms(c)
DAV:   1    -0.232577543544E+04    0.52646E-05   -0.64750E-04  4128   0.162E-02    0.985E-03
RMM:   2    -0.232577545363E+04   -0.18191E-04   -0.15256E-04  2660   0.463E-03    0.268E-02
RMM:   3    -0.232577545188E+04    0.17491E-05   -0.17827E-05  2247   0.303E-03
 197 F= -.23463073E+04 E0= -.23463052E+04  d E =-.276901E-04  mag=     6.0000
       N       E                     dE             d eps       ncg     rms          rms(c)
DAV:   1    -0.232577541640E+04    0.37230E-04   -0.16964E-03  4112   0.221E-02    0.121E-02
RMM:   2    -0.232577545534E+04   -0.38937E-04   -0.38747E-04  2872   0.551E-03    0.844E-03
RMM:   3    -0.232577545876E+04   -0.34223E-05   -0.36749E-05  2281   0.357E-03
 198 F= -.23463073E+04 E0= -.23463053E+04  d E =-.410842E-04  mag=     6.0000
       N       E                     dE             d eps       ncg     rms          rms(c)
DAV:   1    -0.232577545466E+04    0.67893E-06   -0.33390E-04  4264   0.112E-02    0.630E-03
RMM:   2    -0.232577546340E+04   -0.87443E-05   -0.79050E-05  2489   0.300E-03
 199 F= -.23463073E+04 E0= -.23463053E+04  d E =-.211267E-04  mag=     6.0000
       N       E                     dE             d eps       ncg     rms          rms(c)
DAV:   1    -0.232577546266E+04   -0.80008E-05   -0.11786E-04  2992   0.636E-03    0.479E-03
RMM:   2    -0.232577546632E+04   -0.36563E-05   -0.29573E-05  2258   0.273E-03
 200 F= -.23463073E+04 E0= -.23463053E+04  d E =-.110719E-04  mag=     6.0000
       N       E                     dE             d eps       ncg     rms          rms(c)
DAV:   1    -0.232577546075E+04    0.19147E-05   -0.96627E-05  2808   0.510E-03    0.519E-03
RMM:   2    -0.232577546243E+04   -0.16826E-05   -0.19812E-05  2016   0.189E-03
 201 F= -.23463073E+04 E0= -.23463053E+04  d E =0.116802E-04  mag=     6.0000
