       N       E                     dE             d eps       ncg     rms          rms(c)
DAV:   1     0.124049470083E+05    0.12405E+05   -0.83918E+05  4640   0.142E+03
DAV:   2    -0.126004412520E+04   -0.13665E+05   -0.13127E+05  5040   0.321E+02
DAV:   3    -0.249881563352E+04   -0.12388E+04   -0.12284E+04  5440   0.104E+02
DAV:   4    -0.252682822172E+04   -0.28013E+02   -0.27834E+02  5600   0.195E+01
DAV:   5    -0.252774445995E+04   -0.91624E+00   -0.91463E+00  5840   0.294E+00    0.171E+02
RMM:   6    -0.148936360370E+04    0.10384E+04   -0.19185E+03  4499   0.378E+01    0.735E+01
RMM:   7    -0.168063184109E+04   -0.19127E+03   -0.30784E+02  5116   0.144E+01    0.611E+01
RMM:   8    -0.169989194552E+04   -0.19260E+02   -0.86719E+01  5286   0.848E+00    0.453E+01
RMM:   9    -0.177089876087E+04   -0.71007E+02   -0.54030E+01  4946   0.726E+00    0.339E+01
RMM:  10    -0.190494071543E+04   -0.13404E+03   -0.56245E+01  5404   0.709E+00    0.277E+01
RMM:  11    -0.197169925585E+04   -0.66759E+02   -0.27408E+01  5314   0.447E+00    0.238E+01
RMM:  12    -0.206665228506E+04   -0.94953E+02   -0.39860E+01  4894   0.500E+00    0.151E+01
RMM:  13    -0.218629778032E+04   -0.11965E+03   -0.79668E+01  4598   0.660E+00    0.104E+01
RMM:  14    -0.227968667313E+04   -0.93389E+02   -0.83129E+01  4689   0.637E+00    0.818E+00
RMM:  15    -0.230708886563E+04   -0.27402E+02   -0.25979E+01  4687   0.408E+00    0.612E+00
RMM:  16    -0.231585281134E+04   -0.87639E+01   -0.10604E+01  4939   0.214E+00    0.348E+00
RMM:  17    -0.232065606940E+04   -0.48033E+01   -0.47072E+00  4693   0.151E+00    0.192E+00
RMM:  18    -0.232235101308E+04   -0.16949E+01   -0.10156E+00  5075   0.764E-01    0.924E-01
RMM:  19    -0.232295044914E+04   -0.59944E+00   -0.30133E-01  5035   0.313E-01    0.726E-01
RMM:  20    -0.232310576086E+04   -0.15531E+00   -0.79985E-02  4833   0.211E-01    0.348E-01
RMM:  21    -0.232314424083E+04   -0.38480E-01   -0.19775E-02  4931   0.117E-01    0.201E-01
RMM:  22    -0.232316936220E+04   -0.25121E-01   -0.96879E-03  4617   0.693E-02    0.132E-01
RMM:  23    -0.232318144784E+04   -0.12086E-01   -0.44121E-03  4600   0.546E-02    0.836E-02
RMM:  24    -0.232319011050E+04   -0.86627E-02   -0.29194E-03  4654   0.396E-02    0.602E-02
RMM:  25    -0.232319523827E+04   -0.51278E-02   -0.15656E-03  4625   0.325E-02    0.334E-02
RMM:  26    -0.232319772047E+04   -0.24822E-02   -0.84573E-04  4375   0.207E-02    0.205E-02
RMM:  27    -0.232319879439E+04   -0.10739E-02   -0.31528E-04  4132   0.160E-02    0.121E-02
RMM:  28    -0.232319919876E+04   -0.40436E-03   -0.12195E-04  3839   0.893E-03    0.661E-03
RMM:  29    -0.232319938749E+04   -0.18874E-03   -0.41957E-05  3507   0.659E-03    0.387E-03
RMM:  30    -0.232319949982E+04   -0.11232E-03   -0.28312E-05  3328   0.453E-03    0.212E-03
RMM:  31    -0.232319952644E+04   -0.26626E-04   -0.83976E-06  2908   0.373E-03    0.139E-03
RMM:  32    -0.232319954010E+04   -0.13661E-04   -0.58138E-06  2775   0.252E-03    0.836E-04
RMM:  33    -0.232319954254E+04   -0.24342E-05   -0.29134E-06  2463   0.218E-03
   1 F= -.23441237E+04 E0= -.23441237E+04  d E =-.381915E-11  mag=     5.9999
       N       E                     dE             d eps       ncg     rms          rms(c)
DAV:   1    -0.232318239590E+04    0.17144E-01   -0.19079E+00  4480   0.559E-01    0.288E-01
RMM:   2    -0.232318305468E+04   -0.65878E-03   -0.11778E-02  4103   0.452E-02    0.173E-01
RMM:   3    -0.232318293360E+04    0.12108E-03   -0.14851E-03  4367   0.198E-02    0.161E-01
RMM:   4    -0.232318272016E+04    0.21344E-03   -0.86978E-04  4091   0.121E-02    0.101E-01
RMM:   5    -0.232318269636E+04    0.23800E-04   -0.18440E-04  3228   0.725E-03    0.786E-02
RMM:   6    -0.232318264874E+04    0.47619E-04   -0.50096E-05  2774   0.423E-03    0.192E-02
RMM:   7    -0.232318265209E+04   -0.33484E-05   -0.21447E-05  2829   0.264E-03
   2 F= -.23441074E+04 E0= -.23441074E+04  d E =-.233869E-12  mag=     6.0000
       N       E                     dE             d eps       ncg     rms          rms(c)
DAV:   1    -0.232319862737E+04   -0.15979E-01   -0.76511E+00  4480   0.112E+00    0.577E-01
RMM:   2    -0.232320076062E+04   -0.21333E-02   -0.41768E-02  4152   0.869E-02    0.343E-01
RMM:   3    -0.232320051838E+04    0.24224E-03   -0.54178E-03  5076   0.388E-02    0.331E-01
RMM:   4    -0.232319970791E+04    0.81047E-03   -0.33547E-03  5013   0.227E-02    0.217E-01
RMM:   5    -0.232319970806E+04   -0.14773E-06   -0.95561E-04  4160   0.136E-02    0.191E-01
RMM:   6    -0.232319941248E+04    0.29558E-03   -0.24777E-04  3083   0.811E-03    0.367E-02
RMM:   7    -0.232319943289E+04   -0.20404E-04   -0.10320E-04  3374   0.513E-03    0.203E-02
RMM:   8    -0.232319944055E+04   -0.76612E-05   -0.12150E-05  2823   0.322E-03
   3 F= -.23441229E+04 E0= -.23441229E+04  d E =-.684191E-11  mag=     6.0000
       N       E                     dE             d eps       ncg     rms          rms(c)
DAV:   1    -0.232319118132E+04    0.82516E-02   -0.37560E+00  4480   0.820E-01    0.445E-01
RMM:   2    -0.232319279795E+04   -0.16166E-02   -0.27108E-02  4296   0.703E-02    0.338E-01
RMM:   3    -0.232319212928E+04    0.66868E-03   -0.42339E-03  4796   0.300E-02    0.279E-01
RMM:   4    -0.232319129334E+04    0.83593E-03   -0.18803E-03  4612   0.182E-02    0.105E-01
RMM:   5    -0.232319127236E+04    0.20981E-04   -0.28880E-04  3513   0.966E-03    0.376E-02
RMM:   6    -0.232319127914E+04   -0.67784E-05   -0.62356E-05  3072   0.464E-03
   4 F= -.23441159E+04 E0= -.23441159E+04  d E =-.314166E-12  mag=     6.0000
       N       E                     dE             d eps       ncg     rms          rms(c)
DAV:   1    -0.232319594526E+04   -0.46729E-02   -0.74367E+00  4480   0.111E+00    0.552E-01
RMM:   2    -0.232319819673E+04   -0.22515E-02   -0.34391E-02  4210   0.773E-02    0.394E-01
RMM:   3    -0.232319780078E+04    0.39595E-03   -0.58074E-03  5218   0.324E-02    0.361E-01
RMM:   4    -0.232319646229E+04    0.13385E-02   -0.27443E-03  4854   0.222E-02    0.125E-01
RMM:   5    -0.232319662314E+04   -0.16085E-03   -0.56398E-04  3645   0.113E-02    0.141E-01
RMM:   6    -0.232319648023E+04    0.14291E-03   -0.19300E-04  2993   0.683E-03    0.415E-02
RMM:   7    -0.232319647177E+04    0.84521E-05   -0.49202E-05  3072   0.377E-03
   5 F= -.23441201E+04 E0= -.23441201E+04  d E =-.392460E-11  mag=     6.0000
       N       E                     dE             d eps       ncg     rms          rms(c)
DAV:   1    -0.232317308690E+04    0.23393E-01   -0.37093E+00  4800   0.812E-01    0.401E-01
RMM:   2    -0.232317402548E+04   -0.93858E-03   -0.20552E-02  4065   0.557E-02    0.225E-01
RMM:   3    -0.232317348053E+04    0.54495E-03   -0.23561E-03  4654   0.289E-02    0.182E-01
RMM:   4    -0.232317348028E+04    0.24510E-06   -0.10975E-03  3895   0.140E-02    0.151E-01
RMM:   5    -0.232317337802E+04    0.10226E-03   -0.36695E-04  3520   0.937E-03    0.899E-02
RMM:   6    -0.232317333247E+04    0.45549E-04   -0.10631E-04  2909   0.550E-03    0.417E-02
RMM:   7    -0.232317331585E+04    0.16622E-04   -0.29145E-05  2889   0.348E-03    0.119E-02
RMM:   8    -0.232317331632E+04   -0.46742E-06   -0.75919E-06  2674   0.209E-03
   6 F= -.23440987E+04 E0= -.23440987E+04  d E =-.443126E-11  mag=     6.0000
       N       E                     dE             d eps       ncg     rms          rms(c)
DAV:   1    -0.232319271471E+04   -0.19399E-01   -0.82916E+00  4480   0.129E+00    0.712E-01
RMM:   2    -0.232319292460E+04   -0.20989E-03   -0.68213E-02  4258   0.110E-01    0.440E-01
RMM:   3    -0.232319126511E+04    0.16595E-02   -0.90241E-03  4697   0.518E-02    0.400E-01
RMM:   4    -0.232319016073E+04    0.11044E-02   -0.59760E-03  5233   0.314E-02    0.274E-01
RMM:   5    -0.232318956173E+04    0.59900E-03   -0.10010E-03  3912   0.147E-02    0.126E-01
RMM:   6    -0.232318949218E+04    0.69552E-04   -0.36175E-04  3294   0.887E-03    0.100E-01
RMM:   7    -0.232318940300E+04    0.89178E-04   -0.15605E-04  3429   0.585E-03    0.241E-02
RMM:   8    -0.232318939925E+04    0.37503E-05   -0.30647E-05  2997   0.371E-03
   7 F= -.23441124E+04 E0= -.23441124E+04  d E =-.582764E-12  mag=     6.0000
       N       E                     dE             d eps       ncg     rms          rms(c)
DAV:   1    -0.232316169277E+04    0.27710E-01   -0.44506E+00  4480   0.961E-01    0.532E-01
RMM:   2    -0.232315976027E+04    0.19325E-02   -0.34243E-02  4006   0.746E-02    0.319E-01
RMM:   3    -0.232315853202E+04    0.12283E-02   -0.49141E-03  4822   0.343E-02    0.256E-01
RMM:   4    -0.232315826106E+04    0.27096E-03   -0.35644E-03  4780   0.233E-02    0.220E-01
RMM:   5    -0.232315777500E+04    0.48606E-03   -0.61217E-04  3583   0.127E-02    0.642E-02
RMM:   6    -0.232315778616E+04   -0.11163E-04   -0.18711E-04  3107   0.598E-03    0.789E-02
RMM:   7    -0.232315773535E+04    0.50810E-04   -0.66987E-05  2894   0.403E-03    0.189E-02
RMM:   8    -0.232315773387E+04    0.14767E-05   -0.16813E-05  2744   0.263E-03
   8 F= -.23440822E+04 E0= -.23440822E+04  d E =-.189475E-10  mag=     6.0000
       N       E                     dE             d eps       ncg     rms          rms(c)
DAV:   1    -0.232321260348E+04   -0.54868E-01   -0.85225E+00  4480   0.131E+00    0.662E-01
RMM:   2    -0.232320664518E+04    0.59583E-02   -0.33248E-02  3947   0.795E-02    0.380E-01
RMM:   3    -0.232320465945E+04    0.19857E-02   -0.89515E-03  5073   0.400E-02    0.235E-01
RMM:   4    -0.232320452768E+04    0.13177E-03   -0.38209E-03  4702   0.264E-02    0.208E-01
RMM:   5    -0.232320400930E+04    0.51837E-03   -0.57814E-04  3708   0.119E-02    0.375E-02
RMM:   6    -0.232320398951E+04    0.19792E-04   -0.13439E-04  3119   0.492E-03    0.465E-02
RMM:   7    -0.232320397511E+04    0.14397E-04   -0.50297E-05  2846   0.397E-03    0.306E-02
RMM:   8    -0.232320396893E+04    0.61804E-05   -0.17463E-05  2770   0.280E-03
   9 F= -.23441280E+04 E0= -.23441280E+04  d E =-.917672E-11  mag=     6.0000
       N       E                     dE             d eps       ncg     rms          rms(c)
DAV:   1    -0.232321188370E+04   -0.79086E-02   -0.43125E+00  4480   0.101E+00    0.487E-01
RMM:   2    -0.232320856047E+04    0.33232E-02   -0.19625E-02  3903   0.583E-02    0.288E-01
RMM:   3    -0.232320776108E+04    0.79939E-03   -0.46083E-03  5026   0.279E-02    0.254E-01
RMM:   4    -0.232320744135E+04    0.31974E-03   -0.28145E-03  4529   0.214E-02    0.220E-01
RMM:   5    -0.232320707089E+04    0.37045E-03   -0.56222E-04  3581   0.102E-02    0.890E-02
RMM:   6    -0.232320699767E+04    0.73221E-04   -0.11388E-04  2902   0.606E-03    0.281E-02
RMM:   7    -0.232320698398E+04    0.13696E-04   -0.39510E-05  2802   0.288E-03    0.139E-02
RMM:   8    -0.232320698206E+04    0.19123E-05   -0.92625E-06  2648   0.235E-03
  10 F= -.23441315E+04 E0= -.23441315E+04  d E =-.407301E-13  mag=     6.0000
       N       E                     dE             d eps       ncg     rms          rms(c)
DAV:   1    -0.232316085389E+04    0.46130E-01   -0.85596E+00  4480   0.131E+00    0.685E-01
RMM:   2    -0.232315407834E+04    0.67756E-02   -0.34342E-02  3904   0.818E-02    0.399E-01
RMM:   3    -0.232315348009E+04    0.59825E-03   -0.12417E-02  5293   0.437E-02    0.453E-01
RMM:   4    -0.232315168378E+04    0.17963E-02   -0.51363E-03  4918   0.311E-02    0.239E-01
RMM:   5    -0.232315131547E+04    0.36831E-03   -0.10106E-03  4040   0.126E-02    0.119E-01
RMM:   6    -0.232315117121E+04    0.14426E-03   -0.18782E-04  3129   0.695E-03    0.355E-02
RMM:   7    -0.232315114351E+04    0.27701E-04   -0.97291E-05  3040   0.393E-03    0.189E-02
RMM:   8    -0.232315114234E+04    0.11737E-05   -0.17219E-05  2807   0.354E-03
  11 F= -.23440750E+04 E0= -.23440750E+04  d E =-.100241E-12  mag=     6.0000
       N       E                     dE             d eps       ncg     rms          rms(c)
DAV:   1    -0.232314809738E+04    0.30461E-02   -0.42791E+00  4480   0.935E-01    0.471E-01
RMM:   2    -0.232314456389E+04    0.35335E-02   -0.16245E-02  3805   0.527E-02    0.264E-01
RMM:   3    -0.232314365028E+04    0.91361E-03   -0.63759E-03  4831   0.292E-02    0.213E-01
RMM:   4    -0.232314322442E+04    0.42586E-03   -0.13266E-03  4047   0.189E-02    0.798E-02
RMM:   5    -0.232314318601E+04    0.38413E-04   -0.23007E-04  3065   0.683E-03    0.635E-02
RMM:   6    -0.232314315601E+04    0.30000E-04   -0.67415E-05  2719   0.409E-03    0.344E-02
RMM:   7    -0.232314314188E+04    0.14135E-04   -0.28695E-05  2869   0.276E-03    0.114E-02
RMM:   8    -0.232314314083E+04    0.10417E-05   -0.56242E-06  2630   0.224E-03
  12 F= -.23440674E+04 E0= -.23440674E+04  d E =-.115033E-10  mag=     6.0000
       N       E                     dE             d eps       ncg     rms          rms(c)
DAV:   1    -0.232322875974E+04   -0.85618E-01   -0.84120E+00  4560   0.128E+00    0.671E-01
RMM:   2    -0.232322081488E+04    0.79449E-02   -0.47724E-02  3899   0.901E-02    0.387E-01
RMM:   3    -0.232321804887E+04    0.27660E-02   -0.71984E-03  4709   0.465E-02    0.259E-01
RMM:   4    -0.232321845562E+04   -0.40675E-03   -0.55684E-03  4632   0.289E-02    0.378E-01
RMM:   5    -0.232321728405E+04    0.11716E-02   -0.12712E-03  4024   0.195E-02    0.576E-02
RMM:   6    -0.232321730007E+04   -0.16026E-04   -0.26897E-04  3402   0.708E-03    0.642E-02
RMM:   7    -0.232321725026E+04    0.49811E-04   -0.63989E-05  2855   0.456E-03    0.230E-02
RMM:   8    -0.232321724762E+04    0.26398E-05   -0.19010E-05  2842   0.265E-03
  13 F= -.23441414E+04 E0= -.23441414E+04  d E =-.371794E-13  mag=     6.0000
       N       E                     dE             d eps       ncg     rms          rms(c)
DAV:   1    -0.232320252894E+04    0.14721E-01   -0.25012E+00  4400   0.710E-01    0.386E-01
RMM:   2    -0.232320058174E+04    0.19472E-02   -0.15456E-02  3768   0.504E-02    0.225E-01
RMM:   3    -0.232319989570E+04    0.68604E-03   -0.25275E-03  4385   0.235E-02    0.153E-01
RMM:   4    -0.232319999264E+04   -0.96945E-04   -0.15155E-03  4028   0.158E-02    0.198E-01
RMM:   5    -0.232319967301E+04    0.31964E-03   -0.36611E-04  3375   0.928E-03    0.337E-02
RMM:   6    -0.232319967466E+04   -0.16583E-05   -0.76807E-05  2837   0.428E-03
  14 F= -.23441239E+04 E0= -.23441239E+04  d E =-.205260E-10  mag=     6.0000
       N       E                     dE             d eps       ncg     rms          rms(c)
DAV:   1    -0.232319523211E+04    0.44409E-02   -0.12088E+00  4640   0.415E-01    0.322E-01
RMM:   2    -0.232319522660E+04    0.55142E-05   -0.44053E-03  3562   0.258E-02    0.193E-01
RMM:   3    -0.232319575409E+04   -0.52749E-03   -0.16236E-03  4391   0.158E-02    0.253E-01
RMM:   4    -0.232319524435E+04    0.50974E-03   -0.52049E-04  3312   0.111E-02    0.399E-02
RMM:   5    -0.232319522931E+04    0.15044E-04   -0.71783E-05  2862   0.396E-03    0.264E-02
RMM:   6    -0.232319521686E+04    0.12445E-04   -0.39029E-05  2585   0.313E-03    0.819E-03
RMM:   7    -0.232319521705E+04   -0.18942E-06   -0.81085E-06  2405   0.209E-03
  15 F= -.23441193E+04 E0= -.23441193E+04  d E =-.221835E-10  mag=     6.0000
       N       E                     dE             d eps       ncg     rms          rms(c)
DAV:   1    -0.232319147482E+04    0.37420E-02   -0.61937E-01  4400   0.299E-01    0.284E-01
RMM:   2    -0.232319086075E+04    0.61408E-03   -0.33129E-03  3534   0.203E-02    0.161E-01
RMM:   3    -0.232319098586E+04   -0.12511E-03   -0.15738E-03  4194   0.145E-02    0.138E-01
RMM:   4    -0.232319077337E+04    0.21249E-03   -0.36165E-04  3149   0.101E-02    0.481E-02
RMM:   5    -0.232319076450E+04    0.88659E-05   -0.91505E-05  2870   0.410E-03
  16 F= -.23441148E+04 E0= -.23441148E+04  d E =-.642486E-13  mag=     6.0000
       N       E                     dE             d eps       ncg     rms          rms(c)
DAV:   1    -0.232319536432E+04   -0.45910E-02   -0.12523E+00  4800   0.426E-01    0.521E-01
RMM:   2    -0.232319145106E+04    0.39133E-02   -0.14637E-02  3943   0.436E-02    0.288E-01
RMM:   3    -0.232319274051E+04   -0.12895E-02   -0.72734E-03  5184   0.329E-02    0.500E-01
RMM:   4    -0.232319076964E+04    0.19709E-02   -0.21436E-03  4557   0.185E-02    0.106E-01
RMM:   5    -0.232319067575E+04    0.93882E-04   -0.41426E-04  3517   0.896E-03    0.689E-02
RMM:   6    -0.232319064983E+04    0.25929E-04   -0.28705E-04  3531   0.741E-03    0.561E-02
RMM:   7    -0.232319061957E+04    0.30260E-04   -0.56704E-05  2827   0.442E-03    0.155E-02
RMM:   8    -0.232319061420E+04    0.53628E-05   -0.13581E-05  2455   0.225E-03
  17 F= -.23441150E+04 E0= -.23441150E+04  d E =-.186529E-10  mag=     6.0000
       N       E                     dE             d eps       ncg     rms          rms(c)
DAV:   1    -0.232319778101E+04   -0.71614E-02   -0.65793E-01  4720   0.311E-01    0.426E-01
RMM:   2    -0.232319489097E+04    0.28900E-02   -0.11092E-02  3789   0.350E-02    0.218E-01
RMM:   3    -0.232319457260E+04    0.31837E-03   -0.44426E-03  4372   0.247E-02    0.119E-01
RMM:   4    -0.232319445531E+04    0.11729E-03   -0.51055E-04  3705   0.105E-02    0.110E-01
RMM:   5    -0.232319435855E+04    0.96760E-04   -0.22252E-04  3148   0.605E-03    0.614E-02
RMM:   6    -0.232319434373E+04    0.14816E-04   -0.15108E-04  3140   0.549E-03    0.441E-02
RMM:   7    -0.232319432409E+04    0.19644E-04   -0.21780E-05  2495   0.321E-03    0.924E-03
RMM:   8    -0.232319432203E+04    0.20637E-05   -0.99838E-06  2199   0.161E-03
  18 F= -.23441185E+04 E0= -.23441185E+04  d E =-.146914E-10  mag=     6.0000
       N       E                     dE             d eps       ncg     rms          rms(c)
DAV:   1    -0.232319519983E+04   -0.87574E-03   -0.12693E+00  4400   0.408E-01    0.449E-01
RMM:   2    -0.232319305433E+04    0.21455E-02   -0.10422E-02  3683   0.363E-02    0.243E-01
RMM:   3    -0.232319275177E+04    0.30256E-03   -0.46426E-03  4373   0.256E-02    0.741E-02
RMM:   4    -0.232319259931E+04    0.15245E-03   -0.24173E-04  3488   0.807E-03    0.414E-02
RMM:   5    -0.232319258653E+04    0.12784E-04   -0.17925E-04  3185   0.530E-03    0.251E-02
RMM:   6    -0.232319257971E+04    0.68247E-05   -0.20417E-05  2525   0.362E-03
  19 F= -.23441168E+04 E0= -.23441168E+04  d E =-.645329E-13  mag=     6.0000
       N       E                     dE             d eps       ncg     rms          rms(c)
DAV:   1    -0.232320095565E+04   -0.83691E-02   -0.58918E-01  4480   0.325E-01    0.256E-01
RMM:   2    -0.232320056802E+04    0.38763E-03   -0.43076E-03  3733   0.260E-02    0.167E-01
RMM:   3    -0.232320093042E+04   -0.36240E-03   -0.14803E-03  4248   0.178E-02    0.277E-01
RMM:   4    -0.232320038269E+04    0.54773E-03   -0.93718E-04  3779   0.119E-02    0.821E-02
RMM:   5    -0.232320033707E+04    0.45612E-04   -0.14644E-04  2938   0.664E-03    0.420E-02
RMM:   6    -0.232320032139E+04    0.15681E-04   -0.54765E-05  2651   0.400E-03    0.217E-02
RMM:   7    -0.232320031696E+04    0.44347E-05   -0.31565E-05  2755   0.271E-03
  20 F= -.23441237E+04 E0= -.23441237E+04  d E =-.137405E-10  mag=     6.0000
       N       E                     dE             d eps       ncg     rms          rms(c)
DAV:   1    -0.232319977603E+04    0.54537E-03   -0.10745E+00  4480   0.411E-01    0.268E-01
RMM:   2    -0.232319968557E+04    0.90461E-04   -0.44186E-03  3848   0.255E-02    0.203E-01
RMM:   3    -0.232319984011E+04   -0.15455E-03   -0.14136E-03  4047   0.166E-02    0.260E-01
RMM:   4    -0.232319940089E+04    0.43922E-03   -0.77029E-04  3515   0.105E-02    0.115E-01
RMM:   5    -0.232319933321E+04    0.67682E-04   -0.25011E-04  3021   0.736E-03    0.556E-02
RMM:   6    -0.232319930923E+04    0.23984E-04   -0.72520E-05  2808   0.477E-03    0.222E-02
RMM:   7    -0.232319930402E+04    0.52042E-05   -0.11014E-05  2517   0.222E-03
  21 F= -.23441242E+04 E0= -.23441242E+04  d E =-.670805E-13  mag=     6.0000
       N       E                     dE             d eps       ncg     rms          rms(c)
DAV:   1    -0.232319834656E+04    0.96267E-03   -0.52848E-01  4480   0.298E-01    0.208E-01
RMM:   2    -0.232319821367E+04    0.13289E-03   -0.28431E-03  3772   0.205E-02    0.143E-01
RMM:   3    -0.232319818617E+04    0.27503E-04   -0.84746E-04  3707   0.128E-02    0.155E-01
RMM:   4    -0.232319798466E+04    0.20150E-03   -0.38107E-04  3150   0.900E-03    0.742E-02
RMM:   5    -0.232319797965E+04    0.50138E-05   -0.14953E-04  2881   0.524E-03    0.705E-02
RMM:   6    -0.232319794445E+04    0.35201E-04   -0.48229E-05  2687   0.383E-03    0.202E-02
RMM:   7    -0.232319794092E+04    0.35291E-05   -0.86206E-06  2449   0.199E-03
  22 F= -.23441211E+04 E0= -.23441211E+04  d E =-.733173E-13  mag=     6.0000
       N       E                     dE             d eps       ncg     rms          rms(c)
DAV:   1    -0.232319938796E+04   -0.14435E-02   -0.10685E+00  4480   0.410E-01    0.253E-01
RMM:   2    -0.232319954794E+04   -0.15998E-03   -0.46117E-03  3787   0.270E-02    0.186E-01
RMM:   3    -0.232319963488E+04   -0.86939E-04   -0.13043E-03  3865   0.156E-02    0.226E-01
RMM:   4    -0.232319931955E+04    0.31533E-03   -0.58122E-04  3463   0.102E-02    0.114E-01
RMM:   5    -0.232319924857E+04    0.70973E-04   -0.24951E-04  3114   0.735E-03    0.621E-02
RMM:   6    -0.232319922438E+04    0.24197E-04   -0.61588E-05  2875   0.478E-03    0.190E-02
RMM:   7    -0.232319922106E+04    0.33155E-05   -0.10622E-05  2617   0.233E-03
  23 F= -.23441244E+04 E0= -.23441244E+04  d E =-.164588E-10  mag=     6.0000
       N       E                     dE             d eps       ncg     rms          rms(c)
DAV:   1    -0.232319657803E+04    0.26463E-02   -0.55099E-01  4480   0.307E-01    0.209E-01
RMM:   2    -0.232319717166E+04   -0.59363E-03   -0.46340E-03  4066   0.291E-02    0.265E-01
RMM:   3    -0.232319651717E+04    0.65448E-03   -0.92338E-04  3683   0.131E-02    0.118E-01
RMM:   4    -0.232319662712E+04   -0.10994E-03   -0.48453E-04  3486   0.901E-03    0.156E-01
RMM:   5    -0.232319643173E+04    0.19538E-03   -0.27473E-04  3356   0.723E-03    0.394E-02
RMM:   6    -0.232319642011E+04    0.11627E-04   -0.24651E-05  2762   0.295E-03    0.952E-03
RMM:   7    -0.232319641875E+04    0.13569E-05   -0.55126E-06  2479   0.192E-03
  24 F= -.23441206E+04 E0= -.23441206E+04  d E =-.116275E-12  mag=     6.0000
       N       E                     dE             d eps       ncg     rms          rms(c)
DAV:   1    -0.232319306088E+04    0.33592E-02   -0.11121E+00  4480   0.424E-01    0.323E-01
RMM:   2    -0.232319389589E+04   -0.83501E-03   -0.10102E-02  4510   0.435E-02    0.401E-01
RMM:   3    -0.232319234523E+04    0.15507E-02   -0.23207E-03  4273   0.203E-02    0.183E-01
RMM:   4    -0.232319241212E+04   -0.66884E-04   -0.10945E-03  4065   0.131E-02    0.214E-01
RMM:   5    -0.232319209506E+04    0.31705E-03   -0.65614E-04  3884   0.994E-03    0.867E-02
RMM:   6    -0.232319201897E+04    0.76088E-04   -0.65953E-05  2944   0.455E-03    0.196E-02
RMM:   7    -0.232319201330E+04    0.56727E-05   -0.18263E-05  2710   0.252E-03
  25 F= -.23441162E+04 E0= -.23441162E+04  d E =-.151973E-10  mag=     6.0000
       N       E                     dE             d eps       ncg     rms          rms(c)
DAV:   1    -0.232318868210E+04    0.33369E-02   -0.58999E-01  4560   0.349E-01    0.286E-01
RMM:   2    -0.232318822965E+04    0.45245E-03   -0.66573E-03  3856   0.364E-02    0.239E-01
RMM:   3    -0.232318803771E+04    0.19195E-03   -0.19614E-03  4532   0.181E-02    0.217E-01
RMM:   4    -0.232318779926E+04    0.23845E-03   -0.97654E-04  4223   0.122E-02    0.158E-01
RMM:   5    -0.232318761886E+04    0.18039E-03   -0.33010E-04  3302   0.873E-03    0.597E-02
RMM:   6    -0.232318758042E+04    0.38444E-04   -0.48859E-05  2841   0.379E-03    0.180E-02
RMM:   7    -0.232318757807E+04    0.23492E-05   -0.40396E-05  2723   0.284E-03
  26 F= -.23441120E+04 E0= -.23441120E+04  d E =-.227102E-10  mag=     6.0000
       N       E                     dE             d eps       ncg     rms          rms(c)
DAV:   1    -0.232319827883E+04   -0.10698E-01   -0.12535E+00  4800   0.499E-01    0.497E-01
RMM:   2    -0.232319518298E+04    0.30959E-02   -0.13965E-02  3817   0.428E-02    0.264E-01
RMM:   3    -0.232319488168E+04    0.30130E-03   -0.57203E-03  4644   0.269E-02    0.160E-01
RMM:   4    -0.232319461904E+04    0.26264E-03   -0.69159E-04  3824   0.123E-02    0.108E-01
RMM:   5    -0.232319454889E+04    0.70148E-04   -0.35585E-04  3424   0.736E-03    0.832E-02
RMM:   6    -0.232319449867E+04    0.50220E-04   -0.19919E-04  3327   0.650E-03    0.398E-02
RMM:   7    -0.232319448323E+04    0.15439E-04   -0.18683E-05  2613   0.303E-03    0.102E-02
RMM:   8    -0.232319448100E+04    0.22387E-05   -0.14147E-05  2370   0.172E-03
  27 F= -.23441185E+04 E0= -.23441185E+04  d E =-.172991E-10  mag=     6.0000
       N       E                     dE             d eps       ncg     rms          rms(c)
DAV:   1    -0.232318879599E+04    0.56872E-02   -0.63890E-01  4960   0.349E-01    0.423E-01
RMM:   2    -0.232318595210E+04    0.28439E-02   -0.10516E-02  3803   0.387E-02    0.218E-01
RMM:   3    -0.232318562857E+04    0.32353E-03   -0.43966E-03  4580   0.242E-02    0.124E-01
RMM:   4    -0.232318544936E+04    0.17920E-03   -0.55105E-04  3607   0.113E-02    0.836E-02
RMM:   5    -0.232318537273E+04    0.76629E-04   -0.24144E-04  3332   0.606E-03    0.566E-02
RMM:   6    -0.232318537247E+04    0.26279E-06   -0.13642E-04  3059   0.543E-03    0.540E-02
RMM:   7    -0.232318534635E+04    0.26119E-04   -0.23121E-05  2554   0.321E-03    0.105E-02
RMM:   8    -0.232318534331E+04    0.30450E-05   -0.15201E-05  2274   0.166E-03
  28 F= -.23441099E+04 E0= -.23441099E+04  d E =-.187952E-10  mag=     6.0000
       N       E                     dE             d eps       ncg     rms          rms(c)
DAV:   1    -0.232320339583E+04   -0.18049E-01   -0.12308E+00  4800   0.497E-01    0.450E-01
RMM:   2    -0.232320119555E+04    0.22003E-02   -0.10492E-02  3797   0.380E-02    0.244E-01
RMM:   3    -0.232320102280E+04    0.17275E-03   -0.46155E-03  4538   0.245E-02    0.126E-01
RMM:   4    -0.232320081600E+04    0.20680E-03   -0.58905E-04  3686   0.117E-02    0.783E-02
RMM:   5    -0.232320072382E+04    0.92184E-04   -0.24654E-04  3440   0.628E-03    0.282E-02
RMM:   6    -0.232320072566E+04   -0.18426E-05   -0.69285E-05  2971   0.432E-03
  29 F= -.23441246E+04 E0= -.23441246E+04  d E =-.200359E-10  mag=     6.0000
       N       E                     dE             d eps       ncg     rms          rms(c)
DAV:   1    -0.232321242384E+04   -0.11700E-01   -0.61508E-01  4640   0.330E-01    0.266E-01
RMM:   2    -0.232321205587E+04    0.36797E-03   -0.30430E-03  3607   0.216E-02    0.153E-01
RMM:   3    -0.232321215491E+04   -0.99041E-04   -0.11630E-03  4147   0.128E-02    0.156E-01
RMM:   4    -0.232321196578E+04    0.18913E-03   -0.26268E-04  3105   0.814E-03    0.397E-02
RMM:   5    -0.232321196091E+04    0.48720E-05   -0.96879E-05  3073   0.432E-03
  30 F= -.23441364E+04 E0= -.23441364E+04  d E =-.133192E-10  mag=     6.0000
       N       E                     dE             d eps       ncg     rms          rms(c)
DAV:   1    -0.232318326752E+04    0.28698E-01   -0.12138E+00  4480   0.472E-01    0.323E-01
RMM:   2    -0.232318322945E+04    0.38074E-04   -0.40807E-03  3667   0.261E-02    0.191E-01
RMM:   3    -0.232318337013E+04   -0.14068E-03   -0.13237E-03  4310   0.148E-02    0.162E-01
RMM:   4    -0.232318316527E+04    0.20486E-03   -0.34769E-04  3209   0.105E-02    0.560E-02
RMM:   5    -0.232318314283E+04    0.22432E-04   -0.65430E-05  2946   0.433E-03    0.232E-02
RMM:   6    -0.232318313760E+04    0.52346E-05   -0.22977E-05  2573   0.288E-03
  31 F= -.23441071E+04 E0= -.23441071E+04  d E =-.945845E-13  mag=     6.0000
       N       E                     dE             d eps       ncg     rms          rms(c)
DAV:   1    -0.232322122065E+04   -0.38078E-01   -0.60407E-01  4880   0.328E-01    0.290E-01
RMM:   2    -0.232322051490E+04    0.70576E-03   -0.52172E-03  3678   0.259E-02    0.163E-01
RMM:   3    -0.232322045494E+04    0.59959E-04   -0.19486E-03  4416   0.158E-02    0.104E-01
RMM:   4    -0.232322034516E+04    0.10978E-03   -0.35578E-04  3224   0.904E-03    0.624E-02
RMM:   5    -0.232322029786E+04    0.47298E-04   -0.75777E-05  2852   0.407E-03    0.328E-02
RMM:   6    -0.232322030727E+04   -0.94120E-05   -0.94007E-05  3006   0.395E-03
  32 F= -.23441441E+04 E0= -.23441441E+04  d E =-.150988E-10  mag=     6.0000
       N       E                     dE             d eps       ncg     rms          rms(c)
DAV:   1    -0.232316798754E+04    0.52310E-01   -0.11885E+00  4880   0.358E-01    0.473E-01
RMM:   2    -0.232316500986E+04    0.29777E-02   -0.13941E-02  3861   0.383E-02    0.247E-01
RMM:   3    -0.232316462299E+04    0.38687E-03   -0.44855E-03  4724   0.238E-02    0.147E-01
RMM:   4    -0.232316443132E+04    0.19168E-03   -0.75096E-04  3574   0.129E-02    0.982E-02
RMM:   5    -0.232316432714E+04    0.10417E-03   -0.23554E-04  3463   0.668E-03    0.555E-02
RMM:   6    -0.232316434214E+04   -0.14999E-04   -0.15711E-04  3190   0.556E-03    0.699E-02
RMM:   7    -0.232316430250E+04    0.39643E-04   -0.35427E-05  2575   0.381E-03    0.100E-02
RMM:   8    -0.232316429990E+04    0.26040E-05   -0.96459E-06  2319   0.173E-03
  33 F= -.23440889E+04 E0= -.23440889E+04  d E =-.214564E-10  mag=     6.0000
       N       E                     dE             d eps       ncg     rms          rms(c)
DAV:   1    -0.232317944984E+04   -0.15147E-01   -0.58168E-01  4240   0.266E-01    0.203E-01
RMM:   2    -0.232317938940E+04    0.60445E-04   -0.16760E-03  3300   0.146E-02    0.119E-01
RMM:   3    -0.232317949647E+04   -0.10707E-03   -0.68407E-04  3923   0.988E-03    0.997E-02
RMM:   4    -0.232317939866E+04    0.97806E-04   -0.18947E-04  2953   0.702E-03    0.404E-02
RMM:   5    -0.232317939057E+04    0.80899E-05   -0.39631E-05  2585   0.310E-03
  34 F= -.23441038E+04 E0= -.23441038E+04  d E =-.639459E-13  mag=     6.0000
       N       E                     dE             d eps       ncg     rms          rms(c)
DAV:   1    -0.232321309451E+04   -0.33696E-01   -0.11829E+00  4480   0.384E-01    0.348E-01
RMM:   2    -0.232321234331E+04    0.75121E-03   -0.62142E-03  3485   0.269E-02    0.199E-01
RMM:   3    -0.232321262220E+04   -0.27889E-03   -0.25898E-03  4375   0.190E-02    0.230E-01
RMM:   4    -0.232321221311E+04    0.40909E-03   -0.54110E-04  3523   0.108E-02    0.542E-02
RMM:   5    -0.232321217720E+04    0.35910E-04   -0.20718E-04  3233   0.589E-03    0.365E-02
RMM:   6    -0.232321216935E+04    0.78442E-05   -0.68157E-05  2753   0.441E-03
  35 F= -.23441361E+04 E0= -.23441361E+04  d E =-.147357E-10  mag=     6.0000
       N       E                     dE             d eps       ncg     rms          rms(c)
DAV:   1    -0.232321095521E+04    0.12220E-02   -0.59220E-01  4400   0.255E-01    0.204E-01
RMM:   2    -0.232321100457E+04   -0.49357E-04   -0.13677E-03  3253   0.138E-02    0.123E-01
RMM:   3    -0.232321111553E+04   -0.11096E-03   -0.48018E-04  3308   0.819E-03    0.114E-01
RMM:   4    -0.232321102005E+04    0.95473E-04   -0.11981E-04  2718   0.628E-03    0.221E-02
RMM:   5    -0.232321101644E+04    0.36189E-05   -0.11026E-05  2458   0.206E-03
  36 F= -.23441354E+04 E0= -.23441354E+04  d E =-.931369E-11  mag=     6.0000
       N       E                     dE             d eps       ncg     rms          rms(c)
DAV:   1    -0.232318221070E+04    0.28809E-01   -0.11937E+00  4640   0.349E-01    0.340E-01
RMM:   2    -0.232318171603E+04    0.49466E-03   -0.58589E-03  3566   0.271E-02    0.192E-01
RMM:   3    -0.232318164990E+04    0.66130E-04   -0.19500E-03  4301   0.187E-02    0.103E-01
RMM:   4    -0.232318160583E+04    0.44066E-04   -0.35281E-04  3336   0.811E-03    0.810E-02
RMM:   5    -0.232318155333E+04    0.52503E-04   -0.10217E-04  3103   0.482E-03    0.410E-02
RMM:   6    -0.232318154041E+04    0.12919E-04   -0.58530E-05  2745   0.399E-03    0.194E-02
RMM:   7    -0.232318153863E+04    0.17840E-05   -0.10165E-05  2496   0.246E-03
  37 F= -.23441055E+04 E0= -.23441055E+04  d E =-.372366E-13  mag=     6.0000
