       N       E                     dE             d eps       ncg     rms          rms(c)
DAV:   1     0.128930484800E+05    0.12893E+05   -0.83524E+05  4488   0.144E+03
DAV:   2    -0.104605577710E+04   -0.13939E+05   -0.13327E+05  5104   0.330E+02
DAV:   3    -0.247407021539E+04   -0.14280E+04   -0.14130E+04  5408   0.112E+02
DAV:   4    -0.252040588325E+04   -0.46336E+02   -0.46091E+02  6760   0.303E+01
DAV:   5    -0.252122787208E+04   -0.82199E+00   -0.82065E+00  6088   0.341E+00    0.170E+02
RMM:   6    -0.149053423193E+04    0.10307E+04   -0.19413E+03  4426   0.386E+01    0.738E+01
RMM:   7    -0.167877959711E+04   -0.18825E+03   -0.29543E+02  5006   0.144E+01    0.627E+01
RMM:   8    -0.169908891875E+04   -0.20309E+02   -0.94281E+01  5223   0.861E+00    0.479E+01
RMM:   9    -0.175153527510E+04   -0.52446E+02   -0.61556E+01  4981   0.703E+00    0.344E+01
RMM:  10    -0.188085779502E+04   -0.12932E+03   -0.58894E+01  5142   0.745E+00    0.302E+01
RMM:  11    -0.195079583789E+04   -0.69938E+02   -0.27587E+01  5150   0.473E+00    0.262E+01
RMM:  12    -0.204537149885E+04   -0.94576E+02   -0.39373E+01  4711   0.508E+00    0.155E+01
RMM:  13    -0.214730452674E+04   -0.10193E+03   -0.59900E+01  4631   0.579E+00    0.111E+01
RMM:  14    -0.225329349147E+04   -0.10599E+03   -0.89739E+01  4496   0.686E+00    0.108E+01
RMM:  15    -0.228388405762E+04   -0.30591E+02   -0.26177E+01  4549   0.431E+00    0.729E+00
RMM:  16    -0.230260333642E+04   -0.18719E+02   -0.17498E+01  4450   0.290E+00    0.352E+00
RMM:  17    -0.230865745370E+04   -0.60541E+01   -0.50336E+00  4521   0.199E+00    0.190E+00
RMM:  18    -0.231256781253E+04   -0.39104E+01   -0.27903E+00  4572   0.967E-01    0.106E+00
RMM:  19    -0.231319153827E+04   -0.62373E+00   -0.41870E-01  4678   0.711E-01    0.694E-01
RMM:  20    -0.231341516846E+04   -0.22363E+00   -0.16106E-01  4593   0.227E-01    0.382E-01
RMM:  21    -0.231348072361E+04   -0.65555E-01   -0.38865E-02  4700   0.202E-01    0.284E-01
RMM:  22    -0.231350593479E+04   -0.25211E-01   -0.15543E-02  4669   0.810E-02    0.176E-01
RMM:  23    -0.231351735012E+04   -0.11415E-01   -0.41433E-03  4604   0.616E-02    0.131E-01
RMM:  24    -0.231353029272E+04   -0.12943E-01   -0.50480E-03  4403   0.477E-02    0.786E-02
RMM:  25    -0.231353593350E+04   -0.56408E-02   -0.17457E-03  4587   0.345E-02    0.469E-02
RMM:  26    -0.231353965410E+04   -0.37206E-02   -0.10946E-03  4533   0.230E-02    0.340E-02
RMM:  27    -0.231354198733E+04   -0.23332E-02   -0.61414E-04  4087   0.190E-02    0.162E-02
RMM:  28    -0.231354283315E+04   -0.84582E-03   -0.25254E-04  4006   0.112E-02    0.101E-02
RMM:  29    -0.231354315155E+04   -0.31840E-03   -0.72157E-05  3625   0.750E-03    0.638E-03
RMM:  30    -0.231354334813E+04   -0.19658E-03   -0.42142E-05  3335   0.487E-03    0.409E-03
RMM:  31    -0.231354341721E+04   -0.69088E-04   -0.12965E-05  2921   0.384E-03    0.259E-03
RMM:  32    -0.231354344824E+04   -0.31026E-04   -0.82630E-06  2822   0.279E-03    0.215E-03
RMM:  33    -0.231354345583E+04   -0.75864E-05   -0.35995E-06  2470   0.244E-03
   1 F= -.23343950E+04 E0= -.23343950E+04  d E =-.233440E+04  mag=     5.9999
       N       E                     dE             d eps       ncg     rms          rms(c)
DAV:   1    -0.231463858884E+04   -0.10951E+01   -0.99103E+01  4680   0.470E+00    0.280E+00
RMM:   2    -0.231501762036E+04   -0.37903E+00   -0.55260E+00  5615   0.119E+00    0.186E+00
RMM:   3    -0.231501435140E+04    0.32690E-02   -0.43333E-01  5299   0.364E-01    0.236E+00
RMM:   4    -0.231496918107E+04    0.45170E-01   -0.92685E-02  5402   0.142E-01    0.102E+00
RMM:   5    -0.231495675247E+04    0.12429E-01   -0.89386E-02  5037   0.103E-01    0.366E-01
RMM:   6    -0.231495431692E+04    0.24355E-02   -0.69486E-03  4916   0.653E-02    0.264E-01
RMM:   7    -0.231495414648E+04    0.17045E-03   -0.25377E-03  5066   0.215E-02    0.268E-01
RMM:   8    -0.231495340722E+04    0.73926E-03   -0.15663E-03  4793   0.182E-02    0.739E-02
RMM:   9    -0.231495328950E+04    0.11772E-03   -0.26617E-04  3958   0.978E-03    0.476E-02
RMM:  10    -0.231495323602E+04    0.53473E-04   -0.16848E-04  3751   0.789E-03    0.212E-02
RMM:  11    -0.231495321305E+04    0.22973E-04   -0.40653E-05  3113   0.648E-03    0.145E-02
RMM:  12    -0.231495320625E+04    0.68016E-05   -0.37187E-05  3215   0.534E-03
   2 F= -.23358024E+04 E0= -.23358024E+04  d E =-.140739E+01  mag=     6.0000
       N       E                     dE             d eps       ncg     rms          rms(c)
DAV:   1    -0.231496434892E+04   -0.11136E-01   -0.10719E+00  5000   0.491E-01    0.328E-01
RMM:   2    -0.231496683160E+04   -0.24827E-02   -0.53020E-02  5941   0.106E-01    0.231E-01
RMM:   3    -0.231496684304E+04   -0.11445E-04   -0.52211E-03  5079   0.357E-02    0.310E-01
RMM:   4    -0.231496601273E+04    0.83032E-03   -0.13275E-03  3756   0.156E-02    0.109E-01
RMM:   5    -0.231496584938E+04    0.16335E-03   -0.93442E-04  4175   0.118E-02    0.534E-02
RMM:   6    -0.231496581563E+04    0.33756E-04   -0.85337E-05  2990   0.807E-03    0.182E-02
RMM:   7    -0.231496581984E+04   -0.42114E-05   -0.33249E-05  2869   0.323E-03
   3 F= -.23358148E+04 E0= -.23358148E+04  d E =-.141980E+01  mag=     6.0000
       N       E                     dE             d eps       ncg     rms          rms(c)
DAV:   1    -0.231522191531E+04   -0.25610E+00   -0.22057E+01  4544   0.347E+00    0.167E+00
RMM:   2    -0.231550902931E+04   -0.28711E+00   -0.30139E+00  6185   0.851E-01    0.174E+00
RMM:   3    -0.231549857721E+04    0.10452E-01   -0.31064E-01  5954   0.302E-01    0.102E+00
RMM:   4    -0.231548903941E+04    0.95378E-02   -0.33435E-02  5431   0.714E-02    0.412E-01
RMM:   5    -0.231548726331E+04    0.17761E-02   -0.76878E-03  5473   0.434E-02    0.257E-01
RMM:   6    -0.231548814259E+04   -0.87928E-03   -0.41477E-03  5438   0.305E-02    0.408E-01
RMM:   7    -0.231548675294E+04    0.13897E-02   -0.14023E-03  4577   0.187E-02    0.481E-02
RMM:   8    -0.231548673990E+04    0.13040E-04   -0.22673E-04  3159   0.769E-03    0.359E-02
RMM:   9    -0.231548672297E+04    0.16929E-04   -0.42546E-05  2951   0.513E-03    0.161E-02
RMM:  10    -0.231548671680E+04    0.61665E-05   -0.20978E-05  2885   0.448E-03
   4 F= -.23363344E+04 E0= -.23363344E+04  d E =-.519601E+00  mag=     6.0000
       N       E                     dE             d eps       ncg     rms          rms(c)
DAV:   1    -0.231521200124E+04    0.27472E+00   -0.46776E+01  4648   0.502E+00    0.239E+00
RMM:   2    -0.231584978646E+04   -0.63779E+00   -0.66943E+00  6201   0.128E+00    0.231E+00
RMM:   3    -0.231582766375E+04    0.22123E-01   -0.65074E-01  5883   0.438E-01    0.131E+00
RMM:   4    -0.231581429830E+04    0.13365E-01   -0.71532E-02  5455   0.105E-01    0.644E-01
RMM:   5    -0.231581379395E+04    0.50434E-03   -0.16770E-02  5554   0.644E-02    0.720E-01
RMM:   6    -0.231580970629E+04    0.40877E-02   -0.10735E-02  5688   0.478E-02    0.316E-01
RMM:   7    -0.231580917787E+04    0.52842E-03   -0.20142E-03  5014   0.292E-02    0.950E-02
RMM:   8    -0.231580910136E+04    0.76506E-04   -0.37790E-04  4105   0.130E-02    0.496E-02
RMM:   9    -0.231580906482E+04    0.36538E-04   -0.12623E-04  3512   0.776E-03    0.242E-02
RMM:  10    -0.231580905528E+04    0.95436E-05   -0.45034E-05  3014   0.600E-03
   5 F= -.23366557E+04 E0= -.23366557E+04  d E =-.840842E+00  mag=     6.0000
       N       E                     dE             d eps       ncg     rms          rms(c)
DAV:   1    -0.231574354988E+04    0.65515E-01   -0.27070E+01  4640   0.464E+00    0.204E+00
RMM:   2    -0.231620307401E+04   -0.45952E+00   -0.46405E+00  6054   0.110E+00    0.203E+00
RMM:   3    -0.231618848760E+04    0.14586E-01   -0.42844E-01  5702   0.400E-01    0.116E+00
RMM:   4    -0.231617755643E+04    0.10931E-01   -0.50095E-02  5240   0.102E-01    0.591E-01
RMM:   5    -0.231617635145E+04    0.12050E-02   -0.14512E-02  5466   0.657E-02    0.680E-01
RMM:   6    -0.231617144640E+04    0.49051E-02   -0.10443E-02  5063   0.545E-02    0.154E-01
RMM:   7    -0.231617123802E+04    0.20837E-03   -0.16744E-03  4797   0.332E-02    0.619E-02
RMM:   8    -0.231617113187E+04    0.10616E-03   -0.28726E-04  4398   0.113E-02    0.345E-02
RMM:   9    -0.231617105583E+04    0.76039E-04   -0.13332E-04  3986   0.103E-02    0.193E-02
RMM:  10    -0.231617102288E+04    0.32950E-04   -0.55091E-05  3647   0.626E-03    0.101E-02
RMM:  11    -0.231617100811E+04    0.14765E-04   -0.24305E-05  3046   0.590E-03    0.833E-03
RMM:  12    -0.231617100274E+04    0.53695E-05   -0.21197E-05  3009   0.441E-03
   6 F= -.23370168E+04 E0= -.23370168E+04  d E =-.361077E+00  mag=     6.0000
       N       E                     dE             d eps       ncg     rms          rms(c)
DAV:   1    -0.231614771915E+04    0.23289E-01   -0.29546E+00  4696   0.155E+00    0.665E-01
RMM:   2    -0.231619633715E+04   -0.48618E-01   -0.49361E-01  6034   0.356E-01    0.608E-01
RMM:   3    -0.231619643955E+04   -0.10240E-03   -0.45044E-02  5668   0.132E-01    0.403E-01
RMM:   4    -0.231619504515E+04    0.13944E-02   -0.51268E-03  5130   0.339E-02    0.190E-01
RMM:   5    -0.231619490876E+04    0.13639E-03   -0.14468E-03  4982   0.221E-02    0.220E-01
RMM:   6    -0.231619439619E+04    0.51257E-03   -0.10972E-03  4890   0.184E-02    0.512E-02
RMM:   7    -0.231619436659E+04    0.29601E-04   -0.16828E-04  3762   0.110E-02    0.198E-02
RMM:   8    -0.231619435255E+04    0.14036E-04   -0.33853E-05  3042   0.493E-03    0.118E-02
RMM:   9    -0.231619434247E+04    0.10078E-04   -0.17737E-05  2940   0.406E-03    0.691E-03
RMM:  10    -0.231619433907E+04    0.34004E-05   -0.73593E-06  2842   0.338E-03
   7 F= -.23370399E+04 E0= -.23370399E+04  d E =-.384196E+00  mag=     6.0000
       N       E                     dE             d eps       ncg     rms          rms(c)
DAV:   1    -0.231568379892E+04    0.51054E+00   -0.31490E+01  4520   0.404E+00    0.213E+00
RMM:   2    -0.231637122265E+04   -0.68742E+00   -0.72761E+00  6424   0.109E+00    0.192E+00
RMM:   3    -0.231640687307E+04   -0.35650E-01   -0.79840E-01  5883   0.415E-01    0.139E+00
RMM:   4    -0.231639274678E+04    0.14126E-01   -0.65146E-02  5650   0.898E-02    0.613E-01
RMM:   5    -0.231639063723E+04    0.21095E-02   -0.12156E-02  5259   0.422E-02    0.579E-01
RMM:   6    -0.231638857034E+04    0.20669E-02   -0.92716E-03  5441   0.370E-02    0.364E-01
RMM:   7    -0.231638772265E+04    0.84770E-03   -0.26428E-03  4669   0.225E-02    0.877E-02
RMM:   8    -0.231638762300E+04    0.99645E-04   -0.34142E-04  3296   0.120E-02    0.486E-02
RMM:   9    -0.231638758755E+04    0.35457E-04   -0.19955E-04  3042   0.775E-03    0.237E-02
RMM:  10    -0.231638758051E+04    0.70326E-05   -0.41449E-05  2946   0.449E-03
   8 F= -.23372308E+04 E0= -.23372308E+04  d E =-.190941E+00  mag=     6.0000
       N       E                     dE             d eps       ncg     rms          rms(c)
DAV:   1    -0.231638575886E+04    0.18287E-02   -0.11914E-01  4928   0.240E-01    0.129E-01
RMM:   2    -0.231638818551E+04   -0.24267E-02   -0.25496E-02  6138   0.620E-02    0.113E-01
RMM:   3    -0.231638828668E+04   -0.10117E-03   -0.24111E-03  3246   0.227E-02    0.741E-02
RMM:   4    -0.231638825155E+04    0.35129E-04   -0.23355E-04  2965   0.633E-03    0.336E-02
RMM:   5    -0.231638824770E+04    0.38495E-05   -0.37027E-05  2831   0.321E-03
   9 F= -.23372316E+04 E0= -.23372316E+04  d E =-.191736E+00  mag=     6.0000
       N       E                     dE             d eps       ncg     rms          rms(c)
DAV:   1    -0.231637156190E+04    0.16690E-01   -0.54617E+00  4528   0.238E+00    0.105E+00
RMM:   2    -0.231643702889E+04   -0.65467E-01   -0.71995E-01  5700   0.478E-01    0.585E-01
RMM:   3    -0.231644195179E+04   -0.49229E-02   -0.76422E-02  5291   0.198E-01    0.644E-01
RMM:   4    -0.231643839848E+04    0.35533E-02   -0.89484E-03  5356   0.523E-02    0.210E-01
RMM:   5    -0.231643762042E+04    0.77805E-03   -0.27011E-03  5016   0.370E-02    0.133E-01
RMM:   6    -0.231643755347E+04    0.66950E-04   -0.11264E-03  5098   0.228E-02    0.174E-01
RMM:   7    -0.231643723503E+04    0.31845E-03   -0.41618E-04  4762   0.161E-02    0.512E-02
RMM:   8    -0.231643716406E+04    0.70970E-04   -0.10104E-04  3603   0.702E-03    0.204E-02
RMM:   9    -0.231643712334E+04    0.40716E-04   -0.62723E-05  3621   0.676E-03    0.104E-02
RMM:  10    -0.231643711232E+04    0.11019E-04   -0.20287E-05  2943   0.517E-03    0.661E-03
RMM:  11    -0.231643710829E+04    0.40357E-05   -0.14604E-05  2854   0.445E-03
  10 F= -.23372804E+04 E0= -.23372804E+04  d E =-.488384E-01  mag=     6.0000
       N       E                     dE             d eps       ncg     rms          rms(c)
DAV:   1    -0.231643617354E+04    0.93879E-03   -0.17258E-01  5256   0.421E-01    0.185E-01
RMM:   2    -0.231643824598E+04   -0.20724E-02   -0.22756E-02  5885   0.866E-02    0.106E-01
RMM:   3    -0.231643839265E+04   -0.14667E-03   -0.22996E-03  4673   0.364E-02    0.114E-01
RMM:   4    -0.231643827742E+04    0.11524E-03   -0.27641E-04  3409   0.101E-02    0.384E-02
RMM:   5    -0.231643825535E+04    0.22067E-04   -0.90590E-05  3597   0.796E-03    0.304E-02
RMM:   6    -0.231643824882E+04    0.65274E-05   -0.40985E-05  2956   0.621E-03
  11 F= -.23372816E+04 E0= -.23372816E+04  d E =-.499751E-01  mag=     6.0000
       N       E                     dE             d eps       ncg     rms          rms(c)
DAV:   1    -0.231639931577E+04    0.38940E-01   -0.44556E+00  4480   0.169E+00    0.746E-01
RMM:   2    -0.231647881215E+04   -0.79496E-01   -0.82049E-01  5930   0.360E-01    0.597E-01
RMM:   3    -0.231648472701E+04   -0.59149E-02   -0.90684E-02  5559   0.154E-01    0.429E-01
RMM:   4    -0.231648396639E+04    0.76062E-03   -0.87478E-03  4849   0.325E-02    0.176E-01
RMM:   5    -0.231648359530E+04    0.37109E-03   -0.97052E-04  4444   0.164E-02    0.105E-01
RMM:   6    -0.231648351467E+04    0.80632E-04   -0.59678E-04  4528   0.139E-02    0.761E-02
RMM:   7    -0.231648346897E+04    0.45695E-04   -0.14715E-04  3279   0.104E-02    0.229E-02
RMM:   8    -0.231648346587E+04    0.31083E-05   -0.23495E-05  2877   0.425E-03
  12 F= -.23373268E+04 E0= -.23373268E+04  d E =-.452157E-01  mag=     6.0000
       N       E                     dE             d eps       ncg     rms          rms(c)
DAV:   1    -0.231635397655E+04    0.12949E+00   -0.80439E+00  4464   0.227E+00    0.101E+00
RMM:   2    -0.231649834157E+04   -0.14437E+00   -0.14935E+00  5940   0.489E-01    0.812E-01
RMM:   3    -0.231650928750E+04   -0.10946E-01   -0.17094E-01  5592   0.205E-01    0.580E-01
RMM:   4    -0.231650787871E+04    0.14088E-02   -0.15975E-02  5049   0.435E-02    0.245E-01
RMM:   5    -0.231650737634E+04    0.50238E-03   -0.18478E-03  4965   0.217E-02    0.199E-01
RMM:   6    -0.231650715516E+04    0.22118E-03   -0.14329E-03  4941   0.188E-02    0.159E-01
RMM:   7    -0.231650692067E+04    0.23449E-03   -0.50092E-04  4697   0.141E-02    0.717E-02
RMM:   8    -0.231650688339E+04    0.37272E-04   -0.12204E-04  3150   0.735E-03    0.273E-02
RMM:   9    -0.231650687504E+04    0.83527E-05   -0.30918E-05  2882   0.541E-03
  13 F= -.23373503E+04 E0= -.23373503E+04  d E =-.687143E-01  mag=     6.0000
       N       E                     dE             d eps       ncg     rms          rms(c)
DAV:   1    -0.231643621821E+04    0.70665E-01   -0.58249E+00  4456   0.204E+00    0.819E-01
RMM:   2    -0.231652919204E+04   -0.92974E-01   -0.97076E-01  5856   0.410E-01    0.548E-01
RMM:   3    -0.231653661071E+04   -0.74187E-02   -0.10677E-01  5513   0.176E-01    0.439E-01
RMM:   4    -0.231653589530E+04    0.71541E-03   -0.10198E-02  5139   0.367E-02    0.209E-01
RMM:   5    -0.231653544834E+04    0.44696E-03   -0.13777E-03  4857   0.209E-02    0.143E-01
RMM:   6    -0.231653535506E+04    0.93277E-04   -0.10080E-03  4974   0.171E-02    0.122E-01
RMM:   7    -0.231653525308E+04    0.10198E-03   -0.32549E-04  3716   0.123E-02    0.780E-02
RMM:   8    -0.231653519769E+04    0.55394E-04   -0.83415E-05  2961   0.574E-03    0.209E-02
RMM:   9    -0.231653519413E+04    0.35586E-05   -0.18393E-05  2877   0.425E-03
  14 F= -.23373787E+04 E0= -.23373787E+04  d E =-.283637E-01  mag=     6.0000
       N       E                     dE             d eps       ncg     rms          rms(c)
DAV:   1    -0.231652744206E+04    0.77556E-02   -0.55490E-01  4704   0.629E-01    0.253E-01
RMM:   2    -0.231653626998E+04   -0.88279E-02   -0.92622E-02  5868   0.126E-01    0.156E-01
RMM:   3    -0.231653701132E+04   -0.74134E-03   -0.98440E-03  4920   0.520E-02    0.133E-01
RMM:   4    -0.231653694208E+04    0.69240E-04   -0.97860E-04  3221   0.117E-02    0.651E-02
RMM:   5    -0.231653689531E+04    0.46775E-04   -0.12663E-04  3040   0.743E-03    0.412E-02
RMM:   6    -0.231653688502E+04    0.10287E-04   -0.90592E-05  3329   0.696E-03    0.331E-02
RMM:   7    -0.231653687882E+04    0.61960E-05   -0.30101E-05  2894   0.556E-03
  15 F= -.23373804E+04 E0= -.23373804E+04  d E =-.300719E-01  mag=     6.0000
       N       E                     dE             d eps       ncg     rms          rms(c)
DAV:   1    -0.231651317428E+04    0.23711E-01   -0.22900E+00  4480   0.126E+00    0.480E-01
RMM:   2    -0.231655374344E+04   -0.40569E-01   -0.42223E-01  6121   0.262E-01    0.271E-01
RMM:   3    -0.231655749875E+04   -0.37553E-02   -0.46625E-02  5409   0.108E-01    0.174E-01
RMM:   4    -0.231655763728E+04   -0.13853E-03   -0.43289E-03  4088   0.210E-02    0.123E-01
RMM:   5    -0.231655753597E+04    0.10131E-03   -0.37500E-04  3414   0.109E-02    0.102E-01
RMM:   6    -0.231655743584E+04    0.10013E-03   -0.30670E-04  4068   0.105E-02    0.443E-02
RMM:   7    -0.231655742897E+04    0.68693E-05   -0.62472E-05  2954   0.696E-03
  16 F= -.23374014E+04 E0= -.23374014E+04  d E =-.209864E-01  mag=     6.0000
       N       E                     dE             d eps       ncg     rms          rms(c)
DAV:   1    -0.231625241729E+04    0.30502E+00   -0.16451E+01  4464   0.338E+00    0.130E+00
RMM:   2    -0.231655366379E+04   -0.30125E+00   -0.31362E+00  6184   0.715E-01    0.823E-01
RMM:   3    -0.231657930372E+04   -0.25640E-01   -0.34389E-01  5640   0.283E-01    0.542E-01
RMM:   4    -0.231657985699E+04   -0.55327E-03   -0.31059E-02  5347   0.564E-02    0.343E-01
RMM:   5    -0.231657902164E+04    0.83536E-03   -0.28799E-03  5063   0.262E-02    0.279E-01
RMM:   6    -0.231657837158E+04    0.65006E-03   -0.24410E-03  4980   0.252E-02    0.157E-01
RMM:   7    -0.231657825903E+04    0.11255E-03   -0.67153E-04  4410   0.163E-02    0.115E-01
RMM:   8    -0.231657816579E+04    0.93236E-04   -0.26142E-04  3304   0.836E-03    0.476E-02
RMM:   9    -0.231657814523E+04    0.20562E-04   -0.59554E-05  2886   0.604E-03    0.161E-02
RMM:  10    -0.231657814932E+04   -0.40845E-05   -0.24285E-05  2896   0.356E-03
  17 F= -.23374233E+04 E0= -.23374233E+04  d E =-.429144E-01  mag=     6.0000
       N       E                     dE             d eps       ncg     rms          rms(c)
DAV:   1    -0.231654082082E+04    0.37324E-01   -0.33036E+00  4488   0.170E+00    0.587E-01
RMM:   2    -0.231659211543E+04   -0.51295E-01   -0.53484E-01  5839   0.335E-01    0.303E-01
RMM:   3    -0.231659644311E+04   -0.43277E-02   -0.56721E-02  5347   0.146E-01    0.220E-01
RMM:   4    -0.231659643226E+04    0.10851E-04   -0.54564E-03  5121   0.279E-02    0.188E-01
RMM:   5    -0.231659610481E+04    0.32745E-03   -0.67765E-04  4330   0.155E-02    0.914E-02
RMM:   6    -0.231659601581E+04    0.89004E-04   -0.42943E-04  4548   0.133E-02    0.564E-02
RMM:   7    -0.231659600771E+04    0.80920E-05   -0.12647E-04  3312   0.983E-03    0.444E-02
RMM:   8    -0.231659598747E+04    0.20247E-04   -0.32523E-05  2899   0.475E-03    0.113E-02
RMM:   9    -0.231659598599E+04    0.14803E-05   -0.13094E-05  2893   0.358E-03
  18 F= -.23374417E+04 E0= -.23374417E+04  d E =-.184173E-01  mag=     6.0000
       N       E                     dE             d eps       ncg     rms          rms(c)
DAV:   1    -0.231653475962E+04    0.61228E-01   -0.40605E+00  4464   0.188E+00    0.651E-01
RMM:   2    -0.231659785614E+04   -0.63097E-01   -0.65834E-01  5820   0.370E-01    0.334E-01
RMM:   3    -0.231660326185E+04   -0.54057E-02   -0.70360E-02  5346   0.161E-01    0.247E-01
RMM:   4    -0.231660324464E+04    0.17207E-04   -0.67146E-03  5258   0.309E-02    0.209E-01
RMM:   5    -0.231660283852E+04    0.40612E-03   -0.81433E-04  4439   0.169E-02    0.103E-01
RMM:   6    -0.231660272020E+04    0.11832E-03   -0.54158E-04  4658   0.147E-02    0.627E-02
RMM:   7    -0.231660270829E+04    0.11916E-04   -0.16055E-04  3572   0.107E-02    0.501E-02
RMM:   8    -0.231660268067E+04    0.27620E-04   -0.41499E-05  2916   0.505E-03    0.131E-02
RMM:   9    -0.231660267662E+04    0.40470E-05   -0.16642E-05  2905   0.392E-03
  19 F= -.23374490E+04 E0= -.23374490E+04  d E =-.257386E-01  mag=     6.0000
       N       E                     dE             d eps       ncg     rms          rms(c)
DAV:   1    -0.231659514754E+04    0.75331E-02   -0.19071E+00  4520   0.131E+00    0.465E-01
RMM:   2    -0.231661876103E+04   -0.23613E-01   -0.23790E-01  5762   0.249E-01    0.420E-01
RMM:   3    -0.231661936901E+04   -0.60798E-03   -0.21222E-02  5423   0.921E-02    0.275E-01
RMM:   4    -0.231661870954E+04    0.65947E-03   -0.25331E-03  4780   0.228E-02    0.111E-01
RMM:   5    -0.231661855464E+04    0.15490E-03   -0.45443E-04  4632   0.155E-02    0.731E-02
RMM:   6    -0.231661857123E+04   -0.16595E-04   -0.31513E-04  4355   0.115E-02    0.872E-02
RMM:   7    -0.231661849387E+04    0.77360E-04   -0.91697E-05  3279   0.793E-03    0.140E-02
RMM:   8    -0.231661848933E+04    0.45411E-05   -0.15312E-05  2911   0.439E-03
  20 F= -.23374649E+04 E0= -.23374649E+04  d E =-.158592E-01  mag=     6.0000
       N       E                     dE             d eps       ncg     rms          rms(c)
DAV:   1    -0.231659398405E+04    0.24510E-01   -0.25332E+00  4464   0.151E+00    0.536E-01
RMM:   2    -0.231662520933E+04   -0.31225E-01   -0.31464E-01  5770   0.287E-01    0.482E-01
RMM:   3    -0.231662595306E+04   -0.74374E-03   -0.27404E-02  5466   0.107E-01    0.318E-01
RMM:   4    -0.231662504617E+04    0.90689E-03   -0.33550E-03  4833   0.262E-02    0.128E-01
RMM:   5    -0.231662482653E+04    0.21964E-03   -0.61563E-04  4817   0.180E-02    0.816E-02
RMM:   6    -0.231662485187E+04   -0.25340E-04   -0.42442E-04  4669   0.132E-02    0.102E-01
RMM:   7    -0.231662474291E+04    0.10897E-03   -0.12048E-04  3472   0.874E-03    0.154E-02
RMM:   8    -0.231662473533E+04    0.75805E-05   -0.19537E-05  2922   0.454E-03
  21 F= -.23374712E+04 E0= -.23374712E+04  d E =-.221426E-01  mag=     6.0000
       N       E                     dE             d eps       ncg     rms          rms(c)
DAV:   1    -0.231661625761E+04    0.84853E-02   -0.13654E+00  4504   0.106E+00    0.399E-01
RMM:   2    -0.231663914058E+04   -0.22883E-01   -0.22150E-01  6048   0.210E-01    0.497E-01
RMM:   3    -0.231663839903E+04    0.74156E-03   -0.18706E-02  5484   0.734E-02    0.189E-01
RMM:   4    -0.231663821708E+04    0.18195E-03   -0.21588E-03  4109   0.171E-02    0.844E-02
RMM:   5    -0.231663813475E+04    0.82327E-04   -0.15188E-04  3520   0.912E-03    0.630E-02
RMM:   6    -0.231663811129E+04    0.23460E-04   -0.23708E-04  3812   0.108E-02    0.300E-02
RMM:   7    -0.231663810504E+04    0.62462E-05   -0.28904E-05  2916   0.620E-03
  22 F= -.23374844E+04 E0= -.23374844E+04  d E =-.132052E-01  mag=     6.0000
       N       E                     dE             d eps       ncg     rms          rms(c)
DAV:   1    -0.231646670410E+04    0.17141E+00   -0.12282E+01  4464   0.317E+00    0.121E+00
RMM:   2    -0.231667244825E+04   -0.20574E+00   -0.19876E+00  6016   0.635E-01    0.151E+00
RMM:   3    -0.231666527703E+04    0.71712E-02   -0.18014E-01  5756   0.221E-01    0.542E-01
RMM:   4    -0.231666422540E+04    0.10516E-02   -0.19942E-02  5110   0.504E-02    0.258E-01
RMM:   5    -0.231666369872E+04    0.52668E-03   -0.15575E-03  4837   0.253E-02    0.238E-01
RMM:   6    -0.231666354724E+04    0.15148E-03   -0.16646E-03  5008   0.221E-02    0.195E-01
RMM:   7    -0.231666321851E+04    0.32873E-03   -0.97225E-04  4598   0.191E-02    0.602E-02
RMM:   8    -0.231666318393E+04    0.34583E-04   -0.63355E-05  2926   0.724E-03    0.234E-02
RMM:   9    -0.231666318169E+04    0.22447E-05   -0.24776E-05  2888   0.395E-03
  23 F= -.23375088E+04 E0= -.23375088E+04  d E =-.376755E-01  mag=     6.0000
       N       E                     dE             d eps       ncg     rms          rms(c)
DAV:   1    -0.231584235680E+04    0.82083E+00   -0.48992E+01  4464   0.633E+00    0.244E+00
RMM:   2    -0.231669107900E+04   -0.84872E+00   -0.81818E+00  6093   0.131E+00    0.306E+00
RMM:   3    -0.231665597139E+04    0.35108E-01   -0.77700E-01  5873   0.458E-01    0.101E+00
RMM:   4    -0.231665374510E+04    0.22263E-02   -0.83485E-02  5229   0.102E-01    0.551E-01
RMM:   5    -0.231665249995E+04    0.12452E-02   -0.75687E-03  5192   0.502E-02    0.566E-01
RMM:   6    -0.231665026253E+04    0.22374E-02   -0.57480E-03  5207   0.424E-02    0.354E-01
RMM:   7    -0.231664946627E+04    0.79626E-03   -0.56871E-03  5028   0.449E-02    0.173E-01
RMM:   8    -0.231664918494E+04    0.28133E-03   -0.34616E-04  3918   0.147E-02    0.622E-02
RMM:   9    -0.231664916323E+04    0.21712E-04   -0.11893E-04  3077   0.711E-03    0.261E-02
RMM:  10    -0.231664917356E+04   -0.10328E-04   -0.60496E-05  2921   0.540E-03    0.157E-02
RMM:  11    -0.231664917790E+04   -0.43400E-05   -0.13375E-05  2890   0.358E-03
  24 F= -.23374930E+04 E0= -.23374930E+04  d E =-.218503E-01  mag=     6.0000
       N       E                     dE             d eps       ncg     rms          rms(c)
DAV:   1    -0.231629827976E+04    0.35089E+00   -0.22641E+01  4464   0.432E+00    0.159E+00
RMM:   2    -0.231667008213E+04   -0.37180E+00   -0.36541E+00  5973   0.851E-01    0.177E+00
RMM:   3    -0.231667381758E+04   -0.37354E-02   -0.34524E-01  5678   0.316E-01    0.854E-01
RMM:   4    -0.231666980321E+04    0.40144E-02   -0.35956E-02  5175   0.700E-02    0.369E-01
RMM:   5    -0.231666891744E+04    0.88577E-03   -0.33067E-03  4999   0.341E-02    0.320E-01
RMM:   6    -0.231666827688E+04    0.64057E-03   -0.30786E-03  5123   0.308E-02    0.247E-01
RMM:   7    -0.231666777947E+04    0.49740E-03   -0.13459E-03  4721   0.249E-02    0.497E-02
RMM:   8    -0.231666777255E+04    0.69214E-05   -0.14520E-04  3342   0.868E-03    0.288E-02
RMM:   9    -0.231666776447E+04    0.80790E-05   -0.37701E-05  2903   0.520E-03
  25 F= -.23375129E+04 E0= -.23375129E+04  d E =-.417684E-01  mag=     6.0000
       N       E                     dE             d eps       ncg     rms          rms(c)
DAV:   1    -0.231666386890E+04    0.39037E-02   -0.82051E-01  4512   0.821E-01    0.317E-01
RMM:   2    -0.231667854880E+04   -0.14680E-01   -0.14294E-01  6035   0.167E-01    0.374E-01
RMM:   3    -0.231667840287E+04    0.14593E-03   -0.12890E-02  5317   0.577E-02    0.151E-01
RMM:   4    -0.231667828305E+04    0.11982E-03   -0.13938E-03  3637   0.138E-02    0.682E-02
RMM:   5    -0.231667822972E+04    0.53324E-04   -0.88511E-05  3174   0.742E-03    0.501E-02
RMM:   6    -0.231667823010E+04   -0.37567E-06   -0.14573E-04  3383   0.828E-03    0.484E-02
RMM:   7    -0.231667820855E+04    0.21545E-04   -0.40262E-05  2899   0.591E-03    0.115E-02
RMM:   8    -0.231667820727E+04    0.12852E-05   -0.44721E-06  2762   0.259E-03
  26 F= -.23375230E+04 E0= -.23375230E+04  d E =-.100667E-01  mag=     6.0000
       N       E                     dE             d eps       ncg     rms          rms(c)
DAV:   1    -0.231657290267E+04    0.10531E+00   -0.74016E+00  4464   0.247E+00    0.961E-01
RMM:   2    -0.231670547684E+04   -0.13257E+00   -0.12838E+00  6051   0.507E-01    0.117E+00
RMM:   3    -0.231670307659E+04    0.24003E-02   -0.12103E-01  5803   0.175E-01    0.436E-01
RMM:   4    -0.231670234215E+04    0.73444E-03   -0.13059E-02  5035   0.402E-02    0.213E-01
RMM:   5    -0.231670206666E+04    0.27549E-03   -0.10831E-03  4650   0.201E-02    0.202E-01
RMM:   6    -0.231670184497E+04    0.22169E-03   -0.97587E-04  4765   0.174E-02    0.144E-01
RMM:   7    -0.231670168101E+04    0.16396E-03   -0.65398E-04  4320   0.167E-02    0.430E-02
RMM:   8    -0.231670166375E+04    0.17258E-04   -0.47689E-05  2950   0.637E-03    0.178E-02
RMM:   9    -0.231670166166E+04    0.20843E-05   -0.17115E-05  2881   0.360E-03
  27 F= -.23375452E+04 E0= -.23375452E+04  d E =-.323083E-01  mag=     6.0000
       N       E                     dE             d eps       ncg     rms          rms(c)
DAV:   1    -0.231619073160E+04    0.51093E+00   -0.29582E+01  4464   0.493E+00    0.194E+00
RMM:   2    -0.231672940122E+04   -0.53867E+00   -0.52132E+00  6118   0.104E+00    0.235E+00
RMM:   3    -0.231671728064E+04    0.12121E-01   -0.49771E-01  5918   0.352E-01    0.840E-01
RMM:   4    -0.231671509806E+04    0.21826E-02   -0.53735E-02  5257   0.816E-02    0.455E-01
RMM:   5    -0.231671423990E+04    0.85816E-03   -0.48396E-03  5158   0.386E-02    0.433E-01
RMM:   6    -0.231671282079E+04    0.14191E-02   -0.36978E-03  5011   0.343E-02    0.270E-01
RMM:   7    -0.231671234647E+04    0.47432E-03   -0.31217E-03  4898   0.350E-02    0.112E-01
RMM:   8    -0.231671223164E+04    0.11482E-03   -0.21320E-04  3614   0.115E-02    0.416E-02
RMM:   9    -0.231671222238E+04    0.92661E-05   -0.74071E-05  2977   0.615E-03
  28 F= -.23375530E+04 E0= -.23375530E+04  d E =-.400949E-01  mag=     6.0000
       N       E                     dE             d eps       ncg     rms          rms(c)
DAV:   1    -0.231665294955E+04    0.59282E-01   -0.35342E+00  4464   0.171E+00    0.650E-01
RMM:   2    -0.231671521575E+04   -0.62266E-01   -0.60933E-01  6016   0.344E-01    0.739E-01
RMM:   3    -0.231671512285E+04    0.92902E-04   -0.52696E-02  5694   0.120E-01    0.330E-01
RMM:   4    -0.231671452021E+04    0.60263E-03   -0.60992E-03  4851   0.280E-02    0.142E-01
RMM:   5    -0.231671429074E+04    0.22947E-03   -0.41660E-04  4158   0.142E-02    0.972E-02
RMM:   6    -0.231671429140E+04   -0.65583E-06   -0.56177E-04  4325   0.155E-02    0.894E-02
RMM:   7    -0.231671421409E+04    0.77304E-04   -0.13488E-04  3063   0.974E-03    0.222E-02
RMM:   8    -0.231671421072E+04    0.33734E-05   -0.17629E-05  2894   0.327E-03
  29 F= -.23375560E+04 E0= -.23375560E+04  d E =-.430899E-01  mag=     6.0000
       N       E                     dE             d eps       ncg     rms          rms(c)
DAV:   1    -0.231671214943E+04    0.20647E-02   -0.71069E-01  4544   0.768E-01    0.305E-01
RMM:   2    -0.231672346686E+04   -0.11317E-01   -0.11008E-01  5902   0.151E-01    0.349E-01
RMM:   3    -0.231672310200E+04    0.36486E-03   -0.88819E-03  5326   0.538E-02    0.154E-01
RMM:   4    -0.231672294512E+04    0.15687E-03   -0.11205E-03  4131   0.135E-02    0.620E-02
RMM:   5    -0.231672289491E+04    0.50215E-04   -0.10962E-04  3609   0.857E-03    0.478E-02
RMM:   6    -0.231672289831E+04   -0.33980E-05   -0.11945E-04  3299   0.821E-03    0.509E-02
RMM:   7    -0.231672287124E+04    0.27066E-04   -0.39948E-05  2893   0.635E-03    0.994E-03
RMM:   8    -0.231672287016E+04    0.10843E-05   -0.61676E-06  2841   0.326E-03
  30 F= -.23375642E+04 E0= -.23375642E+04  d E =-.821987E-02  mag=     6.0000
       N       E                     dE             d eps       ncg     rms          rms(c)
DAV:   1    -0.231663954768E+04    0.83324E-01   -0.63963E+00  4464   0.230E+00    0.916E-01
RMM:   2    -0.231674121689E+04   -0.10167E+00   -0.98999E-01  5917   0.457E-01    0.105E+00
RMM:   3    -0.231673922281E+04    0.19941E-02   -0.93410E-02  5689   0.164E-01    0.458E-01
RMM:   4    -0.231673771228E+04    0.15105E-02   -0.10227E-02  5062   0.399E-02    0.194E-01
RMM:   5    -0.231673740959E+04    0.30269E-03   -0.11901E-03  5039   0.234E-02    0.187E-01
RMM:   6    -0.231673720987E+04    0.19972E-03   -0.96042E-04  5040   0.182E-02    0.132E-01
RMM:   7    -0.231673703159E+04    0.17828E-03   -0.41335E-04  4443   0.148E-02    0.317E-02
RMM:   8    -0.231673701978E+04    0.11806E-04   -0.34565E-05  2927   0.641E-03    0.174E-02
RMM:   9    -0.231673701197E+04    0.78129E-05   -0.18204E-05  2887   0.387E-03
  31 F= -.23375770E+04 E0= -.23375770E+04  d E =-.209870E-01  mag=     6.0000
       N       E                     dE             d eps       ncg     rms          rms(c)
DAV:   1    -0.231673396043E+04    0.30593E-02   -0.11745E+00  4512   0.910E-01    0.361E-01
RMM:   2    -0.231674979165E+04   -0.15831E-01   -0.15462E-01  6037   0.180E-01    0.404E-01
RMM:   3    -0.231674958681E+04    0.20484E-03   -0.13545E-02  5590   0.630E-02    0.189E-01
RMM:   4    -0.231674937959E+04    0.20722E-03   -0.16549E-03  4216   0.154E-02    0.784E-02
RMM:   5    -0.231674931209E+04    0.67501E-04   -0.15024E-04  3767   0.949E-03    0.547E-02
RMM:   6    -0.231674932238E+04   -0.10291E-04   -0.17952E-04  3627   0.971E-03    0.559E-02
RMM:   7    -0.231674929088E+04    0.31499E-04   -0.43906E-05  2897   0.645E-03    0.114E-02
RMM:   8    -0.231674928966E+04    0.12278E-05   -0.59808E-06  2852   0.279E-03
  32 F= -.23375888E+04 E0= -.23375888E+04  d E =-.118027E-01  mag=     6.0000
       N       E                     dE             d eps       ncg     rms          rms(c)
DAV:   1    -0.231662829487E+04    0.12100E+00   -0.10575E+01  4464   0.273E+00    0.108E+00
RMM:   2    -0.231677074400E+04   -0.14245E+00   -0.13969E+00  6013   0.542E-01    0.120E+00
RMM:   3    -0.231677045255E+04    0.29145E-03   -0.12976E-01  5783   0.186E-01    0.587E-01
RMM:   4    -0.231676799587E+04    0.24567E-02   -0.15120E-02  5237   0.459E-02    0.237E-01
RMM:   5    -0.231676748154E+04    0.51433E-03   -0.14542E-03  4988   0.255E-02    0.182E-01
RMM:   6    -0.231676760115E+04   -0.11961E-03   -0.16468E-03  5114   0.234E-02    0.199E-01
RMM:   7    -0.231676719998E+04    0.40118E-03   -0.54218E-04  4505   0.157E-02    0.350E-02
RMM:   8    -0.231676718651E+04    0.13460E-04   -0.52509E-05  2942   0.580E-03    0.204E-02
RMM:   9    -0.231676717719E+04    0.93209E-05   -0.22882E-05  2880   0.411E-03
  33 F= -.23376052E+04 E0= -.23376052E+04  d E =-.281990E-01  mag=     6.0000
       N       E                     dE             d eps       ncg     rms          rms(c)
DAV:   1    -0.231674408529E+04    0.23101E-01   -0.24355E+00  4464   0.125E+00    0.510E-01
RMM:   2    -0.231677764706E+04   -0.33562E-01   -0.32974E-01  6094   0.253E-01    0.537E-01
RMM:   3    -0.231677806637E+04   -0.41932E-03   -0.29729E-02  5749   0.898E-02    0.278E-01
RMM:   4    -0.231677754502E+04    0.52135E-03   -0.35126E-03  4786   0.216E-02    0.121E-01
RMM:   5    -0.231677738798E+04    0.15704E-03   -0.37230E-04  4217   0.132E-02    0.731E-02
RMM:   6    -0.231677737534E+04    0.12643E-04   -0.30164E-04  4100   0.124E-02    0.389E-02
RMM:   7    -0.231677736460E+04    0.10739E-04   -0.52522E-05  2927   0.704E-03    0.205E-02
RMM:   8    -0.231677735976E+04    0.48452E-05   -0.79593E-06  2869   0.273E-03
  34 F= -.23376146E+04 E0= -.23376146E+04  d E =-.942625E-02  mag=     6.0000
       N       E                     dE             d eps       ncg     rms          rms(c)
DAV:   1    -0.231676946584E+04    0.78988E-02   -0.70700E-01  4592   0.673E-01    0.277E-01
RMM:   2    -0.231677926941E+04   -0.98036E-02   -0.96146E-02  6005   0.136E-01    0.296E-01
RMM:   3    -0.231677933574E+04   -0.66328E-04   -0.85787E-03  5312   0.485E-02    0.149E-01
RMM:   4    -0.231677918358E+04    0.15216E-03   -0.10166E-03  3471   0.119E-02    0.652E-02
RMM:   5    -0.231677913575E+04    0.47829E-04   -0.10955E-04  3302   0.781E-03    0.399E-02
RMM:   6    -0.231677912907E+04    0.66863E-05   -0.86612E-05  3152   0.761E-03
  35 F= -.23376160E+04 E0= -.23376160E+04  d E =-.107844E-01  mag=     6.0000
       N       E                     dE             d eps       ncg     rms          rms(c)
DAV:   1    -0.231676802469E+04    0.11111E-01   -0.90034E-01  4496   0.808E-01    0.337E-01
RMM:   2    -0.231678320698E+04   -0.15182E-01   -0.15280E-01  6056   0.173E-01    0.330E-01
RMM:   3    -0.231678359271E+04   -0.38573E-03   -0.14804E-02  5543   0.693E-02    0.192E-01
RMM:   4    -0.231678336147E+04    0.23124E-03   -0.16759E-03  4137   0.158E-02    0.745E-02
RMM:   5    -0.231678328757E+04    0.73906E-04   -0.15980E-04  3631   0.908E-03    0.440E-02
RMM:   6    -0.231678327919E+04    0.83732E-05   -0.11232E-04  3597   0.868E-03    0.326E-02
RMM:   7    -0.231678327131E+04    0.78801E-05   -0.26355E-05  2896   0.595E-03
  36 F= -.23376199E+04 E0= -.23376199E+04  d E =-.389967E-02  mag=     6.0000
       N       E                     dE             d eps       ncg     rms          rms(c)
DAV:   1    -0.231677962729E+04    0.36519E-02   -0.24252E-01  4592   0.419E-01    0.175E-01
RMM:   2    -0.231678372884E+04   -0.41015E-02   -0.41208E-02  6076   0.899E-02    0.173E-01
RMM:   3    -0.231678381417E+04   -0.85330E-04   -0.38947E-03  4576   0.362E-02    0.989E-02
RMM:   4    -0.231678375370E+04    0.60474E-04   -0.44676E-04  3067   0.881E-03    0.387E-02
RMM:   5    -0.231678373558E+04    0.18117E-04   -0.44049E-05  2962   0.528E-03    0.256E-02
RMM:   6    -0.231678374049E+04   -0.49100E-05   -0.41361E-05  2904   0.539E-03
  37 F= -.23376202E+04 E0= -.23376202E+04  d E =-.424069E-02  mag=     6.0000
       N       E                     dE             d eps       ncg     rms          rms(c)
DAV:   1    -0.231676477914E+04    0.18956E-01   -0.11220E+00  4472   0.943E-01    0.391E-01
RMM:   2    -0.231678787657E+04   -0.23097E-01   -0.23157E-01  6076   0.211E-01    0.368E-01
RMM:   3    -0.231678854033E+04   -0.66376E-03   -0.20166E-02  5572   0.791E-02    0.223E-01
RMM:   4    -0.231678822320E+04    0.31713E-03   -0.24469E-03  4331   0.178E-02    0.806E-02
RMM:   5    -0.231678814592E+04    0.77279E-04   -0.15345E-04  3371   0.860E-03    0.523E-02
RMM:   6    -0.231678811841E+04    0.27510E-04   -0.16077E-04  4007   0.980E-03    0.182E-02
RMM:   7    -0.231678811886E+04   -0.44884E-06   -0.24932E-05  2898   0.641E-03
  38 F= -.23376243E+04 E0= -.23376243E+04  d E =-.402545E-02  mag=     6.0000
       N       E                     dE             d eps       ncg     rms          rms(c)
DAV:   1    -0.231668910870E+04    0.99010E-01   -0.48054E+00  4464   0.195E+00    0.808E-01
RMM:   2    -0.231678823899E+04   -0.99130E-01   -0.99560E-01  6169   0.439E-01    0.754E-01
RMM:   3    -0.231679147466E+04   -0.32357E-02   -0.91975E-02  5883   0.162E-01    0.457E-01
RMM:   4    -0.231679009798E+04    0.13767E-02   -0.10311E-02  5296   0.366E-02    0.168E-01
RMM:   5    -0.231678977113E+04    0.32685E-03   -0.79585E-04  4608   0.166E-02    0.110E-01
RMM:   6    -0.231678966778E+04    0.10335E-03   -0.62826E-04  4664   0.176E-02    0.711E-02
RMM:   7    -0.231678963263E+04    0.35152E-04   -0.14492E-04  3240   0.106E-02    0.322E-02
RMM:   8    -0.231678962366E+04    0.89713E-05   -0.23379E-05  2920   0.376E-03
  39 F= -.23376250E+04 E0= -.23376250E+04  d E =-.478019E-02  mag=     6.0000
       N       E                     dE             d eps       ncg     rms          rms(c)
DAV:   1    -0.231677262508E+04    0.17008E-01   -0.83861E-01  4480   0.818E-01    0.338E-01
RMM:   2    -0.231679009376E+04   -0.17469E-01   -0.17484E-01  6147   0.181E-01    0.328E-01
RMM:   3    -0.231679055310E+04   -0.45933E-03   -0.15867E-02  5591   0.684E-02    0.186E-01
RMM:   4    -0.231679033899E+04    0.21410E-03   -0.17960E-03  3917   0.154E-02    0.693E-02
RMM:   5    -0.231679027786E+04    0.61129E-04   -0.10929E-04  3132   0.766E-03    0.467E-02
RMM:   6    -0.231679027368E+04    0.41842E-05   -0.14540E-04  3729   0.858E-03    0.494E-02
RMM:   7    -0.231679025007E+04    0.23613E-04   -0.34049E-05  2880   0.610E-03    0.912E-03
RMM:   8    -0.231679024986E+04    0.20456E-06   -0.59167E-06  2853   0.242E-03
  40 F= -.23376260E+04 E0= -.23376260E+04  d E =-.572314E-02  mag=     6.0000
       N       E                     dE             d eps       ncg     rms          rms(c)
DAV:   1    -0.231676627735E+04    0.23973E-01   -0.13809E+00  4472   0.107E+00    0.436E-01
RMM:   2    -0.231679465845E+04   -0.28381E-01   -0.28666E-01  6114   0.235E-01    0.375E-01
RMM:   3    -0.231679596597E+04   -0.13075E-02   -0.25189E-02  5670   0.882E-02    0.254E-01
RMM:   4    -0.231679551163E+04    0.45434E-03   -0.30846E-03  4701   0.204E-02    0.906E-02
RMM:   5    -0.231679541630E+04    0.95334E-04   -0.19793E-04  3556   0.984E-03    0.580E-02
RMM:   6    -0.231679537856E+04    0.37742E-04   -0.20872E-04  4173   0.108E-02    0.258E-02
RMM:   7    -0.231679537566E+04    0.29027E-05   -0.36106E-05  2894   0.732E-03
  41 F= -.23376306E+04 E0= -.23376306E+04  d E =-.465963E-02  mag=     6.0000
       N       E                     dE             d eps       ncg     rms          rms(c)
DAV:   1    -0.231676906263E+04    0.26316E-01   -0.13533E+00  4464   0.105E+00    0.432E-01
RMM:   2    -0.231679659936E+04   -0.27537E-01   -0.27816E-01  6108   0.231E-01    0.371E-01
RMM:   3    -0.231679785358E+04   -0.12542E-02   -0.24425E-02  5684   0.863E-02    0.252E-01
RMM:   4    -0.231679741352E+04    0.44006E-03   -0.30074E-03  4653   0.201E-02    0.898E-02
RMM:   5    -0.231679732516E+04    0.88365E-04   -0.19188E-04  3498   0.973E-03    0.570E-02
RMM:   6    -0.231679728657E+04    0.38588E-04   -0.19486E-04  4163   0.107E-02    0.229E-02
RMM:   7    -0.231679728599E+04    0.57816E-06   -0.34167E-05  2897   0.719E-03
  42 F= -.23376321E+04 E0= -.23376321E+04  d E =-.610492E-02  mag=     6.0000
       N       E                     dE             d eps       ncg     rms          rms(c)
DAV:   1    -0.231678306385E+04    0.14223E-01   -0.88869E-01  4520   0.830E-01    0.330E-01
RMM:   2    -0.231680071448E+04   -0.17651E-01   -0.17788E-01  6080   0.174E-01    0.291E-01
RMM:   3    -0.231680158137E+04   -0.86689E-03   -0.15973E-02  5427   0.675E-02    0.189E-01
RMM:   4    -0.231680136212E+04    0.21925E-03   -0.19168E-03  3557   0.153E-02    0.702E-02
RMM:   5    -0.231680131351E+04    0.48617E-04   -0.11145E-04  2966   0.704E-03    0.460E-02
RMM:   6    -0.231680129034E+04    0.23171E-04   -0.12184E-04  3680   0.800E-03    0.143E-02
RMM:   7    -0.231680129033E+04    0.11059E-08   -0.16849E-05  2891   0.540E-03
  43 F= -.23376359E+04 E0= -.23376359E+04  d E =-.378541E-02  mag=     6.0000
       N       E                     dE             d eps       ncg     rms          rms(c)
DAV:   1    -0.231673074067E+04    0.70550E-01   -0.35954E+00  4464   0.167E+00    0.662E-01
RMM:   2    -0.231680198931E+04   -0.71249E-01   -0.71916E-01  6122   0.348E-01    0.570E-01
RMM:   3    -0.231680601891E+04   -0.40296E-02   -0.67428E-02  5781   0.135E-01    0.387E-01
RMM:   4    -0.231680507995E+04    0.93896E-03   -0.78184E-03  5141   0.302E-02    0.143E-01
RMM:   5    -0.231680487981E+04    0.20014E-03   -0.45937E-04  3828   0.123E-02    0.965E-02
RMM:   6    -0.231680483435E+04    0.45460E-04   -0.52146E-04  4373   0.140E-02    0.813E-02
RMM:   7    -0.231680477248E+04    0.61868E-04   -0.13951E-04  3006   0.967E-03    0.282E-02
RMM:   8    -0.231680476779E+04    0.46898E-05   -0.25510E-05  2930   0.365E-03
  44 F= -.23376389E+04 E0= -.23376389E+04  d E =-.681381E-02  mag=     6.0000
       N       E                     dE             d eps       ncg     rms          rms(c)
DAV:   1    -0.231678365023E+04    0.21122E-01   -0.13465E+00  4480   0.105E+00    0.413E-01
RMM:   2    -0.231680775655E+04   -0.24106E-01   -0.24492E-01  5911   0.211E-01    0.316E-01
RMM:   3    -0.231680929958E+04   -0.15430E-02   -0.22878E-02  5563   0.805E-02    0.232E-01
RMM:   4    -0.231680894864E+04    0.35094E-03   -0.27454E-03  4559   0.189E-02    0.931E-02
RMM:   5    -0.231680885695E+04    0.91692E-04   -0.19690E-04  3440   0.968E-03    0.545E-02
RMM:   6    -0.231680882495E+04    0.31999E-04   -0.18060E-04  4111   0.101E-02    0.210E-02
RMM:   7    -0.231680882216E+04    0.27971E-05   -0.27505E-05  2898   0.716E-03
  45 F= -.23376428E+04 E0= -.23376428E+04  d E =-.394298E-02  mag=     6.0000
       N       E                     dE             d eps       ncg     rms          rms(c)
DAV:   1    -0.231677292661E+04    0.35898E-01   -0.19532E+00  4504   0.127E+00    0.499E-01
RMM:   2    -0.231680791056E+04   -0.34984E-01   -0.35545E-01  5909   0.256E-01    0.383E-01
RMM:   3    -0.231681018963E+04   -0.22791E-02   -0.33938E-02  5635   0.100E-01    0.280E-01
RMM:   4    -0.231680966270E+04    0.52693E-03   -0.40228E-03  4994   0.229E-02    0.112E-01
RMM:   5    -0.231680953542E+04    0.12727E-03   -0.28270E-04  3793   0.113E-02    0.702E-02
RMM:   6    -0.231680953841E+04   -0.29857E-05   -0.31031E-04  4246   0.113E-02    0.782E-02
RMM:   7    -0.231680947791E+04    0.60496E-04   -0.10018E-04  2964   0.863E-03    0.221E-02
RMM:   8    -0.231680947334E+04    0.45730E-05   -0.19026E-05  2920   0.382E-03
  46 F= -.23376433E+04 E0= -.23376433E+04  d E =-.445852E-02  mag=     6.0000
       N       E                     dE             d eps       ncg     rms          rms(c)
DAV:   1    -0.231680489596E+04    0.45819E-02   -0.26255E-01  4568   0.465E-01    0.182E-01
RMM:   2    -0.231680959566E+04   -0.46997E-02   -0.47562E-02  5981   0.938E-02    0.141E-01
RMM:   3    -0.231680987475E+04   -0.27909E-03   -0.42520E-03  4568   0.355E-02    0.103E-01
RMM:   4    -0.231680979579E+04    0.78961E-04   -0.52093E-04  2994   0.914E-03    0.406E-02
RMM:   5    -0.231680977978E+04    0.16004E-04   -0.39507E-05  2909   0.499E-03    0.255E-02
RMM:   6    -0.231680978239E+04   -0.26011E-05   -0.40505E-05  2893   0.509E-03
  47 F= -.23376437E+04 E0= -.23376437E+04  d E =-.481738E-02  mag=     6.0000
       N       E                     dE             d eps       ncg     rms          rms(c)
DAV:   1    -0.231680043965E+04    0.93401E-02   -0.62465E-01  4480   0.719E-01    0.287E-01
RMM:   2    -0.231681147906E+04   -0.11039E-01   -0.11285E-01  5922   0.145E-01    0.222E-01
RMM:   3    -0.231681218222E+04   -0.70316E-03   -0.10948E-02  5292   0.601E-02    0.155E-01
RMM:   4    -0.231681202497E+04    0.15725E-03   -0.12063E-03  3679   0.135E-02    0.655E-02
RMM:   5    -0.231681197988E+04    0.45089E-04   -0.10251E-04  3049   0.780E-03    0.436E-02
RMM:   6    -0.231681198089E+04   -0.10078E-05   -0.10611E-04  3319   0.753E-03    0.483E-02
RMM:   7    -0.231681195800E+04    0.22887E-04   -0.38729E-05  2889   0.624E-03    0.126E-02
RMM:   8    -0.231681195690E+04    0.10990E-05   -0.91963E-06  2878   0.363E-03
  48 F= -.23376459E+04 E0= -.23376459E+04  d E =-.219169E-02  mag=     6.0000
       N       E                     dE             d eps       ncg     rms          rms(c)
DAV:   1    -0.231680693143E+04    0.50266E-02   -0.29156E-01  4552   0.491E-01    0.195E-01
RMM:   2    -0.231681207771E+04   -0.51463E-02   -0.52799E-02  5871   0.987E-02    0.146E-01
RMM:   3    -0.231681241132E+04   -0.33361E-03   -0.49557E-03  4538   0.390E-02    0.105E-01
RMM:   4    -0.231681234077E+04    0.70552E-04   -0.56524E-04  3033   0.952E-03    0.446E-02
RMM:   5    -0.231681231834E+04    0.22427E-04   -0.48120E-05  2895   0.560E-03    0.260E-02
RMM:   6    -0.231681231757E+04    0.77578E-06   -0.47108E-05  3018   0.568E-03
  49 F= -.23376463E+04 E0= -.23376463E+04  d E =-.256317E-02  mag=     6.0000
       N       E                     dE             d eps       ncg     rms          rms(c)
DAV:   1    -0.231681048562E+04    0.18327E-02   -0.20578E-01  4512   0.438E-01    0.154E-01
RMM:   2    -0.231681322203E+04   -0.27364E-02   -0.28384E-02  5992   0.854E-02    0.126E-01
RMM:   3    -0.231681334014E+04   -0.11811E-03   -0.26910E-03  4508   0.334E-02    0.888E-02
RMM:   4    -0.231681328059E+04    0.59544E-04   -0.31314E-04  3010   0.869E-03    0.367E-02
RMM:   5    -0.231681327025E+04    0.10340E-04   -0.55660E-05  2964   0.563E-03    0.331E-02
RMM:   6    -0.231681326426E+04    0.59976E-05   -0.36673E-05  2882   0.534E-03
  50 F= -.23376472E+04 E0= -.23376472E+04  d E =-.923792E-03  mag=     6.0000
       N       E                     dE             d eps       ncg     rms          rms(c)
DAV:   1    -0.231681161001E+04    0.16602E-02   -0.11504E-01  4560   0.328E-01    0.115E-01
RMM:   2    -0.231681314892E+04   -0.15389E-02   -0.15935E-02  6011   0.640E-02    0.942E-02
RMM:   3    -0.231681321426E+04   -0.65335E-04   -0.14947E-03  3825   0.251E-02    0.658E-02
RMM:   4    -0.231681318307E+04    0.31192E-04   -0.17525E-04  2952   0.692E-03    0.274E-02
RMM:   5    -0.231681317524E+04    0.78302E-05   -0.30594E-05  2934   0.453E-03
  51 F= -.23376471E+04 E0= -.23376471E+04  d E =-.816921E-03  mag=     6.0000
       N       E                     dE             d eps       ncg     rms          rms(c)
DAV:   1    -0.231681278515E+04    0.39792E-03   -0.39155E-02  4592   0.191E-01    0.704E-02
RMM:   2    -0.231681332396E+04   -0.53882E-03   -0.53900E-03  6009   0.384E-02    0.702E-02
RMM:   3    -0.231681332539E+04   -0.14322E-05   -0.55193E-04  3094   0.150E-02    0.387E-02
RMM:   4    -0.231681331279E+04    0.12606E-04   -0.58663E-05  2909   0.468E-03    0.166E-02
RMM:   5    -0.231681331137E+04    0.14173E-05   -0.11538E-05  2760   0.252E-03
  52 F= -.23376472E+04 E0= -.23376472E+04  d E =-.963412E-03  mag=     6.0000
       N       E                     dE             d eps       ncg     rms          rms(c)
DAV:   1    -0.231681212459E+04    0.11882E-02   -0.19768E-01  4480   0.452E-01    0.145E-01
RMM:   2    -0.231681443386E+04   -0.23093E-02   -0.23170E-02  5838   0.854E-02    0.132E-01
RMM:   3    -0.231681444865E+04   -0.14787E-04   -0.19420E-03  4444   0.318E-02    0.813E-02
RMM:   4    -0.231681440008E+04    0.48567E-04   -0.24575E-04  3036   0.812E-03    0.316E-02
RMM:   5    -0.231681438861E+04    0.11470E-04   -0.34664E-05  2915   0.555E-03    0.232E-02
RMM:   6    -0.231681439020E+04   -0.15821E-05   -0.30028E-05  2877   0.521E-03
  53 F= -.23376481E+04 E0= -.23376481E+04  d E =-.924280E-03  mag=     6.0000
       N       E                     dE             d eps       ncg     rms          rms(c)
DAV:   1    -0.231681125740E+04    0.31312E-02   -0.31401E-01  4472   0.570E-01    0.181E-01
RMM:   2    -0.231681492374E+04   -0.36663E-02   -0.36916E-02  5630   0.107E-01    0.161E-01
RMM:   3    -0.231681496836E+04   -0.44618E-04   -0.31318E-03  5024   0.401E-02    0.104E-01
RMM:   4    -0.231681488805E+04    0.80312E-04   -0.39577E-04  3441   0.970E-03    0.412E-02
RMM:   5    -0.231681486849E+04    0.19557E-04   -0.52861E-05  3033   0.669E-03    0.279E-02
RMM:   6    -0.231681487263E+04   -0.41407E-05   -0.46854E-05  2908   0.614E-03
  54 F= -.23376484E+04 E0= -.23376484E+04  d E =-.121116E-02  mag=     6.0000
       N       E                     dE             d eps       ncg     rms          rms(c)
DAV:   1    -0.231681421411E+04    0.65438E-03   -0.15209E-01  4512   0.399E-01    0.115E-01
RMM:   2    -0.231681586677E+04   -0.16527E-02   -0.16493E-02  6129   0.744E-02    0.109E-01
RMM:   3    -0.231681587369E+04   -0.69150E-05   -0.13785E-03  4222   0.259E-02    0.646E-02
RMM:   4    -0.231681584584E+04    0.27848E-04   -0.16776E-04  2956   0.704E-03    0.269E-02
RMM:   5    -0.231681584036E+04    0.54765E-05   -0.27369E-05  2911   0.458E-03
  55 F= -.23376492E+04 E0= -.23376492E+04  d E =-.780378E-03  mag=     6.0000
       N       E                     dE             d eps       ncg     rms          rms(c)
DAV:   1    -0.231680673049E+04    0.91153E-02   -0.97123E-01  4464   0.101E+00    0.287E-01
RMM:   2    -0.231681729351E+04   -0.10563E-01   -0.10533E-01  5885   0.185E-01    0.286E-01
RMM:   3    -0.231681729893E+04   -0.54150E-05   -0.91236E-03  5390   0.703E-02    0.162E-01
RMM:   4    -0.231681709285E+04    0.20608E-03   -0.10684E-03  4475   0.155E-02    0.689E-02
RMM:   5    -0.231681703024E+04    0.62614E-04   -0.15845E-04  4040   0.106E-02    0.456E-02
RMM:   6    -0.231681703730E+04   -0.70609E-05   -0.12683E-04  3532   0.888E-03    0.552E-02
RMM:   7    -0.231681700855E+04    0.28751E-04   -0.38179E-05  2878   0.645E-03    0.810E-03
RMM:   8    -0.231681700771E+04    0.83951E-06   -0.66295E-06  2851   0.318E-03
  56 F= -.23376499E+04 E0= -.23376499E+04  d E =-.147586E-02  mag=     6.0000
       N       E                     dE             d eps       ncg     rms          rms(c)
DAV:   1    -0.231681655317E+04    0.45538E-03   -0.16347E-01  4544   0.420E-01    0.121E-01
RMM:   2    -0.231681791681E+04   -0.13636E-02   -0.13904E-02  5632   0.741E-02    0.107E-01
RMM:   3    -0.231681790571E+04    0.11098E-04   -0.12004E-03  4241   0.301E-02    0.730E-02
RMM:   4    -0.231681785514E+04    0.50573E-04   -0.14825E-04  3027   0.760E-03    0.274E-02
RMM:   5    -0.231681784338E+04    0.11753E-04   -0.37431E-05  2981   0.570E-03    0.136E-02
RMM:   6    -0.231681784463E+04   -0.12526E-05   -0.16159E-05  2872   0.499E-03
  57 F= -.23376506E+04 E0= -.23376506E+04  d E =-.696880E-03  mag=     6.0000
       N       E                     dE             d eps       ncg     rms          rms(c)
DAV:   1    -0.231681749580E+04    0.34758E-03   -0.64662E-02  4640   0.264E-01    0.767E-02
RMM:   2    -0.231681803382E+04   -0.53802E-03   -0.55074E-03  5738   0.471E-02    0.643E-02
RMM:   3    -0.231681803521E+04   -0.13878E-05   -0.46239E-04  3590   0.187E-02    0.469E-02
RMM:   4    -0.231681801600E+04    0.19205E-04   -0.59945E-05  2907   0.530E-03    0.177E-02
RMM:   5    -0.231681801228E+04    0.37225E-05   -0.16896E-05  2912   0.377E-03
  58 F= -.23376507E+04 E0= -.23376507E+04  d E =-.776027E-03  mag=     6.0000
       N       E                     dE             d eps       ncg     rms          rms(c)
DAV:   1    -0.231681783060E+04    0.18541E-03   -0.12752E-01  4480   0.380E-01    0.102E-01
RMM:   2    -0.231681864430E+04   -0.81371E-03   -0.85196E-03  5569   0.642E-02    0.732E-02
RMM:   3    -0.231681866629E+04   -0.21984E-04   -0.71572E-04  4145   0.255E-02    0.639E-02
RMM:   4    -0.231681863022E+04    0.36068E-04   -0.97861E-05  2957   0.682E-03    0.272E-02
RMM:   5    -0.231681862183E+04    0.83927E-05   -0.31991E-05  2966   0.537E-03
  59 F= -.23376512E+04 E0= -.23376512E+04  d E =-.563175E-03  mag=     6.0000
       N       E                     dE             d eps       ncg     rms          rms(c)
DAV:   1    -0.231681830103E+04    0.32919E-03   -0.69521E-02  4544   0.281E-01    0.796E-02
RMM:   2    -0.231681877300E+04   -0.47196E-03   -0.47746E-03  5895   0.493E-02    0.730E-02
RMM:   3    -0.231681876190E+04    0.11093E-04   -0.45824E-04  3638   0.176E-02    0.488E-02
RMM:   4    -0.231681873735E+04    0.24554E-04   -0.55740E-05  2909   0.569E-03    0.206E-02
RMM:   5    -0.231681873706E+04    0.28385E-06   -0.21557E-05  2889   0.409E-03
  60 F= -.23376513E+04 E0= -.23376513E+04  d E =-.644135E-03  mag=     6.0000
       N       E                     dE             d eps       ncg     rms          rms(c)
DAV:   1    -0.231681841024E+04    0.32711E-03   -0.14244E-01  4480   0.408E-01    0.103E-01
RMM:   2    -0.231681928935E+04   -0.87911E-03   -0.92773E-03  5436   0.672E-02    0.711E-02
RMM:   3    -0.231681931757E+04   -0.28224E-04   -0.79789E-04  4198   0.296E-02    0.621E-02
RMM:   4    -0.231681928007E+04    0.37498E-04   -0.95002E-05  2969   0.711E-03    0.268E-02
RMM:   5    -0.231681927012E+04    0.99530E-05   -0.32983E-05  3007   0.567E-03
  61 F= -.23376519E+04 E0= -.23376519E+04  d E =-.559247E-03  mag=     6.0000
       N       E                     dE             d eps       ncg     rms          rms(c)
DAV:   1    -0.231681788065E+04    0.13994E-02   -0.24938E-01  4464   0.540E-01    0.137E-01
RMM:   2    -0.231681943203E+04   -0.15514E-02   -0.16297E-02  5500   0.897E-02    0.961E-02
RMM:   3    -0.231681948743E+04   -0.55392E-04   -0.14969E-03  4616   0.398E-02    0.839E-02
RMM:   4    -0.231681941899E+04    0.68432E-04   -0.18053E-04  3329   0.901E-03    0.355E-02
RMM:   5    -0.231681940779E+04    0.11204E-04   -0.55783E-05  3143   0.694E-03    0.314E-02
RMM:   6    -0.231681940238E+04    0.54075E-05   -0.37232E-05  2864   0.606E-03
  62 F= -.23376521E+04 E0= -.23376521E+04  d E =-.726200E-03  mag=     6.0000
       N       E                     dE             d eps       ncg     rms          rms(c)
DAV:   1    -0.231681870830E+04    0.69949E-03   -0.19206E-01  4504   0.475E-01    0.117E-01
RMM:   2    -0.231681988331E+04   -0.11750E-02   -0.12293E-02  5379   0.795E-02    0.838E-02
RMM:   3    -0.231681990083E+04   -0.17522E-04   -0.10018E-03  4417   0.328E-02    0.723E-02
RMM:   4    -0.231681985078E+04    0.50057E-04   -0.13053E-04  3137   0.781E-03    0.295E-02
RMM:   5    -0.231681983943E+04    0.11349E-04   -0.40042E-05  3034   0.618E-03    0.191E-02
RMM:   6    -0.231681984028E+04   -0.85319E-06   -0.21698E-05  2866   0.524E-03
  63 F= -.23376525E+04 E0= -.23376525E+04  d E =-.419825E-03  mag=     6.0000
       N       E                     dE             d eps       ncg     rms          rms(c)
DAV:   1    -0.231681976099E+04    0.78439E-04   -0.13459E-02  4880   0.126E-01    0.317E-02
RMM:   2    -0.231681984429E+04   -0.83302E-04   -0.88138E-04  5415   0.226E-02    0.194E-02
RMM:   3    -0.231681984732E+04   -0.30276E-05   -0.73019E-05  2926   0.882E-03
  64 F= -.23376525E+04 E0= -.23376525E+04  d E =-.422058E-03  mag=     6.0000
       N       E                     dE             d eps       ncg     rms          rms(c)
DAV:   1    -0.231681963675E+04    0.20754E-03   -0.12280E-01  4480   0.378E-01    0.102E-01
RMM:   2    -0.231682036405E+04   -0.72729E-03   -0.77202E-03  5440   0.645E-02    0.697E-02
RMM:   3    -0.231682037345E+04   -0.94044E-05   -0.63436E-04  4101   0.256E-02    0.649E-02
RMM:   4    -0.231682033249E+04    0.40962E-04   -0.89601E-05  2989   0.681E-03    0.261E-02
RMM:   5    -0.231682032130E+04    0.11188E-04   -0.33609E-05  3019   0.570E-03    0.134E-02
RMM:   6    -0.231682032227E+04   -0.96769E-06   -0.14154E-05  2866   0.471E-03
  65 F= -.23376529E+04 E0= -.23376529E+04  d E =-.411560E-03  mag=     6.0000
       N       E                     dE             d eps       ncg     rms          rms(c)
DAV:   1    -0.231682026505E+04    0.56249E-04   -0.14936E-02  4672   0.132E-01    0.360E-02
RMM:   2    -0.231682035342E+04   -0.88372E-04   -0.94852E-04  5525   0.234E-02    0.216E-02
RMM:   3    -0.231682035662E+04   -0.31934E-05   -0.80365E-05  2932   0.941E-03
  66 F= -.23376529E+04 E0= -.23376529E+04  d E =-.423659E-03  mag=     6.0000
       N       E                     dE             d eps       ncg     rms          rms(c)
DAV:   1    -0.231681976557E+04    0.58785E-03   -0.14668E-01  4464   0.415E-01    0.115E-01
RMM:   2    -0.231682072442E+04   -0.95885E-03   -0.99776E-03  5383   0.710E-02    0.868E-02
RMM:   3    -0.231682072320E+04    0.12179E-05   -0.86187E-04  4182   0.286E-02    0.744E-02
RMM:   4    -0.231682066747E+04    0.55733E-04   -0.10719E-04  3070   0.743E-03    0.270E-02
RMM:   5    -0.231682065531E+04    0.12161E-04   -0.38418E-05  3067   0.602E-03    0.135E-02
RMM:   6    -0.231682065685E+04   -0.15443E-05   -0.16724E-05  2880   0.504E-03
  67 F= -.23376532E+04 E0= -.23376532E+04  d E =-.295924E-03  mag=     6.0000
       N       E                     dE             d eps       ncg     rms          rms(c)
DAV:   1    -0.231682063718E+04    0.18134E-04   -0.20108E-03  5376   0.491E-02    0.145E-02
RMM:   2    -0.231682065019E+04   -0.13011E-04   -0.13917E-04  3574   0.989E-03    0.847E-03
RMM:   3    -0.231682065158E+04   -0.13974E-05   -0.16166E-05  2715   0.542E-03
  68 F= -.23376532E+04 E0= -.23376532E+04  d E =-.290130E-03  mag=     6.0000
       N       E                     dE             d eps       ncg     rms          rms(c)
DAV:   1    -0.231682033404E+04    0.31615E-03   -0.81608E-02  4480   0.307E-01    0.840E-02
RMM:   2    -0.231682096099E+04   -0.62695E-03   -0.63448E-03  5436   0.538E-02    0.783E-02
RMM:   3    -0.231682093903E+04    0.21957E-04   -0.51040E-04  3691   0.209E-02    0.516E-02
RMM:   4    -0.231682091277E+04    0.26255E-04   -0.62684E-05  2916   0.582E-03    0.209E-02
RMM:   5    -0.231682090767E+04    0.51053E-05   -0.24255E-05  2919   0.469E-03
  69 F= -.23376534E+04 E0= -.23376534E+04  d E =-.253775E-03  mag=     6.0000
       N       E                     dE             d eps       ncg     rms          rms(c)
DAV:   1    -0.231682081641E+04    0.96368E-04   -0.14471E-02  4664   0.129E-01    0.373E-02
RMM:   2    -0.231682093019E+04   -0.11379E-03   -0.11309E-03  5708   0.253E-02    0.389E-02
RMM:   3    -0.231682092290E+04    0.72975E-05   -0.10564E-04  2940   0.885E-03    0.218E-02
RMM:   4    -0.231682091879E+04    0.41078E-05   -0.12484E-05  2883   0.347E-03
  70 F= -.23376535E+04 E0= -.23376535E+04  d E =-.263968E-03  mag=     6.0000
       N       E                     dE             d eps       ncg     rms          rms(c)
DAV:   1    -0.231682057848E+04    0.34441E-03   -0.90468E-02  4472   0.320E-01    0.900E-02
RMM:   2    -0.231682118002E+04   -0.60154E-03   -0.63559E-03  5626   0.558E-02    0.583E-02
RMM:   3    -0.231682119631E+04   -0.16288E-04   -0.52242E-04  3769   0.217E-02    0.567E-02
RMM:   4    -0.231682116602E+04    0.30294E-04   -0.72767E-05  2922   0.609E-03    0.234E-02
RMM:   5    -0.231682115827E+04    0.77492E-05   -0.24848E-05  2895   0.498E-03
  71 F= -.23376537E+04 E0= -.23376537E+04  d E =-.231570E-03  mag=     6.0000
       N       E                     dE             d eps       ncg     rms          rms(c)
DAV:   1    -0.231682112901E+04    0.37004E-04   -0.40922E-03  5104   0.685E-02    0.233E-02
RMM:   2    -0.231682116453E+04   -0.35513E-04   -0.31965E-04  4620   0.145E-02    0.328E-02
RMM:   3    -0.231682115733E+04    0.71906E-05   -0.38517E-05  2869   0.601E-03
  72 F= -.23376537E+04 E0= -.23376537E+04  d E =-.228923E-03  mag=     6.0000
       N       E                     dE             d eps       ncg     rms          rms(c)
DAV:   1    -0.231682075816E+04    0.40636E-03   -0.88941E-02  4472   0.311E-01    0.873E-02
RMM:   2    -0.231682141220E+04   -0.65403E-03   -0.65046E-03  5632   0.543E-02    0.904E-02
RMM:   3    -0.231682137576E+04    0.36436E-04   -0.52530E-04  3719   0.205E-02    0.518E-02
RMM:   4    -0.231682135043E+04    0.25330E-04   -0.67525E-05  2921   0.581E-03    0.210E-02
RMM:   5    -0.231682134344E+04    0.69887E-05   -0.23575E-05  2917   0.471E-03
  73 F= -.23376539E+04 E0= -.23376539E+04  d E =-.211068E-03  mag=     6.0000
       N       E                     dE             d eps       ncg     rms          rms(c)
DAV:   1    -0.231682126147E+04    0.88957E-04   -0.10938E-02  4656   0.109E-01    0.310E-02
RMM:   2    -0.231682134182E+04   -0.80347E-04   -0.80880E-04  5491   0.217E-02    0.293E-02
RMM:   3    -0.231682134046E+04    0.13589E-05   -0.66674E-05  2915   0.744E-03
  74 F= -.23376539E+04 E0= -.23376539E+04  d E =-.216963E-03  mag=     6.0000
       N       E                     dE             d eps       ncg     rms          rms(c)
DAV:   1    -0.231682100472E+04    0.33710E-03   -0.79576E-02  4472   0.294E-01    0.868E-02
RMM:   2    -0.231682162450E+04   -0.61979E-03   -0.61424E-03  5733   0.528E-02    0.883E-02
RMM:   3    -0.231682158914E+04    0.35367E-04   -0.50420E-04  3570   0.182E-02    0.509E-02
RMM:   4    -0.231682156511E+04    0.24029E-04   -0.65527E-05  2924   0.562E-03    0.207E-02
RMM:   5    -0.231682155762E+04    0.74898E-05   -0.21556E-05  2916   0.460E-03
  75 F= -.23376541E+04 E0= -.23376541E+04  d E =-.235855E-03  mag=     6.0000
       N       E                     dE             d eps       ncg     rms          rms(c)
DAV:   1    -0.231682129764E+04    0.26747E-03   -0.36685E-02  4496   0.199E-01    0.588E-02
RMM:   2    -0.231682158259E+04   -0.28496E-03   -0.28344E-03  5996   0.378E-02    0.589E-02
RMM:   3    -0.231682156852E+04    0.14069E-04   -0.22376E-04  3115   0.119E-02    0.353E-02
RMM:   4    -0.231682155650E+04    0.12029E-04   -0.29499E-05  2908   0.431E-03    0.134E-02
RMM:   5    -0.231682155342E+04    0.30761E-05   -0.93595E-06  2853   0.314E-03
  76 F= -.23376541E+04 E0= -.23376541E+04  d E =-.244398E-03  mag=     6.0000
       N       E                     dE             d eps       ncg     rms          rms(c)
DAV:   1    -0.231682118595E+04    0.37054E-03   -0.74869E-02  4472   0.283E-01    0.830E-02
RMM:   2    -0.231682182746E+04   -0.64151E-03   -0.62987E-03  5900   0.521E-02    0.912E-02
RMM:   3    -0.231682178511E+04    0.42350E-04   -0.51217E-04  3535   0.179E-02    0.467E-02
RMM:   4    -0.231682176581E+04    0.19303E-04   -0.62143E-05  2927   0.549E-03    0.193E-02
RMM:   5    -0.231682176048E+04    0.53271E-05   -0.16014E-05  2883   0.412E-03
  77 F= -.23376543E+04 E0= -.23376543E+04  d E =-.192732E-03  mag=     6.0000
       N       E                     dE             d eps       ncg     rms          rms(c)
DAV:   1    -0.231682157599E+04    0.18982E-03   -0.27395E-02  4560   0.171E-01    0.511E-02
RMM:   2    -0.231682181463E+04   -0.23864E-03   -0.23328E-03  5930   0.330E-02    0.580E-02
RMM:   3    -0.231682179651E+04    0.18116E-04   -0.17619E-04  3034   0.103E-02    0.286E-02
RMM:   4    -0.231682178947E+04    0.70391E-05   -0.22540E-05  2907   0.382E-03
  78 F= -.23376544E+04 E0= -.23376544E+04  d E =-.213021E-03  mag=     6.0000
       N       E                     dE             d eps       ncg     rms          rms(c)
DAV:   1    -0.231682141569E+04    0.38083E-03   -0.67159E-02  4472   0.269E-01    0.866E-02
RMM:   2    -0.231682202797E+04   -0.61228E-03   -0.62756E-03  5646   0.498E-02    0.750E-02
RMM:   3    -0.231682202238E+04    0.55884E-05   -0.52667E-04  3672   0.205E-02    0.537E-02
RMM:   4    -0.231682199154E+04    0.30842E-04   -0.63986E-05  2914   0.557E-03    0.202E-02
RMM:   5    -0.231682198610E+04    0.54350E-05   -0.24136E-05  2892   0.442E-03
  79 F= -.23376546E+04 E0= -.23376546E+04  d E =-.204467E-03  mag=     6.0000
       N       E                     dE             d eps       ncg     rms          rms(c)
DAV:   1    -0.231682195178E+04    0.39757E-04   -0.37778E-03  5200   0.640E-02    0.234E-02
RMM:   2    -0.231682199188E+04   -0.40102E-04   -0.36724E-04  4545   0.140E-02    0.318E-02
RMM:   3    -0.231682198427E+04    0.76137E-05   -0.41825E-05  2863   0.613E-03
  80 F= -.23376546E+04 E0= -.23376546E+04  d E =-.204507E-03  mag=     6.0000
       N       E                     dE             d eps       ncg     rms          rms(c)
DAV:   1    -0.231682169158E+04    0.30030E-03   -0.41050E-02  4480   0.208E-01    0.705E-02
RMM:   2    -0.231682218221E+04   -0.49063E-03   -0.47528E-03  5905   0.411E-02    0.823E-02
RMM:   3    -0.231682214382E+04    0.38393E-04   -0.38774E-04  3174   0.140E-02    0.360E-02
RMM:   4    -0.231682213158E+04    0.12241E-04   -0.48189E-05  2916   0.455E-03    0.167E-02
RMM:   5    -0.231682212969E+04    0.18936E-05   -0.14973E-05  2879   0.344E-03
  81 F= -.23376547E+04 E0= -.23376547E+04  d E =-.160247E-03  mag=     6.0000
       N       E                     dE             d eps       ncg     rms          rms(c)
DAV:   1    -0.231682194186E+04    0.18972E-03   -0.18576E-02  4496   0.140E-01    0.454E-02
RMM:   2    -0.231682214988E+04   -0.20802E-03   -0.21085E-03  5903   0.287E-02    0.431E-02
RMM:   3    -0.231682214724E+04    0.26425E-05   -0.18703E-04  2925   0.100E-02    0.270E-02
RMM:   4    -0.231682214042E+04    0.68241E-05   -0.22537E-05  2906   0.348E-03
  82 F= -.23376547E+04 E0= -.23376547E+04  d E =-.181035E-03  mag=     6.0000
       N       E                     dE             d eps       ncg     rms          rms(c)
DAV:   1    -0.231682196881E+04    0.17843E-03   -0.33214E-02  4472   0.183E-01    0.596E-02
RMM:   2    -0.231682231397E+04   -0.34515E-03   -0.35512E-03  5860   0.354E-02    0.494E-02
RMM:   3    -0.231682231731E+04   -0.33464E-05   -0.29070E-04  3075   0.129E-02    0.369E-02
RMM:   4    -0.231682230474E+04    0.12568E-04   -0.39055E-05  2912   0.410E-03    0.158E-02
RMM:   5    -0.231682230366E+04    0.10857E-05   -0.11200E-05  2870   0.292E-03
  83 F= -.23376549E+04 E0= -.23376549E+04  d E =-.161649E-03  mag=     6.0000
       N       E                     dE             d eps       ncg     rms          rms(c)
DAV:   1    -0.231682217622E+04    0.12852E-03   -0.15754E-02  4592   0.127E-01    0.440E-02
RMM:   2    -0.231682235147E+04   -0.17525E-03   -0.17213E-03  5738   0.257E-02    0.513E-02
RMM:   3    -0.231682233865E+04    0.12821E-04   -0.14645E-04  2921   0.896E-03    0.233E-02
RMM:   4    -0.231682233419E+04    0.44587E-05   -0.17985E-05  2889   0.308E-03
  84 F= -.23376549E+04 E0= -.23376549E+04  d E =-.191086E-03  mag=     6.0000
       N       E                     dE             d eps       ncg     rms          rms(c)
DAV:   1    -0.231682220596E+04    0.13269E-03   -0.30498E-02  4472   0.175E-01    0.592E-02
RMM:   2    -0.231682250693E+04   -0.30097E-03   -0.30615E-03  5798   0.336E-02    0.571E-02
RMM:   3    -0.231682250029E+04    0.66337E-05   -0.24910E-04  3073   0.125E-02    0.353E-02
RMM:   4    -0.231682248874E+04    0.11553E-04   -0.31559E-05  2904   0.400E-03    0.158E-02
RMM:   5    -0.231682248758E+04    0.11596E-05   -0.12355E-05  2865   0.312E-03
  85 F= -.23376551E+04 E0= -.23376551E+04  d E =-.159617E-03  mag=     6.0000
       N       E                     dE             d eps       ncg     rms          rms(c)
DAV:   1    -0.231682241576E+04    0.72981E-04   -0.91869E-03  4648   0.961E-02    0.335E-02
RMM:   2    -0.231682251033E+04   -0.94565E-04   -0.92858E-04  5434   0.200E-02    0.391E-02
RMM:   3    -0.231682250154E+04    0.87898E-05   -0.85261E-05  2902   0.748E-03
  86 F= -.23376551E+04 E0= -.23376551E+04  d E =-.176994E-03  mag=     6.0000
       N       E                     dE             d eps       ncg     rms          rms(c)
DAV:   1    -0.231682236978E+04    0.14054E-03   -0.31509E-02  4472   0.180E-01    0.640E-02
RMM:   2    -0.231682267590E+04   -0.30612E-03   -0.30107E-03  5792   0.349E-02    0.675E-02
RMM:   3    -0.231682265487E+04    0.21028E-04   -0.26184E-04  3058   0.120E-02    0.359E-02
RMM:   4    -0.231682264148E+04    0.13388E-04   -0.33073E-05  2904   0.418E-03    0.151E-02
RMM:   5    -0.231682263911E+04    0.23694E-05   -0.12486E-05  2875   0.329E-03
  87 F= -.23376552E+04 E0= -.23376552E+04  d E =-.133874E-03  mag=     6.0000
       N       E                     dE             d eps       ncg     rms          rms(c)
DAV:   1    -0.231682255891E+04    0.82574E-04   -0.10976E-02  4640   0.106E-01    0.375E-02
RMM:   2    -0.231682266345E+04   -0.10454E-03   -0.10341E-03  5543   0.218E-02    0.382E-02
RMM:   3    -0.231682265717E+04    0.62748E-05   -0.96724E-05  2912   0.816E-03
  88 F= -.23376553E+04 E0= -.23376553E+04  d E =-.149722E-03  mag=     6.0000
       N       E                     dE             d eps       ncg     rms          rms(c)
DAV:   1    -0.231682251720E+04    0.14625E-03   -0.28986E-02  4472   0.169E-01    0.622E-02
RMM:   2    -0.231682283017E+04   -0.31298E-03   -0.30301E-03  5834   0.339E-02    0.709E-02
RMM:   3    -0.231682280507E+04    0.25105E-04   -0.26757E-04  3008   0.114E-02    0.338E-02
RMM:   4    -0.231682279402E+04    0.11051E-04   -0.33540E-05  2916   0.400E-03    0.152E-02
RMM:   5    -0.231682279230E+04    0.17236E-05   -0.11186E-05  2861   0.311E-03
  89 F= -.23376554E+04 E0= -.23376554E+04  d E =-.120844E-03  mag=     6.0000
       N       E                     dE             d eps       ncg     rms          rms(c)
DAV:   1    -0.231682276091E+04    0.33111E-04   -0.47777E-03  4816   0.688E-02    0.251E-02
RMM:   2    -0.231682280896E+04   -0.48053E-04   -0.47906E-04  4644   0.148E-02    0.261E-02
RMM:   3    -0.231682280700E+04    0.19562E-05   -0.50853E-05  2877   0.635E-03
  90 F= -.23376554E+04 E0= -.23376554E+04  d E =-.129707E-03  mag=     6.0000
       N       E                     dE             d eps       ncg     rms          rms(c)
DAV:   1    -0.231682263936E+04    0.16961E-03   -0.28710E-02  4468   0.168E-01    0.658E-02
RMM:   2    -0.231682298356E+04   -0.34420E-03   -0.33530E-03  5880   0.346E-02    0.710E-02
RMM:   3    -0.231682296062E+04    0.22938E-04   -0.28161E-04  3025   0.121E-02    0.359E-02
RMM:   4    -0.231682294771E+04    0.12913E-04   -0.34561E-05  2903   0.410E-03    0.147E-02
RMM:   5    -0.231682294572E+04    0.19860E-05   -0.11471E-05  2878   0.309E-03
  91 F= -.23376555E+04 E0= -.23376555E+04  d E =-.136951E-03  mag=     6.0000
       N       E                     dE             d eps       ncg     rms          rms(c)
DAV:   1    -0.231682283237E+04    0.11533E-03   -0.12534E-02  4480   0.111E-01    0.426E-02
RMM:   2    -0.231682297710E+04   -0.14472E-03   -0.14321E-03  5728   0.239E-02    0.427E-02
RMM:   3    -0.231682297089E+04    0.62033E-05   -0.12994E-04  2913   0.870E-03    0.242E-02
RMM:   4    -0.231682296485E+04    0.60442E-05   -0.16531E-05  2901   0.304E-03
  92 F= -.23376555E+04 E0= -.23376555E+04  d E =-.154889E-03  mag=     6.0000
       N       E                     dE             d eps       ncg     rms          rms(c)
DAV:   1    -0.231682270363E+04    0.26726E-03   -0.27403E-02  4472   0.155E-01    0.579E-02
RMM:   2    -0.231682307920E+04   -0.37557E-03   -0.37550E-03  5964   0.324E-02    0.559E-02
RMM:   3    -0.231682307817E+04    0.10337E-05   -0.32747E-04  3010   0.125E-02    0.330E-02
RMM:   4    -0.231682306836E+04    0.98075E-05   -0.40837E-05  2915   0.374E-03
  93 F= -.23376557E+04 E0= -.23376557E+04  d E =-.132323E-03  mag=     6.0000
       N       E                     dE             d eps       ncg     rms          rms(c)
DAV:   1    -0.231682270684E+04    0.37133E-03   -0.27822E-02  4480   0.156E-01    0.587E-02
RMM:   2    -0.231682308475E+04   -0.37790E-03   -0.37996E-03  5836   0.322E-02    0.564E-02
RMM:   3    -0.231682308467E+04    0.73414E-07   -0.33968E-04  3088   0.140E-02    0.341E-02
RMM:   4    -0.231682307399E+04    0.10684E-04   -0.42168E-05  2914   0.382E-03    0.149E-02
RMM:   5    -0.231682307259E+04    0.13974E-05   -0.10311E-05  2884   0.271E-03
  94 F= -.23376557E+04 E0= -.23376557E+04  d E =-.165690E-03  mag=     6.0000
       N       E                     dE             d eps       ncg     rms          rms(c)
DAV:   1    -0.231682286794E+04    0.20605E-03   -0.23340E-02  4496   0.141E-01    0.580E-02
RMM:   2    -0.231682321903E+04   -0.35109E-03   -0.33907E-03  5963   0.316E-02    0.714E-02
RMM:   3    -0.231682319360E+04    0.25434E-04   -0.26755E-04  2964   0.108E-02    0.291E-02
RMM:   4    -0.231682318777E+04    0.58271E-05   -0.33101E-05  2913   0.356E-03
  95 F= -.23376558E+04 E0= -.23376558E+04  d E =-.133270E-03  mag=     6.0000
       N       E                     dE             d eps       ncg     rms          rms(c)
DAV:   1    -0.231682274708E+04    0.44652E-03   -0.33864E-02  4472   0.170E-01    0.679E-02
RMM:   2    -0.231682323053E+04   -0.48345E-03   -0.48307E-03  5965   0.363E-02    0.693E-02
RMM:   3    -0.231682322562E+04    0.49066E-05   -0.41004E-04  3044   0.134E-02    0.389E-02
RMM:   4    -0.231682321343E+04    0.12191E-04   -0.48058E-05  2907   0.415E-03    0.177E-02
RMM:   5    -0.231682321228E+04    0.11526E-05   -0.12837E-05  2874   0.298E-03
  96 F= -.23376559E+04 E0= -.23376559E+04  d E =-.179578E-03  mag=     6.0000
       N       E                     dE             d eps       ncg     rms          rms(c)
DAV:   1    -0.231682291899E+04    0.29444E-03   -0.33357E-02  4472   0.169E-01    0.680E-02
RMM:   2    -0.231682341935E+04   -0.50035E-03   -0.48485E-03  6046   0.372E-02    0.810E-02
RMM:   3    -0.231682338676E+04    0.32587E-04   -0.40397E-04  3019   0.126E-02    0.339E-02
RMM:   4    -0.231682337760E+04    0.91581E-05   -0.50673E-05  2926   0.407E-03
  97 F= -.23376560E+04 E0= -.23376560E+04  d E =-.150722E-03  mag=     6.0000
       N       E                     dE             d eps       ncg     rms          rms(c)
DAV:   1    -0.231682275064E+04    0.63612E-03   -0.49813E-02  4472   0.207E-01    0.805E-02
RMM:   2    -0.231682346487E+04   -0.71424E-03   -0.71498E-03  5990   0.436E-02    0.787E-02
RMM:   3    -0.231682346019E+04    0.46804E-05   -0.63167E-04  3174   0.163E-02    0.457E-02
RMM:   4    -0.231682344092E+04    0.19268E-04   -0.76757E-05  2922   0.491E-03    0.196E-02
RMM:   5    -0.231682343627E+04    0.46518E-05   -0.16067E-05  2889   0.353E-03
  98 F= -.23376561E+04 E0= -.23376561E+04  d E =-.191480E-03  mag=     6.0000
       N       E                     dE             d eps       ncg     rms          rms(c)
DAV:   1    -0.231682311375E+04    0.32717E-03   -0.32942E-02  4528   0.165E-01    0.688E-02
RMM:   2    -0.231682364085E+04   -0.52710E-03   -0.50604E-03  6019   0.372E-02    0.887E-02
RMM:   3    -0.231682360312E+04    0.37730E-04   -0.41853E-04  3003   0.123E-02    0.323E-02
RMM:   4    -0.231682359539E+04    0.77371E-05   -0.47422E-05  2927   0.399E-03
  99 F= -.23376562E+04 E0= -.23376562E+04  d E =-.147007E-03  mag=     6.0000
       N       E                     dE             d eps       ncg     rms          rms(c)
DAV:   1    -0.231682283033E+04    0.77279E-03   -0.57460E-02  4472   0.218E-01    0.858E-02
RMM:   2    -0.231682368892E+04   -0.85859E-03   -0.85960E-03  6030   0.462E-02    0.869E-02
RMM:   3    -0.231682369164E+04   -0.27190E-05   -0.75600E-04  3167   0.168E-02    0.476E-02
RMM:   4    -0.231682367336E+04    0.18281E-04   -0.82684E-05  2927   0.495E-03    0.229E-02
RMM:   5    -0.231682367043E+04    0.29262E-05   -0.20555E-05  2885   0.350E-03
 100 F= -.23376563E+04 E0= -.23376563E+04  d E =-.206047E-03  mag=     6.0000
       N       E                     dE             d eps       ncg     rms          rms(c)
DAV:   1    -0.231682328586E+04    0.38750E-03   -0.39144E-02  4472   0.185E-01    0.776E-02
RMM:   2    -0.231682389723E+04   -0.61138E-03   -0.59459E-03  6065   0.417E-02    0.889E-02
RMM:   3    -0.231682386193E+04    0.35308E-04   -0.50613E-04  3129   0.142E-02    0.401E-02
RMM:   4    -0.231682384898E+04    0.12942E-04   -0.62873E-05  2921   0.460E-03    0.166E-02
RMM:   5    -0.231682384732E+04    0.16632E-05   -0.12059E-05  2884   0.310E-03
 101 F= -.23376565E+04 E0= -.23376565E+04  d E =-.173573E-03  mag=     6.0000
       N       E                     dE             d eps       ncg     rms          rms(c)
DAV:   1    -0.231682358266E+04    0.26633E-03   -0.20396E-02  4624   0.134E-01    0.562E-02
RMM:   2    -0.231682389759E+04   -0.31493E-03   -0.31142E-03  5954   0.305E-02    0.611E-02
RMM:   3    -0.231682388775E+04    0.98394E-05   -0.25768E-04  2954   0.104E-02    0.308E-02
RMM:   4    -0.231682387984E+04    0.79131E-05   -0.29970E-05  2905   0.353E-03
 102 F= -.23376565E+04 E0= -.23376565E+04  d E =-.203687E-03  mag=     6.0000
       N       E                     dE             d eps       ncg     rms          rms(c)
DAV:   1    -0.231682356262E+04    0.32513E-03   -0.30570E-02  4472   0.166E-01    0.691E-02
RMM:   2    -0.231682401856E+04   -0.45594E-03   -0.45714E-03  6000   0.363E-02    0.655E-02
RMM:   3    -0.231682402001E+04   -0.14427E-05   -0.40447E-04  3051   0.134E-02    0.408E-02
RMM:   4    -0.231682400608E+04    0.13923E-04   -0.46878E-05  2907   0.424E-03    0.165E-02
RMM:   5    -0.231682400458E+04    0.14995E-05   -0.11696E-05  2882   0.298E-03
 103 F= -.23376566E+04 E0= -.23376566E+04  d E =-.142601E-03  mag=     6.0000
       N       E                     dE             d eps       ncg     rms          rms(c)
DAV:   1    -0.231682390001E+04    0.10608E-03   -0.76130E-03  4712   0.826E-02    0.367E-02
RMM:   2    -0.231682402052E+04   -0.12052E-03   -0.11505E-03  5316   0.195E-02    0.447E-02
RMM:   3    -0.231682400964E+04    0.10882E-04   -0.10884E-04  2895   0.750E-03    0.181E-02
RMM:   4    -0.231682400699E+04    0.26507E-05   -0.13054E-05  2893   0.254E-03
 104 F= -.23376566E+04 E0= -.23376566E+04  d E =-.153938E-03  mag=     6.0000
       N       E                     dE             d eps       ncg     rms          rms(c)
DAV:   1    -0.231682368928E+04    0.32036E-03   -0.31856E-02  4472   0.171E-01    0.694E-02
RMM:   2    -0.231682411309E+04   -0.42381E-03   -0.43127E-03  5944   0.360E-02    0.565E-02
RMM:   3    -0.231682412243E+04   -0.93345E-05   -0.39090E-04  3070   0.137E-02    0.419E-02
RMM:   4    -0.231682410507E+04    0.17362E-04   -0.49199E-05  2906   0.438E-03    0.152E-02
RMM:   5    -0.231682410195E+04    0.31131E-05   -0.11400E-05  2882   0.306E-03
 105 F= -.23376568E+04 E0= -.23376568E+04  d E =-.117739E-03  mag=     6.0000
       N       E                     dE             d eps       ncg     rms          rms(c)
DAV:   1    -0.231682405463E+04    0.50435E-04   -0.32495E-03  4952   0.549E-02    0.259E-02
RMM:   2    -0.231682410546E+04   -0.50831E-04   -0.46218E-04  4206   0.130E-02    0.366E-02
RMM:   3    -0.231682409736E+04    0.81009E-05   -0.49550E-05  2873   0.600E-03
 106 F= -.23376568E+04 E0= -.23376568E+04  d E =-.120521E-03  mag=     6.0000
       N       E                     dE             d eps       ncg     rms          rms(c)
DAV:   1    -0.231682385430E+04    0.25116E-03   -0.25963E-02  4472   0.153E-01    0.650E-02
RMM:   2    -0.231682421209E+04   -0.35778E-03   -0.35040E-03  5899   0.333E-02    0.695E-02
RMM:   3    -0.231682419360E+04    0.18484E-04   -0.30263E-04  2998   0.118E-02    0.357E-02
RMM:   4    -0.231682418253E+04    0.11076E-04   -0.39291E-05  2914   0.395E-03    0.138E-02
RMM:   5    -0.231682417973E+04    0.27984E-05   -0.88031E-06  2872   0.284E-03
 107 F= -.23376569E+04 E0= -.23376569E+04  d E =-.964117E-04  mag=     6.0000
       N       E                     dE             d eps       ncg     rms          rms(c)
DAV:   1    -0.231682416056E+04    0.21967E-04   -0.13786E-03  5056   0.355E-02    0.171E-02
RMM:   2    -0.231682418143E+04   -0.20866E-04   -0.18963E-04  3364   0.871E-03    0.237E-02
RMM:   3    -0.231682417814E+04    0.32879E-05   -0.22747E-05  2739   0.484E-03
 108 F= -.23376569E+04 E0= -.23376569E+04  d E =-.981209E-04  mag=     6.0000
       N       E                     dE             d eps       ncg     rms          rms(c)
DAV:   1    -0.231682401557E+04    0.16585E-03   -0.22515E-02  4468   0.143E-01    0.613E-02
RMM:   2    -0.231682430198E+04   -0.28641E-03   -0.28505E-03  5826   0.307E-02    0.617E-02
RMM:   3    -0.231682428975E+04    0.12232E-04   -0.25069E-04  3007   0.115E-02    0.356E-02
RMM:   4    -0.231682427801E+04    0.11733E-04   -0.31155E-05  2899   0.380E-03    0.130E-02
RMM:   5    -0.231682427547E+04    0.25473E-05   -0.83821E-06  2855   0.281E-03
 109 F= -.23376570E+04 E0= -.23376570E+04  d E =-.951227E-04  mag=     6.0000
       N       E                     dE             d eps       ncg     rms          rms(c)
DAV:   1    -0.231682426969E+04    0.83281E-05   -0.49121E-04  4976   0.214E-02    0.975E-03
RMM:   2    -0.231682427608E+04   -0.63978E-05   -0.64601E-05  2917   0.540E-03
 110 F= -.23376570E+04 E0= -.23376570E+04  d E =-.954113E-04  mag=     6.0000
       N       E                     dE             d eps       ncg     rms          rms(c)
DAV:   1    -0.231682427415E+04   -0.44616E-05   -0.14842E-04  4520   0.121E-02    0.588E-03
RMM:   2    -0.231682427617E+04   -0.20229E-05   -0.17181E-05  2491   0.280E-03
 111 F= -.23376570E+04 E0= -.23376570E+04  d E =-.956725E-04  mag=     6.0000
       N       E                     dE             d eps       ncg     rms          rms(c)
DAV:   1    -0.231682424361E+04    0.30539E-04   -0.11343E-02  4472   0.106E-01    0.428E-02
RMM:   2    -0.231682437750E+04   -0.13389E-03   -0.13731E-03  5532   0.226E-02    0.368E-02
RMM:   3    -0.231682437788E+04   -0.37887E-06   -0.12887E-04  2936   0.987E-03    0.262E-02
RMM:   4    -0.231682437101E+04    0.68730E-05   -0.14764E-05  2873   0.296E-03
 112 F= -.23376570E+04 E0= -.23376570E+04  d E =-.655217E-04  mag=     6.0000
       N       E                     dE             d eps       ncg     rms          rms(c)
DAV:   1    -0.231682436945E+04    0.84275E-05   -0.86105E-04  5008   0.292E-02    0.122E-02
RMM:   2    -0.231682437870E+04   -0.92504E-05   -0.10512E-04  3074   0.669E-03    0.910E-03
RMM:   3    -0.231682437936E+04   -0.65166E-06   -0.12713E-05  2625   0.399E-03
 113 F= -.23376570E+04 E0= -.23376570E+04  d E =-.655599E-04  mag=     6.0000
       N       E                     dE             d eps       ncg     rms          rms(c)
DAV:   1    -0.231682431594E+04    0.62762E-04   -0.11292E-02  4480   0.102E-01    0.388E-02
RMM:   2    -0.231682446192E+04   -0.14598E-03   -0.14988E-03  5501   0.216E-02    0.326E-02
RMM:   3    -0.231682446558E+04   -0.36625E-05   -0.14269E-04  2903   0.904E-03    0.236E-02
RMM:   4    -0.231682446075E+04    0.48288E-05   -0.15862E-05  2876   0.272E-03
 114 F= -.23376571E+04 E0= -.23376571E+04  d E =-.483852E-04  mag=     6.0000
       N       E                     dE             d eps       ncg     rms          rms(c)
DAV:   1    -0.231682445925E+04    0.63363E-05   -0.10179E-03  4912   0.305E-02    0.124E-02
RMM:   2    -0.231682447180E+04   -0.12553E-04   -0.13380E-04  3115   0.674E-03    0.114E-02
RMM:   3    -0.231682447202E+04   -0.21858E-06   -0.15127E-05  2597   0.398E-03
 115 F= -.23376571E+04 E0= -.23376571E+04  d E =-.495165E-04  mag=     6.0000
       N       E                     dE             d eps       ncg     rms          rms(c)
DAV:   1    -0.231682445976E+04    0.12039E-04   -0.76355E-03  4480   0.845E-02    0.332E-02
RMM:   2    -0.231682454739E+04   -0.87630E-04   -0.90040E-04  5209   0.175E-02    0.276E-02
RMM:   3    -0.231682454908E+04   -0.16942E-05   -0.84794E-05  2887   0.776E-03
 116 F= -.23376571E+04 E0= -.23376571E+04  d E =-.556945E-04  mag=     6.0000
       N       E                     dE             d eps       ncg     rms          rms(c)
DAV:   1    -0.231682452791E+04    0.19483E-04   -0.38911E-03  4544   0.602E-02    0.261E-02
RMM:   2    -0.231682457099E+04   -0.43080E-04   -0.46038E-04  4149   0.129E-02    0.201E-02
RMM:   3    -0.231682457280E+04   -0.18115E-05   -0.47437E-05  2870   0.575E-03
 117 F= -.23376571E+04 E0= -.23376571E+04  d E =-.640824E-04  mag=     6.0000
       N       E                     dE             d eps       ncg     rms          rms(c)
DAV:   1    -0.231682456676E+04    0.42276E-05   -0.60405E-03  4480   0.760E-02    0.304E-02
RMM:   2    -0.231682462566E+04   -0.58903E-04   -0.61910E-04  5042   0.162E-02    0.222E-02
RMM:   3    -0.231682462825E+04   -0.25835E-05   -0.60121E-05  2878   0.687E-03
 118 F= -.23376572E+04 E0= -.23376572E+04  d E =-.486294E-04  mag=     6.0000
       N       E                     dE             d eps       ncg     rms          rms(c)
DAV:   1    -0.231682461421E+04    0.11458E-04   -0.22105E-03  4744   0.460E-02    0.209E-02
RMM:   2    -0.231682463417E+04   -0.19962E-04   -0.22727E-04  3605   0.993E-03    0.130E-02
RMM:   3    -0.231682463568E+04   -0.15165E-05   -0.23956E-05  2855   0.500E-03
 119 F= -.23376572E+04 E0= -.23376572E+04  d E =-.519204E-04  mag=     6.0000
       N       E                     dE             d eps       ncg     rms          rms(c)
DAV:   1    -0.231682461399E+04    0.20177E-04   -0.71614E-03  4472   0.822E-02    0.317E-02
RMM:   2    -0.231682467896E+04   -0.64971E-04   -0.69330E-04  5232   0.171E-02    0.197E-02
RMM:   3    -0.231682468263E+04   -0.36645E-05   -0.65194E-05  2878   0.727E-03
 120 F= -.23376572E+04 E0= -.23376572E+04  d E =-.399383E-04  mag=     6.0000
       N       E                     dE             d eps       ncg     rms          rms(c)
DAV:   1    -0.231682467759E+04    0.13679E-05   -0.56712E-04  5000   0.235E-02    0.131E-02
RMM:   2    -0.231682468212E+04   -0.45256E-05   -0.59909E-05  2909   0.529E-03
 121 F= -.23376572E+04 E0= -.23376572E+04  d E =-.374368E-04  mag=     6.0000
       N       E                     dE             d eps       ncg     rms          rms(c)
DAV:   1    -0.231682466452E+04    0.13073E-04   -0.78547E-03  4472   0.885E-02    0.347E-02
RMM:   2    -0.231682473670E+04   -0.72176E-04   -0.77712E-04  5193   0.189E-02    0.180E-02
RMM:   3    -0.231682474257E+04   -0.58730E-05   -0.80599E-05  2894   0.848E-03
 122 F= -.23376573E+04 E0= -.23376573E+04  d E =-.434712E-04  mag=     6.0000
       N       E                     dE             d eps       ncg     rms          rms(c)
DAV:   1    -0.231682473859E+04   -0.18976E-05   -0.92935E-04  5128   0.307E-02    0.158E-02
RMM:   2    -0.231682474662E+04   -0.80255E-05   -0.97610E-05  3076   0.688E-03
 123 F= -.23376573E+04 E0= -.23376573E+04  d E =-.416518E-04  mag=     6.0000
       N       E                     dE             d eps       ncg     rms          rms(c)
DAV:   1    -0.231682472051E+04    0.18088E-04   -0.75589E-03  4464   0.849E-02    0.350E-02
RMM:   2    -0.231682480635E+04   -0.85842E-04   -0.90258E-04  5150   0.194E-02    0.250E-02
RMM:   3    -0.231682481137E+04   -0.50231E-05   -0.90902E-05  2898   0.812E-03
 124 F= -.23376573E+04 E0= -.23376573E+04  d E =-.441409E-04  mag=     6.0000
       N       E                     dE             d eps       ncg     rms          rms(c)
DAV:   1    -0.231682480973E+04   -0.33860E-05   -0.28573E-04  5208   0.168E-02    0.118E-02
RMM:   2    -0.231682481239E+04   -0.26596E-05   -0.37689E-05  2692   0.413E-03
 125 F= -.23376573E+04 E0= -.23376573E+04  d E =-.411809E-04  mag=     6.0000
       N       E                     dE             d eps       ncg     rms          rms(c)
DAV:   1    -0.231682479611E+04    0.13623E-04   -0.66136E-03  4472   0.805E-02    0.350E-02
RMM:   2    -0.231682487642E+04   -0.80313E-04   -0.80428E-04  5010   0.183E-02    0.329E-02
RMM:   3    -0.231682487409E+04    0.23386E-05   -0.84287E-05  2895   0.827E-03
 126 F= -.23376574E+04 E0= -.23376574E+04  d E =-.448956E-04  mag=     6.0000
       N       E                     dE             d eps       ncg     rms          rms(c)
DAV:   1    -0.231682487021E+04    0.62123E-05   -0.38574E-04  5104   0.196E-02    0.125E-02
RMM:   2    -0.231682487425E+04   -0.40406E-05   -0.51736E-05  2817   0.473E-03
 127 F= -.23376574E+04 E0= -.23376574E+04  d E =-.409686E-04  mag=     6.0000
       N       E                     dE             d eps       ncg     rms          rms(c)
DAV:   1    -0.231682485072E+04    0.19495E-04   -0.67133E-03  4464   0.783E-02    0.351E-02
RMM:   2    -0.231682494223E+04   -0.91510E-04   -0.89346E-04  4969   0.182E-02    0.395E-02
RMM:   3    -0.231682493609E+04    0.61343E-05   -0.90891E-05  2891   0.787E-03
 128 F= -.23376574E+04 E0= -.23376574E+04  d E =-.320908E-04  mag=     6.0000
       N       E                     dE             d eps       ncg     rms          rms(c)
DAV:   1    -0.231682493470E+04    0.75296E-05   -0.55018E-05  4416   0.769E-03    0.879E-03
RMM:   2    -0.231682493500E+04   -0.30240E-06   -0.10613E-05  2455   0.327E-03
 129 F= -.23376574E+04 E0= -.23376574E+04  d E =-.283777E-04  mag=     6.0000
       N       E                     dE             d eps       ncg     rms          rms(c)
DAV:   1    -0.231682492290E+04    0.11797E-04   -0.71614E-03  4464   0.800E-02    0.361E-02
RMM:   2    -0.231682501794E+04   -0.95039E-04   -0.93647E-04  5115   0.175E-02    0.376E-02
RMM:   3    -0.231682501442E+04    0.35149E-05   -0.95644E-05  2894   0.825E-03
 130 F= -.23376574E+04 E0= -.23376574E+04  d E =-.456734E-04  mag=     6.0000
       N       E                     dE             d eps       ncg     rms          rms(c)
DAV:   1    -0.231682501454E+04    0.33944E-05   -0.52926E-04  4880   0.218E-02    0.133E-02
RMM:   2    -0.231682502100E+04   -0.64546E-05   -0.75219E-05  2941   0.527E-03
 131 F= -.23376574E+04 E0= -.23376574E+04  d E =-.429836E-04  mag=     6.0000
       N       E                     dE             d eps       ncg     rms          rms(c)
DAV:   1    -0.231682498092E+04    0.33628E-04   -0.69186E-03  4472   0.777E-02    0.354E-02
RMM:   2    -0.231682507566E+04   -0.94747E-04   -0.92294E-04  4927   0.180E-02    0.396E-02
RMM:   3    -0.231682507037E+04    0.52972E-05   -0.96127E-05  2888   0.812E-03
 132 F= -.23376575E+04 E0= -.23376575E+04  d E =-.335852E-04  mag=     6.0000
       N       E                     dE             d eps       ncg     rms          rms(c)
DAV:   1    -0.231682506835E+04    0.73110E-05   -0.75100E-05  4888   0.842E-03    0.931E-03
RMM:   2    -0.231682506905E+04   -0.69408E-06   -0.13643E-05  2462   0.275E-03
 133 F= -.23376575E+04 E0= -.23376575E+04  d E =-.306551E-04  mag=     6.0000
       N       E                     dE             d eps       ncg     rms          rms(c)
DAV:   1    -0.231682502759E+04    0.40761E-04   -0.55226E-03  4472   0.697E-02    0.315E-02
RMM:   2    -0.231682510070E+04   -0.73108E-04   -0.72878E-04  4764   0.156E-02    0.319E-02
RMM:   3    -0.231682509905E+04    0.16514E-05   -0.73788E-05  2876   0.759E-03
 134 F= -.23376575E+04 E0= -.23376575E+04  d E =-.339315E-04  mag=     6.0000
       N       E                     dE             d eps       ncg     rms          rms(c)
DAV:   1    -0.231682509615E+04    0.45483E-05   -0.13192E-05  4096   0.410E-03    0.728E-03
RMM:   2    -0.231682509591E+04    0.23769E-06   -0.30392E-06  2351   0.189E-03
 135 F= -.23376575E+04 E0= -.23376575E+04  d E =-.309361E-04  mag=     6.0000
       N       E                     dE             d eps       ncg     rms          rms(c)
DAV:   1    -0.231682507688E+04    0.19268E-04   -0.47414E-03  4472   0.638E-02    0.286E-02
RMM:   2    -0.231682514235E+04   -0.65468E-04   -0.66893E-04  4445   0.142E-02    0.246E-02
RMM:   3    -0.231682514404E+04   -0.16895E-05   -0.65498E-05  2872   0.712E-03
 136 F= -.23376575E+04 E0= -.23376575E+04  d E =-.293961E-04  mag=     6.0000
       N       E                     dE             d eps       ncg     rms          rms(c)
DAV:   1    -0.231682514316E+04   -0.81198E-06   -0.96927E-05  5104   0.930E-03    0.822E-03
RMM:   2    -0.231682514428E+04   -0.11219E-05   -0.16686E-05  2467   0.253E-03
 137 F= -.23376575E+04 E0= -.23376575E+04  d E =-.270003E-04  mag=     6.0000
       N       E                     dE             d eps       ncg     rms          rms(c)
DAV:   1    -0.231682514067E+04    0.24930E-05   -0.41424E-03  4480   0.595E-02    0.272E-02
RMM:   2    -0.231682520466E+04   -0.63987E-04   -0.62688E-04  4236   0.138E-02    0.293E-02
RMM:   3    -0.231682520241E+04    0.22449E-05   -0.62222E-05  2867   0.703E-03
 138 F= -.23376575E+04 E0= -.23376575E+04  d E =-.303781E-04  mag=     6.0000
       N       E                     dE             d eps       ncg     rms          rms(c)
DAV:   1    -0.231682520500E+04   -0.34644E-06   -0.46561E-04  4832   0.199E-02    0.117E-02
RMM:   2    -0.231682521194E+04   -0.69317E-05   -0.75164E-05  2898   0.506E-03
 139 F= -.23376575E+04 E0= -.23376575E+04  d E =-.305519E-04  mag=     6.0000
       N       E                     dE             d eps       ncg     rms          rms(c)
DAV:   1    -0.231682519522E+04    0.97884E-05   -0.42229E-03  4480   0.606E-02    0.279E-02
RMM:   2    -0.231682525975E+04   -0.64538E-04   -0.63095E-04  4209   0.145E-02    0.316E-02
RMM:   3    -0.231682525704E+04    0.27147E-05   -0.65175E-05  2874   0.713E-03
 140 F= -.23376576E+04 E0= -.23376576E+04  d E =-.291542E-04  mag=     6.0000
       N       E                     dE             d eps       ncg     rms          rms(c)
DAV:   1    -0.231682524349E+04    0.16267E-04   -0.18041E-03  4528   0.394E-02    0.193E-02
RMM:   2    -0.231682526863E+04   -0.25140E-04   -0.26452E-04  3328   0.956E-03    0.162E-02
RMM:   3    -0.231682526952E+04   -0.88962E-06   -0.28944E-05  2848   0.503E-03
 141 F= -.23376576E+04 E0= -.23376576E+04  d E =-.311222E-04  mag=     6.0000
       N       E                     dE             d eps       ncg     rms          rms(c)
DAV:   1    -0.231682525039E+04    0.18236E-04   -0.25615E-03  4340   0.436E-02    0.198E-02
RMM:   2    -0.231682529168E+04   -0.41288E-04   -0.42048E-04  3588   0.109E-02    0.164E-02
RMM:   3    -0.231682529400E+04   -0.23181E-05   -0.43621E-05  2798   0.559E-03
 142 F= -.23376576E+04 E0= -.23376576E+04  d E =-.194315E-04  mag=     6.0000
       N       E                     dE             d eps       ncg     rms          rms(c)
DAV:   1    -0.231682526844E+04    0.23236E-04   -0.23359E-03  4376   0.416E-02    0.194E-02
RMM:   2    -0.231682530589E+04   -0.37449E-04   -0.38345E-04  3470   0.104E-02    0.163E-02
RMM:   3    -0.231682530786E+04   -0.19687E-05   -0.40170E-05  2822   0.545E-03
 143 F= -.23376576E+04 E0= -.23376576E+04  d E =-.284856E-04  mag=     6.0000
       N       E                     dE             d eps       ncg     rms          rms(c)
DAV:   1    -0.231682530955E+04   -0.36614E-05   -0.30517E-03  4468   0.531E-02    0.242E-02
RMM:   2    -0.231682535096E+04   -0.41406E-04   -0.43146E-04  3980   0.124E-02    0.172E-02
RMM:   3    -0.231682535354E+04   -0.25837E-05   -0.44348E-05  2852   0.648E-03
 144 F= -.23376576E+04 E0= -.23376576E+04  d E =-.323376E-04  mag=     6.0000
       N       E                     dE             d eps       ncg     rms          rms(c)
DAV:   1    -0.231682534545E+04    0.55139E-05   -0.16574E-03  4600   0.391E-02    0.193E-02
RMM:   2    -0.231682536725E+04   -0.21802E-04   -0.23760E-04  3382   0.936E-03    0.123E-02
RMM:   3    -0.231682536894E+04   -0.16941E-05   -0.25399E-05  2845   0.499E-03
 145 F= -.23376576E+04 E0= -.23376576E+04  d E =-.378413E-04  mag=     6.0000
       N       E                     dE             d eps       ncg     rms          rms(c)
DAV:   1    -0.231682536766E+04   -0.40760E-06   -0.24592E-03  4396   0.464E-02    0.204E-02
RMM:   2    -0.231682540354E+04   -0.35887E-04   -0.37659E-04  3746   0.114E-02    0.129E-02
RMM:   3    -0.231682540640E+04   -0.28572E-05   -0.39027E-05  2844   0.593E-03
 146 F= -.23376577E+04 E0= -.23376577E+04  d E =-.181073E-04  mag=     6.0000
       N       E                     dE             d eps       ncg     rms          rms(c)
DAV:   1    -0.231682540848E+04   -0.49346E-05   -0.29248E-04  4912   0.161E-02    0.920E-03
RMM:   2    -0.231682541278E+04   -0.43033E-05   -0.49185E-05  2708   0.427E-03
 147 F= -.23376577E+04 E0= -.23376577E+04  d E =-.177807E-04  mag=     6.0000
       N       E                     dE             d eps       ncg     rms          rms(c)
DAV:   1    -0.231682541389E+04   -0.54132E-05   -0.21028E-03  4408   0.429E-02    0.193E-02
RMM:   2    -0.231682544591E+04   -0.32022E-04   -0.32674E-04  3544   0.107E-02    0.169E-02
RMM:   3    -0.231682544731E+04   -0.14020E-05   -0.35319E-05  2649   0.564E-03
 148 F= -.23376577E+04 E0= -.23376577E+04  d E =-.220684E-04  mag=     6.0000
       N       E                     dE             d eps       ncg     rms          rms(c)
DAV:   1    -0.231682543535E+04    0.10557E-04   -0.21291E-03  4464   0.430E-02    0.198E-02
RMM:   2    -0.231682546607E+04   -0.30718E-04   -0.32230E-04  3530   0.103E-02    0.151E-02
RMM:   3    -0.231682546777E+04   -0.16943E-05   -0.33634E-05  2848   0.548E-03
 149 F= -.23376577E+04 E0= -.23376577E+04  d E =-.299326E-04  mag=     6.0000
       N       E                     dE             d eps       ncg     rms          rms(c)
DAV:   1    -0.231682546824E+04   -0.21647E-05   -0.19735E-03  4432   0.427E-02    0.189E-02
RMM:   2    -0.231682549361E+04   -0.25374E-04   -0.26413E-04  3512   0.100E-02    0.145E-02
RMM:   3    -0.231682549505E+04   -0.14436E-05   -0.28735E-05  2773   0.544E-03
 150 F= -.23376577E+04 E0= -.23376577E+04  d E =-.223339E-04  mag=     6.0000
