       N       E                     dE             d eps       ncg     rms          rms(c)
DAV:   1     0.128684197150E+05    0.12868E+05   -0.83607E+05  4512   0.144E+03
DAV:   2    -0.106657006177E+04   -0.13935E+05   -0.13330E+05  5112   0.330E+02
DAV:   3    -0.248012140574E+04   -0.14136E+04   -0.13986E+04  5408   0.112E+02
DAV:   4    -0.252550946684E+04   -0.45388E+02   -0.45136E+02  6776   0.299E+01
DAV:   5    -0.252632945328E+04   -0.81999E+00   -0.81839E+00  6024   0.339E+00    0.171E+02
RMM:   6    -0.149449450409E+04    0.10318E+04   -0.19499E+03  4445   0.384E+01    0.727E+01
RMM:   7    -0.166986800670E+04   -0.17537E+03   -0.29183E+02  5044   0.142E+01    0.568E+01
RMM:   8    -0.170859439699E+04   -0.38726E+02   -0.10193E+02  5293   0.832E+00    0.449E+01
RMM:   9    -0.176510086770E+04   -0.56506E+02   -0.61696E+01  4922   0.721E+00    0.359E+01
RMM:  10    -0.186383075222E+04   -0.98730E+02   -0.58836E+01  5378   0.676E+00    0.340E+01
RMM:  11    -0.196501397865E+04   -0.10118E+03   -0.42790E+01  5102   0.586E+00    0.191E+01
RMM:  12    -0.205688164804E+04   -0.91868E+02   -0.39415E+01  4860   0.482E+00    0.149E+01
RMM:  13    -0.216485696952E+04   -0.10798E+03   -0.64011E+01  4471   0.597E+00    0.112E+01
RMM:  14    -0.225372707804E+04   -0.88870E+02   -0.68161E+01  4633   0.603E+00    0.790E+00
RMM:  15    -0.229683198400E+04   -0.43105E+02   -0.36028E+01  4747   0.458E+00    0.512E+00
RMM:  16    -0.231546798205E+04   -0.18636E+02   -0.18722E+01  4694   0.312E+00    0.383E+00
RMM:  17    -0.231841137498E+04   -0.29434E+01   -0.30151E+00  5034   0.145E+00    0.494E+00
RMM:  18    -0.231843174835E+04   -0.20373E-01   -0.39229E-01  5865   0.379E-01    0.500E+00
RMM:  19    -0.231834941700E+04    0.82331E-01   -0.25278E-02  5085   0.134E-01    0.522E+00
RMM:  20    -0.231804221583E+04    0.30720E+00   -0.10893E-01  4446   0.277E-01    0.535E+00
RMM:  21    -0.231787588873E+04    0.16633E+00   -0.52808E-02  4708   0.217E-01    0.588E+00
RMM:  22    -0.231924423031E+04   -0.13683E+01   -0.87931E-01  4433   0.668E-01    0.288E+00
RMM:  23    -0.232036711023E+04   -0.11229E+01   -0.18778E+00  4463   0.105E+00    0.619E+00
RMM:  24    -0.231969624541E+04    0.67086E+00   -0.19314E+00  5281   0.115E+00    0.991E+00
RMM:  25    -0.231946379904E+04    0.23245E+00   -0.30550E-01  5427   0.501E-01    0.108E+01
RMM:  26    -0.231946017539E+04    0.36236E-02   -0.19636E-01  5270   0.349E-01    0.118E+01
RMM:  27    -0.231912367166E+04    0.33650E+00   -0.27242E-01  4673   0.408E-01    0.130E+01
RMM:  28    -0.231843052207E+04    0.69315E+00   -0.35095E-01  4856   0.431E-01    0.145E+01
RMM:  29    -0.231709283688E+04    0.13377E+01   -0.51545E-01  5066   0.538E-01    0.168E+01
RMM:  30    -0.231866232051E+04   -0.15695E+01   -0.46510E-01  4916   0.531E-01    0.136E+01
RMM:  31    -0.232029685862E+04   -0.16345E+01   -0.12482E+00  4731   0.826E-01    0.959E+00
RMM:  32    -0.232131230934E+04   -0.10155E+01   -0.15552E+00  5284   0.984E-01    0.633E+00
RMM:  33    -0.232124286380E+04    0.69446E-01   -0.69858E-02  5740   0.356E-01    0.652E+00
RMM:  34    -0.232133958392E+04   -0.96720E-01   -0.46497E-02  4934   0.142E-01    0.633E+00
RMM:  35    -0.232124383837E+04    0.95746E-01   -0.33715E-02  4887   0.145E-01    0.652E+00
RMM:  36    -0.232109428449E+04    0.14955E+00   -0.64065E-02  4524   0.165E-01    0.677E+00
RMM:  37    -0.232093889356E+04    0.15539E+00   -0.85668E-02  4665   0.175E-01    0.700E+00
RMM:  38    -0.232088624964E+04    0.52644E-01   -0.44898E-02  4595   0.125E-01    0.651E+00
RMM:  39    -0.232068753728E+04    0.19871E+00   -0.45166E-02  4716   0.133E-01    0.689E+00
RMM:  40    -0.232066668666E+04    0.20851E-01   -0.43322E-03  4937   0.720E-02    0.694E+00
RMM:  41    -0.232066739917E+04   -0.71251E-03   -0.55507E-04  4813   0.148E-02    0.692E+00
RMM:  42    -0.232066472596E+04    0.26732E-02   -0.80966E-05  4085   0.129E-02    0.695E+00
RMM:  43    -0.232077423421E+04   -0.10951E+00   -0.29985E-02  4487   0.123E-01    0.628E+00
RMM:  44    -0.232100890924E+04   -0.23468E+00   -0.93305E-02  4526   0.233E-01    0.520E+00
RMM:  45    -0.232113106471E+04   -0.12216E+00   -0.35332E-02  4927   0.184E-01    0.479E+00
RMM:  46    -0.232112798044E+04    0.30843E-02   -0.42457E-03  5555   0.547E-02    0.484E+00
RMM:  47    -0.232112383656E+04    0.41439E-02   -0.23854E-04  4527   0.132E-02    0.486E+00
RMM:  48    -0.232112373216E+04    0.10440E-03   -0.18324E-05  2971   0.572E-03    0.486E+00
RMM:  49    -0.232112336820E+04    0.36396E-03   -0.47761E-06  2853   0.248E-03    0.486E+00
RMM:  50    -0.232111185119E+04    0.11517E-01   -0.23564E-04  3951   0.109E-02    0.491E+00
RMM:  51    -0.232104676897E+04    0.65082E-01   -0.63449E-03  4443   0.588E-02    0.517E+00
RMM:  52    -0.232093749218E+04    0.10928E+00   -0.17427E-02  5057   0.941E-02    0.544E+00
RMM:  53    -0.232095449964E+04   -0.17007E-01   -0.32484E-02  4756   0.118E-01    0.530E+00
RMM:  54    -0.232095786517E+04   -0.33655E-02   -0.17240E-03  4933   0.569E-02    0.528E+00
RMM:  55    -0.232095080705E+04    0.70581E-02   -0.60967E-04  4470   0.172E-02    0.533E+00
RMM:  56    -0.232099400185E+04   -0.43195E-01   -0.29483E-03  4523   0.421E-02    0.515E+00
RMM:  57    -0.232106708881E+04   -0.73087E-01   -0.17757E-02  4948   0.818E-02    0.502E+00
RMM:  58    -0.232113081201E+04   -0.63723E-01   -0.32053E-02  4947   0.116E-01    0.492E+00
RMM:  59    -0.232116862504E+04   -0.37813E-01   -0.41215E-02  4995   0.130E-01    0.503E+00
RMM:  60    -0.232114459067E+04    0.24034E-01   -0.48519E-02  4839   0.136E-01    0.540E+00
RMM:  61    -0.232155539225E+04   -0.41080E+00   -0.10569E+00  4480   0.737E-01    0.284E+00
RMM:  62    -0.232154942313E+04    0.59691E-02   -0.47266E-02  4602   0.309E-01    0.285E+00
RMM:  63    -0.232154981872E+04   -0.39559E-03   -0.93079E-03  6147   0.582E-02    0.288E+00
RMM:  64    -0.232154364769E+04    0.61710E-02   -0.28644E-03  5194   0.384E-02    0.293E+00
RMM:  65    -0.232155624520E+04   -0.12598E-01   -0.10107E-02  4814   0.649E-02    0.310E+00
RMM:  66    -0.232157641827E+04   -0.20173E-01   -0.12965E-02  5298   0.804E-02    0.340E+00
RMM:  67    -0.232158982379E+04   -0.13406E-01   -0.51787E-03  5691   0.489E-02    0.356E+00
RMM:  68    -0.232164732406E+04   -0.57500E-01   -0.18233E-02  4944   0.673E-02    0.385E+00
RMM:  69    -0.232163063881E+04    0.16685E-01   -0.25912E-03  5045   0.356E-02    0.380E+00
RMM:  70    -0.232161933721E+04    0.11302E-01   -0.94025E-03  4549   0.638E-02    0.397E+00
RMM:  71    -0.232155893782E+04    0.60399E-01   -0.14827E-01  4592   0.242E-01    0.486E+00
RMM:  72    -0.232158368934E+04   -0.24752E-01   -0.27041E-02  4998   0.163E-01    0.513E+00
RMM:  73    -0.232161639083E+04   -0.32701E-01   -0.54901E-02  4513   0.159E-01    0.562E+00
RMM:  74    -0.232161670445E+04   -0.31362E-03   -0.31247E-03  4505   0.978E-02    0.554E+00
RMM:  75    -0.232160262802E+04    0.14076E-01   -0.39351E-03  4611   0.400E-02    0.568E+00
RMM:  76    -0.232190565389E+04   -0.30303E+00   -0.58630E-01  4785   0.290E-01    0.583E+00
RMM:  77    -0.232189697891E+04    0.86750E-02   -0.28706E-02  5045   0.133E-01    0.573E+00
RMM:  78    -0.232189145076E+04    0.55281E-02   -0.78425E-02  4505   0.200E-01    0.645E+00
RMM:  79    -0.232186555498E+04    0.25896E-01   -0.49614E-02  5283   0.156E-01    0.588E+00
RMM:  80    -0.232186788820E+04   -0.23332E-02   -0.67942E-03  5540   0.814E-02    0.589E+00
RMM:  81    -0.232190127745E+04   -0.33389E-01   -0.23935E-01  4481   0.330E-01    0.725E+00
RMM:  82    -0.232187979424E+04    0.21483E-01   -0.19108E-02  4575   0.144E-01    0.707E+00
RMM:  83    -0.232181859531E+04    0.61199E-01   -0.93063E-02  4741   0.149E-01    0.707E+00
RMM:  84    -0.232179360243E+04    0.24993E-01   -0.20534E-02  5503   0.962E-02    0.712E+00
RMM:  85    -0.232170101690E+04    0.92586E-01   -0.56009E-02  4737   0.953E-02    0.703E+00
RMM:  86    -0.232155305559E+04    0.14796E+00   -0.79607E-02  5166   0.149E-01    0.718E+00
RMM:  87    -0.232154626171E+04    0.67939E-02   -0.56968E-03  5485   0.627E-02    0.719E+00
RMM:  88    -0.232152452170E+04    0.21740E-01   -0.26660E-03  4613   0.339E-02    0.729E+00
RMM:  89    -0.232136991863E+04    0.15460E+00   -0.51674E-02  4864   0.989E-02    0.740E+00
RMM:  90    -0.232137499187E+04   -0.50732E-02   -0.84138E-03  4812   0.653E-02    0.726E+00
RMM:  91    -0.232165901078E+04   -0.28402E+00   -0.60991E-01  4497   0.576E-01    0.464E+00
RMM:  92    -0.232159621005E+04    0.62801E-01   -0.35613E-02  4879   0.171E-01    0.445E+00
RMM:  93    -0.232160055928E+04   -0.43492E-02   -0.68177E-03  5649   0.528E-02    0.448E+00
RMM:  94    -0.232160651994E+04   -0.59607E-02   -0.29451E-02  4977   0.778E-02    0.427E+00
RMM:  95    -0.232165102620E+04   -0.44506E-01   -0.18956E-02  5241   0.691E-02    0.413E+00
RMM:  96    -0.232165741904E+04   -0.63928E-02   -0.20208E-02  5092   0.685E-02    0.417E+00
RMM:  97    -0.232165221734E+04    0.52017E-02   -0.22938E-02  4908   0.783E-02    0.386E+00
RMM:  98    -0.232166005233E+04   -0.78350E-02   -0.21115E-02  5147   0.727E-02    0.386E+00
RMM:  99    -0.232165317113E+04    0.68812E-02   -0.36364E-03  5023   0.376E-02    0.397E+00
RMM: 100    -0.232164236587E+04    0.10805E-01   -0.45065E-03  4728   0.448E-02    0.421E+00
RMM: 101    -0.232163126153E+04    0.11104E-01   -0.36072E-03  4564   0.409E-02    0.419E+00
RMM: 102    -0.232162949382E+04    0.17677E-02   -0.36386E-03  4875   0.252E-02    0.435E+00
RMM: 103    -0.232161727458E+04    0.12219E-01   -0.30104E-03  5130   0.309E-02    0.458E+00
RMM: 104    -0.232162115912E+04   -0.38845E-02   -0.26270E-04  4023   0.154E-02    0.451E+00
RMM: 105    -0.232162240549E+04   -0.12464E-02   -0.12662E-04  4006   0.784E-03    0.446E+00
RMM: 106    -0.232166782324E+04   -0.45418E-01   -0.93740E-01  4568   0.649E-01    0.167E+00
RMM: 107    -0.232166591371E+04    0.19095E-02   -0.43585E-02  4735   0.232E-01    0.158E+00
RMM: 108    -0.232166691985E+04   -0.10061E-02   -0.86579E-03  5728   0.593E-02    0.156E+00
RMM: 109    -0.232166666675E+04    0.25310E-03   -0.11424E-03  5290   0.291E-02    0.159E+00
RMM: 110    -0.232166001282E+04    0.66539E-02   -0.38631E-03  4915   0.342E-02    0.154E+00
RMM: 111    -0.232165679252E+04    0.32203E-02   -0.27572E-02  4968   0.789E-02    0.195E+00
RMM: 112    -0.232165243976E+04    0.43528E-02   -0.64311E-03  5032   0.490E-02    0.217E+00
RMM: 113    -0.232165261406E+04   -0.17431E-03   -0.15695E-03  5193   0.197E-02    0.224E+00
RMM: 114    -0.232165338680E+04   -0.77274E-03   -0.89371E-04  4891   0.175E-02    0.222E+00
RMM: 115    -0.232166411233E+04   -0.10726E-01   -0.30362E-03  4869   0.314E-02    0.237E+00
RMM: 116    -0.232168221947E+04   -0.18107E-01   -0.11968E-02  4892   0.620E-02    0.297E+00
RMM: 117    -0.232168265973E+04   -0.44026E-03   -0.93715E-04  4792   0.356E-02    0.304E+00
RMM: 118    -0.232167402229E+04    0.86374E-02   -0.33714E-03  4405   0.257E-02    0.261E+00
RMM: 119    -0.232166659620E+04    0.74261E-02   -0.78699E-03  4608   0.367E-02    0.222E+00
RMM: 120    -0.232165008135E+04    0.16515E-01   -0.21152E-02  5015   0.570E-02    0.214E+00
RMM: 121    -0.232164538843E+04    0.46929E-02   -0.40571E-03  4765   0.343E-02    0.230E+00
RMM: 122    -0.232164519904E+04    0.18939E-03   -0.45063E-04  3813   0.103E-02    0.230E+00
RMM: 123    -0.232164492572E+04    0.27332E-03   -0.52903E-05  3012   0.503E-03    0.228E+00
RMM: 124    -0.232164061257E+04    0.43131E-02   -0.55506E-04  3971   0.967E-03    0.225E+00
RMM: 125    -0.232163364201E+04    0.69706E-02   -0.12279E-03  4018   0.137E-02    0.226E+00
RMM: 126    -0.232166049724E+04   -0.26855E-01   -0.16788E-02  4736   0.447E-02    0.227E+00
RMM: 127    -0.232167409562E+04   -0.13598E-01   -0.84121E-03  4768   0.370E-02    0.229E+00
RMM: 128    -0.232164333706E+04    0.30759E-01   -0.24390E-02  4847   0.560E-02    0.219E+00
RMM: 129    -0.232166402964E+04   -0.20693E-01   -0.10631E-02  4997   0.415E-02    0.212E+00
RMM: 130    -0.232171444870E+04   -0.50419E-01   -0.69183E-02  4940   0.895E-02    0.267E+00
RMM: 131    -0.232167406520E+04    0.40383E-01   -0.21550E-02  4966   0.685E-02    0.179E+00
RMM: 132    -0.232168100363E+04   -0.69384E-02   -0.16751E-03  4412   0.270E-02    0.190E+00
RMM: 133    -0.232165694822E+04    0.24055E-01   -0.15644E-02  4977   0.460E-02    0.181E+00
RMM: 134    -0.232158829036E+04    0.68658E-01   -0.12192E-01  5096   0.128E-01    0.278E+00
RMM: 135    -0.232148241944E+04    0.10587E+00   -0.14705E-01  5248   0.147E-01    0.454E+00
RMM: 136    -0.232146398338E+04    0.18436E-01   -0.18488E-02  5191   0.630E-02    0.479E+00
RMM: 137    -0.232146293752E+04    0.10459E-02   -0.32018E-03  4317   0.160E-02    0.481E+00
RMM: 138    -0.232146351368E+04   -0.57616E-03   -0.20050E-04  3120   0.741E-03    0.480E+00
RMM: 139    -0.232146437302E+04   -0.85934E-03   -0.54481E-05  2983   0.362E-03    0.476E+00
RMM: 140    -0.232145626337E+04    0.81096E-02   -0.37853E-04  3374   0.727E-03    0.481E+00
RMM: 141    -0.232147492864E+04   -0.18665E-01   -0.45973E-03  4645   0.262E-02    0.440E+00
RMM: 142    -0.232145635244E+04    0.18576E-01   -0.17885E-03  4211   0.168E-02    0.460E+00
RMM: 143    -0.232146767648E+04   -0.11324E-01   -0.66305E-03  4762   0.335E-02    0.417E+00
RMM: 144    -0.232149287658E+04   -0.25200E-01   -0.10250E-02  4902   0.388E-02    0.365E+00
RMM: 145    -0.232149122441E+04    0.16522E-02   -0.65420E-03  4953   0.308E-02    0.351E+00
RMM: 146    -0.232154927388E+04   -0.58049E-01   -0.25310E-02  5169   0.567E-02    0.265E+00
RMM: 147    -0.232154462116E+04    0.46527E-02   -0.42219E-03  4670   0.335E-02    0.276E+00
RMM: 148    -0.232159102273E+04   -0.46402E-01   -0.13849E-02  4807   0.409E-02    0.215E+00
RMM: 149    -0.232161626304E+04   -0.25240E-01   -0.83204E-03  4440   0.371E-02    0.182E+00
RMM: 150    -0.232164478753E+04   -0.28524E-01   -0.14085E-02  4886   0.395E-02    0.151E+00
RMM: 151    -0.232167863186E+04   -0.33844E-01   -0.23867E-02  4847   0.538E-02    0.166E+00
RMM: 152    -0.232169397730E+04   -0.15345E-01   -0.92568E-03  4888   0.380E-02    0.197E+00
RMM: 153    -0.232168550413E+04    0.84732E-02   -0.14356E-03  4222   0.193E-02    0.178E+00
RMM: 154    -0.232168934563E+04   -0.38415E-02   -0.15078E-03  4166   0.157E-02    0.182E+00
RMM: 155    -0.232167824825E+04    0.11097E-01   -0.15429E-03  3907   0.151E-02    0.150E+00
RMM: 156    -0.232167058742E+04    0.76608E-02   -0.17274E-03  4055   0.176E-02    0.142E+00
RMM: 157    -0.232164030891E+04    0.30279E-01   -0.19539E-02  4903   0.482E-02    0.174E+00
RMM: 158    -0.232160550850E+04    0.34800E-01   -0.22607E-02  5042   0.561E-02    0.233E+00
RMM: 159    -0.232161194469E+04   -0.64362E-02   -0.99593E-04  3845   0.179E-02    0.225E+00
RMM: 160    -0.232161424015E+04   -0.22955E-02   -0.15199E-04  3127   0.501E-03    0.222E+00
RMM: 161    -0.232161285979E+04    0.13804E-02   -0.98491E-04  4269   0.111E-02    0.237E+00
RMM: 162    -0.232163227287E+04   -0.19413E-01   -0.45008E-03  4539   0.225E-02    0.208E+00
RMM: 163    -0.232164973962E+04   -0.17467E-01   -0.52404E-03  4449   0.258E-02    0.193E+00
RMM: 164    -0.232167703302E+04   -0.27293E-01   -0.18509E-02  4925   0.461E-02    0.186E+00
RMM: 165    -0.232170229836E+04   -0.25265E-01   -0.20935E-02  5131   0.525E-02    0.218E+00
RMM: 166    -0.232171863897E+04   -0.16341E-01   -0.63446E-03  4762   0.305E-02    0.264E+00
RMM: 167    -0.232170973201E+04    0.89070E-02   -0.59034E-04  3689   0.164E-02    0.238E+00
RMM: 168    -0.232169057334E+04    0.19159E-01   -0.44617E-03  4425   0.230E-02    0.183E+00
RMM: 169    -0.232169447625E+04   -0.39029E-02   -0.33746E-04  3323   0.148E-02    0.194E+00
RMM: 170    -0.232169093891E+04    0.35373E-02   -0.31131E-04  3314   0.691E-03    0.188E+00
RMM: 171    -0.232169683791E+04   -0.58990E-02   -0.11059E-03  3864   0.128E-02    0.203E+00
RMM: 172    -0.232169837523E+04   -0.15373E-02   -0.10070E-04  2957   0.607E-03    0.207E+00
RMM: 173    -0.232169886042E+04   -0.48519E-03   -0.36370E-05  2741   0.284E-03    0.209E+00
RMM: 174    -0.232170183914E+04   -0.29787E-02   -0.15719E-04  3113   0.471E-03    0.217E+00
RMM: 175    -0.232171187989E+04   -0.10041E-01   -0.17522E-03  4236   0.144E-02    0.242E+00
RMM: 176    -0.232171956464E+04   -0.76847E-02   -0.10003E-03  3808   0.131E-02    0.262E+00
RMM: 177    -0.232171955735E+04    0.72970E-05   -0.10315E-04  3038   0.678E-03    0.263E+00
RMM: 178    -0.232171969927E+04   -0.14192E-03   -0.18342E-05  2804   0.328E-03    0.263E+00
RMM: 179    -0.232172082651E+04   -0.11272E-02   -0.19997E-05  2771   0.259E-03    0.266E+00
RMM: 180    -0.232171984789E+04    0.97862E-03   -0.66237E-06  2566   0.218E-03    0.263E+00
RMM: 181    -0.232172578606E+04   -0.59382E-02   -0.58380E-04  3541   0.830E-03    0.288E+00
RMM: 182    -0.232171988386E+04    0.59022E-02   -0.19247E-04  3166   0.719E-03    0.272E+00
RMM: 183    -0.232172009240E+04   -0.20855E-03   -0.22714E-05  2714   0.362E-03    0.272E+00
RMM: 184    -0.232172017999E+04   -0.87589E-04   -0.36614E-06  2355   0.146E-03    0.272E+00
RMM: 185    -0.232172230774E+04   -0.21277E-02   -0.40577E-05  2730   0.257E-03    0.276E+00
RMM: 186    -0.232172809643E+04   -0.57887E-02   -0.57398E-04  3787   0.837E-03    0.285E+00
RMM: 187    -0.232172749275E+04    0.60369E-03   -0.32193E-05  2837   0.457E-03    0.285E+00
RMM: 188    -0.232172931870E+04   -0.18260E-02   -0.25719E-05  2720   0.242E-03    0.290E+00
RMM: 189    -0.232172924349E+04    0.75211E-04   -0.29229E-06  2528   0.185E-03    0.290E+00
RMM: 190    -0.232172890341E+04    0.34008E-03   -0.88803E-07  2074   0.972E-04    0.289E+00
RMM: 191    -0.232172260047E+04    0.63029E-02   -0.18203E-04  3033   0.513E-03    0.269E+00
RMM: 192    -0.232172796448E+04   -0.53640E-02   -0.19759E-04  3187   0.657E-03    0.281E+00
RMM: 193    -0.232172713175E+04    0.83273E-03   -0.12282E-05  2612   0.317E-03    0.280E+00
RMM: 194    -0.232172740421E+04   -0.27246E-03   -0.27500E-06  2083   0.115E-03    0.280E+00
RMM: 195    -0.232172732674E+04    0.77464E-04   -0.46848E-07  1863   0.992E-04    0.280E+00
RMM: 196    -0.232172218483E+04    0.51419E-02   -0.17674E-04  3070   0.472E-03    0.265E+00
RMM: 197    -0.232173106666E+04   -0.88818E-02   -0.55879E-04  3559   0.896E-03    0.287E+00
RMM: 198    -0.232172686520E+04    0.42015E-02   -0.98930E-05  2950   0.602E-03    0.276E+00
RMM: 199    -0.232171610322E+04    0.10762E-01   -0.83222E-04  3641   0.102E-02    0.245E+00
RMM: 200    -0.232169905725E+04    0.17046E-01   -0.28750E-03  4317   0.193E-02    0.195E+00
RMM: 201    -0.232161911406E+04    0.79943E-01   -0.98537E-02  4985   0.106E-01    0.198E+00
RMM: 202    -0.232161707599E+04    0.20381E-02   -0.68156E-03  4238   0.545E-02    0.203E+00
RMM: 203    -0.232160836710E+04    0.87089E-02   -0.37484E-03  4594   0.197E-02    0.216E+00
RMM: 204    -0.232158314642E+04    0.25221E-01   -0.70894E-03  4648   0.299E-02    0.250E+00
RMM: 205    -0.232159135542E+04   -0.82090E-02   -0.45461E-04  3278   0.124E-02    0.240E+00
RMM: 206    -0.232162207497E+04   -0.30720E-01   -0.10149E-02  4579   0.346E-02    0.195E+00
RMM: 207    -0.232163630408E+04   -0.14229E-01   -0.35785E-03  4096   0.265E-02    0.177E+00
RMM: 208    -0.232164609367E+04   -0.97896E-02   -0.23380E-03  3923   0.170E-02    0.171E+00
RMM: 209    -0.232165072053E+04   -0.46269E-02   -0.10056E-03  3534   0.137E-02    0.174E+00
RMM: 210    -0.232166120559E+04   -0.10485E-01   -0.21939E-03  4143   0.156E-02    0.170E+00
RMM: 211    -0.232169258227E+04   -0.31377E-01   -0.17563E-02  4809   0.450E-02    0.209E+00
RMM: 212    -0.232170230888E+04   -0.97266E-02   -0.40213E-03  4372   0.295E-02    0.229E+00
RMM: 213    -0.232171002627E+04   -0.77174E-02   -0.18354E-03  4391   0.157E-02    0.253E+00
RMM: 214    -0.232171094000E+04   -0.91373E-03   -0.17779E-04  3132   0.930E-03    0.257E+00
RMM: 215    -0.232170846924E+04    0.24708E-02   -0.60416E-05  2956   0.512E-03    0.250E+00
RMM: 216    -0.232174114047E+04   -0.32671E-01   -0.72759E-03  4610   0.282E-02    0.327E+00
RMM: 217    -0.232172131821E+04    0.19822E-01   -0.16731E-03  3936   0.234E-02    0.283E+00
RMM: 218    -0.232171391270E+04    0.74055E-02   -0.77776E-04  3342   0.106E-02    0.262E+00
RMM: 219    -0.232170732146E+04    0.65912E-02   -0.63373E-04  3555   0.100E-02    0.243E+00
RMM: 220    -0.232169974954E+04    0.75719E-02   -0.91011E-04  3828   0.112E-02    0.221E+00
RMM: 221    -0.232171219907E+04   -0.12450E-01   -0.15132E-03  4011   0.176E-02    0.270E+00
RMM: 222    -0.232173391826E+04   -0.21719E-01   -0.41355E-03  4404   0.225E-02    0.322E+00
RMM: 223    -0.232173816423E+04   -0.42460E-02   -0.64202E-04  3423   0.163E-02    0.334E+00
RMM: 224    -0.232172658574E+04    0.11578E-01   -0.52404E-04  3403   0.114E-02    0.306E+00
RMM: 225    -0.232170786418E+04    0.18722E-01   -0.26164E-03  4014   0.177E-02    0.252E+00
RMM: 226    -0.232170459238E+04    0.32718E-02   -0.12004E-03  3821   0.171E-02    0.236E+00
RMM: 227    -0.232169555863E+04    0.90338E-02   -0.15680E-03  3831   0.152E-02    0.213E+00
RMM: 228    -0.232169847096E+04   -0.29123E-02   -0.23365E-04  3126   0.105E-02    0.220E+00
RMM: 229    -0.232169901616E+04   -0.54520E-03   -0.39500E-05  2939   0.389E-03    0.221E+00
RMM: 230    -0.232170275980E+04   -0.37436E-02   -0.13946E-04  3009   0.462E-03    0.232E+00
RMM: 231    -0.232173635942E+04   -0.33600E-01   -0.12922E-02  4324   0.431E-02    0.334E+00
RMM: 232    -0.232173731734E+04   -0.95792E-03   -0.15721E-03  3676   0.265E-02    0.342E+00
RMM: 233    -0.232173716440E+04    0.15294E-03   -0.37023E-04  3206   0.929E-03    0.344E+00
RMM: 234    -0.232173949958E+04   -0.23352E-02   -0.71437E-05  2972   0.508E-03    0.347E+00
RMM: 235    -0.232173922076E+04    0.27882E-03   -0.18560E-04  3140   0.629E-03    0.343E+00
RMM: 236    -0.232173328684E+04    0.59339E-02   -0.96343E-04  3765   0.125E-02    0.321E+00
RMM: 237    -0.232172728924E+04    0.59976E-02   -0.15676E-03  3984   0.164E-02    0.297E+00
RMM: 238    -0.232170181838E+04    0.25471E-01   -0.51186E-03  4324   0.255E-02    0.226E+00
RMM: 239    -0.232170504890E+04   -0.32305E-02   -0.23341E-03  4288   0.250E-02    0.232E+00
RMM: 240    -0.232169536104E+04    0.96879E-02   -0.10137E-03  3910   0.126E-02    0.209E+00
RMM: 241    -0.232169260561E+04    0.27554E-02   -0.27341E-04  3224   0.898E-03    0.205E+00
RMM: 242    -0.232169086333E+04    0.17423E-02   -0.12467E-04  3077   0.583E-03    0.202E+00
RMM: 243    -0.232168712761E+04    0.37357E-02   -0.25329E-04  3246   0.680E-03    0.196E+00
RMM: 244    -0.232168602121E+04    0.11064E-02   -0.92867E-05  2996   0.561E-03    0.194E+00
RMM: 245    -0.232168291975E+04    0.31015E-02   -0.44621E-04  3630   0.809E-03    0.189E+00
RMM: 246    -0.232161006491E+04    0.72855E-01   -0.77074E-02  4894   0.961E-02    0.228E+00
RMM: 247    -0.232160446949E+04    0.55954E-02   -0.57962E-03  4244   0.484E-02    0.237E+00
RMM: 248    -0.232161529825E+04   -0.10829E-01   -0.14734E-03  4051   0.163E-02    0.225E+00
RMM: 249    -0.232161523344E+04    0.64813E-04   -0.85905E-05  2981   0.608E-03    0.225E+00
RMM: 250    -0.232161506667E+04    0.16678E-03   -0.31250E-05  2859   0.245E-03    0.225E+00
RMM: 251    -0.232160254582E+04    0.12521E-01   -0.11634E-03  3602   0.117E-02    0.238E+00
RMM: 252    -0.232159972747E+04    0.28184E-02   -0.18455E-04  2943   0.697E-03    0.241E+00
RMM: 253    -0.232159891539E+04    0.81208E-03   -0.54652E-05  2815   0.315E-03    0.242E+00
RMM: 254    -0.232159654694E+04    0.23684E-02   -0.80701E-05  2886   0.366E-03    0.244E+00
RMM: 255    -0.232160564243E+04   -0.90955E-02   -0.70351E-04  3337   0.909E-03    0.234E+00
RMM: 256    -0.232164384405E+04   -0.38202E-01   -0.15831E-02  4717   0.434E-02    0.193E+00
RMM: 257    -0.232166369614E+04   -0.19852E-01   -0.79060E-03  4374   0.345E-02    0.178E+00
RMM: 258    -0.232166853051E+04   -0.48344E-02   -0.19871E-03  4265   0.169E-02    0.176E+00
RMM: 259    -0.232167212972E+04   -0.35992E-02   -0.61019E-04  3564   0.918E-03    0.176E+00
RMM: 260    -0.232167731622E+04   -0.51865E-02   -0.91828E-04  4006   0.113E-02    0.179E+00
RMM: 261    -0.232168079986E+04   -0.34836E-02   -0.28696E-03  4592   0.206E-02    0.182E+00
RMM: 262    -0.232169345610E+04   -0.12656E-01   -0.27408E-03  4330   0.195E-02    0.198E+00
RMM: 263    -0.232169320452E+04    0.25158E-03   -0.21319E-04  3110   0.102E-02    0.197E+00
RMM: 264    -0.232169631010E+04   -0.31056E-02   -0.28177E-04  3318   0.657E-03    0.204E+00
RMM: 265    -0.232169632804E+04   -0.17937E-04   -0.27223E-05  2850   0.468E-03    0.203E+00
RMM: 266    -0.232170776558E+04   -0.11438E-01   -0.16115E-03  4034   0.137E-02    0.227E+00
RMM: 267    -0.232172526482E+04   -0.17499E-01   -0.39326E-03  4506   0.216E-02    0.268E+00
RMM: 268    -0.232172522349E+04    0.41333E-04   -0.32245E-04  3300   0.125E-02    0.269E+00
RMM: 269    -0.232172947231E+04   -0.42488E-02   -0.20636E-04  3081   0.610E-03    0.280E+00
RMM: 270    -0.232172922522E+04    0.24709E-03   -0.19348E-05  2818   0.416E-03    0.279E+00
RMM: 271    -0.232178742414E+04   -0.58199E-01   -0.15891E-02  4684   0.399E-02    0.355E+00
RMM: 272    -0.232177638402E+04    0.11040E-01   -0.10936E-03  3734   0.246E-02    0.351E+00
RMM: 273    -0.232176556346E+04    0.10821E-01   -0.10505E-03  3817   0.131E-02    0.344E+00
RMM: 274    -0.232176695982E+04   -0.13964E-02   -0.99098E-05  2960   0.680E-03    0.347E+00
RMM: 275    -0.232176836096E+04   -0.14011E-02   -0.79753E-05  2833   0.382E-03    0.348E+00
RMM: 276    -0.232178245497E+04   -0.14094E-01   -0.10681E-03  3806   0.114E-02    0.356E+00
RMM: 277    -0.232178088259E+04    0.15724E-02   -0.58971E-05  2809   0.594E-03    0.356E+00
RMM: 278    -0.232178256632E+04   -0.16837E-02   -0.28983E-05  2762   0.265E-03    0.357E+00
RMM: 279    -0.232178780090E+04   -0.52346E-02   -0.14620E-04  3097   0.448E-03    0.359E+00
RMM: 280    -0.232178473595E+04    0.30650E-02   -0.30639E-05  2677   0.352E-03    0.358E+00
RMM: 281    -0.232179257441E+04   -0.78385E-02   -0.32317E-03  4311   0.214E-02    0.370E+00
RMM: 282    -0.232178614455E+04    0.64299E-02   -0.23843E-04  3029   0.904E-03    0.367E+00
RMM: 283    -0.232178057351E+04    0.55710E-02   -0.17084E-04  3013   0.533E-03    0.364E+00
RMM: 284    -0.232177944534E+04    0.11282E-02   -0.26786E-05  2700   0.336E-03    0.362E+00
RMM: 285    -0.232177838767E+04    0.10577E-02   -0.25646E-04  3154   0.622E-03    0.365E+00
RMM: 286    -0.232178572178E+04   -0.73341E-02   -0.31170E-04  3170   0.696E-03    0.366E+00
RMM: 287    -0.232178151181E+04    0.42100E-02   -0.20173E-04  3065   0.599E-03    0.367E+00
RMM: 288    -0.232177849463E+04    0.30172E-02   -0.28551E-04  3381   0.659E-03    0.369E+00
RMM: 289    -0.232178294023E+04   -0.44456E-02   -0.12271E-04  2912   0.481E-03    0.371E+00
RMM: 290    -0.232178401509E+04   -0.10749E-02   -0.17134E-05  2541   0.254E-03    0.371E+00
RMM: 291    -0.232179912498E+04   -0.15110E-01   -0.13369E-03  4053   0.131E-02    0.372E+00
RMM: 292    -0.232181066409E+04   -0.11539E-01   -0.15660E-03  3756   0.149E-02    0.380E+00
RMM: 293    -0.232179076539E+04    0.19899E-01   -0.14188E-03  4024   0.143E-02    0.382E+00
RMM: 294    -0.232179503734E+04   -0.42720E-02   -0.12206E-04  2950   0.721E-03    0.384E+00
RMM: 295    -0.232179304945E+04    0.19879E-02   -0.40664E-05  2832   0.302E-03    0.384E+00
RMM: 296    -0.232173999556E+04    0.53054E-01   -0.89526E-03  4543   0.300E-02    0.329E+00
RMM: 297    -0.232174132787E+04   -0.13323E-02   -0.82201E-04  3534   0.199E-02    0.329E+00
RMM: 298    -0.232174523257E+04   -0.39047E-02   -0.11875E-04  3071   0.677E-03    0.337E+00
RMM: 299    -0.232174249375E+04    0.27388E-02   -0.66877E-05  2882   0.435E-03    0.330E+00
RMM: 300    -0.232174246909E+04    0.24659E-04   -0.40426E-05  2843   0.339E-03    0.330E+00
RMM: 301    -0.232166390052E+04    0.78569E-01   -0.69487E-02  4916   0.883E-02    0.174E+00
RMM: 302    -0.232163487223E+04    0.29028E-01   -0.31469E-02  4884   0.767E-02    0.207E+00
RMM: 303    -0.232160631278E+04    0.28559E-01   -0.21851E-02  5454   0.517E-02    0.252E+00
RMM: 304    -0.232161151261E+04   -0.51998E-02   -0.85736E-04  3804   0.168E-02    0.246E+00
RMM: 305    -0.232161722343E+04   -0.57108E-02   -0.50581E-04  3340   0.958E-03    0.240E+00
RMM: 306    -0.232162159518E+04   -0.43717E-02   -0.39180E-04  3311   0.866E-03    0.233E+00
RMM: 307    -0.232163575259E+04   -0.14157E-01   -0.27093E-03  4333   0.183E-02    0.217E+00
RMM: 308    -0.232165768104E+04   -0.21928E-01   -0.11088E-02  4784   0.375E-02    0.191E+00
RMM: 309    -0.232167016550E+04   -0.12484E-01   -0.69489E-03  4762   0.321E-02    0.184E+00
RMM: 310    -0.232168141741E+04   -0.11252E-01   -0.56101E-03  4731   0.258E-02    0.188E+00
RMM: 311    -0.232167646039E+04    0.49570E-02   -0.18936E-03  3939   0.211E-02    0.179E+00
RMM: 312    -0.232168359081E+04   -0.71304E-02   -0.72600E-04  3616   0.116E-02    0.191E+00
RMM: 313    -0.232167546285E+04    0.81280E-02   -0.13953E-03  3983   0.147E-02    0.186E+00
RMM: 314    -0.232167567038E+04   -0.20754E-03   -0.28711E-04  3121   0.904E-03    0.189E+00
RMM: 315    -0.232168495078E+04   -0.92804E-02   -0.20104E-03  4208   0.162E-02    0.198E+00
RMM: 316    -0.232168247618E+04    0.24746E-02   -0.31846E-04  3200   0.996E-03    0.193E+00
RMM: 317    -0.232168163599E+04    0.84019E-03   -0.19323E-04  3102   0.588E-03    0.194E+00
RMM: 318    -0.232167925658E+04    0.23794E-02   -0.21824E-04  3243   0.619E-03    0.193E+00
RMM: 319    -0.232167651470E+04    0.27419E-02   -0.38491E-04  3504   0.785E-03    0.192E+00
RMM: 320    -0.232167449672E+04    0.20180E-02   -0.42040E-04  3568   0.862E-03    0.192E+00
RMM: 321    -0.232168547214E+04   -0.10975E-01   -0.30443E-03  4283   0.202E-02    0.196E+00
RMM: 322    -0.232167887754E+04    0.65946E-02   -0.11304E-03  4093   0.148E-02    0.189E+00
RMM: 323    -0.232166876097E+04    0.10117E-01   -0.32614E-03  4502   0.198E-02    0.187E+00
RMM: 324    -0.232166311991E+04    0.56411E-02   -0.18073E-03  4113   0.176E-02    0.192E+00
RMM: 325    -0.232165865231E+04    0.44676E-02   -0.11336E-03  4146   0.123E-02    0.196E+00
RMM: 326    -0.232166135512E+04   -0.27028E-02   -0.28299E-04  3228   0.885E-03    0.194E+00
RMM: 327    -0.232166599539E+04   -0.46403E-02   -0.10402E-03  4061   0.120E-02    0.189E+00
RMM: 328    -0.232166808184E+04   -0.20865E-02   -0.30518E-04  3231   0.797E-03    0.187E+00
RMM: 329    -0.232167031157E+04   -0.22297E-02   -0.24534E-04  3288   0.594E-03    0.187E+00
RMM: 330    -0.232166389883E+04    0.64127E-02   -0.11979E-03  3913   0.124E-02    0.189E+00
RMM: 331    -0.232168574831E+04   -0.21849E-01   -0.14585E-02  4836   0.415E-02    0.196E+00
RMM: 332    -0.232168574699E+04    0.13211E-05   -0.85106E-04  3589   0.196E-02    0.193E+00
RMM: 333    -0.232168600857E+04   -0.26158E-03   -0.19566E-04  3147   0.525E-03    0.193E+00
RMM: 334    -0.232168630272E+04   -0.29415E-03   -0.25512E-05  2813   0.343E-03    0.195E+00
RMM: 335    -0.232168530852E+04    0.99420E-03   -0.13704E-05  2511   0.205E-03    0.193E+00
RMM: 336    -0.232168282924E+04    0.24793E-02   -0.60026E-04  3419   0.961E-03    0.180E+00
RMM: 337    -0.232167840935E+04    0.44199E-02   -0.83032E-04  3760   0.104E-02    0.175E+00
RMM: 338    -0.232167126827E+04    0.71411E-02   -0.15966E-03  4243   0.141E-02    0.171E+00
RMM: 339    -0.232165165324E+04    0.19615E-01   -0.10265E-02  4810   0.349E-02    0.179E+00
RMM: 340    -0.232165683673E+04   -0.51835E-02   -0.62196E-04  3519   0.165E-02    0.177E+00
RMM: 341    -0.232165151384E+04    0.53229E-02   -0.30571E-03  4399   0.205E-02    0.190E+00
RMM: 342    -0.232165750935E+04   -0.59955E-02   -0.71795E-04  3603   0.109E-02    0.186E+00
RMM: 343    -0.232165909284E+04   -0.15835E-02   -0.13899E-04  3039   0.565E-03    0.184E+00
RMM: 344    -0.232167314455E+04   -0.14052E-01   -0.55664E-03  4571   0.255E-02    0.181E+00
RMM: 345    -0.232170463577E+04   -0.31491E-01   -0.27136E-02  4972   0.585E-02    0.230E+00
RMM: 346    -0.232170543542E+04   -0.79965E-03   -0.18264E-03  4000   0.282E-02    0.234E+00
RMM: 347    -0.232170030951E+04    0.51259E-02   -0.36200E-04  3464   0.103E-02    0.222E+00
RMM: 348    -0.232167860596E+04    0.21704E-01   -0.73941E-03  4585   0.298E-02    0.179E+00
RMM: 349    -0.232165838525E+04    0.20221E-01   -0.10447E-02  4750   0.370E-02    0.183E+00
RMM: 350    -0.232165412000E+04    0.42653E-02   -0.18082E-03  4152   0.194E-02    0.188E+00
RMM: 351    -0.232165932384E+04   -0.52038E-02   -0.28012E-03  4337   0.207E-02    0.182E+00
RMM: 352    -0.232167123223E+04   -0.11908E-01   -0.42062E-03  4613   0.239E-02    0.178E+00
RMM: 353    -0.232167412927E+04   -0.28970E-02   -0.84522E-04  3787   0.136E-02    0.177E+00
RMM: 354    -0.232167157031E+04    0.25590E-02   -0.12024E-04  3076   0.572E-03    0.176E+00
RMM: 355    -0.232167160902E+04   -0.38704E-04   -0.65747E-06  2589   0.216E-03    0.177E+00
RMM: 356    -0.232165600247E+04    0.15607E-01   -0.64986E-03  4625   0.275E-02    0.181E+00
RMM: 357    -0.232165970785E+04   -0.37054E-02   -0.32932E-04  3192   0.125E-02    0.180E+00
RMM: 358    -0.232166064483E+04   -0.93698E-03   -0.52426E-05  2776   0.395E-03    0.179E+00
RMM: 359    -0.232165303409E+04    0.76107E-02   -0.17554E-03  4179   0.146E-02    0.184E+00
RMM: 360    -0.232167136319E+04   -0.18329E-01   -0.82960E-03  4639   0.315E-02    0.178E+00
RMM: 361    -0.232169887437E+04   -0.27511E-01   -0.21730E-02  4939   0.523E-02    0.209E+00
RMM: 362    -0.232170888494E+04   -0.10011E-01   -0.50384E-03  4589   0.310E-02    0.231E+00
RMM: 363    -0.232171053793E+04   -0.16530E-02   -0.89696E-04  3809   0.122E-02    0.235E+00
RMM: 364    -0.232171560362E+04   -0.50657E-02   -0.46032E-04  3500   0.891E-03    0.248E+00
RMM: 365    -0.232168950276E+04    0.26101E-01   -0.97344E-03  4604   0.339E-02    0.188E+00
RMM: 366    -0.232168204965E+04    0.74531E-02   -0.18629E-03  3951   0.216E-02    0.183E+00
RMM: 367    -0.232167856426E+04    0.34854E-02   -0.95902E-04  3980   0.117E-02    0.180E+00
RMM: 368    -0.232167619471E+04    0.23696E-02   -0.40759E-04  3455   0.894E-03    0.178E+00
RMM: 369    -0.232166615485E+04    0.10040E-01   -0.41053E-03  4623   0.228E-02    0.175E+00
RMM: 370    -0.232165173548E+04    0.14419E-01   -0.10147E-02  4832   0.369E-02    0.186E+00
RMM: 371    -0.232164510436E+04    0.66311E-02   -0.27715E-03  4375   0.222E-02    0.195E+00
RMM: 372    -0.232163717328E+04    0.79311E-02   -0.25092E-03  4585   0.174E-02    0.205E+00
RMM: 373    -0.232166851200E+04   -0.31339E-01   -0.20170E-02  4809   0.491E-02    0.180E+00
RMM: 374    -0.232169376497E+04   -0.25253E-01   -0.20685E-02  4944   0.527E-02    0.198E+00
RMM: 375    -0.232169991946E+04   -0.61545E-02   -0.37466E-03  4460   0.280E-02    0.209E+00
RMM: 376    -0.232173678677E+04   -0.36867E-01   -0.16172E-02  4883   0.415E-02    0.299E+00
RMM: 377    -0.232177116461E+04   -0.34378E-01   -0.10696E-02  4729   0.406E-02    0.355E+00
RMM: 378    -0.232177850013E+04   -0.73355E-02   -0.20582E-03  4222   0.209E-02    0.364E+00
RMM: 379    -0.232176784546E+04    0.10655E-01   -0.68453E-04  3824   0.123E-02    0.357E+00
RMM: 380    -0.232176631629E+04    0.15292E-02   -0.15195E-04  3146   0.640E-03    0.358E+00
RMM: 381    -0.232178637766E+04   -0.20061E-01   -0.76257E-03  4714   0.308E-02    0.362E+00
RMM: 382    -0.232173896097E+04    0.47417E-01   -0.11738E-02  4878   0.365E-02    0.301E+00
RMM: 383    -0.232183165391E+04   -0.92693E-01   -0.49737E-02  5088   0.785E-02    0.372E+00
RMM: 384    -0.232174760490E+04    0.84049E-01   -0.42024E-02  5101   0.726E-02    0.318E+00
RMM: 385    -0.232179414834E+04   -0.46543E-01   -0.11052E-02  4850   0.450E-02    0.364E+00
RMM: 386    -0.232190896420E+04   -0.11482E+00   -0.69927E-02  5019   0.877E-02    0.380E+00
RMM: 387    -0.232201162988E+04   -0.10267E+00   -0.81828E-02  5232   0.107E-01    0.436E+00
RMM: 388    -0.232199611518E+04    0.15515E-01   -0.36155E-03  4512   0.327E-02    0.424E+00
RMM: 389    -0.232198906952E+04    0.70457E-02   -0.67914E-04  3486   0.101E-02    0.420E+00
RMM: 390    -0.232190884426E+04    0.80225E-01   -0.29491E-02  4839   0.576E-02    0.387E+00
RMM: 391    -0.232172077744E+04    0.18807E+00   -0.24047E-01  5081   0.174E-01    0.256E+00
RMM: 392    -0.232193901886E+04   -0.21824E+00   -0.22415E-01  5043   0.171E-01    0.379E+00
RMM: 393    -0.232191399655E+04    0.25022E-01   -0.93507E-03  4346   0.682E-02    0.376E+00
RMM: 394    -0.232188552516E+04    0.28471E-01   -0.53797E-03  4509   0.296E-02    0.370E+00
RMM: 395    -0.232189997983E+04   -0.14455E-01   -0.56834E-04  3369   0.121E-02    0.369E+00
RMM: 396    -0.232199028084E+04   -0.90301E-01   -0.51828E-02  5006   0.756E-02    0.412E+00
RMM: 397    -0.232185358690E+04    0.13669E+00   -0.77473E-02  5152   0.929E-02    0.370E+00
RMM: 398    -0.232186511991E+04   -0.11533E-01   -0.23049E-03  4088   0.319E-02    0.370E+00
RMM: 399    -0.232184119108E+04    0.23929E-01   -0.40754E-03  4628   0.212E-02    0.369E+00
RMM: 400    -0.232183747616E+04    0.37149E-02   -0.42987E-04  3360   0.988E-03    0.369E+00
RMM: 401    -0.232175410138E+04    0.83375E-01   -0.38128E-02  4921   0.646E-02
   1 F= -.23426608E+04 E0= -.23426508E+04  d E =-.234266E+04  mag=     7.2945
       N       E                     dE             d eps       ncg     rms          rms(c)
DAV:   1    -0.232208969503E+04   -0.25222E+00   -0.14724E+01  4480   0.210E+00    0.267E+00
RMM:   2    -0.232250741863E+04   -0.41772E+00   -0.18737E+00  6258   0.566E-01    0.321E+00
RMM:   3    -0.232252966035E+04   -0.22242E-01   -0.23620E-01  5144   0.222E-01    0.246E+00
RMM:   4    -0.232254746196E+04   -0.17802E-01   -0.90344E-02  4657   0.115E-01    0.159E+00
RMM:   5    -0.232257968626E+04   -0.32224E-01   -0.65603E-02  4859   0.109E-01    0.162E+00
RMM:   6    -0.232258970406E+04   -0.10018E-01   -0.41913E-02  4955   0.868E-02    0.119E+00
RMM:   7    -0.232260285023E+04   -0.13146E-01   -0.47568E-02  4784   0.831E-02    0.862E-01
RMM:   8    -0.232260995234E+04   -0.71021E-02   -0.31582E-02  4762   0.676E-02    0.287E-01
RMM:   9    -0.232263367469E+04   -0.23722E-01   -0.55541E-03  4265   0.464E-02    0.178E-01
RMM:  10    -0.232264874011E+04   -0.15065E-01   -0.38080E-03  4264   0.357E-02    0.120E-01
RMM:  11    -0.232265814850E+04   -0.94084E-02   -0.27639E-03  4364   0.335E-02    0.747E-02
RMM:  12    -0.232266186773E+04   -0.37192E-02   -0.10103E-03  4197   0.227E-02    0.535E-02
RMM:  13    -0.232266438360E+04   -0.25159E-02   -0.68649E-04  4092   0.175E-02    0.272E-02
RMM:  14    -0.232266519398E+04   -0.81038E-03   -0.16587E-04  3781   0.123E-02    0.149E-02
RMM:  15    -0.232266566991E+04   -0.47593E-03   -0.87989E-05  3635   0.658E-03    0.754E-03
RMM:  16    -0.232266583060E+04   -0.16069E-03   -0.25055E-05  3118   0.583E-03    0.375E-03
RMM:  17    -0.232266587497E+04   -0.44370E-04   -0.10997E-05  2873   0.320E-03    0.201E-03
RMM:  18    -0.232266588825E+04   -0.13280E-04   -0.43292E-06  2711   0.271E-03    0.971E-04
RMM:  19    -0.232266589093E+04   -0.26792E-05   -0.23184E-06  2514   0.183E-03
   2 F= -.23435714E+04 E0= -.23435714E+04  d E =-.910585E+00  mag=     6.0003
       N       E                     dE             d eps       ncg     rms          rms(c)
DAV:   1    -0.232253960571E+04    0.12628E+00   -0.36124E+01  4480   0.323E+00    0.173E+00
RMM:   2    -0.232289041321E+04   -0.35081E+00   -0.37265E+00  6273   0.765E-01    0.125E+00
RMM:   3    -0.232291945567E+04   -0.29042E-01   -0.38524E-01  5804   0.295E-01    0.128E+00
RMM:   4    -0.232290920490E+04    0.10251E-01   -0.40429E-02  5692   0.709E-02    0.606E-01
RMM:   5    -0.232290696071E+04    0.22442E-02   -0.13258E-02  5433   0.474E-02    0.452E-01
RMM:   6    -0.232290671359E+04    0.24711E-03   -0.75459E-03  5240   0.360E-02    0.378E-01
RMM:   7    -0.232290542599E+04    0.12876E-02   -0.16239E-03  4919   0.189E-02    0.905E-02
RMM:   8    -0.232290530143E+04    0.12456E-03   -0.31167E-04  3594   0.902E-03    0.401E-02
RMM:   9    -0.232290525402E+04    0.47412E-04   -0.10417E-04  3163   0.678E-03    0.213E-02
RMM:  10    -0.232290523354E+04    0.20476E-04   -0.36726E-05  3007   0.517E-03    0.112E-02
RMM:  11    -0.232290522183E+04    0.11711E-04   -0.23053E-05  2937   0.449E-03    0.654E-03
RMM:  12    -0.232290521823E+04    0.36025E-05   -0.10803E-05  2870   0.410E-03
   3 F= -.23438094E+04 E0= -.23438094E+04  d E =-.114854E+01  mag=     6.0000
       N       E                     dE             d eps       ncg     rms          rms(c)
DAV:   1    -0.232305323600E+04   -0.14801E+00   -0.72263E+00  4656   0.158E+00    0.867E-01
RMM:   2    -0.232314431666E+04   -0.91081E-01   -0.94580E-01  6198   0.380E-01    0.702E-01
RMM:   3    -0.232315179537E+04   -0.74787E-02   -0.10204E-01  5686   0.150E-01    0.678E-01
RMM:   4    -0.232314880877E+04    0.29866E-02   -0.10743E-02  5282   0.366E-02    0.245E-01
RMM:   5    -0.232314833544E+04    0.47334E-03   -0.22315E-03  4581   0.209E-02    0.122E-01
RMM:   6    -0.232314833471E+04    0.72269E-06   -0.66048E-04  4325   0.144E-02    0.687E-02
RMM:   7    -0.232314833718E+04   -0.24621E-05   -0.20841E-04  3088   0.782E-03    0.724E-02
RMM:   8    -0.232314829126E+04    0.45915E-04   -0.60562E-05  2927   0.503E-03    0.174E-02
RMM:   9    -0.232314828810E+04    0.31602E-05   -0.18171E-05  2907   0.285E-03
   4 F= -.23440516E+04 E0= -.23440516E+04  d E =-.242247E+00  mag=     6.0000
       N       E                     dE             d eps       ncg     rms          rms(c)
DAV:   1    -0.232297166398E+04    0.17663E+00   -0.27377E+01  4560   0.307E+00    0.169E+00
RMM:   2    -0.232332369151E+04   -0.35203E+00   -0.36322E+00  6197   0.769E-01    0.148E+00
RMM:   3    -0.232334567858E+04   -0.21987E-01   -0.39540E-01  5811   0.296E-01    0.123E+00
RMM:   4    -0.232333586445E+04    0.98141E-02   -0.39601E-02  5522   0.709E-02    0.458E-01
RMM:   5    -0.232333428216E+04    0.15823E-02   -0.91203E-03  5091   0.422E-02    0.243E-01
RMM:   6    -0.232333421322E+04    0.68948E-04   -0.25588E-03  5086   0.262E-02    0.134E-01
RMM:   7    -0.232333409707E+04    0.11615E-03   -0.57038E-04  3925   0.123E-02    0.813E-02
RMM:   8    -0.232333406436E+04    0.32712E-04   -0.20762E-04  3025   0.756E-03    0.579E-02
RMM:   9    -0.232333402980E+04    0.34558E-04   -0.61812E-05  2953   0.493E-03    0.160E-02
RMM:  10    -0.232333402832E+04    0.14838E-05   -0.18519E-05  2944   0.342E-03
   5 F= -.23442362E+04 E0= -.23442362E+04  d E =-.426777E+00  mag=     6.0000
       N       E                     dE             d eps       ncg     rms          rms(c)
DAV:   1    -0.232340140999E+04   -0.67380E-01   -0.34266E+00  4624   0.120E+00    0.614E-01
RMM:   2    -0.232345811054E+04   -0.56701E-01   -0.56390E-01  6152   0.286E-01    0.769E-01
RMM:   3    -0.232345788790E+04    0.22264E-03   -0.62332E-02  5718   0.118E-01    0.389E-01
RMM:   4    -0.232345708609E+04    0.80181E-03   -0.64601E-03  4768   0.280E-02    0.176E-01
RMM:   5    -0.232345657735E+04    0.50874E-03   -0.17338E-03  4649   0.191E-02    0.958E-02
RMM:   6    -0.232345664847E+04   -0.71122E-04   -0.63273E-04  3827   0.130E-02    0.121E-01
RMM:   7    -0.232345650869E+04    0.13978E-03   -0.15758E-04  3007   0.728E-03    0.197E-02
RMM:   8    -0.232345650638E+04    0.23039E-05   -0.26746E-05  2953   0.369E-03
   6 F= -.23443576E+04 E0= -.23443576E+04  d E =-.121457E+00  mag=     6.0000
       N       E                     dE             d eps       ncg     rms          rms(c)
DAV:   1    -0.232341448393E+04    0.42025E-01   -0.67813E+00  4560   0.171E+00    0.869E-01
RMM:   2    -0.232352940042E+04   -0.11492E+00   -0.11293E+00  6145   0.402E-01    0.117E+00
RMM:   3    -0.232352658913E+04    0.28113E-02   -0.12523E-01  5796   0.163E-01    0.530E-01
RMM:   4    -0.232352519362E+04    0.13955E-02   -0.13399E-02  5086   0.390E-02    0.258E-01
RMM:   5    -0.232352473221E+04    0.46141E-03   -0.35786E-03  4924   0.272E-02    0.286E-01
RMM:   6    -0.232352412948E+04    0.60274E-03   -0.20602E-03  4955   0.193E-02    0.142E-01
RMM:   7    -0.232352396816E+04    0.16132E-03   -0.25939E-04  3228   0.926E-03    0.394E-02
RMM:   8    -0.232352395348E+04    0.14679E-04   -0.52709E-05  2964   0.559E-03    0.182E-02
RMM:   9    -0.232352395202E+04    0.14619E-05   -0.27590E-05  2991   0.368E-03
   7 F= -.23444238E+04 E0= -.23444238E+04  d E =-.187615E+00  mag=     6.0000
       N       E                     dE             d eps       ncg     rms          rms(c)
DAV:   1    -0.232352608756E+04   -0.21341E-02   -0.23104E+00  4568   0.992E-01    0.551E-01
RMM:   2    -0.232357936440E+04   -0.53277E-01   -0.52887E-01  6307   0.263E-01    0.623E-01
RMM:   3    -0.232358082258E+04   -0.14582E-02   -0.55047E-02  5716   0.106E-01    0.375E-01
RMM:   4    -0.232358031528E+04    0.50729E-03   -0.60245E-03  4422   0.244E-02    0.157E-01
RMM:   5    -0.232358020598E+04    0.10930E-03   -0.87215E-04  3807   0.123E-02    0.179E-01
RMM:   6    -0.232357992593E+04    0.28005E-03   -0.66931E-04  3857   0.118E-02    0.720E-02
RMM:   7    -0.232357988878E+04    0.37151E-04   -0.18984E-04  3338   0.797E-03    0.257E-02
RMM:   8    -0.232357988332E+04    0.54617E-05   -0.27608E-05  2927   0.526E-03
   8 F= -.23444789E+04 E0= -.23444789E+04  d E =-.551053E-01  mag=     6.0000
       N       E                     dE             d eps       ncg     rms          rms(c)
DAV:   1    -0.232336563770E+04    0.21425E+00   -0.11029E+01  4496   0.217E+00    0.122E+00
RMM:   2    -0.232363023336E+04   -0.26460E+00   -0.26022E+00  6356   0.608E-01    0.152E+00
RMM:   3    -0.232362965351E+04    0.57985E-03   -0.26411E-01  5860   0.229E-01    0.757E-01
RMM:   4    -0.232362812382E+04    0.15297E-02   -0.29306E-02  5379   0.527E-02    0.376E-01
RMM:   5    -0.232362786069E+04    0.26313E-03   -0.48405E-03  4908   0.266E-02    0.446E-01
RMM:   6    -0.232362592708E+04    0.19336E-02   -0.36101E-03  5304   0.252E-02    0.147E-01
RMM:   7    -0.232362579936E+04    0.12773E-03   -0.11445E-03  4382   0.170E-02    0.585E-02
RMM:   8    -0.232362576547E+04    0.33890E-04   -0.13758E-04  3111   0.805E-03    0.314E-02
RMM:   9    -0.232362575899E+04    0.64739E-05   -0.54210E-05  2990   0.494E-03
   9 F= -.23445230E+04 E0= -.23445230E+04  d E =-.992018E-01  mag=     6.0000
       N       E                     dE             d eps       ncg     rms          rms(c)
DAV:   1    -0.232363218842E+04   -0.64230E-02   -0.14787E+00  4584   0.765E-01    0.409E-01
RMM:   2    -0.232365944563E+04   -0.27257E-01   -0.27821E-01  6413   0.198E-01    0.357E-01
RMM:   3    -0.232366130579E+04   -0.18602E-02   -0.28665E-02  5356   0.738E-02    0.297E-01
RMM:   4    -0.232366086300E+04    0.44279E-03   -0.30540E-03  3735   0.177E-02    0.114E-01
RMM:   5    -0.232366082844E+04    0.34565E-04   -0.45825E-04  3237   0.889E-03    0.122E-01
RMM:   6    -0.232366071587E+04    0.11257E-03   -0.31736E-04  3220   0.837E-03    0.561E-02
RMM:   7    -0.232366069782E+04    0.18053E-04   -0.90527E-05  3112   0.613E-03    0.258E-02
RMM:   8    -0.232366069413E+04    0.36880E-05   -0.19571E-05  2911   0.423E-03
  10 F= -.23445573E+04 E0= -.23445573E+04  d E =-.342803E-01  mag=     6.0000
       N       E                     dE             d eps       ncg     rms          rms(c)
DAV:   1    -0.232346370074E+04    0.19700E+00   -0.13275E+01  4480   0.231E+00    0.124E+00
RMM:   2    -0.232371950296E+04   -0.25580E+00   -0.25936E+00  6432   0.621E-01    0.120E+00
RMM:   3    -0.232373116552E+04   -0.11663E-01   -0.26838E-01  5882   0.226E-01    0.857E-01
RMM:   4    -0.232372784729E+04    0.33182E-02   -0.27864E-02  5382   0.521E-02    0.357E-01
RMM:   5    -0.232372758196E+04    0.26533E-03   -0.43357E-03  4734   0.245E-02    0.395E-01
RMM:   6    -0.232372624164E+04    0.13403E-02   -0.31811E-03  5054   0.228E-02    0.148E-01
RMM:   7    -0.232372612322E+04    0.11842E-03   -0.81060E-04  4142   0.141E-02    0.683E-02
RMM:   8    -0.232372609088E+04    0.32334E-04   -0.14592E-04  3175   0.802E-03    0.297E-02
RMM:   9    -0.232372608820E+04    0.26854E-05   -0.43656E-05  2908   0.498E-03
  11 F= -.23446207E+04 E0= -.23446207E+04  d E =-.977135E-01  mag=     6.0000
       N       E                     dE             d eps       ncg     rms          rms(c)
DAV:   1    -0.232255188906E+04    0.11742E+01   -0.53016E+01  4480   0.463E+00    0.250E+00
RMM:   2    -0.232364687534E+04   -0.10950E+01   -0.11088E+01  6475   0.135E+00    0.258E+00
RMM:   3    -0.232366699000E+04   -0.20115E-01   -0.10572E+00  5915   0.456E-01    0.159E+00
RMM:   4    -0.232365686544E+04    0.10125E-01   -0.10307E-01  5703   0.997E-02    0.765E-01
RMM:   5    -0.232365560942E+04    0.12560E-02   -0.18149E-02  5453   0.501E-02    0.826E-01
RMM:   6    -0.232364926451E+04    0.63449E-02   -0.13907E-02  5477   0.468E-02    0.282E-01
RMM:   7    -0.232364884871E+04    0.41579E-03   -0.34273E-03  4568   0.296E-02    0.114E-01
RMM:   8    -0.232364878432E+04    0.64389E-04   -0.53864E-04  3870   0.139E-02    0.556E-02
RMM:   9    -0.232364878811E+04   -0.37813E-05   -0.16183E-04  3362   0.782E-03    0.344E-02
RMM:  10    -0.232364880135E+04   -0.13249E-04   -0.56684E-05  2985   0.568E-03    0.161E-02
RMM:  11    -0.232364881128E+04   -0.99252E-05   -0.15239E-05  2928   0.379E-03
  12 F= -.23445396E+04 E0= -.23445396E+04  d E =-.166709E-01  mag=     6.0000
       N       E                     dE             d eps       ncg     rms          rms(c)
DAV:   1    -0.232306752834E+04    0.58127E+00   -0.33108E+01  4480   0.370E+00    0.195E+00
RMM:   2    -0.232367679336E+04   -0.60927E+00   -0.64405E+00  6366   0.933E-01    0.120E+00
RMM:   3    -0.232375515329E+04   -0.78360E-01   -0.82397E-01  5815   0.434E-01    0.153E+00
RMM:   4    -0.232373842346E+04    0.16730E-01   -0.68240E-02  5976   0.862E-02    0.590E-01
RMM:   5    -0.232373608099E+04    0.23425E-02   -0.82981E-03  4907   0.345E-02    0.375E-01
RMM:   6    -0.232373637837E+04   -0.29738E-03   -0.62250E-03  5444   0.321E-02    0.445E-01
RMM:   7    -0.232373460197E+04    0.17764E-02   -0.33224E-03  4881   0.237E-02    0.143E-01
RMM:   8    -0.232373447660E+04    0.12537E-03   -0.55986E-04  3727   0.107E-02    0.550E-02
RMM:   9    -0.232373444401E+04    0.32596E-04   -0.18637E-04  3155   0.816E-03    0.246E-02
RMM:  10    -0.232373444933E+04   -0.53294E-05   -0.64145E-05  3012   0.477E-03
  13 F= -.23446282E+04 E0= -.23446282E+04  d E =-.105261E+00  mag=     6.0000
       N       E                     dE             d eps       ncg     rms          rms(c)
DAV:   1    -0.232375019639E+04   -0.15752E-01   -0.14889E+00  4496   0.781E-01    0.419E-01
RMM:   2    -0.232377682580E+04   -0.26629E-01   -0.26021E-01  6210   0.183E-01    0.523E-01
RMM:   3    -0.232377687896E+04   -0.53153E-04   -0.29948E-02  5707   0.804E-02    0.247E-01
RMM:   4    -0.232377661646E+04    0.26249E-03   -0.29876E-03  3951   0.182E-02    0.134E-01
RMM:   5    -0.232377658165E+04    0.34816E-04   -0.56576E-04  3564   0.106E-02    0.145E-01
RMM:   6    -0.232377636551E+04    0.21614E-03   -0.43818E-04  3811   0.102E-02    0.507E-02
RMM:   7    -0.232377635728E+04    0.82299E-05   -0.98085E-05  3074   0.676E-03
  14 F= -.23446702E+04 E0= -.23446702E+04  d E =-.419710E-01  mag=     6.0000
       N       E                     dE             d eps       ncg     rms          rms(c)
DAV:   1    -0.232364830997E+04    0.12806E+00   -0.10142E+01  4480   0.204E+00    0.110E+00
RMM:   2    -0.232382788601E+04   -0.17958E+00   -0.17396E+00  6184   0.471E-01    0.144E+00
RMM:   3    -0.232382367019E+04    0.42158E-02   -0.20172E-01  5927   0.210E-01    0.604E-01
RMM:   4    -0.232382264107E+04    0.10291E-02   -0.21642E-02  5334   0.467E-02    0.384E-01
RMM:   5    -0.232382215469E+04    0.48638E-03   -0.38225E-03  4966   0.248E-02    0.359E-01
RMM:   6    -0.232382079184E+04    0.13628E-02   -0.28235E-03  4981   0.226E-02    0.131E-01
RMM:   7    -0.232382072677E+04    0.65073E-04   -0.79422E-04  4066   0.160E-02    0.459E-02
RMM:   8    -0.232382070926E+04    0.17515E-04   -0.94424E-05  3043   0.647E-03    0.271E-02
RMM:   9    -0.232382070179E+04    0.74620E-05   -0.40987E-05  2981   0.448E-03
  15 F= -.23447148E+04 E0= -.23447148E+04  d E =-.866033E-01  mag=     6.0000
       N       E                     dE             d eps       ncg     rms          rms(c)
DAV:   1    -0.232383038114E+04   -0.96719E-02   -0.10587E+00  4592   0.598E-01    0.361E-01
RMM:   2    -0.232385085944E+04   -0.20478E-01   -0.20006E-01  6389   0.146E-01    0.462E-01
RMM:   3    -0.232385099392E+04   -0.13448E-03   -0.23478E-02  5308   0.672E-02    0.212E-01
RMM:   4    -0.232385086848E+04    0.12544E-03   -0.24081E-03  3384   0.144E-02    0.117E-01
RMM:   5    -0.232385082155E+04    0.46933E-04   -0.31028E-04  3038   0.740E-03    0.109E-01
RMM:   6    -0.232385069621E+04    0.12533E-03   -0.30822E-04  3279   0.751E-03    0.473E-02
RMM:   7    -0.232385068636E+04    0.98579E-05   -0.75614E-05  2937   0.569E-03
  16 F= -.23447450E+04 E0= -.23447450E+04  d E =-.302064E-01  mag=     6.0000
       N       E                     dE             d eps       ncg     rms          rms(c)
DAV:   1    -0.232372326794E+04    0.12743E+00   -0.95116E+00  4480   0.180E+00    0.109E+00
RMM:   2    -0.232391152332E+04   -0.18826E+00   -0.18282E+00  6433   0.446E-01    0.145E+00
RMM:   3    -0.232390923910E+04    0.22842E-02   -0.20952E-01  5997   0.196E-01    0.612E-01
RMM:   4    -0.232390873734E+04    0.50176E-03   -0.22083E-02  5179   0.431E-02    0.410E-01
RMM:   5    -0.232390787256E+04    0.86478E-03   -0.29586E-03  4404   0.198E-02    0.298E-01
RMM:   6    -0.232390682764E+04    0.10449E-02   -0.22988E-03  4774   0.192E-02    0.135E-01
RMM:   7    -0.232390676838E+04    0.59261E-04   -0.74830E-04  3885   0.154E-02    0.521E-02
RMM:   8    -0.232390675558E+04    0.12795E-04   -0.11511E-04  3065   0.630E-03    0.297E-02
RMM:   9    -0.232390674647E+04    0.91113E-05   -0.36478E-05  2939   0.428E-03
  17 F= -.23448019E+04 E0= -.23448019E+04  d E =-.870385E-01  mag=     6.0000
       N       E                     dE             d eps       ncg     rms          rms(c)
DAV:   1    -0.232311173154E+04    0.79502E+00   -0.37902E+01  4480   0.360E+00    0.226E+00
RMM:   2    -0.232389489844E+04   -0.78317E+00   -0.75473E+00  6463   0.942E-01    0.307E+00
RMM:   3    -0.232386818907E+04    0.26709E-01   -0.90178E-01  6014   0.403E-01    0.116E+00
RMM:   4    -0.232386999141E+04   -0.18023E-02   -0.97067E-02  5714   0.906E-02    0.102E+00
RMM:   5    -0.232386314973E+04    0.68417E-02   -0.13560E-02  5367   0.415E-02    0.545E-01
RMM:   6    -0.232386008378E+04    0.30660E-02   -0.81122E-03  5003   0.347E-02    0.321E-01
RMM:   7    -0.232385970260E+04    0.38118E-03   -0.50459E-03  4642   0.343E-02    0.194E-01
RMM:   8    -0.232385933549E+04    0.36711E-03   -0.49809E-04  4159   0.120E-02    0.620E-02
RMM:   9    -0.232385931301E+04    0.22486E-04   -0.18050E-04  3352   0.792E-03    0.314E-02
RMM:  10    -0.232385930842E+04    0.45858E-05   -0.79615E-05  3045   0.585E-03
  18 F= -.23447565E+04 E0= -.23447565E+04  d E =-.416271E-01  mag=     6.0000
       N       E                     dE             d eps       ncg     rms          rms(c)
DAV:   1    -0.232353282964E+04    0.32648E+00   -0.19117E+01  4480   0.258E+00    0.152E+00
RMM:   2    -0.232390804031E+04   -0.37521E+00   -0.37495E+00  6465   0.644E-01    0.181E+00
RMM:   3    -0.232392701378E+04   -0.18973E-01   -0.46124E-01  6047   0.287E-01    0.116E+00
RMM:   4    -0.232391829904E+04    0.87147E-02   -0.43386E-02  5500   0.628E-02    0.460E-01
RMM:   5    -0.232391642555E+04    0.18735E-02   -0.65838E-03  5025   0.307E-02    0.394E-01
RMM:   6    -0.232391607418E+04    0.35137E-03   -0.56109E-03  5236   0.303E-02    0.325E-01
RMM:   7    -0.232391526552E+04    0.80866E-03   -0.14569E-03  4490   0.168E-02    0.753E-02
RMM:   8    -0.232391518760E+04    0.77922E-04   -0.34628E-04  3237   0.105E-02    0.422E-02
RMM:   9    -0.232391517946E+04    0.81446E-05   -0.10781E-04  3014   0.583E-03    0.160E-02
RMM:  10    -0.232391517783E+04    0.16291E-05   -0.19161E-05  2894   0.441E-03
  19 F= -.23448108E+04 E0= -.23448108E+04  d E =-.959847E-01  mag=     6.0000
       N       E                     dE             d eps       ncg     rms          rms(c)
DAV:   1    -0.232393016340E+04   -0.14984E-01   -0.12506E+00  4512   0.702E-01    0.401E-01
RMM:   2    -0.232394977983E+04   -0.19616E-01   -0.21304E-01  6298   0.164E-01    0.254E-01
RMM:   3    -0.232395180897E+04   -0.20291E-02   -0.25870E-02  5402   0.776E-02    0.222E-01
RMM:   4    -0.232395163471E+04    0.17426E-03   -0.26064E-03  3663   0.171E-02    0.153E-01
RMM:   5    -0.232395142563E+04    0.20908E-03   -0.55687E-04  3576   0.109E-02    0.732E-02
RMM:   6    -0.232395139703E+04    0.28599E-04   -0.25009E-04  3392   0.848E-03    0.468E-02
RMM:   7    -0.232395138948E+04    0.75526E-05   -0.69771E-05  2920   0.604E-03
  20 F= -.23448469E+04 E0= -.23448469E+04  d E =-.360236E-01  mag=     6.0000
       N       E                     dE             d eps       ncg     rms          rms(c)
DAV:   1    -0.232388029267E+04    0.71104E-01   -0.60508E+00  4480   0.155E+00    0.875E-01
RMM:   2    -0.232397645645E+04   -0.96164E-01   -0.10472E+00  6316   0.368E-01    0.536E-01
RMM:   3    -0.232398670499E+04   -0.10249E-01   -0.13132E-01  5788   0.171E-01    0.431E-01
RMM:   4    -0.232398662467E+04    0.80320E-04   -0.12853E-02  5402   0.367E-02    0.376E-01
RMM:   5    -0.232398544351E+04    0.11812E-02   -0.26197E-03  4699   0.208E-02    0.183E-01
RMM:   6    -0.232398519804E+04    0.24547E-03   -0.15682E-03  4803   0.171E-02    0.667E-02
RMM:   7    -0.232398520131E+04   -0.32694E-05   -0.23229E-04  3086   0.102E-02    0.801E-02
RMM:   8    -0.232398515366E+04    0.47647E-04   -0.10457E-04  2971   0.522E-03    0.345E-02
RMM:   9    -0.232398513846E+04    0.15199E-04   -0.58643E-05  2958   0.392E-03    0.102E-02
RMM:  10    -0.232398513823E+04    0.23285E-06   -0.81938E-06  2869   0.278E-03
  21 F= -.23448803E+04 E0= -.23448803E+04  d E =-.694305E-01  mag=     6.0000
       N       E                     dE             d eps       ncg     rms          rms(c)
DAV:   1    -0.232397186261E+04    0.13276E-01   -0.27525E+00  4464   0.106E+00    0.538E-01
RMM:   2    -0.232402062357E+04   -0.48761E-01   -0.50463E-01  6401   0.263E-01    0.406E-01
RMM:   3    -0.232402529777E+04   -0.46742E-02   -0.54984E-02  5779   0.106E-01    0.419E-01
RMM:   4    -0.232402427169E+04    0.10261E-02   -0.53154E-03  4443   0.247E-02    0.175E-01
RMM:   5    -0.232402399812E+04    0.27357E-03   -0.98867E-04  4270   0.132E-02    0.121E-01
RMM:   6    -0.232402405402E+04   -0.55908E-04   -0.75467E-04  3758   0.117E-02    0.148E-01
RMM:   7    -0.232402387899E+04    0.17504E-03   -0.23341E-04  3151   0.813E-03    0.362E-02
RMM:   8    -0.232402386631E+04    0.12676E-04   -0.41139E-05  2952   0.474E-03    0.146E-02
RMM:   9    -0.232402386318E+04    0.31291E-05   -0.16228E-05  2823   0.282E-03
  22 F= -.23449181E+04 E0= -.23449181E+04  d E =-.378866E-01  mag=     6.0000
       N       E                     dE             d eps       ncg     rms          rms(c)
DAV:   1    -0.232393232854E+04    0.91538E-01   -0.60853E+00  4464   0.158E+00    0.798E-01
RMM:   2    -0.232404027294E+04   -0.10794E+00   -0.11170E+00  6434   0.398E-01    0.614E-01
RMM:   3    -0.232405053809E+04   -0.10265E-01   -0.12472E-01  5971   0.157E-01    0.617E-01
RMM:   4    -0.232404820023E+04    0.23379E-02   -0.11802E-02  5383   0.366E-02    0.256E-01
RMM:   5    -0.232404749182E+04    0.70842E-03   -0.21220E-03  4807   0.189E-02    0.145E-01
RMM:   6    -0.232404745053E+04    0.41288E-04   -0.13622E-03  4839   0.155E-02    0.118E-01
RMM:   7    -0.232404737753E+04    0.72995E-04   -0.33271E-04  3132   0.953E-03    0.847E-02
RMM:   8    -0.232404730967E+04    0.67863E-04   -0.83860E-05  2982   0.526E-03    0.215E-02
RMM:   9    -0.232404730268E+04    0.69912E-05   -0.51506E-05  2917   0.373E-03
  23 F= -.23449403E+04 E0= -.23449403E+04  d E =-.600578E-01  mag=     6.0000
       N       E                     dE             d eps       ncg     rms          rms(c)
DAV:   1    -0.232403426363E+04    0.13046E-01   -0.43408E+00  4480   0.122E+00    0.602E-01
RMM:   2    -0.232408578888E+04   -0.51525E-01   -0.54514E-01  6426   0.298E-01    0.347E-01
RMM:   3    -0.232409084182E+04   -0.50529E-02   -0.62553E-02  5681   0.114E-01    0.321E-01
RMM:   4    -0.232409065964E+04    0.18218E-03   -0.64933E-03  4331   0.252E-02    0.215E-01
RMM:   5    -0.232409026343E+04    0.39620E-03   -0.10963E-03  4145   0.144E-02    0.117E-01
RMM:   6    -0.232409031818E+04   -0.54746E-04   -0.68982E-04  3801   0.122E-02    0.122E-01
RMM:   7    -0.232409020739E+04    0.11078E-03   -0.23023E-04  3040   0.798E-03    0.628E-02
RMM:   8    -0.232409017812E+04    0.29272E-04   -0.47323E-05  2984   0.468E-03    0.157E-02
RMM:   9    -0.232409017740E+04    0.72097E-06   -0.16686E-05  2884   0.290E-03
  24 F= -.23449819E+04 E0= -.23449819E+04  d E =-.415538E-01  mag=     6.0000
       N       E                     dE             d eps       ncg     rms          rms(c)
DAV:   1    -0.232396187562E+04    0.12830E+00   -0.12413E+01  4480   0.207E+00    0.102E+00
RMM:   2    -0.232411030129E+04   -0.14843E+00   -0.15728E+00  6433   0.523E-01    0.596E-01
RMM:   3    -0.232412461629E+04   -0.14315E-01   -0.17892E-01  5845   0.194E-01    0.559E-01
RMM:   4    -0.232412378761E+04    0.82868E-03   -0.17967E-02  5499   0.425E-02    0.352E-01
RMM:   5    -0.232412271018E+04    0.10774E-02   -0.33567E-03  4823   0.243E-02    0.200E-01
RMM:   6    -0.232412271590E+04   -0.57211E-05   -0.19436E-03  4866   0.191E-02    0.169E-01
RMM:   7    -0.232412256634E+04    0.14956E-03   -0.66046E-04  3567   0.118E-02    0.130E-01
RMM:   8    -0.232412242713E+04    0.13921E-03   -0.15368E-04  3131   0.684E-03    0.285E-02
RMM:   9    -0.232412242242E+04    0.47045E-05   -0.65262E-05  2909   0.446E-03
  25 F= -.23450118E+04 E0= -.23450118E+04  d E =-.714488E-01  mag=     6.0000
       N       E                     dE             d eps       ncg     rms          rms(c)
DAV:   1    -0.232408715033E+04    0.35277E-01   -0.47539E+00  4480   0.148E+00    0.734E-01
RMM:   2    -0.232415185645E+04   -0.64706E-01   -0.68660E-01  6123   0.352E-01    0.435E-01
RMM:   3    -0.232415812367E+04   -0.62672E-02   -0.78550E-02  5613   0.142E-01    0.353E-01
RMM:   4    -0.232415782504E+04    0.29863E-03   -0.79697E-03  5186   0.338E-02    0.242E-01
RMM:   5    -0.232415741940E+04    0.40565E-03   -0.17758E-03  4812   0.205E-02    0.153E-01
RMM:   6    -0.232415723837E+04    0.18102E-03   -0.60759E-04  4526   0.137E-02    0.835E-02
RMM:   7    -0.232415722465E+04    0.13725E-04   -0.20725E-04  3285   0.881E-03    0.641E-02
RMM:   8    -0.232415718770E+04    0.36947E-04   -0.54688E-05  2904   0.513E-03    0.237E-02
RMM:   9    -0.232415718200E+04    0.56977E-05   -0.21784E-05  2920   0.309E-03
  26 F= -.23450463E+04 E0= -.23450463E+04  d E =-.345646E-01  mag=     6.0000
       N       E                     dE             d eps       ncg     rms          rms(c)
DAV:   1    -0.232413513786E+04    0.22050E-01   -0.19298E+00  4528   0.945E-01    0.468E-01
RMM:   2    -0.232416163420E+04   -0.26496E-01   -0.28185E-01  6106   0.226E-01    0.273E-01
RMM:   3    -0.232416423202E+04   -0.25978E-02   -0.32317E-02  5544   0.894E-02    0.219E-01
RMM:   4    -0.232416413908E+04    0.92935E-04   -0.32247E-03  4356   0.216E-02    0.156E-01
RMM:   5    -0.232416395663E+04    0.18245E-03   -0.71970E-04  4284   0.137E-02    0.941E-02
RMM:   6    -0.232416388797E+04    0.68667E-04   -0.24013E-04  3741   0.970E-03    0.544E-02
RMM:   7    -0.232416388246E+04    0.55019E-05   -0.88706E-05  2984   0.652E-03
  27 F= -.23450530E+04 E0= -.23450530E+04  d E =-.411861E-01  mag=     6.0000
       N       E                     dE             d eps       ncg     rms          rms(c)
DAV:   1    -0.232414166282E+04    0.22225E-01   -0.25239E+00  4496   0.109E+00    0.566E-01
RMM:   2    -0.232418602915E+04   -0.44366E-01   -0.46780E-01  6209   0.267E-01    0.306E-01
RMM:   3    -0.232419072252E+04   -0.46934E-02   -0.53938E-02  5613   0.110E-01    0.216E-01
RMM:   4    -0.232419085485E+04   -0.13233E-03   -0.50048E-03  4249   0.240E-02    0.172E-01
RMM:   5    -0.232419072898E+04    0.12587E-03   -0.85448E-04  3930   0.135E-02    0.131E-01
RMM:   6    -0.232419058188E+04    0.14710E-03   -0.32961E-04  3975   0.980E-03    0.571E-02
RMM:   7    -0.232419058039E+04    0.14866E-05   -0.89386E-05  2997   0.660E-03
  28 F= -.23450798E+04 E0= -.23450798E+04  d E =-.268879E-01  mag=     6.0000
       N       E                     dE             d eps       ncg     rms          rms(c)
DAV:   1    -0.232391537041E+04    0.27521E+00   -0.14911E+01  4464   0.264E+00    0.138E+00
RMM:   2    -0.232418181014E+04   -0.26644E+00   -0.28101E+00  6215   0.649E-01    0.791E-01
RMM:   3    -0.232421169919E+04   -0.29889E-01   -0.34645E-01  5795   0.275E-01    0.617E-01
RMM:   4    -0.232421117162E+04    0.52758E-03   -0.30387E-02  5692   0.584E-02    0.424E-01
RMM:   5    -0.232421025444E+04    0.91717E-03   -0.50129E-03  5095   0.295E-02    0.315E-01
RMM:   6    -0.232420939723E+04    0.85721E-03   -0.19794E-03  5211   0.209E-02    0.129E-01
RMM:   7    -0.232420936346E+04    0.33769E-04   -0.54224E-04  4029   0.133E-02    0.820E-02
RMM:   8    -0.232420933027E+04    0.33190E-04   -0.18082E-04  3000   0.703E-03    0.579E-02
RMM:   9    -0.232420929149E+04    0.38779E-04   -0.62412E-05  2912   0.493E-03    0.229E-02
RMM:  10    -0.232420928397E+04    0.75211E-05   -0.30714E-05  2904   0.371E-03
  29 F= -.23450992E+04 E0= -.23450992E+04  d E =-.462218E-01  mag=     6.0000
       N       E                     dE             d eps       ncg     rms          rms(c)
DAV:   1    -0.232419810138E+04    0.11190E-01   -0.65762E-01  4576   0.547E-01    0.287E-01
RMM:   2    -0.232420967416E+04   -0.11573E-01   -0.12201E-01  6274   0.133E-01    0.152E-01
RMM:   3    -0.232421092954E+04   -0.12554E-02   -0.14108E-02  4897   0.546E-02    0.113E-01
RMM:   4    -0.232421097101E+04   -0.41475E-04   -0.13319E-03  3092   0.123E-02    0.923E-02
RMM:   5    -0.232421090597E+04    0.65046E-04   -0.20059E-04  3048   0.734E-03    0.515E-02
RMM:   6    -0.232421089203E+04    0.13935E-04   -0.72557E-05  3053   0.591E-03    0.240E-02
RMM:   7    -0.232421089083E+04    0.11971E-05   -0.16943E-05  2885   0.435E-03
  30 F= -.23451006E+04 E0= -.23451006E+04  d E =-.476778E-01  mag=     6.0000
       N       E                     dE             d eps       ncg     rms          rms(c)
DAV:   1    -0.232414983682E+04    0.61055E-01   -0.52291E+00  4496   0.143E+00    0.727E-01
RMM:   2    -0.232423362374E+04   -0.83787E-01   -0.87739E-01  6389   0.353E-01    0.429E-01
RMM:   3    -0.232424264593E+04   -0.90222E-02   -0.99806E-02  5776   0.140E-01    0.363E-01
RMM:   4    -0.232424257176E+04    0.74171E-04   -0.99415E-03  4695   0.310E-02    0.266E-01
RMM:   5    -0.232424206896E+04    0.50280E-03   -0.15237E-03  4191   0.167E-02    0.142E-01
RMM:   6    -0.232424192416E+04    0.14480E-03   -0.71233E-04  4277   0.120E-02    0.689E-02
RMM:   7    -0.232424194622E+04   -0.22065E-04   -0.21872E-04  3000   0.858E-03    0.718E-02
RMM:   8    -0.232424190105E+04    0.45174E-04   -0.61340E-05  2958   0.492E-03    0.213E-02
RMM:   9    -0.232424189451E+04    0.65404E-05   -0.24416E-05  2897   0.335E-03
  31 F= -.23451313E+04 E0= -.23451313E+04  d E =-.306455E-01  mag=     6.0000
       N       E                     dE             d eps       ncg     rms          rms(c)
DAV:   1    -0.232413315928E+04    0.10874E+00   -0.68844E+00  4480   0.165E+00    0.837E-01
RMM:   2    -0.232424353722E+04   -0.11038E+00   -0.11579E+00  6406   0.411E-01    0.499E-01
RMM:   3    -0.232425564519E+04   -0.12108E-01   -0.13390E-01  5821   0.163E-01    0.427E-01
RMM:   4    -0.232425546920E+04    0.17599E-03   -0.13219E-02  5100   0.361E-02    0.310E-01
RMM:   5    -0.232425480375E+04    0.66545E-03   -0.20467E-03  4443   0.191E-02    0.166E-01
RMM:   6    -0.232425464721E+04    0.15654E-03   -0.10538E-03  4542   0.139E-02    0.101E-01
RMM:   7    -0.232425467886E+04   -0.31647E-04   -0.38898E-04  3038   0.999E-03    0.101E-01
RMM:   8    -0.232425458587E+04    0.92995E-04   -0.10235E-04  3021   0.587E-03    0.227E-02
RMM:   9    -0.232425457756E+04    0.83063E-05   -0.38125E-05  2908   0.393E-03
  32 F= -.23451436E+04 E0= -.23451436E+04  d E =-.429435E-01  mag=     6.0000
       N       E                     dE             d eps       ncg     rms          rms(c)
DAV:   1    -0.232418863830E+04    0.65948E-01   -0.52351E+00  4480   0.147E+00    0.767E-01
RMM:   2    -0.232427569691E+04   -0.87059E-01   -0.89155E-01  6435   0.384E-01    0.725E-01
RMM:   3    -0.232428037214E+04   -0.46752E-02   -0.94301E-02  6026   0.140E-01    0.528E-01
RMM:   4    -0.232427858442E+04    0.17877E-02   -0.98068E-03  5190   0.331E-02    0.212E-01
RMM:   5    -0.232427810571E+04    0.47871E-03   -0.14324E-03  4444   0.178E-02    0.113E-01
RMM:   6    -0.232427824288E+04   -0.13716E-03   -0.89168E-04  4120   0.152E-02    0.163E-01
RMM:   7    -0.232427802902E+04    0.21386E-03   -0.27787E-04  3112   0.862E-03    0.314E-02
RMM:   8    -0.232427802047E+04    0.85542E-05   -0.42761E-05  2980   0.426E-03
  33 F= -.23451664E+04 E0= -.23451664E+04  d E =-.228321E-01  mag=     6.0000
       N       E                     dE             d eps       ncg     rms          rms(c)
DAV:   1    -0.232426957320E+04    0.84558E-02   -0.61863E-01  4656   0.503E-01    0.263E-01
RMM:   2    -0.232427948372E+04   -0.99105E-02   -0.10168E-01  6419   0.130E-01    0.239E-01
RMM:   3    -0.232428009313E+04   -0.60941E-03   -0.10712E-02  4842   0.467E-02    0.176E-01
RMM:   4    -0.232427990495E+04    0.18818E-03   -0.11516E-03  3266   0.119E-02    0.721E-02
RMM:   5    -0.232427985046E+04    0.54499E-04   -0.14814E-04  3091   0.660E-03    0.359E-02
RMM:   6    -0.232427985157E+04   -0.11156E-05   -0.73334E-05  2989   0.577E-03
  34 F= -.23451680E+04 E0= -.23451680E+04  d E =-.244546E-01  mag=     6.0000
       N       E                     dE             d eps       ncg     rms          rms(c)
DAV:   1    -0.232420110829E+04    0.78742E-01   -0.45119E+00  4496   0.135E+00    0.811E-01
RMM:   2    -0.232430500473E+04   -0.10390E+00   -0.10320E+00  6485   0.392E-01    0.945E-01
RMM:   3    -0.232430549759E+04   -0.49287E-03   -0.10983E-01  5995   0.145E-01    0.469E-01
RMM:   4    -0.232430459772E+04    0.89987E-03   -0.11907E-02  5026   0.332E-02    0.203E-01
RMM:   5    -0.232430419748E+04    0.40024E-03   -0.96654E-04  4388   0.137E-02    0.130E-01
RMM:   6    -0.232430405518E+04    0.14230E-03   -0.90553E-04  4202   0.169E-02    0.412E-02
RMM:   7    -0.232430404483E+04    0.10349E-04   -0.94656E-05  3090   0.684E-03    0.210E-02
RMM:   8    -0.232430403992E+04    0.49022E-05   -0.18896E-05  2928   0.365E-03
  35 F= -.23451923E+04 E0= -.23451923E+04  d E =-.243082E-01  mag=     6.0000
       N       E                     dE             d eps       ncg     rms          rms(c)
DAV:   1    -0.232400111679E+04    0.30293E+00   -0.13648E+01  4480   0.235E+00    0.141E+00
RMM:   2    -0.232432256672E+04   -0.32145E+00   -0.32071E+00  6527   0.698E-01    0.162E+00
RMM:   3    -0.232432362275E+04   -0.10560E-02   -0.34400E-01  6085   0.251E-01    0.795E-01
RMM:   4    -0.232432113427E+04    0.24885E-02   -0.35851E-02  5558   0.571E-02    0.355E-01
RMM:   5    -0.232431993577E+04    0.11985E-02   -0.29104E-03  4843   0.232E-02    0.237E-01
RMM:   6    -0.232432000606E+04   -0.70284E-04   -0.34106E-03  4952   0.290E-02    0.255E-01
RMM:   7    -0.232431945094E+04    0.55512E-03   -0.83475E-04  4051   0.137E-02    0.713E-02
RMM:   8    -0.232431940830E+04    0.42641E-04   -0.10900E-04  2943   0.640E-03    0.312E-02
RMM:   9    -0.232431939781E+04    0.10487E-04   -0.37486E-05  2966   0.384E-03    0.160E-02
RMM:  10    -0.232431939469E+04    0.31220E-05   -0.12069E-05  2888   0.337E-03
  36 F= -.23452077E+04 E0= -.23452077E+04  d E =-.396957E-01  mag=     6.0000
       N       E                     dE             d eps       ncg     rms          rms(c)
DAV:   1    -0.232425611241E+04    0.63285E-01   -0.33082E+00  4528   0.125E+00    0.698E-01
RMM:   2    -0.232433426198E+04   -0.78150E-01   -0.78970E-01  6364   0.349E-01    0.713E-01
RMM:   3    -0.232433686591E+04   -0.26039E-02   -0.81004E-02  5954   0.131E-01    0.423E-01
RMM:   4    -0.232433596429E+04    0.90162E-03   -0.90632E-03  5026   0.302E-02    0.175E-01
RMM:   5    -0.232433564562E+04    0.31867E-03   -0.63825E-04  4304   0.132E-02    0.110E-01
RMM:   6    -0.232433561934E+04    0.26282E-04   -0.68916E-04  4368   0.150E-02    0.101E-01
RMM:   7    -0.232433553921E+04    0.80125E-04   -0.18054E-04  3097   0.880E-03    0.361E-02
RMM:   8    -0.232433552832E+04    0.10894E-04   -0.22001E-05  2885   0.414E-03    0.128E-02
RMM:   9    -0.232433552584E+04    0.24804E-05   -0.11268E-05  2909   0.256E-03
  37 F= -.23452242E+04 E0= -.23452242E+04  d E =-.164638E-01  mag=     6.0000
       N       E                     dE             d eps       ncg     rms          rms(c)
DAV:   1    -0.232422309421E+04    0.11243E+00   -0.49722E+00  4480   0.153E+00    0.853E-01
RMM:   2    -0.232433980426E+04   -0.11671E+00   -0.11834E+00  6360   0.429E-01    0.841E-01
RMM:   3    -0.232434430510E+04   -0.45008E-02   -0.12248E-01  5980   0.161E-01    0.513E-01
RMM:   4    -0.232434294949E+04    0.13556E-02   -0.13566E-02  5304   0.370E-02    0.215E-01
RMM:   5    -0.232434247522E+04    0.47427E-03   -0.10101E-03  4549   0.162E-02    0.136E-01
RMM:   6    -0.232434254020E+04   -0.64986E-04   -0.10922E-03  4673   0.176E-02    0.164E-01
RMM:   7    -0.232434230371E+04    0.23650E-03   -0.34758E-04  3589   0.108E-02    0.363E-02
RMM:   8    -0.232434229302E+04    0.10687E-04   -0.35718E-05  2927   0.475E-03    0.161E-02
RMM:   9    -0.232434228863E+04    0.43943E-05   -0.15556E-05  2926   0.313E-03
  38 F= -.23452313E+04 E0= -.23452313E+04  d E =-.235440E-01  mag=     6.0000
       N       E                     dE             d eps       ncg     rms          rms(c)
DAV:   1    -0.232429036545E+04    0.51928E-01   -0.30640E+00  4496   0.119E+00    0.626E-01
RMM:   2    -0.232435319574E+04   -0.62830E-01   -0.64660E-01  6228   0.305E-01    0.484E-01
RMM:   3    -0.232435907314E+04   -0.58774E-02   -0.72198E-02  5836   0.124E-01    0.422E-01
RMM:   4    -0.232435791324E+04    0.11599E-02   -0.75376E-03  4947   0.278E-02    0.166E-01
RMM:   5    -0.232435768979E+04    0.22345E-03   -0.68220E-04  4068   0.131E-02    0.128E-01
RMM:   6    -0.232435769220E+04   -0.24105E-05   -0.59909E-04  3895   0.123E-02    0.139E-01
RMM:   7    -0.232435752304E+04    0.16916E-03   -0.27841E-04  3665   0.946E-03    0.251E-02
RMM:   8    -0.232435751939E+04    0.36489E-05   -0.46289E-05  2966   0.589E-03
  39 F= -.23452470E+04 E0= -.23452470E+04  d E =-.157268E-01  mag=     6.0000
       N       E                     dE             d eps       ncg     rms          rms(c)
DAV:   1    -0.232413637269E+04    0.22115E+00   -0.10258E+01  4464   0.219E+00    0.114E+00
RMM:   2    -0.232434773673E+04   -0.21136E+00   -0.21870E+00  6259   0.563E-01    0.824E-01
RMM:   3    -0.232437013460E+04   -0.22398E-01   -0.25154E-01  5918   0.230E-01    0.813E-01
RMM:   4    -0.232436560681E+04    0.45278E-02   -0.25544E-02  5653   0.512E-02    0.315E-01
RMM:   5    -0.232436486564E+04    0.74117E-03   -0.26757E-03  5015   0.235E-02    0.246E-01
RMM:   6    -0.232436479252E+04    0.73124E-04   -0.21070E-03  5021   0.207E-02    0.253E-01
RMM:   7    -0.232436422940E+04    0.56312E-03   -0.10171E-03  4813   0.157E-02    0.567E-02
RMM:   8    -0.232436420691E+04    0.22497E-04   -0.19201E-04  3151   0.894E-03    0.278E-02
RMM:   9    -0.232436419295E+04    0.13959E-04   -0.63196E-05  2957   0.564E-03    0.132E-02
RMM:  10    -0.232436419056E+04    0.23827E-05   -0.14734E-05  2917   0.342E-03
  40 F= -.23452545E+04 E0= -.23452545E+04  d E =-.232303E-01  mag=     6.0000
       N       E                     dE             d eps       ncg     rms          rms(c)
DAV:   1    -0.232433679735E+04    0.27396E-01   -0.14927E+00  4528   0.759E-01    0.438E-01
RMM:   2    -0.232437039272E+04   -0.33595E-01   -0.34382E-01  6460   0.201E-01    0.358E-01
RMM:   3    -0.232437349889E+04   -0.31062E-02   -0.38026E-02  5351   0.815E-02    0.297E-01
RMM:   4    -0.232437297188E+04    0.52701E-03   -0.39699E-03  3586   0.187E-02    0.116E-01
RMM:   5    -0.232437288644E+04    0.85439E-04   -0.30430E-04  3072   0.778E-03    0.955E-02
RMM:   6    -0.232437285965E+04    0.26796E-04   -0.26818E-04  3005   0.758E-03    0.859E-02
RMM:   7    -0.232437279893E+04    0.60720E-04   -0.12317E-04  3047   0.615E-03    0.173E-02
RMM:   8    -0.232437279764E+04    0.12911E-05   -0.19485E-05  2908   0.382E-03
  41 F= -.23452634E+04 E0= -.23452634E+04  d E =-.894314E-02  mag=     6.0000
       N       E                     dE             d eps       ncg     rms          rms(c)
DAV:   1    -0.232405778981E+04    0.31501E+00   -0.13400E+01  4464   0.228E+00    0.130E+00
RMM:   2    -0.232436012357E+04   -0.30233E+00   -0.31264E+00  6511   0.606E-01    0.897E-01
RMM:   3    -0.232439565615E+04   -0.35533E-01   -0.37057E-01  5954   0.254E-01    0.939E-01
RMM:   4    -0.232438985671E+04    0.57994E-02   -0.35951E-02  5435   0.548E-02    0.370E-01
RMM:   5    -0.232438899018E+04    0.86653E-03   -0.31428E-03  4484   0.212E-02    0.299E-01
RMM:   6    -0.232438867829E+04    0.31189E-03   -0.25734E-03  4587   0.199E-02    0.265E-01
RMM:   7    -0.232438809301E+04    0.58528E-03   -0.13621E-03  4727   0.153E-02    0.808E-02
RMM:   8    -0.232438805341E+04    0.39598E-04   -0.29897E-04  3138   0.940E-03    0.349E-02
RMM:   9    -0.232438803546E+04    0.17954E-04   -0.86751E-05  2961   0.581E-03    0.173E-02
RMM:  10    -0.232438803231E+04    0.31465E-05   -0.21239E-05  2917   0.324E-03
  42 F= -.23452796E+04 E0= -.23452796E+04  d E =-.250933E-01  mag=     6.0000
       N       E                     dE             d eps       ncg     rms          rms(c)
DAV:   1    -0.232431115406E+04    0.76881E-01   -0.32442E+00  4496   0.111E+00    0.642E-01
RMM:   2    -0.232438381472E+04   -0.72661E-01   -0.74435E-01  6499   0.291E-01    0.519E-01
RMM:   3    -0.232439119484E+04   -0.73801E-02   -0.85872E-02  5757   0.122E-01    0.464E-01
RMM:   4    -0.232438987882E+04    0.13160E-02   -0.87634E-03  4397   0.276E-02    0.175E-01
RMM:   5    -0.232438970678E+04    0.17205E-03   -0.71826E-04  3329   0.108E-02    0.150E-01
RMM:   6    -0.232438959130E+04    0.11548E-03   -0.57830E-04  3248   0.106E-02    0.117E-01
RMM:   7    -0.232438947965E+04    0.11164E-03   -0.28324E-04  3431   0.849E-03    0.290E-02
RMM:   8    -0.232438947546E+04    0.41928E-05   -0.46041E-05  2942   0.533E-03
  43 F= -.23452814E+04 E0= -.23452814E+04  d E =-.269526E-01  mag=     6.0000
       N       E                     dE             d eps       ncg     rms          rms(c)
DAV:   1    -0.232439034303E+04   -0.86338E-03   -0.70207E-01  4608   0.705E-01    0.316E-01
RMM:   2    -0.232440213486E+04   -0.11792E-01   -0.12040E-01  5969   0.161E-01    0.308E-01
RMM:   3    -0.232440241687E+04   -0.28202E-03   -0.12516E-02  5479   0.619E-02    0.189E-01
RMM:   4    -0.232440215817E+04    0.25870E-03   -0.14152E-03  4397   0.160E-02    0.846E-02
RMM:   5    -0.232440213620E+04    0.21974E-04   -0.29159E-04  3851   0.113E-02    0.935E-02
RMM:   6    -0.232440207384E+04    0.62361E-04   -0.20473E-04  3690   0.889E-03    0.505E-02
RMM:   7    -0.232440205127E+04    0.22570E-04   -0.43267E-05  2936   0.682E-03    0.937E-03
[...]
RMM:   7    -0.232463817560E+04    0.70486E-04   -0.15367E-04  2999   0.783E-03    0.266E-02
RMM:   8    -0.232463816826E+04    0.73410E-05   -0.17825E-05  2881   0.447E-03
 128 F= -.23455693E+04 E0= -.23455693E+04  d E =-.415446E-02  mag=     6.0000
       N       E                     dE             d eps       ncg     rms          rms(c)
DAV:   1    -0.232460755681E+04    0.30619E-01   -0.17619E+00  4496   0.999E-01    0.495E-01
RMM:   2    -0.232464168033E+04   -0.34124E-01   -0.32501E-01  6269   0.239E-01    0.656E-01
RMM:   3    -0.232463989924E+04    0.17811E-02   -0.29240E-02  5749   0.816E-02    0.229E-01
RMM:   4    -0.232463964950E+04    0.24974E-03   -0.35450E-03  4463   0.196E-02    0.120E-01
RMM:   5    -0.232463957538E+04    0.74115E-04   -0.46673E-04  4285   0.126E-02    0.123E-01
RMM:   6    -0.232463951847E+04    0.56912E-04   -0.39608E-04  3578   0.106E-02    0.842E-02
RMM:   7    -0.232463945771E+04    0.60763E-04   -0.13439E-04  2977   0.750E-03    0.249E-02
RMM:   8    -0.232463945121E+04    0.64967E-05   -0.16005E-05  2879   0.439E-03
 129 F= -.23455705E+04 E0= -.23455705E+04  d E =-.539638E-02  mag=     6.0000
       N       E                     dE             d eps       ncg     rms          rms(c)
DAV:   1    -0.232460460868E+04    0.34849E-01   -0.20535E+00  4480   0.106E+00    0.538E-01
RMM:   2    -0.232464639223E+04   -0.41784E-01   -0.39891E-01  6333   0.261E-01    0.718E-01
RMM:   3    -0.232464435576E+04    0.20365E-02   -0.36066E-02  5793   0.895E-02    0.249E-01
RMM:   4    -0.232464404566E+04    0.31009E-03   -0.43003E-03  4549   0.210E-02    0.131E-01
RMM:   5    -0.232464393472E+04    0.11095E-03   -0.53291E-04  4320   0.132E-02    0.127E-01
RMM:   6    -0.232464389455E+04    0.40168E-04   -0.48669E-04  3570   0.115E-02    0.974E-02
RMM:   7    -0.232464381306E+04    0.81491E-04   -0.16052E-04  3022   0.782E-03    0.273E-02
RMM:   8    -0.232464380450E+04    0.85523E-05   -0.19623E-05  2885   0.449E-03
 130 F= -.23455748E+04 E0= -.23455748E+04  d E =-.426591E-02  mag=     6.0000
       N       E                     dE             d eps       ncg     rms          rms(c)
DAV:   1    -0.232456569996E+04    0.78113E-01   -0.42195E+00  4480   0.152E+00    0.769E-01
RMM:   2    -0.232465123931E+04   -0.85539E-01   -0.81782E-01  6322   0.374E-01    0.102E+00
RMM:   3    -0.232464747352E+04    0.37658E-02   -0.75410E-02  5938   0.129E-01    0.363E-01
RMM:   4    -0.232464678985E+04    0.68367E-03   -0.87840E-03  4886   0.301E-02    0.189E-01
RMM:   5    -0.232464658585E+04    0.20400E-03   -0.11503E-03  4889   0.185E-02    0.190E-01
RMM:   6    -0.232464645704E+04    0.12880E-03   -0.96421E-04  4676   0.150E-02    0.133E-01
RMM:   7    -0.232464630442E+04    0.15263E-03   -0.31441E-04  3327   0.985E-03    0.369E-02
RMM:   8    -0.232464628713E+04    0.17285E-04   -0.36278E-05  2889   0.531E-03    0.147E-02
RMM:   9    -0.232464628547E+04    0.16621E-05   -0.23702E-05  2915   0.322E-03
 131 F= -.23455771E+04 E0= -.23455771E+04  d E =-.656862E-02  mag=     6.0000
       N       E                     dE             d eps       ncg     rms          rms(c)
DAV:   1    -0.232459788614E+04    0.48401E-01   -0.26806E+00  4480   0.118E+00    0.617E-01
RMM:   2    -0.232465477303E+04   -0.56887E-01   -0.54096E-01  6362   0.302E-01    0.846E-01
RMM:   3    -0.232465177270E+04    0.30003E-02   -0.48933E-02  5870   0.103E-01    0.284E-01
RMM:   4    -0.232465133424E+04    0.43847E-03   -0.57120E-03  4631   0.236E-02    0.149E-01
RMM:   5    -0.232465116894E+04    0.16529E-03   -0.68141E-04  4443   0.144E-02    0.138E-01
RMM:   6    -0.232465114798E+04    0.20963E-04   -0.63874E-04  3741   0.128E-02    0.117E-01
RMM:   7    -0.232465103234E+04    0.11564E-03   -0.21040E-04  3054   0.837E-03    0.321E-02
RMM:   8    -0.232465102094E+04    0.11406E-04   -0.25346E-05  2886   0.464E-03    0.116E-02
RMM:   9    -0.232465102233E+04   -0.13953E-05   -0.16473E-05  2900   0.260E-03
 132 F= -.23455818E+04 E0= -.23455818E+04  d E =-.470797E-02  mag=     6.0000
       N       E                     dE             d eps       ncg     rms          rms(c)
DAV:   1    -0.232459479136E+04    0.56230E-01   -0.29502E+00  4480   0.124E+00    0.648E-01
RMM:   2    -0.232465745085E+04   -0.62659E-01   -0.59567E-01  6410   0.317E-01    0.889E-01
RMM:   3    -0.232465417510E+04    0.32758E-02   -0.54082E-02  5889   0.108E-01    0.299E-01
RMM:   4    -0.232465368148E+04    0.49362E-03   -0.62845E-03  4690   0.248E-02    0.157E-01
RMM:   5    -0.232465349436E+04    0.18712E-03   -0.74416E-04  4516   0.151E-02    0.143E-01
RMM:   6    -0.232465347722E+04    0.17146E-04   -0.70626E-04  3923   0.134E-02    0.123E-01
RMM:   7    -0.232465334816E+04    0.12906E-03   -0.22927E-04  3075   0.854E-03    0.336E-02
RMM:   8    -0.232465333557E+04    0.12591E-04   -0.27680E-05  2884   0.474E-03    0.122E-02
RMM:   9    -0.232465333708E+04   -0.15172E-05   -0.18286E-05  2907   0.268E-03
 133 F= -.23455840E+04 E0= -.23455840E+04  d E =-.695682E-02  mag=     6.0000
       N       E                     dE             d eps       ncg     rms          rms(c)
DAV:   1    -0.232460807669E+04    0.45259E-01   -0.25399E+00  4496   0.121E+00    0.615E-01
RMM:   2    -0.232466216185E+04   -0.54085E-01   -0.51432E-01  6291   0.307E-01    0.830E-01
RMM:   3    -0.232465923368E+04    0.29282E-02   -0.46588E-02  5839   0.105E-01    0.283E-01
RMM:   4    -0.232465870924E+04    0.52444E-03   -0.54357E-03  4725   0.247E-02    0.145E-01
RMM:   5    -0.232465848572E+04    0.22352E-03   -0.69427E-04  4681   0.161E-02    0.113E-01
RMM:   6    -0.232465846675E+04    0.18976E-04   -0.60615E-04  4253   0.139E-02    0.905E-02
RMM:   7    -0.232465839877E+04    0.67976E-04   -0.12401E-04  3008   0.735E-03    0.314E-02
RMM:   8    -0.232465838788E+04    0.10894E-04   -0.23373E-05  2874   0.402E-03    0.112E-02
RMM:   9    -0.232465838998E+04   -0.20979E-05   -0.17138E-05  2918   0.262E-03
 134 F= -.23455892E+04 E0= -.23455892E+04  d E =-.512695E-02  mag=     6.0000
       N       E                     dE             d eps       ncg     rms          rms(c)
DAV:   1    -0.232463975728E+04    0.18631E-01   -0.99165E-01  4544   0.760E-01    0.386E-01
RMM:   2    -0.232466100055E+04   -0.21243E-01   -0.20139E-01  6286   0.194E-01    0.527E-01
RMM:   3    -0.232465973520E+04    0.12654E-02   -0.17947E-02  5591   0.650E-02    0.175E-01
RMM:   4    -0.232465953749E+04    0.19771E-03   -0.21391E-03  4217   0.157E-02    0.908E-02
RMM:   5    -0.232465945113E+04    0.86357E-04   -0.26933E-04  4043   0.104E-02    0.723E-02
RMM:   6    -0.232465943825E+04    0.12877E-04   -0.24514E-04  3314   0.989E-03    0.554E-02
RMM:   7    -0.232465941393E+04    0.24318E-04   -0.49912E-05  2907   0.573E-03    0.204E-02
RMM:   8    -0.232465940968E+04    0.42487E-05   -0.10528E-05  2864   0.316E-03
 135 F= -.23455902E+04 E0= -.23455902E+04  d E =-.618179E-02  mag=     6.0000
       N       E                     dE             d eps       ncg     rms          rms(c)
DAV:   1    -0.232461465710E+04    0.44757E-01   -0.24007E+00  4480   0.119E+00    0.601E-01
RMM:   2    -0.232466683262E+04   -0.52176E-01   -0.49687E-01  6330   0.300E-01    0.807E-01
RMM:   3    -0.232466431023E+04    0.25224E-02   -0.45106E-02  5849   0.103E-01    0.276E-01
RMM:   4    -0.232466382081E+04    0.48942E-03   -0.52807E-03  4789   0.241E-02    0.144E-01
RMM:   5    -0.232466358552E+04    0.23529E-03   -0.67082E-04  4556   0.153E-02    0.104E-01
RMM:   6    -0.232466352248E+04    0.63046E-04   -0.52811E-04  4164   0.141E-02    0.391E-02
RMM:   7    -0.232466350435E+04    0.18126E-04   -0.45333E-05  2948   0.617E-03    0.150E-02
RMM:   8    -0.232466350496E+04   -0.61313E-06   -0.20086E-05  2888   0.318E-03
 136 F= -.23455942E+04 E0= -.23455942E+04  d E =-.399263E-02  mag=     6.0000
       N       E                     dE             d eps       ncg     rms          rms(c)
DAV:   1    -0.232464906825E+04    0.14436E-01   -0.74425E-01  4544   0.662E-01    0.337E-01
RMM:   2    -0.232466535955E+04   -0.16291E-01   -0.15473E-01  6340   0.168E-01    0.457E-01
RMM:   3    -0.232466447694E+04    0.88261E-03   -0.13801E-02  5351   0.564E-02    0.153E-01
RMM:   4    -0.232466432958E+04    0.14737E-03   -0.16452E-03  3794   0.138E-02    0.808E-02
RMM:   5    -0.232466426150E+04    0.68075E-04   -0.21140E-04  3726   0.908E-03    0.618E-02
RMM:   6    -0.232466425896E+04    0.25444E-05   -0.19906E-04  3157   0.896E-03    0.537E-02
RMM:   7    -0.232466423348E+04    0.25475E-04   -0.42291E-05  2907   0.534E-03    0.175E-02
RMM:   8    -0.232466423035E+04    0.31274E-05   -0.94502E-06  2848   0.299E-03
 137 F= -.23455949E+04 E0= -.23455949E+04  d E =-.465344E-02  mag=     6.0000
       N       E                     dE             d eps       ncg     rms          rms(c)
DAV:   1    -0.232461756763E+04    0.46666E-01   -0.24944E+00  4480   0.121E+00    0.611E-01
RMM:   2    -0.232467175922E+04   -0.54192E-01   -0.51620E-01  6347   0.303E-01    0.817E-01
RMM:   3    -0.232466930319E+04    0.24560E-02   -0.47415E-02  5903   0.106E-01    0.280E-01
RMM:   4    -0.232466880053E+04    0.50266E-03   -0.54970E-03  4826   0.243E-02    0.147E-01
RMM:   5    -0.232466854890E+04    0.25162E-03   -0.65752E-04  4528   0.151E-02    0.103E-01
RMM:   6    -0.232466850202E+04    0.46882E-04   -0.56395E-04  4190   0.144E-02    0.507E-02
RMM:   7    -0.232466848080E+04    0.21222E-04   -0.71762E-05  2965   0.632E-03    0.298E-02
RMM:   8    -0.232466847253E+04    0.82738E-05   -0.22341E-05  2869   0.338E-03
 138 F= -.23455986E+04 E0= -.23455986E+04  d E =-.374787E-02  mag=     6.0000
       N       E                     dE             d eps       ncg     rms          rms(c)
DAV:   1    -0.232466015839E+04    0.83224E-02   -0.44129E-01  4608   0.508E-01    0.258E-01
RMM:   2    -0.232466979772E+04   -0.96393E-02   -0.91584E-02  6300   0.128E-01    0.349E-01
RMM:   3    -0.232466931947E+04    0.47825E-03   -0.82710E-03  5035   0.446E-02    0.118E-01
RMM:   4    -0.232466923201E+04    0.87467E-04   -0.97977E-04  3224   0.107E-02    0.623E-02
RMM:   5    -0.232466918808E+04    0.43924E-04   -0.11862E-04  3224   0.697E-03    0.449E-02
RMM:   6    -0.232466917796E+04    0.10119E-04   -0.10385E-04  2970   0.733E-03    0.176E-02
RMM:   7    -0.232466917562E+04    0.23450E-05   -0.11442E-05  2880   0.398E-03
 139 F= -.23455991E+04 E0= -.23455991E+04  d E =-.423657E-02  mag=     6.0000
       N       E                     dE             d eps       ncg     rms          rms(c)
DAV:   1    -0.232461667935E+04    0.52499E-01   -0.28906E+00  4480   0.132E+00    0.657E-01
RMM:   2    -0.232467787243E+04   -0.61193E-01   -0.58234E-01  6377   0.324E-01    0.869E-01
RMM:   3    -0.232467522789E+04    0.26445E-02   -0.53756E-02  5970   0.114E-01    0.304E-01
RMM:   4    -0.232467463357E+04    0.59433E-03   -0.62712E-03  4882   0.262E-02    0.154E-01
RMM:   5    -0.232467436802E+04    0.26554E-03   -0.74481E-04  4646   0.160E-02    0.116E-01
RMM:   6    -0.232467439457E+04   -0.26552E-04   -0.74559E-04  4454   0.151E-02    0.119E-01
RMM:   7    -0.232467427024E+04    0.12434E-03   -0.16994E-04  3036   0.778E-03    0.312E-02
RMM:   8    -0.232467425925E+04    0.10991E-04   -0.30666E-05  2876   0.449E-03    0.121E-02
RMM:   9    -0.232467426246E+04   -0.32137E-05   -0.20856E-05  2908   0.284E-03
 140 F= -.23456034E+04 E0= -.23456034E+04  d E =-.427513E-02  mag=     6.0000
       N       E                     dE             d eps       ncg     rms          rms(c)
DAV:   1    -0.232466596992E+04    0.82893E-02   -0.45355E-01  4528   0.520E-01    0.260E-01
RMM:   2    -0.232467561054E+04   -0.96406E-02   -0.91439E-02  6345   0.129E-01    0.348E-01
RMM:   3    -0.232467514244E+04    0.46809E-03   -0.82759E-03  5185   0.445E-02    0.119E-01
RMM:   4    -0.232467504775E+04    0.94693E-04   -0.97699E-04  3245   0.108E-02    0.612E-02
RMM:   5    -0.232467500353E+04    0.44221E-04   -0.11239E-04  3228   0.698E-03    0.450E-02
RMM:   6    -0.232467499699E+04    0.65396E-05   -0.10729E-04  2976   0.730E-03    0.279E-02
RMM:   7    -0.232467499187E+04    0.51191E-05   -0.19532E-05  2895   0.430E-03
 141 F= -.23456038E+04 E0= -.23456038E+04  d E =-.467443E-02  mag=     6.0000
       N       E                     dE             d eps       ncg     rms          rms(c)
DAV:   1    -0.232461570147E+04    0.59296E-01   -0.31510E+00  4480   0.138E+00    0.686E-01
RMM:   2    -0.232468369286E+04   -0.67991E-01   -0.64585E-01  6363   0.341E-01    0.913E-01
RMM:   3    -0.232468053951E+04    0.31533E-02   -0.58520E-02  5980   0.119E-01    0.315E-01
RMM:   4    -0.232467992163E+04    0.61788E-03   -0.69110E-03  4909   0.274E-02    0.159E-01
RMM:   5    -0.232467963401E+04    0.28762E-03   -0.75042E-04  4647   0.163E-02    0.119E-01
RMM:   6    -0.232467963376E+04    0.25504E-06   -0.78657E-04  4486   0.160E-02    0.108E-01
RMM:   7    -0.232467953171E+04    0.10205E-03   -0.15488E-04  3027   0.788E-03    0.325E-02
RMM:   8    -0.232467951917E+04    0.12540E-04   -0.28920E-05  2876   0.425E-03    0.129E-02
RMM:   9    -0.232467952005E+04   -0.88078E-06   -0.21936E-05  2916   0.284E-03
 142 F= -.23456073E+04 E0= -.23456073E+04  d E =-.353268E-02  mag=     6.0000
       N       E                     dE             d eps       ncg     rms          rms(c)
DAV:   1    -0.232467449753E+04    0.50216E-02   -0.27350E-01  4608   0.407E-01    0.203E-01
RMM:   2    -0.232468044010E+04   -0.59426E-02   -0.56127E-02  6348   0.101E-01    0.276E-01
RMM:   3    -0.232468010629E+04    0.33381E-03   -0.49466E-03  4574   0.344E-02    0.908E-02
RMM:   4    -0.232468005256E+04    0.53734E-04   -0.59707E-04  3096   0.880E-03    0.469E-02
RMM:   5    -0.232468002733E+04    0.25230E-04   -0.64082E-05  2998   0.550E-03    0.358E-02
RMM:   6    -0.232468002082E+04    0.65099E-05   -0.65452E-05  2925   0.596E-03
 143 F= -.23456075E+04 E0= -.23456075E+04  d E =-.373420E-02  mag=     6.0000
       N       E                     dE             d eps       ncg     rms          rms(c)
DAV:   1    -0.232463679568E+04    0.43232E-01   -0.22160E+00  4480   0.116E+00    0.589E-01
RMM:   2    -0.232468725800E+04   -0.50462E-01   -0.47614E-01  6283   0.291E-01    0.805E-01
RMM:   3    -0.232468436564E+04    0.28924E-02   -0.42174E-02  5830   0.101E-01    0.260E-01
RMM:   4    -0.232468394388E+04    0.42176E-03   -0.51020E-03  4827   0.235E-02    0.131E-01
RMM:   5    -0.232468374441E+04    0.19947E-03   -0.49304E-04  4497   0.140E-02    0.105E-01
RMM:   6    -0.232468371293E+04    0.31478E-04   -0.54556E-04  4171   0.137E-02    0.773E-02
RMM:   7    -0.232468366564E+04    0.47294E-04   -0.10811E-04  2993   0.751E-03    0.301E-02
RMM:   8    -0.232468365551E+04    0.10132E-04   -0.17622E-05  2870   0.370E-03    0.109E-02
RMM:   9    -0.232468365602E+04   -0.51214E-06   -0.15667E-05  2892   0.259E-03
 144 F= -.23456104E+04 E0= -.23456104E+04  d E =-.285199E-02  mag=     6.0000
       N       E                     dE             d eps       ncg     rms          rms(c)
DAV:   1    -0.232467967471E+04    0.39808E-02   -0.20690E-01  4640   0.356E-01    0.180E-01
RMM:   2    -0.232468441566E+04   -0.47409E-02   -0.44545E-02  6317   0.897E-02    0.250E-01
RMM:   3    -0.232468411171E+04    0.30395E-03   -0.38324E-03  4314   0.309E-02    0.780E-02
RMM:   4    -0.232468407214E+04    0.39571E-04   -0.47454E-04  3057   0.804E-03    0.403E-02
RMM:   5    -0.232468405338E+04    0.18760E-04   -0.48952E-05  2972   0.503E-03    0.332E-02
RMM:   6    -0.232468404771E+04    0.56677E-05   -0.54320E-05  2917   0.547E-03
 145 F= -.23456105E+04 E0= -.23456105E+04  d E =-.299959E-02  mag=     6.0000
       N       E                     dE             d eps       ncg     rms          rms(c)
DAV:   1    -0.232464867576E+04    0.35378E-01   -0.17722E+00  4480   0.103E+00    0.532E-01
RMM:   2    -0.232469077620E+04   -0.42100E-01   -0.39432E-01  6376   0.260E-01    0.751E-01
RMM:   3    -0.232468797672E+04    0.27995E-02   -0.34328E-02  5831   0.881E-02    0.226E-01
RMM:   4    -0.232468772069E+04    0.25603E-03   -0.42305E-03  4655   0.206E-02    0.115E-01
RMM:   5    -0.232468758711E+04    0.13358E-03   -0.35565E-04  4167   0.118E-02    0.103E-01
RMM:   6    -0.232468758037E+04    0.67393E-05   -0.46405E-04  3701   0.117E-02    0.910E-02
RMM:   7    -0.232468751119E+04    0.69175E-04   -0.13242E-04  2977   0.756E-03    0.277E-02
RMM:   8    -0.232468750376E+04    0.74346E-05   -0.16003E-05  2874   0.392E-03
 146 F= -.23456134E+04 E0= -.23456134E+04  d E =-.285428E-02  mag=     6.0000
       N       E                     dE             d eps       ncg     rms          rms(c)
DAV:   1    -0.232465793937E+04    0.29572E-01   -0.14155E+00  4480   0.919E-01    0.473E-01
RMM:   2    -0.232469156615E+04   -0.33627E-01   -0.31530E-01  6420   0.234E-01    0.665E-01
RMM:   3    -0.232468938603E+04    0.21801E-02   -0.27207E-02  5813   0.775E-02    0.203E-01
RMM:   4    -0.232468917497E+04    0.21106E-03   -0.34006E-03  4465   0.185E-02    0.103E-01
RMM:   5    -0.232468905615E+04    0.11882E-03   -0.28505E-04  4028   0.108E-02    0.886E-02
RMM:   6    -0.232468902955E+04    0.26600E-04   -0.39038E-04  3632   0.116E-02    0.618E-02
RMM:   7    -0.232468900179E+04    0.27758E-04   -0.73149E-05  2934   0.629E-03    0.260E-02
RMM:   8    -0.232468899569E+04    0.61041E-05   -0.12138E-05  2864   0.322E-03
 147 F= -.23456143E+04 E0= -.23456143E+04  d E =-.378990E-02  mag=     6.0000
       N       E                     dE             d eps       ncg     rms          rms(c)
DAV:   1    -0.232463985018E+04    0.49152E-01   -0.24988E+00  4480   0.126E+00    0.633E-01
RMM:   2    -0.232469744504E+04   -0.57595E-01   -0.53991E-01  6348   0.317E-01    0.879E-01
RMM:   3    -0.232469371899E+04    0.37260E-02   -0.47456E-02  5987   0.106E-01    0.275E-01
RMM:   4    -0.232469327133E+04    0.44767E-03   -0.58204E-03  4837   0.248E-02    0.135E-01
RMM:   5    -0.232469306740E+04    0.20392E-03   -0.51924E-04  4588   0.145E-02    0.118E-01
RMM:   6    -0.232469306024E+04    0.71696E-05   -0.62307E-04  4330   0.135E-02    0.107E-01
RMM:   7    -0.232469296244E+04    0.97796E-04   -0.18735E-04  3112   0.896E-03    0.314E-02
RMM:   8    -0.232469295283E+04    0.96127E-05   -0.21817E-05  2879   0.442E-03
 148 F= -.23456175E+04 E0= -.23456175E+04  d E =-.317365E-02  mag=     6.0000
       N       E                     dE             d eps       ncg     rms          rms(c)
DAV:   1    -0.232468630801E+04    0.66544E-02   -0.33653E-01  4624   0.463E-01    0.234E-01
RMM:   2    -0.232469415331E+04   -0.78453E-02   -0.73328E-02  6367   0.117E-01    0.329E-01
RMM:   3    -0.232469358616E+04    0.56715E-03   -0.62665E-03  4961   0.391E-02    0.101E-01
RMM:   4    -0.232469352441E+04    0.61745E-04   -0.79043E-04  3184   0.974E-03    0.501E-02
RMM:   5    -0.232469349632E+04    0.28091E-04   -0.70620E-05  3028   0.598E-03    0.435E-02
RMM:   6    -0.232469349247E+04    0.38566E-05   -0.92467E-05  2954   0.674E-03
 149 F= -.23456177E+04 E0= -.23456177E+04  d E =-.341879E-02  mag=     6.0000
       N       E                     dE             d eps       ncg     rms          rms(c)
DAV:   1    -0.232464126211E+04    0.52234E-01   -0.26083E+00  4480   0.127E+00    0.646E-01
RMM:   2    -0.232470223440E+04   -0.60972E-01   -0.57120E-01  6333   0.318E-01    0.910E-01
RMM:   3    -0.232469822247E+04    0.40119E-02   -0.50904E-02  5972   0.109E-01    0.277E-01
RMM:   4    -0.232469783234E+04    0.39013E-03   -0.62289E-03  4862   0.248E-02    0.139E-01
RMM:   5    -0.232469766589E+04    0.16645E-03   -0.57405E-04  4432   0.138E-02    0.138E-01
RMM:   6    -0.232469759857E+04    0.67323E-04   -0.52167E-04  4065   0.117E-02    0.104E-01
RMM:   7    -0.232469751007E+04    0.88493E-04   -0.27050E-04  3414   0.999E-03    0.315E-02
RMM:   8    -0.232469750029E+04    0.97811E-05   -0.27108E-05  2892   0.504E-03
 150 F= -.23456207E+04 E0= -.23456207E+04  d E =-.294319E-02  mag=     6.0000
