       N       E                     dE             d eps       ncg     rms          rms(c)
DAV:   1     0.129038339193E+05    0.12904E+05   -0.83534E+05  4488   0.144E+03
DAV:   2    -0.104986446726E+04   -0.13954E+05   -0.13350E+05  5120   0.330E+02
DAV:   3    -0.247468158068E+04   -0.14248E+04   -0.14096E+04  5384   0.112E+02
DAV:   4    -0.252061316003E+04   -0.45932E+02   -0.45673E+02  6768   0.301E+01
DAV:   5    -0.252142065412E+04   -0.80749E+00   -0.80594E+00  6032   0.338E+00    0.170E+02
RMM:   6    -0.149641721848E+04    0.10250E+04   -0.19442E+03  4427   0.387E+01    0.740E+01
RMM:   7    -0.167118248719E+04   -0.17477E+03   -0.30792E+02  5020   0.150E+01    0.615E+01
RMM:   8    -0.170138097206E+04   -0.30198E+02   -0.91806E+01  5190   0.892E+00    0.455E+01
RMM:   9    -0.176459161695E+04   -0.63211E+02   -0.53838E+01  4928   0.707E+00    0.333E+01
RMM:  10    -0.189279097533E+04   -0.12820E+03   -0.57312E+01  5321   0.740E+00    0.317E+01
RMM:  11    -0.196126208827E+04   -0.68471E+02   -0.28963E+01  5485   0.460E+00    0.227E+01
RMM:  12    -0.205243930386E+04   -0.91177E+02   -0.37619E+01  4708   0.491E+00    0.161E+01
RMM:  13    -0.214314184732E+04   -0.90703E+02   -0.47279E+01  4565   0.529E+00    0.118E+01
RMM:  14    -0.225287394141E+04   -0.10973E+03   -0.94761E+01  4628   0.700E+00    0.104E+01
RMM:  15    -0.228631153969E+04   -0.33438E+02   -0.28180E+01  4800   0.420E+00    0.681E+00
RMM:  16    -0.230382807174E+04   -0.17517E+02   -0.16367E+01  4549   0.282E+00    0.437E+00
RMM:  17    -0.230868033808E+04   -0.48523E+01   -0.41132E+00  4678   0.181E+00    0.457E+00
RMM:  18    -0.231014287891E+04   -0.14625E+01   -0.10951E+00  5424   0.671E-01    0.342E+00
RMM:  19    -0.231195110633E+04   -0.18082E+01   -0.65276E-01  4460   0.557E-01    0.180E+00
RMM:  20    -0.231339808806E+04   -0.14470E+01   -0.69731E-01  4557   0.505E-01    0.134E+00
RMM:  21    -0.231366540607E+04   -0.26732E+00   -0.23777E-01  4654   0.350E-01    0.923E-01
RMM:  22    -0.231374655732E+04   -0.81151E-01   -0.71838E-02  5161   0.151E-01    0.628E-01
RMM:  23    -0.231378175223E+04   -0.35195E-01   -0.17492E-02  4904   0.802E-02    0.352E-01
RMM:  24    -0.231382756197E+04   -0.45810E-01   -0.18058E-02  4420   0.816E-02    0.189E-01
RMM:  25    -0.231385844936E+04   -0.30887E-01   -0.86686E-03  4480   0.669E-02    0.156E-01
RMM:  26    -0.231387299691E+04   -0.14548E-01   -0.32521E-03  4673   0.421E-02    0.121E-01
RMM:  27    -0.231388506445E+04   -0.12068E-01   -0.29195E-03  4445   0.362E-02    0.658E-02
RMM:  28    -0.231388986179E+04   -0.47973E-02   -0.10241E-03  4193   0.284E-02    0.427E-02
RMM:  29    -0.231389392958E+04   -0.40678E-02   -0.11163E-03  4263   0.204E-02    0.238E-02
RMM:  30    -0.231389516247E+04   -0.12329E-02   -0.33064E-04  3969   0.181E-02    0.130E-02
RMM:  31    -0.231389565339E+04   -0.49092E-03   -0.15263E-04  3717   0.862E-03    0.829E-03
RMM:  32    -0.231389586091E+04   -0.20751E-03   -0.53163E-05  3480   0.805E-03    0.496E-03
RMM:  33    -0.231389592452E+04   -0.63614E-04   -0.20734E-05  3072   0.378E-03    0.300E-03
RMM:  34    -0.231389595858E+04   -0.34064E-04   -0.81398E-06  2830   0.343E-03    0.205E-03
RMM:  35    -0.231389597043E+04   -0.11842E-04   -0.46774E-06  2513   0.231E-03    0.111E-03
RMM:  36    -0.231389597382E+04   -0.33958E-05   -0.18459E-06  2365   0.177E-03
   1 F= -.23347867E+04 E0= -.23347853E+04  d E =-.233479E+04  mag=     4.0000
       N       E                     dE             d eps       ncg     rms          rms(c)
DAV:   1    -0.231389446216E+04    0.15083E-02   -0.12269E+01  4912   0.250E+00    0.979E-01
RMM:   2    -0.231407603445E+04   -0.18157E+00   -0.16122E+00  6328   0.715E-01    0.262E+00
RMM:   3    -0.231405384851E+04    0.22186E-01   -0.13309E-01  6140   0.191E-01    0.663E-01
RMM:   4    -0.231405300200E+04    0.84651E-03   -0.21656E-02  5819   0.599E-02    0.640E-01
RMM:   5    -0.231405058450E+04    0.24175E-02   -0.44020E-03  5596   0.320E-02    0.359E-01
RMM:   6    -0.231405023069E+04    0.35381E-03   -0.38658E-03  5530   0.297E-02    0.346E-01
RMM:   7    -0.231404912752E+04    0.11032E-02   -0.21631E-03  5205   0.221E-02    0.113E-01
RMM:   8    -0.231404911010E+04    0.17422E-04   -0.22198E-04  3403   0.808E-03    0.649E-02
RMM:   9    -0.231404909110E+04    0.19002E-04   -0.53784E-05  3006   0.551E-03    0.267E-02
RMM:  10    -0.231404908605E+04    0.50485E-05   -0.22395E-05  2947   0.411E-03
   2 F= -.23349389E+04 E0= -.23349384E+04  d E =-.152233E+00  mag=     4.0000
       N       E                     dE             d eps       ncg     rms          rms(c)
DAV:   1    -0.231409420111E+04   -0.45110E-01   -0.21423E+00  4672   0.113E+00    0.529E-01
RMM:   2    -0.231412354482E+04   -0.29344E-01   -0.27905E-01  6145   0.310E-01    0.816E-01
RMM:   3    -0.231412228785E+04    0.12570E-02   -0.28436E-02  5957   0.908E-02    0.537E-01
RMM:   4    -0.231412027004E+04    0.20178E-02   -0.31743E-03  5165   0.234E-02    0.178E-01
RMM:   5    -0.231412015596E+04    0.11408E-03   -0.92955E-04  4971   0.161E-02    0.147E-01
RMM:   6    -0.231411998909E+04    0.16688E-03   -0.81917E-04  4861   0.157E-02    0.882E-02
RMM:   7    -0.231411991970E+04    0.69390E-04   -0.18933E-04  3606   0.882E-03    0.583E-02
RMM:   8    -0.231411989285E+04    0.26850E-04   -0.24300E-05  2972   0.406E-03    0.200E-02
RMM:   9    -0.231411988810E+04    0.47487E-05   -0.11333E-05  2884   0.256E-03
   3 F= -.23350076E+04 E0= -.23350072E+04  d E =-.687195E-01  mag=     4.0000
       N       E                     dE             d eps       ncg     rms          rms(c)
DAV:   1    -0.231416184289E+04   -0.41950E-01   -0.46330E+00  4560   0.154E+00    0.621E-01
RMM:   2    -0.231422020734E+04   -0.58364E-01   -0.54272E-01  6396   0.374E-01    0.113E+00
RMM:   3    -0.231421523885E+04    0.49685E-02   -0.54779E-02  5992   0.114E-01    0.458E-01
RMM:   4    -0.231421471917E+04    0.51969E-03   -0.71413E-03  5173   0.337E-02    0.234E-01
RMM:   5    -0.231421436994E+04    0.34923E-03   -0.12571E-03  4519   0.182E-02    0.177E-01
RMM:   6    -0.231421414921E+04    0.22074E-03   -0.55361E-04  4608   0.128E-02    0.869E-02
RMM:   7    -0.231421408027E+04    0.68934E-04   -0.26017E-04  3692   0.973E-03    0.306E-02
RMM:   8    -0.231421407207E+04    0.81995E-05   -0.31287E-05  2902   0.493E-03
   4 F= -.23350979E+04 E0= -.23350976E+04  d E =-.902438E-01  mag=     4.0000
       N       E                     dE             d eps       ncg     rms          rms(c)
DAV:   1    -0.231413255649E+04    0.81524E-01   -0.21955E+01  4472   0.336E+00    0.128E+00
RMM:   2    -0.231436167480E+04   -0.22912E+00   -0.22170E+00  6308   0.781E-01    0.219E+00
RMM:   3    -0.231435434162E+04    0.73332E-02   -0.23728E-01  6169   0.236E-01    0.946E-01
RMM:   4    -0.231434978375E+04    0.45579E-02   -0.26080E-02  5566   0.573E-02    0.379E-01
RMM:   5    -0.231434920916E+04    0.57459E-03   -0.29430E-03  4769   0.269E-02    0.186E-01
RMM:   6    -0.231434913877E+04    0.70393E-04   -0.12342E-03  4797   0.219E-02    0.943E-02
RMM:   7    -0.231434920186E+04   -0.63095E-04   -0.42334E-04  4156   0.115E-02    0.112E-01
RMM:   8    -0.231434908721E+04    0.11465E-03   -0.17394E-04  3294   0.838E-03    0.315E-02
RMM:   9    -0.231434908492E+04    0.22975E-05   -0.25404E-05  2942   0.411E-03
   5 F= -.23352222E+04 E0= -.23352220E+04  d E =-.124317E+00  mag=     3.9997
       N       E                     dE             d eps       ncg     rms          rms(c)
DAV:   1    -0.231436095862E+04   -0.11871E-01   -0.45705E-01  4728   0.519E-01    0.179E-01
RMM:   2    -0.231436583331E+04   -0.48747E-02   -0.52517E-02  6356   0.126E-01    0.901E-02
RMM:   3    -0.231436613891E+04   -0.30561E-03   -0.42744E-03  4373   0.333E-02    0.618E-02
RMM:   4    -0.231436617358E+04   -0.34671E-04   -0.51455E-04  3172   0.881E-03    0.682E-02
RMM:   5    -0.231436615950E+04    0.14084E-04   -0.12156E-04  3019   0.640E-03    0.560E-02
RMM:   6    -0.231436613242E+04    0.27082E-04   -0.32202E-05  2969   0.457E-03    0.102E-02
RMM:   7    -0.231436613353E+04   -0.11158E-05   -0.81742E-06  2805   0.281E-03
   6 F= -.23352380E+04 E0= -.23352377E+04  d E =-.158080E-01  mag=     3.9997
       N       E                     dE             d eps       ncg     rms          rms(c)
DAV:   1    -0.231437123744E+04   -0.51050E-02   -0.17500E+00  4528   0.101E+00    0.367E-01
RMM:   2    -0.231439532858E+04   -0.24091E-01   -0.25112E-01  6518   0.259E-01    0.222E-01
RMM:   3    -0.231439703940E+04   -0.17108E-02   -0.22010E-02  5562   0.740E-02    0.218E-01
RMM:   4    -0.231439686361E+04    0.17579E-03   -0.25970E-03  3977   0.173E-02    0.138E-01
RMM:   5    -0.231439679744E+04    0.66171E-04   -0.39378E-04  3525   0.105E-02    0.113E-01
RMM:   6    -0.231439669224E+04    0.10520E-03   -0.33804E-04  3562   0.107E-02    0.567E-02
RMM:   7    -0.231439667204E+04    0.20195E-04   -0.80612E-05  3339   0.604E-03    0.288E-02
RMM:   8    -0.231439666620E+04    0.58444E-05   -0.17041E-05  2875   0.380E-03
   7 F= -.23352667E+04 E0= -.23352664E+04  d E =-.287151E-01  mag=     3.9996
       N       E                     dE             d eps       ncg     rms          rms(c)
DAV:   1    -0.231440469814E+04   -0.80261E-02   -0.44877E-01  4544   0.503E-01    0.192E-01
RMM:   2    -0.231441117935E+04   -0.64812E-02   -0.66270E-02  6456   0.133E-01    0.139E-01
RMM:   3    -0.231441156917E+04   -0.38982E-03   -0.56353E-03  4638   0.377E-02    0.131E-01
RMM:   4    -0.231441146732E+04    0.10184E-03   -0.69545E-04  3285   0.986E-03    0.705E-02
RMM:   5    -0.231441145281E+04    0.14512E-04   -0.11564E-04  3075   0.605E-03    0.608E-02
RMM:   6    -0.231441141436E+04    0.38453E-04   -0.86369E-05  3044   0.584E-03    0.241E-02
RMM:   7    -0.231441141386E+04    0.49469E-06   -0.23060E-05  2929   0.370E-03
   8 F= -.23352807E+04 E0= -.23352803E+04  d E =-.140121E-01  mag=     3.9995
       N       E                     dE             d eps       ncg     rms          rms(c)
DAV:   1    -0.231440538758E+04    0.60268E-02   -0.58525E-02  4592   0.174E-01    0.648E-02
RMM:   2    -0.231440611967E+04   -0.73209E-03   -0.74422E-03  6084   0.458E-02    0.451E-02
RMM:   3    -0.231440616505E+04   -0.45377E-04   -0.62966E-04  3205   0.129E-02    0.428E-02
RMM:   4    -0.231440615520E+04    0.98448E-05   -0.79881E-05  2919   0.430E-03
   9 F= -.23352758E+04 E0= -.23352754E+04  d E =0.496096E-02  mag=     3.9995
       N       E                     dE             d eps       ncg     rms          rms(c)
DAV:   1    -0.231439100534E+04    0.15160E-01   -0.59718E-01  4504   0.534E-01    0.197E-01
RMM:   2    -0.231439599581E+04   -0.49905E-02   -0.50972E-02  6384   0.135E-01    0.137E-01
RMM:   3    -0.231439627876E+04   -0.28295E-03   -0.42461E-03  4976   0.357E-02    0.144E-01
RMM:   4    -0.231439609586E+04    0.18290E-03   -0.55745E-04  3520   0.118E-02    0.793E-02
RMM:   5    -0.231439613478E+04   -0.38920E-04   -0.24137E-04  3266   0.815E-03    0.931E-02
RMM:   6    -0.231439604862E+04    0.86160E-04   -0.12039E-04  3327   0.642E-03    0.256E-02
RMM:   7    -0.231439604573E+04    0.28866E-05   -0.11514E-05  2870   0.401E-03
  10 F= -.23352669E+04 E0= -.23352665E+04  d E =0.888216E-02  mag=     3.9995
       N       E                     dE             d eps       ncg     rms          rms(c)
DAV:   1    -0.231436540781E+04    0.30641E-01   -0.23292E+00  4448   0.113E+00    0.457E-01
RMM:   2    -0.231439878307E+04   -0.33375E-01   -0.34821E-01  6438   0.308E-01    0.324E-01
RMM:   3    -0.231440117561E+04   -0.23925E-02   -0.32845E-02  5868   0.918E-02    0.307E-01
RMM:   4    -0.231440028983E+04    0.88579E-03   -0.34470E-03  4535   0.252E-02    0.145E-01
RMM:   5    -0.231440038087E+04   -0.91047E-04   -0.10083E-03  4212   0.140E-02    0.177E-01
RMM:   6    -0.231440009937E+04    0.28150E-03   -0.43703E-04  3925   0.992E-03    0.724E-02
RMM:   7    -0.231440006598E+04    0.33392E-04   -0.62278E-05  3000   0.586E-03    0.186E-02
RMM:   8    -0.231440006641E+04   -0.43170E-06   -0.17831E-05  2900   0.356E-03
  11 F= -.23352728E+04 E0= -.23352725E+04  d E =-.595873E-02  mag=     3.9994
       N       E                     dE             d eps       ncg     rms          rms(c)
DAV:   1    -0.231438769661E+04    0.12369E-01   -0.10590E+00  4512   0.799E-01    0.330E-01
RMM:   2    -0.231440677103E+04   -0.19074E-01   -0.19668E-01  6461   0.219E-01    0.245E-01
RMM:   3    -0.231440812341E+04   -0.13524E-02   -0.18475E-02  5548   0.659E-02    0.233E-01
RMM:   4    -0.231440759871E+04    0.52470E-03   -0.19214E-03  3851   0.182E-02    0.109E-01
RMM:   5    -0.231440763197E+04   -0.33262E-04   -0.47428E-04  3561   0.963E-03    0.125E-01
RMM:   6    -0.231440746434E+04    0.16763E-03   -0.23847E-04  3366   0.773E-03    0.398E-02
RMM:   7    -0.231440745778E+04    0.65571E-05   -0.41182E-05  2962   0.480E-03
  12 F= -.23352814E+04 E0= -.23352811E+04  d E =-.853655E-02  mag=     3.9994
       N       E                     dE             d eps       ncg     rms          rms(c)
DAV:   1    -0.231438906179E+04    0.18403E-01   -0.13230E+00  4496   0.923E-01    0.392E-01
RMM:   2    -0.231441783379E+04   -0.28772E-01   -0.29461E-01  6489   0.246E-01    0.265E-01
RMM:   3    -0.231442002473E+04   -0.21909E-02   -0.28930E-02  5748   0.813E-02    0.247E-01
RMM:   4    -0.231441953461E+04    0.49013E-03   -0.29264E-03  3987   0.213E-02    0.135E-01
RMM:   5    -0.231441946138E+04    0.73230E-04   -0.58649E-04  3877   0.103E-02    0.128E-01
RMM:   6    -0.231441929372E+04    0.16765E-03   -0.33964E-04  3356   0.911E-03    0.551E-02
RMM:   7    -0.231441927076E+04    0.22960E-04   -0.70340E-05  3058   0.573E-03    0.169E-02
RMM:   8    -0.231441927463E+04   -0.38721E-05   -0.12441E-05  2878   0.397E-03
  13 F= -.23352940E+04 E0= -.23352938E+04  d E =-.126148E-01  mag=     3.9996
       N       E                     dE             d eps       ncg     rms          rms(c)
DAV:   1    -0.231435781703E+04    0.61454E-01   -0.34301E+00  4464   0.147E+00    0.637E-01
RMM:   2    -0.231443424226E+04   -0.76425E-01   -0.78212E-01  6404   0.374E-01    0.410E-01
RMM:   3    -0.231443991800E+04   -0.56757E-02   -0.83542E-02  5958   0.134E-01    0.303E-01
RMM:   4    -0.231443949853E+04    0.41948E-03   -0.76819E-03  4906   0.316E-02    0.204E-01
RMM:   5    -0.231443914268E+04    0.35585E-03   -0.13121E-03  4656   0.166E-02    0.174E-01
RMM:   6    -0.231443899867E+04    0.14401E-03   -0.78616E-04  3946   0.126E-02    0.138E-01
RMM:   7    -0.231443882654E+04    0.17213E-03   -0.29530E-04  3860   0.898E-03    0.489E-02
RMM:   8    -0.231443881847E+04    0.80727E-05   -0.67329E-05  3056   0.582E-03
  14 F= -.23353139E+04 E0= -.23353138E+04  d E =-.199293E-01  mag=     3.9999
       N       E                     dE             d eps       ncg     rms          rms(c)
DAV:   1    -0.231437960823E+04    0.59218E-01   -0.35825E+00  4480   0.148E+00    0.638E-01
RMM:   2    -0.231445257636E+04   -0.72968E-01   -0.74434E-01  6363   0.358E-01    0.448E-01
RMM:   3    -0.231445791857E+04   -0.53422E-02   -0.81426E-02  5934   0.132E-01    0.348E-01
RMM:   4    -0.231445723208E+04    0.68649E-03   -0.75145E-03  4916   0.287E-02    0.193E-01
RMM:   5    -0.231445699388E+04    0.23819E-03   -0.12889E-03  4504   0.165E-02    0.194E-01
RMM:   6    -0.231445673493E+04    0.25895E-03   -0.87692E-04  4482   0.145E-02    0.126E-01
RMM:   7    -0.231445660366E+04    0.13127E-03   -0.28481E-04  3764   0.967E-03    0.517E-02
RMM:   8    -0.231445659792E+04    0.57340E-05   -0.69342E-05  3061   0.595E-03
  15 F= -.23353314E+04 E0= -.23353313E+04  d E =-.174651E-01  mag=     3.9999
       N       E                     dE             d eps       ncg     rms          rms(c)
DAV:   1    -0.231444462871E+04    0.11975E-01   -0.11040E+00  4480   0.831E-01    0.355E-01
RMM:   2    -0.231446515398E+04   -0.20525E-01   -0.20746E-01  6302   0.193E-01    0.300E-01
RMM:   3    -0.231446660491E+04   -0.14509E-02   -0.21925E-02  5574   0.703E-02    0.254E-01
RMM:   4    -0.231446610882E+04    0.49609E-03   -0.21126E-03  3917   0.163E-02    0.112E-01
RMM:   5    -0.231446609663E+04    0.12189E-04   -0.46260E-04  3703   0.109E-02    0.122E-01
RMM:   6    -0.231446592225E+04    0.17438E-03   -0.30751E-04  3743   0.983E-03    0.454E-02
RMM:   7    -0.231446591980E+04    0.24515E-05   -0.62173E-05  3077   0.578E-03
  16 F= -.23353405E+04 E0= -.23353405E+04  d E =-.914007E-02  mag=     4.0000
       N       E                     dE             d eps       ncg     rms          rms(c)
DAV:   1    -0.231444993533E+04    0.15987E-01   -0.13382E+00  4480   0.907E-01    0.385E-01
RMM:   2    -0.231447448151E+04   -0.24546E-01   -0.24845E-01  6368   0.214E-01    0.323E-01
RMM:   3    -0.231447626741E+04   -0.17859E-02   -0.25870E-02  5675   0.768E-02    0.283E-01
RMM:   4    -0.231447562870E+04    0.63871E-03   -0.24938E-03  4071   0.180E-02    0.120E-01
RMM:   5    -0.231447560829E+04    0.20403E-04   -0.60167E-04  3957   0.121E-02    0.132E-01
RMM:   6    -0.231447541765E+04    0.19064E-03   -0.36967E-04  3854   0.104E-02    0.528E-02
RMM:   7    -0.231447540682E+04    0.10829E-04   -0.64611E-05  3069   0.592E-03    0.249E-02
RMM:   8    -0.231447540939E+04   -0.25651E-05   -0.14883E-05  2884   0.385E-03
  17 F= -.23353498E+04 E0= -.23353498E+04  d E =-.930210E-02  mag=     4.0000
       N       E                     dE             d eps       ncg     rms          rms(c)
DAV:   1    -0.231445970042E+04    0.15706E-01   -0.15460E+00  4480   0.974E-01    0.405E-01
RMM:   2    -0.231448491376E+04   -0.25213E-01   -0.25217E-01  6296   0.224E-01    0.384E-01
RMM:   3    -0.231448653181E+04   -0.16180E-02   -0.27306E-02  5713   0.779E-02    0.307E-01
RMM:   4    -0.231448570338E+04    0.82843E-03   -0.26014E-03  4329   0.189E-02    0.126E-01
RMM:   5    -0.231448568555E+04    0.17830E-04   -0.66667E-04  4091   0.127E-02    0.137E-01
RMM:   6    -0.231448548498E+04    0.20057E-03   -0.40252E-04  3928   0.107E-02    0.527E-02
RMM:   7    -0.231448547503E+04    0.99484E-05   -0.62291E-05  3055   0.598E-03
  18 F= -.23353596E+04 E0= -.23353596E+04  d E =-.975923E-02  mag=     4.0000
       N       E                     dE             d eps       ncg     rms          rms(c)
DAV:   1    -0.231448723640E+04   -0.17514E-02   -0.20348E-01  4544   0.353E-01    0.136E-01
RMM:   2    -0.231448959493E+04   -0.23585E-02   -0.23051E-02  6296   0.786E-02    0.143E-01
RMM:   3    -0.231448967944E+04   -0.84510E-04   -0.24269E-03  4094   0.260E-02    0.103E-01
RMM:   4    -0.231448957632E+04    0.10311E-03   -0.25264E-04  3084   0.794E-03    0.422E-02
RMM:   5    -0.231448957194E+04    0.43881E-05   -0.72978E-05  3087   0.511E-03
  19 F= -.23353635E+04 E0= -.23353634E+04  d E =-.387618E-02  mag=     4.0000
       N       E                     dE             d eps       ncg     rms          rms(c)
DAV:   1    -0.231449071656E+04   -0.11402E-02   -0.28120E-01  4496   0.403E-01    0.157E-01
RMM:   2    -0.231449417035E+04   -0.34538E-02   -0.34092E-02  6311   0.886E-02    0.160E-01
RMM:   3    -0.231449435923E+04   -0.18889E-03   -0.39553E-03  4256   0.318E-02    0.118E-01
RMM:   4    -0.231449422256E+04    0.13667E-03   -0.37467E-04  3246   0.919E-03    0.518E-02
RMM:   5    -0.231449419867E+04    0.23897E-04   -0.11113E-04  3247   0.599E-03    0.308E-02
RMM:   6    -0.231449420552E+04   -0.68559E-05   -0.46153E-05  2934   0.487E-03
  20 F= -.23353678E+04 E0= -.23353678E+04  d E =-.438341E-02  mag=     4.0000
       N       E                     dE             d eps       ncg     rms          rms(c)
DAV:   1    -0.231449364283E+04    0.55584E-03   -0.15233E-02  4888   0.993E-02    0.468E-02
RMM:   2    -0.231449401481E+04   -0.37198E-03   -0.35921E-03  5467   0.258E-02    0.599E-02
RMM:   3    -0.231449402502E+04   -0.10209E-04   -0.45173E-04  3031   0.111E-02    0.357E-02
RMM:   4    -0.231449401384E+04    0.11180E-04   -0.35627E-05  2862   0.327E-03    0.130E-02
RMM:   5    -0.231449401340E+04    0.44251E-06   -0.86856E-06  2612   0.167E-03
  21 F= -.23353676E+04 E0= -.23353676E+04  d E =0.252411E-03  mag=     4.0000
       N       E                     dE             d eps       ncg     rms          rms(c)
DAV:   1    -0.231449260433E+04    0.14095E-02   -0.40931E-02  4520   0.172E-01    0.686E-02
RMM:   2    -0.231449353888E+04   -0.93455E-03   -0.94572E-03  6162   0.435E-02    0.634E-02
RMM:   3    -0.231449360087E+04   -0.61991E-04   -0.10384E-03  3208   0.159E-02    0.501E-02
RMM:   4    -0.231449358102E+04    0.19850E-04   -0.95066E-05  2927   0.474E-03    0.204E-02
RMM:   5    -0.231449357361E+04    0.74048E-05   -0.17791E-05  2795   0.236E-03
  22 F= -.23353671E+04 E0= -.23353670E+04  d E =0.529650E-03  mag=     4.0000
       N       E                     dE             d eps       ncg     rms          rms(c)
DAV:   1    -0.231449374528E+04   -0.16426E-03   -0.13130E-02  4592   0.968E-02    0.444E-02
RMM:   2    -0.231449406414E+04   -0.31886E-03   -0.28529E-03  5488   0.243E-02    0.720E-02
RMM:   3    -0.231449403611E+04    0.28022E-04   -0.31724E-04  3005   0.909E-03    0.266E-02
RMM:   4    -0.231449402952E+04    0.65945E-05   -0.29540E-05  2739   0.311E-03
  23 F= -.23353675E+04 E0= -.23353675E+04  d E =-.487805E-03  mag=     4.0000
       N       E                     dE             d eps       ncg     rms          rms(c)
DAV:   1    -0.231449439246E+04   -0.35635E-03   -0.25550E-02  4504   0.140E-01    0.504E-02
RMM:   2    -0.231449485930E+04   -0.46684E-03   -0.46206E-03  5894   0.325E-02    0.508E-02
RMM:   3    -0.231449488455E+04   -0.25248E-04   -0.49534E-04  3089   0.120E-02    0.379E-02
RMM:   4    -0.231449487058E+04    0.13973E-04   -0.46601E-05  2882   0.390E-03    0.177E-02
RMM:   5    -0.231449486545E+04    0.51319E-05   -0.13690E-05  2750   0.227E-03
  24 F= -.23353684E+04 E0= -.23353684E+04  d E =-.846627E-03  mag=     4.0000
       N       E                     dE             d eps       ncg     rms          rms(c)
DAV:   1    -0.231449486317E+04    0.74078E-05   -0.43095E-02  4512   0.198E-01    0.652E-02
RMM:   2    -0.231449557707E+04   -0.71390E-03   -0.72085E-03  6150   0.446E-02    0.625E-02
RMM:   3    -0.231449561948E+04   -0.42406E-04   -0.73994E-04  3230   0.147E-02    0.529E-02
RMM:   4    -0.231449559582E+04    0.23653E-04   -0.69131E-05  2911   0.467E-03    0.192E-02
RMM:   5    -0.231449559031E+04    0.55128E-05   -0.17433E-05  2849   0.270E-03
  25 F= -.23353692E+04 E0= -.23353692E+04  d E =-.777848E-03  mag=     4.0000
       N       E                     dE             d eps       ncg     rms          rms(c)
DAV:   1    -0.231449068277E+04    0.49131E-02   -0.85355E-01  4464   0.804E-01    0.274E-01
RMM:   2    -0.231450165504E+04   -0.10972E-01   -0.11022E-01  6234   0.172E-01    0.252E-01
RMM:   3    -0.231450237899E+04   -0.72394E-03   -0.11258E-02  5481   0.554E-02    0.215E-01
RMM:   4    -0.231450195220E+04    0.42679E-03   -0.11229E-03  3809   0.141E-02    0.869E-02
RMM:   5    -0.231450185694E+04    0.95255E-04   -0.32123E-04  3957   0.101E-02    0.428E-02
RMM:   6    -0.231450187991E+04   -0.22968E-04   -0.10478E-04  3263   0.715E-03    0.478E-02
RMM:   7    -0.231450185528E+04    0.24627E-04   -0.41156E-05  2955   0.535E-03    0.209E-02
RMM:   8    -0.231450185201E+04    0.32729E-05   -0.70223E-06  2831   0.267E-03
  26 F= -.23353752E+04 E0= -.23353752E+04  d E =-.607383E-02  mag=     4.0000
       N       E                     dE             d eps       ncg     rms          rms(c)
DAV:   1    -0.231450325219E+04   -0.13969E-02   -0.35169E-02  4496   0.154E-01    0.516E-02
RMM:   2    -0.231450351396E+04   -0.26177E-03   -0.26402E-03  5996   0.307E-02    0.434E-02
RMM:   3    -0.231450353373E+04   -0.19774E-04   -0.26733E-04  3104   0.102E-02    0.422E-02
RMM:   4    -0.231450351568E+04    0.18052E-04   -0.33903E-05  2914   0.398E-03    0.172E-02
RMM:   5    -0.231450351603E+04   -0.35147E-06   -0.12452E-05  2817   0.255E-03
  27 F= -.23353768E+04 E0= -.23353768E+04  d E =-.157863E-02  mag=     4.0000
       N       E                     dE             d eps       ncg     rms          rms(c)
DAV:   1    -0.231450426413E+04   -0.74845E-03   -0.15120E-02  4608   0.104E-01    0.353E-02
RMM:   2    -0.231450442833E+04   -0.16420E-03   -0.16277E-03  5430   0.222E-02    0.356E-02
RMM:   3    -0.231450443603E+04   -0.76912E-05   -0.18593E-04  3001   0.833E-03    0.257E-02
RMM:   4    -0.231450442932E+04    0.67091E-05   -0.18392E-05  2841   0.315E-03
  28 F= -.23353777E+04 E0= -.23353777E+04  d E =-.876487E-03  mag=     4.0000
       N       E                     dE             d eps       ncg     rms          rms(c)
DAV:   1    -0.231450237433E+04    0.20617E-02   -0.36513E-02  4480   0.148E-01    0.471E-02
RMM:   2    -0.231450263373E+04   -0.25940E-03   -0.26180E-03  5956   0.304E-02    0.378E-02
RMM:   3    -0.231450265190E+04   -0.18166E-04   -0.26058E-04  3138   0.990E-03    0.325E-02
RMM:   4    -0.231450264061E+04    0.11290E-04   -0.30769E-05  2935   0.395E-03    0.164E-02
RMM:   5    -0.231450263875E+04    0.18560E-05   -0.11881E-05  2776   0.255E-03
  29 F= -.23353761E+04 E0= -.23353761E+04  d E =0.164381E-02  mag=     4.0000
       N       E                     dE             d eps       ncg     rms          rms(c)
DAV:   1    -0.231449451789E+04    0.81227E-02   -0.37385E-01  4464   0.473E-01    0.145E-01
RMM:   2    -0.231449696920E+04   -0.24513E-02   -0.24771E-02  6162   0.943E-02    0.120E-01
RMM:   3    -0.231449712889E+04   -0.15968E-03   -0.23433E-03  4404   0.294E-02    0.106E-01
RMM:   4    -0.231449702704E+04    0.10184E-03   -0.28468E-04  3312   0.940E-03    0.505E-02
RMM:   5    -0.231449703557E+04   -0.85286E-05   -0.12017E-04  3415   0.646E-03    0.548E-02
RMM:   6    -0.231449701425E+04    0.21321E-04   -0.59733E-05  2894   0.542E-03    0.234E-02
RMM:   7    -0.231449700982E+04    0.44280E-05   -0.60444E-06  2769   0.242E-03
  30 F= -.23353711E+04 E0= -.23353711E+04  d E =0.499015E-02  mag=     4.0000
       N       E                     dE             d eps       ncg     rms          rms(c)
DAV:   1    -0.231449616648E+04    0.84777E-03   -0.30132E-02  4480   0.142E-01    0.554E-02
RMM:   2    -0.231449673684E+04   -0.57037E-03   -0.57872E-03  5949   0.393E-02    0.540E-02
RMM:   3    -0.231449676996E+04   -0.33118E-04   -0.56505E-04  3134   0.120E-02    0.467E-02
RMM:   4    -0.231449675286E+04    0.17099E-04   -0.54307E-05  2886   0.404E-03    0.158E-02
RMM:   5    -0.231449674996E+04    0.29059E-05   -0.12026E-05  2751   0.204E-03
  31 F= -.23353711E+04 E0= -.23353711E+04  d E =0.109013E-04  mag=     4.0000
       N       E                     dE             d eps       ncg     rms          rms(c)
DAV:   1    -0.231449689587E+04   -0.14301E-03   -0.64636E-02  4472   0.220E-01    0.808E-02
RMM:   2    -0.231449793289E+04   -0.10370E-02   -0.10696E-02  6250   0.557E-02    0.621E-02
RMM:   3    -0.231449801942E+04   -0.86522E-04   -0.10851E-03  3371   0.163E-02    0.661E-02
RMM:   4    -0.231449798458E+04    0.34840E-04   -0.10560E-04  2932   0.533E-03    0.243E-02
RMM:   5    -0.231449797805E+04    0.65216E-05   -0.22729E-05  2850   0.293E-03
  32 F= -.23353725E+04 E0= -.23353724E+04  d E =-.139339E-02  mag=     4.0000
       N       E                     dE             d eps       ncg     rms          rms(c)
DAV:   1    -0.231449869811E+04   -0.71354E-03   -0.10414E-01  4464   0.268E-01    0.973E-02
RMM:   2    -0.231450002210E+04   -0.13240E-02   -0.13795E-02  6296   0.668E-02    0.657E-02
RMM:   3    -0.231450014983E+04   -0.12774E-03   -0.13839E-03  3475   0.194E-02    0.714E-02
RMM:   4    -0.231450010233E+04    0.47501E-04   -0.15533E-04  3055   0.674E-03    0.337E-02
RMM:   5    -0.231450010169E+04    0.64296E-06   -0.32140E-05  2882   0.345E-03
  33 F= -.23353748E+04 E0= -.23353747E+04  d E =-.230147E-02  mag=     4.0000
       N       E                     dE             d eps       ncg     rms          rms(c)
DAV:   1    -0.231449904555E+04    0.10568E-02   -0.46131E-01  4448   0.560E-01    0.202E-01
RMM:   2    -0.231450465583E+04   -0.56103E-02   -0.57168E-02  6294   0.133E-01    0.173E-01
RMM:   3    -0.231450506540E+04   -0.40957E-03   -0.60408E-03  4859   0.400E-02    0.152E-01
RMM:   4    -0.231450483121E+04    0.23418E-03   -0.62387E-04  3501   0.116E-02    0.670E-02
RMM:   5    -0.231450484128E+04   -0.10062E-04   -0.16707E-04  3145   0.712E-03    0.708E-02
RMM:   6    -0.231450480466E+04    0.36614E-04   -0.95465E-05  3041   0.620E-03    0.359E-02
RMM:   7    -0.231450479827E+04    0.63906E-05   -0.15198E-05  2882   0.376E-03
  34 F= -.23353796E+04 E0= -.23353796E+04  d E =-.488997E-02  mag=     4.0000
       N       E                     dE             d eps       ncg     rms          rms(c)
DAV:   1    -0.231450552013E+04   -0.71547E-03   -0.23986E-01  4464   0.398E-01    0.141E-01
RMM:   2    -0.231450827316E+04   -0.27530E-02   -0.28279E-02  6378   0.934E-02    0.113E-01
RMM:   3    -0.231450848662E+04   -0.21346E-03   -0.28471E-03  4096   0.290E-02    0.999E-02
RMM:   4    -0.231450839400E+04    0.92624E-04   -0.31895E-04  3256   0.909E-03    0.510E-02
RMM:   5    -0.231450840097E+04   -0.69750E-05   -0.75728E-05  2932   0.484E-03
  35 F= -.23353833E+04 E0= -.23353833E+04  d E =-.368066E-02  mag=     4.0000
       N       E                     dE             d eps       ncg     rms          rms(c)
DAV:   1    -0.231450807836E+04    0.31564E-03   -0.39846E-01  4464   0.511E-01    0.184E-01
RMM:   2    -0.231451279328E+04   -0.47149E-02   -0.48524E-02  6369   0.120E-01    0.148E-01
RMM:   3    -0.231451315998E+04   -0.36670E-03   -0.49657E-03  4579   0.375E-02    0.131E-01
RMM:   4    -0.231451299617E+04    0.16380E-03   -0.53846E-04  3472   0.112E-02    0.614E-02
RMM:   5    -0.231451300471E+04   -0.85395E-05   -0.12982E-04  3000   0.690E-03    0.604E-02
RMM:   6    -0.231451298897E+04    0.15741E-04   -0.69842E-05  2956   0.530E-03    0.418E-02
RMM:   7    -0.231451297963E+04    0.93457E-05   -0.17131E-05  2856   0.368E-03
  36 F= -.23353880E+04 E0= -.23353880E+04  d E =-.466623E-02  mag=     4.0000
       N       E                     dE             d eps       ncg     rms          rms(c)
DAV:   1    -0.231451357656E+04   -0.58759E-03   -0.22264E-01  4464   0.379E-01    0.136E-01
RMM:   2    -0.231451628167E+04   -0.27051E-02   -0.27838E-02  6386   0.901E-02    0.110E-01
RMM:   3    -0.231451649796E+04   -0.21629E-03   -0.28062E-03  4020   0.285E-02    0.981E-02
RMM:   4    -0.231451641102E+04    0.86931E-04   -0.31515E-04  3221   0.887E-03    0.507E-02
RMM:   5    -0.231451641743E+04   -0.64095E-05   -0.72594E-05  2928   0.461E-03
  37 F= -.23353915E+04 E0= -.23353915E+04  d E =-.350192E-02  mag=     4.0000
       N       E                     dE             d eps       ncg     rms          rms(c)
DAV:   1    -0.231451418113E+04    0.22299E-02   -0.58615E-01  4464   0.616E-01    0.223E-01
RMM:   2    -0.231452152351E+04   -0.73424E-02   -0.75981E-02  6392   0.146E-01    0.178E-01
RMM:   3    -0.231452211661E+04   -0.59310E-03   -0.77492E-03  5035   0.467E-02    0.158E-01
RMM:   4    -0.231452189089E+04    0.22571E-03   -0.84725E-04  3630   0.131E-02    0.758E-02
RMM:   5    -0.231452190237E+04   -0.11475E-04   -0.17911E-04  3068   0.793E-03    0.751E-02
RMM:   6    -0.231452188024E+04    0.22128E-04   -0.10895E-04  3024   0.617E-03    0.521E-02
RMM:   7    -0.231452186660E+04    0.13646E-04   -0.31482E-05  2888   0.457E-03    0.195E-02
RMM:   8    -0.231452186711E+04   -0.51595E-06   -0.10209E-05  2843   0.287E-03
  38 F= -.23353971E+04 E0= -.23353971E+04  d E =-.556286E-02  mag=     4.0000
       N       E                     dE             d eps       ncg     rms          rms(c)
DAV:   1    -0.231452280095E+04   -0.93436E-03   -0.10424E-01  4472   0.256E-01    0.937E-02
RMM:   2    -0.231452414416E+04   -0.13432E-02   -0.13919E-02  6255   0.610E-02    0.739E-02
RMM:   3    -0.231452425268E+04   -0.10852E-03   -0.14038E-03  3414   0.196E-02    0.650E-02
RMM:   4    -0.231452421596E+04    0.36719E-04   -0.15889E-04  3077   0.655E-03    0.349E-02
RMM:   5    -0.231452421769E+04   -0.17296E-05   -0.31504E-05  2816   0.324E-03
  39 F= -.23353994E+04 E0= -.23353994E+04  d E =-.239212E-02  mag=     4.0000
       N       E                     dE             d eps       ncg     rms          rms(c)
DAV:   1    -0.231452456349E+04   -0.34753E-03   -0.29144E-03  4544   0.435E-02    0.247E-02
RMM:   2    -0.231452461215E+04   -0.48656E-04   -0.43112E-04  3918   0.108E-02    0.338E-02
RMM:   3    -0.231452460703E+04    0.51170E-05   -0.44337E-05  2839   0.494E-03
  40 F= -.23353998E+04 E0= -.23353998E+04  d E =-.396624E-03  mag=     4.0000
       N       E                     dE             d eps       ncg     rms          rms(c)
DAV:   1    -0.231452508206E+04   -0.46991E-03   -0.65035E-03  4528   0.611E-02    0.300E-02
RMM:   2    -0.231452519245E+04   -0.11040E-03   -0.10803E-03  4731   0.164E-02    0.325E-02
RMM:   3    -0.231452519411E+04   -0.16613E-05   -0.12070E-04  2915   0.690E-03    0.210E-02
RMM:   4    -0.231452519312E+04    0.99075E-06   -0.15299E-05  2730   0.250E-03
  41 F= -.23354004E+04 E0= -.23354004E+04  d E =-.602491E-03  mag=     4.0000
       N       E                     dE             d eps       ncg     rms          rms(c)
DAV:   1    -0.231452603371E+04   -0.83959E-03   -0.47815E-02  4480   0.166E-01    0.686E-02
RMM:   2    -0.231452676491E+04   -0.73120E-03   -0.76461E-03  6001   0.409E-02    0.504E-02
RMM:   3    -0.231452684184E+04   -0.76925E-04   -0.81785E-04  3147   0.149E-02    0.495E-02
RMM:   4    -0.231452682701E+04    0.14825E-04   -0.92605E-05  2966   0.501E-03    0.319E-02
RMM:   5    -0.231452682713E+04   -0.12123E-06   -0.17854E-05  2708   0.228E-03
  42 F= -.23354021E+04 E0= -.23354021E+04  d E =-.164022E-02  mag=     4.0000
       N       E                     dE             d eps       ncg     rms          rms(c)
DAV:   1    -0.231452745881E+04   -0.63180E-03   -0.23425E-02  4480   0.120E-01    0.532E-02
RMM:   2    -0.231452790200E+04   -0.44318E-03   -0.44783E-03  5787   0.300E-02    0.625E-02
RMM:   3    -0.231452791792E+04   -0.15925E-04   -0.49982E-04  3030   0.112E-02    0.382E-02
RMM:   4    -0.231452791351E+04    0.44116E-05   -0.52511E-05  2891   0.375E-03
  43 F= -.23354032E+04 E0= -.23354032E+04  d E =-.107998E-02  mag=     4.0000
       N       E                     dE             d eps       ncg     rms          rms(c)
DAV:   1    -0.231452843102E+04   -0.51310E-03   -0.10668E-02  4496   0.805E-02    0.429E-02
RMM:   2    -0.231452866860E+04   -0.23757E-03   -0.20885E-03  5161   0.196E-02    0.675E-02
RMM:   3    -0.231452864423E+04    0.24372E-04   -0.24504E-04  2993   0.884E-03    0.292E-02
RMM:   4    -0.231452864302E+04    0.12102E-05   -0.26668E-05  2845   0.284E-03
  44 F= -.23354039E+04 E0= -.23354039E+04  d E =-.723012E-03  mag=     4.0000
       N       E                     dE             d eps       ncg     rms          rms(c)
DAV:   1    -0.231452849054E+04    0.15368E-03   -0.56992E-04  4624   0.193E-02    0.170E-02
RMM:   2    -0.231452850636E+04   -0.15812E-04   -0.12363E-04  3111   0.511E-03    0.224E-02
RMM:   3    -0.231452850211E+04    0.42493E-05   -0.17009E-05  2441   0.346E-03
  45 F= -.23354038E+04 E0= -.23354037E+04  d E =0.135860E-03  mag=     4.0000
       N       E                     dE             d eps       ncg     rms          rms(c)
DAV:   1    -0.231450487485E+04    0.23632E-01   -0.23576E+00  4464   0.114E+00    0.455E-01
RMM:   2    -0.231453802333E+04   -0.33148E-01   -0.34665E-01  6464   0.283E-01    0.366E-01
RMM:   3    -0.231454085711E+04   -0.28338E-02   -0.36750E-02  5838   0.956E-02    0.308E-01
RMM:   4    -0.231454017319E+04    0.68392E-03   -0.39467E-03  4667   0.242E-02    0.154E-01
RMM:   5    -0.231454010035E+04    0.72837E-04   -0.54007E-04  3705   0.122E-02    0.122E-01
RMM:   6    -0.231454018566E+04   -0.85305E-04   -0.52400E-04  3573   0.105E-02    0.136E-01
RMM:   7    -0.231454003893E+04    0.14673E-03   -0.20083E-04  3138   0.882E-03    0.468E-02
RMM:   8    -0.231454003331E+04    0.56144E-05   -0.41686E-05  2907   0.501E-03
  46 F= -.23354153E+04 E0= -.23354153E+04  d E =-.115859E-01  mag=     4.0000
       N       E                     dE             d eps       ncg     rms          rms(c)
DAV:   1    -0.231453875980E+04    0.12791E-02   -0.17836E-01  4472   0.405E-01    0.130E-01
RMM:   2    -0.231454193659E+04   -0.31768E-02   -0.32438E-02  6167   0.851E-02    0.157E-01
RMM:   3    -0.231454205610E+04   -0.11951E-03   -0.35395E-03  4374   0.333E-02    0.933E-02
RMM:   4    -0.231454201689E+04    0.39209E-04   -0.37105E-04  3059   0.810E-03    0.479E-02
RMM:   5    -0.231454201640E+04    0.48832E-06   -0.49612E-05  2988   0.496E-03
  47 F= -.23354172E+04 E0= -.23354172E+04  d E =-.181934E-02  mag=     4.0000
       N       E                     dE             d eps       ncg     rms          rms(c)
DAV:   1    -0.231454249080E+04   -0.47391E-03   -0.18743E-01  4464   0.322E-01    0.133E-01
RMM:   2    -0.231454522735E+04   -0.27365E-02   -0.27941E-02  6380   0.788E-02    0.126E-01
RMM:   3    -0.231454541403E+04   -0.18669E-03   -0.29914E-03  3806   0.280E-02    0.990E-02
RMM:   4    -0.231454534622E+04    0.67814E-04   -0.32942E-04  3163   0.862E-03    0.584E-02
RMM:   5    -0.231454536462E+04   -0.18403E-04   -0.83342E-05  2935   0.455E-03    0.691E-02
RMM:   6    -0.231454533557E+04    0.29049E-04   -0.65079E-05  2923   0.453E-03    0.278E-02
RMM:   7    -0.231454533822E+04   -0.26409E-05   -0.22566E-05  2845   0.322E-03
  48 F= -.23354205E+04 E0= -.23354205E+04  d E =-.331158E-02  mag=     4.0000
       N       E                     dE             d eps       ncg     rms          rms(c)
DAV:   1    -0.231454615680E+04   -0.82123E-03   -0.28445E-02  4544   0.126E-01    0.508E-02
RMM:   2    -0.231454659619E+04   -0.43939E-03   -0.46124E-03  5695   0.317E-02    0.403E-02
RMM:   3    -0.231454663767E+04   -0.41477E-04   -0.49322E-04  3053   0.116E-02    0.353E-02
RMM:   4    -0.231454662951E+04    0.81664E-05   -0.55665E-05  2927   0.412E-03
  49 F= -.23354217E+04 E0= -.23354217E+04  d E =-.127597E-02  mag=     4.0000
       N       E                     dE             d eps       ncg     rms          rms(c)
DAV:   1    -0.231454742178E+04   -0.78411E-03   -0.26187E-02  4528   0.124E-01    0.517E-02
RMM:   2    -0.231454784958E+04   -0.42779E-03   -0.44309E-03  5728   0.290E-02    0.473E-02
RMM:   3    -0.231454789384E+04   -0.44267E-04   -0.49304E-04  3016   0.116E-02    0.469E-02
RMM:   4    -0.231454787881E+04    0.15029E-04   -0.54661E-05  2881   0.389E-03    0.239E-02
RMM:   5    -0.231454788192E+04   -0.31034E-05   -0.15706E-05  2754   0.216E-03
  50 F= -.23354229E+04 E0= -.23354229E+04  d E =-.120253E-02  mag=     4.0000
       N       E                     dE             d eps       ncg     rms          rms(c)
DAV:   1    -0.231454863365E+04   -0.75484E-03   -0.26707E-02  4480   0.126E-01    0.511E-02
RMM:   2    -0.231454909329E+04   -0.45964E-03   -0.48455E-03  5693   0.296E-02    0.467E-02
RMM:   3    -0.231454913705E+04   -0.43762E-04   -0.54840E-04  3030   0.117E-02    0.406E-02
RMM:   4    -0.231454912819E+04    0.88666E-05   -0.59941E-05  2897   0.409E-03
  51 F= -.23354241E+04 E0= -.23354241E+04  d E =-.117941E-02  mag=     4.0000
       N       E                     dE             d eps       ncg     rms          rms(c)
DAV:   1    -0.231454931990E+04   -0.18285E-03   -0.65811E-04  4632   0.204E-02    0.167E-02
RMM:   2    -0.231454933296E+04   -0.13066E-04   -0.12282E-04  3107   0.517E-03    0.158E-02
RMM:   3    -0.231454933436E+04   -0.13931E-05   -0.17668E-05  2500   0.354E-03
  52 F= -.23354243E+04 E0= -.23354243E+04  d E =-.192911E-03  mag=     4.0000
       N       E                     dE             d eps       ncg     rms          rms(c)
DAV:   1    -0.231454963329E+04   -0.30032E-03   -0.24021E-03  4272   0.381E-02    0.179E-02
RMM:   2    -0.231454968126E+04   -0.47972E-04   -0.50885E-04  3925   0.961E-03    0.131E-02
RMM:   3    -0.231454968667E+04   -0.54093E-05   -0.58881E-05  2500   0.488E-03
  53 F= -.23354246E+04 E0= -.23354246E+04  d E =-.326630E-03  mag=     4.0000
       N       E                     dE             d eps       ncg     rms          rms(c)
DAV:   1    -0.231446197943E+04    0.87702E-01   -0.41670E+00  4464   0.152E+00    0.615E-01
RMM:   2    -0.231452909643E+04   -0.67117E-01   -0.70874E-01  6494   0.379E-01    0.476E-01
RMM:   3    -0.231453594891E+04   -0.68525E-02   -0.78576E-02  6032   0.136E-01    0.458E-01
RMM:   4    -0.231453447386E+04    0.14751E-02   -0.83920E-03  5354   0.347E-02    0.210E-01
RMM:   5    -0.231453426080E+04    0.21306E-03   -0.10058E-03  4510   0.155E-02    0.155E-01
RMM:   6    -0.231453447296E+04   -0.21216E-03   -0.96770E-04  4108   0.151E-02    0.191E-01
RMM:   7    -0.231453421442E+04    0.25853E-03   -0.38622E-04  3642   0.100E-02    0.757E-02
RMM:   8    -0.231453420247E+04    0.11950E-04   -0.10194E-04  3140   0.607E-03    0.544E-02
RMM:   9    -0.231453420362E+04   -0.11488E-05   -0.99145E-05  3007   0.591E-03
  54 F= -.23354093E+04 E0= -.23354093E+04  d E =0.153786E-01  mag=     4.0000
       N       E                     dE             d eps       ncg     rms          rms(c)
DAV:   1    -0.231453498317E+04   -0.78070E-03   -0.35769E-02  4488   0.158E-01    0.598E-02
RMM:   2    -0.231453553729E+04   -0.55412E-03   -0.59963E-03  6149   0.384E-02    0.397E-02
RMM:   3    -0.231453559654E+04   -0.59254E-04   -0.63451E-04  3092   0.137E-02    0.427E-02
RMM:   4    -0.231453558218E+04    0.14359E-04   -0.73267E-05  2960   0.492E-03    0.189E-02
RMM:   5    -0.231453557918E+04    0.30051E-05   -0.98768E-06  2839   0.240E-03
  55 F= -.23354107E+04 E0= -.23354107E+04  d E =-.138635E-02  mag=     4.0000
       N       E                     dE             d eps       ncg     rms          rms(c)
DAV:   1    -0.231452011410E+04    0.15468E-01   -0.53880E-01  4464   0.562E-01    0.221E-01
RMM:   2    -0.231452957840E+04   -0.94643E-02   -0.10037E-01  6412   0.135E-01    0.177E-01
RMM:   3    -0.231453048971E+04   -0.91131E-03   -0.10600E-02  5137   0.509E-02    0.161E-01
RMM:   4    -0.231453033363E+04    0.15608E-03   -0.11813E-03  3458   0.128E-02    0.795E-02
RMM:   5    -0.231453029507E+04    0.38560E-04   -0.13081E-04  3180   0.653E-03    0.540E-02
RMM:   6    -0.231453032161E+04   -0.26538E-04   -0.11650E-04  3054   0.642E-03    0.612E-02
RMM:   7    -0.231453030241E+04    0.19203E-04   -0.47453E-05  2921   0.495E-03    0.339E-02
RMM:   8    -0.231453030218E+04    0.22269E-06   -0.19261E-05  2844   0.290E-03
  56 F= -.23354057E+04 E0= -.23354057E+04  d E =0.493986E-02  mag=     4.0000
       N       E                     dE             d eps       ncg     rms          rms(c)
DAV:   1    -0.231452592609E+04    0.43763E-02   -0.75899E-01  4464   0.666E-01    0.254E-01
RMM:   2    -0.231453594378E+04   -0.10018E-01   -0.10562E-01  6450   0.161E-01    0.174E-01
RMM:   3    -0.231453697788E+04   -0.10341E-02   -0.11093E-02  5138   0.536E-02    0.173E-01
RMM:   4    -0.231453673849E+04    0.23939E-03   -0.12296E-03  3686   0.147E-02    0.925E-02
RMM:   5    -0.231453673598E+04    0.25097E-05   -0.20715E-04  3081   0.771E-03    0.923E-02
RMM:   6    -0.231453668607E+04    0.49919E-04   -0.14889E-04  3034   0.672E-03    0.494E-02
RMM:   7    -0.231453667629E+04    0.97776E-05   -0.44607E-05  2949   0.492E-03
  57 F= -.23354122E+04 E0= -.23354122E+04  d E =-.652822E-02  mag=     4.0000
       N       E                     dE             d eps       ncg     rms          rms(c)
DAV:   1    -0.231453732673E+04   -0.64066E-03   -0.12557E-01  4464   0.300E-01    0.102E-01
RMM:   2    -0.231453878123E+04   -0.14545E-02   -0.15064E-02  6315   0.700E-02    0.748E-02
RMM:   3    -0.231453892056E+04   -0.13932E-03   -0.14798E-03  3561   0.216E-02    0.828E-02
RMM:   4    -0.231453885676E+04    0.63797E-04   -0.17576E-04  3058   0.744E-03    0.357E-02
RMM:   5    -0.231453886068E+04   -0.39173E-05   -0.40186E-05  2933   0.362E-03
  58 F= -.23354146E+04 E0= -.23354146E+04  d E =-.239322E-02  mag=     4.0000
       N       E                     dE             d eps       ncg     rms          rms(c)
DAV:   1    -0.231453891016E+04   -0.53404E-04   -0.24587E-01  4464   0.400E-01    0.146E-01
RMM:   2    -0.231454205045E+04   -0.31403E-02   -0.32592E-02  6335   0.958E-02    0.112E-01
RMM:   3    -0.231454232095E+04   -0.27050E-03   -0.33107E-03  4046   0.308E-02    0.107E-01
RMM:   4    -0.231454221557E+04    0.10538E-03   -0.36783E-04  3274   0.958E-03    0.491E-02
RMM:   5    -0.231454222612E+04   -0.10545E-04   -0.81945E-05  2930   0.525E-03    0.544E-02
RMM:   6    -0.231454220799E+04    0.18121E-04   -0.45968E-05  2901   0.430E-03    0.292E-02
RMM:   7    -0.231454220487E+04    0.31200E-05   -0.12607E-05  2842   0.308E-03
  59 F= -.23354182E+04 E0= -.23354182E+04  d E =-.356645E-02  mag=     4.0000
       N       E                     dE             d eps       ncg     rms          rms(c)
DAV:   1    -0.231454136752E+04    0.84048E-03   -0.11343E-02  4440   0.873E-02    0.315E-02
RMM:   2    -0.231454150930E+04   -0.14178E-03   -0.14803E-03  5224   0.208E-02    0.219E-02
RMM:   3    -0.231454152124E+04   -0.11940E-04   -0.14844E-04  2898   0.744E-03    0.213E-02
RMM:   4    -0.231454151728E+04    0.39539E-05   -0.16389E-05  2776   0.277E-03
  60 F= -.23354175E+04 E0= -.23354175E+04  d E =0.748359E-03  mag=     4.0000
       N       E                     dE             d eps       ncg     rms          rms(c)
DAV:   1    -0.231451994082E+04    0.21580E-01   -0.95122E-01  4464   0.774E-01    0.285E-01
RMM:   2    -0.231453360269E+04   -0.13662E-01   -0.14364E-01  6431   0.185E-01    0.210E-01
RMM:   3    -0.231453491186E+04   -0.13092E-02   -0.15103E-02  5405   0.629E-02    0.195E-01
RMM:   4    -0.231453462314E+04    0.28872E-03   -0.16552E-03  3888   0.167E-02    0.990E-02
RMM:   5    -0.231453459379E+04    0.29344E-04   -0.23597E-04  3190   0.879E-03    0.801E-02
RMM:   6    -0.231453460905E+04   -0.15256E-04   -0.18077E-04  3146   0.731E-03    0.816E-02
RMM:   7    -0.231453456478E+04    0.44273E-04   -0.82980E-05  2992   0.633E-03    0.334E-02
RMM:   8    -0.231453456432E+04    0.46223E-06   -0.21238E-05  2902   0.382E-03
  61 F= -.23354103E+04 E0= -.23354103E+04  d E =0.711276E-02  mag=     4.0000
       N       E                     dE             d eps       ncg     rms          rms(c)
DAV:   1    -0.231448658318E+04    0.47982E-01   -0.28336E+00  4464   0.138E+00    0.481E-01
RMM:   2    -0.231452140884E+04   -0.34826E-01   -0.36291E-01  6344   0.326E-01    0.345E-01
RMM:   3    -0.231452455068E+04   -0.31418E-02   -0.36644E-02  5865   0.102E-01    0.336E-01
RMM:   4    -0.231452355904E+04    0.99164E-03   -0.41261E-03  5164   0.280E-02    0.166E-01
RMM:   5    -0.231452356737E+04   -0.83291E-05   -0.75328E-04  3818   0.128E-02    0.162E-01
RMM:   6    -0.231452342450E+04    0.14287E-03   -0.46693E-04  3625   0.119E-02    0.986E-02
RMM:   7    -0.231452337648E+04    0.48017E-04   -0.16517E-04  3395   0.856E-03    0.420E-02
RMM:   8    -0.231452337260E+04    0.38876E-05   -0.38487E-05  2979   0.515E-03
  62 F= -.23353983E+04 E0= -.23353983E+04  d E =0.120139E-01  mag=     4.0000
       N       E                     dE             d eps       ncg     rms          rms(c)
DAV:   1    -0.231452353911E+04   -0.16262E-03   -0.14034E-02  4688   0.112E-01    0.383E-02
RMM:   2    -0.231452376105E+04   -0.22194E-03   -0.23397E-03  5894   0.269E-02    0.314E-02
RMM:   3    -0.231452378120E+04   -0.20149E-04   -0.24372E-04  2962   0.956E-03    0.329E-02
RMM:   4    -0.231452377241E+04    0.87902E-05   -0.26867E-05  2877   0.334E-03
  63 F= -.23353986E+04 E0= -.23353986E+04  d E =-.237139E-03  mag=     4.0000
       N       E                     dE             d eps       ncg     rms          rms(c)
DAV:   1    -0.231452181190E+04    0.19693E-02   -0.57496E-02  4464   0.212E-01    0.679E-02
RMM:   2    -0.231452246365E+04   -0.65176E-03   -0.68411E-03  6192   0.491E-02    0.421E-02
RMM:   3    -0.231452253046E+04   -0.66804E-04   -0.66325E-04  3199   0.149E-02    0.523E-02
RMM:   4    -0.231452250554E+04    0.24917E-04   -0.76306E-05  2951   0.524E-03    0.230E-02
RMM:   5    -0.231452250506E+04    0.47886E-06   -0.15234E-05  2830   0.251E-03
  64 F= -.23353971E+04 E0= -.23353971E+04  d E =0.147137E-02  mag=     4.0000
       N       E                     dE             d eps       ncg     rms          rms(c)
DAV:   1    -0.231452304058E+04   -0.53504E-03   -0.40849E-02  4464   0.168E-01    0.600E-02
RMM:   2    -0.231452354962E+04   -0.50905E-03   -0.53165E-03  6100   0.406E-02    0.392E-02
RMM:   3    -0.231452360733E+04   -0.57703E-04   -0.54542E-04  3113   0.123E-02    0.517E-02
RMM:   4    -0.231452358360E+04    0.23730E-04   -0.57621E-05  2891   0.436E-03    0.175E-02
RMM:   5    -0.231452358266E+04    0.93339E-06   -0.86224E-06  2656   0.185E-03
  65 F= -.23353983E+04 E0= -.23353983E+04  d E =-.125281E-02  mag=     4.0000
       N       E                     dE             d eps       ncg     rms          rms(c)
DAV:   1    -0.231452050091E+04    0.30827E-02   -0.61059E-01  4464   0.676E-01    0.225E-01
RMM:   2    -0.231452804678E+04   -0.75459E-02   -0.78368E-02  6275   0.157E-01    0.167E-01
RMM:   3    -0.231452867198E+04   -0.62520E-03   -0.77328E-03  5160   0.491E-02    0.162E-01
RMM:   4    -0.231452842267E+04    0.24931E-03   -0.86025E-04  3659   0.137E-02    0.731E-02
RMM:   5    -0.231452844096E+04   -0.18296E-04   -0.17234E-04  3084   0.738E-03    0.844E-02
RMM:   6    -0.231452838816E+04    0.52805E-04   -0.10556E-04  3012   0.662E-03    0.358E-02
RMM:   7    -0.231452838419E+04    0.39726E-05   -0.28502E-05  2921   0.492E-03
  66 F= -.23354036E+04 E0= -.23354036E+04  d E =-.529673E-02  mag=     4.0000
       N       E                     dE             d eps       ncg     rms          rms(c)
DAV:   1    -0.231452858050E+04   -0.19234E-03   -0.48381E-03  4472   0.654E-02    0.230E-02
RMM:   2    -0.231452863806E+04   -0.57558E-04   -0.58935E-04  4833   0.161E-02    0.165E-02
RMM:   3    -0.231452864442E+04   -0.63668E-05   -0.58809E-05  2884   0.592E-03
  67 F= -.23354040E+04 E0= -.23354040E+04  d E =-.346718E-03  mag=     4.0000
       N       E                     dE             d eps       ncg     rms          rms(c)
DAV:   1    -0.231452826952E+04    0.36854E-03   -0.46040E-03  4496   0.654E-02    0.219E-02
RMM:   2    -0.231452830074E+04   -0.31223E-04   -0.33375E-04  5114   0.138E-02    0.135E-02
RMM:   3    -0.231452830228E+04   -0.15358E-05   -0.32434E-05  2857   0.587E-03
  68 F= -.23354037E+04 E0= -.23354037E+04  d E =0.298927E-03  mag=     4.0000
       N       E                     dE             d eps       ncg     rms          rms(c)
DAV:   1    -0.231452867871E+04   -0.37797E-03   -0.37302E-02  4464   0.152E-01    0.653E-02
RMM:   2    -0.231452941045E+04   -0.73174E-03   -0.75642E-03  6182   0.422E-02    0.520E-02
RMM:   3    -0.231452946677E+04   -0.56323E-04   -0.77224E-04  3156   0.145E-02    0.443E-02
RMM:   4    -0.231452945253E+04    0.14247E-04   -0.83408E-05  2970   0.493E-03    0.247E-02
RMM:   5    -0.231452945189E+04    0.63927E-06   -0.11549E-05  2654   0.203E-03
  69 F= -.23354050E+04 E0= -.23354050E+04  d E =-.127059E-02  mag=     4.0000
       N       E                     dE             d eps       ncg     rms          rms(c)
DAV:   1    -0.231452977364E+04   -0.32111E-03   -0.10230E-02  4400   0.837E-02    0.340E-02
RMM:   2    -0.231452991411E+04   -0.14048E-03   -0.14502E-03  5305   0.223E-02    0.255E-02
RMM:   3    -0.231452992613E+04   -0.12015E-04   -0.14180E-04  2919   0.731E-03    0.265E-02
RMM:   4    -0.231452992142E+04    0.47083E-05   -0.16966E-05  2753   0.274E-03
  70 F= -.23354056E+04 E0= -.23354056E+04  d E =-.613857E-03  mag=     4.0000
       N       E                     dE             d eps       ncg     rms          rms(c)
DAV:   1    -0.231452989809E+04    0.28043E-04   -0.43088E-05  4560   0.632E-03    0.154E-02
RMM:   2    -0.231452991670E+04   -0.18618E-04   -0.34519E-05  2700   0.355E-03    0.412E-02
RMM:   3    -0.231452989683E+04    0.19869E-04   -0.10863E-05  2063   0.255E-03    0.596E-03
RMM:   4    -0.231452989715E+04   -0.31872E-06   -0.17770E-06  1149   0.839E-04
  71 F= -.23354055E+04 E0= -.23354055E+04  d E =0.313310E-04  mag=     4.0000
       N       E                     dE             d eps       ncg     rms          rms(c)
DAV:   1    -0.231453005156E+04   -0.15473E-03   -0.14308E-02  4464   0.104E-01    0.383E-02
RMM:   2    -0.231453019204E+04   -0.14048E-03   -0.14479E-03  5795   0.257E-02    0.260E-02
RMM:   3    -0.231453019901E+04   -0.69718E-05   -0.11240E-04  3009   0.783E-03    0.282E-02
RMM:   4    -0.231453018979E+04    0.92188E-05   -0.17096E-05  2874   0.313E-03
  72 F= -.23354060E+04 E0= -.23354060E+04  d E =-.456573E-03  mag=     4.0000
       N       E                     dE             d eps       ncg     rms          rms(c)
DAV:   1    -0.231453011192E+04    0.87088E-04   -0.29435E-03  4304   0.441E-02    0.171E-02
RMM:   2    -0.231453015647E+04   -0.44542E-04   -0.38567E-04  4192   0.112E-02    0.296E-02
RMM:   3    -0.231453014994E+04    0.65254E-05   -0.38948E-05  2797   0.457E-03
  73 F= -.23354060E+04 E0= -.23354060E+04  d E =-.453923E-04  mag=     4.0000
       N       E                     dE             d eps       ncg     rms          rms(c)
DAV:   1    -0.231452873460E+04    0.14219E-02   -0.25845E-02  4464   0.134E-01    0.462E-02
RMM:   2    -0.231452912396E+04   -0.38936E-03   -0.41104E-03  5875   0.300E-02    0.271E-02
RMM:   3    -0.231452916149E+04   -0.37534E-04   -0.42569E-04  2957   0.111E-02    0.218E-02
RMM:   4    -0.231452916367E+04   -0.21801E-05   -0.48437E-05  2897   0.363E-03
  74 F= -.23354051E+04 E0= -.23354051E+04  d E =0.948099E-03  mag=     4.0000
       N       E                     dE             d eps       ncg     rms          rms(c)
DAV:   1    -0.231452643962E+04    0.27219E-02   -0.50057E-01  4464   0.606E-01    0.203E-01
RMM:   2    -0.231453322081E+04   -0.67812E-02   -0.71697E-02  6319   0.136E-01    0.124E-01
RMM:   3    -0.231453390049E+04   -0.67968E-03   -0.73345E-03  4872   0.455E-02    0.119E-01
RMM:   4    -0.231453381220E+04    0.88288E-04   -0.79570E-04  3437   0.121E-02    0.673E-02
RMM:   5    -0.231453378766E+04    0.24538E-04   -0.99162E-05  2952   0.666E-03    0.502E-02
RMM:   6    -0.231453379366E+04   -0.59959E-05   -0.77824E-05  2983   0.531E-03
  75 F= -.23354099E+04 E0= -.23354099E+04  d E =-.479243E-02  mag=     4.0000
       N       E                     dE             d eps       ncg     rms          rms(c)
DAV:   1    -0.231453110199E+04    0.26857E-02   -0.69544E-02  4464   0.228E-01    0.745E-02
RMM:   2    -0.231453201626E+04   -0.91427E-03   -0.94531E-03  6229   0.532E-02    0.623E-02
RMM:   3    -0.231453208446E+04   -0.68200E-04   -0.10204E-03  3346   0.180E-02    0.526E-02
RMM:   4    -0.231453205961E+04    0.24843E-04   -0.10273E-04  2987   0.589E-03    0.219E-02
RMM:   5    -0.231453205934E+04    0.26815E-06   -0.15809E-05  2815   0.271E-03
  76 F= -.23354081E+04 E0= -.23354081E+04  d E =0.182022E-02  mag=     4.0000
       N       E                     dE             d eps       ncg     rms          rms(c)
DAV:   1    -0.231452964313E+04    0.24165E-02   -0.59491E-02  4464   0.215E-01    0.712E-02
RMM:   2    -0.231453046062E+04   -0.81749E-03   -0.84268E-03  6223   0.492E-02    0.583E-02
RMM:   3    -0.231453053065E+04   -0.70029E-04   -0.90372E-04  3270   0.168E-02    0.552E-02
RMM:   4    -0.231453050480E+04    0.25847E-04   -0.95532E-05  2992   0.567E-03    0.287E-02
RMM:   5    -0.231453050495E+04   -0.14697E-06   -0.20353E-05  2801   0.255E-03
  77 F= -.23354064E+04 E0= -.23354064E+04  d E =0.166772E-02  mag=     4.0000
       N       E                     dE             d eps       ncg     rms          rms(c)
DAV:   1    -0.231452554637E+04    0.49584E-02   -0.18040E-01  4464   0.390E-01    0.117E-01
RMM:   2    -0.231452769836E+04   -0.21520E-02   -0.22432E-02  6264   0.837E-02    0.877E-02
RMM:   3    -0.231452788695E+04   -0.18859E-03   -0.23319E-03  3907   0.274E-02    0.843E-02
RMM:   4    -0.231452783241E+04    0.54535E-04   -0.24917E-04  3140   0.832E-03    0.395E-02
RMM:   5    -0.231452782558E+04    0.68332E-05   -0.42618E-05  2993   0.463E-03
  78 F= -.23354036E+04 E0= -.23354036E+04  d E =0.282078E-02  mag=     4.0000
       N       E                     dE             d eps       ncg     rms          rms(c)
DAV:   1    -0.231448757919E+04    0.40253E-01   -0.22470E+00  4464   0.135E+00    0.423E-01
RMM:   2    -0.231451651813E+04   -0.28939E-01   -0.30052E-01  6302   0.298E-01    0.317E-01
RMM:   3    -0.231451914536E+04   -0.26272E-02   -0.31597E-02  5849   0.986E-02    0.302E-01
RMM:   4    -0.231451835650E+04    0.78885E-03   -0.33706E-03  5060   0.261E-02    0.152E-01
RMM:   5    -0.231451836943E+04   -0.12930E-04   -0.60801E-04  3875   0.119E-02    0.154E-01
RMM:   6    -0.231451821276E+04    0.15667E-03   -0.39869E-04  3871   0.115E-02    0.797E-02
RMM:   7    -0.231451819857E+04    0.14195E-04   -0.14565E-04  3454   0.837E-03    0.421E-02
RMM:   8    -0.231451819912E+04   -0.55098E-06   -0.35984E-05  2982   0.544E-03
  79 F= -.23353934E+04 E0= -.23353934E+04  d E =0.101339E-01  mag=     4.0000
       N       E                     dE             d eps       ncg     rms          rms(c)
DAV:   1    -0.231451310776E+04    0.50908E-02   -0.17170E-01  4464   0.366E-01    0.120E-01
RMM:   2    -0.231451540581E+04   -0.22981E-02   -0.23850E-02  6290   0.833E-02    0.910E-02
RMM:   3    -0.231451560468E+04   -0.19887E-03   -0.24721E-03  3844   0.271E-02    0.825E-02
RMM:   4    -0.231451555158E+04    0.53103E-04   -0.26837E-04  3171   0.845E-03    0.436E-02
RMM:   5    -0.231451555336E+04   -0.17784E-05   -0.46424E-05  2893   0.439E-03
  80 F= -.23353906E+04 E0= -.23353906E+04  d E =0.280715E-02  mag=     4.0000
       N       E                     dE             d eps       ncg     rms          rms(c)
DAV:   1    -0.231450399886E+04    0.11553E-01   -0.49248E-01  4464   0.619E-01    0.202E-01
RMM:   2    -0.231451056360E+04   -0.65647E-02   -0.68554E-02  6339   0.139E-01    0.150E-01
RMM:   3    -0.231451116913E+04   -0.60552E-03   -0.70868E-03  5008   0.455E-02    0.146E-01
RMM:   4    -0.231451103382E+04    0.13530E-03   -0.76859E-04  3459   0.121E-02    0.739E-02
RMM:   5    -0.231451104876E+04   -0.14939E-04   -0.13684E-04  3194   0.679E-03    0.757E-02
RMM:   6    -0.231451102416E+04    0.24605E-04   -0.11460E-04  2997   0.685E-03    0.488E-02
RMM:   7    -0.231451101647E+04    0.76881E-05   -0.42481E-05  2937   0.480E-03
  81 F= -.23353859E+04 E0= -.23353859E+04  d E =0.474912E-02  mag=     4.0000
       N       E                     dE             d eps       ncg     rms          rms(c)
DAV:   1    -0.231449430458E+04    0.16720E-01   -0.82358E-01  4464   0.799E-01    0.259E-01
RMM:   2    -0.231450477811E+04   -0.10474E-01   -0.10921E-01  6361   0.185E-01    0.182E-01
RMM:   3    -0.231450574032E+04   -0.96221E-03   -0.10708E-02  5440   0.588E-02    0.184E-01
RMM:   4    -0.231450544767E+04    0.29265E-03   -0.12228E-03  3831   0.159E-02    0.938E-02
RMM:   5    -0.231450545071E+04   -0.30354E-05   -0.21525E-04  3142   0.794E-03    0.916E-02
RMM:   6    -0.231450540329E+04    0.47418E-04   -0.14206E-04  3091   0.749E-03    0.516E-02
RMM:   7    -0.231450539872E+04    0.45716E-05   -0.61803E-05  3030   0.596E-03
  82 F= -.23353798E+04 E0= -.23353798E+04  d E =0.612392E-02  mag=     4.0000
       N       E                     dE             d eps       ncg     rms          rms(c)
DAV:   1    -0.231450141071E+04    0.39926E-02   -0.12126E-01  4480   0.307E-01    0.100E-01
RMM:   2    -0.231450302195E+04   -0.16112E-02   -0.16965E-02  6333   0.667E-02    0.661E-02
RMM:   3    -0.231450319802E+04   -0.17607E-03   -0.17365E-03  3606   0.230E-02    0.700E-02
RMM:   4    -0.231450316864E+04    0.29383E-04   -0.20235E-04  3045   0.743E-03    0.419E-02
RMM:   5    -0.231450316771E+04    0.93508E-06   -0.33676E-05  2905   0.373E-03
  83 F= -.23353775E+04 E0= -.23353775E+04  d E =0.222065E-02  mag=     4.0000
       N       E                     dE             d eps       ncg     rms          rms(c)
DAV:   1    -0.231450336969E+04   -0.20105E-03   -0.20690E-01  4464   0.404E-01    0.125E-01
RMM:   2    -0.231450590638E+04   -0.25367E-02   -0.26939E-02  6293   0.867E-02    0.728E-02
RMM:   3    -0.231450618818E+04   -0.28180E-03   -0.28051E-03  3852   0.277E-02    0.852E-02
RMM:   4    -0.231450613850E+04    0.49676E-04   -0.29828E-04  3052   0.800E-03    0.430E-02
RMM:   5    -0.231450612574E+04    0.12765E-04   -0.32623E-05  2953   0.389E-03    0.282E-02
RMM:   6    -0.231450612651E+04   -0.77767E-06   -0.33825E-05  2895   0.392E-03
  84 F= -.23353806E+04 E0= -.23353806E+04  d E =-.301854E-02  mag=     4.0000
       N       E                     dE             d eps       ncg     rms          rms(c)
DAV:   1    -0.231450681696E+04   -0.69123E-03   -0.35203E-02  4496   0.169E-01    0.536E-02
RMM:   2    -0.231450726029E+04   -0.44333E-03   -0.46799E-03  5979   0.359E-02    0.362E-02
RMM:   3    -0.231450730961E+04   -0.49315E-04   -0.47521E-04  3037   0.124E-02    0.404E-02
RMM:   4    -0.231450729890E+04    0.10705E-04   -0.53351E-05  2907   0.418E-03    0.219E-02
RMM:   5    -0.231450729747E+04    0.14270E-05   -0.84599E-06  2752   0.205E-03
  85 F= -.23353817E+04 E0= -.23353817E+04  d E =-.116612E-02  mag=     4.0000
       N       E                     dE             d eps       ncg     rms          rms(c)
DAV:   1    -0.231449319827E+04    0.14101E-01   -0.16151E+00  4464   0.111E+00    0.356E-01
RMM:   2    -0.231451399949E+04   -0.20801E-01   -0.21887E-01  6257   0.242E-01    0.242E-01
RMM:   3    -0.231451616242E+04   -0.21629E-02   -0.22813E-02  5702   0.827E-02    0.246E-01
RMM:   4    -0.231451568732E+04    0.47511E-03   -0.25287E-03  4490   0.213E-02    0.133E-01
RMM:   5    -0.231451567394E+04    0.13372E-04   -0.39818E-04  3552   0.107E-02    0.129E-01
RMM:   6    -0.231451558612E+04    0.87826E-04   -0.29017E-04  3464   0.997E-03    0.760E-02
RMM:   7    -0.231451557300E+04    0.13121E-04   -0.11857E-04  3229   0.756E-03    0.371E-02
RMM:   8    -0.231451557529E+04   -0.22958E-05   -0.29178E-05  2917   0.518E-03
  86 F= -.23353902E+04 E0= -.23353902E+04  d E =-.849793E-02  mag=     4.0000
       N       E                     dE             d eps       ncg     rms          rms(c)
DAV:   1    -0.231449322829E+04    0.22345E-01   -0.23595E+00  4464   0.137E+00    0.430E-01
RMM:   2    -0.231452349538E+04   -0.30267E-01   -0.31654E-01  6256   0.302E-01    0.311E-01
RMM:   3    -0.231452620965E+04   -0.27143E-02   -0.32872E-02  5819   0.984E-02    0.288E-01
RMM:   4    -0.231452562836E+04    0.58129E-03   -0.34644E-03  5020   0.247E-02    0.138E-01
RMM:   5    -0.231452550831E+04    0.12005E-03   -0.44578E-04  4002   0.125E-02    0.891E-02
RMM:   6    -0.231452563021E+04   -0.12190E-03   -0.40361E-04  3991   0.113E-02    0.120E-01
RMM:   7    -0.231452550082E+04    0.12939E-03   -0.15816E-04  3088   0.855E-03    0.476E-02
RMM:   8    -0.231452549334E+04    0.74824E-05   -0.34350E-05  2924   0.473E-03
  87 F= -.23354006E+04 E0= -.23354006E+04  d E =-.103978E-01  mag=     4.0000
       N       E                     dE             d eps       ncg     rms          rms(c)
DAV:   1    -0.231452095400E+04    0.45468E-02   -0.16387E-01  4464   0.371E-01    0.117E-01
RMM:   2    -0.231452311809E+04   -0.21641E-02   -0.22369E-02  6262   0.841E-02    0.955E-02
RMM:   3    -0.231452330324E+04   -0.18515E-03   -0.22037E-03  3912   0.264E-02    0.958E-02
RMM:   4    -0.231452321940E+04    0.83838E-04   -0.24434E-04  3063   0.818E-03    0.375E-02
RMM:   5    -0.231452322025E+04   -0.85037E-06   -0.48817E-05  2978   0.416E-03
  88 F= -.23353981E+04 E0= -.23353981E+04  d E =0.251595E-02  mag=     4.0000
       N       E                     dE             d eps       ncg     rms          rms(c)
DAV:   1    -0.231452195455E+04    0.12649E-02   -0.24935E-02  4464   0.146E-01    0.482E-02
RMM:   2    -0.231452232207E+04   -0.36752E-03   -0.37249E-03  5919   0.325E-02    0.474E-02
RMM:   3    -0.231452234453E+04   -0.22455E-04   -0.38701E-04  3027   0.116E-02    0.381E-02
RMM:   4    -0.231452233340E+04    0.11132E-04   -0.42877E-05  2932   0.429E-03    0.187E-02
RMM:   5    -0.231452233202E+04    0.13778E-05   -0.98186E-06  2820   0.239E-03
  89 F= -.23353972E+04 E0= -.23353972E+04  d E =0.944920E-03  mag=     4.0000
       N       E                     dE             d eps       ncg     rms          rms(c)
DAV:   1    -0.231452033830E+04    0.19951E-02   -0.52228E-02  4464   0.213E-01    0.690E-02
RMM:   2    -0.231452114993E+04   -0.81162E-03   -0.84522E-03  6198   0.488E-02    0.524E-02
RMM:   3    -0.231452122643E+04   -0.76503E-04   -0.82038E-04  3259   0.160E-02    0.542E-02
RMM:   4    -0.231452120193E+04    0.24496E-04   -0.95065E-05  2952   0.536E-03    0.245E-02
RMM:   5    -0.231452120085E+04    0.10786E-05   -0.14357E-05  2815   0.253E-03
  90 F= -.23353959E+04 E0= -.23353959E+04  d E =0.126484E-02  mag=     4.0000
       N       E                     dE             d eps       ncg     rms          rms(c)
DAV:   1    -0.231451962439E+04    0.15775E-02   -0.38875E-02  4464   0.186E-01    0.601E-02
RMM:   2    -0.231452026614E+04   -0.64175E-03   -0.65454E-03  6168   0.418E-02    0.549E-02
RMM:   3    -0.231452031372E+04   -0.47579E-04   -0.65475E-04  3158   0.142E-02    0.474E-02
RMM:   4    -0.231452029625E+04    0.17465E-04   -0.74237E-05  2935   0.495E-03    0.235E-02
RMM:   5    -0.231452029542E+04    0.82553E-06   -0.13323E-05  2822   0.253E-03
  91 F= -.23353949E+04 E0= -.23353949E+04  d E =0.101780E-02  mag=     4.0000
       N       E                     dE             d eps       ncg     rms          rms(c)
DAV:   1    -0.231452069505E+04   -0.39879E-03   -0.18635E-01  4464   0.368E-01    0.122E-01
RMM:   2    -0.231452302243E+04   -0.23274E-02   -0.24550E-02  6316   0.850E-02    0.769E-02
RMM:   3    -0.231452325002E+04   -0.22759E-03   -0.24893E-03  3798   0.271E-02    0.779E-02
RMM:   4    -0.231452320452E+04    0.45498E-04   -0.27347E-04  3151   0.828E-03    0.445E-02
RMM:   5    -0.231452319828E+04    0.62394E-05   -0.42417E-05  2889   0.411E-03
  92 F= -.23353979E+04 E0= -.23353979E+04  d E =-.303444E-02  mag=     4.0000
       N       E                     dE             d eps       ncg     rms          rms(c)
DAV:   1    -0.231452354757E+04   -0.34305E-03   -0.42109E-03  4448   0.602E-02    0.345E-02
RMM:   2    -0.231452363944E+04   -0.91867E-04   -0.57946E-04  4544   0.142E-02    0.704E-02
RMM:   3    -0.231452359489E+04    0.44547E-04   -0.78123E-05  2933   0.623E-03    0.157E-02
RMM:   4    -0.231452359556E+04   -0.66700E-06   -0.11244E-05  2779   0.232E-03
  93 F= -.23353983E+04 E0= -.23353983E+04  d E =-.369887E-03  mag=     4.0000
       N       E                     dE             d eps       ncg     rms          rms(c)
DAV:   1    -0.231452312652E+04    0.46837E-03   -0.56140E-02  4464   0.238E-01    0.795E-02
RMM:   2    -0.231452415291E+04   -0.10264E-02   -0.95324E-03  6202   0.526E-02    0.122E-01
RMM:   3    -0.231452407795E+04    0.74961E-04   -0.95626E-04  3423   0.181E-02    0.452E-02
RMM:   4    -0.231452406794E+04    0.10015E-04   -0.10783E-04  2964   0.541E-03    0.253E-02
RMM:   5    -0.231452406366E+04    0.42735E-05   -0.14102E-05  2791   0.287E-03
  94 F= -.23353986E+04 E0= -.23353986E+04  d E =-.307742E-03  mag=     4.0000
       N       E                     dE             d eps       ncg     rms          rms(c)
DAV:   1    -0.231452382436E+04    0.24358E-03   -0.81513E-03  4536   0.935E-02    0.238E-02
RMM:   2    -0.231452393898E+04   -0.11462E-03   -0.11916E-03  5464   0.194E-02    0.151E-02
RMM:   3    -0.231452394990E+04   -0.10925E-04   -0.13018E-04  2873   0.717E-03    0.156E-02
RMM:   4    -0.231452394889E+04    0.10057E-05   -0.13799E-05  2777   0.253E-03
  95 F= -.23353984E+04 E0= -.23353984E+04  d E =0.178700E-03  mag=     4.0000
       N       E                     dE             d eps       ncg     rms          rms(c)
DAV:   1    -0.231452394721E+04    0.26865E-05   -0.22771E-06  3616   0.235E-03    0.856E-03
RMM:   2    -0.231452395067E+04   -0.34581E-05   -0.77849E-06  1963   0.168E-03
  96 F= -.23353984E+04 E0= -.23353984E+04  d E =-.850061E-06  mag=     4.0000
       N       E                     dE             d eps       ncg     rms          rms(c)
DAV:   1    -0.231452272495E+04    0.12223E-02   -0.49005E-02  4448   0.216E-01    0.800E-02
RMM:   2    -0.231452387895E+04   -0.11540E-02   -0.10907E-02  6226   0.519E-02    0.124E-01
RMM:   3    -0.231452380963E+04    0.69323E-04   -0.11470E-03  3402   0.185E-02    0.422E-02
RMM:   4    -0.231452380317E+04    0.64592E-05   -0.11642E-04  2949   0.506E-03    0.231E-02
RMM:   5    -0.231452380036E+04    0.28116E-05   -0.10457E-05  2696   0.248E-03
  97 F= -.23353981E+04 E0= -.23353981E+04  d E =0.351998E-03  mag=     4.0000
       N       E                     dE             d eps       ncg     rms          rms(c)
DAV:   1    -0.231452116188E+04    0.26413E-02   -0.10439E-01  4464   0.318E-01    0.102E-01
RMM:   2    -0.231452312378E+04   -0.19619E-02   -0.19727E-02  6234   0.712E-02    0.112E-01
RMM:   3    -0.231452320631E+04   -0.82533E-04   -0.20602E-03  3761   0.241E-02    0.709E-02
RMM:   4    -0.231452317100E+04    0.35308E-04   -0.20998E-04  2990   0.672E-03    0.313E-02
RMM:   5    -0.231452316678E+04    0.42244E-05   -0.23780E-05  2889   0.362E-03
  98 F= -.23353972E+04 E0= -.23353972E+04  d E =0.897560E-03  mag=     4.0000
       N       E                     dE             d eps       ncg     rms          rms(c)
DAV:   1    -0.231451055206E+04    0.12619E-01   -0.56797E-01  4464   0.634E-01    0.214E-01
RMM:   2    -0.231451770383E+04   -0.71518E-02   -0.73308E-02  6341   0.141E-01    0.207E-01
RMM:   3    -0.231451814127E+04   -0.43743E-03   -0.77452E-03  5215   0.464E-02    0.163E-01
RMM:   4    -0.231451799449E+04    0.14677E-03   -0.80920E-04  3383   0.118E-02    0.774E-02
RMM:   5    -0.231451803023E+04   -0.35733E-04   -0.19330E-04  3351   0.779E-03    0.907E-02
RMM:   6    -0.231451795632E+04    0.73905E-04   -0.13593E-04  3134   0.781E-03    0.382E-02
RMM:   7    -0.231451795891E+04   -0.25931E-05   -0.47130E-05  2977   0.512E-03
  99 F= -.23353921E+04 E0= -.23353921E+04  d E =0.509082E-02  mag=     4.0000
       N       E                     dE             d eps       ncg     rms          rms(c)
DAV:   1    -0.231451860504E+04   -0.64872E-03   -0.62098E-02  4464   0.205E-01    0.831E-02
RMM:   2    -0.231451968075E+04   -0.10757E-02   -0.10222E-02  6344   0.542E-02    0.117E-01
RMM:   3    -0.231451959765E+04    0.83098E-04   -0.89658E-04  3358   0.162E-02    0.448E-02
RMM:   4    -0.231451959004E+04    0.76066E-05   -0.10643E-04  2962   0.497E-03    0.257E-02
RMM:   5    -0.231451959271E+04   -0.26650E-05   -0.23397E-05  2875   0.316E-03
 100 F= -.23353936E+04 E0= -.23353936E+04  d E =-.154926E-02  mag=     4.0000
       N       E                     dE             d eps       ncg     rms          rms(c)
DAV:   1    -0.231451707380E+04    0.25162E-02   -0.71322E-02  4464   0.247E-01    0.755E-02
RMM:   2    -0.231451807547E+04   -0.10017E-02   -0.10630E-02  6225   0.535E-02    0.446E-02
RMM:   3    -0.231451817573E+04   -0.10026E-03   -0.10755E-03  3285   0.179E-02    0.485E-02
RMM:   4    -0.231451816895E+04    0.67813E-05   -0.11826E-04  2936   0.529E-03    0.277E-02
RMM:   5    -0.231451816693E+04    0.20124E-05   -0.13107E-05  2844   0.256E-03
 101 F= -.23353921E+04 E0= -.23353921E+04  d E =0.154661E-02  mag=     4.0000
       N       E                     dE             d eps       ncg     rms          rms(c)
DAV:   1    -0.231451717831E+04    0.99064E-03   -0.18556E-02  4464   0.129E-01    0.414E-02
RMM:   2    -0.231451743610E+04   -0.25779E-03   -0.26047E-03  5877   0.267E-02    0.418E-02
RMM:   3    -0.231451745274E+04   -0.16638E-04   -0.29362E-04  3010   0.105E-02    0.335E-02
RMM:   4    -0.231451744630E+04    0.64418E-05   -0.31466E-05  2892   0.374E-03
 102 F= -.23353913E+04 E0= -.23353913E+04  d E =0.751823E-03  mag=     4.0000
       N       E                     dE             d eps       ncg     rms          rms(c)
DAV:   1    -0.231451735029E+04    0.10245E-03   -0.79959E-04  4800   0.289E-02    0.266E-02
RMM:   2    -0.231451739640E+04   -0.46107E-04   -0.19637E-04  3415   0.700E-03    0.607E-02
RMM:   3    -0.231451736204E+04    0.34352E-04   -0.36124E-05  2718   0.417E-03    0.146E-02
RMM:   4    -0.231451736334E+04   -0.12974E-05   -0.63747E-06  2200   0.163E-03
 103 F= -.23353912E+04 E0= -.23353912E+04  d E =0.981233E-04  mag=     4.0000
       N       E                     dE             d eps       ncg     rms          rms(c)
DAV:   1    -0.231451709001E+04    0.27204E-03   -0.22568E-03  4432   0.449E-02    0.174E-02
RMM:   2    -0.231451712670E+04   -0.36691E-04   -0.36487E-04  3926   0.959E-03    0.181E-02
RMM:   3    -0.231451712907E+04   -0.23717E-05   -0.41371E-05  2514   0.507E-03
 104 F= -.23353910E+04 E0= -.23353910E+04  d E =0.246991E-03  mag=     4.0000
       N       E                     dE             d eps       ncg     rms          rms(c)
DAV:   1    -0.231451707135E+04    0.55346E-04   -0.44167E-04  4352   0.188E-02    0.117E-02
RMM:   2    -0.231451708316E+04   -0.11803E-04   -0.11532E-04  2990   0.502E-03    0.113E-02
RMM:   3    -0.231451708431E+04   -0.11589E-05   -0.13033E-05  2318   0.321E-03
 105 F= -.23353909E+04 E0= -.23353909E+04  d E =0.494553E-04  mag=     4.0000
       N       E                     dE             d eps       ncg     rms          rms(c)
DAV:   1    -0.231451709814E+04   -0.14986E-04   -0.33001E-03  4384   0.481E-02    0.213E-02
RMM:   2    -0.231451717463E+04   -0.76485E-04   -0.77776E-04  4420   0.123E-02    0.214E-02
RMM:   3    -0.231451718058E+04   -0.59574E-05   -0.90081E-05  2646   0.606E-03
 106 F= -.23353910E+04 E0= -.23353910E+04  d E =-.926707E-04  mag=     4.0000
       N       E                     dE             d eps       ncg     rms          rms(c)
DAV:   1    -0.231451745285E+04   -0.27822E-03   -0.21374E-02  4464   0.130E-01    0.475E-02
RMM:   2    -0.231451779321E+04   -0.34036E-03   -0.32971E-03  5976   0.293E-02    0.580E-02
RMM:   3    -0.231451779682E+04   -0.36057E-05   -0.35420E-04  2978   0.106E-02    0.328E-02
RMM:   4    -0.231451779128E+04    0.55318E-05   -0.39944E-05  2889   0.344E-03
 107 F= -.23353917E+04 E0= -.23353916E+04  d E =-.626826E-03  mag=     4.0000
       N       E                     dE             d eps       ncg     rms          rms(c)
DAV:   1    -0.231451813482E+04   -0.33801E-03   -0.79021E-03  4448   0.765E-02    0.326E-02
RMM:   2    -0.231451825702E+04   -0.12220E-03   -0.10351E-03  5121   0.165E-02    0.499E-02
RMM:   3    -0.231451823843E+04    0.18592E-04   -0.12146E-04  2927   0.710E-03    0.206E-02
RMM:   4    -0.231451823750E+04    0.92777E-06   -0.14205E-05  2802   0.236E-03
 108 F= -.23353921E+04 E0= -.23353921E+04  d E =-.439338E-03  mag=     4.0000
       N       E                     dE             d eps       ncg     rms          rms(c)
DAV:   1    -0.231451865668E+04   -0.41825E-03   -0.63023E-03  4448   0.688E-02    0.298E-02
RMM:   2    -0.231451873202E+04   -0.75337E-04   -0.60898E-04  4663   0.136E-02    0.485E-02
RMM:   3    -0.231451871685E+04    0.15172E-04   -0.78747E-05  2869   0.579E-03    0.175E-02
RMM:   4    -0.231451871570E+04    0.11474E-05   -0.82712E-06  2673   0.212E-03
 109 F= -.23353926E+04 E0= -.23353926E+04  d E =-.484443E-03  mag=     4.0000
       N       E                     dE             d eps       ncg     rms          rms(c)
DAV:   1    -0.231451918081E+04   -0.46396E-03   -0.11361E-02  4408   0.876E-02    0.365E-02
RMM:   2    -0.231451935780E+04   -0.17699E-03   -0.15546E-03  5361   0.212E-02    0.576E-02
RMM:   3    -0.231451932727E+04    0.30526E-04   -0.16443E-04  3008   0.793E-03    0.188E-02
RMM:   4    -0.231451932736E+04   -0.92914E-07   -0.19816E-05  2746   0.262E-03
 110 F= -.23353931E+04 E0= -.23353931E+04  d E =-.547676E-03  mag=     4.0000
       N       E                     dE             d eps       ncg     rms          rms(c)
DAV:   1    -0.231451992539E+04   -0.59813E-03   -0.11435E-02  4432   0.855E-02    0.340E-02
RMM:   2    -0.231452005787E+04   -0.13247E-03   -0.12808E-03  5277   0.203E-02    0.371E-02
RMM:   3    -0.231452005718E+04    0.68934E-06   -0.13094E-04  2951   0.730E-03    0.249E-02
RMM:   4    -0.231452005465E+04    0.25255E-05   -0.16795E-05  2749   0.269E-03
 111 F= -.23353938E+04 E0= -.23353938E+04  d E =-.663136E-03  mag=     4.0000
       N       E                     dE             d eps       ncg     rms          rms(c)
DAV:   1    -0.231452056098E+04   -0.50380E-03   -0.62471E-03  4416   0.622E-02    0.263E-02
RMM:   2    -0.231452062681E+04   -0.65825E-04   -0.67523E-04  4625   0.147E-02    0.206E-02
RMM:   3    -0.231452063437E+04   -0.75616E-05   -0.73485E-05  2800   0.561E-03
 112 F= -.23353943E+04 E0= -.23353943E+04  d E =-.529733E-03  mag=     4.0000
       N       E                     dE             d eps       ncg     rms          rms(c)
DAV:   1    -0.231452074227E+04   -0.11546E-03   -0.25737E-04  4568   0.134E-02    0.145E-02
RMM:   2    -0.231452075109E+04   -0.88191E-05   -0.44302E-05  2941   0.367E-03
 113 F= -.23353944E+04 E0= -.23353944E+04  d E =-.104820E-03  mag=     4.0000
       N       E                     dE             d eps       ncg     rms          rms(c)
DAV:   1    -0.231452122709E+04   -0.48482E-03   -0.60580E-03  4428   0.580E-02    0.241E-02
RMM:   2    -0.231452128408E+04   -0.56989E-04   -0.60247E-04  4379   0.136E-02    0.174E-02
RMM:   3    -0.231452129016E+04   -0.60761E-05   -0.65135E-05  2712   0.575E-03
 114 F= -.23353949E+04 E0= -.23353949E+04  d E =-.498907E-03  mag=     4.0000
       N       E                     dE             d eps       ncg     rms          rms(c)
DAV:   1    -0.231452222051E+04   -0.93643E-03   -0.54639E-02  4464   0.178E-01    0.716E-02
RMM:   2    -0.231452299376E+04   -0.77324E-03   -0.79076E-03  6207   0.446E-02    0.664E-02
RMM:   3    -0.231452303551E+04   -0.41755E-04   -0.81481E-04  3208   0.152E-02    0.496E-02
RMM:   4    -0.231452301995E+04    0.15563E-04   -0.86987E-05  2959   0.493E-03    0.231E-02
RMM:   5    -0.231452302392E+04   -0.39701E-05   -0.20806E-05  2862   0.271E-03
 115 F= -.23353965E+04 E0= -.23353965E+04  d E =-.161130E-02  mag=     4.0000
       N       E                     dE             d eps       ncg     rms          rms(c)
DAV:   1    -0.231452309643E+04   -0.76487E-04   -0.25434E-04  5320   0.146E-02    0.127E-02
RMM:   2    -0.231452310959E+04   -0.13159E-04   -0.64215E-05  2892   0.378E-03    0.274E-02
RMM:   3    -0.231452310142E+04    0.81782E-05   -0.10700E-05  2301   0.267E-03
 116 F= -.23353966E+04 E0= -.23353966E+04  d E =-.758802E-04  mag=     4.0000
       N       E                     dE             d eps       ncg     rms          rms(c)
DAV:   1    -0.231452323271E+04   -0.12312E-03   -0.68472E-03  4448   0.768E-02    0.285E-02
RMM:   2    -0.231452337895E+04   -0.14624E-03   -0.14421E-03  5388   0.184E-02    0.349E-02
RMM:   3    -0.231452338148E+04   -0.25252E-05   -0.14793E-04  2837   0.676E-03    0.198E-02
RMM:   4    -0.231452337903E+04    0.24434E-05   -0.15856E-05  2527   0.240E-03
 117 F= -.23353969E+04 E0= -.23353969E+04  d E =-.287349E-03  mag=     4.0000
       N       E                     dE             d eps       ncg     rms          rms(c)
DAV:   1    -0.231452358421E+04   -0.20273E-03   -0.12394E-02  4464   0.106E-01    0.343E-02
RMM:   2    -0.231452379345E+04   -0.20924E-03   -0.20653E-03  5651   0.228E-02    0.390E-02
[...]
       N       E                     dE             d eps       ncg     rms          rms(c)
DAV:   1    -0.231457748402E+04   -0.47123E-03   -0.20927E-02  4472   0.123E-01    0.407E-02
RMM:   2    -0.231457773470E+04   -0.25069E-03   -0.25730E-03  5638   0.261E-02    0.338E-02
RMM:   3    -0.231457775810E+04   -0.23397E-04   -0.26075E-04  2954   0.894E-03    0.356E-02
RMM:   4    -0.231457774705E+04    0.11049E-04   -0.29146E-05  2867   0.342E-03    0.132E-02
RMM:   5    -0.231457774625E+04    0.80110E-06   -0.52923E-06  2645   0.170E-03
 173 F= -.23354558E+04 E0= -.23354558E+04  d E =-.749903E-03  mag=     4.0000
       N       E                     dE             d eps       ncg     rms          rms(c)
DAV:   1    -0.231457818535E+04   -0.43830E-03   -0.11651E-02  4440   0.777E-02    0.342E-02
RMM:   2    -0.231457836132E+04   -0.17597E-03   -0.17511E-03  4906   0.192E-02    0.355E-02
RMM:   3    -0.231457836503E+04   -0.37108E-05   -0.18417E-04  2950   0.762E-03    0.232E-02
RMM:   4    -0.231457836058E+04    0.44452E-05   -0.19317E-05  2701   0.278E-03
 174 F= -.23354564E+04 E0= -.23354564E+04  d E =-.649413E-03  mag=     4.0000
       N       E                     dE             d eps       ncg     rms          rms(c)
DAV:   1    -0.231457719798E+04    0.11670E-02   -0.28314E-01  4464   0.395E-01    0.158E-01
RMM:   2    -0.231458109096E+04   -0.38930E-02   -0.40230E-02  6344   0.931E-02    0.113E-01
RMM:   3    -0.231458146034E+04   -0.36938E-03   -0.39840E-03  3931   0.306E-02    0.122E-01
RMM:   4    -0.231458132244E+04    0.13790E-03   -0.45249E-04  3215   0.966E-03    0.541E-02
RMM:   5    -0.231458132467E+04   -0.22315E-05   -0.88866E-05  2977   0.457E-03
 175 F= -.23354596E+04 E0= -.23354596E+04  d E =-.315603E-02  mag=     4.0000
       N       E                     dE             d eps       ncg     rms          rms(c)
DAV:   1    -0.231458089430E+04    0.42814E-03   -0.20228E-01  4464   0.328E-01    0.136E-01
RMM:   2    -0.231458368991E+04   -0.27956E-02   -0.28785E-02  6311   0.782E-02    0.107E-01
RMM:   3    -0.231458391227E+04   -0.22237E-03   -0.29562E-03  3733   0.261E-02    0.101E-01
RMM:   4    -0.231458381944E+04    0.92829E-04   -0.31536E-04  3187   0.856E-03    0.390E-02
RMM:   5    -0.231458381056E+04    0.88789E-05   -0.47933E-05  2960   0.404E-03
 176 F= -.23354622E+04 E0= -.23354622E+04  d E =-.263504E-02  mag=     4.0000
       N       E                     dE             d eps       ncg     rms          rms(c)
DAV:   1    -0.231455869693E+04    0.25123E-01   -0.23309E+00  4464   0.120E+00    0.444E-01
RMM:   2    -0.231458965718E+04   -0.30960E-01   -0.32228E-01  6361   0.276E-01    0.288E-01
RMM:   3    -0.231459255372E+04   -0.28965E-02   -0.32129E-02  5693   0.891E-02    0.300E-01
RMM:   4    -0.231459179854E+04    0.75518E-03   -0.35842E-03  4730   0.244E-02    0.138E-01
RMM:   5    -0.231459179288E+04    0.56602E-05   -0.57022E-04  3561   0.114E-02    0.139E-01
RMM:   6    -0.231459166903E+04    0.12386E-03   -0.37909E-04  3422   0.100E-02    0.783E-02
RMM:   7    -0.231459162223E+04    0.46792E-04   -0.85289E-05  3100   0.708E-03    0.158E-02
RMM:   8    -0.231459162191E+04    0.32691E-06   -0.12099E-05  2875   0.410E-03
 177 F= -.23354706E+04 E0= -.23354706E+04  d E =-.841301E-02  mag=     4.0000
       N       E                     dE             d eps       ncg     rms          rms(c)
DAV:   1    -0.231457321911E+04    0.18403E-01   -0.18644E+00  4464   0.106E+00    0.392E-01
RMM:   2    -0.231459725840E+04   -0.24039E-01   -0.24950E-01  6319   0.240E-01    0.263E-01
RMM:   3    -0.231459950847E+04   -0.22501E-02   -0.24949E-02  5533   0.781E-02    0.274E-01
RMM:   4    -0.231459884304E+04    0.66543E-03   -0.27961E-03  4455   0.217E-02    0.126E-01
RMM:   5    -0.231459884757E+04   -0.45316E-05   -0.48394E-04  3444   0.104E-02    0.130E-01
RMM:   6    -0.231459872636E+04    0.12121E-03   -0.30552E-04  3354   0.934E-03    0.643E-02
RMM:   7    -0.231459869795E+04    0.28408E-04   -0.66061E-05  3045   0.642E-03    0.136E-02
RMM:   8    -0.231459869814E+04   -0.18415E-06   -0.97763E-06  2868   0.376E-03
 178 F= -.23354780E+04 E0= -.23354780E+04  d E =-.741799E-02  mag=     4.0000
       N       E                     dE             d eps       ncg     rms          rms(c)
DAV:   1    -0.231457750983E+04    0.21188E-01   -0.19554E+00  4464   0.105E+00    0.412E-01
RMM:   2    -0.231460411814E+04   -0.26608E-01   -0.27675E-01  6361   0.248E-01    0.272E-01
RMM:   3    -0.231460661913E+04   -0.25010E-02   -0.27675E-02  5586   0.799E-02    0.284E-01
RMM:   4    -0.231460592304E+04    0.69609E-03   -0.30799E-03  4443   0.223E-02    0.129E-01
RMM:   5    -0.231460592546E+04   -0.24220E-05   -0.50204E-04  3411   0.105E-02    0.132E-01
RMM:   6    -0.231460580869E+04    0.11677E-03   -0.33629E-04  3339   0.935E-03    0.703E-02
RMM:   7    -0.231460577196E+04    0.36730E-04   -0.72868E-05  3053   0.651E-03    0.147E-02
RMM:   8    -0.231460577172E+04    0.23891E-06   -0.10584E-05  2869   0.381E-03
 179 F= -.23354857E+04 E0= -.23354857E+04  d E =-.763108E-02  mag=     4.0000
       N       E                     dE             d eps       ncg     rms          rms(c)
DAV:   1    -0.231460600720E+04   -0.23523E-03   -0.60876E-03  4976   0.814E-02    0.254E-02
RMM:   2    -0.231460606779E+04   -0.60593E-04   -0.64316E-04  5529   0.172E-02    0.138E-02
RMM:   3    -0.231460607299E+04   -0.52037E-05   -0.55777E-05  2877   0.637E-03
 180 F= -.23354860E+04 E0= -.23354860E+04  d E =-.350665E-03  mag=     4.0000
       N       E                     dE             d eps       ncg     rms          rms(c)
DAV:   1    -0.231460650716E+04   -0.43938E-03   -0.49859E-02  4496   0.179E-01    0.685E-02
RMM:   2    -0.231460717256E+04   -0.66540E-03   -0.69528E-03  6117   0.420E-02    0.408E-02
RMM:   3    -0.231460722998E+04   -0.57416E-04   -0.65857E-04  3104   0.137E-02    0.409E-02
RMM:   4    -0.231460721996E+04    0.10019E-04   -0.79437E-05  2990   0.475E-03    0.217E-02
RMM:   5    -0.231460721651E+04    0.34533E-05   -0.11404E-05  2794   0.250E-03
 181 F= -.23354873E+04 E0= -.23354873E+04  d E =-.124996E-02  mag=     4.0000
       N       E                     dE             d eps       ncg     rms          rms(c)
DAV:   1    -0.231458989218E+04    0.17328E-01   -0.16554E+00  4464   0.972E-01    0.378E-01
RMM:   2    -0.231461228115E+04   -0.22389E-01   -0.23244E-01  6353   0.228E-01    0.253E-01
RMM:   3    -0.231461444057E+04   -0.21594E-02   -0.23051E-02  5483   0.740E-02    0.275E-01
RMM:   4    -0.231461375582E+04    0.68476E-03   -0.25915E-03  4186   0.206E-02    0.125E-01
RMM:   5    -0.231461375979E+04   -0.39733E-05   -0.46281E-04  3401   0.958E-03    0.125E-01
RMM:   6    -0.231461364291E+04    0.11688E-03   -0.27565E-04  3283   0.909E-03    0.578E-02
RMM:   7    -0.231461362157E+04    0.21348E-04   -0.61697E-05  3026   0.591E-03    0.128E-02
RMM:   8    -0.231461362173E+04   -0.16019E-06   -0.83615E-06  2849   0.353E-03
 182 F= -.23354942E+04 E0= -.23354942E+04  d E =-.690507E-02  mag=     4.0000
       N       E                     dE             d eps       ncg     rms          rms(c)
DAV:   1    -0.231460808705E+04    0.55345E-02   -0.66709E-01  4464   0.616E-01    0.240E-01
RMM:   2    -0.231461712828E+04   -0.90412E-02   -0.93888E-02  6322   0.144E-01    0.159E-01
RMM:   3    -0.231461797021E+04   -0.84193E-03   -0.91250E-03  4718   0.459E-02    0.169E-01
RMM:   4    -0.231461771425E+04    0.25595E-03   -0.10401E-03  3494   0.135E-02    0.781E-02
RMM:   5    -0.231461771662E+04   -0.23654E-05   -0.18516E-04  3058   0.669E-03    0.782E-02
RMM:   6    -0.231461767324E+04    0.43383E-04   -0.10887E-04  3009   0.588E-03    0.386E-02
RMM:   7    -0.231461766392E+04    0.93173E-05   -0.26461E-05  2916   0.418E-03
 183 F= -.23354986E+04 E0= -.23354985E+04  d E =-.437378E-02  mag=     4.0000
       N       E                     dE             d eps       ncg     rms          rms(c)
DAV:   1    -0.231461806035E+04   -0.38711E-03   -0.45221E-02  4592   0.160E-01    0.637E-02
RMM:   2    -0.231461867933E+04   -0.61898E-03   -0.64118E-03  5799   0.384E-02    0.434E-02
RMM:   3    -0.231461874065E+04   -0.61319E-04   -0.62957E-04  3094   0.128E-02    0.486E-02
RMM:   4    -0.231461871915E+04    0.21490E-04   -0.74172E-05  2933   0.478E-03    0.211E-02
RMM:   5    -0.231461871990E+04   -0.74712E-06   -0.14140E-05  2677   0.208E-03
 184 F= -.23354997E+04 E0= -.23354997E+04  d E =-.113855E-02  mag=     4.0000
       N       E                     dE             d eps       ncg     rms          rms(c)
DAV:   1    -0.231461479643E+04    0.39227E-02   -0.15539E-01  4464   0.322E-01    0.113E-01
RMM:   2    -0.231461683710E+04   -0.20407E-02   -0.21058E-02  6249   0.722E-02    0.796E-02
RMM:   3    -0.231461700713E+04   -0.17003E-03   -0.20824E-03  3607   0.236E-02    0.765E-02
RMM:   4    -0.231461695465E+04    0.52477E-04   -0.22724E-04  3101   0.754E-03    0.358E-02
RMM:   5    -0.231461695283E+04    0.18185E-05   -0.36209E-05  2872   0.355E-03
 185 F= -.23354978E+04 E0= -.23354978E+04  d E =0.189059E-02  mag=     4.0000
       N       E                     dE             d eps       ncg     rms          rms(c)
DAV:   1    -0.231460310946E+04    0.13845E-01   -0.13488E+00  4464   0.848E-01    0.344E-01
RMM:   2    -0.231462150954E+04   -0.18400E-01   -0.19151E-01  6369   0.201E-01    0.222E-01
RMM:   3    -0.231462340827E+04   -0.18987E-02   -0.19099E-02  5248   0.665E-02    0.256E-01
RMM:   4    -0.231462281431E+04    0.59396E-03   -0.21338E-03  3840   0.182E-02    0.113E-01
RMM:   5    -0.231462280050E+04    0.13810E-04   -0.34622E-04  3304   0.837E-03    0.102E-01
RMM:   6    -0.231462272824E+04    0.72265E-04   -0.21407E-04  3154   0.817E-03    0.547E-02
RMM:   7    -0.231462270696E+04    0.21280E-04   -0.54553E-05  3024   0.528E-03    0.129E-02
RMM:   8    -0.231462270694E+04    0.14712E-07   -0.72444E-06  2833   0.320E-03
 186 F= -.23355040E+04 E0= -.23355040E+04  d E =-.624883E-02  mag=     4.0000
       N       E                     dE             d eps       ncg     rms          rms(c)
DAV:   1    -0.231460688300E+04    0.15824E-01   -0.14951E+00  4464   0.888E-01    0.364E-01
RMM:   2    -0.231462732355E+04   -0.20441E-01   -0.21301E-01  6355   0.212E-01    0.231E-01
RMM:   3    -0.231462936404E+04   -0.20405E-02   -0.20799E-02  5330   0.686E-02    0.262E-01
RMM:   4    -0.231462875887E+04    0.60518E-03   -0.23953E-03  4008   0.193E-02    0.121E-01
RMM:   5    -0.231462875188E+04    0.69885E-05   -0.40365E-04  3335   0.911E-03    0.114E-01
RMM:   6    -0.231462866685E+04    0.85028E-04   -0.25297E-04  3189   0.854E-03    0.609E-02
RMM:   7    -0.231462864162E+04    0.25227E-04   -0.58489E-05  3010   0.552E-03    0.137E-02
RMM:   8    -0.231462864210E+04   -0.48045E-06   -0.82304E-06  2844   0.325E-03
 187 F= -.23355105E+04 E0= -.23355105E+04  d E =-.648778E-02  mag=     4.0000
       N       E                     dE             d eps       ncg     rms          rms(c)
DAV:   1    -0.231460144481E+04    0.27197E-01   -0.23684E+00  4464   0.112E+00    0.458E-01
RMM:   2    -0.231463379712E+04   -0.32352E-01   -0.33726E-01  6367   0.268E-01    0.291E-01
RMM:   3    -0.231463706922E+04   -0.32721E-02   -0.33224E-02  5573   0.868E-02    0.330E-01
RMM:   4    -0.231463610476E+04    0.96447E-03   -0.37814E-03  4473   0.241E-02    0.152E-01
RMM:   5    -0.231463609458E+04    0.10174E-04   -0.66346E-04  3557   0.109E-02    0.145E-01
RMM:   6    -0.231463595629E+04    0.13829E-03   -0.40674E-04  3390   0.105E-02    0.768E-02
RMM:   7    -0.231463591624E+04    0.40048E-04   -0.90850E-05  3135   0.653E-03    0.169E-02
RMM:   8    -0.231463591704E+04   -0.79132E-06   -0.11842E-05  2857   0.378E-03
 188 F= -.23355185E+04 E0= -.23355185E+04  d E =-.797371E-02  mag=     4.0000
       N       E                     dE             d eps       ncg     rms          rms(c)
DAV:   1    -0.231462753436E+04    0.83819E-02   -0.37241E-01  4464   0.423E-01    0.184E-01
RMM:   2    -0.231463276705E+04   -0.52327E-02   -0.53992E-02  6365   0.105E-01    0.131E-01
RMM:   3    -0.231463325194E+04   -0.48489E-03   -0.50570E-03  4040   0.337E-02    0.145E-01
RMM:   4    -0.231463306343E+04    0.18851E-03   -0.61291E-04  3250   0.107E-02    0.619E-02
RMM:   5    -0.231463306239E+04    0.10331E-05   -0.10926E-04  3043   0.506E-03    0.549E-02
RMM:   6    -0.231463304099E+04    0.21403E-04   -0.67797E-05  2927   0.485E-03    0.291E-02
RMM:   7    -0.231463303421E+04    0.67811E-05   -0.14319E-05  2859   0.295E-03
 189 F= -.23355153E+04 E0= -.23355153E+04  d E =0.316905E-02  mag=     4.0000
       N       E                     dE             d eps       ncg     rms          rms(c)
DAV:   1    -0.231461049563E+04    0.22545E-01   -0.19800E+00  4464   0.102E+00    0.419E-01
RMM:   2    -0.231463782398E+04   -0.27328E-01   -0.28499E-01  6370   0.246E-01    0.265E-01
RMM:   3    -0.231464054556E+04   -0.27216E-02   -0.28031E-02  5484   0.801E-02    0.295E-01
RMM:   4    -0.231463978738E+04    0.75818E-03   -0.31773E-03  4299   0.222E-02    0.139E-01
RMM:   5    -0.231463977340E+04    0.13980E-04   -0.53159E-04  3437   0.102E-02    0.132E-01
RMM:   6    -0.231463965715E+04    0.11625E-03   -0.32376E-04  3300   0.952E-03    0.706E-02
RMM:   7    -0.231463962242E+04    0.34722E-04   -0.77550E-05  3075   0.616E-03    0.155E-02
RMM:   8    -0.231463962258E+04   -0.15539E-06   -0.10440E-05  2857   0.358E-03
 190 F= -.23355226E+04 E0= -.23355226E+04  d E =-.724293E-02  mag=     4.0000
       N       E                     dE             d eps       ncg     rms          rms(c)
DAV:   1    -0.231463994200E+04   -0.31958E-03   -0.42355E-02  4624   0.153E-01    0.624E-02
RMM:   2    -0.231464054521E+04   -0.60320E-03   -0.62855E-03  5803   0.374E-02    0.402E-02
RMM:   3    -0.231464060201E+04   -0.56803E-04   -0.60372E-04  3075   0.121E-02    0.424E-02
RMM:   4    -0.231464058750E+04    0.14507E-04   -0.71174E-05  2911   0.445E-03    0.211E-02
RMM:   5    -0.231464058742E+04    0.85711E-07   -0.11770E-05  2612   0.200E-03
 191 F= -.23355237E+04 E0= -.23355237E+04  d E =-.106946E-02  mag=     4.0000
       N       E                     dE             d eps       ncg     rms          rms(c)
DAV:   1    -0.231464087654E+04   -0.28904E-03   -0.77745E-03  4576   0.667E-02    0.301E-02
RMM:   2    -0.231464099968E+04   -0.12313E-03   -0.12347E-03  4686   0.170E-02    0.312E-02
RMM:   3    -0.231464100504E+04   -0.53677E-05   -0.13157E-04  2885   0.661E-03    0.229E-02
RMM:   4    -0.231464100240E+04    0.26407E-05   -0.13994E-05  2651   0.228E-03
 192 F= -.23355241E+04 E0= -.23355241E+04  d E =-.468543E-03  mag=     4.0000
       N       E                     dE             d eps       ncg     rms          rms(c)
DAV:   1    -0.231464131371E+04   -0.30867E-03   -0.99434E-03  4472   0.741E-02    0.335E-02
RMM:   2    -0.231464146689E+04   -0.15318E-03   -0.15577E-03  4881   0.182E-02    0.290E-02
RMM:   3    -0.231464148280E+04   -0.15904E-04   -0.17188E-04  2889   0.710E-03    0.311E-02
RMM:   4    -0.231464147491E+04    0.78867E-05   -0.18331E-05  2562   0.269E-03
 193 F= -.23355247E+04 E0= -.23355247E+04  d E =-.531130E-03  mag=     4.0000
       N       E                     dE             d eps       ncg     rms          rms(c)
DAV:   1    -0.231464171415E+04   -0.23135E-03   -0.48455E-03  4392   0.536E-02    0.233E-02
RMM:   2    -0.231464179327E+04   -0.79121E-04   -0.81902E-04  4330   0.139E-02    0.182E-02
RMM:   3    -0.231464179999E+04   -0.67189E-05   -0.83205E-05  2773   0.573E-03
 194 F= -.23355250E+04 E0= -.23355250E+04  d E =-.377050E-03  mag=     4.0000
       N       E                     dE             d eps       ncg     rms          rms(c)
DAV:   1    -0.231463531705E+04    0.64762E-02   -0.28996E-01  4464   0.395E-01    0.157E-01
RMM:   2    -0.231463918596E+04   -0.38689E-02   -0.40014E-02  6317   0.920E-02    0.108E-01
RMM:   3    -0.231463953395E+04   -0.34799E-03   -0.37517E-03  3822   0.298E-02    0.115E-01
RMM:   4    -0.231463940914E+04    0.12481E-03   -0.44270E-04  3209   0.958E-03    0.499E-02
RMM:   5    -0.231463940892E+04    0.22232E-06   -0.81116E-05  2935   0.444E-03
 195 F= -.23355224E+04 E0= -.23355224E+04  d E =0.259769E-02  mag=     4.0000
       N       E                     dE             d eps       ncg     rms          rms(c)
DAV:   1    -0.231463719710E+04    0.22120E-02   -0.33686E-01  4464   0.427E-01    0.171E-01
RMM:   2    -0.231464172688E+04   -0.45298E-02   -0.47099E-02  6303   0.100E-01    0.115E-01
RMM:   3    -0.231464222586E+04   -0.49898E-03   -0.47966E-03  3976   0.327E-02    0.140E-01
RMM:   4    -0.231464204986E+04    0.17600E-03   -0.52410E-04  3150   0.968E-03    0.528E-02
RMM:   5    -0.231464204308E+04    0.67798E-05   -0.71058E-05  2992   0.415E-03
 196 F= -.23355253E+04 E0= -.23355253E+04  d E =-.289428E-02  mag=     4.0000
       N       E                     dE             d eps       ncg     rms          rms(c)
DAV:   1    -0.231464236405E+04   -0.31419E-03   -0.42105E-02  4464   0.153E-01    0.693E-02
RMM:   2    -0.231464300832E+04   -0.64428E-03   -0.62299E-03  5739   0.369E-02    0.819E-02
RMM:   3    -0.231464299591E+04    0.12409E-04   -0.66317E-04  3145   0.135E-02    0.448E-02
RMM:   4    -0.231464298203E+04    0.13883E-04   -0.64757E-05  2931   0.445E-03    0.204E-02
RMM:   5    -0.231464298370E+04   -0.16688E-05   -0.16269E-05  2785   0.256E-03
 197 F= -.23355264E+04 E0= -.23355264E+04  d E =-.104875E-02  mag=     4.0000
       N       E                     dE             d eps       ncg     rms          rms(c)
DAV:   1    -0.231462084980E+04    0.22132E-01   -0.12120E+00  4464   0.816E-01    0.325E-01
RMM:   2    -0.231463727989E+04   -0.16430E-01   -0.16851E-01  6381   0.192E-01    0.250E-01
RMM:   3    -0.231463866444E+04   -0.13846E-02   -0.16205E-02  5275   0.618E-02    0.252E-01
RMM:   4    -0.231463808800E+04    0.57645E-03   -0.19146E-03  3730   0.174E-02    0.111E-01
RMM:   5    -0.231463808126E+04    0.67355E-05   -0.34685E-04  3343   0.856E-03    0.998E-02
RMM:   6    -0.231463800104E+04    0.80217E-04   -0.20313E-04  3203   0.817E-03    0.474E-02
RMM:   7    -0.231463798610E+04    0.14942E-04   -0.48992E-05  2999   0.519E-03    0.132E-02
RMM:   8    -0.231463798559E+04    0.50805E-06   -0.88285E-06  2844   0.311E-03
 198 F= -.23355209E+04 E0= -.23355209E+04  d E =0.545849E-02  mag=     4.0000
       N       E                     dE             d eps       ncg     rms          rms(c)
DAV:   1    -0.231463423092E+04    0.37552E-02   -0.14238E-01  4464   0.282E-01    0.112E-01
RMM:   2    -0.231463615482E+04   -0.19239E-02   -0.19851E-02  6219   0.663E-02    0.792E-02
RMM:   3    -0.231463632890E+04   -0.17409E-03   -0.18820E-03  3435   0.208E-02    0.842E-02
RMM:   4    -0.231463626452E+04    0.64382E-04   -0.22689E-04  3069   0.724E-03    0.375E-02
RMM:   5    -0.231463626475E+04   -0.23405E-06   -0.42226E-05  2875   0.328E-03
 199 F= -.23355190E+04 E0= -.23355190E+04  d E =0.187028E-02  mag=     4.0000
       N       E                     dE             d eps       ncg     rms          rms(c)
DAV:   1    -0.231463662369E+04   -0.35917E-03   -0.20712E-02  4456   0.107E-01    0.442E-02
RMM:   2    -0.231463690337E+04   -0.27968E-03   -0.28600E-03  5406   0.247E-02    0.396E-02
RMM:   3    -0.231463692946E+04   -0.26094E-04   -0.30494E-04  2970   0.883E-03    0.382E-02
RMM:   4    -0.231463691656E+04    0.12903E-04   -0.29291E-05  2680   0.303E-03    0.974E-03
RMM:   5    -0.231463691590E+04    0.65850E-06   -0.33971E-06  2157   0.119E-03
 200 F= -.23355198E+04 E0= -.23355198E+04  d E =-.710143E-03  mag=     4.0000
       N       E                     dE             d eps       ncg     rms          rms(c)
DAV:   1    -0.231463692146E+04   -0.49005E-05   -0.38478E-06  3696   0.210E-03    0.716E-03
RMM:   2    -0.231463692583E+04   -0.43699E-05   -0.88644E-06  1824   0.188E-03
 201 F= -.23355198E+04 E0= -.23355198E+04  d E =-.998390E-05  mag=     4.0000
