       N       E                     dE             d eps       ncg     rms          rms(c)
DAV:   1     0.129238343294E+05    0.12924E+05   -0.83247E+05  4464   0.144E+03
DAV:   2    -0.103133287022E+04   -0.13955E+05   -0.13347E+05  5080   0.331E+02
DAV:   3    -0.246567754964E+04   -0.14343E+04   -0.14195E+04  5384   0.113E+02
DAV:   4    -0.250960613620E+04   -0.43929E+02   -0.43703E+02  6664   0.291E+01
DAV:   5    -0.251039426244E+04   -0.78813E+00   -0.78664E+00  5776   0.335E+00    0.170E+02
RMM:   6    -0.148540932042E+04    0.10250E+04   -0.19214E+03  4415   0.384E+01    0.726E+01
RMM:   7    -0.165192678553E+04   -0.16652E+03   -0.29385E+02  5068   0.145E+01    0.514E+01
RMM:   8    -0.170914802169E+04   -0.57221E+02   -0.72265E+01  5217   0.823E+00    0.442E+01
RMM:   9    -0.177677155422E+04   -0.67624E+02   -0.74885E+01  4971   0.810E+00    0.354E+01
RMM:  10    -0.189674852473E+04   -0.11998E+03   -0.63502E+01  5325   0.781E+00    0.334E+01
RMM:  11    -0.195419923609E+04   -0.57451E+02   -0.28797E+01  5457   0.482E+00    0.200E+01
RMM:  12    -0.205110432614E+04   -0.96905E+02   -0.41218E+01  4730   0.491E+00    0.166E+01
RMM:  13    -0.210549613117E+04   -0.54392E+02   -0.21539E+01  5026   0.366E+00    0.126E+01
RMM:  14    -0.222863296690E+04   -0.12314E+03   -0.10382E+02  4428   0.723E+00    0.114E+01
RMM:  15    -0.226779484734E+04   -0.39162E+02   -0.30549E+01  4417   0.431E+00    0.743E+00
RMM:  16    -0.229086757594E+04   -0.23073E+02   -0.22110E+01  4536   0.333E+00    0.325E+00
RMM:  17    -0.229580418205E+04   -0.49366E+01   -0.47839E+00  4583   0.204E+00    0.217E+00
RMM:  18    -0.229838171734E+04   -0.25775E+01   -0.18799E+00  4746   0.831E-01    0.195E+00
RMM:  19    -0.229903502483E+04   -0.65331E+00   -0.36180E-01  4740   0.617E-01    0.150E+00
RMM:  20    -0.229923022501E+04   -0.19520E+00   -0.10953E-01  4848   0.222E-01    0.154E+00
RMM:  21    -0.229925780235E+04   -0.27577E-01   -0.13651E-02  5131   0.122E-01    0.182E+00
RMM:  22    -0.229930694205E+04   -0.49140E-01   -0.20781E-02  4445   0.798E-02    0.796E-01
RMM:  23    -0.229942118967E+04   -0.11425E+00   -0.22069E-02  4426   0.112E-01    0.785E-01
RMM:  24    -0.229944750952E+04   -0.26320E-01   -0.12982E-02  4676   0.881E-02    0.894E-01
RMM:  25    -0.229944870484E+04   -0.11953E-02   -0.51526E-03  5005   0.509E-02    0.115E+00
RMM:  26    -0.229944666307E+04    0.20418E-02   -0.56502E-04  4751   0.167E-02    0.120E+00
RMM:  27    -0.229946116465E+04   -0.14502E-01   -0.33350E-03  4312   0.251E-02    0.911E-01
RMM:  28    -0.229947763154E+04   -0.16467E-01   -0.43260E-03  4482   0.348E-02    0.773E-01
RMM:  29    -0.229950942722E+04   -0.31796E-01   -0.12423E-02  4557   0.541E-02    0.187E+00
RMM:  30    -0.229950166701E+04    0.77602E-02   -0.13026E-03  3914   0.291E-02    0.920E-01
RMM:  31    -0.229951404844E+04   -0.12381E-01   -0.42634E-03  4425   0.443E-02    0.110E+00
RMM:  32    -0.229951924122E+04   -0.51928E-02   -0.17076E-03  4482   0.280E-02    0.901E-01
RMM:  33    -0.229951977416E+04   -0.53294E-03   -0.17386E-03  4422   0.258E-02    0.721E-01
RMM:  34    -0.229951890144E+04    0.87272E-03   -0.29252E-03  4321   0.303E-02    0.664E-01
RMM:  35    -0.229952008275E+04   -0.11813E-02   -0.11109E-03  4234   0.233E-02    0.704E-01
RMM:  36    -0.229952059237E+04   -0.50963E-03   -0.70300E-04  4129   0.161E-02    0.738E-01
RMM:  37    -0.229951926044E+04    0.13319E-02   -0.54120E-04  3864   0.152E-02    0.808E-01
RMM:  38    -0.229951705877E+04    0.22017E-02   -0.52025E-04  3955   0.111E-02    0.908E-01
RMM:  39    -0.229951592246E+04    0.11363E-02   -0.14363E-04  3031   0.738E-03    0.956E-01
RMM:  40    -0.229951771318E+04   -0.17907E-02   -0.11116E-04  2924   0.513E-03    0.882E-01
RMM:  41    -0.229952154547E+04   -0.38323E-02   -0.87047E-04  3769   0.109E-02    0.746E-01
RMM:  42    -0.229952529545E+04   -0.37500E-02   -0.12037E-03  3834   0.138E-02    0.704E-01
RMM:  43    -0.229952422100E+04    0.10744E-02   -0.86114E-05  2820   0.521E-03    0.683E-01
RMM:  44    -0.229952414653E+04    0.74476E-04   -0.14317E-05  2620   0.246E-03    0.693E-01
RMM:  45    -0.229952332181E+04    0.82472E-03   -0.53856E-05  2761   0.302E-03    0.703E-01
RMM:  46    -0.229952626730E+04   -0.29455E-02   -0.61564E-04  3450   0.911E-03    0.715E-01
RMM:  47    -0.229952675034E+04   -0.48303E-03   -0.86990E-05  2812   0.536E-03    0.702E-01
RMM:  48    -0.229952683969E+04   -0.89352E-04   -0.18161E-05  2669   0.226E-03    0.704E-01
RMM:  49    -0.229952681257E+04    0.27119E-04   -0.13394E-06  2352   0.148E-03    0.702E-01
RMM:  50    -0.229952664768E+04    0.16489E-03   -0.58879E-06  2340   0.136E-03    0.692E-01
RMM:  51    -0.229952572300E+04    0.92468E-03   -0.84444E-05  2788   0.348E-03    0.668E-01
RMM:  52    -0.229952303892E+04    0.26841E-02   -0.67408E-04  3689   0.953E-03    0.672E-01
RMM:  53    -0.229951663154E+04    0.64074E-02   -0.25132E-03  4240   0.189E-02    0.897E-01
RMM:  54    -0.229952192816E+04   -0.52966E-02   -0.11151E-03  3895   0.122E-02    0.712E-01
RMM:  55    -0.229952545899E+04   -0.35308E-02   -0.10695E-03  3778   0.126E-02    0.671E-01
RMM:  56    -0.229953623187E+04   -0.10773E-01   -0.57098E-03  4559   0.280E-02    0.127E+00
RMM:  57    -0.229954353369E+04   -0.73018E-02   -0.26145E-03  4047   0.226E-02    0.167E+00
RMM:  58    -0.229954398973E+04   -0.45605E-03   -0.47086E-04  3139   0.891E-03    0.156E+00
RMM:  59    -0.229954242735E+04    0.15624E-02   -0.49035E-05  2783   0.444E-03    0.147E+00
RMM:  60    -0.229954199956E+04    0.42779E-03   -0.18437E-05  2640   0.231E-03    0.148E+00
RMM:  61    -0.229954148857E+04    0.51099E-03   -0.27799E-05  2711   0.217E-03    0.144E+00
RMM:  62    -0.229953584407E+04    0.56445E-02   -0.83382E-04  3805   0.105E-02    0.992E-01
RMM:  63    -0.229953231856E+04    0.35255E-02   -0.66697E-04  3344   0.114E-02    0.886E-01
RMM:  64    -0.229953270035E+04   -0.38179E-03   -0.72197E-05  2768   0.439E-03    0.958E-01
RMM:  65    -0.229953280474E+04   -0.10439E-03   -0.84284E-06  2468   0.207E-03    0.945E-01
RMM:  66    -0.229953131213E+04    0.14926E-02   -0.10205E-04  2842   0.393E-03    0.836E-01
RMM:  67    -0.229952796248E+04    0.33497E-02   -0.76335E-04  3579   0.101E-02    0.682E-01
RMM:  68    -0.229952554675E+04    0.24157E-02   -0.60814E-04  3331   0.994E-03    0.667E-01
RMM:  69    -0.229952319117E+04    0.23556E-02   -0.59617E-04  3619   0.954E-03    0.693E-01
RMM:  70    -0.229952118909E+04    0.20021E-02   -0.36687E-04  3265   0.823E-03    0.749E-01
RMM:  71    -0.229952059937E+04    0.58972E-03   -0.82961E-05  2870   0.486E-03    0.771E-01
RMM:  72    -0.229952031814E+04    0.28123E-03   -0.17412E-05  2701   0.269E-03    0.781E-01
RMM:  73    -0.229952056808E+04   -0.24994E-03   -0.37043E-06  2397   0.190E-03    0.772E-01
RMM:  74    -0.229952177840E+04   -0.12103E-02   -0.88422E-05  2720   0.354E-03    0.734E-01
RMM:  75    -0.229952393923E+04   -0.21608E-02   -0.35910E-04  3149   0.697E-03    0.689E-01
RMM:  76    -0.229952731094E+04   -0.33717E-02   -0.98170E-04  3770   0.114E-02    0.716E-01
RMM:  77    -0.229952969530E+04   -0.23844E-02   -0.63671E-04  3336   0.103E-02    0.795E-01
RMM:  78    -0.229953237620E+04   -0.26809E-02   -0.58033E-04  3595   0.924E-03    0.944E-01
RMM:  79    -0.229953419092E+04   -0.18147E-02   -0.25120E-04  3011   0.733E-03    0.104E+00
RMM:  80    -0.229953434040E+04   -0.14948E-03   -0.38693E-05  2809   0.388E-03    0.102E+00
RMM:  81    -0.229953200548E+04    0.23349E-02   -0.20912E-04  2826   0.541E-03    0.843E-01
RMM:  82    -0.229953115889E+04    0.84660E-03   -0.81530E-05  2713   0.427E-03    0.839E-01
RMM:  83    -0.229953135209E+04   -0.19321E-03   -0.81767E-06  2443   0.179E-03    0.859E-01
RMM:  84    -0.229953075112E+04    0.60097E-03   -0.22771E-05  2634   0.200E-03    0.815E-01
RMM:  85    -0.229952855665E+04    0.21945E-02   -0.32002E-04  3157   0.644E-03    0.708E-01
RMM:  86    -0.229952596106E+04    0.25956E-02   -0.61656E-04  3526   0.920E-03    0.667E-01
RMM:  87    -0.229952511224E+04    0.84882E-03   -0.15948E-04  2917   0.552E-03    0.681E-01
RMM:  88    -0.229952459005E+04    0.52219E-03   -0.51621E-05  2821   0.330E-03    0.686E-01
RMM:  89    -0.229952388796E+04    0.70209E-03   -0.51845E-05  2839   0.356E-03    0.695E-01
RMM:  90    -0.229952353172E+04    0.35623E-03   -0.19060E-05  2662   0.268E-03    0.702E-01
RMM:  91    -0.229952769419E+04   -0.41625E-02   -0.11434E-03  3623   0.121E-02    0.756E-01
RMM:  92    -0.229952803950E+04   -0.34531E-03   -0.12867E-04  2819   0.648E-03    0.731E-01
RMM:  93    -0.229952685025E+04    0.11893E-02   -0.64417E-05  2605   0.349E-03    0.695E-01
RMM:  94    -0.229952733582E+04   -0.48557E-03   -0.14037E-05  2197   0.195E-03    0.722E-01
RMM:  95    -0.229952872315E+04   -0.13873E-02   -0.14439E-04  2856   0.440E-03    0.770E-01
RMM:  96    -0.229952791269E+04    0.81046E-03   -0.38392E-05  2615   0.327E-03    0.719E-01
RMM:  97    -0.229952784085E+04    0.71834E-04   -0.36588E-06  2093   0.142E-03    0.730E-01
RMM:  98    -0.229952736125E+04    0.47960E-03   -0.19907E-05  2416   0.190E-03    0.712E-01
RMM:  99    -0.229952384361E+04    0.35176E-02   -0.99082E-04  3791   0.114E-02    0.693E-01
RMM: 100    -0.229952008075E+04    0.37629E-02   -0.11914E-03  3793   0.141E-02    0.813E-01
RMM: 101    -0.229951250151E+04    0.75792E-02   -0.29648E-03  4507   0.204E-02    0.113E+00
RMM: 102    -0.229950575243E+04    0.67491E-02   -0.17071E-03  4034   0.171E-02    0.138E+00
RMM: 103    -0.229950618706E+04   -0.43462E-03   -0.13102E-04  2927   0.559E-03    0.136E+00
RMM: 104    -0.229950576644E+04    0.42061E-03   -0.17261E-05  2707   0.275E-03    0.137E+00
RMM: 105    -0.229950592220E+04   -0.15576E-03   -0.49364E-06  2528   0.181E-03    0.136E+00
RMM: 106    -0.229950427121E+04    0.16510E-02   -0.55734E-05  2778   0.296E-03    0.141E+00
RMM: 107    -0.229950181626E+04    0.24550E-02   -0.11854E-04  2907   0.429E-03    0.149E+00
RMM: 108    -0.229950168629E+04    0.12997E-03   -0.10165E-05  2456   0.220E-03    0.149E+00
RMM: 109    -0.229950092932E+04    0.75697E-03   -0.12853E-05  2438   0.173E-03    0.151E+00
RMM: 110    -0.229950142399E+04   -0.49467E-03   -0.33715E-06  2155   0.146E-03    0.150E+00
RMM: 111    -0.229950472212E+04   -0.32981E-02   -0.18647E-04  2852   0.499E-03    0.139E+00
RMM: 112    -0.229950466883E+04    0.53296E-04   -0.16057E-05  2518   0.255E-03    0.140E+00
RMM: 113    -0.229950583582E+04   -0.11670E-02   -0.32469E-05  2656   0.242E-03    0.136E+00
RMM: 114    -0.229950769581E+04   -0.18600E-02   -0.82282E-05  2836   0.351E-03    0.129E+00
RMM: 115    -0.229951374277E+04   -0.60470E-02   -0.10202E-03  3852   0.118E-02    0.106E+00
RMM: 116    -0.229950769154E+04    0.60512E-02   -0.87922E-04  3759   0.107E-02    0.131E+00
RMM: 117    -0.229950618391E+04    0.15076E-02   -0.11187E-04  2827   0.552E-03    0.136E+00
RMM: 118    -0.229950605970E+04    0.12421E-03   -0.15543E-05  2708   0.235E-03    0.136E+00
RMM: 119    -0.229950600367E+04    0.56029E-04   -0.14397E-06  2283   0.126E-03    0.136E+00
RMM: 120    -0.229950643614E+04   -0.43248E-03   -0.32759E-06  1780   0.106E-03    0.135E+00
RMM: 121    -0.229951693069E+04   -0.10495E-01   -0.30835E-03  4316   0.200E-02    0.949E-01
RMM: 122    -0.229951852698E+04   -0.15963E-02   -0.44782E-04  3115   0.110E-02    0.888E-01
RMM: 123    -0.229952017289E+04   -0.16459E-02   -0.29656E-04  3213   0.624E-03    0.829E-01
RMM: 124    -0.229952181563E+04   -0.16427E-02   -0.23133E-04  2993   0.624E-03    0.778E-01
RMM: 125    -0.229952306654E+04   -0.12509E-02   -0.17233E-04  3046   0.571E-03    0.745E-01
RMM: 126    -0.229952566563E+04   -0.25991E-02   -0.59797E-04  3543   0.953E-03    0.730E-01
RMM: 127    -0.229952709311E+04   -0.14275E-02   -0.29520E-04  3006   0.766E-03    0.739E-01
RMM: 128    -0.229952747932E+04   -0.38621E-03   -0.75613E-05  2829   0.461E-03    0.739E-01
RMM: 129    -0.229953031316E+04   -0.28338E-02   -0.53929E-04  3791   0.885E-03    0.872E-01
RMM: 130    -0.229953171762E+04   -0.14045E-02   -0.22556E-04  2930   0.708E-03    0.921E-01
RMM: 131    -0.229953364497E+04   -0.19274E-02   -0.26972E-04  3205   0.620E-03    0.104E+00
RMM: 132    -0.229953371170E+04   -0.66729E-04   -0.21499E-05  2752   0.375E-03    0.101E+00
RMM: 133    -0.229953252403E+04    0.11877E-02   -0.52533E-05  2515   0.291E-03    0.930E-01
RMM: 134    -0.229953155284E+04    0.97119E-03   -0.62680E-05  2766   0.320E-03    0.885E-01
RMM: 135    -0.229953087544E+04    0.67741E-03   -0.44329E-05  2636   0.264E-03    0.853E-01
RMM: 136    -0.229953186550E+04   -0.99006E-03   -0.39010E-05  2518   0.276E-03    0.929E-01
RMM: 137    -0.229953161258E+04    0.25292E-03   -0.37366E-06  2201   0.157E-03    0.888E-01
RMM: 138    -0.229953103531E+04    0.57727E-03   -0.18597E-05  2305   0.165E-03    0.858E-01
RMM: 139    -0.229953173753E+04   -0.70222E-03   -0.21016E-05  2343   0.199E-03    0.915E-01
RMM: 140    -0.229953153725E+04    0.20028E-03   -0.22231E-06  2014   0.129E-03    0.883E-01
RMM: 141    -0.229953523504E+04   -0.36978E-02   -0.48679E-04  3370   0.810E-03    0.117E+00
RMM: 142    -0.229953958530E+04   -0.43503E-02   -0.66871E-04  3465   0.103E-02    0.143E+00
RMM: 143    -0.229954182630E+04   -0.22410E-02   -0.28414E-04  3024   0.699E-03    0.152E+00
RMM: 144    -0.229954164931E+04    0.17700E-03   -0.32191E-05  2658   0.333E-03    0.147E+00
RMM: 145    -0.229953969132E+04    0.19580E-02   -0.68918E-05  2701   0.324E-03    0.133E+00
RMM: 146    -0.229953514181E+04    0.45495E-02   -0.64741E-04  3475   0.922E-03    0.999E-01
RMM: 147    -0.229953378205E+04    0.13598E-02   -0.17033E-04  2853   0.669E-03    0.101E+00
RMM: 148    -0.229953394533E+04   -0.16328E-03   -0.23706E-05  2668   0.250E-03    0.103E+00
RMM: 149    -0.229953395873E+04   -0.13397E-04   -0.10862E-06  2095   0.127E-03    0.102E+00
RMM: 150    -0.229953380961E+04    0.14912E-03   -0.14683E-06  2000   0.977E-04    0.101E+00
RMM: 151    -0.229953275994E+04    0.10497E-02   -0.46347E-05  2746   0.268E-03    0.931E-01
RMM: 152    -0.229953180793E+04    0.95201E-03   -0.55268E-05  2758   0.298E-03    0.886E-01
RMM: 153    -0.229953248899E+04   -0.68106E-03   -0.14155E-05  2438   0.208E-03    0.951E-01
RMM: 154    -0.229953346333E+04   -0.97434E-03   -0.45506E-05  2647   0.275E-03    0.101E+00
RMM: 155    -0.229953321978E+04    0.24355E-03   -0.33657E-06  1951   0.152E-03    0.968E-01
RMM: 156    -0.229952992240E+04    0.32974E-02   -0.56085E-04  3367   0.852E-03    0.750E-01
RMM: 157    -0.229952688443E+04    0.30380E-02   -0.79266E-04  3658   0.112E-02    0.689E-01
RMM: 158    -0.229952535104E+04    0.15334E-02   -0.39463E-04  3143   0.762E-03    0.692E-01
RMM: 159    -0.229952375659E+04    0.15944E-02   -0.29408E-04  3215   0.677E-03    0.707E-01
RMM: 160    -0.229952184772E+04    0.19089E-02   -0.35562E-04  3198   0.788E-03    0.755E-01
RMM: 161    -0.229950933586E+04    0.12512E-01   -0.64582E-03  4704   0.294E-02    0.125E+00
RMM: 162    -0.229950710352E+04    0.22323E-02   -0.73673E-04  3492   0.142E-02    0.132E+00
RMM: 163    -0.229950635406E+04    0.74946E-03   -0.16321E-04  2957   0.431E-03    0.134E+00
RMM: 164    -0.229950616436E+04    0.18970E-03   -0.12460E-05  2748   0.282E-03    0.135E+00
RMM: 165    -0.229950716242E+04   -0.99806E-03   -0.20993E-05  2526   0.221E-03    0.131E+00
RMM: 166    -0.229950598795E+04    0.11745E-02   -0.27054E-05  2576   0.225E-03    0.135E+00
RMM: 167    -0.229950462197E+04    0.13660E-02   -0.41560E-05  2772   0.269E-03    0.140E+00
RMM: 168    -0.229950526287E+04   -0.64090E-03   -0.59601E-06  2208   0.157E-03    0.138E+00
RMM: 169    -0.229951176481E+04   -0.65019E-02   -0.97000E-04  3737   0.114E-02    0.114E+00
RMM: 170    -0.229951754009E+04   -0.57753E-02   -0.14402E-03  4004   0.151E-02    0.906E-01
RMM: 171    -0.229951592087E+04    0.16192E-02   -0.91054E-05  2810   0.456E-03    0.975E-01
RMM: 172    -0.229951651853E+04   -0.59766E-03   -0.25340E-05  2654   0.257E-03    0.951E-01
RMM: 173    -0.229951613948E+04    0.37905E-03   -0.65246E-06  2426   0.169E-03    0.968E-01
RMM: 174    -0.229951630110E+04   -0.16162E-03   -0.17575E-06  2153   0.111E-03    0.961E-01
RMM: 175    -0.229951658640E+04   -0.28531E-03   -0.46132E-06  2066   0.120E-03    0.949E-01
RMM: 176    -0.229951808545E+04   -0.14990E-02   -0.11547E-04  2860   0.409E-03    0.888E-01
RMM: 177    -0.229951920243E+04   -0.11170E-02   -0.88158E-05  2829   0.372E-03    0.842E-01
RMM: 178    -0.229951953430E+04   -0.33187E-03   -0.23722E-05  2635   0.240E-03    0.829E-01
RMM: 179    -0.229951954268E+04   -0.83853E-05   -0.17462E-06  2131   0.114E-03
   1 F= -.23201078E+04 E0= -.23201046E+04  d E =-.232011E+04  mag=     6.2806
       N       E                     dE             d eps       ncg     rms          rms(c)
DAV:   1    -0.229917905508E+04    0.34048E+00   -0.18676E+01  4552   0.356E+00    0.178E+00
RMM:   2    -0.229969219379E+04   -0.51314E+00   -0.56137E+00  6370   0.932E-01    0.130E+00
RMM:   3    -0.229975627517E+04   -0.64081E-01   -0.70964E-01  5992   0.433E-01    0.144E+00
RMM:   4    -0.229973674253E+04    0.19533E-01   -0.60958E-02  6221   0.941E-02    0.608E-01
RMM:   5    -0.229973275274E+04    0.39898E-02   -0.11785E-02  5597   0.490E-02    0.386E-01
RMM:   6    -0.229973447455E+04   -0.17218E-02   -0.12411E-02  5401   0.496E-02    0.829E-01
RMM:   7    -0.229973139656E+04    0.30780E-02   -0.37081E-03  5469   0.337E-02    0.157E-01
RMM:   8    -0.229973180016E+04   -0.40360E-03   -0.78490E-04  4595   0.151E-02    0.120E-01
RMM:   9    -0.229973221872E+04   -0.41856E-03   -0.31249E-04  3982   0.127E-02    0.531E-02
RMM:  10    -0.229973285636E+04   -0.63764E-03   -0.22184E-04  3964   0.873E-03    0.328E-02
RMM:  11    -0.229973325385E+04   -0.39749E-03   -0.75657E-05  3328   0.756E-03    0.408E-02
RMM:  12    -0.229973348053E+04   -0.22668E-03   -0.36819E-05  3039   0.485E-03    0.272E-02
RMM:  13    -0.229973377539E+04   -0.29485E-03   -0.39874E-05  3149   0.517E-03    0.184E-02
RMM:  14    -0.229973399185E+04   -0.21646E-03   -0.36464E-05  3144   0.494E-03    0.119E-02
RMM:  15    -0.229973408575E+04   -0.93897E-04   -0.19539E-05  2885   0.444E-03    0.496E-03
RMM:  16    -0.229973412097E+04   -0.35221E-04   -0.97407E-06  2821   0.343E-03    0.329E-03
RMM:  17    -0.229973413492E+04   -0.13955E-04   -0.48295E-06  2588   0.270E-03    0.180E-03
RMM:  18    -0.229973413830E+04   -0.33763E-05   -0.23081E-06  2457   0.200E-03
   2 F= -.23203243E+04 E0= -.23203228E+04  d E =-.216509E+00  mag=     5.9802
       N       E                     dE             d eps       ncg     rms          rms(c)
DAV:   1    -0.229968397536E+04    0.50160E-01   -0.26265E+00  4592   0.129E+00    0.588E-01
RMM:   2    -0.229975254534E+04   -0.68570E-01   -0.73105E-01  6337   0.342E-01    0.495E-01
RMM:   3    -0.229975912390E+04   -0.65786E-02   -0.81534E-02  5902   0.155E-01    0.450E-01
RMM:   4    -0.229975747273E+04    0.16512E-02   -0.79101E-03  5650   0.337E-02    0.212E-01
RMM:   5    -0.229975696000E+04    0.51273E-03   -0.12789E-03  5183   0.174E-02    0.207E-01
RMM:   6    -0.229975680806E+04    0.15194E-03   -0.87225E-04  4726   0.140E-02    0.227E-01
RMM:   7    -0.229975642343E+04    0.38463E-03   -0.84739E-04  5121   0.149E-02    0.374E-02
RMM:   8    -0.229975639498E+04    0.28449E-04   -0.65248E-05  3134   0.841E-03    0.242E-02
RMM:   9    -0.229975638006E+04    0.14923E-04   -0.32888E-05  2907   0.492E-03    0.104E-02
RMM:  10    -0.229975637812E+04    0.19383E-05   -0.15470E-05  2895   0.383E-03
   3 F= -.23203473E+04 E0= -.23203467E+04  d E =-.239504E+00  mag=     5.9932
       N       E                     dE             d eps       ncg     rms          rms(c)
DAV:   1    -0.229948934986E+04    0.26703E+00   -0.18017E+01  4432   0.390E+00    0.162E+00
RMM:   2    -0.229983740488E+04   -0.34806E+00   -0.37615E+00  6129   0.854E-01    0.872E-01
RMM:   3    -0.229988018300E+04   -0.42778E-01   -0.47180E-01  5759   0.408E-01    0.107E+00
RMM:   4    -0.229987166962E+04    0.85134E-02   -0.45426E-02  6334   0.825E-02    0.483E-01
RMM:   5    -0.229986850963E+04    0.31600E-02   -0.69470E-03  5576   0.388E-02    0.274E-01
RMM:   6    -0.229986740844E+04    0.11012E-02   -0.61155E-03  5124   0.372E-02    0.307E-01
RMM:   7    -0.229986709858E+04    0.30986E-03   -0.13780E-03  5032   0.248E-02    0.211E-01
RMM:   8    -0.229986686433E+04    0.23425E-03   -0.36816E-04  4323   0.109E-02    0.624E-02
RMM:   9    -0.229986685077E+04    0.13561E-04   -0.80454E-05  2967   0.858E-03    0.528E-02
RMM:  10    -0.229986682243E+04    0.28345E-04   -0.90133E-05  3361   0.567E-03    0.317E-02
RMM:  11    -0.229986681702E+04    0.54056E-05   -0.17137E-05  2870   0.455E-03
   4 F= -.23204606E+04 E0= -.23204605E+04  d E =-.113304E+00  mag=     5.9968
       N       E                     dE             d eps       ncg     rms          rms(c)
DAV:   1    -0.229978651655E+04    0.80306E-01   -0.44475E+00  4496   0.193E+00    0.804E-01
RMM:   2    -0.229987278365E+04   -0.86267E-01   -0.92823E-01  6042   0.418E-01    0.444E-01
RMM:   3    -0.229988235189E+04   -0.95682E-02   -0.10416E-01  5627   0.209E-01    0.537E-01
RMM:   4    -0.229988027981E+04    0.20721E-02   -0.11107E-02  6003   0.417E-02    0.237E-01
RMM:   5    -0.229987962219E+04    0.65762E-03   -0.17932E-03  5187   0.205E-02    0.212E-01
RMM:   6    -0.229987953730E+04    0.84888E-04   -0.12003E-03  4907   0.168E-02    0.239E-01
RMM:   7    -0.229987912941E+04    0.40789E-03   -0.64901E-04  4807   0.141E-02    0.352E-02
RMM:   8    -0.229987911640E+04    0.13017E-04   -0.64937E-05  3127   0.854E-03    0.226E-02
RMM:   9    -0.229987910951E+04    0.68895E-05   -0.24233E-05  2894   0.445E-03
   5 F= -.23204743E+04 E0= -.23204742E+04  d E =-.127017E+00  mag=     5.9978
       N       E                     dE             d eps       ncg     rms          rms(c)
DAV:   1    -0.229947533472E+04    0.40378E+00   -0.18369E+01  4448   0.362E+00    0.145E+00
RMM:   2    -0.229989164648E+04   -0.41631E+00   -0.44841E+00  6377   0.856E-01    0.875E-01
RMM:   3    -0.229993911316E+04   -0.47467E-01   -0.54160E-01  5906   0.381E-01    0.923E-01
RMM:   4    -0.229993560184E+04    0.35113E-02   -0.53106E-02  6146   0.753E-02    0.550E-01
RMM:   5    -0.229993234812E+04    0.32537E-02   -0.56082E-03  5586   0.328E-02    0.367E-01
RMM:   6    -0.229993123679E+04    0.11113E-02   -0.63640E-03  5657   0.338E-02    0.484E-01
RMM:   7    -0.229992945906E+04    0.17777E-02   -0.29160E-03  5422   0.263E-02    0.171E-01
RMM:   8    -0.229992919400E+04    0.26505E-03   -0.83935E-04  4998   0.161E-02    0.890E-02
RMM:   9    -0.229992912122E+04    0.72780E-04   -0.13223E-04  3842   0.114E-02    0.559E-02
RMM:  10    -0.229992904859E+04    0.72633E-04   -0.13719E-04  3652   0.766E-03    0.232E-02
RMM:  11    -0.229992903589E+04    0.12698E-04   -0.34853E-05  2973   0.597E-03    0.158E-02
RMM:  12    -0.229992903193E+04    0.39636E-05   -0.16875E-05  2877   0.408E-03
   6 F= -.23205290E+04 E0= -.23205286E+04  d E =-.546662E-01  mag=     5.9938
       N       E                     dE             d eps       ncg     rms          rms(c)
DAV:   1    -0.229992483649E+04    0.41994E-02   -0.17149E-01  4944   0.352E-01    0.139E-01
RMM:   2    -0.229992871172E+04   -0.38752E-02   -0.41392E-02  6398   0.825E-02    0.890E-02
RMM:   3    -0.229992906402E+04   -0.35230E-03   -0.40601E-03  4083   0.350E-02    0.879E-02
RMM:   4    -0.229992902848E+04    0.35534E-04   -0.47973E-04  2944   0.837E-03    0.463E-02
RMM:   5    -0.229992899908E+04    0.29404E-04   -0.54393E-05  2895   0.480E-03    0.417E-02
RMM:   6    -0.229992898901E+04    0.10072E-04   -0.39100E-05  2855   0.459E-03    0.369E-02
RMM:   7    -0.229992897578E+04    0.13223E-04   -0.34283E-05  2932   0.424E-03    0.897E-03
RMM:   8    -0.229992897516E+04    0.62735E-06   -0.58823E-06  2804   0.381E-03
   7 F= -.23205294E+04 E0= -.23205289E+04  d E =-.550685E-01  mag=     5.9922
       N       E                     dE             d eps       ncg     rms          rms(c)
DAV:   1    -0.229986455860E+04    0.64417E-01   -0.48350E+00  4480   0.207E+00    0.719E-01
RMM:   2    -0.229994563440E+04   -0.81076E-01   -0.86570E-01  6262   0.431E-01    0.412E-01
RMM:   3    -0.229995421251E+04   -0.85781E-02   -0.10221E-01  5689   0.192E-01    0.467E-01
RMM:   4    -0.229995331956E+04    0.89295E-03   -0.10214E-02  5756   0.394E-02    0.272E-01
RMM:   5    -0.229995257532E+04    0.74424E-03   -0.15021E-03  5061   0.191E-02    0.165E-01
RMM:   6    -0.229995249583E+04    0.79486E-04   -0.14698E-03  5324   0.181E-02    0.221E-01
RMM:   7    -0.229995206212E+04    0.43371E-03   -0.66763E-04  4735   0.140E-02    0.546E-02
RMM:   8    -0.229995202251E+04    0.39614E-04   -0.13361E-04  3710   0.819E-03    0.232E-02
RMM:   9    -0.229995201394E+04    0.85698E-05   -0.27552E-05  2862   0.621E-03
   8 F= -.23205547E+04 E0= -.23205545E+04  d E =-.252826E-01  mag=     5.9956
       N       E                     dE             d eps       ncg     rms          rms(c)
DAV:   1    -0.229985764149E+04    0.94381E-01   -0.55491E+00  4464   0.221E+00    0.769E-01
RMM:   2    -0.229995028179E+04   -0.92640E-01   -0.98959E-01  6252   0.461E-01    0.441E-01
RMM:   3    -0.229996023826E+04   -0.99565E-02   -0.11892E-01  5675   0.207E-01    0.496E-01
RMM:   4    -0.229995928147E+04    0.95679E-03   -0.11716E-02  5789   0.421E-02    0.293E-01
RMM:   5    -0.229995840131E+04    0.88016E-03   -0.16835E-03  5142   0.201E-02    0.169E-01
RMM:   6    -0.229995818679E+04    0.21452E-03   -0.17724E-03  5350   0.202E-02    0.210E-01
RMM:   7    -0.229995782169E+04    0.36510E-03   -0.65879E-04  4618   0.146E-02    0.703E-02
RMM:   8    -0.229995776281E+04    0.58881E-04   -0.15378E-04  3926   0.802E-03    0.258E-02
RMM:   9    -0.229995775172E+04    0.11093E-04   -0.32879E-05  2864   0.666E-03    0.178E-02
RMM:  10    -0.229995774827E+04    0.34452E-05   -0.20922E-05  2896   0.385E-03
   9 F= -.23205628E+04 E0= -.23205627E+04  d E =-.333908E-01  mag=     5.9982
       N       E                     dE             d eps       ncg     rms          rms(c)
DAV:   1    -0.229994218846E+04    0.15563E-01   -0.15403E+00  4512   0.109E+00    0.367E-01
RMM:   2    -0.229996861768E+04   -0.26429E-01   -0.27996E-01  6421   0.236E-01    0.205E-01
RMM:   3    -0.229997133569E+04   -0.27180E-02   -0.32444E-02  5605   0.997E-02    0.177E-01
RMM:   4    -0.229997137541E+04   -0.39720E-04   -0.32271E-03  3989   0.201E-02    0.141E-01
RMM:   5    -0.229997120261E+04    0.17280E-03   -0.32964E-04  3260   0.991E-03    0.933E-02
RMM:   6    -0.229997105435E+04    0.14826E-03   -0.37103E-04  4364   0.102E-02    0.394E-02
RMM:   7    -0.229997106081E+04   -0.64603E-05   -0.12059E-04  3129   0.835E-03    0.519E-02
RMM:   8    -0.229997104134E+04    0.19464E-04   -0.40399E-05  2867   0.502E-03    0.154E-02
RMM:   9    -0.229997104080E+04    0.54284E-06   -0.94674E-06  2834   0.356E-03
  10 F= -.23205776E+04 E0= -.23205776E+04  d E =-.148256E-01  mag=     5.9991
       N       E                     dE             d eps       ncg     rms          rms(c)
DAV:   1    -0.229972865716E+04    0.24238E+00   -0.13833E+01  4448   0.327E+00    0.112E+00
RMM:   2    -0.229996842671E+04   -0.23977E+00   -0.25392E+00  6431   0.718E-01    0.710E-01
RMM:   3    -0.229999566638E+04   -0.27240E-01   -0.32470E-01  5887   0.307E-01    0.712E-01
RMM:   4    -0.229999436233E+04    0.13041E-02   -0.29533E-02  6121   0.622E-02    0.456E-01
RMM:   5    -0.229999261622E+04    0.17461E-02   -0.32300E-03  5283   0.243E-02    0.278E-01
RMM:   6    -0.229999152384E+04    0.10924E-02   -0.34940E-03  5190   0.268E-02    0.227E-01
RMM:   7    -0.229999125188E+04    0.27196E-03   -0.15100E-03  4953   0.202E-02    0.181E-01
RMM:   8    -0.229999096088E+04    0.29100E-03   -0.68843E-04  4670   0.139E-02    0.495E-02
RMM:   9    -0.229999095099E+04    0.98823E-05   -0.83657E-05  3198   0.942E-03
  11 F= -.23206020E+04 E0= -.23206020E+04  d E =-.392671E-01  mag=     5.9996
       N       E                     dE             d eps       ncg     rms          rms(c)
DAV:   1    -0.229996198817E+04    0.28973E-01   -0.15475E+00  4544   0.109E+00    0.370E-01
RMM:   2    -0.229998832264E+04   -0.26334E-01   -0.28026E-01  6415   0.235E-01    0.205E-01
RMM:   3    -0.229999116636E+04   -0.28437E-02   -0.32938E-02  5566   0.101E-01    0.168E-01
RMM:   4    -0.229999119522E+04   -0.28859E-04   -0.32055E-03  3962   0.203E-02    0.136E-01
RMM:   5    -0.229999103863E+04    0.15659E-03   -0.32605E-04  3267   0.981E-03    0.938E-02
RMM:   6    -0.229999088812E+04    0.15050E-03   -0.35157E-04  4333   0.101E-02    0.368E-02
RMM:   7    -0.229999087430E+04    0.13824E-04   -0.10544E-04  3276   0.806E-03    0.180E-02
RMM:   8    -0.229999087916E+04   -0.48626E-05   -0.27631E-05  2856   0.505E-03
  12 F= -.23206034E+04 E0= -.23206034E+04  d E =-.406814E-01  mag=     5.9998
       N       E                     dE             d eps       ncg     rms          rms(c)
DAV:   1    -0.229995383241E+04    0.37042E-01   -0.22188E+00  4480   0.127E+00    0.520E-01
RMM:   2    -0.230000008983E+04   -0.46257E-01   -0.48884E-01  6461   0.308E-01    0.358E-01
RMM:   3    -0.230000570346E+04   -0.56136E-02   -0.61633E-02  5943   0.130E-01    0.402E-01
RMM:   4    -0.230000472223E+04    0.98123E-03   -0.58656E-03  5320   0.279E-02    0.165E-01
RMM:   5    -0.230000444813E+04    0.27410E-03   -0.74840E-04  3492   0.128E-02    0.113E-01
RMM:   6    -0.230000439336E+04    0.54775E-04   -0.51542E-04  4222   0.113E-02    0.131E-01
RMM:   7    -0.230000425569E+04    0.13767E-03   -0.23061E-04  3438   0.914E-03    0.525E-02
RMM:   8    -0.230000423546E+04    0.20227E-04   -0.10277E-04  3271   0.762E-03    0.172E-02
RMM:   9    -0.230000423677E+04   -0.13121E-05   -0.15121E-05  2874   0.535E-03
  13 F= -.23206193E+04 E0= -.23206193E+04  d E =-.158209E-01  mag=     5.9998
       N       E                     dE             d eps       ncg     rms          rms(c)
DAV:   1    -0.229974934382E+04    0.25489E+00   -0.11299E+01  4448   0.288E+00    0.118E+00
RMM:   2    -0.229999017853E+04   -0.24083E+00   -0.25377E+00  6481   0.713E-01    0.865E-01
RMM:   3    -0.230001796383E+04   -0.27785E-01   -0.32087E-01  6079   0.295E-01    0.910E-01
RMM:   4    -0.230001270189E+04    0.52619E-02   -0.29245E-02  6238   0.640E-02    0.383E-01
RMM:   5    -0.230001138968E+04    0.13122E-02   -0.41322E-03  5254   0.263E-02    0.279E-01
RMM:   6    -0.230001099676E+04    0.39292E-03   -0.24959E-03  5497   0.220E-02    0.283E-01
RMM:   7    -0.230001029691E+04    0.69985E-03   -0.12114E-03  5156   0.177E-02    0.128E-01
RMM:   8    -0.230001015325E+04    0.14366E-03   -0.60724E-04  4874   0.152E-02    0.458E-02
RMM:   9    -0.230001015758E+04   -0.43230E-05   -0.75346E-05  3218   0.819E-03
  14 F= -.23206307E+04 E0= -.23206306E+04  d E =-.272047E-01  mag=     5.9992
       N       E                     dE             d eps       ncg     rms          rms(c)
DAV:   1    -0.229994454303E+04    0.65610E-01   -0.33697E+00  4464   0.150E+00    0.632E-01
RMM:   2    -0.230001578052E+04   -0.71237E-01   -0.75151E-01  6501   0.369E-01    0.440E-01
RMM:   3    -0.230002424110E+04   -0.84606E-02   -0.92997E-02  5982   0.149E-01    0.485E-01
RMM:   4    -0.230002280778E+04    0.14333E-02   -0.89458E-03  5507   0.332E-02    0.201E-01
RMM:   5    -0.230002239877E+04    0.40901E-03   -0.98709E-04  3679   0.141E-02    0.149E-01
RMM:   6    -0.230002224132E+04    0.15744E-03   -0.66674E-04  4198   0.121E-02    0.141E-01
RMM:   7    -0.230002203476E+04    0.20656E-03   -0.38900E-04  4263   0.105E-02    0.592E-02
RMM:   8    -0.230002200761E+04    0.27151E-04   -0.16246E-04  3544   0.889E-03    0.222E-02
RMM:   9    -0.230002200844E+04   -0.82928E-06   -0.22833E-05  2883   0.549E-03
  15 F= -.23206451E+04 E0= -.23206450E+04  d E =-.144007E-01  mag=     5.9991
       N       E                     dE             d eps       ncg     rms          rms(c)
DAV:   1    -0.229950633764E+04    0.51567E+00   -0.22263E+01  4448   0.386E+00    0.164E+00
RMM:   2    -0.229999712543E+04   -0.49079E+00   -0.51160E+00  6499   0.977E-01    0.156E+00
RMM:   3    -0.230004598288E+04   -0.48857E-01   -0.62788E-01  6073   0.391E-01    0.137E+00
RMM:   4    -0.230003505776E+04    0.10925E-01   -0.58373E-02  6296   0.903E-02    0.575E-01
RMM:   5    -0.230003333733E+04    0.17204E-02   -0.74922E-03  5348   0.328E-02    0.415E-01
RMM:   6    -0.230003249499E+04    0.84234E-03   -0.38227E-03  5531   0.258E-02    0.393E-01
RMM:   7    -0.230003097771E+04    0.15173E-02   -0.28669E-03  5370   0.254E-02    0.213E-01
RMM:   8    -0.230003050404E+04    0.47367E-03   -0.19599E-03  5273   0.236E-02    0.872E-02
RMM:   9    -0.230003048008E+04    0.23961E-04   -0.22144E-04  4188   0.109E-02    0.491E-02
RMM:  10    -0.230003049692E+04   -0.16844E-04   -0.62078E-05  3072   0.669E-03    0.175E-02
RMM:  11    -0.230003051486E+04   -0.17937E-04   -0.22967E-05  2905   0.429E-03    0.982E-03
RMM:  12    -0.230003052399E+04   -0.91290E-05   -0.68300E-06  2833   0.345E-03
  16 F= -.23206598E+04 E0= -.23206597E+04  d E =-.291792E-01  mag=     5.9973
       N       E                     dE             d eps       ncg     rms          rms(c)
DAV:   1    -0.229998171184E+04    0.48803E-01   -0.26603E+00  4464   0.121E+00    0.531E-01
RMM:   2    -0.230004076432E+04   -0.59052E-01   -0.62413E-01  6526   0.308E-01    0.307E-01
RMM:   3    -0.230004726383E+04   -0.64995E-02   -0.77622E-02  5763   0.128E-01    0.282E-01
RMM:   4    -0.230004711962E+04    0.14421E-03   -0.68403E-03  4260   0.257E-02    0.182E-01
RMM:   5    -0.230004680118E+04    0.31844E-03   -0.55008E-04  3069   0.107E-02    0.132E-01
RMM:   6    -0.230004655674E+04    0.24445E-03   -0.57607E-04  4286   0.108E-02    0.105E-01
RMM:   7    -0.230004649093E+04    0.65807E-04   -0.27468E-04  3115   0.872E-03    0.805E-02
RMM:   8    -0.230004644054E+04    0.50391E-04   -0.16904E-04  3259   0.759E-03    0.235E-02
RMM:   9    -0.230004643955E+04    0.99011E-06   -0.18910E-05  2862   0.517E-03
  17 F= -.23206773E+04 E0= -.23206772E+04  d E =-.174725E-01  mag=     5.9983
       N       E                     dE             d eps       ncg     rms          rms(c)
DAV:   1    -0.229947690996E+04    0.56953E+00   -0.23845E+01  4432   0.363E+00    0.163E+00
RMM:   2    -0.230002962247E+04   -0.55271E+00   -0.58069E+00  6534   0.945E-01    0.123E+00
RMM:   3    -0.230008641544E+04   -0.56793E-01   -0.73547E-01  6035   0.395E-01    0.113E+00
RMM:   4    -0.230008125746E+04    0.51580E-02   -0.62279E-02  6110   0.834E-02    0.627E-01
RMM:   5    -0.230007816030E+04    0.30972E-02   -0.64178E-03  5285   0.283E-02    0.388E-01
RMM:   6    -0.230007602149E+04    0.21388E-02   -0.46681E-03  5293   0.282E-02    0.336E-01
RMM:   7    -0.230007546037E+04    0.56112E-03   -0.28843E-03  5132   0.235E-02    0.281E-01
RMM:   8    -0.230007475839E+04    0.70197E-03   -0.17701E-03  5127   0.193E-02    0.901E-02
RMM:   9    -0.230007474941E+04    0.89868E-05   -0.22515E-04  3559   0.105E-02    0.529E-02
RMM:  10    -0.230007474363E+04    0.57740E-05   -0.71321E-05  2981   0.621E-03
  18 F= -.23207100E+04 E0= -.23207100E+04  d E =-.501770E-01  mag=     5.9990
       N       E                     dE             d eps       ncg     rms          rms(c)
DAV:   1    -0.229755668099E+04    0.25181E+01   -0.95154E+01  4432   0.727E+00    0.346E+00
RMM:   2    -0.230029315932E+04   -0.27365E+01   -0.25027E+01  6538   0.196E+00    0.787E+00
RMM:   3    -0.230007134749E+04    0.22181E+00   -0.28195E+00  6054   0.757E-01    0.253E+00
RMM:   4    -0.230009132457E+04   -0.19977E-01   -0.32320E-01  6181   0.185E-01    0.216E+00
RMM:   5    -0.230006009079E+04    0.31234E-01   -0.57925E-02  6056   0.898E-02    0.120E+00
RMM:   6    -0.230005055607E+04    0.95347E-02   -0.19259E-02  4886   0.531E-02    0.777E-01
RMM:   7    -0.230004747399E+04    0.30821E-02   -0.14577E-02  5489   0.558E-02    0.596E-01
RMM:   8    -0.230004476259E+04    0.27114E-02   -0.66196E-03  5643   0.363E-02    0.189E-01
RMM:   9    -0.230004471418E+04    0.48407E-04   -0.16728E-03  4709   0.229E-02    0.134E-01
RMM:  10    -0.230004480281E+04   -0.88630E-04   -0.37270E-04  4350   0.139E-02    0.421E-02
RMM:  11    -0.230004492736E+04   -0.12455E-03   -0.97536E-05  3678   0.780E-03    0.293E-02
RMM:  12    -0.230004499154E+04   -0.64178E-04   -0.20995E-05  2875   0.536E-03    0.177E-02
RMM:  13    -0.230004506057E+04   -0.69026E-04   -0.19340E-05  2887   0.389E-03    0.121E-02
RMM:  14    -0.230004510135E+04   -0.40783E-04   -0.10818E-05  2835   0.379E-03    0.104E-02
RMM:  15    -0.230004512077E+04   -0.19425E-04   -0.68665E-06  2817   0.306E-03    0.629E-03
RMM:  16    -0.230004513742E+04   -0.16643E-04   -0.64264E-06  2803   0.279E-03    0.358E-03
RMM:  17    -0.230004514278E+04   -0.53663E-05   -0.32802E-06  2685   0.245E-03
  19 F= -.23206880E+04 E0= -.23206880E+04  d E =-.281720E-01  mag=     5.9989
       N       E                     dE             d eps       ncg     rms          rms(c)
DAV:   1    -0.229894372755E+04    0.11014E+01   -0.45427E+01  4432   0.497E+00    0.231E+00
RMM:   2    -0.230006424412E+04   -0.11205E+01   -0.11204E+01  6538   0.128E+00    0.337E+00
RMM:   3    -0.230008793950E+04   -0.23695E-01   -0.12449E+00  6220   0.506E-01    0.159E+00
RMM:   4    -0.230008539906E+04    0.25404E-02   -0.12023E-01  5951   0.114E-01    0.874E-01
RMM:   5    -0.230008348964E+04    0.19094E-02   -0.12719E-02  5506   0.451E-02    0.671E-01
RMM:   6    -0.230008055719E+04    0.29325E-02   -0.59240E-03  5076   0.312E-02    0.431E-01
RMM:   7    -0.230007891345E+04    0.16437E-02   -0.55905E-03  5462   0.316E-02    0.363E-01
RMM:   8    -0.230007782492E+04    0.10885E-02   -0.31948E-03  5176   0.280E-02    0.165E-01
RMM:   9    -0.230007778774E+04    0.37185E-04   -0.66689E-04  4552   0.149E-02    0.775E-02
RMM:  10    -0.230007782010E+04   -0.32359E-04   -0.81125E-05  3093   0.780E-03    0.463E-02
RMM:  11    -0.230007783292E+04   -0.12817E-04   -0.33835E-05  2892   0.461E-03    0.271E-02
RMM:  12    -0.230007784319E+04   -0.10274E-04   -0.19142E-05  2865   0.397E-03    0.106E-02
RMM:  13    -0.230007784843E+04   -0.52359E-05   -0.74343E-06  2862   0.313E-03
  20 F= -.23207156E+04 E0= -.23207156E+04  d E =-.558074E-01  mag=     5.9985
       N       E                     dE             d eps       ncg     rms          rms(c)
DAV:   1    -0.229984901818E+04    0.22883E+00   -0.94687E+00  4432   0.232E+00    0.108E+00
RMM:   2    -0.230007534769E+04   -0.22633E+00   -0.23955E+00  6507   0.605E-01    0.650E-01
RMM:   3    -0.230010263668E+04   -0.27289E-01   -0.31583E-01  5914   0.261E-01    0.645E-01
RMM:   4    -0.230010135975E+04    0.12769E-02   -0.26293E-02  5719   0.529E-02    0.426E-01
RMM:   5    -0.230009986679E+04    0.14930E-02   -0.25641E-03  4451   0.194E-02    0.242E-01
RMM:   6    -0.230009885257E+04    0.10142E-02   -0.19631E-03  5118   0.192E-02    0.157E-01
RMM:   7    -0.230009875469E+04    0.97873E-04   -0.15397E-03  4993   0.192E-02    0.169E-01
RMM:   8    -0.230009852467E+04    0.23003E-03   -0.36575E-04  3571   0.995E-03    0.522E-02
RMM:   9    -0.230009851469E+04    0.99704E-05   -0.69799E-05  2951   0.642E-03
  21 F= -.23207390E+04 E0= -.23207390E+04  d E =-.233957E-01  mag=     5.9994
       N       E                     dE             d eps       ncg     rms          rms(c)
DAV:   1    -0.229854464519E+04    0.15539E+01   -0.56709E+01  4432   0.570E+00    0.276E+00
RMM:   2    -0.230006337471E+04   -0.15187E+01   -0.15401E+01  6514   0.155E+00    0.465E+00
RMM:   3    -0.230012134799E+04   -0.57973E-01   -0.18777E+00  5968   0.636E-01    0.209E+00
RMM:   4    -0.230011887943E+04    0.24686E-02   -0.18572E-01  6187   0.150E-01    0.136E+00
RMM:   5    -0.230011028387E+04    0.85956E-02   -0.28195E-02  5878   0.636E-02    0.856E-01
RMM:   6    -0.230010634224E+04    0.39416E-02   -0.97555E-03  5144   0.387E-02    0.595E-01
RMM:   7    -0.230010437582E+04    0.19664E-02   -0.85483E-03  5576   0.418E-02    0.552E-01
RMM:   8    -0.230010174164E+04    0.26342E-02   -0.62492E-03  5675   0.356E-02    0.169E-01
RMM:   9    -0.230010169104E+04    0.50595E-04   -0.89025E-04  4564   0.179E-02    0.118E-01
RMM:  10    -0.230010174485E+04   -0.53812E-04   -0.24233E-04  3885   0.113E-02    0.431E-02
RMM:  11    -0.230010183174E+04   -0.86887E-04   -0.62524E-05  3254   0.667E-03    0.266E-02
RMM:  12    -0.230010187066E+04   -0.38916E-04   -0.14510E-05  2861   0.441E-03    0.175E-02
RMM:  13    -0.230010190569E+04   -0.35036E-04   -0.11406E-05  2853   0.323E-03    0.116E-02
RMM:  14    -0.230010193112E+04   -0.25428E-04   -0.82318E-06  2849   0.310E-03    0.760E-03
RMM:  15    -0.230010194107E+04   -0.99514E-05   -0.43613E-06  2811   0.261E-03
  22 F= -.23207486E+04 E0= -.23207486E+04  d E =-.329829E-01  mag=     5.9981
       N       E                     dE             d eps       ncg     rms          rms(c)
DAV:   1    -0.229992241362E+04    0.17952E+00   -0.71423E+00  4432   0.201E+00    0.936E-01
RMM:   2    -0.230009353742E+04   -0.17112E+00   -0.17844E+00  6502   0.510E-01    0.692E-01
RMM:   3    -0.230011238849E+04   -0.18851E-01   -0.21081E-01  6157   0.215E-01    0.745E-01
RMM:   4    -0.230010983041E+04    0.25581E-02   -0.19815E-02  5794   0.455E-02    0.273E-01
RMM:   5    -0.230010901719E+04    0.81323E-03   -0.16163E-03  4690   0.171E-02    0.188E-01
RMM:   6    -0.230010884807E+04    0.16912E-03   -0.12124E-03  4756   0.154E-02    0.219E-01
RMM:   7    -0.230010838800E+04    0.46007E-03   -0.85282E-04  4871   0.138E-02    0.980E-02
RMM:   8    -0.230010831729E+04    0.70718E-04   -0.21624E-04  3265   0.962E-03    0.323E-02
RMM:   9    -0.230010831630E+04    0.98445E-06   -0.36087E-05  2896   0.555E-03
  23 F= -.23207529E+04 E0= -.23207529E+04  d E =-.372541E-01  mag=     5.9993
       N       E                     dE             d eps       ncg     rms          rms(c)
DAV:   1    -0.229973363156E+04    0.37469E+00   -0.14784E+01  4448   0.294E+00    0.137E+00
RMM:   2    -0.230009308282E+04   -0.35945E+00   -0.38025E+00  6526   0.769E-01    0.894E-01
RMM:   3    -0.230013950216E+04   -0.46419E-01   -0.50650E-01  6014   0.339E-01    0.101E+00
RMM:   4    -0.230013365347E+04    0.58487E-02   -0.42959E-02  5907   0.696E-02    0.515E-01
RMM:   5    -0.230013132268E+04    0.23308E-02   -0.52011E-03  5006   0.263E-02    0.306E-01
RMM:   6    -0.230013049146E+04    0.83122E-03   -0.29443E-03  5277   0.217E-02    0.323E-01
RMM:   7    -0.230012958438E+04    0.90708E-03   -0.16745E-03  5005   0.181E-02    0.162E-01
RMM:   8    -0.230012931836E+04    0.26602E-03   -0.10225E-03  4841   0.148E-02    0.712E-02
RMM:   9    -0.230012931100E+04    0.73560E-05   -0.11994E-04  3230   0.911E-03    0.428E-02
RMM:  10    -0.230012929742E+04    0.13581E-04   -0.43058E-05  2882   0.530E-03    0.210E-02
RMM:  11    -0.230012929718E+04    0.24473E-06   -0.16587E-05  2856   0.394E-03
  24 F= -.23207775E+04 E0= -.23207775E+04  d E =-.246486E-01  mag=     5.9994
       N       E                     dE             d eps       ncg     rms          rms(c)
DAV:   1    -0.229966539878E+04    0.46390E+00   -0.17380E+01  4448   0.321E+00    0.149E+00
RMM:   2    -0.230009180239E+04   -0.42640E+00   -0.45189E+00  6530   0.845E-01    0.965E-01
RMM:   3    -0.230014665675E+04   -0.54854E-01   -0.59577E-01  6002   0.365E-01    0.109E+00
RMM:   4    -0.230014002433E+04    0.66324E-02   -0.51085E-02  5937   0.760E-02    0.577E-01
RMM:   5    -0.230013720379E+04    0.28205E-02   -0.61063E-03  5123   0.284E-02    0.338E-01
RMM:   6    -0.230013633080E+04    0.87298E-03   -0.35195E-03  5341   0.235E-02    0.366E-01
RMM:   7    -0.230013510820E+04    0.12226E-02   -0.20792E-03  5200   0.198E-02    0.170E-01
RMM:   8    -0.230013481563E+04    0.29257E-03   -0.12260E-03  4889   0.161E-02    0.805E-02
RMM:   9    -0.230013481661E+04   -0.97766E-06   -0.14815E-04  3419   0.986E-03    0.504E-02
RMM:  10    -0.230013480220E+04    0.14403E-04   -0.56590E-05  2907   0.567E-03    0.261E-02
RMM:  11    -0.230013480323E+04   -0.10248E-05   -0.22163E-05  2853   0.426E-03
  25 F= -.23207868E+04 E0= -.23207867E+04  d E =-.339136E-01  mag=     5.9989
       N       E                     dE             d eps       ncg     rms          rms(c)
DAV:   1    -0.229999306251E+04    0.14174E+00   -0.65840E+00  4448   0.217E+00    0.859E-01
RMM:   2    -0.230013398186E+04   -0.14092E+00   -0.14989E+00  6449   0.509E-01    0.532E-01
RMM:   3    -0.230015137292E+04   -0.17391E-01   -0.19059E-01  5869   0.215E-01    0.593E-01
RMM:   4    -0.230014913449E+04    0.22384E-02   -0.17325E-02  5575   0.453E-02    0.285E-01
RMM:   5    -0.230014823047E+04    0.90403E-03   -0.19191E-03  4618   0.192E-02    0.196E-01
RMM:   6    -0.230014784356E+04    0.38691E-03   -0.19542E-03  5322   0.197E-02    0.225E-01
RMM:   7    -0.230014748523E+04    0.35833E-03   -0.71933E-04  4229   0.132E-02    0.961E-02
RMM:   8    -0.230014741627E+04    0.68962E-04   -0.26544E-04  4098   0.939E-03    0.394E-02
RMM:   9    -0.230014741086E+04    0.54073E-05   -0.38153E-05  2875   0.683E-03
  26 F= -.23208011E+04 E0= -.23208010E+04  d E =-.142502E-01  mag=     5.9990
       N       E                     dE             d eps       ncg     rms          rms(c)
DAV:   1    -0.229995082292E+04    0.19659E+00   -0.84473E+00  4448   0.245E+00    0.971E-01
RMM:   2    -0.230013111178E+04   -0.18029E+00   -0.19193E+00  6436   0.578E-01    0.606E-01
RMM:   3    -0.230015436181E+04   -0.23250E-01   -0.25611E-01  5864   0.252E-01    0.671E-01
RMM:   4    -0.230015145189E+04    0.29099E-02   -0.22309E-02  5744   0.519E-02    0.332E-01
RMM:   5    -0.230015029233E+04    0.11596E-02   -0.25661E-03  4847   0.214E-02    0.222E-01
RMM:   6    -0.230014947660E+04    0.81573E-03   -0.26124E-03  5323   0.230E-02    0.183E-01
RMM:   7    -0.230014939191E+04    0.84686E-04   -0.75129E-04  4298   0.142E-02    0.160E-01
RMM:   8    -0.230014920023E+04    0.19169E-03   -0.40334E-04  4394   0.108E-02    0.499E-02
RMM:   9    -0.230014919136E+04    0.88709E-05   -0.57196E-05  2901   0.743E-03
  27 F= -.23208046E+04 E0= -.23208045E+04  d E =-.177828E-01  mag=     5.9992
       N       E                     dE             d eps       ncg     rms          rms(c)
DAV:   1    -0.230001369829E+04    0.13550E+00   -0.66347E+00  4448   0.225E+00    0.802E-01
RMM:   2    -0.230014337552E+04   -0.12968E+00   -0.13824E+00  6422   0.501E-01    0.485E-01
RMM:   3    -0.230016079133E+04   -0.17416E-01   -0.18260E-01  5836   0.218E-01    0.618E-01
RMM:   4    -0.230015893288E+04    0.18584E-02   -0.16536E-02  5506   0.434E-02    0.305E-01
RMM:   5    -0.230015813494E+04    0.79794E-03   -0.17060E-03  4207   0.179E-02    0.240E-01
RMM:   6    -0.230015771338E+04    0.42157E-03   -0.11829E-03  4453   0.147E-02    0.201E-01
RMM:   7    -0.230015712753E+04    0.58584E-03   -0.13148E-03  4987   0.169E-02    0.739E-02
RMM:   8    -0.230015709178E+04    0.35750E-04   -0.34036E-04  4194   0.118E-02    0.400E-02
RMM:   9    -0.230015708837E+04    0.34078E-05   -0.43103E-05  3052   0.628E-03
  28 F= -.23208139E+04 E0= -.23208138E+04  d E =-.928192E-02  mag=     5.9994
       N       E                     dE             d eps       ncg     rms          rms(c)
DAV:   1    -0.230004243929E+04    0.11465E+00   -0.53264E+00  4464   0.201E+00    0.716E-01
RMM:   2    -0.230014605050E+04   -0.10361E+00   -0.11041E+00  6415   0.445E-01    0.434E-01
RMM:   3    -0.230015981951E+04   -0.13769E-01   -0.14457E-01  5817   0.193E-01    0.549E-01
RMM:   4    -0.230015838788E+04    0.14316E-02   -0.13290E-02  5345   0.385E-02    0.274E-01
RMM:   5    -0.230015775312E+04    0.63475E-03   -0.13303E-03  3914   0.160E-02    0.217E-01
RMM:   6    -0.230015740560E+04    0.34752E-03   -0.91266E-04  4152   0.131E-02    0.177E-01
RMM:   7    -0.230015693895E+04    0.46665E-03   -0.11009E-03  4850   0.155E-02    0.653E-02
RMM:   8    -0.230015691057E+04    0.28380E-04   -0.26294E-04  4011   0.108E-02    0.350E-02
RMM:   9    -0.230015690727E+04    0.33038E-05   -0.36723E-05  2984   0.593E-03
  29 F= -.23208149E+04 E0= -.23208149E+04  d E =-.102860E-01  mag=     5.9996
       N       E                     dE             d eps       ncg     rms          rms(c)
DAV:   1    -0.230008470348E+04    0.72207E-01   -0.41287E+00  4464   0.191E+00    0.639E-01
RMM:   2    -0.230015802743E+04   -0.73324E-01   -0.77392E-01  6375   0.406E-01    0.480E-01
RMM:   3    -0.230016903153E+04   -0.11004E-01   -0.10004E-01  5997   0.169E-01    0.752E-01
RMM:   4    -0.230016548910E+04    0.35424E-02   -0.95307E-03  5773   0.373E-02    0.223E-01
RMM:   5    -0.230016503944E+04    0.44966E-03   -0.13278E-03  4221   0.166E-02    0.161E-01
RMM:   6    -0.230016483369E+04    0.20575E-03   -0.94089E-04  4561   0.148E-02    0.149E-01
RMM:   7    -0.230016457137E+04    0.26232E-03   -0.53727E-04  4503   0.128E-02    0.596E-02
RMM:   8    -0.230016455243E+04    0.18949E-04   -0.16144E-04  3846   0.960E-03    0.274E-02
RMM:   9    -0.230016455368E+04   -0.12517E-05   -0.22280E-05  2879   0.572E-03
  30 F= -.23208240E+04 E0= -.23208240E+04  d E =-.913282E-02  mag=     5.9997
       N       E                     dE             d eps       ncg     rms          rms(c)
DAV:   1    -0.229999689218E+04    0.16766E+00   -0.85759E+00  4448   0.275E+00    0.923E-01
RMM:   2    -0.230014993090E+04   -0.15304E+00   -0.16182E+00  6397   0.589E-01    0.667E-01
RMM:   3    -0.230017270584E+04   -0.22775E-01   -0.21027E-01  6017   0.242E-01    0.105E+00
RMM:   4    -0.230016596959E+04    0.67363E-02   -0.19854E-02  6109   0.531E-02    0.339E-01
RMM:   5    -0.230016500816E+04    0.96143E-03   -0.27796E-03  4939   0.229E-02    0.241E-01
RMM:   6    -0.230016454356E+04    0.46460E-03   -0.18992E-03  5159   0.199E-02    0.216E-01
RMM:   7    -0.230016398376E+04    0.55980E-03   -0.10932E-03  4912   0.169E-02    0.929E-02
RMM:   8    -0.230016391808E+04    0.65678E-04   -0.41890E-04  4517   0.140E-02    0.417E-02
RMM:   9    -0.230016392751E+04   -0.94243E-05   -0.52722E-05  3127   0.732E-03
  31 F= -.23208255E+04 E0= -.23208254E+04  d E =-.105807E-01  mag=     5.9997
       N       E                     dE             d eps       ncg     rms          rms(c)
DAV:   1    -0.230014181996E+04    0.22098E-01   -0.12584E+00  4496   0.105E+00    0.350E-01
RMM:   2    -0.230016461205E+04   -0.22792E-01   -0.23466E-01  6350   0.220E-01    0.343E-01
RMM:   3    -0.230016709102E+04   -0.24790E-02   -0.25426E-02  5785   0.886E-02    0.404E-01
RMM:   4    -0.230016603678E+04    0.10542E-02   -0.27533E-03  4649   0.212E-02    0.951E-02
RMM:   5    -0.230016590479E+04    0.13199E-03   -0.36798E-04  3724   0.104E-02    0.622E-02
RMM:   6    -0.230016588102E+04    0.23766E-04   -0.22962E-04  3935   0.988E-03    0.707E-02
RMM:   7    -0.230016583778E+04    0.43240E-04   -0.85639E-05  2938   0.736E-03    0.289E-02
RMM:   8    -0.230016583218E+04    0.55951E-05   -0.21121E-05  2888   0.450E-03
  32 F= -.23208266E+04 E0= -.23208266E+04  d E =-.117014E-01  mag=     5.9997
       N       E                     dE             d eps       ncg     rms          rms(c)
DAV:   1    -0.230012749892E+04    0.38339E-01   -0.27203E+00  4448   0.165E+00    0.544E-01
RMM:   2    -0.230017015205E+04   -0.42653E-01   -0.43788E-01  6255   0.341E-01    0.525E-01
RMM:   3    -0.230017436567E+04   -0.42136E-02   -0.53526E-02  5887   0.138E-01    0.575E-01
RMM:   4    -0.230017221519E+04    0.21505E-02   -0.57073E-03  5641   0.329E-02    0.233E-01
RMM:   5    -0.230017189347E+04    0.32172E-03   -0.10268E-03  4298   0.162E-02    0.154E-01
RMM:   6    -0.230017158218E+04    0.31128E-03   -0.68473E-04  4595   0.147E-02    0.753E-02
RMM:   7    -0.230017150094E+04    0.81240E-04   -0.30709E-04  4354   0.121E-02    0.414E-02
RMM:   8    -0.230017149086E+04    0.10080E-04   -0.82242E-05  3465   0.790E-03    0.180E-02
RMM:   9    -0.230017148958E+04    0.12830E-05   -0.16159E-05  2875   0.529E-03
  33 F= -.23208335E+04 E0= -.23208335E+04  d E =-.696022E-02  mag=     5.9997
       N       E                     dE             d eps       ncg     rms          rms(c)
DAV:   1    -0.230016716806E+04    0.43228E-02   -0.26442E-01  4592   0.514E-01    0.170E-01
RMM:   2    -0.230017130301E+04   -0.41350E-02   -0.42557E-02  6249   0.106E-01    0.162E-01
RMM:   3    -0.230017173161E+04   -0.42860E-03   -0.51015E-03  4791   0.425E-02    0.181E-01
RMM:   4    -0.230017150983E+04    0.22178E-03   -0.53895E-04  3035   0.110E-02    0.666E-02
RMM:   5    -0.230017148547E+04    0.24368E-04   -0.10219E-04  2894   0.649E-03    0.486E-02
RMM:   6    -0.230017145485E+04    0.30612E-04   -0.68528E-05  2910   0.592E-03    0.232E-02
RMM:   7    -0.230017144807E+04    0.67804E-05   -0.32164E-05  2881   0.533E-03
  34 F= -.23208339E+04 E0= -.23208339E+04  d E =-.731868E-02  mag=     5.9997
       N       E                     dE             d eps       ncg     rms          rms(c)
DAV:   1    -0.230015047300E+04    0.20982E-01   -0.20325E+00  4432   0.148E+00    0.424E-01
RMM:   2    -0.230017559791E+04   -0.25125E-01   -0.25405E-01  6177   0.283E-01    0.432E-01
RMM:   3    -0.230017707532E+04   -0.14774E-02   -0.29221E-02  5769   0.113E-01    0.370E-01
RMM:   4    -0.230017618919E+04    0.88614E-03   -0.30810E-03  5322   0.262E-02    0.190E-01
RMM:   5    -0.230017598524E+04    0.20394E-03   -0.59284E-04  3626   0.137E-02    0.129E-01
RMM:   6    -0.230017576936E+04    0.21589E-03   -0.43385E-04  4395   0.134E-02    0.511E-02
RMM:   7    -0.230017574115E+04    0.28203E-04   -0.16662E-04  3955   0.112E-02    0.274E-02
RMM:   8    -0.230017573948E+04    0.16695E-05   -0.41182E-05  3054   0.596E-03
  35 F= -.23208391E+04 E0= -.23208390E+04  d E =-.516991E-02  mag=     5.9997
       N       E                     dE             d eps       ncg     rms          rms(c)
DAV:   1    -0.230016203911E+04    0.13702E-01   -0.10974E+00  4464   0.109E+00    0.313E-01
RMM:   2    -0.230017560552E+04   -0.13566E-01   -0.13742E-01  6179   0.209E-01    0.314E-01
RMM:   3    -0.230017642671E+04   -0.82119E-03   -0.15592E-02  5651   0.786E-02    0.272E-01
RMM:   4    -0.230017593037E+04    0.49634E-03   -0.16482E-03  4844   0.192E-02    0.134E-01
RMM:   5    -0.230017583237E+04    0.97998E-04   -0.31956E-04  3033   0.105E-02    0.953E-02
RMM:   6    -0.230017571570E+04    0.11668E-03   -0.23494E-04  4097   0.103E-02    0.379E-02
RMM:   7    -0.230017570098E+04    0.14718E-04   -0.88017E-05  3408   0.868E-03    0.204E-02
RMM:   8    -0.230017570006E+04    0.91705E-06   -0.24948E-05  2876   0.533E-03
  36 F= -.23208397E+04 E0= -.23208396E+04  d E =-.576140E-02  mag=     5.9997
       N       E                     dE             d eps       ncg     rms          rms(c)
DAV:   1    -0.230015703857E+04    0.18662E-01   -0.20915E+00  4432   0.151E+00    0.377E-01
RMM:   2    -0.230017833467E+04   -0.21296E-01   -0.21867E-01  6087   0.276E-01    0.340E-01
RMM:   3    -0.230017985450E+04   -0.15198E-02   -0.23990E-02  5693   0.108E-01    0.310E-01
RMM:   4    -0.230017917693E+04    0.67757E-03   -0.24503E-03  5270   0.242E-02    0.150E-01
RMM:   5    -0.230017907497E+04    0.10197E-03   -0.45502E-04  3486   0.124E-02    0.130E-01
RMM:   6    -0.230017887560E+04    0.19936E-03   -0.42445E-04  4347   0.129E-02    0.544E-02
RMM:   7    -0.230017884297E+04    0.32631E-04   -0.15199E-04  3908   0.105E-02    0.286E-02
RMM:   8    -0.230017883759E+04    0.53870E-05   -0.38172E-05  2980   0.606E-03
  37 F= -.23208434E+04 E0= -.23208434E+04  d E =-.375794E-02  mag=     5.9997
       N       E                     dE             d eps       ncg     rms          rms(c)
DAV:   1    -0.230017299307E+04    0.58499E-02   -0.56832E-01  4512   0.788E-01    0.198E-01
RMM:   2    -0.230017877867E+04   -0.57856E-02   -0.59551E-02  6098   0.144E-01    0.176E-01
RMM:   3    -0.230017920179E+04   -0.42312E-03   -0.64317E-03  5289   0.548E-02    0.165E-01
RMM:   4    -0.230017900553E+04    0.19626E-03   -0.66036E-04  3601   0.130E-02    0.766E-02
RMM:   5    -0.230017898087E+04    0.24664E-04   -0.12712E-04  2898   0.763E-03    0.689E-02
RMM:   6    -0.230017892601E+04    0.54856E-04   -0.11907E-04  3536   0.771E-03    0.283E-02
RMM:   7    -0.230017891732E+04    0.86868E-05   -0.40943E-05  2925   0.627E-03
  38 F= -.23208438E+04 E0= -.23208438E+04  d E =-.415394E-02  mag=     5.9997
       N       E                     dE             d eps       ncg     rms          rms(c)
DAV:   1    -0.230017260655E+04    0.63195E-02   -0.99216E-01  4448   0.108E+00    0.283E-01
RMM:   2    -0.230018098566E+04   -0.83791E-02   -0.90072E-02  5819   0.191E-01    0.148E-01
RMM:   3    -0.230018168385E+04   -0.69818E-03   -0.90920E-03  5178   0.852E-02    0.190E-01
RMM:   4    -0.230018146047E+04    0.22337E-03   -0.96434E-04  4643   0.172E-02    0.988E-02
RMM:   5    -0.230018137037E+04    0.90099E-04   -0.28696E-04  4041   0.120E-02    0.672E-02
RMM:   6    -0.230018135457E+04    0.15800E-04   -0.20692E-04  3969   0.999E-03    0.640E-02
RMM:   7    -0.230018131390E+04    0.40677E-04   -0.62083E-05  3008   0.742E-03    0.177E-02
RMM:   8    -0.230018131159E+04    0.23066E-05   -0.14880E-05  2863   0.458E-03
  39 F= -.23208466E+04 E0= -.23208465E+04  d E =-.275271E-02  mag=     5.9997
       N       E                     dE             d eps       ncg     rms          rms(c)
DAV:   1    -0.230017864953E+04    0.26644E-02   -0.29089E-01  4528   0.587E-01    0.154E-01
RMM:   2    -0.230018111338E+04   -0.24639E-02   -0.26457E-02  5870   0.104E-01    0.809E-02
RMM:   3    -0.230018132067E+04   -0.20729E-03   -0.26267E-03  4757   0.457E-02    0.105E-01
RMM:   4    -0.230018125089E+04    0.69774E-04   -0.27990E-04  3203   0.973E-03    0.529E-02
RMM:   5    -0.230018122379E+04    0.27100E-04   -0.83857E-05  2981   0.733E-03    0.358E-02
RMM:   6    -0.230018121913E+04    0.46642E-05   -0.61346E-05  2954   0.670E-03
  40 F= -.23208467E+04 E0= -.23208466E+04  d E =-.285215E-02  mag=     5.9997
       N       E                     dE             d eps       ncg     rms          rms(c)
DAV:   1    -0.230017411982E+04    0.71040E-02   -0.96033E-01  4448   0.106E+00    0.234E-01
RMM:   2    -0.230018253118E+04   -0.84114E-02   -0.89459E-02  5913   0.184E-01    0.144E-01
RMM:   3    -0.230018327579E+04   -0.74462E-03   -0.87981E-03  5269   0.744E-02    0.187E-01
RMM:   4    -0.230018305673E+04    0.21906E-03   -0.93107E-04  4091   0.154E-02    0.847E-02
RMM:   5    -0.230018296779E+04    0.88942E-04   -0.19904E-04  3630   0.101E-02    0.474E-02
RMM:   6    -0.230018296436E+04    0.34320E-05   -0.16258E-04  3975   0.901E-03    0.644E-02
RMM:   7    -0.230018292825E+04    0.36109E-04   -0.65391E-05  2872   0.733E-03    0.166E-02
RMM:   8    -0.230018292669E+04    0.15574E-05   -0.16059E-05  2866   0.408E-03
  41 F= -.23208488E+04 E0= -.23208488E+04  d E =-.214315E-02  mag=     5.9997
       N       E                     dE             d eps       ncg     rms          rms(c)
DAV:   1    -0.230017548457E+04    0.74437E-02   -0.83639E-01  4448   0.991E-01    0.221E-01
RMM:   2    -0.230018283917E+04   -0.73546E-02   -0.77899E-02  5805   0.171E-01    0.146E-01
RMM:   3    -0.230018352854E+04   -0.68937E-03   -0.76096E-03  5068   0.750E-02    0.200E-01
RMM:   4    -0.230018325681E+04    0.27174E-03   -0.81592E-04  4176   0.150E-02    0.745E-02
RMM:   5    -0.230018318168E+04    0.75128E-04   -0.19356E-04  3619   0.993E-03    0.417E-02
RMM:   6    -0.230018316911E+04    0.12567E-04   -0.13342E-04  3948   0.860E-03    0.466E-02
RMM:   7    -0.230018315223E+04    0.16881E-04   -0.43373E-05  2866   0.667E-03    0.196E-02
RMM:   8    -0.230018314953E+04    0.26977E-05   -0.10707E-05  2844   0.343E-03
  42 F= -.23208494E+04 E0= -.23208494E+04  d E =-.276744E-02  mag=     5.9998
       N       E                     dE             d eps       ncg     rms          rms(c)
DAV:   1    -0.230017922172E+04    0.39305E-02   -0.74029E-01  4448   0.944E-01    0.247E-01
RMM:   2    -0.230018508828E+04   -0.58666E-02   -0.61685E-02  5738   0.165E-01    0.190E-01
RMM:   3    -0.230018565635E+04   -0.56806E-03   -0.58820E-03  5165   0.733E-02    0.259E-01
RMM:   4    -0.230018511746E+04    0.53889E-03   -0.73019E-04  4922   0.168E-02    0.730E-02
RMM:   5    -0.230018507124E+04    0.46215E-04   -0.26158E-04  4095   0.117E-02    0.643E-02
RMM:   6    -0.230018504546E+04    0.25777E-04   -0.15372E-04  3614   0.893E-03    0.472E-02
RMM:   7    -0.230018502240E+04    0.23065E-04   -0.40268E-05  2952   0.716E-03    0.130E-02
RMM:   8    -0.230018502147E+04    0.93262E-06   -0.10353E-05  2867   0.444E-03
  43 F= -.23208515E+04 E0= -.23208515E+04  d E =-.211556E-02  mag=     5.9998
       N       E                     dE             d eps       ncg     rms          rms(c)
DAV:   1    -0.230018452159E+04    0.50080E-03   -0.60816E-02  4704   0.271E-01    0.712E-02
RMM:   2    -0.230018501287E+04   -0.49127E-03   -0.51489E-03  6024   0.489E-02    0.563E-02
RMM:   3    -0.230018505738E+04   -0.44512E-04   -0.47613E-04  3447   0.189E-02    0.746E-02
RMM:   4    -0.230018501244E+04    0.44940E-04   -0.59380E-05  2873   0.597E-03    0.215E-02
RMM:   5    -0.230018500956E+04    0.28783E-05   -0.24978E-05  2873   0.414E-03
  44 F= -.23208516E+04 E0= -.23208516E+04  d E =-.217263E-02  mag=     5.9998
       N       E                     dE             d eps       ncg     rms          rms(c)
DAV:   1    -0.230018224019E+04    0.27723E-02   -0.53078E-01  4448   0.801E-01    0.202E-01
RMM:   2    -0.230018665287E+04   -0.44127E-02   -0.43779E-02  6012   0.141E-01    0.223E-01
RMM:   3    -0.230018669691E+04   -0.44044E-04   -0.41394E-03  5250   0.554E-02    0.175E-01
RMM:   4    -0.230018645132E+04    0.24559E-03   -0.49992E-04  4504   0.139E-02    0.825E-02
RMM:   5    -0.230018641627E+04    0.35047E-04   -0.14722E-04  2916   0.905E-03    0.627E-02
RMM:   6    -0.230018636544E+04    0.50835E-04   -0.13571E-04  4053   0.894E-03    0.225E-02
RMM:   7    -0.230018636371E+04    0.17295E-05   -0.27177E-05  2892   0.740E-03
  45 F= -.23208530E+04 E0= -.23208530E+04  d E =-.139428E-02  mag=     5.9998
       N       E                     dE             d eps       ncg     rms          rms(c)
DAV:   1    -0.230018514367E+04    0.12218E-02   -0.16573E-01  4480   0.448E-01    0.114E-01
RMM:   2    -0.230018652658E+04   -0.13829E-02   -0.13825E-02  5879   0.792E-02    0.121E-01
RMM:   3    -0.230018656596E+04   -0.39385E-04   -0.13474E-03  4307   0.343E-02    0.106E-01
RMM:   4    -0.230018647743E+04    0.88531E-04   -0.15588E-04  2990   0.849E-03    0.454E-02
RMM:   5    -0.230018646762E+04    0.98140E-05   -0.49211E-05  2894   0.563E-03
  46 F= -.23208531E+04 E0= -.23208531E+04  d E =-.151969E-02  mag=     5.9998
       N       E                     dE             d eps       ncg     rms          rms(c)
DAV:   1    -0.230018351876E+04    0.29587E-02   -0.55098E-01  4448   0.814E-01    0.201E-01
RMM:   2    -0.230018804922E+04   -0.45305E-02   -0.43035E-02  6053   0.143E-01    0.272E-01
RMM:   3    -0.230018765555E+04    0.39367E-03   -0.35544E-03  5140   0.549E-02    0.137E-01
RMM:   4    -0.230018752317E+04    0.13238E-03   -0.47308E-04  4472   0.137E-02    0.937E-02
RMM:   5    -0.230018747056E+04    0.52603E-04   -0.12710E-04  2903   0.888E-03    0.588E-02
RMM:   6    -0.230018742228E+04    0.48284E-04   -0.12891E-04  4096   0.916E-03    0.267E-02
RMM:   7    -0.230018741830E+04    0.39797E-05   -0.25330E-05  2878   0.768E-03
  47 F= -.23208542E+04 E0= -.23208542E+04  d E =-.111460E-02  mag=     5.9998
       N       E                     dE             d eps       ncg     rms          rms(c)
DAV:   1    -0.230018683726E+04    0.58502E-03   -0.75660E-02  4656   0.302E-01    0.764E-02
RMM:   2    -0.230018747423E+04   -0.63697E-03   -0.60415E-03  5905   0.540E-02    0.102E-01
RMM:   3    -0.230018742069E+04    0.53539E-04   -0.52104E-04  3685   0.219E-02    0.550E-02
RMM:   4    -0.230018740271E+04    0.17988E-04   -0.70254E-05  2905   0.608E-03    0.389E-02
RMM:   5    -0.230018739240E+04    0.10307E-04   -0.19759E-05  2862   0.386E-03    0.196E-02
RMM:   6    -0.230018738606E+04    0.63435E-05   -0.17729E-05  2869   0.386E-03
  48 F= -.23208543E+04 E0= -.23208543E+04  d E =-.114236E-02  mag=     5.9998
       N       E                     dE             d eps       ncg     rms          rms(c)
DAV:   1    -0.230018498597E+04    0.24064E-02   -0.44616E-01  4464   0.732E-01    0.187E-01
RMM:   2    -0.230018892686E+04   -0.39409E-02   -0.36770E-02  5992   0.129E-01    0.262E-01
RMM:   3    -0.230018849091E+04    0.43595E-03   -0.29619E-03  4959   0.482E-02    0.119E-01
RMM:   4    -0.230018840408E+04    0.86827E-04   -0.39341E-04  4103   0.117E-02    0.871E-02
RMM:   5    -0.230018835567E+04    0.48411E-04   -0.94211E-05  2891   0.750E-03    0.456E-02
RMM:   6    -0.230018832552E+04    0.30151E-04   -0.78941E-05  3939   0.722E-03    0.262E-02
RMM:   7    -0.230018832113E+04    0.43856E-05   -0.22139E-05  2857   0.647E-03
  49 F= -.23208554E+04 E0= -.23208553E+04  d E =-.109127E-02  mag=     5.9998
       N       E                     dE             d eps       ncg     rms          rms(c)
DAV:   1    -0.230018392751E+04    0.43980E-02   -0.59351E-01  4464   0.845E-01    0.216E-01
RMM:   2    -0.230018921190E+04   -0.52844E-02   -0.49171E-02  6125   0.150E-01    0.306E-01
RMM:   3    -0.230018861679E+04    0.59512E-03   -0.39175E-03  5189   0.550E-02    0.136E-01
RMM:   4    -0.230018850426E+04    0.11253E-03   -0.52697E-04  4409   0.136E-02    0.100E-01
RMM:   5    -0.230018844037E+04    0.63887E-04   -0.12399E-04  2897   0.849E-03    0.529E-02
RMM:   6    -0.230018840014E+04    0.40229E-04   -0.10368E-04  4035   0.820E-03    0.310E-02
RMM:   7    -0.230018839363E+04    0.65135E-05   -0.29807E-05  2861   0.730E-03
  50 F= -.23208556E+04 E0= -.23208556E+04  d E =-.133945E-02  mag=     5.9998
       N       E                     dE             d eps       ncg     rms          rms(c)
DAV:   1    -0.230018567207E+04    0.27281E-02   -0.43614E-01  4464   0.714E-01    0.178E-01
RMM:   2    -0.230018973971E+04   -0.40676E-02   -0.38007E-02  6127   0.129E-01    0.251E-01
RMM:   3    -0.230018936572E+04    0.37399E-03   -0.33653E-03  5057   0.485E-02    0.106E-01
RMM:   4    -0.230018929321E+04    0.72508E-04   -0.39671E-04  3791   0.114E-02    0.773E-02
RMM:   5    -0.230018925876E+04    0.34453E-04   -0.76766E-05  2886   0.700E-03    0.473E-02
RMM:   6    -0.230018922887E+04    0.29887E-04   -0.72528E-05  3761   0.691E-03    0.274E-02
RMM:   7    -0.230018922368E+04    0.51897E-05   -0.26562E-05  2850   0.628E-03
  51 F= -.23208566E+04 E0= -.23208566E+04  d E =-.970150E-03  mag=     5.9998
       N       E                     dE             d eps       ncg     rms          rms(c)
DAV:   1    -0.230018525781E+04    0.39711E-02   -0.49976E-01  4464   0.764E-01    0.191E-01
RMM:   2    -0.230018991782E+04   -0.46600E-02   -0.43570E-02  6150   0.138E-01    0.268E-01
RMM:   3    -0.230018949216E+04    0.42567E-03   -0.38323E-03  5167   0.506E-02    0.114E-01
RMM:   4    -0.230018940532E+04    0.86833E-04   -0.45184E-04  4007   0.122E-02    0.804E-02
RMM:   5    -0.230018936957E+04    0.35756E-04   -0.88354E-05  2887   0.741E-03    0.523E-02
RMM:   6    -0.230018933341E+04    0.36160E-04   -0.84093E-05  3900   0.737E-03    0.292E-02
RMM:   7    -0.230018932721E+04    0.61963E-05   -0.30520E-05  2855   0.668E-03
  52 F= -.23208568E+04 E0= -.23208568E+04  d E =-.122152E-02  mag=     5.9998
       N       E                     dE             d eps       ncg     rms          rms(c)
DAV:   1    -0.230018677178E+04    0.25616E-02   -0.39181E-01  4464   0.668E-01    0.186E-01
RMM:   2    -0.230019049773E+04   -0.37260E-02   -0.36018E-02  6108   0.123E-01    0.217E-01
RMM:   3    -0.230019036939E+04    0.12835E-03   -0.34540E-03  5060   0.470E-02    0.126E-01
RMM:   4    -0.230019023114E+04    0.13825E-03   -0.37225E-04  3880   0.114E-02    0.671E-02
RMM:   5    -0.230019021488E+04    0.16263E-04   -0.92633E-05  2894   0.736E-03    0.570E-02
RMM:   6    -0.230019017717E+04    0.37709E-04   -0.78575E-05  3666   0.695E-03    0.226E-02
RMM:   7    -0.230019017430E+04    0.28677E-05   -0.19488E-05  2869   0.590E-03
  53 F= -.23208578E+04 E0= -.23208578E+04  d E =-.978049E-03  mag=     5.9998
       N       E                     dE             d eps       ncg     rms          rms(c)
DAV:   1    -0.230018886815E+04    0.13090E-02   -0.15175E-01  4496   0.416E-01    0.116E-01
RMM:   2    -0.230019032470E+04   -0.14566E-02   -0.13998E-02  6133   0.766E-02    0.139E-01
RMM:   3    -0.230019026518E+04    0.59522E-04   -0.13429E-03  4089   0.293E-02    0.787E-02
RMM:   4    -0.230019021321E+04    0.51969E-04   -0.14374E-04  2971   0.784E-03    0.445E-02
RMM:   5    -0.230019020499E+04    0.82175E-05   -0.37616E-05  2876   0.502E-03
  54 F= -.23208579E+04 E0= -.23208579E+04  d E =-.108988E-02  mag=     5.9998
       N       E                     dE             d eps       ncg     rms          rms(c)
DAV:   1    -0.230018739073E+04    0.28225E-02   -0.33176E-01  4448   0.601E-01    0.167E-01
RMM:   2    -0.230019105594E+04   -0.36652E-02   -0.36224E-02  6234   0.114E-01    0.188E-01
RMM:   3    -0.230019107972E+04   -0.23778E-04   -0.35378E-03  4980   0.415E-02    0.117E-01
RMM:   4    -0.230019095763E+04    0.12209E-03   -0.36472E-04  3377   0.105E-02    0.576E-02
RMM:   5    -0.230019095378E+04    0.38529E-05   -0.92946E-05  2890   0.725E-03
  55 F= -.23208587E+04 E0= -.23208587E+04  d E =-.820949E-03  mag=     5.9998
       N       E                     dE             d eps       ncg     rms          rms(c)
DAV:   1    -0.230018890421E+04    0.20534E-02   -0.18878E-01  4464   0.454E-01    0.128E-01
RMM:   2    -0.230019098727E+04   -0.20831E-02   -0.20716E-02  6200   0.856E-02    0.145E-01
RMM:   3    -0.230019098979E+04   -0.25224E-05   -0.20373E-03  4422   0.319E-02    0.919E-02
RMM:   4    -0.230019091804E+04    0.71754E-04   -0.21384E-04  3011   0.859E-03    0.390E-02
RMM:   5    -0.230019093391E+04   -0.15872E-04   -0.69950E-05  2923   0.631E-03    0.749E-02
RMM:   6    -0.230019088821E+04    0.45704E-04   -0.59805E-05  2902   0.657E-03    0.133E-02
RMM:   7    -0.230019088771E+04    0.50174E-06   -0.17125E-05  2886   0.497E-03
  56 F= -.23208587E+04 E0= -.23208587E+04  d E =-.808820E-03  mag=     5.9998
       N       E                     dE             d eps       ncg     rms          rms(c)
DAV:   1    -0.230018824127E+04    0.26469E-02   -0.25080E-01  4464   0.510E-01    0.150E-01
RMM:   2    -0.230019167223E+04   -0.34310E-02   -0.32904E-02  6296   0.998E-02    0.201E-01
RMM:   3    -0.230019159582E+04    0.76407E-04   -0.32830E-03  4719   0.371E-02    0.955E-02
RMM:   4    -0.230019153195E+04    0.63866E-04   -0.34004E-04  3036   0.911E-03    0.612E-02
RMM:   5    -0.230019151162E+04    0.20331E-04   -0.47739E-05  2879   0.526E-03    0.401E-02
RMM:   6    -0.230019148878E+04    0.22846E-04   -0.50699E-05  3004   0.526E-03    0.250E-02
RMM:   7    -0.230019148525E+04    0.35272E-05   -0.17715E-05  2855   0.466E-03
  57 F= -.23208593E+04 E0= -.23208593E+04  d E =-.621327E-03  mag=     5.9998
       N       E                     dE             d eps       ncg     rms          rms(c)
DAV:   1    -0.230018023617E+04    0.11253E-01   -0.88978E-01  4432   0.962E-01    0.281E-01
RMM:   2    -0.230019239460E+04   -0.12158E-01   -0.11663E-01  6306   0.187E-01    0.379E-01
RMM:   3    -0.230019212715E+04    0.26746E-03   -0.11658E-02  5641   0.685E-02    0.181E-01
RMM:   4    -0.230019189693E+04    0.23022E-03   -0.12136E-03  4469   0.158E-02    0.116E-01
RMM:   5    -0.230019182140E+04    0.75531E-04   -0.16316E-04  2914   0.837E-03    0.754E-02
RMM:   6    -0.230019173813E+04    0.83271E-04   -0.18448E-04  4029   0.905E-03    0.454E-02
RMM:   7    -0.230019172499E+04    0.13140E-04   -0.57763E-05  2944   0.798E-03    0.131E-02
RMM:   8    -0.230019172542E+04   -0.43120E-06   -0.15326E-05  2878   0.404E-03
  58 F= -.23208596E+04 E0= -.23208596E+04  d E =-.904103E-03  mag=     5.9998
       N       E                     dE             d eps       ncg     rms          rms(c)
DAV:   1    -0.230018850140E+04    0.32236E-02   -0.27228E-01  4464   0.525E-01    0.165E-01
RMM:   2    -0.230019283946E+04   -0.43381E-02   -0.41246E-02  6280   0.106E-01    0.231E-01
RMM:   3    -0.230019268772E+04    0.15174E-03   -0.41096E-03  4918   0.372E-02    0.979E-02
RMM:   4    -0.230019262209E+04    0.65630E-04   -0.42331E-04  3079   0.925E-03    0.569E-02
RMM:   5    -0.230019260872E+04    0.13378E-04   -0.55556E-05  2873   0.534E-03    0.491E-02
RMM:   6    -0.230019258064E+04    0.28079E-04   -0.54107E-05  2958   0.538E-03    0.301E-02
RMM:   7    -0.230019257421E+04    0.64275E-05   -0.24999E-05  2859   0.509E-03
  59 F= -.23208605E+04 E0= -.23208605E+04  d E =-.873959E-03  mag=     5.9998
       N       E                     dE             d eps       ncg     rms          rms(c)
DAV:   1    -0.230016736559E+04    0.25215E-01   -0.17187E+00  4432   0.132E+00    0.413E-01
RMM:   2    -0.230019473641E+04   -0.27371E-01   -0.26051E-01  6350   0.267E-01    0.580E-01
RMM:   3    -0.230019383700E+04    0.89940E-03   -0.26182E-02  5922   0.956E-02    0.248E-01
RMM:   4    -0.230019340114E+04    0.43587E-03   -0.26983E-03  4942   0.219E-02    0.139E-01
RMM:   5    -0.230019332262E+04    0.78520E-04   -0.34520E-04  3315   0.114E-02    0.128E-01
RMM:   6    -0.230019313678E+04    0.18583E-03   -0.35686E-04  4314   0.118E-02    0.746E-02
RMM:   7    -0.230019309409E+04    0.42687E-04   -0.15213E-04  3553   0.110E-02    0.169E-02
RMM:   8    -0.230019309450E+04   -0.40862E-06   -0.25400E-05  2899   0.478E-03
  60 F= -.23208611E+04 E0= -.23208611E+04  d E =-.145436E-02  mag=     5.9998
       N       E                     dE             d eps       ncg     rms          rms(c)
DAV:   1    -0.230018722518E+04    0.58689E-02   -0.38752E-01  4480   0.609E-01    0.209E-01
RMM:   2    -0.230019439850E+04   -0.71733E-02   -0.67675E-02  6347   0.129E-01    0.306E-01
RMM:   3    -0.230019406330E+04    0.33519E-03   -0.67904E-03  5332   0.464E-02    0.119E-01
RMM:   4    -0.230019397396E+04    0.89344E-04   -0.70667E-04  3259   0.107E-02    0.534E-02
RMM:   5    -0.230019393969E+04    0.34268E-04   -0.95345E-05  3072   0.673E-03    0.533E-02
RMM:   6    -0.230019393804E+04    0.16528E-05   -0.66137E-05  2880   0.613E-03
  61 F= -.23208619E+04 E0= -.23208619E+04  d E =-.847835E-03  mag=     5.9998
       N       E                     dE             d eps       ncg     rms          rms(c)
DAV:   1    -0.230016595948E+04    0.27980E-01   -0.16390E+00  4432   0.125E+00    0.427E-01
RMM:   2    -0.230019627190E+04   -0.30312E-01   -0.28583E-01  6375   0.264E-01    0.635E-01
RMM:   3    -0.230019490697E+04    0.13649E-02   -0.29001E-02  5937   0.959E-02    0.248E-01
RMM:   4    -0.230019451148E+04    0.39550E-03   -0.30167E-03  4867   0.212E-02    0.111E-01
RMM:   5    -0.230019436332E+04    0.14816E-03   -0.40978E-04  4370   0.127E-02    0.111E-01
RMM:   6    -0.230019434657E+04    0.16745E-04   -0.27957E-04  3430   0.982E-03    0.118E-01
RMM:   7    -0.230019423782E+04    0.10875E-03   -0.18496E-04  3664   0.912E-03    0.193E-02
RMM:   8    -0.230019423639E+04    0.14351E-05   -0.21798E-05  2885   0.557E-03
  62 F= -.23208622E+04 E0= -.23208622E+04  d E =-.115138E-02  mag=     5.9998
       N       E                     dE             d eps       ncg     rms          rms(c)
DAV:   1    -0.230018528699E+04    0.89508E-02   -0.52931E-01  4480   0.692E-01    0.258E-01
RMM:   2    -0.230019621331E+04   -0.10926E-01   -0.10231E-01  6380   0.154E-01    0.397E-01
RMM:   3    -0.230019557684E+04    0.63647E-03   -0.10242E-02  5608   0.563E-02    0.153E-01
RMM:   4    -0.230019546449E+04    0.11235E-03   -0.11610E-03  3669   0.131E-02    0.701E-02
RMM:   5    -0.230019547554E+04   -0.11051E-04   -0.16783E-04  2956   0.763E-03    0.114E-01
RMM:   6    -0.230019537277E+04    0.10277E-03   -0.11826E-04  3126   0.729E-03    0.419E-02
RMM:   7    -0.230019535878E+04    0.13997E-04   -0.79454E-05  2892   0.698E-03    0.146E-02
RMM:   8    -0.230019535786E+04    0.91910E-06   -0.11000E-05  2865   0.435E-03
  63 F= -.23208633E+04 E0= -.23208633E+04  d E =-.107993E-02  mag=     5.9998
       N       E                     dE             d eps       ncg     rms          rms(c)
DAV:   1    -0.230018695152E+04    0.84073E-02   -0.45622E-01  4464   0.643E-01    0.239E-01
RMM:   2    -0.230019640312E+04   -0.94516E-02   -0.88331E-02  6336   0.143E-01    0.373E-01
RMM:   3    -0.230019582936E+04    0.57376E-03   -0.88412E-03  5575   0.523E-02    0.141E-01
RMM:   4    -0.230019573503E+04    0.94331E-04   -0.10030E-03  3454   0.122E-02    0.655E-02
RMM:   5    -0.230019574215E+04   -0.71210E-05   -0.14476E-04  2923   0.718E-03    0.105E-01
RMM:   6    -0.230019565455E+04    0.87601E-04   -0.10266E-04  3044   0.689E-03    0.392E-02
RMM:   7    -0.230019564184E+04    0.12707E-04   -0.70879E-05  2882   0.669E-03    0.139E-02
RMM:   8    -0.230019564072E+04    0.11249E-05   -0.98487E-06  2854   0.417E-03
  64 F= -.23208636E+04 E0= -.23208635E+04  d E =-.132317E-02  mag=     5.9999
       N       E                     dE             d eps       ncg     rms          rms(c)
DAV:   1    -0.230019230209E+04    0.33398E-02   -0.23983E-01  4480   0.483E-01    0.192E-01
RMM:   2    -0.230019684839E+04   -0.45463E-02   -0.42965E-02  6223   0.106E-01    0.265E-01
RMM:   3    -0.230019661401E+04    0.23439E-03   -0.44133E-03  5286   0.407E-02    0.134E-01
RMM:   4    -0.230019650879E+04    0.10521E-03   -0.51188E-04  3283   0.103E-02    0.582E-02
RMM:   5    -0.230019650618E+04    0.26154E-05   -0.10700E-04  2903   0.671E-03    0.774E-02
RMM:   6    -0.230019645125E+04    0.54926E-04   -0.70716E-05  3110   0.624E-03    0.231E-02
RMM:   7    -0.230019644640E+04    0.48480E-05   -0.28538E-05  2867   0.571E-03
  65 F= -.23208643E+04 E0= -.23208643E+04  d E =-.777256E-03  mag=     5.9999
       N       E                     dE             d eps       ncg     rms          rms(c)
DAV:   1    -0.230019551318E+04    0.93807E-03   -0.56502E-02  4608   0.235E-01    0.927E-02
RMM:   2    -0.230019657904E+04   -0.10659E-02   -0.10225E-02  6343   0.530E-02    0.121E-01
RMM:   3    -0.230019654591E+04    0.33124E-04   -0.10530E-03  3507   0.207E-02    0.663E-02
RMM:   4    -0.230019651945E+04    0.26464E-04   -0.12101E-04  2925   0.626E-03    0.274E-02
RMM:   5    -0.230019651996E+04   -0.50887E-06   -0.26521E-05  2876   0.366E-03
  66 F= -.23208644E+04 E0= -.23208644E+04  d E =-.836758E-03  mag=     5.9999
       N       E                     dE             d eps       ncg     rms          rms(c)
DAV:   1    -0.230019480610E+04    0.17134E-02   -0.13868E-01  4480   0.367E-01    0.127E-01
RMM:   2    -0.230019719833E+04   -0.23922E-02   -0.23254E-02  6356   0.786E-02    0.169E-01
RMM:   3    -0.230019718554E+04    0.12792E-04   -0.23482E-03  4204   0.297E-02    0.104E-01
RMM:   4    -0.230019712677E+04    0.58769E-04   -0.25719E-04  2958   0.813E-03    0.389E-02
RMM:   5    -0.230019712991E+04   -0.31473E-05   -0.54328E-05  2885   0.495E-03
  67 F= -.23208650E+04 E0= -.23208650E+04  d E =-.590893E-03  mag=     5.9999
       N       E                     dE             d eps       ncg     rms          rms(c)
DAV:   1    -0.230019370183E+04    0.34249E-02   -0.21882E-01  4464   0.460E-01    0.160E-01
RMM:   2    -0.230019746210E+04   -0.37603E-02   -0.36665E-02  6398   0.984E-02    0.210E-01
RMM:   3    -0.230019744878E+04    0.13325E-04   -0.37224E-03  4895   0.375E-02    0.129E-01
RMM:   4    -0.230019734872E+04    0.10005E-03   -0.40307E-04  3071   0.958E-03    0.472E-02
RMM:   5    -0.230019735503E+04   -0.63040E-05   -0.87913E-05  2912   0.638E-03
[...]
RMM:   2    -0.230020667095E+04   -0.48076E-03   -0.51414E-03  6199   0.386E-02    0.306E-02
RMM:   3    -0.230020671286E+04   -0.41904E-04   -0.52937E-04  3063   0.157E-02    0.259E-02
RMM:   4    -0.230020671495E+04   -0.20903E-05   -0.60402E-05  2914   0.406E-03
 106 F= -.23208718E+04 E0= -.23208718E+04  d E =-.679234E-04  mag=     5.9999
       N       E                     dE             d eps       ncg     rms          rms(c)
DAV:   1    -0.230020669731E+04    0.15549E-04   -0.42386E-04  5016   0.209E-02    0.143E-02
RMM:   2    -0.230020670636E+04   -0.90507E-05   -0.69760E-05  2888   0.534E-03
 107 F= -.23208718E+04 E0= -.23208718E+04  d E =-.663960E-04  mag=     5.9999
       N       E                     dE             d eps       ncg     rms          rms(c)
DAV:   1    -0.230020637274E+04    0.32456E-03   -0.29267E-02  4464   0.174E-01    0.576E-02
RMM:   2    -0.230020677150E+04   -0.39875E-03   -0.42513E-03  6177   0.365E-02    0.369E-02
RMM:   3    -0.230020681291E+04   -0.41410E-04   -0.41721E-04  3041   0.141E-02    0.490E-02
RMM:   4    -0.230020679886E+04    0.14051E-04   -0.48730E-05  2887   0.442E-03    0.162E-02
RMM:   5    -0.230020679598E+04    0.28778E-05   -0.90159E-06  2856   0.262E-03
 108 F= -.23208718E+04 E0= -.23208718E+04  d E =-.507359E-04  mag=     5.9999
       N       E                     dE             d eps       ncg     rms          rms(c)
DAV:   1    -0.230020678960E+04    0.92562E-05   -0.31241E-04  4912   0.182E-02    0.152E-02
RMM:   2    -0.230020680972E+04   -0.20124E-04   -0.70406E-05  2890   0.491E-03    0.438E-02
RMM:   3    -0.230020679241E+04    0.17317E-04   -0.17315E-05  2524   0.331E-03    0.289E-03
RMM:   4    -0.230020679235E+04    0.53376E-07   -0.20742E-06  1978   0.101E-03
 109 F= -.23208718E+04 E0= -.23208718E+04  d E =-.507998E-04  mag=     5.9999
       N       E                     dE             d eps       ncg     rms          rms(c)
DAV:   1    -0.230020649757E+04    0.29484E-03   -0.25761E-02  4464   0.162E-01    0.521E-02
RMM:   2    -0.230020684520E+04   -0.34764E-03   -0.37549E-03  6030   0.321E-02    0.242E-02
RMM:   3    -0.230020687597E+04   -0.30765E-04   -0.38253E-04  2968   0.136E-02    0.186E-02
RMM:   4    -0.230020687779E+04   -0.18205E-05   -0.41743E-05  2907   0.348E-03
 110 F= -.23208719E+04 E0= -.23208719E+04  d E =-.623294E-04  mag=     5.9999
       N       E                     dE             d eps       ncg     rms          rms(c)
DAV:   1    -0.230020687515E+04    0.81550E-06   -0.17473E-04  5160   0.132E-02    0.127E-02
RMM:   2    -0.230020688775E+04   -0.12600E-04   -0.39718E-05  2821   0.342E-03    0.395E-02
RMM:   3    -0.230020687610E+04    0.11655E-04   -0.10956E-05  2383   0.238E-03    0.501E-03
RMM:   4    -0.230020687598E+04    0.11978E-06   -0.25575E-06  1996   0.104E-03
 111 F= -.23208719E+04 E0= -.23208719E+04  d E =-.586426E-04  mag=     5.9999
       N       E                     dE             d eps       ncg     rms          rms(c)
DAV:   1    -0.230020665942E+04    0.21668E-03   -0.20846E-02  4464   0.145E-01    0.480E-02
RMM:   2    -0.230020695938E+04   -0.29996E-03   -0.31490E-03  6065   0.293E-02    0.404E-02
RMM:   3    -0.230020699174E+04   -0.32358E-04   -0.34015E-04  2902   0.121E-02    0.480E-02
RMM:   4    -0.230020697690E+04    0.14835E-04   -0.37466E-05  2864   0.380E-03    0.115E-02
RMM:   5    -0.230020697553E+04    0.13707E-05   -0.62171E-06  2767   0.200E-03
 112 F= -.23208719E+04 E0= -.23208719E+04  d E =-.576481E-04  mag=     5.9999
       N       E                     dE             d eps       ncg     rms          rms(c)
DAV:   1    -0.230020695815E+04    0.18749E-04   -0.22212E-03  4488   0.472E-02    0.184E-02
RMM:   2    -0.230020700005E+04   -0.41895E-04   -0.35560E-04  3558   0.105E-02    0.357E-02
RMM:   3    -0.230020699230E+04    0.77527E-05   -0.38930E-05  2848   0.583E-03
 113 F= -.23208719E+04 E0= -.23208719E+04  d E =-.604880E-04  mag=     5.9999
       N       E                     dE             d eps       ncg     rms          rms(c)
DAV:   1    -0.230020673363E+04    0.26642E-03   -0.21045E-02  4448   0.144E-01    0.478E-02
RMM:   2    -0.230020706654E+04   -0.33291E-03   -0.34484E-03  6141   0.308E-02    0.438E-02
RMM:   3    -0.230020709771E+04   -0.31172E-04   -0.37473E-04  2899   0.123E-02    0.459E-02
RMM:   4    -0.230020708576E+04    0.11954E-04   -0.40892E-05  2885   0.384E-03    0.131E-02
RMM:   5    -0.230020708403E+04    0.17296E-05   -0.64113E-06  2794   0.213E-03
 114 F= -.23208720E+04 E0= -.23208720E+04  d E =-.489023E-04  mag=     5.9999
       N       E                     dE             d eps       ncg     rms          rms(c)
DAV:   1    -0.230020707809E+04    0.76665E-05   -0.86250E-04  4680   0.291E-02    0.153E-02
RMM:   2    -0.230020710449E+04   -0.26399E-04   -0.16221E-04  3054   0.703E-03    0.391E-02
RMM:   3    -0.230020709135E+04    0.13138E-04   -0.22389E-05  2739   0.434E-03    0.557E-03
RMM:   4    -0.230020709128E+04    0.77198E-07   -0.32028E-06  2363   0.129E-03
 115 F= -.23208720E+04 E0= -.23208720E+04  d E =-.472867E-04  mag=     5.9999
       N       E                     dE             d eps       ncg     rms          rms(c)
DAV:   1    -0.230020691013E+04    0.18122E-03   -0.15387E-02  4456   0.121E-01    0.429E-02
RMM:   2    -0.230020718183E+04   -0.27170E-03   -0.26537E-03  6028   0.254E-02    0.620E-02
RMM:   3    -0.230020718211E+04   -0.27666E-06   -0.28526E-04  2904   0.106E-02    0.345E-02
RMM:   4    -0.230020717594E+04    0.61678E-05   -0.30284E-05  2888   0.319E-03
 116 F= -.23208720E+04 E0= -.23208720E+04  d E =-.533278E-04  mag=     5.9999
       N       E                     dE             d eps       ncg     rms          rms(c)
DAV:   1    -0.230020698334E+04    0.19877E-03   -0.13512E-02  4464   0.114E-01    0.377E-02
RMM:   2    -0.230020720909E+04   -0.22575E-03   -0.22944E-03  5932   0.236E-02    0.419E-02
RMM:   3    -0.230020722513E+04   -0.16037E-04   -0.26842E-04  2894   0.108E-02    0.342E-02
RMM:   4    -0.230020721772E+04    0.74122E-05   -0.26964E-05  2875   0.304E-03
 117 F= -.23208721E+04 E0= -.23208720E+04  d E =-.654386E-04  mag=     5.9999
       N       E                     dE             d eps       ncg     rms          rms(c)
DAV:   1    -0.230020696051E+04    0.26461E-03   -0.20560E-02  4464   0.141E-01    0.461E-02
RMM:   2    -0.230020729722E+04   -0.33671E-03   -0.34523E-03  6114   0.294E-02    0.460E-02
RMM:   3    -0.230020732745E+04   -0.30224E-04   -0.40548E-04  2933   0.129E-02    0.436E-02
RMM:   4    -0.230020731528E+04    0.12169E-04   -0.40141E-05  2881   0.370E-03    0.130E-02
RMM:   5    -0.230020731382E+04    0.14553E-05   -0.62544E-06  2812   0.199E-03
 118 F= -.23208721E+04 E0= -.23208721E+04  d E =-.598202E-04  mag=     5.9999
       N       E                     dE             d eps       ncg     rms          rms(c)
DAV:   1    -0.230020725071E+04    0.64572E-04   -0.51276E-03  4480   0.702E-02    0.275E-02
RMM:   2    -0.230020735761E+04   -0.10691E-03   -0.91079E-04  5098   0.156E-02    0.592E-02
RMM:   3    -0.230020733804E+04    0.19577E-04   -0.92241E-05  2862   0.658E-03    0.150E-02
RMM:   4    -0.230020733736E+04    0.67716E-06   -0.11120E-05  2868   0.215E-03
 119 F= -.23208721E+04 E0= -.23208721E+04  d E =-.651231E-04  mag=     5.9999
       N       E                     dE             d eps       ncg     rms          rms(c)
DAV:   1    -0.230020717899E+04    0.15904E-03   -0.13853E-02  4464   0.116E-01    0.403E-02
RMM:   2    -0.230020739859E+04   -0.21960E-03   -0.22191E-03  6004   0.242E-02    0.455E-02
RMM:   3    -0.230020741256E+04   -0.13972E-04   -0.25929E-04  2890   0.105E-02    0.371E-02
RMM:   4    -0.230020740347E+04    0.90948E-05   -0.25408E-05  2874   0.318E-03
 120 F= -.23208722E+04 E0= -.23208722E+04  d E =-.454406E-04  mag=     5.9999
       N       E                     dE             d eps       ncg     rms          rms(c)
DAV:   1    -0.230020737394E+04    0.38625E-04   -0.24750E-03  4640   0.492E-02    0.178E-02
RMM:   2    -0.230020741457E+04   -0.40633E-04   -0.39780E-04  3724   0.104E-02    0.233E-02
RMM:   3    -0.230020741553E+04   -0.95651E-06   -0.51777E-05  2845   0.609E-03
 121 F= -.23208722E+04 E0= -.23208722E+04  d E =-.486109E-04  mag=     5.9999
       N       E                     dE             d eps       ncg     rms          rms(c)
DAV:   1    -0.230020722229E+04    0.19228E-03   -0.15363E-02  4480   0.121E-01    0.417E-02
RMM:   2    -0.230020746525E+04   -0.24297E-03   -0.24752E-03  5993   0.255E-02    0.467E-02
RMM:   3    -0.230020747942E+04   -0.14164E-04   -0.24262E-04  2894   0.104E-02    0.412E-02
RMM:   4    -0.230020746948E+04    0.99357E-05   -0.30605E-05  2886   0.340E-03
 122 F= -.23208722E+04 E0= -.23208722E+04  d E =-.366657E-04  mag=     5.9999
       N       E                     dE             d eps       ncg     rms          rms(c)
DAV:   1    -0.230020746691E+04    0.12509E-04   -0.19601E-04  4960   0.136E-02    0.978E-03
RMM:   2    -0.230020747446E+04   -0.75556E-05   -0.41004E-05  2761   0.347E-03
 123 F= -.23208722E+04 E0= -.23208722E+04  d E =-.395965E-04  mag=     5.9999
       N       E                     dE             d eps       ncg     rms          rms(c)
DAV:   1    -0.230020736675E+04    0.10016E-03   -0.10799E-02  4464   0.102E-01    0.354E-02
RMM:   2    -0.230020752248E+04   -0.15574E-03   -0.16559E-03  5826   0.223E-02    0.240E-02
RMM:   3    -0.230020754039E+04   -0.17912E-04   -0.17418E-04  2879   0.968E-03    0.342E-02
RMM:   4    -0.230020753359E+04    0.68065E-05   -0.20973E-05  2875   0.286E-03
 124 F= -.23208722E+04 E0= -.23208722E+04  d E =-.284193E-04  mag=     5.9999
       N       E                     dE             d eps       ncg     rms          rms(c)
DAV:   1    -0.230020753350E+04    0.68952E-05   -0.55182E-05  4888   0.732E-03    0.666E-03
RMM:   2    -0.230020753593E+04   -0.24290E-05   -0.12760E-05  2486   0.218E-03
 125 F= -.23208722E+04 E0= -.23208722E+04  d E =-.284298E-04  mag=     5.9999
       N       E                     dE             d eps       ncg     rms          rms(c)
DAV:   1    -0.230020747158E+04    0.61923E-04   -0.83153E-03  4464   0.901E-02    0.307E-02
RMM:   2    -0.230020759005E+04   -0.11847E-03   -0.12709E-03  5744   0.188E-02    0.174E-02
RMM:   3    -0.230020760290E+04   -0.12851E-04   -0.13801E-04  2877   0.864E-03    0.233E-02
RMM:   4    -0.230020760035E+04    0.25531E-05   -0.15589E-05  2857   0.235E-03
 126 F= -.23208723E+04 E0= -.23208722E+04  d E =-.211865E-04  mag=     5.9999
       N       E                     dE             d eps       ncg     rms          rms(c)
DAV:   1    -0.230020759813E+04    0.47675E-05   -0.10878E-05  3800   0.366E-03    0.529E-03
RMM:   2    -0.230020759863E+04   -0.49816E-06   -0.30061E-06  2271   0.192E-03
 127 F= -.23208723E+04 E0= -.23208722E+04  d E =-.204998E-04  mag=     5.9999
       N       E                     dE             d eps       ncg     rms          rms(c)
DAV:   1    -0.230020752806E+04    0.70071E-04   -0.86828E-03  4448   0.949E-02    0.338E-02
RMM:   2    -0.230020764454E+04   -0.11647E-03   -0.12507E-03  5714   0.193E-02    0.206E-02
RMM:   3    -0.230020765802E+04   -0.13489E-04   -0.13438E-04  2870   0.874E-03    0.293E-02
RMM:   4    -0.230020765269E+04    0.53383E-05   -0.15517E-05  2842   0.252E-03
 128 F= -.23208723E+04 E0= -.23208723E+04  d E =-.228313E-04  mag=     5.9999
       N       E                     dE             d eps       ncg     rms          rms(c)
DAV:   1    -0.230020765196E+04    0.60594E-05   -0.80815E-06  3688   0.286E-03    0.904E-03
RMM:   2    -0.230020765650E+04   -0.45378E-05   -0.95400E-06  2233   0.205E-03
 129 F= -.23208723E+04 E0= -.23208723E+04  d E =-.268861E-04  mag=     5.9999
       N       E                     dE             d eps       ncg     rms          rms(c)
DAV:   1    -0.230020758292E+04    0.69047E-04   -0.53950E-03  4448   0.743E-02    0.260E-02
RMM:   2    -0.230020766622E+04   -0.83302E-04   -0.86451E-04  5224   0.162E-02    0.231E-02
RMM:   3    -0.230020767311E+04   -0.68859E-05   -0.96940E-05  2858   0.754E-03
 130 F= -.23208723E+04 E0= -.23208723E+04  d E =-.119969E-04  mag=     5.9999
       N       E                     dE             d eps       ncg     rms          rms(c)
DAV:   1    -0.230020766679E+04   -0.57320E-06   -0.26610E-04  4408   0.163E-02    0.977E-03
RMM:   2    -0.230020767112E+04   -0.43234E-05   -0.37793E-05  2626   0.387E-03
 131 F= -.23208723E+04 E0= -.23208723E+04  d E =-.109631E-04  mag=     5.9999
       N       E                     dE             d eps       ncg     rms          rms(c)
DAV:   1    -0.230020764001E+04    0.26784E-04   -0.44954E-03  4464   0.690E-02    0.248E-02
RMM:   2    -0.230020770241E+04   -0.62401E-04   -0.66888E-04  4755   0.154E-02    0.146E-02
RMM:   3    -0.230020770989E+04   -0.74760E-05   -0.76090E-05  2853   0.729E-03
 132 F= -.23208723E+04 E0= -.23208723E+04  d E =-.164098E-04  mag=     5.9999
       N       E                     dE             d eps       ncg     rms          rms(c)
DAV:   1    -0.230020770684E+04   -0.44263E-05   -0.28956E-05  3984   0.452E-03    0.745E-03
RMM:   2    -0.230020770842E+04   -0.15798E-05   -0.58203E-06  2300   0.236E-03
 133 F= -.23208723E+04 E0= -.23208723E+04  d E =-.155069E-04  mag=     5.9999
       N       E                     dE             d eps       ncg     rms          rms(c)
DAV:   1    -0.230020770677E+04    0.67477E-07   -0.13262E-05  2424   0.303E-03    0.325E-03
RMM:   2    -0.230020770713E+04   -0.35665E-06   -0.11517E-06  1825   0.106E-03
 134 F= -.23208723E+04 E0= -.23208723E+04  d E =-.137294E-04  mag=     5.9999
       N       E                     dE             d eps       ncg     rms          rms(c)
DAV:   1    -0.230020769745E+04    0.93222E-05   -0.28146E-03  4464   0.531E-02    0.196E-02
RMM:   2    -0.230020774118E+04   -0.43732E-04   -0.45331E-04  4057   0.115E-02    0.184E-02
RMM:   3    -0.230020774539E+04   -0.42084E-05   -0.54768E-05  2777   0.644E-03
 135 F= -.23208723E+04 E0= -.23208723E+04  d E =-.137450E-04  mag=     5.9999
       N       E                     dE             d eps       ncg     rms          rms(c)
DAV:   1    -0.230020774243E+04   -0.12505E-05   -0.18709E-05  3488   0.378E-03    0.597E-03
RMM:   2    -0.230020774321E+04   -0.77764E-06   -0.34071E-06  2179   0.180E-03
 136 F= -.23208723E+04 E0= -.23208723E+04  d E =-.121786E-04  mag=     5.9999
       N       E                     dE             d eps       ncg     rms          rms(c)
DAV:   1    -0.230020772958E+04    0.12849E-04   -0.27147E-03  4464   0.529E-02    0.185E-02
RMM:   2    -0.230020776771E+04   -0.38134E-04   -0.40252E-04  3981   0.117E-02    0.131E-02
RMM:   3    -0.230020777220E+04   -0.44898E-05   -0.46135E-05  2742   0.655E-03
 137 F= -.23208723E+04 E0= -.23208723E+04  d E =-.796360E-05  mag=     5.9999
       N       E                     dE             d eps       ncg     rms          rms(c)
DAV:   1    -0.230020776780E+04   -0.86395E-07   -0.54974E-05  4504   0.742E-03    0.585E-03
RMM:   2    -0.230020776870E+04   -0.90044E-06   -0.71817E-06  2301   0.197E-03
 138 F= -.23208723E+04 E0= -.23208723E+04  d E =-.693914E-05  mag=     5.9999
       N       E                     dE             d eps       ncg     rms          rms(c)
DAV:   1    -0.230020775720E+04    0.10605E-04   -0.20055E-03  4416   0.450E-02    0.157E-02
RMM:   2    -0.230020778565E+04   -0.28451E-04   -0.30210E-04  3524   0.997E-03    0.107E-02
RMM:   3    -0.230020778928E+04   -0.36344E-05   -0.36255E-05  2602   0.610E-03
 139 F= -.23208723E+04 E0= -.23208723E+04  d E =-.112140E-04  mag=     5.9999
       N       E                     dE             d eps       ncg     rms          rms(c)
DAV:   1    -0.230020778874E+04   -0.30915E-05   -0.60224E-05  4896   0.781E-03    0.479E-03
RMM:   2    -0.230020778958E+04   -0.83861E-06   -0.10608E-05  2339   0.227E-03
 140 F= -.23208723E+04 E0= -.23208723E+04  d E =-.998937E-05  mag=     5.9999
       N       E                     dE             d eps       ncg     rms          rms(c)
DAV:   1    -0.230020778648E+04    0.22581E-05   -0.98460E-04  4336   0.315E-02    0.112E-02
RMM:   2    -0.230020780097E+04   -0.14494E-04   -0.15471E-04  3035   0.757E-03    0.721E-03
RMM:   3    -0.230020780274E+04   -0.17700E-05   -0.20419E-05  2321   0.496E-03
 141 F= -.23208723E+04 E0= -.23208723E+04  d E =-.772866E-05  mag=     5.9999
       N       E                     dE             d eps       ncg     rms          rms(c)
DAV:   1    -0.230020780224E+04   -0.12623E-05   -0.73560E-06  2696   0.264E-03    0.451E-03
RMM:   2    -0.230020780291E+04   -0.67684E-06   -0.21104E-06  2080   0.163E-03
 142 F= -.23208723E+04 E0= -.23208723E+04  d E =-.812843E-05  mag=     5.9999
       N       E                     dE             d eps       ncg     rms          rms(c)
DAV:   1    -0.230020781296E+04   -0.10719E-04   -0.10981E-03  4352   0.342E-02    0.125E-02
RMM:   2    -0.230020782698E+04   -0.14028E-04   -0.14811E-04  3090   0.744E-03    0.105E-02
RMM:   3    -0.230020782866E+04   -0.16778E-05   -0.18579E-05  2403   0.477E-03
 143 F= -.23208723E+04 E0= -.23208723E+04  d E =-.694378E-05  mag=     5.9999
       N       E                     dE             d eps       ncg     rms          rms(c)
DAV:   1    -0.230020783017E+04   -0.31840E-05   -0.31566E-05  4072   0.583E-03    0.397E-03
RMM:   2    -0.230020783073E+04   -0.56127E-06   -0.57170E-06  2272   0.236E-03
 144 F= -.23208723E+04 E0= -.23208723E+04  d E =-.604105E-05  mag=     5.9999
       N       E                     dE             d eps       ncg     rms          rms(c)
DAV:   1    -0.230020784152E+04   -0.11350E-04   -0.48165E-04  4160   0.215E-02    0.742E-03
RMM:   2    -0.230020784903E+04   -0.75078E-05   -0.78768E-05  2696   0.527E-03
 145 F= -.23208724E+04 E0= -.23208723E+04  d E =-.487020E-05  mag=     5.9999
       N       E                     dE             d eps       ncg     rms          rms(c)
DAV:   1    -0.230020785162E+04   -0.10105E-04   -0.23157E-05  2728   0.506E-03    0.644E-03
RMM:   2    -0.230020785519E+04   -0.35668E-05   -0.10316E-05  2277   0.300E-03
 146 F= -.23208724E+04 E0= -.23208724E+04  d E =-.915295E-05  mag=     5.9999
       N       E                     dE             d eps       ncg     rms          rms(c)
DAV:   1    -0.230020785429E+04   -0.26681E-05   -0.37615E-04  4168   0.176E-02    0.690E-03
RMM:   2    -0.230020786113E+04   -0.68368E-05   -0.71231E-05  2678   0.465E-03
 147 F= -.23208724E+04 E0= -.23208724E+04  d E =-.174051E-05  mag=     5.9999
       N       E                     dE             d eps       ncg     rms          rms(c)
DAV:   1    -0.230020786197E+04   -0.76752E-05   -0.15508E-05  2552   0.399E-03    0.638E-03
RMM:   2    -0.230020786500E+04   -0.30334E-05   -0.86646E-06  2213   0.201E-03
 148 F= -.23208724E+04 E0= -.23208724E+04  d E =-.523402E-05  mag=     5.9999
       N       E                     dE             d eps       ncg     rms          rms(c)
DAV:   1    -0.230020785629E+04    0.56748E-05   -0.28026E-04  4152   0.145E-02    0.597E-03
RMM:   2    -0.230020786176E+04   -0.54667E-05   -0.57049E-05  2615   0.393E-03
 149 F= -.23208724E+04 E0= -.23208724E+04  d E =-.105661E-06  mag=     5.9999
       N       E                     dE             d eps       ncg     rms          rms(c)
DAV:   1    -0.230020786161E+04   -0.53159E-05   -0.15525E-05  2632   0.385E-03    0.564E-03
RMM:   2    -0.230020786433E+04   -0.27250E-05   -0.77808E-06  2227   0.219E-03
 150 F= -.23208724E+04 E0= -.23208724E+04  d E =-.319656E-05  mag=     5.9999
       N       E                     dE             d eps       ncg     rms          rms(c)
DAV:   1    -0.230020786404E+04   -0.24301E-05   -0.18129E-04  4208   0.111E-02    0.451E-03
RMM:   2    -0.230020786784E+04   -0.38056E-05   -0.39901E-05  2406   0.311E-03
 151 F= -.23208724E+04 E0= -.23208724E+04  d E =-.592124E-06  mag=     5.9999
