       N       E                     dE             d eps       ncg     rms          rms(c)
DAV:   1     0.130714552249E+05    0.13071E+05   -0.84039E+05  4536   0.144E+03
DAV:   2    -0.998775802042E+03   -0.14070E+05   -0.13437E+05  4904   0.331E+02
DAV:   3    -0.247005578642E+04   -0.14713E+04   -0.14528E+04  5496   0.115E+02
DAV:   4    -0.251631040484E+04   -0.46255E+02   -0.45963E+02  6680   0.294E+01
DAV:   5    -0.251718136557E+04   -0.87096E+00   -0.86857E+00  6232   0.350E+00    0.170E+02
RMM:   6    -0.148826576041E+04    0.10289E+04   -0.19436E+03  4449   0.382E+01    0.723E+01
RMM:   7    -0.164886378797E+04   -0.16060E+03   -0.28871E+02  5186   0.142E+01    0.474E+01
RMM:   8    -0.170478891809E+04   -0.55925E+02   -0.37259E+01  5348   0.686E+00    0.347E+01
RMM:   9    -0.186385021869E+04   -0.15906E+03   -0.68935E+01  4876   0.821E+00    0.370E+01
RMM:  10    -0.193185489584E+04   -0.68005E+02   -0.38888E+01  5139   0.593E+00    0.203E+01
RMM:  11    -0.204831964881E+04   -0.11646E+03   -0.55069E+01  4636   0.578E+00    0.145E+01
RMM:  12    -0.213234885762E+04   -0.84029E+02   -0.43241E+01  5141   0.515E+00    0.170E+01
RMM:  13    -0.221805143698E+04   -0.85703E+02   -0.59167E+01  4518   0.583E+00    0.915E+00
RMM:  14    -0.229011402563E+04   -0.72063E+02   -0.72166E+01  4564   0.590E+00    0.487E+00
RMM:  15    -0.230215411328E+04   -0.12040E+02   -0.14729E+01  4761   0.365E+00    0.360E+00
RMM:  16    -0.230536076218E+04   -0.32066E+01   -0.47839E+00  5249   0.119E+00    0.554E+00
RMM:  17    -0.230544285781E+04   -0.82096E-01   -0.18994E-01  5652   0.504E-01    0.511E+00
RMM:  18    -0.230586524646E+04   -0.42239E+00   -0.14060E-01  4503   0.270E-01    0.425E+00
RMM:  19    -0.230789161242E+04   -0.20264E+01   -0.97371E-01  4505   0.660E-01    0.191E+00
RMM:  20    -0.230825307825E+04   -0.36147E+00   -0.20889E-01  4550   0.380E-01    0.254E+00
RMM:  21    -0.230825410931E+04   -0.10311E-02   -0.25733E-02  5328   0.110E-01    0.261E+00
RMM:  22    -0.230844723636E+04   -0.19313E+00   -0.91529E-02  4755   0.179E-01    0.165E+00
RMM:  23    -0.230865044025E+04   -0.20320E+00   -0.18833E-01  4543   0.231E-01    0.175E+00
RMM:  24    -0.230862570085E+04    0.24739E-01   -0.16597E-01  4560   0.203E-01    0.218E+00
RMM:  25    -0.230860919176E+04    0.16509E-01   -0.17528E-02  5502   0.666E-02    0.225E+00
RMM:  26    -0.230867708696E+04   -0.67895E-01   -0.33928E-02  4714   0.731E-02    0.210E+00
RMM:  27    -0.230882288093E+04   -0.14579E+00   -0.20339E-01  4736   0.187E-01    0.307E+00
RMM:  28    -0.230885267539E+04   -0.29794E-01   -0.56509E-02  4938   0.113E-01    0.321E+00
RMM:  29    -0.230886521523E+04   -0.12540E-01   -0.39773E-02  5298   0.825E-02    0.303E+00
RMM:  30    -0.230889001309E+04   -0.24798E-01   -0.21944E-02  4976   0.590E-02    0.297E+00
RMM:  31    -0.230895266429E+04   -0.62651E-01   -0.34899E-02  4815   0.887E-02    0.263E+00
RMM:  32    -0.230902874801E+04   -0.76084E-01   -0.58247E-02  4782   0.114E-01    0.189E+00
RMM:  33    -0.230910665931E+04   -0.77911E-01   -0.11521E-01  4939   0.157E-01    0.698E-01
RMM:  34    -0.230913293920E+04   -0.26280E-01   -0.18595E-02  5228   0.841E-02    0.536E-01
RMM:  35    -0.230918465836E+04   -0.51719E-01   -0.31730E-02  4561   0.922E-02    0.266E-01
RMM:  36    -0.230920151986E+04   -0.16862E-01   -0.84919E-03  4711   0.588E-02    0.326E-01
RMM:  37    -0.230921111344E+04   -0.95936E-02   -0.65022E-03  4870   0.433E-02    0.527E-01
RMM:  38    -0.230921537440E+04   -0.42610E-02   -0.40692E-03  5048   0.342E-02    0.242E-01
RMM:  39    -0.230921579702E+04   -0.42263E-03   -0.26037E-03  4676   0.220E-02    0.620E-02
RMM:  40    -0.230921711219E+04   -0.13152E-02   -0.31728E-04  4041   0.126E-02    0.537E-02
RMM:  41    -0.230921837721E+04   -0.12650E-02   -0.29230E-04  4025   0.105E-02    0.496E-02
RMM:  42    -0.230921885344E+04   -0.47623E-03   -0.11561E-04  3718   0.877E-03    0.362E-02
RMM:  43    -0.230921918274E+04   -0.32930E-03   -0.95748E-05  3616   0.601E-03    0.284E-02
RMM:  44    -0.230921931480E+04   -0.13206E-03   -0.58581E-05  3108   0.650E-03    0.104E-02
RMM:  45    -0.230921937256E+04   -0.57756E-04   -0.25816E-05  2994   0.404E-03    0.751E-03
RMM:  46    -0.230921940981E+04   -0.37250E-04   -0.11583E-05  2878   0.355E-03    0.344E-03
RMM:  47    -0.230921942269E+04   -0.12888E-04   -0.60919E-06  2597   0.236E-03    0.259E-03
RMM:  48    -0.230921942568E+04   -0.29849E-05   -0.23887E-06  2499   0.207E-03
   1 F= -.23304399E+04 E0= -.23304399E+04  d E =-.233044E+04  mag=     1.0005
       N       E                     dE             d eps       ncg     rms          rms(c)
DAV:   1    -0.230993368980E+04   -0.71427E+00   -0.15986E+02  4624   0.840E+00    0.236E+00
RMM:   2    -0.231072350324E+04   -0.78981E+00   -0.87574E+00  5590   0.192E+00    0.224E+00
RMM:   3    -0.231075033519E+04   -0.26832E-01   -0.71732E-01  5998   0.694E-01    0.308E+00
RMM:   4    -0.231065925139E+04    0.91084E-01   -0.83803E-02  6318   0.187E-01    0.127E+00
RMM:   5    -0.231065709139E+04    0.21600E-02   -0.11514E-01  5045   0.153E-01    0.132E+00
RMM:   6    -0.231064489824E+04    0.12193E-01   -0.40554E-02  5752   0.123E-01    0.809E-01
RMM:   7    -0.231063832675E+04    0.65715E-02   -0.92052E-03  6282   0.478E-02    0.346E-01
RMM:   8    -0.231063652484E+04    0.18019E-02   -0.23397E-03  5791   0.246E-02    0.145E-01
RMM:   9    -0.231063603693E+04    0.48792E-03   -0.14829E-03  4997   0.166E-02    0.562E-02
RMM:  10    -0.231063599661E+04    0.40314E-04   -0.16551E-04  3655   0.115E-02    0.236E-02
RMM:  11    -0.231063599281E+04    0.38023E-05   -0.75119E-05  3377   0.585E-03
   2 F= -.23318571E+04 E0= -.23318571E+04  d E =-.141717E+01  mag=     1.0001
       N       E                     dE             d eps       ncg     rms          rms(c)
DAV:   1    -0.231063624739E+04   -0.25077E-03   -0.16977E-01  5120   0.287E-01    0.741E-02
RMM:   2    -0.231063682020E+04   -0.57281E-03   -0.65253E-03  5685   0.525E-02    0.837E-02
RMM:   3    -0.231063686761E+04   -0.47416E-04   -0.57102E-04  3799   0.167E-02    0.997E-02
RMM:   4    -0.231063676595E+04    0.10167E-03   -0.96346E-05  3081   0.679E-03    0.305E-02
RMM:   5    -0.231063679655E+04   -0.30606E-04   -0.70984E-05  2997   0.520E-03    0.596E-02
RMM:   6    -0.231063675809E+04    0.38462E-04   -0.42445E-05  2973   0.503E-03    0.136E-02
RMM:   7    -0.231063675778E+04    0.31103E-06   -0.11649E-05  2770   0.329E-03
   3 F= -.23318579E+04 E0= -.23318579E+04  d E =-.141801E+01  mag=     1.0000
       N       E                     dE             d eps       ncg     rms          rms(c)
DAV:   1    -0.231082852428E+04   -0.19177E+00   -0.24566E+01  4560   0.447E+00    0.124E+00
RMM:   2    -0.231113911027E+04   -0.31059E+00   -0.29465E+00  6517   0.102E+00    0.232E+00
RMM:   3    -0.231112424028E+04    0.14870E-01   -0.33418E-01  6399   0.398E-01    0.132E+00
RMM:   4    -0.231110677779E+04    0.17462E-01   -0.31001E-02  6010   0.958E-02    0.588E-01
RMM:   5    -0.231110472466E+04    0.20531E-02   -0.69056E-03  5668   0.462E-02    0.509E-01
RMM:   6    -0.231110411181E+04    0.61285E-03   -0.94124E-03  5474   0.529E-02    0.549E-01
RMM:   7    -0.231110022145E+04    0.38904E-02   -0.63107E-03  6057   0.489E-02    0.158E-01
RMM:   8    -0.231109995671E+04    0.26474E-03   -0.11656E-03  5376   0.205E-02    0.722E-02
RMM:   9    -0.231109983597E+04    0.12074E-03   -0.22220E-04  4061   0.123E-02    0.356E-02
RMM:  10    -0.231109980835E+04    0.27620E-04   -0.16404E-04  3902   0.853E-03    0.128E-02
RMM:  11    -0.231109980671E+04    0.16317E-05   -0.21590E-05  2986   0.552E-03
   4 F= -.23323193E+04 E0= -.23323193E+04  d E =-.461403E+00  mag=     1.0000
       N       E                     dE             d eps       ncg     rms          rms(c)
DAV:   1    -0.231062910685E+04    0.47070E+00   -0.69144E+01  4492   0.784E+00    0.206E+00
RMM:   2    -0.231148750613E+04   -0.85840E+00   -0.81588E+00  6539   0.160E+00    0.395E+00
RMM:   3    -0.231146217209E+04    0.25334E-01   -0.91719E-01  6393   0.600E-01    0.239E+00
RMM:   4    -0.231140606600E+04    0.56106E-01   -0.84143E-02  5991   0.152E-01    0.955E-01
RMM:   5    -0.231140114923E+04    0.49168E-02   -0.22126E-02  5734   0.757E-02    0.850E-01
RMM:   6    -0.231139798520E+04    0.31640E-02   -0.30818E-02  5445   0.926E-02    0.884E-01
RMM:   7    -0.231139051649E+04    0.74687E-02   -0.12755E-02  5591   0.690E-02    0.399E-01
RMM:   8    -0.231138927308E+04    0.12434E-02   -0.24433E-03  5496   0.291E-02    0.165E-01
RMM:   9    -0.231138889244E+04    0.38064E-03   -0.62911E-04  4660   0.191E-02    0.652E-02
RMM:  10    -0.231138884495E+04    0.47483E-04   -0.40881E-04  4443   0.122E-02    0.280E-02
RMM:  11    -0.231138885283E+04   -0.78758E-05   -0.58322E-05  3156   0.708E-03
   5 F= -.23326055E+04 E0= -.23326055E+04  d E =-.747630E+00  mag=     1.0000
       N       E                     dE             d eps       ncg     rms          rms(c)
DAV:   1    -0.231140815598E+04   -0.19311E-01   -0.17576E+01  4552   0.416E+00    0.160E+00
RMM:   2    -0.231156728003E+04   -0.15912E+00   -0.15593E+00  6280   0.905E-01    0.201E+00
RMM:   3    -0.231157031193E+04   -0.30319E-02   -0.15799E-01  6095   0.323E-01    0.200E+00
RMM:   4    -0.231153048693E+04    0.39825E-01   -0.29344E-02  5569   0.119E-01    0.599E-01
RMM:   5    -0.231153156936E+04   -0.10824E-02   -0.15595E-02  5815   0.824E-02    0.693E-01
RMM:   6    -0.231152820894E+04    0.33604E-02   -0.91747E-03  5703   0.582E-02    0.560E-01
RMM:   7    -0.231152475063E+04    0.34583E-02   -0.35961E-03  5462   0.393E-02    0.148E-01
RMM:   8    -0.231152440213E+04    0.34850E-03   -0.72464E-04  4847   0.149E-02    0.525E-02
RMM:   9    -0.231152434561E+04    0.56525E-04   -0.11898E-04  4010   0.114E-02    0.300E-02
RMM:  10    -0.231152431235E+04    0.33257E-04   -0.10852E-04  4146   0.810E-03    0.146E-02
RMM:  11    -0.231152430674E+04    0.56098E-05   -0.26690E-05  3053   0.682E-03
   6 F= -.23327368E+04 E0= -.23327368E+04  d E =-.131312E+00  mag=     1.0000
       N       E                     dE             d eps       ncg     rms          rms(c)
DAV:   1    -0.231152493907E+04   -0.62672E-03   -0.29911E-01  4880   0.552E-01    0.208E-01
RMM:   2    -0.231152754734E+04   -0.26083E-02   -0.26167E-02  6290   0.118E-01    0.256E-01
RMM:   3    -0.231152771533E+04   -0.16799E-03   -0.26671E-03  5498   0.420E-02    0.270E-01
RMM:   4    -0.231152696872E+04    0.74661E-03   -0.47565E-04  4858   0.157E-02    0.638E-02
RMM:   5    -0.231152703828E+04   -0.69552E-04   -0.28336E-04  4301   0.123E-02    0.998E-02
RMM:   6    -0.231152692764E+04    0.11063E-03   -0.15830E-04  3954   0.855E-03    0.504E-02
RMM:   7    -0.231152690921E+04    0.18431E-04   -0.57854E-05  2919   0.650E-03    0.296E-02
RMM:   8    -0.231152689673E+04    0.12483E-04   -0.13427E-05  2871   0.339E-03    0.603E-03
RMM:   9    -0.231152689611E+04    0.61563E-06   -0.43510E-06  2841   0.254E-03
   7 F= -.23327400E+04 E0= -.23327400E+04  d E =-.134432E+00  mag=     1.0000
       N       E                     dE             d eps       ncg     rms          rms(c)
DAV:   1    -0.231147584845E+04    0.51048E-01   -0.91410E+00  4528   0.299E+00    0.995E-01
RMM:   2    -0.231157755970E+04   -0.10171E+00   -0.10646E+00  6314   0.665E-01    0.905E-01
RMM:   3    -0.231159348866E+04   -0.15929E-01   -0.12017E-01  6201   0.259E-01    0.131E+00
RMM:   4    -0.231157511225E+04    0.18376E-01   -0.14291E-02  6248   0.748E-02    0.397E-01
RMM:   5    -0.231157726311E+04   -0.21509E-02   -0.68452E-03  5892   0.443E-02    0.615E-01
RMM:   6    -0.231157298590E+04    0.42772E-02   -0.44490E-03  5517   0.383E-02    0.146E-01
RMM:   7    -0.231157298289E+04    0.30143E-05   -0.12790E-03  5130   0.250E-02    0.149E-01
RMM:   8    -0.231157262537E+04    0.35752E-03   -0.40442E-04  4776   0.115E-02    0.361E-02
RMM:   9    -0.231157259608E+04    0.29286E-04   -0.87864E-05  3327   0.755E-03    0.209E-02
RMM:  10    -0.231157258218E+04    0.13896E-04   -0.44423E-05  3469   0.584E-03    0.105E-02
RMM:  11    -0.231157257951E+04    0.26764E-05   -0.16548E-05  2945   0.529E-03
   8 F= -.23327848E+04 E0= -.23327848E+04  d E =-.447976E-01  mag=     1.0000
       N       E                     dE             d eps       ncg     rms          rms(c)
DAV:   1    -0.231157174415E+04    0.83804E-03   -0.18759E-01  4784   0.432E-01    0.143E-01
RMM:   2    -0.231157387362E+04   -0.21295E-02   -0.22110E-02  6337   0.970E-02    0.139E-01
RMM:   3    -0.231157418569E+04   -0.31208E-03   -0.25168E-03  5106   0.373E-02    0.189E-01
RMM:   4    -0.231157380138E+04    0.38432E-03   -0.29312E-04  3904   0.114E-02    0.580E-02
RMM:   5    -0.231157383393E+04   -0.32554E-04   -0.13646E-04  3047   0.795E-03    0.827E-02
RMM:   6    -0.231157375659E+04    0.77337E-04   -0.10475E-04  3601   0.748E-03    0.239E-02
RMM:   7    -0.231157375592E+04    0.67760E-06   -0.36094E-05  2919   0.589E-03
   9 F= -.23327861E+04 E0= -.23327861E+04  d E =-.460960E-01  mag=     1.0000
       N       E                     dE             d eps       ncg     rms          rms(c)
DAV:   1    -0.231150060020E+04    0.73156E-01   -0.10210E+01  4512   0.315E+00    0.807E-01
RMM:   2    -0.231163253856E+04   -0.13194E+00   -0.13626E+00  6540   0.643E-01    0.920E-01
RMM:   3    -0.231164645112E+04   -0.13913E-01   -0.14368E-01  6394   0.247E-01    0.106E+00
RMM:   4    -0.231163497279E+04    0.11478E-01   -0.13748E-02  6314   0.627E-02    0.376E-01
RMM:   5    -0.231163543360E+04   -0.46081E-03   -0.37284E-03  5671   0.290E-02    0.436E-01
RMM:   6    -0.231163317596E+04    0.22576E-02   -0.30061E-03  5548   0.292E-02    0.180E-01
RMM:   7    -0.231163305392E+04    0.12204E-03   -0.12986E-03  5096   0.218E-02    0.128E-01
RMM:   8    -0.231163281795E+04    0.23597E-03   -0.26376E-04  4183   0.102E-02    0.320E-02
RMM:   9    -0.231163280830E+04    0.96482E-05   -0.43721E-05  2971   0.615E-03
  10 F= -.23328451E+04 E0= -.23328451E+04  d E =-.590105E-01  mag=     1.0000
       N       E                     dE             d eps       ncg     rms          rms(c)
DAV:   1    -0.231069604871E+04    0.93677E+00   -0.74162E+01  4488   0.849E+00    0.221E+00
RMM:   2    -0.231165904272E+04   -0.96299E+00   -0.10224E+01  6558   0.177E+00    0.187E+00
RMM:   3    -0.231180011128E+04   -0.14107E+00   -0.11430E+00  6391   0.688E-01    0.294E+00
RMM:   4    -0.231171011330E+04    0.89998E-01   -0.10479E-01  6722   0.173E-01    0.953E-01
RMM:   5    -0.231171410109E+04   -0.39878E-02   -0.29903E-02  6072   0.787E-02    0.121E+00
RMM:   6    -0.231169893697E+04    0.15164E-01   -0.18527E-02  6095   0.663E-02    0.574E-01
RMM:   7    -0.231169747197E+04    0.14650E-02   -0.11965E-02  6025   0.583E-02    0.407E-01
RMM:   8    -0.231169525143E+04    0.22205E-02   -0.37874E-03  5952   0.348E-02    0.154E-01
RMM:   9    -0.231169496123E+04    0.29020E-03   -0.56957E-04  4575   0.137E-02    0.665E-02
RMM:  10    -0.231169493697E+04    0.24264E-04   -0.20978E-04  3371   0.107E-02    0.340E-02
RMM:  11    -0.231169499938E+04   -0.62416E-04   -0.11827E-04  3471   0.720E-03    0.224E-02
RMM:  12    -0.231169504681E+04   -0.47429E-04   -0.19349E-05  2947   0.503E-03    0.177E-02
RMM:  13    -0.231169511109E+04   -0.64284E-04   -0.21341E-05  2934   0.351E-03    0.104E-02
RMM:  14    -0.231169514913E+04   -0.38034E-04   -0.10640E-05  2906   0.325E-03    0.492E-03
RMM:  15    -0.231169516786E+04   -0.18733E-04   -0.55968E-06  2748   0.232E-03    0.315E-03
RMM:  16    -0.231169517592E+04   -0.80556E-05   -0.22399E-06  2526   0.198E-03
  11 F= -.23329077E+04 E0= -.23329077E+04  d E =-.121695E+00  mag=     1.0000
       N       E                     dE             d eps       ncg     rms          rms(c)
DAV:   1    -0.231165519904E+04    0.39969E-01   -0.48140E+00  4576   0.214E+00    0.612E-01
RMM:   2    -0.231173198561E+04   -0.76787E-01   -0.76125E-01  6579   0.477E-01    0.889E-01
RMM:   3    -0.231173522509E+04   -0.32395E-02   -0.77672E-02  6359   0.175E-01    0.697E-01
RMM:   4    -0.231172995385E+04    0.52712E-02   -0.75731E-03  5833   0.448E-02    0.235E-01
RMM:   5    -0.231172954270E+04    0.41115E-03   -0.21952E-03  5778   0.265E-02    0.211E-01
RMM:   6    -0.231172921086E+04    0.33184E-03   -0.12965E-03  5749   0.200E-02    0.158E-01
RMM:   7    -0.231172911056E+04    0.10030E-03   -0.52985E-04  4725   0.123E-02    0.121E-01
RMM:   8    -0.231172892675E+04    0.18381E-03   -0.14903E-04  3092   0.774E-03    0.263E-02
RMM:   9    -0.231172891488E+04    0.11869E-04   -0.35076E-05  2957   0.462E-03    0.173E-02
RMM:  10    -0.231172891479E+04    0.87894E-07   -0.25114E-05  2930   0.420E-03
  12 F= -.23329418E+04 E0= -.23329418E+04  d E =-.340975E-01  mag=     1.0000
       N       E                     dE             d eps       ncg     rms          rms(c)
DAV:   1    -0.231148816798E+04    0.24075E+00   -0.17120E+01  4488   0.407E+00    0.116E+00
RMM:   2    -0.231175636127E+04   -0.26819E+00   -0.27216E+00  6577   0.900E-01    0.149E+00
RMM:   3    -0.231178008485E+04   -0.23724E-01   -0.28896E-01  6389   0.336E-01    0.147E+00
RMM:   4    -0.231175729001E+04    0.22795E-01   -0.27561E-02  6147   0.870E-02    0.450E-01
RMM:   5    -0.231175743842E+04   -0.14841E-03   -0.73128E-03  6035   0.464E-02    0.564E-01
RMM:   6    -0.231175439436E+04    0.30441E-02   -0.46083E-03  6186   0.353E-02    0.258E-01
RMM:   7    -0.231175374944E+04    0.64491E-03   -0.18143E-03  5431   0.249E-02    0.109E-01
RMM:   8    -0.231175362444E+04    0.12501E-03   -0.33671E-04  3707   0.142E-02    0.649E-02
RMM:   9    -0.231175355601E+04    0.68426E-04   -0.10031E-04  3418   0.665E-03    0.339E-02
RMM:  10    -0.231175355227E+04    0.37436E-05   -0.89503E-05  3245   0.683E-03
  13 F= -.23329673E+04 E0= -.23329673E+04  d E =-.595453E-01  mag=     1.0000
       N       E                     dE             d eps       ncg     rms          rms(c)
DAV:   1    -0.231174584811E+04    0.77079E-02   -0.13008E+00  4752   0.108E+00    0.402E-01
RMM:   2    -0.231177879771E+04   -0.32950E-01   -0.29250E-01  6569   0.280E-01    0.822E-01
RMM:   3    -0.231177495691E+04    0.38408E-02   -0.27924E-02  6299   0.999E-02    0.328E-01
RMM:   4    -0.231177390543E+04    0.10515E-02   -0.30084E-03  5266   0.257E-02    0.155E-01
RMM:   5    -0.231177393985E+04   -0.34425E-04   -0.57342E-04  4173   0.144E-02    0.174E-01
RMM:   6    -0.231177364845E+04    0.29141E-03   -0.61853E-04  5263   0.145E-02    0.107E-01
RMM:   7    -0.231177354133E+04    0.10712E-03   -0.27765E-04  3422   0.116E-02    0.520E-02
RMM:   8    -0.231177351374E+04    0.27582E-04   -0.46904E-05  2997   0.565E-03    0.157E-02
RMM:   9    -0.231177351554E+04   -0.17973E-05   -0.11902E-05  2924   0.397E-03
  14 F= -.23329876E+04 E0= -.23329876E+04  d E =-.202988E-01  mag=     1.0000
       N       E                     dE             d eps       ncg     rms          rms(c)
DAV:   1    -0.231170809647E+04    0.65417E-01   -0.37808E+00  4496   0.184E+00    0.688E-01
RMM:   2    -0.231180384264E+04   -0.95746E-01   -0.84751E-01  6580   0.475E-01    0.141E+00
RMM:   3    -0.231179291161E+04    0.10931E-01   -0.86601E-02  6418   0.175E-01    0.565E-01
RMM:   4    -0.231178982026E+04    0.30914E-02   -0.88815E-03  5578   0.440E-02    0.275E-01
RMM:   5    -0.231178973386E+04    0.86400E-04   -0.15751E-03  5084   0.232E-02    0.278E-01
RMM:   6    -0.231178894769E+04    0.78617E-03   -0.17165E-03  5329   0.230E-02    0.182E-01
RMM:   7    -0.231178861525E+04    0.33244E-03   -0.83272E-04  4670   0.187E-02    0.890E-02
RMM:   8    -0.231178851280E+04    0.10245E-03   -0.15595E-04  4386   0.807E-03    0.248E-02
RMM:   9    -0.231178850006E+04    0.12745E-04   -0.25744E-05  2952   0.588E-03    0.153E-02
RMM:  10    -0.231178849851E+04    0.15465E-05   -0.28423E-05  2961   0.397E-03
  15 F= -.23330032E+04 E0= -.23330032E+04  d E =-.358937E-01  mag=     1.0000
       N       E                     dE             d eps       ncg     rms          rms(c)
DAV:   1    -0.231175881102E+04    0.29689E-01   -0.24274E+00  4512   0.146E+00    0.488E-01
RMM:   2    -0.231181608846E+04   -0.57277E-01   -0.55785E-01  6607   0.356E-01    0.843E-01
RMM:   3    -0.231181591252E+04    0.17594E-03   -0.56505E-02  6346   0.135E-01    0.534E-01
RMM:   4    -0.231181315034E+04    0.27622E-02   -0.57488E-03  5586   0.328E-02    0.192E-01
RMM:   5    -0.231181288611E+04    0.26422E-03   -0.87260E-04  4346   0.148E-02    0.160E-01
RMM:   6    -0.231181255852E+04    0.32760E-03   -0.84070E-04  5194   0.153E-02    0.127E-01
RMM:   7    -0.231181248347E+04    0.75044E-04   -0.38149E-04  3898   0.129E-02    0.969E-02
RMM:   8    -0.231181238059E+04    0.10288E-03   -0.12138E-04  3893   0.729E-03    0.174E-02
RMM:   9    -0.231181237289E+04    0.76958E-05   -0.14336E-05  2938   0.497E-03
  16 F= -.23330271E+04 E0= -.23330271E+04  d E =-.239348E-01  mag=     1.0000
       N       E                     dE             d eps       ncg     rms          rms(c)
DAV:   1    -0.231135621730E+04    0.45616E+00   -0.21814E+01  4488   0.438E+00    0.150E+00
RMM:   2    -0.231188889429E+04   -0.53268E+00   -0.51247E+00  6596   0.108E+00    0.272E+00
RMM:   3    -0.231187577949E+04    0.13115E-01   -0.56187E-01  6432   0.429E-01    0.156E+00
RMM:   4    -0.231185466720E+04    0.21112E-01   -0.56759E-02  6155   0.101E-01    0.762E-01
RMM:   5    -0.231184991438E+04    0.47528E-02   -0.80604E-03  5729   0.429E-02    0.497E-01
RMM:   6    -0.231184913330E+04    0.78108E-03   -0.69447E-03  5863   0.375E-02    0.542E-01
RMM:   7    -0.231184531597E+04    0.38173E-02   -0.52728E-03  6207   0.371E-02    0.188E-01
RMM:   8    -0.231184494007E+04    0.37589E-03   -0.19544E-03  5058   0.226E-02    0.549E-02
RMM:   9    -0.231184486636E+04    0.73713E-04   -0.13142E-04  3827   0.130E-02    0.339E-02
RMM:  10    -0.231184483073E+04    0.35634E-04   -0.12366E-04  3714   0.674E-03    0.130E-02
RMM:  11    -0.231184482519E+04    0.55351E-05   -0.23684E-05  2964   0.513E-03
  17 F= -.23330599E+04 E0= -.23330599E+04  d E =-.567455E-01  mag=     1.0000
       N       E                     dE             d eps       ncg     rms          rms(c)
DAV:   1    -0.231181557477E+04    0.29256E-01   -0.21604E+00  4592   0.135E+00    0.438E-01
RMM:   2    -0.231186220064E+04   -0.46626E-01   -0.48522E-01  6591   0.329E-01    0.510E-01
RMM:   3    -0.231186670341E+04   -0.45028E-02   -0.49359E-02  6357   0.127E-01    0.563E-01
RMM:   4    -0.231186335170E+04    0.33517E-02   -0.48970E-03  5727   0.311E-02    0.174E-01
RMM:   5    -0.231186333213E+04    0.19570E-04   -0.92206E-04  4737   0.145E-02    0.199E-01
RMM:   6    -0.231186290351E+04    0.42863E-03   -0.62301E-04  5023   0.131E-02    0.115E-01
RMM:   7    -0.231186281575E+04    0.87752E-04   -0.48077E-04  4439   0.117E-02    0.823E-02
RMM:   8    -0.231186273260E+04    0.83157E-04   -0.15687E-04  3654   0.802E-03    0.190E-02
RMM:   9    -0.231186272591E+04    0.66875E-05   -0.17666E-05  2932   0.543E-03
  18 F= -.23330777E+04 E0= -.23330777E+04  d E =-.178127E-01  mag=     1.0000
       N       E                     dE             d eps       ncg     rms          rms(c)
DAV:   1    -0.231145595657E+04    0.40678E+00   -0.19410E+01  4488   0.405E+00    0.134E+00
RMM:   2    -0.231188385863E+04   -0.42790E+00   -0.44412E+00  6593   0.100E+00    0.163E+00
RMM:   3    -0.231192370485E+04   -0.39846E-01   -0.48641E-01  6423   0.392E-01    0.173E+00
RMM:   4    -0.231189325665E+04    0.30448E-01   -0.46473E-02  6359   0.939E-02    0.532E-01
RMM:   5    -0.231189135365E+04    0.19030E-02   -0.81019E-03  5847   0.402E-02    0.463E-01
RMM:   6    -0.231188809616E+04    0.32575E-02   -0.57136E-03  5833   0.366E-02    0.252E-01
RMM:   7    -0.231188906082E+04   -0.96466E-03   -0.37147E-03  5876   0.319E-02    0.401E-01
RMM:   8    -0.231188727013E+04    0.17907E-02   -0.15307E-03  5859   0.203E-02    0.691E-02
RMM:   9    -0.231188720311E+04    0.67013E-04   -0.18314E-04  3828   0.860E-03    0.554E-02
RMM:  10    -0.231188714930E+04    0.53820E-04   -0.12439E-04  3199   0.794E-03    0.188E-02
RMM:  11    -0.231188714707E+04    0.22275E-05   -0.62715E-05  3289   0.584E-03
  19 F= -.23331021E+04 E0= -.23331021E+04  d E =-.421181E-01  mag=     1.0000
       N       E                     dE             d eps       ncg     rms          rms(c)
DAV:   1    -0.231182236972E+04    0.64780E-01   -0.36327E+00  4560   0.168E+00    0.576E-01
RMM:   2    -0.231190557229E+04   -0.83203E-01   -0.85980E-01  6613   0.436E-01    0.686E-01
RMM:   3    -0.231191273797E+04   -0.71657E-02   -0.93368E-02  6438   0.169E-01    0.654E-01
RMM:   4    -0.231190781808E+04    0.49199E-02   -0.88925E-03  6178   0.412E-02    0.207E-01
RMM:   5    -0.231190770838E+04    0.10970E-03   -0.16430E-03  5561   0.183E-02    0.258E-01
RMM:   6    -0.231190713422E+04    0.57416E-03   -0.11678E-03  4849   0.171E-02    0.169E-01
RMM:   7    -0.231190700129E+04    0.13293E-03   -0.69426E-04  4749   0.131E-02    0.112E-01
RMM:   8    -0.231190685491E+04    0.14637E-03   -0.21487E-04  3896   0.917E-03    0.313E-02
RMM:   9    -0.231190684515E+04    0.97571E-05   -0.29014E-05  2933   0.545E-03
  20 F= -.23331217E+04 E0= -.23331217E+04  d E =-.196084E-01  mag=     1.0000
       N       E                     dE             d eps       ncg     rms          rms(c)
DAV:   1    -0.231167502224E+04    0.23183E+00   -0.10315E+01  4480   0.283E+00    0.973E-01
RMM:   2    -0.231191001952E+04   -0.23500E+00   -0.24571E+00  6612   0.742E-01    0.106E+00
RMM:   3    -0.231193701180E+04   -0.26992E-01   -0.28787E-01  6469   0.297E-01    0.115E+00
RMM:   4    -0.231192153452E+04    0.15477E-01   -0.25990E-02  6464   0.704E-02    0.348E-01
RMM:   5    -0.231192031641E+04    0.12181E-02   -0.44881E-03  5906   0.305E-02    0.327E-01
RMM:   6    -0.231191961763E+04    0.69879E-03   -0.29916E-03  5558   0.264E-02    0.279E-01
RMM:   7    -0.231191948183E+04    0.13580E-03   -0.17368E-03  5585   0.196E-02    0.256E-01
RMM:   8    -0.231191876756E+04    0.71427E-03   -0.85562E-04  5142   0.155E-02    0.609E-02
RMM:   9    -0.231191873436E+04    0.33195E-04   -0.10616E-04  3249   0.665E-03    0.422E-02
RMM:  10    -0.231191871131E+04    0.23054E-04   -0.64368E-05  2986   0.621E-03    0.176E-02
RMM:  11    -0.231191871563E+04   -0.43192E-05   -0.38238E-05  3020   0.505E-03
  21 F= -.23331335E+04 E0= -.23331335E+04  d E =-.314204E-01  mag=     1.0000
       N       E                     dE             d eps       ncg     rms          rms(c)
DAV:   1    -0.231184484467E+04    0.73867E-01   -0.38243E+00  4496   0.178E+00    0.617E-01
RMM:   2    -0.231192979370E+04   -0.84949E-01   -0.88050E-01  6627   0.459E-01    0.656E-01
RMM:   3    -0.231193847280E+04   -0.86791E-02   -0.94583E-02  6421   0.174E-01    0.718E-01
RMM:   4    -0.231193301533E+04    0.54575E-02   -0.97593E-03  6236   0.435E-02    0.274E-01
RMM:   5    -0.231193251803E+04    0.49730E-03   -0.16883E-03  5311   0.186E-02    0.221E-01
RMM:   6    -0.231193231163E+04    0.20640E-03   -0.10926E-03  5514   0.163E-02    0.237E-01
RMM:   7    -0.231193180500E+04    0.50662E-03   -0.96125E-04  4892   0.161E-02    0.990E-02
RMM:   8    -0.231193170397E+04    0.10103E-03   -0.28698E-04  4663   0.965E-03    0.282E-02
RMM:   9    -0.231193169490E+04    0.90658E-05   -0.22531E-05  2912   0.621E-03
  22 F= -.23331467E+04 E0= -.23331467E+04  d E =-.132559E-01  mag=     1.0000
       N       E                     dE             d eps       ncg     rms          rms(c)
DAV:   1    -0.231185090793E+04    0.80796E-01   -0.37029E+00  4496   0.175E+00    0.610E-01
RMM:   2    -0.231193363658E+04   -0.82729E-01   -0.85474E-01  6633   0.452E-01    0.669E-01
RMM:   3    -0.231194173200E+04   -0.80954E-02   -0.91734E-02  6444   0.171E-01    0.709E-01
RMM:   4    -0.231193643007E+04    0.53019E-02   -0.95020E-03  6235   0.428E-02    0.273E-01
RMM:   5    -0.231193593175E+04    0.49833E-03   -0.16341E-03  5279   0.184E-02    0.217E-01
RMM:   6    -0.231193574663E+04    0.18512E-03   -0.10543E-03  5493   0.159E-02    0.236E-01
RMM:   7    -0.231193523450E+04    0.51213E-03   -0.94836E-04  4861   0.160E-02    0.965E-02
RMM:   8    -0.231193513660E+04    0.97900E-04   -0.29371E-04  4660   0.973E-03    0.282E-02
RMM:   9    -0.231193512598E+04    0.10618E-04   -0.23113E-05  2908   0.626E-03    0.224E-02
RMM:  10    -0.231193512071E+04    0.52713E-05   -0.29989E-05  2916   0.366E-03
  23 F= -.23331505E+04 E0= -.23331505E+04  d E =-.169869E-01  mag=     1.0000
       N       E                     dE             d eps       ncg     rms          rms(c)
DAV:   1    -0.231186949033E+04    0.65636E-01   -0.41419E+00  4488   0.195E+00    0.631E-01
RMM:   2    -0.231195971692E+04   -0.90227E-01   -0.82299E-01  6631   0.477E-01    0.120E+00
RMM:   3    -0.231195312976E+04    0.65872E-02   -0.88506E-02  6419   0.173E-01    0.577E-01
RMM:   4    -0.231195017059E+04    0.29592E-02   -0.97876E-03  6026   0.423E-02    0.274E-01
RMM:   5    -0.231194948020E+04    0.69039E-03   -0.15313E-03  5456   0.197E-02    0.200E-01
RMM:   6    -0.231194946151E+04    0.18693E-04   -0.14578E-03  5698   0.198E-02    0.248E-01
RMM:   7    -0.231194883301E+04    0.62850E-03   -0.95554E-04  5186   0.172E-02    0.871E-02
RMM:   8    -0.231194875289E+04    0.80111E-04   -0.14623E-04  3618   0.758E-03    0.240E-02
RMM:   9    -0.231194874032E+04    0.12578E-04   -0.21482E-05  2911   0.552E-03    0.143E-02
RMM:  10    -0.231194873582E+04    0.44981E-05   -0.23161E-05  2916   0.341E-03
  24 F= -.23331645E+04 E0= -.23331645E+04  d E =-.140348E-01  mag=     1.0000
       N       E                     dE             d eps       ncg     rms          rms(c)
DAV:   1    -0.231188778258E+04    0.60958E-01   -0.33951E+00  4492   0.177E+00    0.570E-01
RMM:   2    -0.231196150390E+04   -0.73721E-01   -0.67411E-01  6633   0.433E-01    0.108E+00
RMM:   3    -0.231195634140E+04    0.51625E-02   -0.72235E-02  6423   0.157E-01    0.527E-01
RMM:   4    -0.231195387752E+04    0.24639E-02   -0.80368E-03  5964   0.384E-02    0.249E-01
RMM:   5    -0.231195329503E+04    0.58248E-03   -0.12337E-03  5311   0.180E-02    0.180E-01
RMM:   6    -0.231195325056E+04    0.44469E-04   -0.12117E-03  5666   0.184E-02    0.219E-01
RMM:   7    -0.231195276950E+04    0.48107E-03   -0.75867E-04  4997   0.157E-02    0.818E-02
RMM:   8    -0.231195269636E+04    0.73137E-04   -0.11498E-04  3425   0.694E-03    0.217E-02
RMM:   9    -0.231195268490E+04    0.11458E-04   -0.18438E-05  2908   0.525E-03    0.129E-02
RMM:  10    -0.231195268057E+04    0.43345E-05   -0.20165E-05  2911   0.322E-03
  25 F= -.23331688E+04 E0= -.23331688E+04  d E =-.183843E-01  mag=     1.0000
       N       E                     dE             d eps       ncg     rms          rms(c)
DAV:   1    -0.231188057368E+04    0.72111E-01   -0.57467E+00  4488   0.244E+00    0.733E-01
RMM:   2    -0.231199211114E+04   -0.11154E+00   -0.91603E-01  6533   0.539E-01    0.170E+00
RMM:   3    -0.231197007535E+04    0.22036E-01   -0.10003E-01  6319   0.199E-01    0.498E-01
RMM:   4    -0.231196746953E+04    0.26058E-02   -0.10686E-02  5616   0.461E-02    0.260E-01
RMM:   5    -0.231196734005E+04    0.12949E-03   -0.17675E-03  5457   0.242E-02    0.277E-01
RMM:   6    -0.231196685967E+04    0.48038E-03   -0.18556E-03  5485   0.235E-02    0.248E-01
RMM:   7    -0.231196623714E+04    0.62253E-03   -0.12064E-03  5358   0.208E-02    0.109E-01
RMM:   8    -0.231196610091E+04    0.13623E-03   -0.17109E-04  3901   0.833E-03    0.262E-02
RMM:   9    -0.231196608678E+04    0.14134E-04   -0.29215E-05  2935   0.597E-03    0.148E-02
RMM:  10    -0.231196608389E+04    0.28911E-05   -0.22949E-05  2904   0.387E-03
  26 F= -.23331824E+04 E0= -.23331824E+04  d E =-.136050E-01  mag=     1.0000
       N       E                     dE             d eps       ncg     rms          rms(c)
DAV:   1    -0.231195502829E+04    0.11058E-01   -0.81610E-01  4656   0.919E-01    0.273E-01
RMM:   2    -0.231197045886E+04   -0.15431E-01   -0.12875E-01  6525   0.202E-01    0.618E-01
RMM:   3    -0.231196773537E+04    0.27235E-02   -0.13850E-02  5940   0.735E-02    0.194E-01
RMM:   4    -0.231196732367E+04    0.41171E-03   -0.14564E-03  4877   0.174E-02    0.908E-02
RMM:   5    -0.231196731290E+04    0.10773E-04   -0.27421E-04  3454   0.105E-02    0.101E-01
RMM:   6    -0.231196723368E+04    0.79221E-04   -0.29819E-04  4680   0.109E-02    0.881E-02
RMM:   7    -0.231196716646E+04    0.67221E-04   -0.13130E-04  3113   0.870E-03    0.446E-02
RMM:   8    -0.231196714489E+04    0.21564E-04   -0.24213E-05  2921   0.475E-03    0.992E-03
RMM:   9    -0.231196714344E+04    0.14550E-05   -0.67747E-06  2900   0.318E-03
  27 F= -.23331836E+04 E0= -.23331836E+04  d E =-.147486E-01  mag=     1.0000
       N       E                     dE             d eps       ncg     rms          rms(c)
DAV:   1    -0.231191400302E+04    0.53142E-01   -0.44793E+00  4488   0.222E+00    0.634E-01
RMM:   2    -0.231198508596E+04   -0.71083E-01   -0.64588E-01  6505   0.465E-01    0.113E+00
RMM:   3    -0.231198021337E+04    0.48726E-02   -0.68812E-02  6311   0.173E-01    0.591E-01
RMM:   4    -0.231197650264E+04    0.37107E-02   -0.74047E-03  5687   0.431E-02    0.234E-01
RMM:   5    -0.231197618947E+04    0.31317E-03   -0.16176E-03  5366   0.220E-02    0.210E-01
RMM:   6    -0.231197589993E+04    0.28954E-03   -0.14749E-03  5252   0.230E-02    0.208E-01
RMM:   7    -0.231197549454E+04    0.40539E-03   -0.56638E-04  4610   0.170E-02    0.758E-02
RMM:   8    -0.231197543253E+04    0.62006E-04   -0.10729E-04  3640   0.684E-03    0.222E-02
RMM:   9    -0.231197542158E+04    0.10954E-04   -0.19212E-05  2913   0.543E-03    0.125E-02
RMM:  10    -0.231197541871E+04    0.28660E-05   -0.18237E-05  2892   0.327E-03
  28 F= -.23331918E+04 E0= -.23331918E+04  d E =-.820605E-02  mag=     1.0000
       N       E                     dE             d eps       ncg     rms          rms(c)
DAV:   1    -0.231197415406E+04    0.12675E-02   -0.10193E-01  4896   0.335E-01    0.948E-02
RMM:   2    -0.231197575516E+04   -0.16011E-02   -0.14676E-02  6480   0.706E-02    0.165E-01
RMM:   3    -0.231197566164E+04    0.93521E-04   -0.15148E-03  3864   0.253E-02    0.902E-02
RMM:   4    -0.231197557599E+04    0.85653E-04   -0.16839E-04  2992   0.787E-03    0.373E-02
RMM:   5    -0.231197556846E+04    0.75273E-05   -0.38856E-05  2902   0.460E-03
  29 F= -.23331919E+04 E0= -.23331919E+04  d E =-.834746E-02  mag=     1.0000
       N       E                     dE             d eps       ncg     rms          rms(c)
DAV:   1    -0.231194712173E+04    0.28454E-01   -0.20530E+00  4508   0.150E+00    0.444E-01
RMM:   2    -0.231198210596E+04   -0.34984E-01   -0.33964E-01  6507   0.330E-01    0.587E-01
RMM:   3    -0.231198307256E+04   -0.96660E-03   -0.37112E-02  6347   0.126E-01    0.469E-01
RMM:   4    -0.231198074691E+04    0.23256E-02   -0.39080E-03  5924   0.325E-02    0.194E-01
RMM:   5    -0.231198051624E+04    0.23068E-03   -0.87104E-04  4203   0.153E-02    0.150E-01
RMM:   6    -0.231198058720E+04   -0.70965E-04   -0.62084E-04  5262   0.135E-02    0.204E-01
RMM:   7    -0.231198015567E+04    0.43153E-03   -0.55778E-04  4647   0.144E-02    0.302E-02
RMM:   8    -0.231198014650E+04    0.91667E-05   -0.78402E-05  3077   0.637E-03
  30 F= -.23331966E+04 E0= -.23331966E+04  d E =-.468117E-02  mag=     1.0000
       N       E                     dE             d eps       ncg     rms          rms(c)
DAV:   1    -0.231197748198E+04    0.26737E-02   -0.16945E-01  4656   0.430E-01    0.130E-01
RMM:   2    -0.231198040302E+04   -0.29210E-02   -0.28457E-02  6517   0.972E-02    0.173E-01
RMM:   3    -0.231198048794E+04   -0.84919E-04   -0.29862E-03  5041   0.348E-02    0.142E-01
RMM:   4    -0.231198028899E+04    0.19895E-03   -0.34573E-04  3213   0.102E-02    0.643E-02
RMM:   5    -0.231198025485E+04    0.34138E-04   -0.77334E-05  2922   0.618E-03    0.404E-02
RMM:   6    -0.231198026542E+04   -0.10568E-04   -0.56274E-05  2950   0.488E-03    0.596E-02
RMM:   7    -0.231198022831E+04    0.37114E-04   -0.48076E-05  2905   0.564E-03    0.956E-03
RMM:   8    -0.231198022771E+04    0.59989E-06   -0.10170E-05  2898   0.354E-03
  31 F= -.23331967E+04 E0= -.23331967E+04  d E =-.479543E-02  mag=     1.0000
       N       E                     dE             d eps       ncg     rms          rms(c)
DAV:   1    -0.231195068247E+04    0.29546E-01   -0.16676E+00  4492   0.134E+00    0.424E-01
RMM:   2    -0.231198465638E+04   -0.33974E-01   -0.32978E-01  6524   0.307E-01    0.609E-01
RMM:   3    -0.231198574506E+04   -0.10887E-02   -0.36184E-02  6288   0.119E-01    0.461E-01
RMM:   4    -0.231198351143E+04    0.22336E-02   -0.37455E-03  5741   0.301E-02    0.183E-01
RMM:   5    -0.231198327803E+04    0.23340E-03   -0.63988E-04  3875   0.134E-02    0.133E-01
RMM:   6    -0.231198324676E+04    0.31267E-04   -0.49591E-04  5045   0.127E-02    0.156E-01
RMM:   7    -0.231198299231E+04    0.25445E-03   -0.38174E-04  4398   0.122E-02    0.413E-02
RMM:   8    -0.231198297106E+04    0.21252E-04   -0.80573E-05  3295   0.670E-03    0.152E-02
RMM:   9    -0.231198296524E+04    0.58171E-05   -0.12398E-05  2885   0.528E-03
  32 F= -.23331998E+04 E0= -.23331998E+04  d E =-.309161E-02  mag=     1.0000
       N       E                     dE             d eps       ncg     rms          rms(c)
DAV:   1    -0.231198190335E+04    0.10677E-02   -0.52933E-02  4912   0.238E-01    0.756E-02
RMM:   2    -0.231198298527E+04   -0.10819E-02   -0.10527E-02  6491   0.557E-02    0.107E-01
RMM:   3    -0.231198302439E+04   -0.39114E-04   -0.11313E-03  3371   0.210E-02    0.815E-02
RMM:   4    -0.231198295214E+04    0.72250E-04   -0.12002E-04  2956   0.702E-03    0.330E-02
RMM:   5    -0.231198294518E+04    0.69570E-05   -0.21661E-05  2910   0.337E-03
  33 F= -.23331999E+04 E0= -.23331999E+04  d E =-.313620E-02  mag=     1.0000
       N       E                     dE             d eps       ncg     rms          rms(c)
DAV:   1    -0.231194986939E+04    0.33083E-01   -0.16094E+00  4492   0.127E+00    0.436E-01
RMM:   2    -0.231199476107E+04   -0.44892E-01   -0.37500E-01  6586   0.317E-01    0.103E+00
RMM:   3    -0.231198716267E+04    0.75984E-02   -0.40291E-02  6114   0.118E-01    0.270E-01
RMM:   4    -0.231198638328E+04    0.77939E-03   -0.42221E-03  5157   0.269E-02    0.140E-01
RMM:   5    -0.231198630485E+04    0.78429E-04   -0.51277E-04  4216   0.138E-02    0.137E-01
RMM:   6    -0.231198609165E+04    0.21320E-03   -0.64756E-04  5031   0.152E-02    0.896E-02
RMM:   7    -0.231198610247E+04   -0.10813E-04   -0.21934E-04  3369   0.111E-02    0.840E-02
RMM:   8    -0.231198601869E+04    0.83780E-04   -0.65213E-05  2926   0.556E-03    0.183E-02
RMM:   9    -0.231198601156E+04    0.71295E-05   -0.14479E-05  2916   0.367E-03
  34 F= -.23332029E+04 E0= -.23332029E+04  d E =-.307418E-02  mag=     1.0000
       N       E                     dE             d eps       ncg     rms          rms(c)
DAV:   1    -0.231198413950E+04    0.18792E-02   -0.86123E-02  4688   0.294E-01    0.101E-01
RMM:   2    -0.231198651464E+04   -0.23751E-02   -0.20052E-02  6544   0.735E-02    0.235E-01
RMM:   3    -0.231198614497E+04    0.36967E-03   -0.21180E-03  3809   0.274E-02    0.644E-02
RMM:   4    -0.231198609877E+04    0.46197E-04   -0.22064E-04  2977   0.750E-03    0.309E-02
RMM:   5    -0.231198609095E+04    0.78264E-05   -0.34542E-05  2919   0.468E-03
  35 F= -.23332030E+04 E0= -.23332030E+04  d E =-.315744E-02  mag=     1.0000
       N       E                     dE             d eps       ncg     rms          rms(c)
DAV:   1    -0.231194850440E+04    0.37594E-01   -0.17466E+00  4492   0.129E+00    0.470E-01
RMM:   2    -0.231200497883E+04   -0.56474E-01   -0.43792E-01  6607   0.337E-01    0.128E+00
RMM:   3    -0.231199074631E+04    0.14233E-01   -0.45984E-02  6090   0.122E-01    0.244E-01
RMM:   4    -0.231199029568E+04    0.45063E-03   -0.55237E-03  5463   0.284E-02    0.171E-01
RMM:   5    -0.231199002974E+04    0.26595E-03   -0.54587E-04  3786   0.123E-02    0.123E-01
RMM:   6    -0.231198980346E+04    0.22628E-03   -0.63791E-04  4947   0.149E-02    0.717E-02
RMM:   7    -0.231198976716E+04    0.36302E-04   -0.14263E-04  3315   0.106E-02    0.172E-02
RMM:   8    -0.231198976334E+04    0.38172E-05   -0.19187E-05  2942   0.393E-03
  36 F= -.23332062E+04 E0= -.23332062E+04  d E =-.316464E-02  mag=     1.0000
       N       E                     dE             d eps       ncg     rms          rms(c)
DAV:   1    -0.231197347722E+04    0.16290E-01   -0.71662E-01  4492   0.825E-01    0.301E-01
RMM:   2    -0.231199653576E+04   -0.23059E-01   -0.17901E-01  6597   0.214E-01    0.823E-01
RMM:   3    -0.231199081304E+04    0.57227E-02   -0.18795E-02  5834   0.763E-02    0.154E-01
RMM:   4    -0.231199061636E+04    0.19668E-03   -0.21785E-03  4456   0.178E-02    0.102E-01
RMM:   5    -0.231199053341E+04    0.82944E-04   -0.20447E-04  3058   0.838E-03    0.795E-02
RMM:   6    -0.231199046972E+04    0.63694E-04   -0.25493E-04  4371   0.965E-03    0.690E-02
RMM:   7    -0.231199045384E+04    0.15880E-04   -0.96171E-05  2961   0.791E-03    0.557E-02
RMM:   8    -0.231199042378E+04    0.30063E-04   -0.26344E-05  2897   0.408E-03    0.106E-02
RMM:   9    -0.231199042228E+04    0.14919E-05   -0.65207E-06  2890   0.268E-03
  37 F= -.23332065E+04 E0= -.23332065E+04  d E =-.350659E-02  mag=     1.0000
       N       E                     dE             d eps       ncg     rms          rms(c)
DAV:   1    -0.231196146386E+04    0.28960E-01   -0.12846E+00  4488   0.109E+00    0.393E-01
RMM:   2    -0.231200013171E+04   -0.38668E-01   -0.32827E-01  6634   0.284E-01    0.917E-01
RMM:   3    -0.231199425492E+04    0.58768E-02   -0.35272E-02  6067   0.104E-01    0.253E-01
RMM:   4    -0.231199359074E+04    0.66418E-03   -0.37190E-03  5246   0.234E-02    0.133E-01
RMM:   5    -0.231199347754E+04    0.11320E-03   -0.34092E-04  3205   0.102E-02    0.116E-01
RMM:   6    -0.231199340938E+04    0.68158E-04   -0.40565E-04  4531   0.115E-02    0.118E-01
RMM:   7    -0.231199329070E+04    0.11868E-03   -0.24838E-04  3686   0.972E-03    0.525E-02
RMM:   8    -0.231199326259E+04    0.28114E-04   -0.54933E-05  2946   0.565E-03    0.149E-02
RMM:   9    -0.231199325907E+04    0.35134E-05   -0.93571E-06  2891   0.392E-03
  38 F= -.23332089E+04 E0= -.23332089E+04  d E =-.240970E-02  mag=     1.0000
       N       E                     dE             d eps       ncg     rms          rms(c)
DAV:   1    -0.231194363811E+04    0.49624E-01   -0.20387E+00  4488   0.137E+00    0.497E-01
RMM:   2    -0.231200534965E+04   -0.61712E-01   -0.52309E-01  6643   0.359E-01    0.116E+00
RMM:   3    -0.231199575583E+04    0.95938E-02   -0.56492E-02  6156   0.132E-01    0.316E-01
RMM:   4    -0.231199471258E+04    0.10432E-02   -0.59435E-03  5500   0.295E-02    0.167E-01
RMM:   5    -0.231199453334E+04    0.17925E-03   -0.54532E-04  3664   0.125E-02    0.146E-01
RMM:   6    -0.231199441634E+04    0.11699E-03   -0.64070E-04  5034   0.141E-02    0.146E-01
RMM:   7    -0.231199423872E+04    0.17763E-03   -0.38081E-04  4194   0.115E-02    0.671E-02
RMM:   8    -0.231199419105E+04    0.47669E-04   -0.86366E-05  2966   0.625E-03    0.189E-02
RMM:   9    -0.231199418511E+04    0.59390E-05   -0.13655E-05  2911   0.450E-03
  39 F= -.23332093E+04 E0= -.23332093E+04  d E =-.281520E-02  mag=     1.0000
       N       E                     dE             d eps       ncg     rms          rms(c)
DAV:   1    -0.231198829563E+04    0.58954E-02   -0.24052E-01  4528   0.471E-01    0.167E-01
RMM:   2    -0.231199527027E+04   -0.69746E-02   -0.60387E-02  6613   0.121E-01    0.380E-01
RMM:   3    -0.231199442144E+04    0.84883E-03   -0.65337E-03  4983   0.446E-02    0.120E-01
RMM:   4    -0.231199427114E+04    0.15030E-03   -0.66228E-04  3101   0.106E-02    0.575E-02
RMM:   5    -0.231199425187E+04    0.19268E-04   -0.63034E-05  2922   0.558E-03    0.514E-02
RMM:   6    -0.231199423627E+04    0.15606E-04   -0.73941E-05  2950   0.541E-03    0.481E-02
RMM:   7    -0.231199421222E+04    0.24041E-04   -0.52683E-05  2920   0.549E-03    0.195E-02
RMM:   8    -0.231199420852E+04    0.37019E-05   -0.11039E-05  2898   0.345E-03
  40 F= -.23332095E+04 E0= -.23332095E+04  d E =-.301532E-02  mag=     1.0000
       N       E                     dE             d eps       ncg     rms          rms(c)
DAV:   1    -0.231196721590E+04    0.26996E-01   -0.11667E+00  4488   0.103E+00    0.364E-01
RMM:   2    -0.231199878030E+04   -0.31564E-01   -0.29979E-01  6645   0.265E-01    0.611E-01
RMM:   3    -0.231199856513E+04    0.21517E-03   -0.32416E-02  6281   0.101E-01    0.339E-01
RMM:   4    -0.231199724497E+04    0.13202E-02   -0.31346E-03  5433   0.232E-02    0.139E-01
RMM:   5    -0.231199717712E+04    0.67848E-04   -0.31414E-04  3147   0.955E-03    0.126E-01
RMM:   6    -0.231199695747E+04    0.21965E-03   -0.30631E-04  4236   0.103E-02    0.595E-02
RMM:   7    -0.231199693243E+04    0.25034E-04   -0.20824E-04  3623   0.938E-03    0.291E-02
RMM:   8    -0.231199692295E+04    0.94844E-05   -0.29939E-05  2911   0.542E-03
  41 F= -.23332121E+04 E0= -.23332121E+04  d E =-.253772E-02  mag=     1.0000
       N       E                     dE             d eps       ncg     rms          rms(c)
DAV:   1    -0.231197049801E+04    0.26434E-01   -0.10659E+00  4488   0.980E-01    0.353E-01
RMM:   2    -0.231199969704E+04   -0.29199E-01   -0.27544E-01  6624   0.253E-01    0.607E-01
RMM:   3    -0.231199914595E+04    0.55109E-03   -0.29752E-02  6253   0.960E-02    0.322E-01
RMM:   4    -0.231199797089E+04    0.11751E-02   -0.29039E-03  5361   0.222E-02    0.134E-01
RMM:   5    -0.231199790816E+04    0.62729E-04   -0.29545E-04  3117   0.918E-03    0.121E-01
RMM:   6    -0.231199771074E+04    0.19743E-03   -0.27863E-04  4116   0.989E-03    0.572E-02
RMM:   7    -0.231199769639E+04    0.14342E-04   -0.19506E-04  3535   0.905E-03    0.356E-02
RMM:   8    -0.231199767992E+04    0.16471E-04   -0.33729E-05  2908   0.547E-03    0.145E-02
RMM:   9    -0.231199767615E+04    0.37705E-05   -0.73976E-06  2857   0.306E-03
  42 F= -.23332127E+04 E0= -.23332127E+04  d E =-.313374E-02  mag=     1.0000
       N       E                     dE             d eps       ncg     rms          rms(c)
DAV:   1    -0.231196836450E+04    0.29315E-01   -0.11946E+00  4488   0.101E+00    0.366E-01
RMM:   2    -0.231200237978E+04   -0.34015E-01   -0.31746E-01  6625   0.268E-01    0.669E-01
RMM:   3    -0.231200132251E+04    0.10573E-02   -0.34204E-02  6274   0.103E-01    0.321E-01
RMM:   4    -0.231200018462E+04    0.11379E-02   -0.33738E-03  5387   0.230E-02    0.141E-01
RMM:   5    -0.231200010085E+04    0.83770E-04   -0.30025E-04  3171   0.944E-03    0.127E-01
RMM:   6    -0.231199988358E+04    0.21727E-03   -0.32945E-04  4252   0.106E-02    0.680E-02
RMM:   7    -0.231199987975E+04    0.38295E-05   -0.22383E-04  3263   0.934E-03    0.562E-02
RMM:   8    -0.231199983568E+04    0.44069E-04   -0.72627E-05  2927   0.642E-03    0.148E-02
RMM:   9    -0.231199983144E+04    0.42433E-05   -0.11315E-05  2901   0.404E-03
  43 F= -.23332146E+04 E0= -.23332146E+04  d E =-.192518E-02  mag=     1.0000
       N       E                     dE             d eps       ncg     rms          rms(c)
DAV:   1    -0.231198288982E+04    0.16946E-01   -0.65409E-01  4492   0.748E-01    0.271E-01
RMM:   2    -0.231200149222E+04   -0.18602E-01   -0.17397E-01  6615   0.198E-01    0.492E-01
RMM:   3    -0.231200095953E+04    0.53269E-03   -0.18638E-02  6103   0.765E-02    0.239E-01
RMM:   4    -0.231200032588E+04    0.63365E-03   -0.18499E-03  4616   0.172E-02    0.105E-01
RMM:   5    -0.231200027734E+04    0.48538E-04   -0.16549E-04  2983   0.742E-03    0.940E-02
RMM:   6    -0.231200015859E+04    0.11875E-03   -0.18154E-04  3457   0.817E-03    0.510E-02
RMM:   7    -0.231200015577E+04    0.28244E-05   -0.12649E-04  2970   0.757E-03    0.419E-02
RMM:   8    -0.231200013118E+04    0.24594E-04   -0.42147E-05  2919   0.551E-03    0.110E-02
RMM:   9    -0.231200012881E+04    0.23692E-05   -0.72139E-06  2877   0.338E-03
  44 F= -.23332147E+04 E0= -.23332147E+04  d E =-.206193E-02  mag=     1.0000
       N       E                     dE             d eps       ncg     rms          rms(c)
DAV:   1    -0.231196016186E+04    0.39969E-01   -0.15624E+00  4488   0.112E+00    0.429E-01
RMM:   2    -0.231201058229E+04   -0.50420E-01   -0.43432E-01  6660   0.306E-01    0.100E+00
RMM:   3    -0.231200404903E+04    0.65333E-02   -0.46658E-02  6204   0.116E-01    0.293E-01
RMM:   4    -0.231200318325E+04    0.86579E-03   -0.47757E-03  5221   0.245E-02    0.142E-01
RMM:   5    -0.231200312627E+04    0.56980E-04   -0.36253E-04  3379   0.100E-02    0.152E-01
RMM:   6    -0.231200281713E+04    0.30914E-03   -0.42765E-04  4431   0.116E-02    0.735E-02
RMM:   7    -0.231200277170E+04    0.45425E-04   -0.20820E-04  3465   0.962E-03    0.193E-02
RMM:   8    -0.231200276796E+04    0.37447E-05   -0.20610E-05  2949   0.479E-03
  45 F= -.23332168E+04 E0= -.23332168E+04  d E =-.201752E-02  mag=     1.0000
       N       E                     dE             d eps       ncg     rms          rms(c)
DAV:   1    -0.231196770951E+04    0.35062E-01   -0.13237E+00  4492   0.103E+00    0.395E-01
RMM:   2    -0.231201029960E+04   -0.42590E-01   -0.36779E-01  6643   0.282E-01    0.916E-01
RMM:   3    -0.231200491193E+04    0.53877E-02   -0.39760E-02  6166   0.106E-01    0.272E-01
RMM:   4    -0.231200417464E+04    0.73729E-03   -0.40894E-03  5054   0.226E-02    0.133E-01
RMM:   5    -0.231200410622E+04    0.68420E-04   -0.31713E-04  3295   0.925E-03    0.136E-01
RMM:   6    -0.231200387565E+04    0.23057E-03   -0.37363E-04  4252   0.108E-02    0.787E-02
RMM:   7    -0.231200385527E+04    0.20374E-04   -0.20460E-04  3074   0.880E-03    0.581E-02
RMM:   8    -0.231200381324E+04    0.42032E-04   -0.77507E-05  2936   0.631E-03    0.159E-02
RMM:   9    -0.231200380918E+04    0.40616E-05   -0.11562E-05  2905   0.389E-03
  46 F= -.23332173E+04 E0= -.23332173E+04  d E =-.250525E-02  mag=     1.0000
       N       E                     dE             d eps       ncg     rms          rms(c)
DAV:   1    -0.231197364399E+04    0.30169E-01   -0.12599E+00  4488   0.103E+00    0.413E-01
RMM:   2    -0.231201613377E+04   -0.42490E-01   -0.34311E-01  6565   0.281E-01    0.104E+00
RMM:   3    -0.231200744146E+04    0.86923E-02   -0.36344E-02  6055   0.106E-01    0.250E-01
RMM:   4    -0.231200683478E+04    0.60668E-03   -0.40233E-03  5154   0.236E-02    0.132E-01
RMM:   5    -0.231200676626E+04    0.68525E-04   -0.38977E-04  3538   0.110E-02    0.139E-01
RMM:   6    -0.231200662700E+04    0.13925E-03   -0.43065E-04  4566   0.117E-02    0.113E-01
RMM:   7    -0.231200649972E+04    0.12728E-03   -0.29926E-04  4039   0.104E-02    0.577E-02
RMM:   8    -0.231200646339E+04    0.36334E-04   -0.65928E-05  2932   0.602E-03    0.154E-02
RMM:   9    -0.231200645921E+04    0.41792E-05   -0.11085E-05  2909   0.410E-03
  47 F= -.23332192E+04 E0= -.23332192E+04  d E =-.190765E-02  mag=     1.0000
       N       E                     dE             d eps       ncg     rms          rms(c)
DAV:   1    -0.231200610977E+04    0.35361E-03   -0.16507E-02  5024   0.118E-01    0.472E-02
RMM:   2    -0.231200665706E+04   -0.54729E-03   -0.45311E-03  6269   0.327E-02    0.114E-01
RMM:   3    -0.231200655869E+04    0.98375E-04   -0.47776E-04  2939   0.130E-02    0.298E-02
RMM:   4    -0.231200654992E+04    0.87625E-05   -0.51800E-05  2969   0.386E-03
  48 F= -.23332192E+04 E0= -.23332192E+04  d E =-.191451E-02  mag=     1.0000
       N       E                     dE             d eps       ncg     rms          rms(c)
DAV:   1    -0.231199029000E+04    0.16269E-01   -0.79816E-01  4492   0.874E-01    0.315E-01
RMM:   2    -0.231201292758E+04   -0.22638E-01   -0.18940E-01  6492   0.220E-01    0.706E-01
RMM:   3    -0.231200929215E+04    0.36354E-02   -0.19782E-02  5961   0.820E-02    0.224E-01
RMM:   4    -0.231200882229E+04    0.46986E-03   -0.22693E-03  5104   0.195E-02    0.121E-01
RMM:   5    -0.231200871554E+04    0.10675E-03   -0.29054E-04  3269   0.954E-03    0.102E-01
RMM:   6    -0.231200870271E+04    0.12840E-04   -0.29261E-04  4124   0.989E-03    0.108E-01
RMM:   7    -0.231200856129E+04    0.14142E-03   -0.23648E-04  4013   0.945E-03    0.344E-02
RMM:   8    -0.231200854863E+04    0.12654E-04   -0.37001E-05  2945   0.543E-03    0.114E-02
RMM:   9    -0.231200854660E+04    0.20346E-05   -0.61247E-06  2872   0.328E-03
  49 F= -.23332205E+04 E0= -.23332205E+04  d E =-.137460E-02  mag=     1.0000
       N       E                     dE             d eps       ncg     rms          rms(c)
DAV:   1    -0.231200764356E+04    0.90507E-03   -0.47908E-02  4656   0.214E-01    0.787E-02
RMM:   2    -0.231200901574E+04   -0.13722E-02   -0.11453E-02  6458   0.544E-02    0.176E-01
RMM:   3    -0.231200879004E+04    0.22569E-03   -0.11856E-03  3291   0.206E-02    0.555E-02
RMM:   4    -0.231200876083E+04    0.29219E-04   -0.13604E-04  2973   0.624E-03    0.299E-02
RMM:   5    -0.231200875450E+04    0.63226E-05   -0.18067E-05  2893   0.307E-03
  50 F= -.23332206E+04 E0= -.23332206E+04  d E =-.143149E-02  mag=     1.0000
       N       E                     dE             d eps       ncg     rms          rms(c)
DAV:   1    -0.231199956715E+04    0.91937E-02   -0.54159E-01  4492   0.754E-01    0.235E-01
RMM:   2    -0.231201115155E+04   -0.11584E-01   -0.10864E-01  6466   0.176E-01    0.375E-01
RMM:   3    -0.231201085015E+04    0.30140E-03   -0.11022E-02  6053   0.656E-02    0.209E-01
RMM:   4    -0.231201034883E+04    0.50131E-03   -0.11722E-03  4918   0.161E-02    0.101E-01
RMM:   5    -0.231201029967E+04    0.49168E-04   -0.17842E-04  3005   0.798E-03    0.853E-02
RMM:   6    -0.231201026767E+04    0.32001E-04   -0.17049E-04  3714   0.805E-03    0.805E-02
RMM:   7    -0.231201018970E+04    0.77961E-04   -0.15008E-04  3179   0.831E-03    0.218E-02
RMM:   8    -0.231201018385E+04    0.58526E-05   -0.25797E-05  2946   0.508E-03
  51 F= -.23332217E+04 E0= -.23332217E+04  d E =-.107840E-02  mag=     1.0000
       N       E                     dE             d eps       ncg     rms          rms(c)
DAV:   1    -0.231200722756E+04    0.29621E-02   -0.15790E-01  4544   0.407E-01    0.132E-01
RMM:   2    -0.231201066128E+04   -0.34337E-02   -0.32139E-02  6456   0.959E-02    0.210E-01
RMM:   3    -0.231201055760E+04    0.10368E-03   -0.32179E-03  4637   0.338E-02    0.123E-01
RMM:   4    -0.231201040262E+04    0.15497E-03   -0.37102E-04  3190   0.970E-03    0.632E-02
RMM:   5    -0.231201037176E+04    0.30858E-04   -0.62178E-05  2914   0.559E-03    0.422E-02
RMM:   6    -0.231201036976E+04    0.20065E-05   -0.46839E-05  2918   0.443E-03
  52 F= -.23332217E+04 E0= -.23332217E+04  d E =-.107683E-02  mag=     1.0000
       N       E                     dE             d eps       ncg     rms          rms(c)
DAV:   1    -0.231200972911E+04    0.64265E-03   -0.30350E-02  4624   0.178E-01    0.599E-02
RMM:   2    -0.231201044718E+04   -0.71807E-03   -0.61369E-03  6414   0.439E-02    0.117E-01
RMM:   3    -0.231201035668E+04    0.90499E-04   -0.63954E-04  3147   0.162E-02    0.442E-02
RMM:   4    -0.231201033497E+04    0.21711E-04   -0.69444E-05  2963   0.547E-03    0.265E-02
RMM:   5    -0.231201032950E+04    0.54734E-05   -0.10119E-05  2774   0.241E-03
  53 F= -.23332217E+04 E0= -.23332217E+04  d E =-.111729E-02  mag=     1.0000
       N       E                     dE             d eps       ncg     rms          rms(c)
DAV:   1    -0.231200152666E+04    0.88083E-02   -0.46817E-01  4488   0.694E-01    0.221E-01
RMM:   2    -0.231201209098E+04   -0.10564E-01   -0.10023E-01  6549   0.164E-01    0.347E-01
RMM:   3    -0.231201187683E+04    0.21414E-03   -0.10110E-02  5993   0.609E-02    0.196E-01
RMM:   4    -0.231201146925E+04    0.40758E-03   -0.11349E-03  4421   0.153E-02    0.109E-01
RMM:   5    -0.231201137252E+04    0.96731E-04   -0.16221E-04  2987   0.753E-03    0.680E-02
RMM:   6    -0.231201136722E+04    0.53052E-05   -0.10896E-04  2964   0.619E-03    0.765E-02
RMM:   7    -0.231201129315E+04    0.74068E-04   -0.13025E-04  3150   0.772E-03    0.216E-02
RMM:   8    -0.231201128815E+04    0.49936E-05   -0.33185E-05  2948   0.543E-03
  54 F= -.23332224E+04 E0= -.23332224E+04  d E =-.718011E-03  mag=     1.0000
       N       E                     dE             d eps       ncg     rms          rms(c)
DAV:   1    -0.231200802795E+04    0.32652E-02   -0.15635E-01  4512   0.401E-01    0.127E-01
RMM:   2    -0.231201156575E+04   -0.35378E-02   -0.33677E-02  6520   0.956E-02    0.200E-01
RMM:   3    -0.231201149731E+04    0.68447E-04   -0.33855E-03  4729   0.340E-02    0.111E-01
RMM:   4    -0.231201135767E+04    0.13963E-03   -0.36497E-04  3146   0.935E-03    0.568E-02
RMM:   5    -0.231201133709E+04    0.20579E-04   -0.51946E-05  2916   0.507E-03    0.419E-02
RMM:   6    -0.231201133334E+04    0.37559E-05   -0.41184E-05  2922   0.399E-03
  55 F= -.23332223E+04 E0= -.23332223E+04  d E =-.625658E-03  mag=     1.0000
       N       E                     dE             d eps       ncg     rms          rms(c)
DAV:   1    -0.231200992947E+04    0.14076E-02   -0.67489E-02  4528   0.263E-01    0.856E-02
RMM:   2    -0.231201154860E+04   -0.16191E-02   -0.14473E-02  6547   0.645E-02    0.159E-01
RMM:   3    -0.231201140569E+04    0.14291E-03   -0.14863E-03  3714   0.237E-02    0.624E-02
RMM:   4    -0.231201135751E+04    0.48180E-04   -0.15526E-04  2980   0.710E-03    0.327E-02
RMM:   5    -0.231201135089E+04    0.66195E-05   -0.17308E-05  2878   0.323E-03
  56 F= -.23332224E+04 E0= -.23332224E+04  d E =-.732564E-03  mag=     1.0000
       N       E                     dE             d eps       ncg     rms          rms(c)
DAV:   1    -0.231200643366E+04    0.49238E-02   -0.27862E-01  4492   0.545E-01    0.184E-01
RMM:   2    -0.231201315738E+04   -0.67237E-02   -0.59561E-02  6479   0.130E-01    0.346E-01
RMM:   3    -0.231201247067E+04    0.68671E-03   -0.59539E-03  5700   0.479E-02    0.152E-01
RMM:   4    -0.231201224942E+04    0.22125E-03   -0.71725E-04  3782   0.125E-02    0.907E-02
RMM:   5    -0.231201217706E+04    0.72356E-04   -0.10691E-04  2964   0.693E-03    0.537E-02
RMM:   6    -0.231201216877E+04    0.82922E-05   -0.80164E-05  2927   0.587E-03
  57 F= -.23332230E+04 E0= -.23332230E+04  d E =-.572423E-03  mag=     1.0000
       N       E                     dE             d eps       ncg     rms          rms(c)
DAV:   1    -0.231201180177E+04    0.37529E-03   -0.18581E-02  4864   0.142E-01    0.431E-02
RMM:   2    -0.231201217203E+04   -0.37026E-03   -0.39890E-03  6353   0.343E-02    0.300E-02
RMM:   3    -0.231201220702E+04   -0.34997E-04   -0.40419E-04  2915   0.127E-02    0.338E-02
RMM:   4    -0.231201219625E+04    0.10768E-04   -0.40109E-05  2939   0.437E-03    0.196E-02
RMM:   5    -0.231201219647E+04   -0.21950E-06   -0.10603E-05  2816   0.223E-03
  58 F= -.23332230E+04 E0= -.23332230E+04  d E =-.535368E-03  mag=     1.0000
       N       E                     dE             d eps       ncg     rms          rms(c)
DAV:   1    -0.231200661566E+04    0.55806E-02   -0.30504E-01  4492   0.561E-01    0.179E-01
RMM:   2    -0.231201418742E+04   -0.75718E-02   -0.67321E-02  6571   0.135E-01    0.359E-01
RMM:   3    -0.231201343578E+04    0.75164E-03   -0.66998E-03  5609   0.489E-02    0.136E-01
RMM:   4    -0.231201324619E+04    0.18959E-03   -0.74208E-04  3236   0.119E-02    0.729E-02
RMM:   5    -0.231201321451E+04    0.31684E-04   -0.78369E-05  2945   0.641E-03    0.609E-02
RMM:   6    -0.231201316219E+04    0.52312E-04   -0.10426E-04  3490   0.697E-03    0.265E-02
RMM:   7    -0.231201316120E+04    0.99745E-06   -0.39428E-05  2910   0.591E-03
  59 F= -.23332236E+04 E0= -.23332236E+04  d E =-.617023E-03  mag=     1.0000
       N       E                     dE             d eps       ncg     rms          rms(c)
DAV:   1    -0.231200928307E+04    0.38791E-02   -0.19605E-01  4488   0.450E-01    0.148E-01
RMM:   2    -0.231201429426E+04   -0.50112E-02   -0.43591E-02  6591   0.109E-01    0.310E-01
RMM:   3    -0.231201366011E+04    0.63415E-03   -0.43280E-03  5140   0.398E-02    0.109E-01
RMM:   4    -0.231201354379E+04    0.11632E-03   -0.49140E-04  3048   0.100E-02    0.592E-02
RMM:   5    -0.231201352076E+04    0.23028E-04   -0.53346E-05  2927   0.552E-03    0.477E-02
RMM:   6    -0.231201348878E+04    0.31983E-04   -0.61330E-05  3010   0.562E-03    0.210E-02
RMM:   7    -0.231201348645E+04    0.23311E-05   -0.22502E-05  2915   0.481E-03
  60 F= -.23332236E+04 E0= -.23332236E+04  d E =-.665064E-03  mag=     1.0000
       N       E                     dE             d eps       ncg     rms          rms(c)
DAV:   1    -0.231201069832E+04    0.27905E-02   -0.15908E-01  4496   0.401E-01    0.127E-01
RMM:   2    -0.231201460566E+04   -0.39073E-02   -0.35780E-02  6594   0.972E-02    0.242E-01
RMM:   3    -0.231201434277E+04    0.26289E-03   -0.35434E-03  4805   0.354E-02    0.106E-01
RMM:   4    -0.231201423248E+04    0.11029E-03   -0.39576E-04  3019   0.925E-03    0.528E-02
RMM:   5    -0.231201421334E+04    0.19148E-04   -0.41749E-05  2919   0.473E-03    0.419E-02
RMM:   6    -0.231201419691E+04    0.16429E-04   -0.43301E-05  2910   0.437E-03    0.290E-02
RMM:   7    -0.231201418967E+04    0.72350E-05   -0.28027E-05  2878   0.419E-03
  61 F= -.23332241E+04 E0= -.23332241E+04  d E =-.450252E-03  mag=     1.0000
       N       E                     dE             d eps       ncg     rms          rms(c)
DAV:   1    -0.231200311261E+04    0.11084E-01   -0.53757E-01  4488   0.737E-01    0.232E-01
RMM:   2    -0.231201626848E+04   -0.13156E-01   -0.12072E-01  6609   0.177E-01    0.439E-01
RMM:   3    -0.231201543435E+04    0.83413E-03   -0.11916E-02  6062   0.644E-02    0.193E-01
RMM:   4    -0.231201505841E+04    0.37594E-03   -0.13171E-03  3789   0.155E-02    0.952E-02
RMM:   5    -0.231201500102E+04    0.57388E-04   -0.13305E-04  2994   0.736E-03    0.786E-02
RMM:   6    -0.231201492301E+04    0.78008E-04   -0.14756E-04  3597   0.803E-03    0.401E-02
RMM:   7    -0.231201492158E+04    0.14284E-05   -0.81658E-05  2928   0.693E-03
  62 F= -.23332244E+04 E0= -.23332244E+04  d E =-.720214E-03  mag=     1.0000
       N       E                     dE             d eps       ncg     rms          rms(c)
DAV:   1    -0.231201274042E+04    0.21826E-02   -0.14401E-01  4512   0.397E-01    0.126E-01
RMM:   2    -0.231201567417E+04   -0.29338E-02   -0.29476E-02  6548   0.928E-02    0.152E-01
RMM:   3    -0.231201584244E+04   -0.16827E-03   -0.29826E-03  5034   0.350E-02    0.130E-01
RMM:   4    -0.231201562778E+04    0.21466E-03   -0.30514E-04  3127   0.982E-03    0.356E-02
RMM:   5    -0.231201561729E+04    0.10492E-04   -0.55848E-05  2949   0.590E-03    0.318E-02
RMM:   6    -0.231201560948E+04    0.78027E-05   -0.38027E-05  2903   0.520E-03
  63 F= -.23332249E+04 E0= -.23332249E+04  d E =-.513705E-03  mag=     1.0000
       N       E                     dE             d eps       ncg     rms          rms(c)
DAV:   1    -0.231201402842E+04    0.15889E-02   -0.92209E-02  4560   0.317E-01    0.103E-01
RMM:   2    -0.231201603568E+04   -0.20073E-02   -0.18918E-02  6509   0.739E-02    0.162E-01
RMM:   3    -0.231201599553E+04    0.40147E-04   -0.18977E-03  4232   0.262E-02    0.102E-01
RMM:   4    -0.231201589470E+04    0.10084E-03   -0.22837E-04  2991   0.832E-03    0.515E-02
RMM:   5    -0.231201587082E+04    0.23882E-04   -0.40135E-05  2913   0.460E-03    0.330E-02
RMM:   6    -0.231201586859E+04    0.22311E-05   -0.31046E-05  2889   0.370E-03
  64 F= -.23332250E+04 E0= -.23332250E+04  d E =-.634163E-03  mag=     1.0000
       N       E                     dE             d eps       ncg     rms          rms(c)
DAV:   1    -0.231201420506E+04    0.16658E-02   -0.12313E-01  4508   0.375E-01    0.113E-01
RMM:   2    -0.231201664692E+04   -0.24419E-02   -0.23154E-02  6512   0.861E-02    0.175E-01
RMM:   3    -0.231201658821E+04    0.58707E-04   -0.24518E-03  4722   0.325E-02    0.101E-01
RMM:   4    -0.231201648803E+04    0.10017E-03   -0.25499E-04  2979   0.898E-03    0.456E-02
RMM:   5    -0.231201648076E+04    0.72737E-05   -0.45810E-05  2930   0.506E-03
  65 F= -.23332255E+04 E0= -.23332255E+04  d E =-.456006E-03  mag=     1.0000
       N       E                     dE             d eps       ncg     rms          rms(c)
DAV:   1    -0.231201576416E+04    0.72387E-03   -0.47260E-02  4656   0.233E-01    0.695E-02
RMM:   2    -0.231201668967E+04   -0.92551E-03   -0.88064E-03  6526   0.533E-02    0.102E-01
RMM:   3    -0.231201666839E+04    0.21278E-04   -0.89947E-04  3454   0.199E-02    0.620E-02
RMM:   4    -0.231201662974E+04    0.38651E-04   -0.10251E-04  2953   0.679E-03    0.319E-02
RMM:   5    -0.231201662136E+04    0.83801E-05   -0.21467E-05  2900   0.361E-03
  66 F= -.23332255E+04 E0= -.23332255E+04  d E =-.499705E-03  mag=     1.0000
       N       E                     dE             d eps       ncg     rms          rms(c)
DAV:   1    -0.231201600575E+04    0.62399E-03   -0.77506E-02  4528   0.306E-01    0.101E-01
RMM:   2    -0.231201769560E+04   -0.16898E-02   -0.11882E-02  6463   0.670E-02    0.238E-01
RMM:   3    -0.231201715396E+04    0.54163E-03   -0.12504E-03  4208   0.245E-02    0.655E-02
RMM:   4    -0.231201713276E+04    0.21201E-04   -0.19012E-04  3002   0.790E-03    0.566E-02
RMM:   5    -0.231201710174E+04    0.31021E-04   -0.43564E-05  2905   0.503E-03    0.308E-02
RMM:   6    -0.231201710263E+04   -0.89500E-06   -0.28994E-05  2901   0.395E-03
  67 F= -.23332258E+04 E0= -.23332258E+04  d E =-.273176E-03  mag=     1.0000
       N       E                     dE             d eps       ncg     rms          rms(c)
DAV:   1    -0.231201692421E+04    0.17753E-03   -0.19582E-02  4752   0.154E-01    0.449E-02
RMM:   2    -0.231201721365E+04   -0.28944E-03   -0.29490E-03  6374   0.336E-02    0.438E-02
RMM:   3    -0.231201724330E+04   -0.29658E-04   -0.30038E-04  2982   0.119E-02    0.491E-02
RMM:   4    -0.231201721344E+04    0.29867E-04   -0.32696E-05  2914   0.469E-03    0.133E-02
RMM:   5    -0.231201721263E+04    0.80699E-06   -0.10007E-05  2857   0.268E-03
  68 F= -.23332258E+04 E0= -.23332258E+04  d E =-.277408E-03  mag=     1.0000
       N       E                     dE             d eps       ncg     rms          rms(c)
DAV:   1    -0.231201645181E+04    0.76163E-03   -0.84560E-02  4492   0.318E-01    0.876E-02
RMM:   2    -0.231201787571E+04   -0.14239E-02   -0.12809E-02  6475   0.679E-02    0.153E-01
RMM:   3    -0.231201776132E+04    0.11440E-03   -0.12817E-03  3873   0.240E-02    0.771E-02
RMM:   4    -0.231201770516E+04    0.56152E-04   -0.15281E-04  2975   0.765E-03    0.408E-02
RMM:   5    -0.231201769322E+04    0.11947E-04   -0.28275E-05  2908   0.423E-03    0.315E-02
RMM:   6    -0.231201769073E+04    0.24899E-05   -0.29407E-05  2897   0.416E-03
  69 F= -.23332260E+04 E0= -.23332260E+04  d E =-.222294E-03  mag=     1.0000
       N       E                     dE             d eps       ncg     rms          rms(c)
DAV:   1    -0.231201762265E+04    0.70564E-04   -0.10648E-02  4832   0.113E-01    0.304E-02
RMM:   2    -0.231201777835E+04   -0.15569E-03   -0.16139E-03  6162   0.251E-02    0.295E-02
RMM:   3    -0.231201779872E+04   -0.20370E-04   -0.18036E-04  2896   0.914E-03    0.388E-02
RMM:   4    -0.231201778310E+04    0.15623E-04   -0.18286E-05  2899   0.348E-03    0.126E-02
RMM:   5    -0.231201778276E+04    0.33111E-06   -0.48184E-06  2693   0.164E-03
  70 F= -.23332260E+04 E0= -.23332260E+04  d E =-.222355E-03  mag=     1.0000
       N       E                     dE             d eps       ncg     rms          rms(c)
DAV:   1    -0.231201693271E+04    0.85038E-03   -0.94195E-02  4492   0.339E-01    0.965E-02
RMM:   2    -0.231201833768E+04   -0.14050E-02   -0.13350E-02  6441   0.704E-02    0.132E-01
RMM:   3    -0.231201834941E+04   -0.11724E-04   -0.13866E-03  4136   0.260E-02    0.985E-02
RMM:   4    -0.231201823599E+04    0.11342E-03   -0.14791E-04  2980   0.821E-03    0.357E-02
RMM:   5    -0.231201823484E+04    0.11539E-05   -0.34509E-05  2924   0.480E-03
  71 F= -.23332263E+04 E0= -.23332263E+04  d E =-.249881E-03  mag=     1.0000
       N       E                     dE             d eps       ncg     rms          rms(c)
DAV:   1    -0.231201815297E+04    0.83019E-04   -0.95881E-03  4936   0.109E-01    0.347E-02
RMM:   2    -0.231201830722E+04   -0.15425E-03   -0.13969E-03  6101   0.238E-02    0.502E-02
RMM:   3    -0.231201829190E+04    0.15327E-04   -0.17715E-04  2913   0.939E-03    0.264E-02
RMM:   4    -0.231201828937E+04    0.25299E-05   -0.23829E-05  2928   0.366E-03
  72 F= -.23332262E+04 E0= -.23332262E+04  d E =-.238510E-03  mag=     1.0000
       N       E                     dE             d eps       ncg     rms          rms(c)
DAV:   1    -0.231201753928E+04    0.75261E-03   -0.70477E-02  4492   0.293E-01    0.774E-02
RMM:   2    -0.231201852687E+04   -0.98758E-03   -0.10241E-02  6487   0.610E-02    0.671E-02
RMM:   3    -0.231201864804E+04   -0.12117E-03   -0.10527E-03  3604   0.221E-02    0.873E-02
RMM:   4    -0.231201855441E+04    0.93631E-04   -0.11029E-04  2956   0.759E-03    0.270E-02
RMM:   5    -0.231201855110E+04    0.33121E-05   -0.38136E-05  2929   0.509E-03
  73 F= -.23332264E+04 E0= -.23332264E+04  d E =-.167147E-03  mag=     1.0000
       N       E                     dE             d eps       ncg     rms          rms(c)
DAV:   1    -0.231201852122E+04    0.33187E-04   -0.29632E-03  5216   0.605E-02    0.248E-02
RMM:   2    -0.231201863692E+04   -0.11570E-03   -0.50680E-04  5202   0.146E-02    0.861E-02
RMM:   3    -0.231201856369E+04    0.73232E-04   -0.70183E-05  2904   0.634E-03    0.107E-02
RMM:   4    -0.231201856324E+04    0.44747E-06   -0.96987E-06  2865   0.260E-03
  74 F= -.23332264E+04 E0= -.23332264E+04  d E =-.159538E-03  mag=     1.0000
       N       E                     dE             d eps       ncg     rms          rms(c)
DAV:   1    -0.231201785220E+04    0.71149E-03   -0.63137E-02  4496   0.278E-01    0.790E-02
RMM:   2    -0.231201888002E+04   -0.10278E-02   -0.96604E-03  6479   0.604E-02    0.115E-01
RMM:   3    -0.231201886120E+04    0.18820E-04   -0.99876E-04  3673   0.224E-02    0.754E-02
RMM:   4    -0.231201880361E+04    0.57581E-04   -0.10908E-04  2941   0.711E-03    0.328E-02
RMM:   5    -0.231201879947E+04    0.41457E-05   -0.25309E-05  2917   0.393E-03
  75 F= -.23332266E+04 E0= -.23332266E+04  d E =-.168380E-03  mag=     1.0000
       N       E                     dE             d eps       ncg     rms          rms(c)
DAV:   1    -0.231201876664E+04    0.36973E-04   -0.27894E-03  5168   0.589E-02    0.250E-02
RMM:   2    -0.231201884481E+04   -0.78165E-04   -0.48322E-04  5091   0.138E-02    0.562E-02
RMM:   3    -0.231201880740E+04    0.37401E-04   -0.64018E-05  2901   0.613E-03    0.190E-02
RMM:   4    -0.231201880504E+04    0.23666E-05   -0.13006E-05  2869   0.253E-03
  76 F= -.23332266E+04 E0= -.23332266E+04  d E =-.159300E-03  mag=     1.0000
       N       E                     dE             d eps       ncg     rms          rms(c)
DAV:   1    -0.231201813864E+04    0.66876E-03   -0.62244E-02  4496   0.276E-01    0.787E-02
RMM:   2    -0.231201924885E+04   -0.11102E-02   -0.97339E-03  6461   0.605E-02    0.142E-01
RMM:   3    -0.231201912080E+04    0.12805E-03   -0.98981E-04  3718   0.222E-02    0.584E-02
RMM:   4    -0.231201908605E+04    0.34749E-04   -0.10982E-04  2964   0.682E-03    0.315E-02
RMM:   5    -0.231201908311E+04    0.29401E-05   -0.21773E-05  2891   0.383E-03
  77 F= -.23332267E+04 E0= -.23332267E+04  d E =-.162450E-03  mag=     1.0000
       N       E                     dE             d eps       ncg     rms          rms(c)
DAV:   1    -0.231201906783E+04    0.18221E-04   -0.17680E-03  5296   0.472E-02    0.230E-02
RMM:   2    -0.231201913353E+04   -0.65698E-04   -0.34306E-04  4589   0.115E-02    0.571E-02
RMM:   3    -0.231201909418E+04    0.39344E-04   -0.51029E-05  2878   0.555E-03    0.199E-02
RMM:   4    -0.231201909064E+04    0.35436E-05   -0.10146E-05  2745   0.220E-03
  78 F= -.23332267E+04 E0= -.23332267E+04  d E =-.149770E-03  mag=     1.0000
       N       E                     dE             d eps       ncg     rms          rms(c)
DAV:   1    -0.231201854268E+04    0.55150E-03   -0.58912E-02  4492   0.270E-01    0.749E-02
RMM:   2    -0.231201945437E+04   -0.91169E-03   -0.85327E-03  6422   0.575E-02    0.107E-01
RMM:   3    -0.231201943258E+04    0.21792E-04   -0.85708E-04  3672   0.215E-02    0.659E-02
RMM:   4    -0.231201937746E+04    0.55124E-04   -0.87488E-05  2948   0.677E-03    0.223E-02
RMM:   5    -0.231201938599E+04   -0.85324E-05   -0.24688E-05  2911   0.412E-03
  79 F= -.23332268E+04 E0= -.23332268E+04  d E =-.135556E-03  mag=     1.0000
       N       E                     dE             d eps       ncg     rms          rms(c)
DAV:   1    -0.231201936752E+04    0.99346E-05   -0.22278E-03  5200   0.530E-02    0.164E-02
RMM:   2    -0.231201940738E+04   -0.39862E-04   -0.33733E-04  4839   0.124E-02    0.288E-02
RMM:   3    -0.231201940295E+04    0.44309E-05   -0.40632E-05  2862   0.578E-03
  80 F= -.23332268E+04 E0= -.23332268E+04  d E =-.120623E-03  mag=     1.0000
       N       E                     dE             d eps       ncg     rms          rms(c)
DAV:   1    -0.231201883854E+04    0.56884E-03   -0.55862E-02  4492   0.261E-01    0.737E-02
RMM:   2    -0.231201975125E+04   -0.91271E-03   -0.83383E-03  6510   0.566E-02    0.113E-01
RMM:   3    -0.231201970156E+04    0.49686E-04   -0.84504E-04  3600   0.204E-02    0.619E-02
RMM:   4    -0.231201965582E+04    0.45740E-04   -0.94634E-05  2958   0.676E-03    0.281E-02
RMM:   5    -0.231201965320E+04    0.26187E-05   -0.19829E-05  2904   0.368E-03
  81 F= -.23332269E+04 E0= -.23332269E+04  d E =-.105013E-03  mag=     1.0000
       N       E                     dE             d eps       ncg     rms          rms(c)
DAV:   1    -0.231201965807E+04   -0.22512E-05   -0.70728E-04  5440   0.296E-02    0.262E-02
RMM:   2    -0.231201976386E+04   -0.10578E-03   -0.21087E-04  3469   0.829E-03    0.953E-02
RMM:   3    -0.231201966478E+04    0.99075E-04   -0.58608E-05  2865   0.551E-03    0.200E-02
RMM:   4    -0.231201965981E+04    0.49682E-05   -0.99828E-06  2411   0.196E-03
  82 F= -.23332269E+04 E0= -.23332269E+04  d E =-.949293E-04  mag=     1.0000
       N       E                     dE             d eps       ncg     rms          rms(c)
DAV:   1    -0.231201933182E+04    0.33296E-03   -0.36076E-02  4496   0.210E-01    0.603E-02
RMM:   2    -0.231201979804E+04   -0.46622E-03   -0.48442E-03  6373   0.440E-02    0.474E-02
RMM:   3    -0.231201988191E+04   -0.83869E-04   -0.52306E-04  3235   0.170E-02    0.825E-02
RMM:   4    -0.231201980854E+04    0.73366E-04   -0.59231E-05  2905   0.610E-03    0.180E-02
RMM:   5    -0.231201981344E+04   -0.48965E-05   -0.20101E-05  2906   0.336E-03
  83 F= -.23332270E+04 E0= -.23332270E+04  d E =-.770849E-04  mag=     1.0000
       N       E                     dE             d eps       ncg     rms          rms(c)
DAV:   1    -0.231201978923E+04    0.19319E-04   -0.56261E-04  5224   0.265E-02    0.105E-02
RMM:   2    -0.231201980130E+04   -0.12069E-04   -0.77121E-05  3077   0.653E-03    0.218E-02
RMM:   3    -0.231201979680E+04    0.44959E-05   -0.11041E-05  2468   0.419E-03
  84 F= -.23332270E+04 E0= -.23332270E+04  d E =-.691878E-04  mag=     1.0000
       N       E                     dE             d eps       ncg     rms          rms(c)
DAV:   1    -0.231201969546E+04    0.10583E-03   -0.16148E-02  4528   0.142E-01    0.422E-02
RMM:   2    -0.231201988537E+04   -0.18991E-03   -0.19878E-03  6305   0.294E-02    0.299E-02
RMM:   3    -0.231201991556E+04   -0.30190E-04   -0.20358E-04  2974   0.112E-02    0.474E-02
RMM:   4    -0.231201988771E+04    0.27855E-04   -0.24409E-05  2893   0.434E-03    0.133E-02
RMM:   5    -0.231201988721E+04    0.49680E-06   -0.85396E-06  2837   0.241E-03
  85 F= -.23332270E+04 E0= -.23332270E+04  d E =-.507441E-04  mag=     1.0000
       N       E                     dE             d eps       ncg     rms          rms(c)
DAV:   1    -0.231201988699E+04    0.71689E-06   -0.75445E-05  5344   0.101E-02    0.907E-03
RMM:   2    -0.231201990309E+04   -0.16094E-04   -0.22513E-05  2668   0.296E-03    0.397E-02
RMM:   3    -0.231201988727E+04    0.15817E-04   -0.74044E-06  2337   0.236E-03    0.246E-03
RMM:   4    -0.231201988708E+04    0.18912E-06   -0.66577E-07   981   0.660E-04
  86 F= -.23332270E+04 E0= -.23332270E+04  d E =-.477809E-04  mag=     1.0000
       N       E                     dE             d eps       ncg     rms          rms(c)
DAV:   1    -0.231201979884E+04    0.88426E-04   -0.13519E-02  4528   0.130E-01    0.354E-02
RMM:   2    -0.231201996821E+04   -0.16936E-03   -0.17062E-03  6245   0.268E-02    0.361E-02
RMM:   3    -0.231201998606E+04   -0.17854E-04   -0.18271E-04  2945   0.106E-02    0.433E-02
RMM:   4    -0.231201996646E+04    0.19606E-04   -0.20569E-05  2902   0.376E-03    0.129E-02
RMM:   5    -0.231201996706E+04   -0.60556E-06   -0.59791E-06  2739   0.196E-03
  87 F= -.23332271E+04 E0= -.23332271E+04  d E =-.401645E-04  mag=     1.0000
       N       E                     dE             d eps       ncg     rms          rms(c)
DAV:   1    -0.231201996574E+04    0.72032E-06   -0.64129E-05  5296   0.936E-03    0.367E-03
RMM:   2    -0.231201996649E+04   -0.74992E-06   -0.93017E-06  2453   0.225E-03
  88 F= -.23332271E+04 E0= -.23332271E+04  d E =-.366857E-04  mag=     1.0000
       N       E                     dE             d eps       ncg     rms          rms(c)
DAV:   1    -0.231201990981E+04    0.55929E-04   -0.13139E-02  4512   0.129E-01    0.379E-02
RMM:   2    -0.231202010826E+04   -0.19845E-03   -0.17019E-03  6321   0.274E-02    0.633E-02
RMM:   3    -0.231202008141E+04    0.26846E-04   -0.17730E-04  2963   0.105E-02    0.291E-02
RMM:   4    -0.231202007234E+04    0.90697E-05   -0.19964E-05  2923   0.371E-03
  89 F= -.23332271E+04 E0= -.23332271E+04  d E =-.328897E-04  mag=     1.0000
       N       E                     dE             d eps       ncg     rms          rms(c)
DAV:   1    -0.231202007128E+04    0.10128E-04   -0.17854E-05  3840   0.422E-03    0.144E-02
RMM:   2    -0.231202010257E+04   -0.31287E-04   -0.28673E-05  2593   0.319E-03    0.561E-02
RMM:   3    -0.231202006926E+04    0.33311E-04   -0.12364E-05  2170   0.276E-03    0.492E-03
RMM:   4    -0.231202006996E+04   -0.70082E-06   -0.23697E-06  1912   0.112E-03
  90 F= -.23332271E+04 E0= -.23332271E+04  d E =-.307394E-04  mag=     1.0000
       N       E                     dE             d eps       ncg     rms          rms(c)
DAV:   1    -0.231202002551E+04    0.43748E-04   -0.12141E-02  4492   0.123E-01    0.333E-02
RMM:   2    -0.231202020254E+04   -0.17703E-03   -0.16067E-03  6259   0.259E-02    0.515E-02
RMM:   3    -0.231202019041E+04    0.12128E-04   -0.15945E-04  2915   0.958E-03    0.272E-02
RMM:   4    -0.231202018094E+04    0.94789E-05   -0.16753E-05  2922   0.344E-03
  91 F= -.23332271E+04 E0= -.23332271E+04  d E =-.295669E-04  mag=     1.0000
       N       E                     dE             d eps       ncg     rms          rms(c)
DAV:   1    -0.231202018800E+04    0.24147E-05   -0.98479E-05  5360   0.115E-02    0.103E-02
RMM:   2    -0.231202019731E+04   -0.93137E-05   -0.29955E-05  2651   0.333E-03
  92 F= -.23332271E+04 E0= -.23332271E+04  d E =-.382944E-04  mag=     1.0000
       N       E                     dE             d eps       ncg     rms          rms(c)
DAV:   1    -0.231202019211E+04   -0.41122E-05   -0.78171E-03  4496   0.989E-02    0.273E-02
RMM:   2    -0.231202030932E+04   -0.11721E-03   -0.10552E-03  6092   0.220E-02    0.430E-02
RMM:   3    -0.231202030038E+04    0.89486E-05   -0.10849E-04  2902   0.841E-03    0.220E-02
RMM:   4    -0.231202029578E+04    0.45948E-05   -0.13467E-05  2860   0.302E-03
  93 F= -.23332272E+04 E0= -.23332272E+04  d E =-.191993E-04  mag=     1.0000
       N       E                     dE             d eps       ncg     rms          rms(c)
DAV:   1    -0.231202031130E+04   -0.10921E-04   -0.10957E-03  4624   0.371E-02    0.120E-02
RMM:   2    -0.231202032984E+04   -0.18544E-04   -0.14380E-04  3564   0.815E-03    0.238E-02
RMM:   3    -0.231202032557E+04    0.42724E-05   -0.18233E-05  2712   0.488E-03
  94 F= -.23332272E+04 E0= -.23332272E+04  d E =-.190124E-04  mag=     1.0000
       N       E                     dE             d eps       ncg     rms          rms(c)
DAV:   1    -0.231202030551E+04    0.24332E-04   -0.70911E-03  4496   0.947E-02    0.274E-02
RMM:   2    -0.231202041126E+04   -0.10575E-03   -0.88690E-04  6062   0.200E-02    0.474E-02
RMM:   3    -0.231202039428E+04    0.16985E-04   -0.89429E-05  2899   0.765E-03    0.196E-02
RMM:   4    -0.231202038985E+04    0.44309E-05   -0.10803E-05  2920   0.280E-03
  95 F= -.23332272E+04 E0= -.23332272E+04  d E =-.257848E-04  mag=     1.0000
       N       E                     dE             d eps       ncg     rms          rms(c)
DAV:   1    -0.231202039421E+04    0.67870E-07   -0.98397E-04  4848   0.355E-02    0.140E-02
RMM:   2    -0.231202042352E+04   -0.29313E-04   -0.13159E-04  3491   0.777E-03    0.431E-02
RMM:   3    -0.231202040510E+04    0.18423E-04   -0.19506E-05  2750   0.466E-03    0.717E-03
RMM:   4    -0.231202040467E+04    0.42471E-06   -0.30893E-06  2467   0.158E-03
  96 F= -.23332272E+04 E0= -.23332272E+04  d E =-.261825E-04  mag=     1.0000
       N       E                     dE             d eps       ncg     rms          rms(c)
DAV:   1    -0.231202037023E+04    0.34865E-04   -0.67091E-03  4496   0.922E-02    0.258E-02
RMM:   2    -0.231202044867E+04   -0.78440E-04   -0.79612E-04  6076   0.191E-02    0.232E-02
RMM:   3    -0.231202045738E+04   -0.87016E-05   -0.80781E-05  2899   0.761E-03
  97 F= -.23332272E+04 E0= -.23332272E+04  d E =-.308001E-04  mag=     1.0000
       N       E                     dE             d eps       ncg     rms          rms(c)
DAV:   1    -0.231202044889E+04   -0.21679E-06   -0.17972E-04  5360   0.155E-02    0.982E-03
RMM:   2    -0.231202045640E+04   -0.75065E-05   -0.31465E-05  2639   0.394E-03
  98 F= -.23332272E+04 E0= -.23332272E+04  d E =-.264305E-04  mag=     1.0000
       N       E                     dE             d eps       ncg     rms          rms(c)
DAV:   1    -0.231202044727E+04    0.16203E-05   -0.58754E-03  4496   0.864E-02    0.248E-02
RMM:   2    -0.231202052447E+04   -0.77195E-04   -0.75383E-04  6010   0.191E-02    0.279E-02
RMM:   3    -0.231202052779E+04   -0.33278E-05   -0.80491E-05  2901   0.753E-03
  99 F= -.23332272E+04 E0= -.23332272E+04  d E =-.215489E-04  mag=     1.0000
       N       E                     dE             d eps       ncg     rms          rms(c)
DAV:   1    -0.231202052918E+04   -0.47105E-05   -0.38970E-04  5408   0.224E-02    0.116E-02
RMM:   2    -0.231202054457E+04   -0.15392E-04   -0.65202E-05  2972   0.551E-03    0.338E-02
RMM:   3    -0.231202053295E+04    0.11617E-04   -0.11419E-05  2405   0.373E-03    0.794E-03
RMM:   4    -0.231202053266E+04    0.28714E-06   -0.29979E-06  1972   0.127E-03
 100 F= -.23332272E+04 E0= -.23332272E+04  d E =-.137447E-04  mag=     1.0000
       N       E                     dE             d eps       ncg     rms          rms(c)
DAV:   1    -0.231202053797E+04   -0.50162E-05   -0.52917E-03  4496   0.816E-02    0.238E-02
RMM:   2    -0.231202061168E+04   -0.73708E-04   -0.65983E-04  5935   0.169E-02    0.353E-02
RMM:   3    -0.231202060629E+04    0.53902E-05   -0.67285E-05  2890   0.679E-03
 101 F= -.23332273E+04 E0= -.23332273E+04  d E =-.204109E-04  mag=     1.0000
       N       E                     dE             d eps       ncg     rms          rms(c)
DAV:   1    -0.231202060461E+04    0.70652E-05   -0.44060E-05  4616   0.783E-03    0.795E-03
RMM:   2    -0.231202061150E+04   -0.68858E-05   -0.13003E-05  2466   0.340E-03
 102 F= -.23332273E+04 E0= -.23332273E+04  d E =-.214064E-04  mag=     1.0000
       N       E                     dE             d eps       ncg     rms          rms(c)
DAV:   1    -0.231202061952E+04   -0.14905E-04   -0.37739E-03  4496   0.683E-02    0.191E-02
RMM:   2    -0.231202067331E+04   -0.53792E-04   -0.52053E-04  5496   0.150E-02    0.239E-02
RMM:   3    -0.231202067506E+04   -0.17566E-05   -0.55557E-05  2834   0.626E-03
 103 F= -.23332273E+04 E0= -.23332273E+04  d E =-.138237E-04  mag=     1.0000
       N       E                     dE             d eps       ncg     rms          rms(c)
DAV:   1    -0.231202068039E+04   -0.70819E-05   -0.25661E-04  5096   0.179E-02    0.826E-03
RMM:   2    -0.231202068698E+04   -0.65891E-05   -0.41276E-05  2675   0.437E-03
 104 F= -.23332273E+04 E0= -.23332273E+04  d E =-.128366E-04  mag=     1.0000
       N       E                     dE             d eps       ncg     rms          rms(c)
DAV:   1    -0.231202069901E+04   -0.18621E-04   -0.22784E-03  4480   0.534E-02    0.151E-02
RMM:   2    -0.231202073046E+04   -0.31454E-04   -0.31856E-04  4506   0.127E-02    0.147E-02
RMM:   3    -0.231202073409E+04   -0.36212E-05   -0.38926E-05  2631   0.631E-03
 105 F= -.23332273E+04 E0= -.23332273E+04  d E =-.122762E-04  mag=     1.0000
       N       E                     dE             d eps       ncg     rms          rms(c)
DAV:   1    -0.231202073665E+04   -0.61859E-05   -0.71000E-05  5232   0.950E-03    0.677E-03
RMM:   2    -0.231202074115E+04   -0.44984E-05   -0.14152E-05  2456   0.269E-03
 106 F= -.23332273E+04 E0= -.23332273E+04  d E =-.135970E-04  mag=     1.0000
       N       E                     dE             d eps       ncg     rms          rms(c)
DAV:   1    -0.231202073935E+04   -0.26991E-05   -0.21824E-03  4496   0.525E-02    0.162E-02
RMM:   2    -0.231202077160E+04   -0.32249E-04   -0.30584E-04  4573   0.121E-02    0.199E-02
RMM:   3    -0.231202077130E+04    0.30096E-06   -0.32893E-05  2706   0.614E-03
 107 F= -.23332273E+04 E0= -.23332273E+04  d E =-.876872E-05  mag=     1.0000
       N       E                     dE             d eps       ncg     rms          rms(c)
DAV:   1    -0.231202077001E+04    0.15904E-05   -0.15276E-05  3728   0.451E-03    0.757E-03
RMM:   2    -0.231202077421E+04   -0.42065E-05   -0.90095E-06  2377   0.277E-03
 108 F= -.23332273E+04 E0= -.23332273E+04  d E =-.106569E-04  mag=     1.0000
       N       E                     dE             d eps       ncg     rms          rms(c)
DAV:   1    -0.231202076927E+04    0.73606E-06   -0.15273E-03  4400   0.434E-02    0.123E-02
RMM:   2    -0.231202079413E+04   -0.24864E-04   -0.24525E-04  4208   0.102E-02    0.145E-02
RMM:   3    -0.231202079500E+04   -0.86610E-06   -0.27820E-05  2391   0.551E-03
 109 F= -.23332273E+04 E0= -.23332273E+04  d E =-.401513E-05  mag=     1.0000
       N       E                     dE             d eps       ncg     rms          rms(c)
DAV:   1    -0.231202079586E+04   -0.17242E-05   -0.41346E-05  4056   0.732E-03    0.547E-03
RMM:   2    -0.231202079795E+04   -0.20862E-05   -0.10054E-05  2408   0.282E-03
 110 F= -.23332273E+04 E0= -.23332273E+04  d E =-.430128E-05  mag=     1.0000
       N       E                     dE             d eps       ncg     rms          rms(c)
DAV:   1    -0.231202079066E+04    0.52013E-05   -0.13719E-03  4400   0.416E-02    0.118E-02
RMM:   2    -0.231202081126E+04   -0.20603E-04   -0.20155E-04  4016   0.979E-03    0.137E-02
RMM:   3    -0.231202081195E+04   -0.68438E-06   -0.22846E-05  2388   0.552E-03
 111 F= -.23332273E+04 E0= -.23332273E+04  d E =-.532508E-05  mag=     1.0000
       N       E                     dE             d eps       ncg     rms          rms(c)
DAV:   1    -0.231202081065E+04    0.61118E-06   -0.61334E-06  2736   0.301E-03    0.536E-03
RMM:   2    -0.231202081252E+04   -0.18718E-05   -0.36891E-06  2261   0.178E-03
 112 F= -.23332273E+04 E0= -.23332273E+04  d E =-.567541E-05  mag=     1.0000
       N       E                     dE             d eps       ncg     rms          rms(c)
DAV:   1    -0.231202082096E+04   -0.10309E-04   -0.12743E-03  4400   0.398E-02    0.111E-02
RMM:   2    -0.231202083975E+04   -0.18787E-04   -0.18431E-04  3785   0.906E-03    0.134E-02
RMM:   3    -0.231202084031E+04   -0.56412E-06   -0.20912E-05  2456   0.530E-03
 113 F= -.23332273E+04 E0= -.23332273E+04  d E =-.480502E-05  mag=     1.0000
       N       E                     dE             d eps       ncg     rms          rms(c)
DAV:   1    -0.231202084437E+04   -0.46200E-05   -0.11033E-04  5152   0.118E-02    0.569E-03
RMM:   2    -0.231202084819E+04   -0.38250E-05   -0.19745E-05  2460   0.314E-03
 114 F= -.23332273E+04 E0= -.23332273E+04  d E =-.597039E-05  mag=     1.0000
       N       E                     dE             d eps       ncg     rms          rms(c)
DAV:   1    -0.231202085569E+04   -0.11326E-04   -0.12228E-03  4400   0.387E-02    0.112E-02
RMM:   2    -0.231202087934E+04   -0.23644E-04   -0.17930E-04  3616   0.922E-03    0.263E-02
RMM:   3    -0.231202087353E+04    0.58093E-05   -0.21388E-05  2343   0.523E-03
 115 F= -.23332273E+04 E0= -.23332273E+04  d E =-.581527E-05  mag=     1.0000
