       N       E                     dE             d eps       ncg     rms          rms(c)
DAV:   1     0.123409958105E+05    0.12341E+05   -0.81979E+05  4400   0.143E+03
DAV:   2    -0.116660335929E+04   -0.13508E+05   -0.13007E+05  5200   0.327E+02
DAV:   3    -0.247122932078E+04   -0.13046E+04   -0.12957E+04  5280   0.106E+02
DAV:   4    -0.249940167305E+04   -0.28172E+02   -0.28050E+02  5400   0.191E+01
DAV:   5    -0.250019790102E+04   -0.79623E+00   -0.79485E+00  5480   0.272E+00    0.170E+02
RMM:   6    -0.146086025431E+04    0.10393E+04   -0.19209E+03  4325   0.389E+01    0.723E+01
RMM:   7    -0.162852828671E+04   -0.16767E+03   -0.26936E+02  4818   0.138E+01    0.489E+01
RMM:   8    -0.168303670917E+04   -0.54508E+02   -0.39953E+01  4902   0.690E+00    0.354E+01
RMM:   9    -0.183143905028E+04   -0.14840E+03   -0.71862E+01  4599   0.865E+00    0.232E+01
RMM:  10    -0.196314914041E+04   -0.13171E+03   -0.52536E+01  4598   0.683E+00    0.161E+01
RMM:  11    -0.207642883218E+04   -0.11328E+03   -0.57953E+01  4416   0.575E+00    0.127E+01
RMM:  12    -0.225541248536E+04   -0.17898E+03   -0.19193E+02  4328   0.912E+00    0.595E+00
RMM:  13    -0.228405079256E+04   -0.28638E+02   -0.33508E+01  4434   0.444E+00    0.412E+00
RMM:  14    -0.229025541322E+04   -0.62046E+01   -0.75729E+00  4680   0.223E+00    0.558E+00
RMM:  15    -0.229036932182E+04   -0.11391E+00   -0.10791E+00  5137   0.907E-01    0.632E+00
RMM:  16    -0.229177824838E+04   -0.14089E+01   -0.66048E-01  4476   0.510E-01    0.396E+00
RMM:  17    -0.229319546442E+04   -0.14172E+01   -0.92136E-01  4367   0.676E-01    0.166E+00
RMM:  18    -0.229391166151E+04   -0.71620E+00   -0.77293E-01  4756   0.687E-01    0.352E+00
RMM:  19    -0.229387331326E+04    0.38348E-01   -0.10907E-01  4637   0.331E-01    0.533E+00
RMM:  20    -0.229392171430E+04   -0.48401E-01   -0.43123E-02  4698   0.159E-01    0.270E+00
RMM:  21    -0.229401628957E+04   -0.94575E-01   -0.11227E-01  4407   0.194E-01    0.189E+00
RMM:  22    -0.229424319405E+04   -0.22690E+00   -0.27618E-01  4437   0.292E-01    0.114E+00
RMM:  23    -0.229427465297E+04   -0.31459E-01   -0.22801E-02  4412   0.136E-01    0.936E-01
RMM:  24    -0.229434349569E+04   -0.68843E-01   -0.37014E-02  4536   0.105E-01    0.115E+00
RMM:  25    -0.229435899922E+04   -0.15504E-01   -0.10075E-02  4393   0.767E-02    0.137E+00
RMM:  26    -0.229435516058E+04    0.38386E-02   -0.10685E-02  4328   0.681E-02    0.171E+00
RMM:  27    -0.229434801019E+04    0.71504E-02   -0.63899E-03  4488   0.557E-02    0.198E+00
RMM:  28    -0.229431617247E+04    0.31838E-01   -0.94989E-03  4515   0.515E-02    0.237E+00
RMM:  29    -0.229431211506E+04    0.40574E-02   -0.14498E-03  3939   0.256E-02    0.242E+00
RMM:  30    -0.229432464399E+04   -0.12529E-01   -0.58434E-04  3709   0.118E-02    0.227E+00
RMM:  31    -0.229437001958E+04   -0.45376E-01   -0.11321E-02  4405   0.501E-02    0.171E+00
RMM:  32    -0.229440765886E+04   -0.37639E-01   -0.14970E-02  4355   0.545E-02    0.110E+00
RMM:  33    -0.229441085074E+04   -0.31919E-02   -0.25450E-03  3876   0.222E-02    0.106E+00
RMM:  34    -0.229443432834E+04   -0.23478E-01   -0.18220E-02  4306   0.589E-02    0.408E-01
RMM:  35    -0.229444002616E+04   -0.56978E-02   -0.12303E-02  4265   0.535E-02    0.214E-01
RMM:  36    -0.229444026349E+04   -0.23733E-03   -0.29703E-03  4127   0.218E-02    0.250E-01
RMM:  37    -0.229444013801E+04    0.12549E-03   -0.47817E-04  4062   0.932E-03    0.289E-01
RMM:  38    -0.229444116451E+04   -0.10265E-02   -0.21930E-03  3807   0.215E-02    0.241E-01
RMM:  39    -0.229444212943E+04   -0.96491E-03   -0.34697E-03  3979   0.287E-02    0.188E-01
RMM:  40    -0.229444312095E+04   -0.99153E-03   -0.71114E-04  3663   0.132E-02    0.975E-02
RMM:  41    -0.229444355986E+04   -0.43890E-03   -0.15360E-03  3778   0.186E-02    0.309E-02
RMM:  42    -0.229444370417E+04   -0.14432E-03   -0.10316E-04  3151   0.707E-03    0.474E-02
RMM:  43    -0.229444374187E+04   -0.37694E-04   -0.21645E-04  3378   0.768E-03    0.635E-02
RMM:  44    -0.229444384594E+04   -0.10408E-03   -0.25084E-05  2769   0.396E-03    0.474E-02
RMM:  45    -0.229444393091E+04   -0.84968E-04   -0.72318E-05  2881   0.466E-03    0.196E-02
RMM:  46    -0.229444397561E+04   -0.44696E-04   -0.56852E-05  2843   0.435E-03    0.547E-03
RMM:  47    -0.229444398581E+04   -0.10198E-04   -0.10854E-05  2519   0.266E-03    0.511E-03
RMM:  48    -0.229444398761E+04   -0.18048E-05   -0.27210E-06  2357   0.167E-03
   1 F= -.23143530E+04 E0= -.23143530E+04  d E =-.551378E-19  mag=    -0.0015
       N       E                     dE             d eps       ncg     rms          rms(c)
DAV:   1    -0.229443063385E+04    0.13352E-01   -0.17584E+00  4320   0.454E-01    0.378E-01
RMM:   2    -0.229443059196E+04    0.41888E-04   -0.13946E-02  4670   0.362E-02    0.286E-01
RMM:   3    -0.229442910726E+04    0.14847E-02   -0.26386E-03  4418   0.216E-02    0.134E-01
RMM:   4    -0.229442901545E+04    0.91816E-04   -0.79264E-04  3626   0.941E-03    0.437E-02
RMM:   5    -0.229442899541E+04    0.20035E-04   -0.11088E-04  2893   0.676E-03    0.202E-02
RMM:   6    -0.229442899502E+04    0.38848E-06   -0.38565E-05  2737   0.316E-03
   2 F= -.23143389E+04 E0= -.23143389E+04  d E =-.358952E-18  mag=    -0.0005
       N       E                     dE             d eps       ncg     rms          rms(c)
DAV:   1    -0.229445604761E+04   -0.27052E-01   -0.70940E+00  4320   0.875E-01    0.770E-01
RMM:   2    -0.229445536236E+04    0.68525E-03   -0.51768E-02  4994   0.778E-02    0.573E-01
RMM:   3    -0.229444941949E+04    0.59429E-02   -0.10557E-02  5113   0.438E-02    0.271E-01
RMM:   4    -0.229444912153E+04    0.29796E-03   -0.38704E-03  4020   0.208E-02    0.101E-01
RMM:   5    -0.229444894562E+04    0.17591E-03   -0.66058E-04  3506   0.153E-02    0.464E-02
RMM:   6    -0.229444896699E+04   -0.21371E-04   -0.16323E-04  3214   0.599E-03    0.294E-02
RMM:   7    -0.229444897310E+04   -0.61010E-05   -0.26582E-05  2755   0.444E-03
   3 F= -.23143575E+04 E0= -.23143575E+04  d E =-.708991E-16  mag=    -0.0001
       N       E                     dE             d eps       ncg     rms          rms(c)
DAV:   1    -0.229444537954E+04    0.35875E-02   -0.35627E+00  4320   0.567E-01    0.463E-01
RMM:   2    -0.229444468443E+04    0.69511E-03   -0.18485E-02  4461   0.447E-02    0.298E-01
RMM:   3    -0.229444324653E+04    0.14379E-02   -0.31418E-03  4862   0.228E-02    0.171E-01
RMM:   4    -0.229444295624E+04    0.29029E-03   -0.10132E-03  3875   0.115E-02    0.461E-02
RMM:   5    -0.229444294482E+04    0.11420E-04   -0.12116E-04  2961   0.641E-03    0.220E-02
RMM:   6    -0.229444294902E+04   -0.41935E-05   -0.25046E-05  2707   0.316E-03
   4 F= -.23143520E+04 E0= -.23143520E+04  d E =-.338767E-18  mag=    -0.0000
       N       E                     dE             d eps       ncg     rms          rms(c)
DAV:   1    -0.229444786564E+04   -0.49208E-02   -0.70963E+00  4320   0.684E-01    0.532E-01
RMM:   2    -0.229444575735E+04    0.21083E-02   -0.18458E-02  4040   0.399E-02    0.254E-01
RMM:   3    -0.229444491676E+04    0.84059E-03   -0.23833E-03  4149   0.221E-02    0.846E-02
RMM:   4    -0.229444501928E+04   -0.10252E-03   -0.34284E-04  3212   0.709E-03    0.399E-02
RMM:   5    -0.229444502308E+04   -0.37962E-05   -0.33308E-05  2800   0.431E-03
   5 F= -.23143541E+04 E0= -.23143541E+04  d E =-.377716E-19  mag=    -0.0000
       N       E                     dE             d eps       ncg     rms          rms(c)
DAV:   1    -0.229443639200E+04    0.86273E-02   -0.38733E+00  4400   0.527E-01    0.400E-01
RMM:   2    -0.229443593490E+04    0.45710E-03   -0.20495E-02  4472   0.468E-02    0.226E-01
RMM:   3    -0.229443534698E+04    0.58791E-03   -0.29673E-03  4032   0.256E-02    0.113E-01
RMM:   4    -0.229443533229E+04    0.14690E-04   -0.67808E-04  3971   0.109E-02    0.637E-02
RMM:   5    -0.229443531186E+04    0.20437E-04   -0.16128E-04  3082   0.716E-03    0.307E-02
RMM:   6    -0.229443530657E+04    0.52916E-05   -0.55084E-05  2861   0.440E-03
   6 F= -.23143448E+04 E0= -.23143448E+04  d E =-.344993E-18  mag=    -0.0000
       N       E                     dE             d eps       ncg     rms          rms(c)
DAV:   1    -0.229442302021E+04    0.12292E-01   -0.80913E+00  4320   0.851E-01    0.591E-01
RMM:   2    -0.229442291616E+04    0.10404E-03   -0.52525E-02  4791   0.688E-02    0.368E-01
RMM:   3    -0.229442221939E+04    0.69677E-03   -0.84298E-03  4176   0.437E-02    0.213E-01
RMM:   4    -0.229442224475E+04   -0.25353E-04   -0.26961E-03  4323   0.210E-02    0.137E-01
RMM:   5    -0.229442207843E+04    0.16632E-03   -0.79149E-04  3862   0.138E-02    0.679E-02
RMM:   6    -0.229442206717E+04    0.11255E-04   -0.24017E-04  3304   0.727E-03    0.394E-02
RMM:   7    -0.229442208325E+04   -0.16075E-04   -0.56925E-05  2835   0.513E-03    0.172E-02
RMM:   8    -0.229442209360E+04   -0.10357E-04   -0.22262E-05  2742   0.335E-03    0.942E-03
RMM:   9    -0.229442210143E+04   -0.78278E-05   -0.10994E-05  2705   0.265E-03
   7 F= -.23143307E+04 E0= -.23143307E+04  d E =-.148138E-14  mag=    -0.0000
       N       E                     dE             d eps       ncg     rms          rms(c)
DAV:   1    -0.229445183914E+04   -0.29746E-01   -0.23664E+00  4400   0.423E-01    0.362E-01
RMM:   2    -0.229445195716E+04   -0.11802E-03   -0.21956E-02  4277   0.426E-02    0.235E-01
RMM:   3    -0.229445094688E+04    0.10103E-02   -0.24259E-03  4100   0.232E-02    0.157E-01
RMM:   4    -0.229445078433E+04    0.16255E-03   -0.95613E-04  3747   0.120E-02    0.620E-02
RMM:   5    -0.229445078171E+04    0.26191E-05   -0.18431E-04  3097   0.669E-03    0.289E-02
RMM:   6    -0.229445077915E+04    0.25566E-05   -0.31461E-05  2709   0.405E-03
   8 F= -.23143595E+04 E0= -.23143595E+04  d E =-.179722E-19  mag=    -0.0000
       N       E                     dE             d eps       ncg     rms          rms(c)
DAV:   1    -0.229442953181E+04    0.21250E-01   -0.10064E+00  4760   0.360E-01    0.421E-01
RMM:   2    -0.229442986556E+04   -0.33375E-03   -0.20704E-02  4683   0.464E-02    0.358E-01
RMM:   3    -0.229442747197E+04    0.23936E-02   -0.31029E-03  4499   0.233E-02    0.153E-01
RMM:   4    -0.229442725448E+04    0.21749E-03   -0.92448E-04  3539   0.104E-02    0.523E-02
RMM:   5    -0.229442724535E+04    0.91321E-05   -0.93338E-05  2843   0.683E-03
   9 F= -.23143370E+04 E0= -.23143370E+04  d E =-.265674E-17  mag=    -0.0000
       N       E                     dE             d eps       ncg     rms          rms(c)
DAV:   1    -0.229444442026E+04   -0.17166E-01   -0.51389E-01  4520   0.247E-01    0.226E-01
RMM:   2    -0.229444461351E+04   -0.19325E-03   -0.56922E-03  4229   0.274E-02    0.178E-01
RMM:   3    -0.229444411269E+04    0.50083E-03   -0.79959E-04  3642   0.128E-02    0.872E-02
RMM:   4    -0.229444407779E+04    0.34900E-04   -0.30216E-04  3147   0.675E-03    0.283E-02
RMM:   5    -0.229444407633E+04    0.14578E-05   -0.33999E-05  2648   0.431E-03
  10 F= -.23143532E+04 E0= -.23143532E+04  d E =-.893462E-19  mag=    -0.0000
       N       E                     dE             d eps       ncg     rms          rms(c)
DAV:   1    -0.229444355961E+04    0.51817E-03   -0.10528E+00  4280   0.357E-01    0.223E-01
RMM:   2    -0.229444378181E+04   -0.22219E-03   -0.28799E-03  3555   0.205E-02    0.118E-01
RMM:   3    -0.229444386500E+04   -0.83195E-04   -0.30903E-04  3214   0.930E-03    0.437E-02
RMM:   4    -0.229444389122E+04   -0.26222E-04   -0.56237E-05  2714   0.417E-03    0.182E-02
RMM:   5    -0.229444389720E+04   -0.59773E-05   -0.14656E-05  2614   0.286E-03
  11 F= -.23143529E+04 E0= -.23143529E+04  d E =-.234054E-18  mag=    -0.0000
       N       E                     dE             d eps       ncg     rms          rms(c)
DAV:   1    -0.229444918739E+04   -0.52962E-02   -0.52633E-01  4400   0.258E-01    0.238E-01
RMM:   2    -0.229444959393E+04   -0.40654E-03   -0.39054E-03  4052   0.237E-02    0.169E-01
RMM:   3    -0.229444941100E+04    0.18293E-03   -0.74590E-04  3848   0.123E-02    0.107E-01
RMM:   4    -0.229444940235E+04    0.86467E-05   -0.80296E-04  3921   0.117E-02    0.401E-02
RMM:   5    -0.229444938870E+04    0.13650E-04   -0.14657E-04  3012   0.710E-03    0.182E-02
RMM:   6    -0.229444938943E+04   -0.73205E-06   -0.50210E-05  2803   0.370E-03
  12 F= -.23143585E+04 E0= -.23143585E+04  d E =-.477476E-18  mag=    -0.0000
       N       E                     dE             d eps       ncg     rms          rms(c)
DAV:   1    -0.229443497299E+04    0.14416E-01   -0.10353E+00  4240   0.376E-01    0.408E-01
RMM:   2    -0.229443652023E+04   -0.15472E-02   -0.12383E-02  4409   0.410E-02    0.312E-01
RMM:   3    -0.229443598906E+04    0.53117E-03   -0.22894E-03  4497   0.210E-02    0.212E-01
RMM:   4    -0.229443592405E+04    0.65006E-04   -0.39238E-03  4301   0.247E-02    0.107E-01
RMM:   5    -0.229443576453E+04    0.15952E-03   -0.62008E-04  3693   0.139E-02    0.530E-02
RMM:   6    -0.229443578788E+04   -0.23351E-04   -0.14412E-04  3181   0.605E-03    0.292E-02
RMM:   7    -0.229443578675E+04    0.11352E-05   -0.33854E-05  2786   0.439E-03
  13 F= -.23143448E+04 E0= -.23143448E+04  d E =-.872982E-19  mag=    -0.0000
       N       E                     dE             d eps       ncg     rms          rms(c)
DAV:   1    -0.229444954238E+04   -0.13754E-01   -0.57319E-01  4480   0.274E-01    0.273E-01
RMM:   2    -0.229444994928E+04   -0.40690E-03   -0.78358E-03  4345   0.363E-02    0.229E-01
RMM:   3    -0.229444922870E+04    0.72058E-03   -0.90446E-04  4004   0.135E-02    0.114E-01
RMM:   4    -0.229444912350E+04    0.10519E-03   -0.10827E-03  4134   0.126E-02    0.345E-02
RMM:   5    -0.229444911086E+04    0.12643E-04   -0.91328E-05  2859   0.690E-03    0.163E-02
RMM:   6    -0.229444911501E+04   -0.41473E-05   -0.23467E-05  2705   0.286E-03
  14 F= -.23143581E+04 E0= -.23143581E+04  d E =-.145041E-17  mag=    -0.0000
       N       E                     dE             d eps       ncg     rms          rms(c)
DAV:   1    -0.229442961387E+04    0.19497E-01   -0.11839E+00  4320   0.340E-01    0.312E-01
RMM:   2    -0.229442939652E+04    0.21736E-03   -0.97254E-03  4465   0.362E-02    0.240E-01
RMM:   3    -0.229442866899E+04    0.72753E-03   -0.12371E-03  3802   0.166E-02    0.131E-01
RMM:   4    -0.229442841191E+04    0.25708E-03   -0.66669E-04  4107   0.857E-03    0.260E-02
RMM:   5    -0.229442840218E+04    0.97316E-05   -0.43778E-05  2743   0.453E-03
  15 F= -.23143375E+04 E0= -.23143375E+04  d E =-.203613E-18  mag=    -0.0000
       N       E                     dE             d eps       ncg     rms          rms(c)
DAV:   1    -0.229444373706E+04   -0.15325E-01   -0.58911E-01  4320   0.180E-01    0.200E-01
RMM:   2    -0.229444355269E+04    0.18437E-03   -0.26898E-03  3888   0.196E-02    0.137E-01
RMM:   3    -0.229444339845E+04    0.15424E-03   -0.58924E-04  3684   0.967E-03    0.851E-02
RMM:   4    -0.229444329875E+04    0.99705E-04   -0.25576E-04  3559   0.617E-03    0.171E-02
RMM:   5    -0.229444329650E+04    0.22447E-05   -0.18382E-05  2605   0.334E-03
  16 F= -.23143523E+04 E0= -.23143523E+04  d E =-.409666E-18  mag=    -0.0000
       N       E                     dE             d eps       ncg     rms          rms(c)
DAV:   1    -0.229444506940E+04   -0.17707E-02   -0.11507E+00  4320   0.286E-01    0.262E-01
RMM:   2    -0.229444456415E+04    0.50525E-03   -0.24162E-03  3644   0.177E-02    0.143E-01
RMM:   3    -0.229444441032E+04    0.15384E-03   -0.87178E-04  3826   0.127E-02    0.357E-02
RMM:   4    -0.229444441081E+04   -0.48784E-06   -0.95617E-05  2861   0.533E-03
  17 F= -.23143535E+04 E0= -.23143535E+04  d E =-.261048E-18  mag=    -0.0000
       N       E                     dE             d eps       ncg     rms          rms(c)
DAV:   1    -0.229443430204E+04    0.10108E-01   -0.57834E-01  4320   0.202E-01    0.179E-01
RMM:   2    -0.229443403626E+04    0.26578E-03   -0.12708E-03  3480   0.140E-02    0.103E-01
RMM:   3    -0.229443400772E+04    0.28539E-04   -0.52333E-04  3486   0.854E-03    0.766E-02
RMM:   4    -0.229443390569E+04    0.10204E-03   -0.17945E-04  3000   0.621E-03    0.135E-02
RMM:   5    -0.229443390681E+04   -0.11259E-05   -0.27843E-05  2548   0.297E-03
  18 F= -.23143434E+04 E0= -.23143434E+04  d E =-.395236E-18  mag=    -0.0000
       N       E                     dE             d eps       ncg     rms          rms(c)
DAV:   1    -0.229445319238E+04   -0.19287E-01   -0.11619E+00  4320   0.276E-01    0.243E-01
RMM:   2    -0.229445278444E+04    0.40795E-03   -0.32262E-03  3802   0.214E-02    0.150E-01
RMM:   3    -0.229445259420E+04    0.19024E-03   -0.92256E-04  3914   0.112E-02    0.114E-01
RMM:   4    -0.229445238827E+04    0.20593E-03   -0.30691E-04  3361   0.838E-03    0.209E-02
RMM:   5    -0.229445239280E+04   -0.45309E-05   -0.45283E-05  2734   0.387E-03
  19 F= -.23143610E+04 E0= -.23143610E+04  d E =-.611242E-18  mag=    -0.0000
