       N       E                     dE             d eps       ncg     rms          rms(c)
DAV:   1     0.124996751761E+05    0.12500E+05   -0.81312E+05  4368   0.143E+03
DAV:   2    -0.105170629457E+04   -0.13551E+05   -0.13010E+05  5328   0.330E+02
DAV:   3    -0.244548475477E+04   -0.13938E+04   -0.13823E+04  5216   0.109E+02
DAV:   4    -0.248471715804E+04   -0.39232E+02   -0.39046E+02  6272   0.258E+01
DAV:   5    -0.248550938994E+04   -0.79223E+00   -0.79113E+00  5456   0.293E+00    0.170E+02
RMM:   6    -0.145747947473E+04    0.10280E+04   -0.18910E+03  4310   0.385E+01    0.717E+01
RMM:   7    -0.162787723381E+04   -0.17040E+03   -0.26199E+02  4857   0.136E+01    0.473E+01
RMM:   8    -0.168955928831E+04   -0.61682E+02   -0.34978E+01  4868   0.691E+00    0.346E+01
RMM:   9    -0.183258061420E+04   -0.14302E+03   -0.67889E+01  4474   0.838E+00    0.217E+01
RMM:  10    -0.198555435984E+04   -0.15297E+03   -0.72292E+01  4491   0.770E+00    0.152E+01
RMM:  11    -0.210820753808E+04   -0.12265E+03   -0.76938E+01  4317   0.664E+00    0.114E+01
RMM:  12    -0.223050614269E+04   -0.12230E+03   -0.10982E+02  4344   0.764E+00    0.568E+00
RMM:  13    -0.226694875628E+04   -0.36443E+02   -0.37445E+01  4409   0.521E+00    0.309E+00
RMM:  14    -0.227585441752E+04   -0.89057E+01   -0.11546E+01  4652   0.240E+00    0.254E+00
RMM:  15    -0.227702198738E+04   -0.11676E+01   -0.13197E+00  4872   0.106E+00    0.253E+00
RMM:  16    -0.227724164853E+04   -0.21966E+00   -0.21561E-01  5184   0.311E-01    0.246E+00
RMM:  17    -0.227760065270E+04   -0.35900E+00   -0.92419E-02  4624   0.219E-01    0.209E+00
RMM:  18    -0.227883980347E+04   -0.12392E+01   -0.37892E-01  4306   0.419E-01    0.893E-01
RMM:  19    -0.227917378526E+04   -0.33398E+00   -0.11738E-01  4632   0.312E-01    0.450E-01
RMM:  20    -0.227921543250E+04   -0.41647E-01   -0.32543E-02  4880   0.136E-01    0.264E-01
RMM:  21    -0.227923079191E+04   -0.15359E-01   -0.58591E-03  4457   0.725E-02    0.154E-01
RMM:  22    -0.227924615308E+04   -0.15361E-01   -0.35780E-03  4338   0.494E-02    0.129E-01
RMM:  23    -0.227925785654E+04   -0.11703E-01   -0.38571E-03  4332   0.496E-02    0.711E-02
RMM:  24    -0.227926417376E+04   -0.63172E-02   -0.19625E-03  4540   0.409E-02    0.479E-02
RMM:  25    -0.227926880567E+04   -0.46319E-02   -0.14582E-03  4375   0.282E-02    0.303E-02
RMM:  26    -0.227927148873E+04   -0.26831E-02   -0.95961E-04  4280   0.269E-02    0.246E-02
RMM:  27    -0.227927195862E+04   -0.46989E-03   -0.19606E-04  3997   0.132E-02    0.154E-02
RMM:  28    -0.227927238762E+04   -0.42900E-03   -0.74166E-05  3509   0.768E-03    0.146E-02
RMM:  29    -0.227927266166E+04   -0.27404E-03   -0.50940E-05  3348   0.659E-03    0.615E-03
RMM:  30    -0.227927279157E+04   -0.12991E-03   -0.30188E-05  3142   0.506E-03    0.341E-03
RMM:  31    -0.227927283516E+04   -0.43594E-04   -0.11111E-05  2801   0.395E-03    0.207E-03
RMM:  32    -0.227927284770E+04   -0.12538E-04   -0.47219E-06  2537   0.250E-03    0.141E-03
RMM:  33    -0.227927285482E+04   -0.71137E-05   -0.28003E-06  2328   0.198E-03
   1 F= -.22989051E+04 E0= -.22989051E+04  d E =-.229891E+04  mag=     2.0000
