       N       E                     dE             d eps       ncg     rms          rms(c)
DAV:   1     0.124702254388E+05    0.12470E+05   -0.81493E+05  4384   0.143E+03
DAV:   2    -0.107156559251E+04   -0.13542E+05   -0.13000E+05  5320   0.329E+02
DAV:   3    -0.245258787831E+04   -0.13810E+04   -0.13699E+04  5240   0.109E+02
DAV:   4    -0.249049950384E+04   -0.37912E+02   -0.37741E+02  6304   0.253E+01
DAV:   5    -0.249124587572E+04   -0.74637E+00   -0.74548E+00  5408   0.286E+00    0.170E+02
RMM:   6    -0.145264828370E+04    0.10386E+04   -0.19039E+03  4317   0.387E+01    0.720E+01
RMM:   7    -0.162225634535E+04   -0.16961E+03   -0.26295E+02  4901   0.141E+01    0.466E+01
RMM:   8    -0.168148568748E+04   -0.59229E+02   -0.24974E+01  4921   0.619E+00    0.329E+01
RMM:   9    -0.186290644912E+04   -0.18142E+03   -0.81074E+01  4570   0.906E+00    0.195E+01
RMM:  10    -0.200945352175E+04   -0.14655E+03   -0.71369E+01  4519   0.735E+00    0.145E+01
RMM:  11    -0.220183486316E+04   -0.19238E+03   -0.18372E+02  4312   0.934E+00    0.849E+00
RMM:  12    -0.227326515530E+04   -0.71430E+02   -0.79909E+01  4520   0.623E+00    0.453E+00
RMM:  13    -0.228397666203E+04   -0.10712E+02   -0.15152E+01  4876   0.382E+00    0.210E+00
RMM:  14    -0.228694318303E+04   -0.29665E+01   -0.38238E+00  4997   0.130E+00    0.148E+00
RMM:  15    -0.228725081704E+04   -0.30763E+00   -0.42104E-01  4690   0.656E-01    0.877E-01
RMM:  16    -0.228743905589E+04   -0.18824E+00   -0.12535E-01  5072   0.356E-01    0.413E-01
RMM:  17    -0.228751747968E+04   -0.78424E-01   -0.31098E-02  4478   0.187E-01    0.318E-01
RMM:  18    -0.228755325714E+04   -0.35777E-01   -0.35163E-02  4457   0.153E-01    0.167E-01
RMM:  19    -0.228756804747E+04   -0.14790E-01   -0.74138E-03  4379   0.107E-01    0.895E-02
RMM:  20    -0.228757957002E+04   -0.11523E-01   -0.63230E-03  4379   0.653E-02    0.863E-02
RMM:  21    -0.228758455217E+04   -0.49821E-02   -0.21778E-03  4341   0.570E-02    0.364E-02
RMM:  22    -0.228758694980E+04   -0.23976E-02   -0.16322E-03  4455   0.330E-02    0.295E-02
RMM:  23    -0.228758741516E+04   -0.46536E-03   -0.23833E-04  3955   0.253E-02    0.179E-02
RMM:  24    -0.228758787200E+04   -0.45684E-03   -0.21670E-04  4197   0.114E-02    0.142E-02
RMM:  25    -0.228758798484E+04   -0.11283E-03   -0.29904E-05  3107   0.823E-03    0.810E-03
RMM:  26    -0.228758807283E+04   -0.87996E-04   -0.42860E-05  3415   0.528E-03    0.501E-03
RMM:  27    -0.228758808133E+04   -0.84931E-05   -0.60209E-06  2763   0.457E-03
   1 F= -.23073321E+04 E0= -.23073321E+04  d E =-.230733E+04  mag=     0.0001
