       N       E                     dE             d eps       ncg     rms          rms(c)
DAV:   1     0.124230013973E+05    0.12423E+05   -0.84007E+05  4640   0.142E+03
DAV:   2    -0.126257378746E+04   -0.13686E+05   -0.13142E+05  5040   0.321E+02
DAV:   3    -0.250325712810E+04   -0.12407E+04   -0.12304E+04  5440   0.104E+02
DAV:   4    -0.253122841931E+04   -0.27971E+02   -0.27797E+02  5600   0.194E+01
DAV:   5    -0.253213851071E+04   -0.91009E+00   -0.90849E+00  5840   0.293E+00    0.171E+02
RMM:   6    -0.149108084006E+04    0.10411E+04   -0.19307E+03  4504   0.379E+01    0.744E+01
RMM:   7    -0.169357410181E+04   -0.20249E+03   -0.34428E+02  5136   0.150E+01    0.632E+01
RMM:   8    -0.169172895247E+04    0.18451E+01   -0.91131E+01  5182   0.865E+00    0.421E+01
RMM:   9    -0.178834572113E+04   -0.96617E+02   -0.45272E+01  4821   0.696E+00    0.339E+01
RMM:  10    -0.191385603171E+04   -0.12551E+03   -0.53145E+01  5352   0.690E+00    0.291E+01
RMM:  11    -0.198289469902E+04   -0.69039E+02   -0.30268E+01  5413   0.465E+00    0.210E+01
RMM:  12    -0.206438254589E+04   -0.81488E+02   -0.31275E+01  5050   0.455E+00    0.152E+01
RMM:  13    -0.217535747193E+04   -0.11097E+03   -0.65911E+01  4537   0.596E+00    0.113E+01
RMM:  14    -0.226687902747E+04   -0.91522E+02   -0.72816E+01  4619   0.613E+00    0.721E+00
RMM:  15    -0.231176682822E+04   -0.44888E+02   -0.42704E+01  4831   0.484E+00    0.483E+00
RMM:  16    -0.232068769745E+04   -0.89209E+01   -0.11250E+01  5080   0.257E+00    0.310E+00
RMM:  17    -0.232586649202E+04   -0.51788E+01   -0.54999E+00  4687   0.129E+00    0.199E+00
RMM:  18    -0.232766704702E+04   -0.18006E+01   -0.14905E+00  4905   0.969E-01    0.120E+00
RMM:  19    -0.232839923176E+04   -0.73218E+00   -0.57352E-01  4873   0.393E-01    0.579E-01
RMM:  20    -0.232857573441E+04   -0.17650E+00   -0.12214E-01  4967   0.275E-01    0.308E-01
RMM:  21    -0.232861577287E+04   -0.40038E-01   -0.26795E-02  4877   0.115E-01    0.157E-01
RMM:  22    -0.232863666704E+04   -0.20894E-01   -0.87571E-03  4554   0.786E-02    0.101E-01
RMM:  23    -0.232864856939E+04   -0.11902E-01   -0.44134E-03  4650   0.526E-02    0.734E-02
RMM:  24    -0.232865629124E+04   -0.77219E-02   -0.27176E-03  4532   0.429E-02    0.390E-02
RMM:  25    -0.232866022283E+04   -0.39316E-02   -0.13833E-03  4639   0.302E-02    0.335E-02
RMM:  26    -0.232866263224E+04   -0.24094E-02   -0.86100E-04  4225   0.230E-02    0.157E-02
RMM:  27    -0.232866348146E+04   -0.84923E-03   -0.32027E-04  4094   0.160E-02    0.990E-03
RMM:  28    -0.232866383406E+04   -0.35260E-03   -0.12388E-04  3742   0.962E-03    0.532E-03
RMM:  29    -0.232866399566E+04   -0.16159E-03   -0.61998E-05  3614   0.769E-03    0.391E-03
RMM:  30    -0.232866404829E+04   -0.52630E-04   -0.24988E-05  3214   0.496E-03    0.201E-03
RMM:  31    -0.232866407122E+04   -0.22933E-04   -0.10856E-05  2973   0.360E-03    0.162E-03
RMM:  32    -0.232866407889E+04   -0.76702E-05   -0.46880E-06  2689   0.244E-03
   1 F= -.23496279E+04 E0= -.23496279E+04  d E =-.208574E-20  mag=     4.9999
       N       E                     dE             d eps       ncg     rms          rms(c)
DAV:   1    -0.232865058212E+04    0.13489E-01   -0.21267E+00  4560   0.564E-01    0.332E-01
RMM:   2    -0.232864997334E+04    0.60877E-03   -0.12537E-02  4260   0.423E-02    0.241E-01
RMM:   3    -0.232864965777E+04    0.31558E-03   -0.23850E-03  4202   0.232E-02    0.236E-01
RMM:   4    -0.232864928386E+04    0.37391E-03   -0.11777E-03  4048   0.126E-02    0.164E-01
RMM:   5    -0.232864923488E+04    0.48974E-04   -0.66239E-04  3773   0.104E-02    0.122E-01
RMM:   6    -0.232864906679E+04    0.16809E-03   -0.15040E-04  2958   0.631E-03    0.205E-02
RMM:   7    -0.232864906191E+04    0.48775E-05   -0.33817E-05  2748   0.281E-03
   2 F= -.23496129E+04 E0= -.23496129E+04  d E =-.109459E-23  mag=     5.0000
       N       E                     dE             d eps       ncg     rms          rms(c)
DAV:   1    -0.232865343240E+04   -0.43656E-02   -0.84264E+00  4480   0.112E+00    0.646E-01
RMM:   2    -0.232865036779E+04    0.30646E-02   -0.40794E-02  4468   0.785E-02    0.440E-01
RMM:   3    -0.232864954310E+04    0.82469E-03   -0.79024E-03  4646   0.428E-02    0.453E-01
RMM:   4    -0.232864819684E+04    0.13463E-02   -0.44812E-03  4870   0.241E-02    0.327E-01
RMM:   5    -0.232864792533E+04    0.27151E-03   -0.23565E-03  4655   0.187E-02    0.221E-01
RMM:   6    -0.232864737143E+04    0.55390E-03   -0.48924E-04  3388   0.105E-02    0.382E-02
RMM:   7    -0.232864735354E+04    0.17892E-04   -0.11360E-04  3124   0.448E-03    0.192E-02
RMM:   8    -0.232864734702E+04    0.65173E-05   -0.23009E-05  2935   0.299E-03
   3 F= -.23496113E+04 E0= -.23496113E+04  d E =-.381244E-22  mag=     5.0000
       N       E                     dE             d eps       ncg     rms          rms(c)
DAV:   1    -0.232865902979E+04   -0.11676E-01   -0.41812E+00  4480   0.794E-01    0.407E-01
RMM:   2    -0.232865885915E+04    0.17064E-03   -0.21211E-02  4366   0.587E-02    0.334E-01
RMM:   3    -0.232865786717E+04    0.99198E-03   -0.39744E-03  4399   0.285E-02    0.234E-01
RMM:   4    -0.232865731067E+04    0.55650E-03   -0.17564E-03  4255   0.158E-02    0.135E-01
RMM:   5    -0.232865732598E+04   -0.15316E-04   -0.60142E-04  3571   0.120E-02    0.144E-01
RMM:   6    -0.232865715555E+04    0.17043E-03   -0.18116E-04  3047   0.615E-03    0.302E-02
RMM:   7    -0.232865714522E+04    0.10326E-04   -0.39629E-05  2872   0.330E-03    0.129E-02
RMM:   8    -0.232865714304E+04    0.21861E-05   -0.10625E-05  2737   0.227E-03
   4 F= -.23496210E+04 E0= -.23496210E+04  d E =-.259912E-20  mag=     5.0000
       N       E                     dE             d eps       ncg     rms          rms(c)
DAV:   1    -0.232865818436E+04   -0.10391E-02   -0.78654E+00  4480   0.108E+00    0.536E-01
RMM:   2    -0.232865790818E+04    0.27617E-03   -0.28679E-02  4334   0.660E-02    0.381E-01
RMM:   3    -0.232865790692E+04    0.12646E-05   -0.66910E-03  4903   0.355E-02    0.424E-01
RMM:   4    -0.232865658363E+04    0.13233E-02   -0.36608E-03  4760   0.234E-02    0.258E-01
RMM:   5    -0.232865619209E+04    0.39154E-03   -0.11063E-03  3863   0.153E-02    0.114E-01
RMM:   6    -0.232865610337E+04    0.88717E-04   -0.13729E-04  3139   0.692E-03    0.285E-02
RMM:   7    -0.232865609987E+04    0.35050E-05   -0.69198E-05  3157   0.413E-03
   5 F= -.23496200E+04 E0= -.23496200E+04  d E =-.396286E-23  mag=     5.0000
       N       E                     dE             d eps       ncg     rms          rms(c)
DAV:   1    -0.232864560155E+04    0.10502E-01   -0.39079E+00  4480   0.773E-01    0.391E-01
RMM:   2    -0.232864492738E+04    0.67417E-03   -0.13227E-02  3936   0.438E-02    0.212E-01
RMM:   3    -0.232864463772E+04    0.28967E-03   -0.27894E-03  4788   0.234E-02    0.194E-01
RMM:   4    -0.232864446916E+04    0.16856E-03   -0.10577E-03  4093   0.134E-02    0.141E-01
RMM:   5    -0.232864438653E+04    0.82626E-04   -0.27099E-04  3192   0.777E-03    0.749E-02
RMM:   6    -0.232864433321E+04    0.53320E-04   -0.73077E-05  2818   0.480E-03    0.227E-02
RMM:   7    -0.232864432997E+04    0.32419E-05   -0.28241E-05  2823   0.262E-03
   6 F= -.23496091E+04 E0= -.23496091E+04  d E =-.429471E-21  mag=     5.0000
       N       E                     dE             d eps       ncg     rms          rms(c)
DAV:   1    -0.232864995425E+04   -0.56210E-02   -0.84018E+00  4480   0.116E+00    0.639E-01
RMM:   2    -0.232864819598E+04    0.17583E-02   -0.54633E-02  4061   0.917E-02    0.386E-01
RMM:   3    -0.232864725368E+04    0.94230E-03   -0.10394E-02  5246   0.454E-02    0.425E-01
RMM:   4    -0.232864562280E+04    0.16309E-02   -0.54102E-03  5001   0.285E-02    0.204E-01
RMM:   5    -0.232864543292E+04    0.18988E-03   -0.85704E-04  3533   0.119E-02    0.143E-01
RMM:   6    -0.232864522737E+04    0.20554E-03   -0.29004E-04  3456   0.809E-03    0.449E-02
RMM:   7    -0.232864520068E+04    0.26690E-04   -0.18500E-04  3565   0.579E-03    0.173E-02
RMM:   8    -0.232864519675E+04    0.39381E-05   -0.11246E-05  2752   0.365E-03
   7 F= -.23496081E+04 E0= -.23496081E+04  d E =-.236379E-21  mag=     5.0000
       N       E                     dE             d eps       ncg     rms          rms(c)
DAV:   1    -0.232864456683E+04    0.63385E-03   -0.44078E+00  4640   0.947E-01    0.456E-01
RMM:   2    -0.232864278904E+04    0.17778E-02   -0.24140E-02  3875   0.636E-02    0.267E-01
RMM:   3    -0.232864172483E+04    0.10642E-02   -0.74664E-03  4867   0.344E-02    0.141E-01
RMM:   4    -0.232864162827E+04    0.96557E-04   -0.12384E-03  4308   0.159E-02    0.957E-02
RMM:   5    -0.232864149036E+04    0.13792E-03   -0.18508E-04  3253   0.703E-03    0.334E-02
RMM:   6    -0.232864148902E+04    0.13373E-05   -0.87497E-05  2910   0.420E-03
   8 F= -.23496054E+04 E0= -.23496054E+04  d E =-.185940E-21  mag=     5.0000
       N       E                     dE             d eps       ncg     rms          rms(c)
DAV:   1    -0.232865008380E+04   -0.85934E-02   -0.87042E+00  4480   0.132E+00    0.644E-01
RMM:   2    -0.232864477965E+04    0.53041E-02   -0.30726E-02  3889   0.773E-02    0.376E-01
RMM:   3    -0.232864561052E+04   -0.83087E-03   -0.16054E-02  5059   0.449E-02    0.580E-01
RMM:   4    -0.232864263219E+04    0.29783E-02   -0.40647E-03  4583   0.331E-02    0.131E-01
RMM:   5    -0.232864243797E+04    0.19422E-03   -0.63537E-04  3756   0.986E-03    0.563E-02
RMM:   6    -0.232864235106E+04    0.86911E-04   -0.20420E-04  3124   0.570E-03    0.240E-02
RMM:   7    -0.232864234658E+04    0.44766E-05   -0.72221E-05  3190   0.477E-03
   9 F= -.23496062E+04 E0= -.23496062E+04  d E =-.138889E-20  mag=     5.0000
       N       E                     dE             d eps       ncg     rms          rms(c)
DAV:   1    -0.232864738937E+04   -0.50383E-02   -0.43674E+00  4480   0.996E-01    0.466E-01
RMM:   2    -0.232864434149E+04    0.30479E-02   -0.17223E-02  3827   0.557E-02    0.265E-01
RMM:   3    -0.232864403446E+04    0.30703E-03   -0.82831E-03  4832   0.317E-02    0.286E-01
RMM:   4    -0.232864319360E+04    0.84086E-03   -0.15814E-03  4068   0.220E-02    0.834E-02
RMM:   5    -0.232864314288E+04    0.50721E-04   -0.26506E-04  3248   0.624E-03    0.599E-02
RMM:   6    -0.232864309101E+04    0.51873E-04   -0.92493E-05  2842   0.469E-03    0.188E-02
RMM:   7    -0.232864308842E+04    0.25876E-05   -0.34472E-05  2831   0.308E-03
  10 F= -.23496073E+04 E0= -.23496073E+04  d E =-.120805E-21  mag=     5.0000
       N       E                     dE             d eps       ncg     rms          rms(c)
DAV:   1    -0.232865500946E+04   -0.11918E-01   -0.86142E+00  4480   0.137E+00    0.676E-01
RMM:   2    -0.232864738507E+04    0.76244E-02   -0.31948E-02  3887   0.818E-02    0.372E-01
RMM:   3    -0.232864530911E+04    0.20760E-02   -0.17085E-02  4683   0.454E-02    0.125E-01
RMM:   4    -0.232864493865E+04    0.37046E-03   -0.16086E-03  4189   0.278E-02    0.928E-02
RMM:   5    -0.232864481714E+04    0.12151E-03   -0.22900E-04  3419   0.761E-03    0.447E-02
RMM:   6    -0.232864480817E+04    0.89779E-05   -0.91118E-05  3038   0.448E-03
  11 F= -.23496083E+04 E0= -.23496083E+04  d E =-.415627E-20  mag=     5.0000
       N       E                     dE             d eps       ncg     rms          rms(c)
DAV:   1    -0.232864741453E+04   -0.25974E-02   -0.43086E+00  4480   0.103E+00    0.464E-01
RMM:   2    -0.232864447516E+04    0.29394E-02   -0.18478E-02  3947   0.601E-02    0.266E-01
RMM:   3    -0.232864409387E+04    0.38129E-03   -0.60459E-03  4813   0.298E-02    0.276E-01
RMM:   4    -0.232864337007E+04    0.72380E-03   -0.23776E-03  4269   0.230E-02    0.160E-01
RMM:   5    -0.232864323884E+04    0.13123E-03   -0.50023E-04  3545   0.915E-03    0.925E-02
RMM:   6    -0.232864314626E+04    0.92578E-04   -0.92205E-05  2723   0.560E-03    0.220E-02
RMM:   7    -0.232864313546E+04    0.10802E-04   -0.57943E-05  2815   0.298E-03    0.124E-02
RMM:   8    -0.232864313426E+04    0.12023E-05   -0.74265E-06  2586   0.255E-03
  12 F= -.23496070E+04 E0= -.23496070E+04  d E =-.100910E-20  mag=     5.0000
       N       E                     dE             d eps       ncg     rms          rms(c)
DAV:   1    -0.232865353195E+04   -0.10396E-01   -0.85430E+00  4480   0.137E+00    0.648E-01
RMM:   2    -0.232864766654E+04    0.58654E-02   -0.47674E-02  3997   0.931E-02    0.377E-01
RMM:   3    -0.232864573643E+04    0.19301E-02   -0.77277E-03  4730   0.420E-02    0.266E-01
RMM:   4    -0.232864538647E+04    0.34996E-03   -0.51571E-03  4665   0.287E-02    0.228E-01
RMM:   5    -0.232864475780E+04    0.62867E-03   -0.81497E-04  3779   0.155E-02    0.700E-02
RMM:   6    -0.232864475749E+04    0.30966E-06   -0.18375E-04  3073   0.586E-03    0.755E-02
RMM:   7    -0.232864470812E+04    0.49366E-04   -0.62777E-05  2781   0.396E-03    0.181E-02
RMM:   8    -0.232864470687E+04    0.12565E-05   -0.13516E-05  2678   0.262E-03
  13 F= -.23496086E+04 E0= -.23496086E+04  d E =-.638672E-21  mag=     5.0000
       N       E                     dE             d eps       ncg     rms          rms(c)
DAV:   1    -0.232865682430E+04   -0.12116E-01   -0.21615E+00  4320   0.692E-01    0.331E-01
RMM:   2    -0.232865567440E+04    0.11499E-02   -0.12621E-02  3874   0.451E-02    0.197E-01
RMM:   3    -0.232865542910E+04    0.24530E-03   -0.22567E-03  4522   0.203E-02    0.149E-01
RMM:   4    -0.232865537815E+04    0.50951E-04   -0.11757E-03  4176   0.138E-02    0.141E-01
RMM:   5    -0.232865520275E+04    0.17540E-03   -0.25340E-04  3093   0.751E-03    0.692E-02
RMM:   6    -0.232865516728E+04    0.35472E-04   -0.84231E-05  2693   0.456E-03    0.353E-02
RMM:   7    -0.232865515686E+04    0.10413E-04   -0.47571E-05  2762   0.321E-03    0.948E-03
RMM:   8    -0.232865515657E+04    0.29907E-06   -0.45091E-06  2324   0.247E-03
  14 F= -.23496186E+04 E0= -.23496186E+04  d E =-.846117E-21  mag=     5.0000
       N       E                     dE             d eps       ncg     rms          rms(c)
DAV:   1    -0.232866055002E+04   -0.53932E-02   -0.12894E+00  4720   0.476E-01    0.501E-01
RMM:   2    -0.232865735895E+04    0.31911E-02   -0.13215E-02  3650   0.424E-02    0.269E-01
RMM:   3    -0.232865697532E+04    0.38362E-03   -0.62438E-03  4437   0.311E-02    0.120E-01
RMM:   4    -0.232865684690E+04    0.12842E-03   -0.65614E-04  3776   0.119E-02    0.117E-01
RMM:   5    -0.232865673006E+04    0.11684E-03   -0.36105E-04  3441   0.750E-03    0.775E-02
RMM:   6    -0.232865669455E+04    0.35511E-04   -0.19553E-04  3225   0.666E-03    0.435E-02
RMM:   7    -0.232865667476E+04    0.19789E-04   -0.21084E-05  2498   0.332E-03    0.103E-02
RMM:   8    -0.232865667190E+04    0.28674E-05   -0.15601E-05  2252   0.178E-03
  15 F= -.23496209E+04 E0= -.23496209E+04  d E =-.155648E-20  mag=     5.0000
       N       E                     dE             d eps       ncg     rms          rms(c)
DAV:   1    -0.232866441887E+04   -0.77441E-02   -0.64857E-01  4720   0.318E-01    0.352E-01
RMM:   2    -0.232866283005E+04    0.15888E-02   -0.68332E-03  3450   0.291E-02    0.188E-01
RMM:   3    -0.232866263049E+04    0.19955E-03   -0.28851E-03  4020   0.181E-02    0.622E-02
RMM:   4    -0.232866264202E+04   -0.11528E-04   -0.27253E-04  3286   0.846E-03    0.114E-01
RMM:   5    -0.232866253488E+04    0.10714E-03   -0.17015E-04  3066   0.582E-03    0.263E-02
RMM:   6    -0.232866253196E+04    0.29210E-05   -0.26809E-05  2510   0.340E-03
  16 F= -.23496264E+04 E0= -.23496264E+04  d E =-.150690E-20  mag=     5.0000
       N       E                     dE             d eps       ncg     rms          rms(c)
DAV:   1    -0.232866018089E+04    0.23540E-02   -0.12492E+00  4560   0.454E-01    0.367E-01
RMM:   2    -0.232865954941E+04    0.63148E-03   -0.52926E-03  3394   0.257E-02    0.211E-01
RMM:   3    -0.232865949349E+04    0.55925E-04   -0.18661E-03  4060   0.154E-02    0.660E-02
RMM:   4    -0.232865951223E+04   -0.18742E-04   -0.26209E-04  3008   0.974E-03    0.930E-02
RMM:   5    -0.232865943995E+04    0.72275E-04   -0.12545E-04  2897   0.490E-03    0.336E-02
RMM:   6    -0.232865942825E+04    0.11702E-04   -0.27146E-05  2477   0.350E-03    0.913E-03
RMM:   7    -0.232865942733E+04    0.92571E-06   -0.26085E-06  2244   0.157E-03
  17 F= -.23496233E+04 E0= -.23496233E+04  d E =-.142188E-20  mag=     5.0000
       N       E                     dE             d eps       ncg     rms          rms(c)
DAV:   1    -0.232865908986E+04    0.33839E-03   -0.65620E-01  4640   0.324E-01    0.351E-01
RMM:   2    -0.232865759770E+04    0.14922E-02   -0.64217E-03  3452   0.288E-02    0.187E-01
RMM:   3    -0.232865743945E+04    0.15825E-03   -0.29088E-03  4057   0.194E-02    0.741E-02
RMM:   4    -0.232865740956E+04    0.29891E-04   -0.28039E-04  3316   0.821E-03    0.962E-02
RMM:   5    -0.232865733425E+04    0.75310E-04   -0.16920E-04  3015   0.549E-03    0.405E-02
RMM:   6    -0.232865732526E+04    0.89901E-05   -0.65228E-05  2740   0.431E-03
  18 F= -.23496212E+04 E0= -.23496212E+04  d E =-.141197E-20  mag=     5.0000
       N       E                     dE             d eps       ncg     rms          rms(c)
DAV:   1    -0.232866075540E+04   -0.34211E-02   -0.12966E+00  4800   0.472E-01    0.479E-01
RMM:   2    -0.232865808128E+04    0.26741E-02   -0.12347E-02  3617   0.399E-02    0.256E-01
RMM:   3    -0.232865774948E+04    0.33179E-03   -0.47927E-03  4485   0.241E-02    0.117E-01
RMM:   4    -0.232865762489E+04    0.12459E-03   -0.68810E-04  3687   0.127E-02    0.102E-01
RMM:   5    -0.232865751988E+04    0.10501E-03   -0.26049E-04  3191   0.669E-03    0.628E-02
RMM:   6    -0.232865751201E+04    0.78693E-05   -0.12361E-04  2904   0.549E-03    0.530E-02
RMM:   7    -0.232865748641E+04    0.25596E-04   -0.27424E-05  2471   0.330E-03    0.842E-03
RMM:   8    -0.232865748488E+04    0.15320E-05   -0.68953E-06  2087   0.170E-03
  19 F= -.23496213E+04 E0= -.23496213E+04  d E =-.154048E-20  mag=     5.0000
       N       E                     dE             d eps       ncg     rms          rms(c)
DAV:   1    -0.232865784646E+04   -0.36005E-03   -0.62635E-01  5040   0.321E-01    0.359E-01
RMM:   2    -0.232865636331E+04    0.14831E-02   -0.90998E-03  3884   0.336E-02    0.196E-01
RMM:   3    -0.232865618233E+04    0.18098E-03   -0.19415E-03  4466   0.203E-02    0.159E-01
RMM:   4    -0.232865611061E+04    0.71720E-04   -0.10873E-03  4084   0.136E-02    0.150E-01
RMM:   5    -0.232865594009E+04    0.17052E-03   -0.24439E-04  3050   0.718E-03    0.790E-02
RMM:   6    -0.232865588905E+04    0.51039E-04   -0.97648E-05  2729   0.501E-03    0.343E-02
RMM:   7    -0.232865587916E+04    0.98936E-05   -0.45416E-05  2753   0.306E-03
  20 F= -.23496199E+04 E0= -.23496199E+04  d E =-.106214E-20  mag=     5.0000
       N       E                     dE             d eps       ncg     rms          rms(c)
DAV:   1    -0.232865937087E+04   -0.34818E-02   -0.12412E+00  4960   0.378E-01    0.544E-01
RMM:   2    -0.232865608292E+04    0.32879E-02   -0.20720E-02  4495   0.442E-02    0.323E-01
RMM:   3    -0.232865517797E+04    0.90495E-03   -0.40585E-03  4649   0.281E-02    0.256E-01
RMM:   4    -0.232865487552E+04    0.30245E-03   -0.23433E-03  4537   0.191E-02    0.218E-01
RMM:   5    -0.232865445831E+04    0.41721E-03   -0.67327E-04  3783   0.111E-02    0.124E-01
RMM:   6    -0.232865434564E+04    0.11267E-03   -0.21969E-04  3017   0.704E-03    0.518E-02
RMM:   7    -0.232865432745E+04    0.18195E-04   -0.41592E-05  2802   0.350E-03    0.127E-02
RMM:   8    -0.232865432572E+04    0.17243E-05   -0.71609E-06  2655   0.218E-03
  21 F= -.23496181E+04 E0= -.23496181E+04  d E =-.400945E-20  mag=     5.0000
       N       E                     dE             d eps       ncg     rms          rms(c)
DAV:   1    -0.232866480672E+04   -0.10479E-01   -0.62045E-01  4560   0.272E-01    0.305E-01
RMM:   2    -0.232866420531E+04    0.60141E-03   -0.52403E-03  4015   0.232E-02    0.182E-01
RMM:   3    -0.232866419873E+04    0.65786E-05   -0.12788E-03  4144   0.153E-02    0.188E-01
RMM:   4    -0.232866400747E+04    0.19126E-03   -0.86485E-04  3739   0.115E-02    0.143E-01
RMM:   5    -0.232866391190E+04    0.95570E-04   -0.29848E-04  3182   0.760E-03    0.821E-02
RMM:   6    -0.232866383824E+04    0.73656E-04   -0.78930E-05  2782   0.484E-03    0.148E-02
RMM:   7    -0.232866383735E+04    0.88937E-06   -0.13920E-05  2549   0.206E-03
  22 F= -.23496277E+04 E0= -.23496277E+04  d E =-.143626E-20  mag=     5.0000
       N       E                     dE             d eps       ncg     rms          rms(c)
DAV:   1    -0.232866373055E+04    0.10769E-03   -0.11977E+00  4480   0.370E-01    0.352E-01
RMM:   2    -0.232866337265E+04    0.35790E-03   -0.38362E-03  3767   0.234E-02    0.225E-01
RMM:   3    -0.232866426632E+04   -0.89366E-03   -0.21364E-03  4447   0.167E-02    0.385E-01
RMM:   4    -0.232866317150E+04    0.10948E-02   -0.11932E-03  4073   0.131E-02    0.933E-02
RMM:   5    -0.232866309595E+04    0.75546E-04   -0.14525E-04  3155   0.640E-03    0.169E-02
RMM:   6    -0.232866309767E+04   -0.17183E-05   -0.27810E-05  2835   0.325E-03
  23 F= -.23496269E+04 E0= -.23496269E+04  d E =-.377408E-20  mag=     5.0000
       N       E                     dE             d eps       ncg     rms          rms(c)
DAV:   1    -0.232865984786E+04    0.32481E-02   -0.59650E-01  4800   0.265E-01    0.276E-01
RMM:   2    -0.232865941520E+04    0.43266E-03   -0.36750E-03  4041   0.205E-02    0.176E-01
RMM:   3    -0.232865949924E+04   -0.84035E-04   -0.11802E-03  4008   0.141E-02    0.202E-01
RMM:   4    -0.232865926333E+04    0.23591E-03   -0.69564E-04  3472   0.995E-03    0.134E-01
RMM:   5    -0.232865919684E+04    0.66490E-04   -0.29215E-04  3184   0.752E-03    0.809E-02
RMM:   6    -0.232865911905E+04    0.77791E-04   -0.66472E-05  2764   0.459E-03    0.969E-03
RMM:   7    -0.232865911914E+04   -0.95984E-07   -0.10470E-05  2515   0.179E-03
  24 F= -.23496235E+04 E0= -.23496235E+04  d E =-.361082E-20  mag=     5.0000
       N       E                     dE             d eps       ncg     rms          rms(c)
DAV:   1    -0.232866409633E+04   -0.49773E-02   -0.12202E+00  4800   0.376E-01    0.496E-01
RMM:   2    -0.232866127579E+04    0.28205E-02   -0.16380E-02  4721   0.406E-02    0.320E-01
RMM:   3    -0.232866048099E+04    0.79479E-03   -0.38197E-03  4257   0.288E-02    0.246E-01
RMM:   4    -0.232866020946E+04    0.27153E-03   -0.19989E-03  4363   0.169E-02    0.210E-01
RMM:   5    -0.232865994072E+04    0.26874E-03   -0.64080E-04  3565   0.106E-02    0.137E-01
RMM:   6    -0.232865977156E+04    0.16916E-03   -0.19590E-04  2955   0.666E-03    0.375E-02
RMM:   7    -0.232865976301E+04    0.85489E-05   -0.33960E-05  2720   0.311E-03
  25 F= -.23496231E+04 E0= -.23496231E+04  d E =-.132184E-20  mag=     5.0000
       N       E                     dE             d eps       ncg     rms          rms(c)
DAV:   1    -0.232865351018E+04    0.62614E-02   -0.63323E-01  4960   0.314E-01    0.372E-01
RMM:   2    -0.232865171137E+04    0.17988E-02   -0.93340E-03  4136   0.362E-02    0.226E-01
RMM:   3    -0.232865143794E+04    0.27343E-03   -0.24954E-03  4683   0.222E-02    0.197E-01
RMM:   4    -0.232865115881E+04    0.27912E-03   -0.13801E-03  4288   0.148E-02    0.143E-01
RMM:   5    -0.232865100816E+04    0.15065E-03   -0.28112E-04  3157   0.779E-03    0.880E-02
RMM:   6    -0.232865094234E+04    0.65822E-04   -0.92687E-05  2686   0.478E-03    0.339E-02
RMM:   7    -0.232865093108E+04    0.11255E-04   -0.57457E-05  2839   0.327E-03    0.102E-02
RMM:   8    -0.232865092950E+04    0.15899E-05   -0.54720E-06  2353   0.250E-03
  26 F= -.23496150E+04 E0= -.23496150E+04  d E =-.254548E-20  mag=     5.0000
       N       E                     dE             d eps       ncg     rms          rms(c)
DAV:   1    -0.232866092542E+04   -0.99943E-02   -0.13175E+00  4640   0.464E-01    0.571E-01
RMM:   2    -0.232865589425E+04    0.50312E-02   -0.17324E-02  3916   0.506E-02    0.300E-01
RMM:   3    -0.232865556912E+04    0.32513E-03   -0.92348E-03  4583   0.347E-02    0.174E-01
RMM:   4    -0.232865508058E+04    0.48853E-03   -0.10348E-03  4194   0.155E-02    0.989E-02
RMM:   5    -0.232865499852E+04    0.82061E-04   -0.60591E-04  3594   0.877E-03    0.953E-02
RMM:   6    -0.232865494739E+04    0.51138E-04   -0.23899E-04  3257   0.782E-03    0.574E-02
RMM:   7    -0.232865491665E+04    0.30739E-04   -0.25989E-05  2602   0.352E-03    0.123E-02
RMM:   8    -0.232865491266E+04    0.39846E-05   -0.25045E-05  2403   0.205E-03
  27 F= -.23496185E+04 E0= -.23496185E+04  d E =-.235665E-20  mag=     5.0000
       N       E                     dE             d eps       ncg     rms          rms(c)
DAV:   1    -0.232866468506E+04   -0.97684E-02   -0.64043E-01  4400   0.307E-01    0.305E-01
RMM:   2    -0.232866380312E+04    0.88195E-03   -0.43559E-03  3578   0.240E-02    0.168E-01
RMM:   3    -0.232866372471E+04    0.78408E-04   -0.19165E-03  3949   0.151E-02    0.678E-02
RMM:   4    -0.232866367506E+04    0.49654E-04   -0.23432E-04  3139   0.841E-03    0.588E-02
RMM:   5    -0.232866363366E+04    0.41399E-04   -0.11350E-04  2949   0.465E-03    0.312E-02
RMM:   6    -0.232866363379E+04   -0.13321E-06   -0.35280E-05  2489   0.362E-03
  28 F= -.23496276E+04 E0= -.23496276E+04  d E =-.244666E-20  mag=     5.0000
       N       E                     dE             d eps       ncg     rms          rms(c)
DAV:   1    -0.232866022102E+04    0.34126E-02   -0.12410E+00  4640   0.446E-01    0.343E-01
RMM:   2    -0.232865989118E+04    0.32984E-03   -0.44324E-03  3579   0.248E-02    0.199E-01
RMM:   3    -0.232865989685E+04   -0.56710E-05   -0.15992E-03  4155   0.144E-02    0.809E-02
RMM:   4    -0.232865984520E+04    0.51651E-04   -0.23193E-04  3027   0.885E-03    0.617E-02
RMM:   5    -0.232865982805E+04    0.17146E-04   -0.10313E-04  2919   0.438E-03    0.476E-02
RMM:   6    -0.232865980170E+04    0.26358E-04   -0.32779E-05  2508   0.356E-03    0.688E-03
RMM:   7    -0.232865980151E+04    0.18919E-06   -0.44626E-06  2299   0.172E-03
  29 F= -.23496236E+04 E0= -.23496236E+04  d E =-.311800E-20  mag=     5.0000
       N       E                     dE             d eps       ncg     rms          rms(c)
DAV:   1    -0.232866273043E+04   -0.29287E-02   -0.63187E-01  4400   0.295E-01    0.282E-01
RMM:   2    -0.232866214067E+04    0.58976E-03   -0.34956E-03  3598   0.213E-02    0.157E-01
RMM:   3    -0.232866206841E+04    0.72260E-04   -0.15271E-03  3738   0.137E-02    0.421E-02
RMM:   4    -0.232866204488E+04    0.23529E-04   -0.13861E-04  3015   0.722E-03    0.516E-02
RMM:   5    -0.232866201696E+04    0.27919E-04   -0.78451E-05  2889   0.432E-03    0.238E-02
RMM:   6    -0.232866201489E+04    0.20681E-05   -0.14012E-05  2306   0.268E-03
  30 F= -.23496258E+04 E0= -.23496258E+04  d E =-.409809E-20  mag=     5.0000
       N       E                     dE             d eps       ncg     rms          rms(c)
DAV:   1    -0.232865998275E+04    0.20342E-02   -0.12554E+00  4320   0.434E-01    0.385E-01
RMM:   2    -0.232865905902E+04    0.92373E-03   -0.70981E-03  3709   0.300E-02    0.217E-01
RMM:   3    -0.232865899430E+04    0.64718E-04   -0.28314E-03  4534   0.208E-02    0.121E-01
RMM:   4    -0.232865881294E+04    0.18136E-03   -0.47002E-04  3505   0.103E-02    0.570E-02
RMM:   5    -0.232865878816E+04    0.24775E-04   -0.20737E-04  3206   0.605E-03    0.564E-02
RMM:   6    -0.232865876562E+04    0.22546E-04   -0.52262E-05  2630   0.439E-03    0.228E-02
RMM:   7    -0.232865876045E+04    0.51673E-05   -0.57136E-06  2331   0.211E-03
  31 F= -.23496227E+04 E0= -.23496227E+04  d E =-.150947E-20  mag=     5.0000
       N       E                     dE             d eps       ncg     rms          rms(c)
DAV:   1    -0.232866445876E+04   -0.56931E-02   -0.62829E-01  4480   0.348E-01    0.251E-01
RMM:   2    -0.232866412931E+04    0.32946E-03   -0.31743E-03  3556   0.216E-02    0.142E-01
RMM:   3    -0.232866410580E+04    0.23502E-04   -0.13416E-03  4029   0.134E-02    0.522E-02
RMM:   4    -0.232866407507E+04    0.30728E-04   -0.14076E-04  2926   0.729E-03    0.498E-02
RMM:   5    -0.232866405703E+04    0.18050E-04   -0.61309E-05  2822   0.372E-03    0.352E-02
RMM:   6    -0.232866404656E+04    0.10469E-04   -0.23502E-05  2457   0.303E-03    0.104E-02
RMM:   7    -0.232866404585E+04    0.70845E-06   -0.31439E-06  2241   0.180E-03
  32 F= -.23496278E+04 E0= -.23496278E+04  d E =-.255740E-20  mag=     5.0000
       N       E                     dE             d eps       ncg     rms          rms(c)
DAV:   1    -0.232866053571E+04    0.35108E-02   -0.12264E+00  4480   0.491E-01    0.315E-01
RMM:   2    -0.232866066903E+04   -0.13332E-03   -0.39540E-03  3626   0.269E-02    0.189E-01
RMM:   3    -0.232866071782E+04   -0.48787E-04   -0.10625E-03  3822   0.152E-02    0.569E-02
RMM:   4    -0.232866069332E+04    0.24500E-04   -0.11675E-04  3079   0.710E-03    0.365E-02
RMM:   5    -0.232866067889E+04    0.14429E-04   -0.16510E-05  2632   0.268E-03    0.970E-03
RMM:   6    -0.232866067741E+04    0.14732E-05   -0.98176E-06  2505   0.205E-03
  33 F= -.23496246E+04 E0= -.23496246E+04  d E =-.329978E-20  mag=     5.0000
       N       E                     dE             d eps       ncg     rms          rms(c)
DAV:   1    -0.232865144917E+04    0.92297E-02   -0.61697E-01  4960   0.338E-01    0.315E-01
RMM:   2    -0.232865034058E+04    0.11086E-02   -0.56471E-03  3647   0.310E-02    0.171E-01
RMM:   3    -0.232865026752E+04    0.73056E-04   -0.25249E-03  4161   0.188E-02    0.862E-02
RMM:   4    -0.232865016267E+04    0.10486E-03   -0.28084E-04  3495   0.827E-03    0.591E-02
RMM:   5    -0.232865014037E+04    0.22300E-04   -0.19198E-04  3069   0.526E-03    0.557E-02
RMM:   6    -0.232865011745E+04    0.22912E-04   -0.70158E-05  2722   0.460E-03    0.244E-02
RMM:   7    -0.232865011076E+04    0.66936E-05   -0.62207E-06  2199   0.217E-03
  34 F= -.23496143E+04 E0= -.23496143E+04  d E =-.185424E-20  mag=     5.0000
       N       E                     dE             d eps       ncg     rms          rms(c)
DAV:   1    -0.232865831877E+04   -0.82013E-02   -0.13036E+00  4960   0.524E-01    0.613E-01
RMM:   2    -0.232865233138E+04    0.59874E-02   -0.21969E-02  4001   0.561E-02    0.315E-01
RMM:   3    -0.232865192270E+04    0.40868E-03   -0.98521E-03  4639   0.420E-02    0.202E-01
RMM:   4    -0.232865138205E+04    0.54066E-03   -0.15222E-03  4349   0.177E-02    0.109E-01
RMM:   5    -0.232865132472E+04    0.57325E-04   -0.73189E-04  3805   0.993E-03    0.122E-01
RMM:   6    -0.232865120746E+04    0.11727E-03   -0.30492E-04  3379   0.823E-03    0.488E-02
RMM:   7    -0.232865118246E+04    0.24996E-04   -0.26034E-05  2661   0.360E-03    0.122E-02
RMM:   8    -0.232865117925E+04    0.32079E-05   -0.29837E-05  2491   0.214E-03
  35 F= -.23496148E+04 E0= -.23496148E+04  d E =-.384895E-20  mag=     5.0000
       N       E                     dE             d eps       ncg     rms          rms(c)
DAV:   1    -0.232866342309E+04   -0.12241E-01   -0.64066E-01  4880   0.340E-01    0.374E-01
RMM:   2    -0.232866145325E+04    0.19698E-02   -0.82362E-03  3841   0.337E-02    0.197E-01
RMM:   3    -0.232866136291E+04    0.90346E-04   -0.31942E-03  4735   0.215E-02    0.138E-01
RMM:   4    -0.232866113170E+04    0.23120E-03   -0.53894E-04  3440   0.108E-02    0.632E-02
RMM:   5    -0.232866109280E+04    0.38903E-04   -0.24129E-04  3264   0.583E-03    0.516E-02
RMM:   6    -0.232866108762E+04    0.51757E-05   -0.83427E-05  2808   0.520E-03
  36 F= -.23496253E+04 E0= -.23496253E+04  d E =-.708699E-20  mag=     5.0000
       N       E                     dE             d eps       ncg     rms          rms(c)
DAV:   1    -0.232866328534E+04   -0.21925E-02   -0.12311E+00  4480   0.474E-01    0.319E-01
RMM:   2    -0.232866330289E+04   -0.17552E-04   -0.34258E-03  3685   0.273E-02    0.191E-01
RMM:   3    -0.232866346212E+04   -0.15923E-03   -0.13081E-03  4149   0.154E-02    0.113E-01
RMM:   4    -0.232866328169E+04    0.18042E-03   -0.34566E-04  3216   0.112E-02    0.270E-02
RMM:   5    -0.232866327147E+04    0.10226E-04   -0.35901E-05  2878   0.307E-03    0.155E-02
RMM:   6    -0.232866327068E+04    0.78981E-06   -0.89807E-06  2477   0.225E-03
  37 F= -.23496268E+04 E0= -.23496268E+04  d E =-.128121E-20  mag=     5.0000
       N       E                     dE             d eps       ncg     rms          rms(c)
DAV:   1    -0.232866190139E+04    0.13701E-02   -0.59794E-01  4480   0.367E-01    0.220E-01
RMM:   2    -0.232866208371E+04   -0.18233E-03   -0.32660E-03  3907   0.269E-02    0.184E-01
RMM:   3    -0.232866190694E+04    0.17677E-03   -0.99092E-04  3913   0.143E-02    0.132E-01
RMM:   4    -0.232866174613E+04    0.16082E-03   -0.37410E-04  3746   0.869E-03    0.411E-02
RMM:   5    -0.232866175170E+04   -0.55725E-05   -0.66381E-05  2903   0.523E-03
  38 F= -.23496254E+04 E0= -.23496254E+04  d E =-.910055E-21  mag=     5.0000
       N       E                     dE             d eps       ncg     rms          rms(c)
DAV:   1    -0.232866367193E+04   -0.19258E-02   -0.11516E+00  4480   0.378E-01    0.305E-01
RMM:   2    -0.232866414325E+04   -0.47132E-03   -0.70377E-03  4695   0.337E-02    0.326E-01
RMM:   3    -0.232866303314E+04    0.11101E-02   -0.21284E-03  4110   0.193E-02    0.154E-01
RMM:   4    -0.232866292504E+04    0.10809E-03   -0.70370E-04  4315   0.101E-02    0.148E-01
RMM:   5    -0.232866281274E+04    0.11230E-03   -0.35692E-04  3118   0.737E-03    0.852E-02
RMM:   6    -0.232866275485E+04    0.57891E-04   -0.52825E-05  2829   0.388E-03    0.163E-02
RMM:   7    -0.232866275227E+04    0.25773E-05   -0.12544E-05  2598   0.223E-03
  39 F= -.23496269E+04 E0= -.23496269E+04  d E =-.104604E-19  mag=     5.0000
       N       E                     dE             d eps       ncg     rms          rms(c)
DAV:   1    -0.232866436530E+04   -0.16105E-02   -0.57711E-01  4480   0.265E-01    0.199E-01
RMM:   2    -0.232866454962E+04   -0.18432E-03   -0.27629E-03  4106   0.214E-02    0.195E-01
RMM:   3    -0.232866418291E+04    0.36670E-03   -0.79798E-04  3690   0.117E-02    0.105E-01
RMM:   4    -0.232866409762E+04    0.85297E-04   -0.24395E-04  3704   0.657E-03    0.584E-02
RMM:   5    -0.232866411470E+04   -0.17085E-04   -0.11415E-04  2814   0.477E-03    0.659E-02
RMM:   6    -0.232866408049E+04    0.34207E-04   -0.26949E-05  2527   0.285E-03    0.991E-03
RMM:   7    -0.232866407933E+04    0.11599E-05   -0.51869E-06  2468   0.165E-03
  40 F= -.23496277E+04 E0= -.23496277E+04  d E =-.201790E-19  mag=     5.0000
       N       E                     dE             d eps       ncg     rms          rms(c)
DAV:   1    -0.232866326659E+04    0.81390E-03   -0.11349E+00  4480   0.373E-01    0.251E-01
RMM:   2    -0.232866325093E+04    0.15660E-04   -0.30849E-03  3832   0.204E-02    0.162E-01
RMM:   3    -0.232866342578E+04   -0.17485E-03   -0.11542E-03  4286   0.133E-02    0.184E-01
RMM:   4    -0.232866302802E+04    0.39776E-03   -0.63655E-04  3602   0.103E-02    0.555E-02
RMM:   5    -0.232866307441E+04   -0.46389E-04   -0.16885E-04  2932   0.505E-03    0.808E-02
RMM:   6    -0.232866302106E+04    0.53351E-04   -0.45550E-05  2606   0.360E-03    0.117E-02
RMM:   7    -0.232866301972E+04    0.13448E-05   -0.75928E-06  2561   0.174E-03
  41 F= -.23496271E+04 E0= -.23496271E+04  d E =-.482955E-21  mag=     5.0000
       N       E                     dE             d eps       ncg     rms          rms(c)
DAV:   1    -0.232865954909E+04    0.34720E-02   -0.58609E-01  4480   0.265E-01    0.230E-01
RMM:   2    -0.232866021628E+04   -0.66720E-03   -0.50333E-03  4186   0.285E-02    0.292E-01
RMM:   3    -0.232865918894E+04    0.10273E-02   -0.12174E-03  4176   0.147E-02    0.107E-01
RMM:   4    -0.232865925994E+04   -0.70997E-04   -0.45179E-04  3761   0.798E-03    0.140E-01
RMM:   5    -0.232865910435E+04    0.15558E-03   -0.22013E-04  2941   0.611E-03    0.455E-02
RMM:   6    -0.232865909372E+04    0.10634E-04   -0.25251E-05  2765   0.309E-03    0.919E-03
RMM:   7    -0.232865909244E+04    0.12851E-05   -0.62324E-06  2591   0.189E-03
  42 F= -.23496229E+04 E0= -.23496229E+04  d E =-.768954E-20  mag=     5.0000
       N       E                     dE             d eps       ncg     rms          rms(c)
DAV:   1    -0.232866092214E+04   -0.18284E-02   -0.11671E+00  4480   0.396E-01    0.347E-01
RMM:   2    -0.232866284677E+04   -0.19246E-02   -0.13039E-02  4837   0.446E-02    0.495E-01
RMM:   3    -0.232865979848E+04    0.30483E-02   -0.30205E-03  4596   0.232E-02    0.151E-01
RMM:   4    -0.232866009864E+04   -0.30016E-03   -0.12623E-03  4375   0.126E-02    0.247E-01
RMM:   5    -0.232865956797E+04    0.53067E-03   -0.49220E-04  3289   0.846E-03    0.441E-02
RMM:   6    -0.232865955832E+04    0.96503E-05   -0.58166E-05  2966   0.398E-03
  43 F= -.23496235E+04 E0= -.23496235E+04  d E =-.124320E-20  mag=     5.0000
