       N       E                     dE             d eps       ncg     rms          rms(c)
DAV:   1     0.131143339151E+05    0.13114E+05   -0.84363E+05  4536   0.145E+03
DAV:   2    -0.101288620324E+04   -0.14127E+05   -0.13502E+05  4960   0.331E+02
DAV:   3    -0.248213303384E+04   -0.14692E+04   -0.14509E+04  5544   0.115E+02
DAV:   4    -0.252829063480E+04   -0.46158E+02   -0.45906E+02  6704   0.295E+01
DAV:   5    -0.252914286218E+04   -0.85223E+00   -0.85031E+00  6232   0.345E+00    0.170E+02
RMM:   6    -0.149834229852E+04    0.10308E+04   -0.19589E+03  4468   0.384E+01    0.734E+01
RMM:   7    -0.168063314610E+04   -0.18229E+03   -0.29992E+02  5213   0.146E+01    0.603E+01
RMM:   8    -0.171320144983E+04   -0.32568E+02   -0.96595E+01  5340   0.873E+00    0.477E+01
RMM:   9    -0.176499845648E+04   -0.51797E+02   -0.63785E+01  4950   0.767E+00    0.349E+01
RMM:  10    -0.189766974850E+04   -0.13267E+03   -0.62946E+01  5203   0.786E+00    0.283E+01
RMM:  11    -0.197042930201E+04   -0.72760E+02   -0.30009E+01  5038   0.514E+00    0.229E+01
RMM:  12    -0.204934380205E+04   -0.78915E+02   -0.31058E+01  4901   0.456E+00    0.184E+01
RMM:  13    -0.210003570717E+04   -0.50692E+02   -0.18196E+01  5283   0.346E+00    0.158E+01
RMM:  14    -0.220751209959E+04   -0.10748E+03   -0.73650E+01  4494   0.615E+00    0.114E+01
RMM:  15    -0.228068222248E+04   -0.73170E+02   -0.60653E+01  4587   0.562E+00    0.698E+00
RMM:  16    -0.231323373581E+04   -0.32552E+02   -0.33685E+01  4807   0.424E+00    0.359E+00
RMM:  17    -0.231943320249E+04   -0.61995E+01   -0.75747E+00  5055   0.213E+00    0.236E+00
RMM:  18    -0.232240109472E+04   -0.29679E+01   -0.25644E+00  4894   0.967E-01    0.133E+00
RMM:  19    -0.232355319605E+04   -0.11521E+01   -0.93571E-01  4752   0.684E-01    0.786E-01
RMM:  20    -0.232381608408E+04   -0.26289E+00   -0.23745E-01  4896   0.319E-01    0.585E-01
RMM:  21    -0.232388232382E+04   -0.66240E-01   -0.59848E-02  4922   0.171E-01    0.318E-01
RMM:  22    -0.232391728848E+04   -0.34965E-01   -0.23655E-02  4563   0.109E-01    0.182E-01
RMM:  23    -0.232393425046E+04   -0.16962E-01   -0.82185E-03  4592   0.781E-02    0.126E-01
RMM:  24    -0.232394511865E+04   -0.10868E-01   -0.40898E-03  4574   0.505E-02    0.164E-01
RMM:  25    -0.232394915361E+04   -0.40350E-02   -0.12174E-03  4441   0.323E-02    0.210E-01
RMM:  26    -0.232394829889E+04    0.85472E-03   -0.27736E-04  4117   0.164E-02    0.164E-01
RMM:  27    -0.232395186590E+04   -0.35670E-02   -0.81759E-04  4172   0.224E-02    0.143E-01
RMM:  28    -0.232395468664E+04   -0.28207E-02   -0.11962E-03  4107   0.220E-02    0.138E-01
RMM:  29    -0.232395561481E+04   -0.92817E-03   -0.13743E-03  4192   0.209E-02    0.191E-01
RMM:  30    -0.232395683826E+04   -0.12234E-02   -0.98205E-04  4064   0.170E-02    0.152E-01
RMM:  31    -0.232395862919E+04   -0.17909E-02   -0.16069E-03  4155   0.236E-02    0.172E-01
RMM:  32    -0.232395967736E+04   -0.10482E-02   -0.17772E-03  4356   0.208E-02    0.291E-01
RMM:  33    -0.232395982919E+04   -0.15183E-03   -0.23598E-03  4319   0.216E-02    0.917E-02
RMM:  34    -0.232395992924E+04   -0.10005E-03   -0.11624E-03  4034   0.202E-02    0.128E-01
RMM:  35    -0.232395985009E+04    0.79155E-04   -0.12047E-03  4388   0.187E-02    0.188E-01
RMM:  36    -0.232395924548E+04    0.60461E-03   -0.98802E-04  4029   0.164E-02    0.282E-01
RMM:  37    -0.232395900516E+04    0.24032E-03   -0.19707E-04  3119   0.781E-03    0.313E-01
RMM:  38    -0.232395946144E+04   -0.45628E-03   -0.94442E-05  2963   0.573E-03    0.270E-01
RMM:  39    -0.232396065237E+04   -0.11909E-02   -0.19284E-03  4216   0.185E-02    0.166E-01
RMM:  40    -0.232396116430E+04   -0.51194E-03   -0.12998E-03  3990   0.171E-02    0.157E-01
RMM:  41    -0.232396154965E+04   -0.38535E-03   -0.80193E-04  4016   0.125E-02    0.188E-01
RMM:  42    -0.232396236203E+04   -0.81238E-03   -0.10410E-03  4246   0.141E-02    0.307E-01
RMM:  43    -0.232396321180E+04   -0.84977E-03   -0.67873E-04  3796   0.125E-02    0.418E-01
RMM:  44    -0.232396317184E+04    0.39958E-04   -0.82493E-05  2941   0.552E-03    0.397E-01
RMM:  45    -0.232396349762E+04   -0.32578E-03   -0.71578E-05  2947   0.388E-03    0.447E-01
RMM:  46    -0.232396339387E+04    0.10376E-03   -0.65709E-06  2700   0.281E-03    0.426E-01
RMM:  47    -0.232396331689E+04    0.76975E-04   -0.44995E-06  2433   0.141E-03    0.418E-01
RMM:  48    -0.232396212214E+04    0.11948E-02   -0.11066E-03  4113   0.134E-02    0.224E-01
RMM:  49    -0.232396159726E+04    0.52487E-03   -0.63987E-04  3605   0.119E-02    0.177E-01
RMM:  50    -0.232396132600E+04    0.27126E-03   -0.45701E-04  3696   0.923E-03    0.149E-01
RMM:  51    -0.232396103596E+04    0.29004E-03   -0.43894E-04  3566   0.972E-03    0.136E-01
RMM:  52    -0.232396090388E+04    0.13208E-03   -0.14879E-04  3009   0.674E-03    0.143E-01
RMM:  53    -0.232396074707E+04    0.15681E-03   -0.14872E-04  3116   0.597E-03    0.151E-01
RMM:  54    -0.232396054464E+04    0.20243E-03   -0.15309E-04  3035   0.635E-03    0.171E-01
RMM:  55    -0.232396025851E+04    0.28613E-03   -0.22365E-04  3393   0.727E-03    0.206E-01
RMM:  56    -0.232395998237E+04    0.27614E-03   -0.17089E-04  3043   0.640E-03    0.243E-01
RMM:  57    -0.232395987510E+04    0.10727E-03   -0.44800E-05  2901   0.424E-03    0.258E-01
RMM:  58    -0.232395986919E+04    0.59156E-05   -0.62923E-06  2660   0.226E-03
   1 F= -.23453536E+04 E0= -.23453497E+04  d E =-.234535E+04  mag=     4.9947
       N       E                     dE             d eps       ncg     rms          rms(c)
DAV:   1    -0.232468057684E+04   -0.72070E+00   -0.77577E+01  4608   0.444E+00    0.242E+00
RMM:   2    -0.232532686000E+04   -0.64628E+00   -0.75299E+00  6574   0.127E+00    0.208E+00
RMM:   3    -0.232533915006E+04   -0.12290E-01   -0.76099E-01  6407   0.462E-01    0.228E+00
RMM:   4    -0.232530355971E+04    0.35590E-01   -0.99307E-02  6051   0.129E-01    0.134E+00
RMM:   5    -0.232532546023E+04   -0.21901E-01   -0.40323E-02  6066   0.792E-02    0.305E+00
RMM:   6    -0.232532266742E+04    0.27928E-02   -0.57789E-03  4654   0.276E-02    0.290E+00
RMM:   7    -0.232534450587E+04   -0.21838E-01   -0.21341E-02  4985   0.608E-02    0.312E+00
RMM:   8    -0.232534201945E+04    0.24864E-02   -0.13220E-02  5246   0.495E-02    0.271E+00
RMM:   9    -0.232534956394E+04   -0.75445E-02   -0.26234E-02  4684   0.706E-02    0.190E+00
RMM:  10    -0.232533324843E+04    0.16316E-01   -0.39037E-02  5053   0.759E-02    0.176E+00
RMM:  11    -0.232535168581E+04   -0.18437E-01   -0.14976E-02  4736   0.681E-02    0.128E+00
RMM:  12    -0.232535557795E+04   -0.38921E-02   -0.14278E-02  5100   0.572E-02    0.438E-01
RMM:  13    -0.232536297867E+04   -0.74007E-02   -0.29884E-03  4670   0.306E-02    0.298E-01
RMM:  14    -0.232537179688E+04   -0.88182E-02   -0.28730E-03  4439   0.301E-02    0.219E-01
RMM:  15    -0.232537672874E+04   -0.49319E-02   -0.16398E-03  4444   0.275E-02    0.180E-01
RMM:  16    -0.232537924890E+04   -0.25202E-02   -0.94177E-04  4530   0.207E-02    0.619E-02
RMM:  17    -0.232538065068E+04   -0.14018E-02   -0.32372E-04  4203   0.124E-02    0.312E-02
RMM:  18    -0.232538169683E+04   -0.10461E-02   -0.14933E-04  3783   0.930E-03    0.243E-02
RMM:  19    -0.232538210835E+04   -0.41152E-03   -0.55107E-05  3497   0.648E-03    0.119E-02
RMM:  20    -0.232538233649E+04   -0.22814E-03   -0.29955E-05  3229   0.468E-03    0.963E-03
RMM:  21    -0.232538244299E+04   -0.10650E-03   -0.16145E-05  2986   0.413E-03    0.512E-03
RMM:  22    -0.232538247231E+04   -0.29318E-04   -0.82294E-06  2807   0.329E-03    0.335E-03
RMM:  23    -0.232538247705E+04   -0.47394E-05   -0.37903E-06  2578   0.257E-03
   2 F= -.23467702E+04 E0= -.23467702E+04  d E =-.141660E+01  mag=     3.0001
       N       E                     dE             d eps       ncg     rms          rms(c)
DAV:   1    -0.232543049027E+04   -0.48018E-01   -0.34597E+00  4720   0.979E-01    0.575E-01
RMM:   2    -0.232545339674E+04   -0.22906E-01   -0.30697E-01  6569   0.243E-01    0.473E-01
RMM:   3    -0.232545486918E+04   -0.14724E-02   -0.34176E-02  6139   0.970E-02    0.486E-01
RMM:   4    -0.232545180217E+04    0.30670E-02   -0.51645E-03  5587   0.299E-02    0.223E-01
RMM:   5    -0.232545217504E+04   -0.37287E-03   -0.34585E-03  5389   0.224E-02    0.337E-01
RMM:   6    -0.232545098746E+04    0.11876E-02   -0.16207E-03  4735   0.175E-02    0.873E-02
RMM:   7    -0.232545105769E+04   -0.70229E-04   -0.30472E-04  3085   0.774E-03    0.122E-01
RMM:   8    -0.232545088726E+04    0.17043E-03   -0.11573E-04  2948   0.601E-03    0.241E-02
RMM:   9    -0.232545087611E+04    0.11155E-04   -0.31028E-05  3008   0.332E-03    0.102E-02
RMM:  10    -0.232545087283E+04    0.32782E-05   -0.73625E-06  2887   0.292E-03
   3 F= -.23468377E+04 E0= -.23468377E+04  d E =-.148408E+01  mag=     3.0000
       N       E                     dE             d eps       ncg     rms          rms(c)
DAV:   1    -0.232497141924E+04    0.47946E+00   -0.50164E+01  4560   0.492E+00    0.254E+00
RMM:   2    -0.232636156625E+04   -0.13901E+01   -0.13684E+01  6699   0.166E+00    0.343E+00
RMM:   3    -0.232623236425E+04    0.12920E+00   -0.13567E+00  6106   0.626E-01    0.162E+00
RMM:   4    -0.232621616253E+04    0.16202E-01   -0.13510E-01  6257   0.136E-01    0.114E+00
RMM:   5    -0.232620552608E+04    0.10636E-01   -0.26397E-02  6217   0.642E-02    0.833E-01
RMM:   6    -0.232619996676E+04    0.55593E-02   -0.24305E-02  5897   0.602E-02    0.668E-01
RMM:   7    -0.232619757282E+04    0.23939E-02   -0.93485E-03  5534   0.450E-02    0.410E-01
RMM:   8    -0.232619580239E+04    0.17704E-02   -0.15373E-03  5091   0.191E-02    0.781E-02
RMM:   9    -0.232619570963E+04    0.92766E-04   -0.24106E-04  3283   0.996E-03    0.385E-02
RMM:  10    -0.232619567818E+04    0.31444E-04   -0.13467E-04  3186   0.673E-03    0.182E-02
RMM:  11    -0.232619567654E+04    0.16403E-05   -0.24246E-05  2986   0.484E-03
   4 F= -.23475780E+04 E0= -.23475780E+04  d E =-.740300E+00  mag=     3.0000
       N       E                     dE             d eps       ncg     rms          rms(c)
DAV:   1    -0.232577977699E+04    0.41590E+00   -0.24282E+01  4680   0.348E+00    0.176E+00
RMM:   2    -0.232643663262E+04   -0.65686E+00   -0.65064E+00  6697   0.121E+00    0.245E+00
RMM:   3    -0.232638260070E+04    0.54032E-01   -0.65373E-01  6102   0.440E-01    0.125E+00
RMM:   4    -0.232637164341E+04    0.10957E-01   -0.66302E-02  6178   0.100E-01    0.762E-01
RMM:   5    -0.232636634310E+04    0.53003E-02   -0.12707E-02  6055   0.479E-02    0.570E-01
RMM:   6    -0.232636192812E+04    0.44150E-02   -0.12504E-02  5980   0.496E-02    0.187E-01
RMM:   7    -0.232636276408E+04   -0.83596E-03   -0.24077E-03  5279   0.258E-02    0.318E-01
RMM:   8    -0.232636174430E+04    0.10198E-02   -0.77432E-04  3858   0.128E-02    0.588E-02
RMM:   9    -0.232636168752E+04    0.56781E-04   -0.13664E-04  3145   0.716E-03    0.279E-02
RMM:  10    -0.232636167145E+04    0.16068E-04   -0.82594E-05  3175   0.529E-03    0.145E-02
RMM:  11    -0.232636167282E+04   -0.13698E-05   -0.12746E-05  2959   0.391E-03
   5 F= -.23477419E+04 E0= -.23477419E+04  d E =-.904240E+00  mag=     3.0000
       N       E                     dE             d eps       ncg     rms          rms(c)
DAV:   1    -0.232636208835E+04   -0.41690E-03   -0.30769E+01  4516   0.401E+00    0.178E+00
RMM:   2    -0.232669608442E+04   -0.33400E+00   -0.34670E+00  6258   0.102E+00    0.220E+00
RMM:   3    -0.232665437069E+04    0.41714E-01   -0.26654E-01  6016   0.325E-01    0.138E+00
RMM:   4    -0.232663733664E+04    0.17034E-01   -0.53876E-02  6101   0.105E-01    0.101E+00
RMM:   5    -0.232662827446E+04    0.90622E-02   -0.22053E-02  6027   0.711E-02    0.519E-01
RMM:   6    -0.232662446721E+04    0.38073E-02   -0.11783E-02  5249   0.522E-02    0.176E-01
RMM:   7    -0.232662518015E+04   -0.71293E-03   -0.22416E-03  4667   0.336E-02    0.310E-01
RMM:   8    -0.232662420552E+04    0.97463E-03   -0.74959E-04  4218   0.135E-02    0.694E-02
RMM:   9    -0.232662413804E+04    0.67479E-04   -0.17456E-04  3694   0.762E-03    0.329E-02
RMM:  10    -0.232662413534E+04    0.26950E-05   -0.57928E-05  3197   0.631E-03
   6 F= -.23480036E+04 E0= -.23480036E+04  d E =-.261658E+00  mag=     3.0000
       N       E                     dE             d eps       ncg     rms          rms(c)
DAV:   1    -0.232662411610E+04    0.21940E-04   -0.10577E-01  5152   0.237E-01    0.989E-02
RMM:   2    -0.232662521094E+04   -0.10948E-02   -0.11409E-02  6366   0.600E-02    0.118E-01
RMM:   3    -0.232662514569E+04    0.65241E-04   -0.95674E-04  3581   0.194E-02    0.786E-02
RMM:   4    -0.232662508320E+04    0.62496E-04   -0.16159E-04  3172   0.712E-03    0.523E-02
RMM:   5    -0.232662506966E+04    0.13540E-04   -0.77009E-05  3008   0.528E-03    0.352E-02
RMM:   6    -0.232662505788E+04    0.11773E-04   -0.54472E-05  3123   0.479E-03    0.102E-02
RMM:   7    -0.232662505928E+04   -0.13929E-05   -0.70253E-06  2850   0.340E-03
   7 F= -.23480045E+04 E0= -.23480045E+04  d E =-.262548E+00  mag=     3.0000
       N       E                     dE             d eps       ncg     rms          rms(c)
DAV:   1    -0.232665276580E+04   -0.27708E-01   -0.14513E+01  4516   0.266E+00    0.121E+00
RMM:   2    -0.232684310288E+04   -0.19034E+00   -0.18108E+00  6562   0.680E-01    0.180E+00
RMM:   3    -0.232681812576E+04    0.24977E-01   -0.17027E-01  6299   0.218E-01    0.923E-01
RMM:   4    -0.232681006119E+04    0.80646E-02   -0.21815E-02  5934   0.664E-02    0.479E-01
RMM:   5    -0.232680983579E+04    0.22540E-03   -0.87497E-03  5920   0.415E-02    0.468E-01
RMM:   6    -0.232680861877E+04    0.12170E-02   -0.61123E-03  5709   0.373E-02    0.356E-01
RMM:   7    -0.232680771666E+04    0.90211E-03   -0.22950E-03  4927   0.225E-02    0.207E-01
RMM:   8    -0.232680745769E+04    0.25896E-03   -0.36932E-04  3472   0.916E-03    0.792E-02
RMM:   9    -0.232680751097E+04   -0.53275E-04   -0.23379E-04  3302   0.759E-03    0.501E-02
RMM:  10    -0.232680760618E+04   -0.95215E-04   -0.25411E-04  3521   0.801E-03    0.337E-02
RMM:  11    -0.232680765767E+04   -0.51482E-04   -0.10915E-04  3080   0.638E-03    0.193E-02
RMM:  12    -0.232680768851E+04   -0.30844E-04   -0.86714E-05  3082   0.546E-03    0.914E-03
RMM:  13    -0.232680770443E+04   -0.15924E-04   -0.18831E-05  2932   0.378E-03    0.725E-03
RMM:  14    -0.232680771347E+04   -0.90384E-05   -0.91301E-06  2706   0.245E-03
   8 F= -.23481869E+04 E0= -.23481869E+04  d E =-.182470E+00  mag=     2.9997
       N       E                     dE             d eps       ncg     rms          rms(c)
DAV:   1    -0.232679879525E+04    0.89092E-02   -0.23314E+00  4592   0.106E+00    0.477E-01
RMM:   2    -0.232682915898E+04   -0.30364E-01   -0.28565E-01  6562   0.267E-01    0.716E-01
RMM:   3    -0.232682527461E+04    0.38844E-02   -0.27182E-02  6117   0.868E-02    0.354E-01
RMM:   4    -0.232682420744E+04    0.10672E-02   -0.35978E-03  4927   0.264E-02    0.197E-01
RMM:   5    -0.232682417490E+04    0.32541E-04   -0.13442E-03  4811   0.167E-02    0.190E-01
RMM:   6    -0.232682402590E+04    0.14900E-03   -0.10115E-03  4728   0.159E-02    0.152E-01
RMM:   7    -0.232682386524E+04    0.16066E-03   -0.41564E-04  3246   0.101E-02    0.845E-02
RMM:   8    -0.232682382224E+04    0.42999E-04   -0.71010E-05  3022   0.532E-03    0.327E-02
RMM:   9    -0.232682382685E+04   -0.46033E-05   -0.51315E-05  3028   0.391E-03
   9 F= -.23482030E+04 E0= -.23482030E+04  d E =-.198574E+00  mag=     2.9991
       N       E                     dE             d eps       ncg     rms          rms(c)
DAV:   1    -0.232685004720E+04   -0.26225E-01   -0.69210E+00  4528   0.212E+00    0.917E-01
RMM:   2    -0.232696880989E+04   -0.11876E+00   -0.12553E+00  6339   0.549E-01    0.983E-01
RMM:   3    -0.232697601057E+04   -0.72007E-02   -0.14202E-01  6185   0.216E-01    0.894E-01
RMM:   4    -0.232696706034E+04    0.89502E-02   -0.13017E-02  5987   0.546E-02    0.299E-01
RMM:   5    -0.232696676579E+04    0.29455E-03   -0.51000E-03  5843   0.326E-02    0.328E-01
RMM:   6    -0.232696618206E+04    0.58373E-03   -0.25138E-03  5365   0.269E-02    0.197E-01
RMM:   7    -0.232696587111E+04    0.31095E-03   -0.47701E-04  4168   0.116E-02    0.927E-02
RMM:   8    -0.232696580034E+04    0.70772E-04   -0.14748E-04  2995   0.798E-03    0.468E-02
RMM:   9    -0.232696576960E+04    0.30737E-04   -0.71120E-05  3083   0.476E-03    0.251E-02
RMM:  10    -0.232696577080E+04   -0.11995E-05   -0.39181E-05  3044   0.453E-03
  10 F= -.23483456E+04 E0= -.23483452E+04  d E =-.142532E+00  mag=     2.9951
       N       E                     dE             d eps       ncg     rms          rms(c)
DAV:   1    -0.232693876436E+04    0.27005E-01   -0.34623E+00  4528   0.149E+00    0.645E-01
RMM:   2    -0.232699639796E+04   -0.57634E-01   -0.61430E-01  6329   0.380E-01    0.670E-01
RMM:   3    -0.232700011529E+04   -0.37173E-02   -0.69249E-02  6114   0.148E-01    0.616E-01
RMM:   4    -0.232699585529E+04    0.42600E-02   -0.64752E-03  5763   0.379E-02    0.208E-01
RMM:   5    -0.232699557170E+04    0.28359E-03   -0.26460E-03  5614   0.242E-02    0.181E-01
RMM:   6    -0.232699536149E+04    0.21021E-03   -0.13091E-03  5047   0.191E-02    0.123E-01
RMM:   7    -0.232699525616E+04    0.10532E-03   -0.19926E-04  3260   0.805E-03    0.641E-02
RMM:   8    -0.232699521626E+04    0.39903E-04   -0.68765E-05  2962   0.631E-03    0.390E-02
RMM:   9    -0.232699519449E+04    0.21765E-04   -0.27832E-05  3017   0.320E-03    0.132E-02
RMM:  10    -0.232699519324E+04    0.12513E-05   -0.13603E-05  2952   0.317E-03
  11 F= -.23483755E+04 E0= -.23483747E+04  d E =-.172462E+00  mag=     2.9866
       N       E                     dE             d eps       ncg     rms          rms(c)
DAV:   1    -0.232695219096E+04    0.43004E-01   -0.88405E+00  4504   0.210E+00    0.935E-01
RMM:   2    -0.232708646055E+04   -0.13427E+00   -0.14655E+00  6602   0.535E-01    0.836E-01
RMM:   3    -0.232710165013E+04   -0.15190E-01   -0.18298E-01  6217   0.222E-01    0.882E-01
RMM:   4    -0.232709354815E+04    0.81020E-02   -0.16670E-02  5889   0.531E-02    0.379E-01
RMM:   5    -0.232709350146E+04    0.46696E-04   -0.58869E-03  5616   0.328E-02    0.402E-01
RMM:   6    -0.232709225421E+04    0.12472E-02   -0.35340E-03  5547   0.257E-02    0.235E-01
RMM:   7    -0.232709174655E+04    0.50766E-03   -0.60215E-04  3971   0.123E-02    0.696E-02
RMM:   8    -0.232709173081E+04    0.15738E-04   -0.19776E-04  3043   0.795E-03    0.601E-02
RMM:   9    -0.232709167744E+04    0.53379E-04   -0.71627E-05  2965   0.524E-03    0.214E-02
RMM:  10    -0.232709167024E+04    0.71931E-05   -0.46385E-05  3020   0.412E-03
  12 F= -.23484732E+04 E0= -.23484715E+04  d E =-.977293E-01  mag=     2.9645
       N       E                     dE             d eps       ncg     rms          rms(c)
DAV:   1    -0.232708874383E+04    0.29336E-02   -0.34771E-01  4720   0.413E-01    0.186E-01
RMM:   2    -0.232709407051E+04   -0.53267E-02   -0.56937E-02  6533   0.106E-01    0.182E-01
RMM:   3    -0.232709452423E+04   -0.45372E-03   -0.67092E-03  4479   0.413E-02    0.171E-01
RMM:   4    -0.232709422607E+04    0.29816E-03   -0.65358E-04  3148   0.112E-02    0.763E-02
RMM:   5    -0.232709425118E+04   -0.25106E-04   -0.22476E-04  3096   0.733E-03    0.917E-02
RMM:   6    -0.232709416338E+04    0.87794E-04   -0.17060E-04  3059   0.708E-03    0.365E-02
RMM:   7    -0.232709416351E+04   -0.12439E-06   -0.48523E-05  2917   0.471E-03
  13 F= -.23484760E+04 E0= -.23484740E+04  d E =-.100494E+00  mag=     2.9576
       N       E                     dE             d eps       ncg     rms          rms(c)
DAV:   1    -0.232708747035E+04    0.66930E-02   -0.44372E+00  4516   0.170E+00    0.693E-01
RMM:   2    -0.232716023615E+04   -0.72766E-01   -0.72265E-01  6311   0.413E-01    0.827E-01
RMM:   3    -0.232716095485E+04   -0.71870E-03   -0.78775E-02  6187   0.165E-01    0.601E-01
RMM:   4    -0.232715789054E+04    0.30643E-02   -0.84727E-03  5729   0.398E-02    0.271E-01
RMM:   5    -0.232715742272E+04    0.46781E-03   -0.17853E-03  5168   0.218E-02    0.194E-01
RMM:   6    -0.232715694408E+04    0.47864E-03   -0.12706E-03  5197   0.209E-02    0.637E-02
RMM:   7    -0.232715693834E+04    0.57382E-05   -0.22407E-04  3862   0.124E-02    0.251E-02
RMM:   8    -0.232715692982E+04    0.85234E-05   -0.34867E-05  2961   0.480E-03
  14 F= -.23485390E+04 E0= -.23485375E+04  d E =-.630329E-01  mag=     2.9615
       N       E                     dE             d eps       ncg     rms          rms(c)
DAV:   1    -0.232689242690E+04    0.26451E+00   -0.19997E+01  4504   0.361E+00    0.149E+00
RMM:   2    -0.232722633154E+04   -0.33390E+00   -0.32814E+00  6316   0.874E-01    0.186E+00
RMM:   3    -0.232722368405E+04    0.26475E-02   -0.36706E-01  6178   0.355E-01    0.121E+00
RMM:   4    -0.232721113774E+04    0.12546E-01   -0.37096E-02  5984   0.834E-02    0.555E-01
RMM:   5    -0.232720941640E+04    0.17213E-02   -0.80326E-03  5794   0.441E-02    0.411E-01
RMM:   6    -0.232720734737E+04    0.20690E-02   -0.56759E-03  5350   0.425E-02    0.173E-01
RMM:   7    -0.232720784378E+04   -0.49641E-03   -0.21355E-03  4996   0.289E-02    0.232E-01
RMM:   8    -0.232720718559E+04    0.65820E-03   -0.53154E-04  4198   0.118E-02    0.455E-02
RMM:   9    -0.232720712453E+04    0.61056E-04   -0.11941E-04  3081   0.754E-03    0.284E-02
RMM:  10    -0.232720710601E+04    0.18516E-04   -0.69198E-05  3154   0.632E-03    0.117E-02
RMM:  11    -0.232720710409E+04    0.19270E-05   -0.17206E-05  2949   0.473E-03
  15 F= -.23485900E+04 E0= -.23485893E+04  d E =-.114004E+00  mag=     2.9809
       N       E                     dE             d eps       ncg     rms          rms(c)
DAV:   1    -0.232720635957E+04    0.74644E-03   -0.29452E+00  4528   0.132E+00    0.584E-01
RMM:   2    -0.232725845038E+04   -0.52091E-01   -0.48690E-01  6389   0.336E-01    0.894E-01
RMM:   3    -0.232725366728E+04    0.47831E-02   -0.51795E-02  6230   0.128E-01    0.414E-01
RMM:   4    -0.232725254924E+04    0.11180E-02   -0.60375E-03  5553   0.318E-02    0.230E-01
RMM:   5    -0.232725209315E+04    0.45609E-03   -0.13083E-03  5062   0.175E-02    0.152E-01
RMM:   6    -0.232725183913E+04    0.25402E-03   -0.95084E-04  5009   0.176E-02    0.691E-02
RMM:   7    -0.232725186801E+04   -0.28877E-04   -0.20375E-04  3178   0.116E-02    0.661E-02
RMM:   8    -0.232725180675E+04    0.61264E-04   -0.64244E-05  2955   0.497E-03    0.213E-02
RMM:   9    -0.232725179893E+04    0.78179E-05   -0.15728E-05  2923   0.301E-03
  16 F= -.23486351E+04 E0= -.23486347E+04  d E =-.450796E-01  mag=     2.9891
       N       E                     dE             d eps       ncg     rms          rms(c)
DAV:   1    -0.232703593155E+04    0.21588E+00   -0.17231E+01  4504   0.320E+00    0.143E+00
RMM:   2    -0.232734987148E+04   -0.31394E+00   -0.29045E+00  6419   0.820E-01    0.227E+00
RMM:   3    -0.232731314955E+04    0.36722E-01   -0.30322E-01  6317   0.308E-01    0.963E-01
RMM:   4    -0.232730774240E+04    0.54071E-02   -0.36016E-02  6112   0.769E-02    0.556E-01
RMM:   5    -0.232730508176E+04    0.26606E-02   -0.77675E-03  5895   0.401E-02    0.372E-01
RMM:   6    -0.232730348197E+04    0.15998E-02   -0.51455E-03  5228   0.401E-02    0.166E-01
RMM:   7    -0.232730362820E+04   -0.14624E-03   -0.13711E-03  4664   0.256E-02    0.169E-01
RMM:   8    -0.232730328062E+04    0.34759E-03   -0.33688E-04  3472   0.914E-03    0.413E-02
RMM:   9    -0.232730323736E+04    0.43251E-04   -0.94853E-05  2975   0.663E-03    0.223E-02
RMM:  10    -0.232730323172E+04    0.56482E-05   -0.56550E-05  3016   0.535E-03
  17 F= -.23486875E+04 E0= -.23486874E+04  d E =-.975577E-01  mag=     2.9961
       N       E                     dE             d eps       ncg     rms          rms(c)
DAV:   1    -0.232731274428E+04   -0.95069E-02   -0.32312E+00  4528   0.128E+00    0.576E-01
RMM:   2    -0.232736694331E+04   -0.54199E-01   -0.49470E-01  6480   0.334E-01    0.988E-01
RMM:   3    -0.232735966380E+04    0.72795E-02   -0.49151E-02  6280   0.120E-01    0.361E-01
RMM:   4    -0.232735894327E+04    0.72053E-03   -0.62567E-03  5376   0.300E-02    0.237E-01
RMM:   5    -0.232735858778E+04    0.35549E-03   -0.14527E-03  5068   0.175E-02    0.181E-01
RMM:   6    -0.232735843406E+04    0.15372E-03   -0.12471E-03  4975   0.177E-02    0.150E-01
RMM:   7    -0.232735822261E+04    0.21145E-03   -0.42886E-04  3448   0.127E-02    0.688E-02
RMM:   8    -0.232735815912E+04    0.63486E-04   -0.75108E-05  2982   0.586E-03    0.201E-02
RMM:   9    -0.232735815350E+04    0.56238E-05   -0.17942E-05  2931   0.360E-03
  18 F= -.23487428E+04 E0= -.23487428E+04  d E =-.552899E-01  mag=     2.9983
       N       E                     dE             d eps       ncg     rms          rms(c)
DAV:   1    -0.232728562585E+04    0.72533E-01   -0.72357E+00  4504   0.193E+00    0.865E-01
RMM:   2    -0.232740863464E+04   -0.12301E+00   -0.11198E+00  6483   0.503E-01    0.150E+00
RMM:   3    -0.232739114349E+04    0.17491E-01   -0.11069E-01  6318   0.181E-01    0.530E-01
RMM:   4    -0.232738970878E+04    0.14347E-02   -0.14154E-02  5756   0.448E-02    0.351E-01
RMM:   5    -0.232738889749E+04    0.81130E-03   -0.32580E-03  5592   0.256E-02    0.264E-01
RMM:   6    -0.232738855970E+04    0.33779E-03   -0.27526E-03  5397   0.258E-02    0.223E-01
RMM:   7    -0.232738810559E+04    0.45411E-03   -0.90475E-04  4410   0.176E-02    0.102E-01
RMM:   8    -0.232738796446E+04    0.14113E-03   -0.15860E-04  3022   0.687E-03    0.295E-02
RMM:   9    -0.232738795148E+04    0.12974E-04   -0.38104E-05  2945   0.477E-03    0.144E-02
RMM:  10    -0.232738795147E+04    0.83382E-08   -0.19861E-05  2923   0.350E-03
  19 F= -.23487732E+04 E0= -.23487732E+04  d E =-.856738E-01  mag=     2.9994
       N       E                     dE             d eps       ncg     rms          rms(c)
DAV:   1    -0.232736394438E+04    0.24007E-01   -0.53496E+00  4504   0.178E+00    0.742E-01
RMM:   2    -0.232744360519E+04   -0.79661E-01   -0.72527E-01  6275   0.432E-01    0.118E+00
RMM:   3    -0.232743335072E+04    0.10254E-01   -0.70665E-02  6139   0.158E-01    0.456E-01
RMM:   4    -0.232743196458E+04    0.13861E-02   -0.91037E-03  5445   0.393E-02    0.273E-01
RMM:   5    -0.232743162503E+04    0.33955E-03   -0.21727E-03  5392   0.240E-02    0.233E-01
RMM:   6    -0.232743124555E+04    0.37948E-03   -0.16754E-03  5182   0.221E-02    0.170E-01
RMM:   7    -0.232743095190E+04    0.29365E-03   -0.61954E-04  4383   0.167E-02    0.797E-02
RMM:   8    -0.232743087399E+04    0.77910E-04   -0.99878E-05  3055   0.595E-03    0.213E-02
RMM:   9    -0.232743086665E+04    0.73384E-05   -0.23275E-05  2919   0.442E-03
  20 F= -.23488160E+04 E0= -.23488160E+04  d E =-.428091E-01  mag=     2.9997
       N       E                     dE             d eps       ncg     rms          rms(c)
DAV:   1    -0.232737047538E+04    0.60399E-01   -0.60523E+00  4504   0.190E+00    0.791E-01
RMM:   2    -0.232746083994E+04   -0.90365E-01   -0.82201E-01  6287   0.463E-01    0.127E+00
RMM:   3    -0.232744892973E+04    0.11910E-01   -0.81203E-02  6134   0.170E-01    0.484E-01
RMM:   4    -0.232744735297E+04    0.15768E-02   -0.10378E-02  5539   0.420E-02    0.287E-01
RMM:   5    -0.232744699612E+04    0.35685E-03   -0.24861E-03  5462   0.254E-02    0.251E-01
RMM:   6    -0.232744657227E+04    0.42385E-03   -0.19267E-03  5274   0.236E-02    0.188E-01
RMM:   7    -0.232744621361E+04    0.35866E-03   -0.71715E-04  4592   0.176E-02    0.855E-02
RMM:   8    -0.232744612269E+04    0.90922E-04   -0.11376E-04  3158   0.625E-03    0.231E-02
RMM:   9    -0.232744611355E+04    0.91333E-05   -0.27257E-05  2925   0.482E-03
  21 F= -.23488312E+04 E0= -.23488312E+04  d E =-.579465E-01  mag=     2.9999
       N       E                     dE             d eps       ncg     rms          rms(c)
DAV:   1    -0.232743384821E+04    0.12274E-01   -0.42646E+00  4504   0.150E+00    0.584E-01
RMM:   2    -0.232747963102E+04   -0.45783E-01   -0.45333E-01  6336   0.336E-01    0.715E-01
RMM:   3    -0.232747882669E+04    0.80434E-03   -0.50081E-02  6118   0.132E-01    0.418E-01
RMM:   4    -0.232747715047E+04    0.16762E-02   -0.56953E-03  5250   0.319E-02    0.211E-01
RMM:   5    -0.232747755873E+04   -0.40826E-03   -0.18464E-03  5313   0.225E-02    0.283E-01
RMM:   6    -0.232747661699E+04    0.94174E-03   -0.13153E-03  5206   0.187E-02    0.666E-02
RMM:   7    -0.232747659682E+04    0.20172E-04   -0.14945E-04  3168   0.957E-03    0.267E-02
RMM:   8    -0.232747659359E+04    0.32267E-05   -0.26431E-05  2959   0.422E-03
  22 F= -.23488619E+04 E0= -.23488619E+04  d E =-.307207E-01  mag=     2.9999
       N       E                     dE             d eps       ncg     rms          rms(c)
DAV:   1    -0.232747088288E+04    0.57139E-02   -0.91618E-01  4608   0.695E-01    0.272E-01
RMM:   2    -0.232748078506E+04   -0.99022E-02   -0.97422E-02  6312   0.156E-01    0.336E-01
RMM:   3    -0.232748057320E+04    0.21186E-03   -0.10755E-02  5671   0.619E-02    0.198E-01
RMM:   4    -0.232748020348E+04    0.36971E-03   -0.12481E-03  4272   0.152E-02    0.102E-01
RMM:   5    -0.232748027517E+04   -0.71685E-04   -0.39941E-04  3519   0.109E-02    0.130E-01
RMM:   6    -0.232748007905E+04    0.19612E-03   -0.29309E-04  3941   0.103E-02    0.322E-02
RMM:   7    -0.232748007793E+04    0.11221E-05   -0.45814E-05  2998   0.616E-03
  23 F= -.23488655E+04 E0= -.23488655E+04  d E =-.343210E-01  mag=     2.9999
       N       E                     dE             d eps       ncg     rms          rms(c)
DAV:   1    -0.232745966405E+04    0.20415E-01   -0.27585E+00  4516   0.128E+00    0.481E-01
RMM:   2    -0.232749865421E+04   -0.38990E-01   -0.41158E-01  6475   0.315E-01    0.406E-01
RMM:   3    -0.232750173854E+04   -0.30843E-02   -0.48874E-02  6160   0.129E-01    0.320E-01
RMM:   4    -0.232750079942E+04    0.93912E-03   -0.45232E-03  5627   0.286E-02    0.210E-01
RMM:   5    -0.232750060626E+04    0.19316E-03   -0.10394E-03  4814   0.145E-02    0.196E-01
RMM:   6    -0.232750033294E+04    0.27332E-03   -0.98759E-04  4721   0.152E-02    0.114E-01
RMM:   7    -0.232750028660E+04    0.46336E-04   -0.38036E-04  3258   0.115E-02    0.816E-02
RMM:   8    -0.232750019242E+04    0.94179E-04   -0.88085E-05  2981   0.657E-03    0.206E-02
RMM:   9    -0.232750018907E+04    0.33528E-05   -0.17831E-05  2948   0.411E-03
  24 F= -.23488862E+04 E0= -.23488862E+04  d E =-.206786E-01  mag=     2.9999
       N       E                     dE             d eps       ncg     rms          rms(c)
DAV:   1    -0.232748130810E+04    0.18884E-01   -0.15754E+00  4528   0.966E-01    0.362E-01
RMM:   2    -0.232750354360E+04   -0.22236E-01   -0.23494E-01  6463   0.237E-01    0.299E-01
RMM:   3    -0.232750529260E+04   -0.17490E-02   -0.27699E-02  6042   0.971E-02    0.234E-01
RMM:   4    -0.232750478072E+04    0.51188E-03   -0.25661E-03  4995   0.215E-02    0.153E-01
RMM:   5    -0.232750467242E+04    0.10830E-03   -0.59697E-04  3982   0.115E-02    0.146E-01
RMM:   6    -0.232750451385E+04    0.15857E-03   -0.55857E-04  4278   0.122E-02    0.849E-02
RMM:   7    -0.232750449617E+04    0.17676E-04   -0.21040E-04  3018   0.883E-03    0.645E-02
RMM:   8    -0.232750443920E+04    0.56973E-04   -0.51666E-05  2935   0.568E-03    0.154E-02
RMM:   9    -0.232750443724E+04    0.19570E-05   -0.11558E-05  2926   0.328E-03
  25 F= -.23488909E+04 E0= -.23488909E+04  d E =-.253730E-01  mag=     2.9999
       N       E                     dE             d eps       ncg     rms          rms(c)
DAV:   1    -0.232749243975E+04    0.11999E-01   -0.19372E+00  4516   0.107E+00    0.381E-01
RMM:   2    -0.232751874076E+04   -0.26301E-01   -0.27528E-01  6529   0.256E-01    0.318E-01
RMM:   3    -0.232752069108E+04   -0.19503E-02   -0.31875E-02  6118   0.105E-01    0.262E-01
RMM:   4    -0.232752017289E+04    0.51819E-03   -0.30228E-03  4995   0.229E-02    0.190E-01
RMM:   5    -0.232751999902E+04    0.17387E-03   -0.75415E-04  3986   0.123E-02    0.156E-01
RMM:   6    -0.232751979416E+04    0.20486E-03   -0.69808E-04  4398   0.136E-02    0.801E-02
RMM:   7    -0.232751977858E+04    0.15574E-04   -0.22665E-04  3019   0.923E-03    0.637E-02
RMM:   8    -0.232751972082E+04    0.57764E-04   -0.49939E-05  2940   0.521E-03    0.146E-02
RMM:   9    -0.232751971837E+04    0.24506E-05   -0.97616E-06  2945   0.297E-03
  26 F= -.23489064E+04 E0= -.23489064E+04  d E =-.155002E-01  mag=     2.9999
       N       E                     dE             d eps       ncg     rms          rms(c)
DAV:   1    -0.232750630211E+04    0.13419E-01   -0.12138E+00  4528   0.851E-01    0.302E-01
RMM:   2    -0.232752277372E+04   -0.16472E-01   -0.17229E-01  6504   0.202E-01    0.253E-01
RMM:   3    -0.232752399174E+04   -0.12180E-02   -0.19934E-02  5965   0.833E-02    0.210E-01
RMM:   4    -0.232752365264E+04    0.33909E-03   -0.18932E-03  4155   0.183E-02    0.149E-01
RMM:   5    -0.232752354607E+04    0.10657E-03   -0.47384E-04  3386   0.105E-02    0.124E-01
RMM:   6    -0.232752341800E+04    0.12807E-03   -0.43933E-04  4099   0.113E-02    0.639E-02
RMM:   7    -0.232752340590E+04    0.12096E-04   -0.14388E-04  2985   0.782E-03    0.497E-02
RMM:   8    -0.232752337040E+04    0.35501E-04   -0.30617E-05  2928   0.429E-03    0.113E-02
RMM:   9    -0.232752336876E+04    0.16365E-05   -0.63948E-06  2911   0.264E-03
  27 F= -.23489102E+04 E0= -.23489102E+04  d E =-.193395E-01  mag=     2.9999
       N       E                     dE             d eps       ncg     rms          rms(c)
DAV:   1    -0.232752640007E+04   -0.30297E-02   -0.76763E-01  4528   0.733E-01    0.253E-01
RMM:   2    -0.232753362446E+04   -0.72244E-02   -0.77882E-02  6263   0.158E-01    0.175E-01
RMM:   3    -0.232753426026E+04   -0.63579E-03   -0.83878E-03  5913   0.632E-02    0.175E-01
RMM:   4    -0.232753395746E+04    0.30279E-03   -0.98044E-04  4616   0.160E-02    0.117E-01
RMM:   5    -0.232753391693E+04    0.40534E-04   -0.33849E-04  3435   0.103E-02    0.971E-02
RMM:   6    -0.232753382002E+04    0.96907E-04   -0.23777E-04  4007   0.103E-02    0.319E-02
RMM:   7    -0.232753382801E+04   -0.79832E-05   -0.61337E-05  2952   0.679E-03
  28 F= -.23489207E+04 E0= -.23489206E+04  d E =-.104586E-01  mag=     2.9999
       N       E                     dE             d eps       ncg     rms          rms(c)
DAV:   1    -0.232750768790E+04    0.26132E-01   -0.35674E+00  4516   0.158E+00    0.545E-01
RMM:   2    -0.232754141151E+04   -0.33724E-01   -0.36367E-01  6229   0.341E-01    0.373E-01
RMM:   3    -0.232754448968E+04   -0.30782E-02   -0.39978E-02  6106   0.139E-01    0.376E-01
RMM:   4    -0.232754309771E+04    0.13920E-02   -0.45520E-03  6013   0.342E-02    0.250E-01
RMM:   5    -0.232754292485E+04    0.17286E-03   -0.15976E-03  5308   0.198E-02    0.210E-01
RMM:   6    -0.232754247301E+04    0.45184E-03   -0.10778E-03  5094   0.190E-02    0.724E-02
RMM:   7    -0.232754250100E+04   -0.27989E-04   -0.27717E-04  3344   0.112E-02    0.815E-02
RMM:   8    -0.232754240174E+04    0.99256E-04   -0.87896E-05  2948   0.600E-03    0.188E-02
RMM:   9    -0.232754238895E+04    0.12795E-04   -0.21135E-05  2966   0.384E-03    0.853E-03
RMM:  10    -0.232754238403E+04    0.49224E-05   -0.98273E-06  2908   0.336E-03
  29 F= -.23489292E+04 E0= -.23489292E+04  d E =-.190341E-01  mag=     2.9999
       N       E                     dE             d eps       ncg     rms          rms(c)
DAV:   1    -0.232754514445E+04   -0.27555E-02   -0.42621E-01  4640   0.530E-01    0.184E-01
RMM:   2    -0.232754992025E+04   -0.47758E-02   -0.49707E-02  6503   0.121E-01    0.169E-01
RMM:   3    -0.232755020933E+04   -0.28908E-03   -0.52251E-03  5515   0.458E-02    0.147E-01
RMM:   4    -0.232755000069E+04    0.20864E-03   -0.58466E-04  3305   0.116E-02    0.795E-02
RMM:   5    -0.232754998770E+04    0.12990E-04   -0.17945E-04  3068   0.791E-03    0.704E-02
RMM:   6    -0.232754994435E+04    0.43346E-04   -0.13683E-04  3261   0.787E-03    0.328E-02
RMM:   7    -0.232754994413E+04    0.22369E-06   -0.51722E-05  2938   0.603E-03
  30 F= -.23489369E+04 E0= -.23489368E+04  d E =-.761991E-02  mag=     2.9999
       N       E                     dE             d eps       ncg     rms          rms(c)
DAV:   1    -0.232751955537E+04    0.30389E-01   -0.38302E+00  4516   0.159E+00    0.554E-01
RMM:   2    -0.232756242077E+04   -0.42865E-01   -0.44723E-01  6439   0.363E-01    0.506E-01
RMM:   3    -0.232756529157E+04   -0.28708E-02   -0.48273E-02  6291   0.138E-01    0.445E-01
RMM:   4    -0.232756335628E+04    0.19353E-02   -0.52578E-03  5821   0.338E-02    0.233E-01
RMM:   5    -0.232756326943E+04    0.86854E-04   -0.16447E-03  5213   0.198E-02    0.211E-01
RMM:   6    -0.232756285154E+04    0.41788E-03   -0.11871E-03  5008   0.194E-02    0.945E-02
RMM:   7    -0.232756286165E+04   -0.10111E-04   -0.42155E-04  3501   0.127E-02    0.884E-02
RMM:   8    -0.232756274282E+04    0.11883E-03   -0.90912E-05  2957   0.632E-03    0.200E-02
RMM:   9    -0.232756273234E+04    0.10481E-04   -0.21747E-05  2957   0.374E-03    0.980E-03
RMM:  10    -0.232756273025E+04    0.20936E-05   -0.10007E-05  2915   0.310E-03
  31 F= -.23489498E+04 E0= -.23489498E+04  d E =-.206093E-01  mag=     3.0000
       N       E                     dE             d eps       ncg     rms          rms(c)
DAV:   1    -0.232755785654E+04    0.48758E-02   -0.52264E-01  4608   0.587E-01    0.204E-01
RMM:   2    -0.232756371986E+04   -0.58633E-02   -0.61044E-02  6439   0.134E-01    0.188E-01
RMM:   3    -0.232756405977E+04   -0.33991E-03   -0.64480E-03  5709   0.510E-02    0.163E-01
RMM:   4    -0.232756380508E+04    0.25469E-03   -0.71843E-04  3526   0.128E-02    0.876E-02
RMM:   5    -0.232756378692E+04    0.18163E-04   -0.22300E-04  3128   0.863E-03    0.779E-02
RMM:   6    -0.232756373181E+04    0.55103E-04   -0.17420E-04  3595   0.874E-03    0.365E-02
RMM:   7    -0.232756373117E+04    0.64318E-06   -0.63750E-05  2949   0.641E-03
  32 F= -.23489509E+04 E0= -.23489509E+04  d E =-.216944E-01  mag=     3.0000
       N       E                     dE             d eps       ncg     rms          rms(c)
DAV:   1    -0.232756284025E+04    0.89156E-03   -0.10236E+00  4528   0.802E-01    0.287E-01
RMM:   2    -0.232757712010E+04   -0.14280E-01   -0.13762E-01  6592   0.191E-01    0.395E-01
RMM:   3    -0.232757667683E+04    0.44327E-03   -0.14185E-02  6099   0.714E-02    0.197E-01
RMM:   4    -0.232757635812E+04    0.31871E-03   -0.15206E-03  4303   0.164E-02    0.114E-01
RMM:   5    -0.232757633778E+04    0.20342E-04   -0.41924E-04  3328   0.104E-02    0.106E-01
RMM:   6    -0.232757624420E+04    0.93581E-04   -0.31945E-04  4070   0.107E-02    0.638E-02
RMM:   7    -0.232757621250E+04    0.31701E-04   -0.10888E-04  2962   0.725E-03    0.364E-02
RMM:   8    -0.232757619337E+04    0.19127E-04   -0.15605E-05  2903   0.347E-03    0.898E-03
RMM:   9    -0.232757619143E+04    0.19429E-05   -0.56150E-06  2898   0.216E-03
  33 F= -.23489634E+04 E0= -.23489634E+04  d E =-.124851E-01  mag=     3.0000
       N       E                     dE             d eps       ncg     rms          rms(c)
DAV:   1    -0.232746749039E+04    0.10870E+00   -0.92015E+00  4504   0.241E+00    0.857E-01
RMM:   2    -0.232759599426E+04   -0.12850E+00   -0.12385E+00  6615   0.572E-01    0.121E+00
RMM:   3    -0.232759271664E+04    0.32776E-02   -0.13239E-01  6456   0.209E-01    0.582E-01
RMM:   4    -0.232758953434E+04    0.31823E-02   -0.12814E-02  5441   0.469E-02    0.295E-01
RMM:   5    -0.232759027254E+04   -0.73820E-03   -0.40917E-03  5744   0.321E-02    0.389E-01
RMM:   6    -0.232758862270E+04    0.16498E-02   -0.27067E-03  5454   0.259E-02    0.134E-01
RMM:   7    -0.232758859117E+04    0.31533E-04   -0.65520E-04  3858   0.143E-02    0.109E-01
RMM:   8    -0.232758841791E+04    0.17326E-03   -0.16797E-04  3002   0.740E-03    0.279E-02
RMM:   9    -0.232758839874E+04    0.19168E-04   -0.43193E-05  3000   0.462E-03    0.170E-02
RMM:  10    -0.232758839514E+04    0.36034E-05   -0.15849E-05  2930   0.386E-03
  34 F= -.23489758E+04 E0= -.23489758E+04  d E =-.248440E-01  mag=     3.0000
       N       E                     dE             d eps       ncg     rms          rms(c)
DAV:   1    -0.232758527164E+04    0.31271E-02   -0.98030E-01  4592   0.804E-01    0.304E-01
RMM:   2    -0.232759939392E+04   -0.14122E-01   -0.12604E-01  6554   0.189E-01    0.508E-01
RMM:   3    -0.232759756384E+04    0.18301E-02   -0.12742E-02  6229   0.676E-02    0.178E-01
RMM:   4    -0.232759733032E+04    0.23352E-03   -0.14083E-03  4374   0.161E-02    0.107E-01
RMM:   5    -0.232759733532E+04   -0.49951E-05   -0.38548E-04  3446   0.102E-02    0.112E-01
RMM:   6    -0.232759725109E+04    0.84227E-04   -0.29138E-04  4165   0.105E-02    0.691E-02
RMM:   7    -0.232759720705E+04    0.44037E-04   -0.11050E-04  2950   0.774E-03    0.361E-02
RMM:   8    -0.232759718894E+04    0.18110E-04   -0.19955E-05  2913   0.358E-03    0.934E-03
RMM:   9    -0.232759718721E+04    0.17375E-05   -0.50184E-06  2881   0.218E-03
  35 F= -.23489848E+04 E0= -.23489847E+04  d E =-.899026E-02  mag=     3.0000
       N       E                     dE             d eps       ncg     rms          rms(c)
DAV:   1    -0.232750539081E+04    0.91798E-01   -0.83985E+00  4504   0.236E+00    0.887E-01
RMM:   2    -0.232762572941E+04   -0.12034E+00   -0.10811E+00  6552   0.557E-01    0.147E+00
RMM:   3    -0.232761140985E+04    0.14320E-01   -0.11316E-01  6452   0.199E-01    0.511E-01
RMM:   4    -0.232760927028E+04    0.21396E-02   -0.11533E-02  5259   0.451E-02    0.289E-01
RMM:   5    -0.232760996074E+04   -0.69046E-03   -0.33424E-03  5585   0.293E-02    0.376E-01
RMM:   6    -0.232760848158E+04    0.14792E-02   -0.23439E-03  5493   0.269E-02    0.143E-01
RMM:   7    -0.232760834653E+04    0.13505E-03   -0.57372E-04  4137   0.165E-02    0.877E-02
RMM:   8    -0.232760823562E+04    0.11091E-03   -0.14358E-04  3013   0.651E-03    0.293E-02
RMM:   9    -0.232760821722E+04    0.18401E-04   -0.34186E-05  2953   0.445E-03    0.125E-02
RMM:  10    -0.232760821404E+04    0.31825E-05   -0.13966E-05  2929   0.344E-03
  36 F= -.23489964E+04 E0= -.23489964E+04  d E =-.206742E-01  mag=     3.0000
       N       E                     dE             d eps       ncg     rms          rms(c)
DAV:   1    -0.232761233104E+04   -0.41138E-02   -0.47495E-01  4696   0.531E-01    0.212E-01
RMM:   2    -0.232761888725E+04   -0.65562E-02   -0.61276E-02  6376   0.126E-01    0.324E-01
RMM:   3    -0.232761837427E+04    0.51298E-03   -0.67749E-03  5751   0.498E-02    0.143E-01
RMM:   4    -0.232761820033E+04    0.17394E-03   -0.70618E-04  3493   0.121E-02    0.719E-02
RMM:   5    -0.232761825776E+04   -0.57426E-04   -0.26443E-04  3321   0.921E-03    0.101E-01
RMM:   6    -0.232761814837E+04    0.10939E-03   -0.17677E-04  3104   0.892E-03    0.380E-02
RMM:   7    -0.232761814019E+04    0.81760E-05   -0.51948E-05  2949   0.605E-03
  37 F= -.23490068E+04 E0= -.23490068E+04  d E =-.103766E-01  mag=     3.0000
       N       E                     dE             d eps       ncg     rms          rms(c)
DAV:   1    -0.232760955468E+04    0.85937E-02   -0.11206E+00  4516   0.816E-01    0.327E-01
RMM:   2    -0.232762516780E+04   -0.15613E-01   -0.14587E-01  6341   0.194E-01    0.499E-01
RMM:   3    -0.232762393528E+04    0.12325E-02   -0.16040E-02  6113   0.774E-02    0.223E-01
RMM:   4    -0.232762353282E+04    0.40245E-03   -0.16941E-03  4554   0.184E-02    0.114E-01
RMM:   5    -0.232762364217E+04   -0.10935E-03   -0.62231E-04  4180   0.136E-02    0.151E-01
RMM:   6    -0.232762340451E+04    0.23766E-03   -0.41927E-04  4177   0.119E-02    0.615E-02
RMM:   7    -0.232762337980E+04    0.24709E-04   -0.12488E-04  2982   0.811E-03    0.409E-02
RMM:   8    -0.232762335318E+04    0.26626E-04   -0.25590E-05  2911   0.390E-03    0.105E-02
RMM:   9    -0.232762335032E+04    0.28581E-05   -0.69512E-06  2925   0.237E-03
  38 F= -.23490127E+04 E0= -.23490127E+04  d E =-.162917E-01  mag=     3.0000
       N       E                     dE             d eps       ncg     rms          rms(c)
DAV:   1    -0.232762247997E+04    0.87321E-03   -0.38260E-01  4576   0.517E-01    0.203E-01
RMM:   2    -0.232762831584E+04   -0.58359E-02   -0.62177E-02  6206   0.119E-01    0.189E-01
RMM:   3    -0.232762894030E+04   -0.62446E-03   -0.80168E-03  5568   0.537E-02    0.195E-01
RMM:   4    -0.232762857621E+04    0.36410E-03   -0.70578E-04  3186   0.125E-02    0.604E-02
RMM:   5    -0.232762853632E+04    0.39884E-04   -0.17850E-04  3367   0.820E-03    0.354E-02
RMM:   6    -0.232762855416E+04   -0.17834E-04   -0.82660E-05  2976   0.697E-03    0.478E-02
RMM:   7    -0.232762852485E+04    0.29306E-04   -0.25732E-05  2926   0.483E-03    0.927E-03
RMM:   8    -0.232762852419E+04    0.66450E-06   -0.65456E-06  2894   0.296E-03
  39 F= -.23490183E+04 E0= -.23490183E+04  d E =-.561245E-02  mag=     3.0000
       N       E                     dE             d eps       ncg     rms          rms(c)
DAV:   1    -0.232762424232E+04    0.42825E-02   -0.35448E-01  4544   0.498E-01    0.197E-01
RMM:   2    -0.232762968231E+04   -0.54400E-02   -0.57701E-02  6137   0.115E-01    0.191E-01
RMM:   3    -0.232763022095E+04   -0.53864E-03   -0.74381E-03  5432   0.497E-02    0.189E-01
RMM:   4    -0.232762987535E+04    0.34560E-03   -0.65465E-04  3156   0.120E-02    0.573E-02
RMM:   5    -0.232762984012E+04    0.35231E-04   -0.16702E-04  3308   0.779E-03    0.353E-02
RMM:   6    -0.232762985349E+04   -0.13369E-04   -0.77728E-05  2978   0.673E-03    0.449E-02
RMM:   7    -0.232762982747E+04    0.26016E-04   -0.23328E-05  2923   0.457E-03    0.948E-03
RMM:   8    -0.232762982680E+04    0.67093E-06   -0.66551E-06  2884   0.297E-03
  40 F= -.23490201E+04 E0= -.23490201E+04  d E =-.734062E-02  mag=     3.0000
       N       E                     dE             d eps       ncg     rms          rms(c)
DAV:   1    -0.232762616578E+04    0.36617E-02   -0.49338E-01  4528   0.620E-01    0.212E-01
RMM:   2    -0.232763404456E+04   -0.78788E-02   -0.83348E-02  6232   0.134E-01    0.138E-01
RMM:   3    -0.232763500362E+04   -0.95905E-03   -0.10132E-02  5429   0.595E-02    0.176E-01
RMM:   4    -0.232763476239E+04    0.24122E-03   -0.94461E-04  3189   0.128E-02    0.695E-02
RMM:   5    -0.232763471495E+04    0.47441E-04   -0.14369E-04  3136   0.794E-03    0.402E-02
RMM:   6    -0.232763473225E+04   -0.17300E-04   -0.10369E-04  2970   0.729E-03    0.503E-02
RMM:   7    -0.232763469862E+04    0.33629E-04   -0.31985E-05  2921   0.537E-03    0.109E-02
RMM:   8    -0.232763469809E+04    0.53142E-06   -0.88007E-06  2907   0.327E-03
  41 F= -.23490253E+04 E0= -.23490253E+04  d E =-.525632E-02  mag=     3.0000
       N       E                     dE             d eps       ncg     rms          rms(c)
DAV:   1    -0.232762543318E+04    0.92654E-02   -0.62482E-01  4528   0.696E-01    0.239E-01
RMM:   2    -0.232763544137E+04   -0.10008E-01   -0.10600E-01  6192   0.151E-01    0.151E-01
RMM:   3    -0.232763662581E+04   -0.11844E-02   -0.12761E-02  5590   0.656E-02    0.189E-01
RMM:   4    -0.232763636011E+04    0.26570E-03   -0.11938E-03  3286   0.140E-02    0.802E-02
RMM:   5    -0.232763630062E+04    0.59487E-04   -0.18251E-04  3257   0.876E-03    0.475E-02
RMM:   6    -0.232763631834E+04   -0.17719E-04   -0.13411E-04  3015   0.789E-03    0.566E-02
RMM:   7    -0.232763627615E+04    0.42185E-04   -0.41964E-05  2931   0.592E-03    0.129E-02
RMM:   8    -0.232763627535E+04    0.80446E-06   -0.12034E-05  2924   0.369E-03
  42 F= -.23490273E+04 E0= -.23490273E+04  d E =-.726650E-02  mag=     3.0000
       N       E                     dE             d eps       ncg     rms          rms(c)
DAV:   1    -0.232763020482E+04    0.60713E-02   -0.60313E-01  4528   0.724E-01    0.238E-01
RMM:   2    -0.232764046356E+04   -0.10259E-01   -0.10804E-01  6232   0.159E-01    0.121E-01
RMM:   3    -0.232764145664E+04   -0.99308E-03   -0.12071E-02  5544   0.677E-02    0.106E-01
RMM:   4    -0.232764146712E+04   -0.10471E-04   -0.11639E-03  3310   0.139E-02    0.854E-02
RMM:   5    -0.232764138711E+04    0.80004E-04   -0.15992E-04  3152   0.856E-03    0.528E-02
RMM:   6    -0.232764139317E+04   -0.60561E-05   -0.11421E-04  2943   0.737E-03    0.564E-02
RMM:   7    -0.232764136788E+04    0.25283E-04   -0.39226E-05  2941   0.582E-03    0.185E-02
RMM:   8    -0.232764136546E+04    0.24250E-05   -0.13721E-05  2911   0.421E-03
  43 F= -.23490326E+04 E0= -.23490326E+04  d E =-.530029E-02  mag=     3.0000
       N       E                     dE             d eps       ncg     rms          rms(c)
DAV:   1    -0.232761435379E+04    0.27014E-01   -0.16176E+00  4504   0.119E+00    0.390E-01
RMM:   2    -0.232764196219E+04   -0.27608E-01   -0.29052E-01  6287   0.261E-01    0.203E-01
RMM:   3    -0.232764467991E+04   -0.27177E-02   -0.32820E-02  5807   0.110E-01    0.186E-01
RMM:   4    -0.232764464847E+04    0.31444E-04   -0.31218E-03  4505   0.225E-02    0.140E-01
RMM:   5    -0.232764444667E+04    0.20180E-03   -0.44187E-04  4114   0.125E-02    0.917E-02
RMM:   6    -0.232764445747E+04   -0.10798E-04   -0.30634E-04  3387   0.104E-02    0.954E-02
RMM:   7    -0.232764437820E+04    0.79267E-04   -0.10463E-04  3298   0.792E-03    0.280E-02
RMM:   8    -0.232764437361E+04    0.45905E-05   -0.34881E-05  2939   0.578E-03
  44 F= -.23490360E+04 E0= -.23490359E+04  d E =-.864575E-02  mag=     3.0000
       N       E                     dE             d eps       ncg     rms          rms(c)
DAV:   1    -0.232763424805E+04    0.10130E-01   -0.67123E-01  4528   0.770E-01    0.271E-01
RMM:   2    -0.232764690932E+04   -0.12661E-01   -0.13540E-01  6401   0.175E-01    0.138E-01
RMM:   3    -0.232764818016E+04   -0.12708E-02   -0.15238E-02  5790   0.743E-02    0.135E-01
RMM:   4    -0.232764812851E+04    0.51652E-04   -0.14631E-03  3474   0.157E-02    0.897E-02
RMM:   5    -0.232764803200E+04    0.96504E-04   -0.21661E-04  3608   0.959E-03    0.601E-02
RMM:   6    -0.232764803690E+04   -0.48977E-05   -0.14794E-04  2983   0.812E-03    0.648E-02
RMM:   7    -0.232764800446E+04    0.32443E-04   -0.52625E-05  2957   0.644E-03    0.250E-02
RMM:   8    -0.232764799894E+04    0.55197E-05   -0.17402E-05  2914   0.467E-03
  45 F= -.23490399E+04 E0= -.23490399E+04  d E =-.391479E-02  mag=     3.0000
       N       E                     dE             d eps       ncg     rms          rms(c)
DAV:   1    -0.232764417916E+04    0.38253E-02   -0.20474E-01  4632   0.425E-01    0.150E-01
RMM:   2    -0.232764803944E+04   -0.38603E-02   -0.41354E-02  6327   0.969E-02    0.744E-02
RMM:   3    -0.232764842120E+04   -0.38176E-03   -0.46794E-03  4442   0.410E-02    0.693E-02
RMM:   4    -0.232764842136E+04   -0.15539E-06   -0.44933E-04  3018   0.927E-03    0.516E-02
RMM:   5    -0.232764838993E+04    0.31425E-04   -0.67979E-05  2994   0.555E-03    0.365E-02
RMM:   6    -0.232764838785E+04    0.20763E-05   -0.47553E-05  2913   0.511E-03
  46 F= -.23490405E+04 E0= -.23490404E+04  d E =-.446354E-02  mag=     2.9999
       N       E                     dE             d eps       ncg     rms          rms(c)
DAV:   1    -0.232763542159E+04    0.12968E-01   -0.68639E-01  4516   0.724E-01    0.258E-01
RMM:   2    -0.232765021921E+04   -0.14798E-01   -0.15831E-01  6573   0.176E-01    0.143E-01
RMM:   3    -0.232765177776E+04   -0.15586E-02   -0.18486E-02  5609   0.740E-02    0.146E-01
RMM:   4    -0.232765172934E+04    0.48417E-04   -0.16235E-03  3175   0.146E-02    0.908E-02
RMM:   5    -0.232765164761E+04    0.81726E-04   -0.16629E-04  3001   0.789E-03    0.560E-02
RMM:   6    -0.232765165235E+04   -0.47323E-05   -0.13862E-04  3123   0.713E-03    0.582E-02
RMM:   7    -0.232765161476E+04    0.37591E-04   -0.66132E-05  2946   0.616E-03    0.250E-02
RMM:   8    -0.232765160969E+04    0.50681E-05   -0.17805E-05  2921   0.384E-03
  47 F= -.23490441E+04 E0= -.23490441E+04  d E =-.369454E-02  mag=     3.0000
       N       E                     dE             d eps       ncg     rms          rms(c)
DAV:   1    -0.232760245994E+04    0.49155E-01   -0.20883E+00  4504   0.126E+00    0.449E-01
RMM:   2    -0.232764778065E+04   -0.45321E-01   -0.48270E-01  6616   0.308E-01    0.277E-01
RMM:   3    -0.232765281785E+04   -0.50372E-02   -0.56660E-02  6192   0.127E-01    0.333E-01
RMM:   4    -0.232765211839E+04    0.69947E-03   -0.50153E-03  4620   0.264E-02    0.148E-01
RMM:   5    -0.232765189005E+04    0.22834E-03   -0.48203E-04  3903   0.118E-02    0.962E-02
RMM:   6    -0.232765195212E+04   -0.62075E-04   -0.43105E-04  3534   0.108E-02    0.122E-01
RMM:   7    -0.232765177689E+04    0.17523E-03   -0.19514E-04  3305   0.876E-03    0.290E-02
RMM:   8    -0.232765177356E+04    0.33303E-05   -0.42175E-05  2972   0.582E-03
  48 F= -.23490451E+04 E0= -.23490451E+04  d E =-.468880E-02  mag=     3.0000
       N       E                     dE             d eps       ncg     rms          rms(c)
DAV:   1    -0.232764681809E+04    0.49588E-02   -0.24162E-01  4560   0.429E-01    0.151E-01
RMM:   2    -0.232765203555E+04   -0.52175E-02   -0.55276E-02  6555   0.105E-01    0.955E-02
RMM:   3    -0.232765262508E+04   -0.58953E-03   -0.65404E-03  4478   0.448E-02    0.120E-01
RMM:   4    -0.232765252257E+04    0.10251E-03   -0.57700E-04  3038   0.101E-02    0.487E-02
RMM:   5    -0.232765249138E+04    0.31186E-04   -0.59639E-05  2978   0.490E-03    0.296E-02
RMM:   6    -0.232765249896E+04   -0.75776E-05   -0.44265E-05  2974   0.429E-03
  49 F= -.23490456E+04 E0= -.23490455E+04  d E =-.513108E-02  mag=     3.0000
       N       E                     dE             d eps       ncg     rms          rms(c)
DAV:   1    -0.232763949921E+04    0.12992E-01   -0.69217E-01  4516   0.737E-01    0.268E-01
RMM:   2    -0.232765427153E+04   -0.14772E-01   -0.15541E-01  6524   0.179E-01    0.176E-01
RMM:   3    -0.232765599039E+04   -0.17189E-02   -0.17974E-02  5930   0.779E-02    0.237E-01
RMM:   4    -0.232765552605E+04    0.46434E-03   -0.16295E-03  3419   0.167E-02    0.788E-02
RMM:   5    -0.232765544072E+04    0.85335E-04   -0.17890E-04  3291   0.851E-03    0.430E-02
RMM:   6    -0.232765544547E+04   -0.47510E-05   -0.14008E-04  3370   0.820E-03    0.451E-02
RMM:   7    -0.232765541942E+04    0.26041E-04   -0.44330E-05  2914   0.608E-03    0.143E-02
RMM:   8    -0.232765541868E+04    0.74779E-06   -0.10833E-05  2931   0.331E-03
  50 F= -.23490490E+04 E0= -.23490489E+04  d E =-.339863E-02  mag=     3.0000
       N       E                     dE             d eps       ncg     rms          rms(c)
DAV:   1    -0.232762344090E+04    0.31979E-01   -0.14314E+00  4504   0.106E+00    0.387E-01
RMM:   2    -0.232765399436E+04   -0.30553E-01   -0.32270E-01  6489   0.257E-01    0.241E-01
RMM:   3    -0.232765751717E+04   -0.35228E-02   -0.37085E-02  6093   0.110E-01    0.325E-01
RMM:   4    -0.232765667377E+04    0.84339E-03   -0.34091E-03  4462   0.233E-02    0.118E-01
RMM:   5    -0.232765650891E+04    0.16486E-03   -0.35755E-04  4042   0.110E-02    0.689E-02
RMM:   6    -0.232765652463E+04   -0.15715E-04   -0.30727E-04  3833   0.105E-02    0.747E-02
RMM:   7    -0.232765645204E+04    0.72582E-04   -0.10370E-04  3011   0.741E-03    0.245E-02
RMM:   8    -0.232765644918E+04    0.28602E-05   -0.26572E-05  2944   0.492E-03
  51 F= -.23490507E+04 E0= -.23490507E+04  d E =-.512308E-02  mag=     3.0000
       N       E                     dE             d eps       ncg     rms          rms(c)
DAV:   1    -0.232763543160E+04    0.21020E-01   -0.10164E+00  4504   0.845E-01    0.317E-01
RMM:   2    -0.232765841190E+04   -0.22980E-01   -0.23980E-01  6621   0.214E-01    0.219E-01
RMM:   3    -0.232766092648E+04   -0.25146E-02   -0.26670E-02  5894   0.874E-02    0.274E-01
RMM:   4    -0.232766027469E+04    0.65179E-03   -0.24822E-03  3525   0.191E-02    0.101E-01
RMM:   5    -0.232766022169E+04    0.53004E-04   -0.25139E-04  3119   0.859E-03    0.834E-02
RMM:   6    -0.232766016820E+04    0.53487E-04   -0.20864E-04  3008   0.788E-03    0.589E-02
RMM:   7    -0.232766014585E+04    0.22350E-04   -0.10289E-04  3081   0.706E-03    0.377E-02
RMM:   8    -0.232766012910E+04    0.16757E-04   -0.31329E-05  2920   0.511E-03    0.119E-02
RMM:   9    -0.232766012722E+04    0.18794E-05   -0.53457E-06  2883   0.238E-03
  52 F= -.23490551E+04 E0= -.23490550E+04  d E =-.434615E-02  mag=     3.0000
       N       E                     dE             d eps       ncg     rms          rms(c)
DAV:   1    -0.232751948709E+04    0.14064E+00   -0.58715E+00  4504   0.203E+00    0.760E-01
RMM:   2    -0.232765226795E+04   -0.13278E+00   -0.13887E+00  6634   0.516E-01    0.506E-01
RMM:   3    -0.232766735402E+04   -0.15086E-01   -0.15867E-01  6310   0.215E-01    0.662E-01
RMM:   4    -0.232766366520E+04    0.36888E-02   -0.14326E-02  5871   0.453E-02    0.252E-01
RMM:   5    -0.232766324142E+04    0.42378E-03   -0.15254E-03  4714   0.174E-02    0.184E-01
RMM:   6    -0.232766309230E+04    0.14912E-03   -0.12937E-03  4848   0.162E-02    0.160E-01
RMM:   7    -0.232766283818E+04    0.25411E-03   -0.66242E-04  4702   0.134E-02    0.821E-02
RMM:   8    -0.232766277163E+04    0.66554E-04   -0.17042E-04  3059   0.836E-03    0.396E-02
RMM:   9    -0.232766274839E+04    0.23244E-04   -0.29815E-05  2955   0.430E-03    0.163E-02
RMM:  10    -0.232766274341E+04    0.49740E-05   -0.21246E-05  2923   0.340E-03
  53 F= -.23490593E+04 E0= -.23490593E+04  d E =-.859389E-02  mag=     3.0000
       N       E                     dE             d eps       ncg     rms          rms(c)
DAV:   1    -0.232762709862E+04    0.35650E-01   -0.17384E+00  4504   0.109E+00    0.424E-01
RMM:   2    -0.232766333835E+04   -0.36240E-01   -0.37920E-01  6571   0.271E-01    0.275E-01
RMM:   3    -0.232766750630E+04   -0.41680E-02   -0.42214E-02  6162   0.111E-01    0.368E-01
RMM:   4    -0.232766632894E+04    0.11774E-02   -0.40638E-03  4534   0.245E-02    0.130E-01
RMM:   5    -0.232766622707E+04    0.10187E-03   -0.43675E-04  3622   0.107E-02    0.998E-02
RMM:   6    -0.232766616833E+04    0.58737E-04   -0.37810E-04  3322   0.105E-02    0.783E-02
RMM:   7    -0.232766611508E+04    0.53255E-04   -0.16646E-04  3287   0.881E-03    0.454E-02
RMM:   8    -0.232766609007E+04    0.25014E-04   -0.41645E-05  2940   0.603E-03    0.146E-02
RMM:   9    -0.232766608664E+04    0.34293E-05   -0.78931E-06  2931   0.270E-03
  54 F= -.23490637E+04 E0= -.23490636E+04  d E =-.435835E-02  mag=     3.0000
       N       E                     dE             d eps       ncg     rms          rms(c)
DAV:   1    -0.232765346507E+04    0.12625E-01   -0.57169E-01  4544   0.626E-01    0.244E-01
RMM:   2    -0.232766538959E+04   -0.11925E-01   -0.12459E-01  6515   0.156E-01    0.162E-01
RMM:   3    -0.232766674408E+04   -0.13545E-02   -0.13720E-02  5700   0.645E-02    0.214E-01
RMM:   4    -0.232766634110E+04    0.40298E-03   -0.13327E-03  3212   0.144E-02    0.743E-02
RMM:   5    -0.232766631089E+04    0.30208E-04   -0.14784E-04  3037   0.709E-03    0.592E-02
RMM:   6    -0.232766628603E+04    0.24861E-04   -0.12750E-04  2946   0.661E-03    0.432E-02
RMM:   7    -0.232766627155E+04    0.14474E-04   -0.54393E-05  2992   0.581E-03    0.271E-02
RMM:   8    -0.232766626245E+04    0.91011E-05   -0.14999E-05  2909   0.408E-03
  55 F= -.23490644E+04 E0= -.23490644E+04  d E =-.511883E-02  mag=     3.0000
       N       E                     dE             d eps       ncg     rms          rms(c)
DAV:   1    -0.232762509422E+04    0.41177E-01   -0.20736E+00  4504   0.115E+00    0.451E-01
RMM:   2    -0.232766708065E+04   -0.41986E-01   -0.43933E-01  6567   0.280E-01    0.265E-01
RMM:   3    -0.232767161020E+04   -0.45296E-02   -0.47906E-02  6118   0.116E-01    0.335E-01
RMM:   4    -0.232767076226E+04    0.84794E-03   -0.46918E-03  4450   0.250E-02    0.149E-01
RMM:   5    -0.232767060872E+04    0.15354E-03   -0.46876E-04  3581   0.113E-02    0.993E-02
RMM:   6    -0.232767056474E+04    0.43981E-04   -0.43215E-04  3507   0.111E-02    0.799E-02
RMM:   7    -0.232767050071E+04    0.64033E-04   -0.15387E-04  3156   0.841E-03    0.382E-02
RMM:   8    -0.232767048586E+04    0.14855E-04   -0.38900E-05  2949   0.579E-03    0.183E-02
RMM:   9    -0.232767048095E+04    0.49076E-05   -0.77363E-06  2912   0.263E-03
  56 F= -.23490696E+04 E0= -.23490696E+04  d E =-.516094E-02  mag=     3.0000
       N       E                     dE             d eps       ncg     rms          rms(c)
DAV:   1    -0.232764998851E+04    0.20497E-01   -0.95556E-01  4504   0.779E-01    0.306E-01
RMM:   2    -0.232766931367E+04   -0.19325E-01   -0.20191E-01  6527   0.191E-01    0.184E-01
RMM:   3    -0.232767142253E+04   -0.21089E-02   -0.21952E-02  5805   0.804E-02    0.234E-01
RMM:   4    -0.232767099429E+04    0.42824E-03   -0.21538E-03  3360   0.173E-02    0.991E-02
RMM:   5    -0.232767092824E+04    0.66050E-04   -0.21950E-04  3078   0.860E-03    0.683E-02
RMM:   6    -0.232767090731E+04    0.20924E-04   -0.20037E-04  3012   0.800E-03    0.552E-02
RMM:   7    -0.232767087861E+04    0.28699E-04   -0.72616E-05  3006   0.665E-03    0.281E-02
RMM:   8    -0.232767086974E+04    0.88786E-05   -0.19100E-05  2925   0.441E-03
  57 F= -.23490706E+04 E0= -.23490706E+04  d E =-.619156E-02  mag=     3.0000
       N       E                     dE             d eps       ncg     rms          rms(c)
DAV:   1    -0.232763583911E+04    0.35040E-01   -0.17150E+00  4504   0.110E+00    0.434E-01
RMM:   2    -0.232767128044E+04   -0.35441E-01   -0.37035E-01  6444   0.268E-01    0.259E-01
RMM:   3    -0.232767519489E+04   -0.39145E-02   -0.40246E-02  6117   0.112E-01    0.336E-01
RMM:   4    -0.232767430585E+04    0.88903E-03   -0.39994E-03  4855   0.241E-02    0.135E-01
RMM:   5    -0.232767414477E+04    0.16108E-03   -0.37023E-04  3776   0.110E-02    0.759E-02
RMM:   6    -0.232767416131E+04   -0.16547E-04   -0.38916E-04  4117   0.116E-02    0.774E-02
RMM:   7    -0.232767408007E+04    0.81239E-04   -0.10893E-04  3082   0.755E-03    0.165E-02
RMM:   8    -0.232767407696E+04    0.31125E-05   -0.17083E-05  2950   0.441E-03
  58 F= -.23490745E+04 E0= -.23490745E+04  d E =-.391593E-02  mag=     3.0000
       N       E                     dE             d eps       ncg     rms          rms(c)
DAV:   1    -0.232765549783E+04    0.18582E-01   -0.84748E-01  4520   0.775E-01    0.305E-01
RMM:   2    -0.232767304473E+04   -0.17547E-01   -0.18318E-01  6426   0.189E-01    0.184E-01
RMM:   3    -0.232767499499E+04   -0.19503E-02   -0.19761E-02  5864   0.769E-02    0.241E-01
RMM:   4    -0.232767450140E+04    0.49359E-03   -0.19800E-03  3452   0.170E-02    0.921E-02
RMM:   5    -0.232767443948E+04    0.61920E-04   -0.19009E-04  3083   0.861E-03    0.618E-02
RMM:   6    -0.232767443687E+04    0.26054E-05   -0.17942E-04  3041   0.818E-03    0.597E-02
RMM:   7    -0.232767440028E+04    0.36591E-04   -0.74250E-05  2986   0.725E-03    0.249E-02
RMM:   8    -0.232767439347E+04    0.68048E-05   -0.19063E-05  2926   0.499E-03
  59 F= -.23490753E+04 E0= -.23490753E+04  d E =-.472896E-02  mag=     3.0000
       N       E                     dE             d eps       ncg     rms          rms(c)
DAV:   1    -0.232763088885E+04    0.43511E-01   -0.19991E+00  4504   0.117E+00    0.477E-01
RMM:   2    -0.232767499227E+04   -0.44103E-01   -0.45720E-01  6543   0.296E-01    0.360E-01
RMM:   3    -0.232767965719E+04   -0.46649E-02   -0.49411E-02  6209   0.120E-01    0.421E-01
RMM:   4    -0.232767810283E+04    0.15544E-02   -0.49150E-03  5306   0.273E-02    0.142E-01
RMM:   5    -0.232767789755E+04    0.20528E-03   -0.45168E-04  3882   0.117E-02    0.737E-02
RMM:   6    -0.232767789504E+04    0.25102E-05   -0.37780E-04  4358   0.123E-02    0.639E-02
RMM:   7    -0.232767785287E+04    0.42170E-04   -0.84566E-05  3000   0.733E-03    0.278E-02
RMM:   8    -0.232767784486E+04    0.80120E-05   -0.17991E-05  2942   0.362E-03
  60 F= -.23490796E+04 E0= -.23490796E+04  d E =-.424432E-02  mag=     3.0000
       N       E                     dE             d eps       ncg     rms          rms(c)
DAV:   1    -0.232766525513E+04    0.12598E-01   -0.54264E-01  4592   0.612E-01    0.249E-01
RMM:   2    -0.232767723904E+04   -0.11984E-01   -0.12417E-01  6518   0.155E-01    0.188E-01
RMM:   3    -0.232767851151E+04   -0.12725E-02   -0.13176E-02  5614   0.616E-02    0.224E-01
RMM:   4    -0.232767805182E+04    0.45969E-03   -0.13366E-03  3277   0.146E-02    0.725E-02
RMM:   5    -0.232767801027E+04    0.41547E-04   -0.13606E-04  3003   0.745E-03    0.475E-02
RMM:   6    -0.232767802000E+04   -0.97264E-05   -0.13016E-04  2991   0.705E-03    0.526E-02
RMM:   7    -0.232767798899E+04    0.31006E-04   -0.48793E-05  2940   0.614E-03    0.188E-02
RMM:   8    -0.232767798534E+04    0.36583E-05   -0.12148E-05  2913   0.378E-03
  61 F= -.23490801E+04 E0= -.23490801E+04  d E =-.479731E-02  mag=     3.0000
       N       E                     dE             d eps       ncg     rms          rms(c)
DAV:   1    -0.232763956873E+04    0.38420E-01   -0.18215E+00  4504   0.110E+00    0.443E-01
RMM:   2    -0.232767903146E+04   -0.39463E-01   -0.40328E-01  6580   0.274E-01    0.405E-01
RMM:   3    -0.232768248161E+04   -0.34502E-02   -0.42328E-02  6148   0.109E-01    0.393E-01
RMM:   4    -0.232768106235E+04    0.14193E-02   -0.42392E-03  4952   0.254E-02    0.130E-01
RMM:   5    -0.232768092958E+04    0.13277E-03   -0.48360E-04  3637   0.112E-02    0.921E-02
RMM:   6    -0.232768093302E+04   -0.34321E-05   -0.36749E-04  3510   0.106E-02    0.908E-02
RMM:   7    -0.232768085031E+04    0.82711E-04   -0.15343E-04  3093   0.831E-03    0.322E-02
RMM:   8    -0.232768083586E+04    0.14448E-04   -0.35555E-05  2931   0.544E-03    0.192E-02
RMM:   9    -0.232768083046E+04    0.53944E-05   -0.85095E-06  2902   0.272E-03
  62 F= -.23490839E+04 E0= -.23490839E+04  d E =-.378691E-02  mag=     3.0000
       N       E                     dE             d eps       ncg     rms          rms(c)
DAV:   1    -0.232766227929E+04    0.18557E-01   -0.82648E-01  4504   0.739E-01    0.298E-01
RMM:   2    -0.232768014636E+04   -0.17867E-01   -0.18253E-01  6542   0.185E-01    0.272E-01
RMM:   3    -0.232768169720E+04   -0.15508E-02   -0.18974E-02  5850   0.747E-02    0.265E-01
RMM:   4    -0.232768105627E+04    0.64092E-03   -0.19329E-03  3662   0.173E-02    0.880E-02
RMM:   5    -0.232768100544E+04    0.50837E-04   -0.21304E-04  3127   0.864E-03    0.698E-02
RMM:   6    -0.232768098384E+04    0.21602E-04   -0.16917E-04  3042   0.790E-03    0.568E-02
RMM:   7    -0.232768095641E+04    0.27422E-04   -0.72020E-05  2997   0.656E-03    0.232E-02
RMM:   8    -0.232768094874E+04    0.76726E-05   -0.18703E-05  2911   0.424E-03
  63 F= -.23490847E+04 E0= -.23490847E+04  d E =-.454012E-02  mag=     3.0000
       N       E                     dE             d eps       ncg     rms          rms(c)
DAV:   1    -0.232765509018E+04    0.25866E-01   -0.12671E+00  4504   0.930E-01    0.377E-01
RMM:   2    -0.232768287470E+04   -0.27785E-01   -0.28007E-01  6509   0.230E-01    0.394E-01
RMM:   3    -0.232768477934E+04   -0.19046E-02   -0.29203E-02  6022   0.913E-02    0.330E-01
RMM:   4    -0.232768380164E+04    0.97770E-03   -0.29257E-03  4608   0.215E-02    0.105E-01
RMM:   5    -0.232768375915E+04    0.42495E-04   -0.32528E-04  3207   0.976E-03    0.921E-02
RMM:   6    -0.232768369689E+04    0.62252E-04   -0.25397E-04  3415   0.954E-03    0.666E-02
RMM:   7    -0.232768367482E+04    0.22073E-04   -0.12652E-04  3079   0.791E-03    0.386E-02
RMM:   8    -0.232768365189E+04    0.22934E-04   -0.37567E-05  2932   0.556E-03    0.137E-02
RMM:   9    -0.232768364899E+04    0.28928E-05   -0.62386E-06  2886   0.263E-03
  64 F= -.23490884E+04 E0= -.23490884E+04  d E =-.370615E-02  mag=     3.0000
       N       E                     dE             d eps       ncg     rms          rms(c)
DAV:   1    -0.232758848368E+04    0.95168E-01   -0.42517E+00  4504   0.171E+00    0.690E-01
RMM:   2    -0.232768194304E+04   -0.93459E-01   -0.94168E-01  6538   0.423E-01    0.731E-01
RMM:   3    -0.232768835140E+04   -0.64084E-02   -0.10007E-01  6265   0.170E-01    0.604E-01
RMM:   4    -0.232768507091E+04    0.32805E-02   -0.97909E-03  5670   0.390E-02    0.190E-01
RMM:   5    -0.232768481797E+04    0.25294E-03   -0.10112E-03  4586   0.168E-02    0.141E-01
RMM:   6    -0.232768474994E+04    0.68038E-04   -0.86718E-04  5084   0.152E-02    0.122E-01
RMM:   7    -0.232768460848E+04    0.14145E-03   -0.35751E-04  3922   0.116E-02    0.548E-02
RMM:   8    -0.232768457279E+04    0.35697E-04   -0.86819E-05  2949   0.631E-03    0.319E-02
RMM:   9    -0.232768455835E+04    0.14439E-04   -0.17099E-05  2938   0.358E-03    0.139E-02
RMM:  10    -0.232768455623E+04    0.21173E-05   -0.15284E-05  2899   0.290E-03
  65 F= -.23490911E+04 E0= -.23490911E+04  d E =-.645613E-02  mag=     3.0000
       N       E                     dE             d eps       ncg     rms          rms(c)
DAV:   1    -0.232764163402E+04    0.42924E-01   -0.20665E+00  4504   0.119E+00    0.489E-01
RMM:   2    -0.232768625220E+04   -0.44618E-01   -0.44875E-01  6531   0.292E-01    0.515E-01
RMM:   3    -0.232768927860E+04   -0.30264E-02   -0.46779E-02  6162   0.117E-01    0.434E-01
RMM:   4    -0.232768756405E+04    0.17146E-02   -0.46973E-03  5286   0.274E-02    0.134E-01
RMM:   5    -0.232768749821E+04    0.65837E-04   -0.51947E-04  3725   0.122E-02    0.118E-01
RMM:   6    -0.232768740139E+04    0.96825E-04   -0.42790E-04  4219   0.114E-02    0.869E-02
RMM:   7    -0.232768735278E+04    0.48604E-04   -0.19686E-04  3308   0.885E-03    0.453E-02
RMM:   8    -0.232768732018E+04    0.32606E-04   -0.53774E-05  2944   0.612E-03    0.175E-02
RMM:   9    -0.232768731535E+04    0.48271E-05   -0.90534E-06  2917   0.288E-03
  66 F= -.23490953E+04 E0= -.23490953E+04  d E =-.415763E-02  mag=     3.0000
       N       E                     dE             d eps       ncg     rms          rms(c)
DAV:   1    -0.232766210751E+04    0.25213E-01   -0.11445E+00  4536   0.882E-01    0.364E-01
RMM:   2    -0.232768679504E+04   -0.24688E-01   -0.24826E-01  6531   0.217E-01    0.382E-01
RMM:   3    -0.232768847449E+04   -0.16794E-02   -0.25810E-02  6026   0.873E-02    0.324E-01
RMM:   4    -0.232768753068E+04    0.94381E-03   -0.26068E-03  4421   0.205E-02    0.101E-01
RMM:   5    -0.232768749954E+04    0.31145E-04   -0.28941E-04  3165   0.956E-03    0.919E-02
RMM:   6    -0.232768742866E+04    0.70875E-04   -0.23829E-04  3331   0.938E-03    0.618E-02
RMM:   7    -0.232768740739E+04    0.21274E-04   -0.11228E-04  3099   0.770E-03    0.341E-02
RMM:   8    -0.232768738920E+04    0.18192E-04   -0.32655E-05  2933   0.541E-03    0.132E-02
RMM:   9    -0.232768738642E+04    0.27793E-05   -0.61191E-06  2880   0.263E-03
  67 F= -.23490964E+04 E0= -.23490964E+04  d E =-.526967E-02  mag=     3.0000
       N       E                     dE             d eps       ncg     rms          rms(c)
DAV:   1    -0.232767423182E+04    0.13157E-01   -0.81663E-01  4504   0.765E-01    0.296E-01
RMM:   2    -0.232768883152E+04   -0.14600E-01   -0.14910E-01  6366   0.182E-01    0.264E-01
RMM:   3    -0.232769007395E+04   -0.12424E-02   -0.15047E-02  5915   0.726E-02    0.278E-01
RMM:   4    -0.232768933188E+04    0.74208E-03   -0.15710E-03  4365   0.178E-02    0.881E-02
RMM:   5    -0.232768933194E+04   -0.64378E-07   -0.29560E-04  3392   0.991E-03    0.898E-02
RMM:   6    -0.232768925006E+04    0.81883E-04   -0.21667E-04  3157   0.938E-03    0.454E-02
RMM:   7    -0.232768922918E+04    0.20883E-04   -0.47602E-05  3012   0.668E-03    0.117E-02
RMM:   8    -0.232768922791E+04    0.12676E-05   -0.94478E-06  2903   0.442E-03
  68 F= -.23490990E+04 E0= -.23490990E+04  d E =-.261263E-02  mag=     3.0000
       N       E                     dE             d eps       ncg     rms          rms(c)
DAV:   1    -0.232768474319E+04    0.44860E-02   -0.24037E-01  4624   0.415E-01    0.162E-01
RMM:   2    -0.232768907215E+04   -0.43290E-02   -0.43989E-02  6410   0.991E-02    0.150E-01
RMM:   3    -0.232768941485E+04   -0.34270E-03   -0.44404E-03  4703   0.383E-02    0.152E-01
RMM:   4    -0.232768919377E+04    0.22108E-03   -0.46810E-04  3035   0.103E-02    0.488E-02
RMM:   5    -0.232768919875E+04   -0.49785E-05   -0.92554E-05  2991   0.605E-03
  69 F= -.23490994E+04 E0= -.23490994E+04  d E =-.300261E-02  mag=     3.0000
       N       E                     dE             d eps       ncg     rms          rms(c)
DAV:   1    -0.232767837129E+04    0.10822E-01   -0.80587E-01  4504   0.749E-01    0.271E-01
RMM:   2    -0.232769051375E+04   -0.12142E-01   -0.12543E-01  6561   0.171E-01    0.220E-01
RMM:   3    -0.232769162164E+04   -0.11079E-02   -0.12647E-02  5761   0.640E-02    0.252E-01
RMM:   4    -0.232769099082E+04    0.63082E-03   -0.13298E-03  3644   0.160E-02    0.907E-02
RMM:   5    -0.232769101676E+04   -0.25934E-04   -0.31965E-04  3267   0.968E-03    0.962E-02
RMM:   6    -0.232769091964E+04    0.97120E-04   -0.23322E-04  3352   0.927E-03    0.416E-02
RMM:   7    -0.232769091058E+04    0.90610E-05   -0.55028E-05  2972   0.649E-03
  70 F= -.23491018E+04 E0= -.23491018E+04  d E =-.237441E-02  mag=     3.0000
       N       E                     dE             d eps       ncg     rms          rms(c)
DAV:   1    -0.232768059878E+04    0.10321E-01   -0.66306E-01  4504   0.681E-01    0.248E-01
RMM:   2    -0.232769058190E+04   -0.99831E-02   -0.10343E-01  6545   0.156E-01    0.194E-01
RMM:   3    -0.232769154720E+04   -0.96530E-03   -0.10383E-02  5699   0.588E-02    0.235E-01
RMM:   4    -0.232769102575E+04    0.52145E-03   -0.11054E-03  3376   0.146E-02    0.775E-02
RMM:   5    -0.232769102128E+04    0.44744E-05   -0.21605E-04  3153   0.850E-03    0.731E-02
RMM:   6    -0.232769097913E+04    0.42146E-04   -0.17589E-04  3020   0.817E-03    0.440E-02
RMM:   7    -0.232769096281E+04    0.16325E-04   -0.43977E-05  2964   0.609E-03    0.195E-02
RMM:   8    -0.232769095843E+04    0.43776E-05   -0.11258E-05  2901   0.395E-03
  71 F= -.23491024E+04 E0= -.23491024E+04  d E =-.302376E-02  mag=     3.0000
       N       E                     dE             d eps       ncg     rms          rms(c)
DAV:   1    -0.232768585170E+04    0.51111E-02   -0.49186E-01  4504   0.595E-01    0.204E-01
RMM:   2    -0.232769260167E+04   -0.67500E-02   -0.69276E-02  6372   0.130E-01    0.167E-01
RMM:   3    -0.232769320039E+04   -0.59872E-03   -0.70125E-03  5431   0.487E-02    0.185E-01
RMM:   4    -0.232769285875E+04    0.34165E-03   -0.74014E-04  3181   0.122E-02    0.703E-02
RMM:   5    -0.232769286964E+04   -0.10894E-04   -0.17540E-04  3036   0.752E-03    0.736E-02
RMM:   6    -0.232769280958E+04    0.60054E-04   -0.13604E-04  3028   0.750E-03    0.280E-02
RMM:   7    -0.232769280972E+04   -0.13095E-06   -0.36560E-05  2981   0.568E-03
  72 F= -.23491048E+04 E0= -.23491048E+04  d E =-.234773E-02  mag=     3.0000
       N       E                     dE             d eps       ncg     rms          rms(c)
DAV:   1    -0.232763224657E+04    0.60563E-01   -0.44239E+00  4504   0.179E+00    0.613E-01
RMM:   2    -0.232769287831E+04   -0.60632E-01   -0.62353E-01  6445   0.392E-01    0.495E-01
RMM:   3    -0.232769836742E+04   -0.54891E-02   -0.63946E-02  6139   0.150E-01    0.549E-01
RMM:   4    -0.232769536386E+04    0.30036E-02   -0.65959E-03  5663   0.358E-02    0.206E-01
RMM:   5    -0.232769541849E+04   -0.54623E-04   -0.15185E-03  5097   0.189E-02    0.208E-01
RMM:   6    -0.232769496828E+04    0.45021E-03   -0.11560E-03  5084   0.174E-02    0.940E-02
RMM:   7    -0.232769493290E+04    0.35377E-04   -0.29762E-04  3713   0.112E-02    0.612E-02
RMM:   8    -0.232769488226E+04    0.50640E-04   -0.73556E-05  2967   0.632E-03    0.195E-02
RMM:   9    -0.232769487352E+04    0.87413E-05   -0.14785E-05  2953   0.331E-03
  73 F= -.23491083E+04 E0= -.23491083E+04  d E =-.591061E-02  mag=     3.0000
       N       E                     dE             d eps       ncg     rms          rms(c)
DAV:   1    -0.232768685715E+04    0.80251E-02   -0.88896E-01  4504   0.799E-01    0.280E-01
RMM:   2    -0.232769774136E+04   -0.10884E-01   -0.11087E-01  6306   0.171E-01    0.257E-01
RMM:   3    -0.232769841666E+04   -0.67529E-03   -0.11405E-02  5805   0.643E-02    0.231E-01
RMM:   4    -0.232769785181E+04    0.56485E-03   -0.12149E-03  4253   0.162E-02    0.103E-01
RMM:   5    -0.232769786484E+04   -0.13035E-04   -0.33359E-04  3187   0.101E-02    0.105E-01
RMM:   6    -0.232769773610E+04    0.12875E-03   -0.23482E-04  3896   0.100E-02    0.290E-02
RMM:   7    -0.232769773366E+04    0.24389E-05   -0.38274E-05  2983   0.579E-03
  74 F= -.23491121E+04 E0= -.23491120E+04  d E =-.371752E-02  mag=     3.0000
       N       E                     dE             d eps       ncg     rms          rms(c)
DAV:   1    -0.232767963575E+04    0.18100E-01   -0.15135E+00  4504   0.104E+00    0.365E-01
RMM:   2    -0.232769820135E+04   -0.18566E-01   -0.18912E-01  6268   0.224E-01    0.333E-01
RMM:   3    -0.232769934231E+04   -0.11410E-02   -0.19555E-02  5948   0.870E-02    0.300E-01
RMM:   4    -0.232769837460E+04    0.96771E-03   -0.20847E-03  5005   0.212E-02    0.134E-01
RMM:   5    -0.232769839817E+04   -0.23574E-04   -0.56139E-04  3596   0.126E-02    0.137E-01
RMM:   6    -0.232769817799E+04    0.22018E-03   -0.39168E-04  4340   0.123E-02    0.373E-02
RMM:   7    -0.232769817235E+04    0.56367E-05   -0.62191E-05  3008   0.706E-03
  75 F= -.23491136E+04 E0= -.23491136E+04  d E =-.528388E-02  mag=     3.0000
       N       E                     dE             d eps       ncg     rms          rms(c)
DAV:   1    -0.232769310719E+04    0.50708E-02   -0.53929E-01  4560   0.595E-01    0.206E-01
RMM:   2    -0.232769980977E+04   -0.67026E-02   -0.67047E-02  6455   0.130E-01    0.214E-01
RMM:   3    -0.232770005748E+04   -0.24771E-03   -0.70111E-03  5333   0.487E-02    0.161E-01
RMM:   4    -0.232769981557E+04    0.24192E-03   -0.73714E-04  3157   0.119E-02    0.817E-02
RMM:   5    -0.232769980844E+04    0.71299E-05   -0.16794E-04  3006   0.737E-03    0.758E-02
RMM:   6    -0.232769974635E+04    0.62083E-04   -0.12854E-04  3080   0.728E-03    0.250E-02
RMM:   7    -0.232769974864E+04   -0.22899E-05   -0.30016E-05  2971   0.516E-03
  76 F= -.23491159E+04 E0= -.23491159E+04  d E =-.230495E-02  mag=     3.0000
       N       E                     dE             d eps       ncg     rms          rms(c)
DAV:   1    -0.232764994238E+04    0.49804E-01   -0.40963E+00  4504   0.164E+00    0.561E-01
RMM:   2    -0.232770058624E+04   -0.50644E-01   -0.50901E-01  6464   0.355E-01    0.571E-01
RMM:   3    -0.232770286672E+04   -0.22805E-02   -0.53253E-02  6162   0.133E-01    0.454E-01
RMM:   4    -0.232770088378E+04    0.19829E-02   -0.54883E-03  5319   0.314E-02    0.215E-01
RMM:   5    -0.232770089858E+04   -0.14799E-04   -0.12693E-03  4543   0.170E-02    0.213E-01
RMM:   6    -0.232770039957E+04    0.49901E-03   -0.98646E-04  4834   0.172E-02    0.662E-02
RMM:   7    -0.232770039413E+04    0.54440E-05   -0.16736E-04  3115   0.999E-03    0.355E-02
RMM:   8    -0.232770037859E+04    0.15539E-04   -0.46528E-05  2956   0.485E-03    0.214E-02
RMM:   9    -0.232770037094E+04    0.76448E-05   -0.12490E-05  2901   0.321E-03
  77 F= -.23491186E+04 E0= -.23491186E+04  d E =-.495146E-02  mag=     3.0000
       N       E                     dE             d eps       ncg     rms          rms(c)
DAV:   1    -0.232769369565E+04    0.66829E-02   -0.92841E-01  4504   0.796E-01    0.279E-01
RMM:   2    -0.232770351293E+04   -0.98173E-02   -0.10029E-01  6170   0.168E-01    0.251E-01
RMM:   3    -0.232770412678E+04   -0.61386E-03   -0.10590E-02  5787   0.660E-02    0.236E-01
RMM:   4    -0.232770355129E+04    0.57550E-03   -0.12035E-03  4466   0.165E-02    0.106E-01
RMM:   5    -0.232770354361E+04    0.76735E-05   -0.33389E-04  3289   0.106E-02    0.102E-01
[...]
RMM:   6    -0.232777932106E+04    0.36929E-03   -0.58495E-04  4291   0.126E-02    0.438E-02
RMM:   7    -0.232777930467E+04    0.16385E-04   -0.64718E-05  2997   0.680E-03    0.246E-02
RMM:   8    -0.232777929849E+04    0.61853E-05   -0.20551E-05  2918   0.335E-03
 127 F= -.23492593E+04 E0= -.23492593E+04  d E =-.362812E-02  mag=     3.0000
       N       E                     dE             d eps       ncg     rms          rms(c)
DAV:   1    -0.232777624972E+04    0.30550E-02   -0.50058E-01  4592   0.537E-01    0.174E-01
RMM:   2    -0.232777921496E+04   -0.29652E-02   -0.31974E-02  6092   0.994E-02    0.151E-01
RMM:   3    -0.232777943087E+04   -0.21591E-03   -0.34961E-03  4782   0.410E-02    0.156E-01
RMM:   4    -0.232777921576E+04    0.21511E-03   -0.41919E-04  3248   0.110E-02    0.718E-02
RMM:   5    -0.232777925901E+04   -0.43248E-04   -0.23784E-04  3100   0.883E-03    0.857E-02
RMM:   6    -0.232777916293E+04    0.96077E-04   -0.15266E-04  3065   0.794E-03    0.190E-02
RMM:   7    -0.232777916092E+04    0.20055E-05   -0.18479E-05  2952   0.485E-03
 128 F= -.23492598E+04 E0= -.23492597E+04  d E =-.409459E-02  mag=     3.0000
       N       E                     dE             d eps       ncg     rms          rms(c)
DAV:   1    -0.232776927311E+04    0.98898E-02   -0.19550E+00  4536   0.110E+00    0.355E-01
RMM:   2    -0.232778181194E+04   -0.12539E-01   -0.13662E-01  6150   0.210E-01    0.278E-01
RMM:   3    -0.232778295979E+04   -0.11478E-02   -0.14921E-02  5752   0.854E-02    0.321E-01
RMM:   4    -0.232778209387E+04    0.86592E-03   -0.17274E-03  5165   0.216E-02    0.143E-01
RMM:   5    -0.232778219055E+04   -0.96678E-04   -0.90046E-04  4716   0.157E-02    0.153E-01
RMM:   6    -0.232778190983E+04    0.28072E-03   -0.58738E-04  4287   0.127E-02    0.542E-02
RMM:   7    -0.232778188168E+04    0.28150E-04   -0.82327E-05  3010   0.714E-03    0.310E-02
RMM:   8    -0.232778186928E+04    0.12398E-04   -0.24557E-05  2919   0.402E-03    0.164E-02
RMM:   9    -0.232778186560E+04    0.36765E-05   -0.85790E-06  2928   0.234E-03
 129 F= -.23492637E+04 E0= -.23492636E+04  d E =-.389653E-02  mag=     3.0000
       N       E                     dE             d eps       ncg     rms          rms(c)
DAV:   1    -0.232776821725E+04    0.13652E-01   -0.20449E+00  4504   0.112E+00    0.362E-01
RMM:   2    -0.232778140334E+04   -0.13186E-01   -0.14307E-01  6101   0.215E-01    0.296E-01
RMM:   3    -0.232778252988E+04   -0.11265E-02   -0.15547E-02  5752   0.866E-02    0.333E-01
RMM:   4    -0.232778159513E+04    0.93475E-03   -0.18028E-03  5181   0.220E-02    0.146E-01
RMM:   5    -0.232778169247E+04   -0.97339E-04   -0.95204E-04  4814   0.161E-02    0.156E-01
RMM:   6    -0.232778139142E+04    0.30105E-03   -0.63148E-04  4439   0.131E-02    0.537E-02
RMM:   7    -0.232778136736E+04    0.24058E-04   -0.92194E-05  3015   0.750E-03    0.349E-02
RMM:   8    -0.232778135063E+04    0.16731E-04   -0.27547E-05  2926   0.409E-03    0.165E-02
RMM:   9    -0.232778134666E+04    0.39714E-05   -0.97212E-06  2927   0.238E-03
 130 F= -.23492644E+04 E0= -.23492643E+04  d E =-.460341E-02  mag=     3.0000
       N       E                     dE             d eps       ncg     rms          rms(c)
DAV:   1    -0.232778080760E+04    0.54303E-03   -0.15903E-01  4592   0.313E-01    0.101E-01
RMM:   2    -0.232778182559E+04   -0.10180E-02   -0.11120E-02  6174   0.599E-02    0.793E-02
RMM:   3    -0.232778191048E+04   -0.84894E-04   -0.12158E-03  3541   0.244E-02    0.904E-02
RMM:   4    -0.232778184319E+04    0.67290E-04   -0.13990E-04  2982   0.738E-03    0.414E-02
RMM:   5    -0.232778185160E+04   -0.84058E-05   -0.74571E-05  2984   0.525E-03
 131 F= -.23492646E+04 E0= -.23492645E+04  d E =-.476514E-02  mag=     3.0000
       N       E                     dE             d eps       ncg     rms          rms(c)
DAV:   1    -0.232777298656E+04    0.88566E-02   -0.19744E+00  4536   0.112E+00    0.352E-01
RMM:   2    -0.232778413670E+04   -0.11150E-01   -0.12266E-01  5978   0.207E-01    0.257E-01
RMM:   3    -0.232778506401E+04   -0.92731E-03   -0.12568E-02  5613   0.827E-02    0.319E-01
RMM:   4    -0.232778426066E+04    0.80335E-03   -0.15726E-03  5022   0.213E-02    0.143E-01
RMM:   5    -0.232778426108E+04   -0.41568E-06   -0.91321E-04  5043   0.168E-02    0.129E-01
RMM:   6    -0.232778405122E+04    0.20986E-03   -0.51187E-04  4277   0.126E-02    0.447E-02
RMM:   7    -0.232778402268E+04    0.28543E-04   -0.46503E-05  2979   0.610E-03    0.172E-02
RMM:   8    -0.232778402276E+04   -0.80952E-07   -0.16549E-05  2941   0.322E-03
 132 F= -.23492677E+04 E0= -.23492676E+04  d E =-.313302E-02  mag=     3.0000
       N       E                     dE             d eps       ncg     rms          rms(c)
DAV:   1    -0.232778197024E+04    0.20524E-02   -0.34007E-01  4560   0.464E-01    0.148E-01
RMM:   2    -0.232778392492E+04   -0.19547E-02   -0.21379E-02  6063   0.868E-02    0.109E-01
RMM:   3    -0.232778408060E+04   -0.15569E-03   -0.21886E-03  4407   0.339E-02    0.135E-01
RMM:   4    -0.232778393826E+04    0.14235E-03   -0.27513E-04  3053   0.972E-03    0.601E-02
RMM:   5    -0.232778394646E+04   -0.82059E-05   -0.16542E-04  3208   0.806E-03    0.581E-02
RMM:   6    -0.232778390290E+04    0.43557E-04   -0.97049E-05  3010   0.712E-03    0.190E-02
RMM:   7    -0.232778389963E+04    0.32725E-05   -0.13114E-05  2907   0.412E-03
 133 F= -.23492680E+04 E0= -.23492679E+04  d E =-.341059E-02  mag=     3.0000
       N       E                     dE             d eps       ncg     rms          rms(c)
DAV:   1    -0.232777504267E+04    0.88602E-02   -0.22338E+00  4504   0.119E+00    0.346E-01
RMM:   2    -0.232778677935E+04   -0.11737E-01   -0.12880E-01  5932   0.211E-01    0.251E-01
RMM:   3    -0.232778746005E+04   -0.68071E-03   -0.12578E-02  5498   0.852E-02    0.289E-01
RMM:   4    -0.232778685701E+04    0.60305E-03   -0.16044E-03  4919   0.211E-02    0.153E-01
RMM:   5    -0.232778689260E+04   -0.35591E-04   -0.10575E-03  5067   0.179E-02    0.144E-01
RMM:   6    -0.232778664839E+04    0.24421E-03   -0.46466E-04  4038   0.120E-02    0.500E-02
RMM:   7    -0.232778662206E+04    0.26322E-04   -0.65673E-05  2979   0.619E-03    0.263E-02
RMM:   8    -0.232778661633E+04    0.57386E-05   -0.23594E-05  2907   0.347E-03
 134 F= -.23492715E+04 E0= -.23492715E+04  d E =-.354012E-02  mag=     3.0000
       N       E                     dE             d eps       ncg     rms          rms(c)
DAV:   1    -0.232778201976E+04    0.46023E-02   -0.87295E-01  4504   0.742E-01    0.217E-01
RMM:   2    -0.232778663748E+04   -0.46177E-02   -0.50475E-02  5912   0.132E-01    0.160E-01
RMM:   3    -0.232778691509E+04   -0.27760E-03   -0.49624E-03  5164   0.511E-02    0.186E-01
RMM:   4    -0.232778664940E+04    0.26569E-03   -0.62176E-04  3571   0.134E-02    0.936E-02
RMM:   5    -0.232778668384E+04   -0.34440E-04   -0.43822E-04  3985   0.121E-02    0.951E-02
RMM:   6    -0.232778657173E+04    0.11211E-03   -0.18840E-04  3265   0.847E-03    0.287E-02
RMM:   7    -0.232778656495E+04    0.67771E-05   -0.28151E-05  2957   0.498E-03
 135 F= -.23492720E+04 E0= -.23492719E+04  d E =-.400687E-02  mag=     3.0000
       N       E                     dE             d eps       ncg     rms          rms(c)
DAV:   1    -0.232778338558E+04    0.31862E-02   -0.10297E+00  4504   0.809E-01    0.231E-01
RMM:   2    -0.232778858779E+04   -0.52022E-02   -0.57354E-02  5935   0.142E-01    0.159E-01
RMM:   3    -0.232778900089E+04   -0.41311E-03   -0.59720E-03  5221   0.583E-02    0.184E-01
RMM:   4    -0.232778874872E+04    0.25218E-03   -0.74082E-04  3554   0.144E-02    0.103E-01
RMM:   5    -0.232778876575E+04   -0.17038E-04   -0.47267E-04  4164   0.126E-02    0.100E-01
RMM:   6    -0.232778866748E+04    0.98275E-04   -0.17350E-04  3167   0.843E-03    0.396E-02
RMM:   7    -0.232778865052E+04    0.16956E-04   -0.31242E-05  2929   0.481E-03    0.155E-02
RMM:   8    -0.232778864810E+04    0.24242E-05   -0.11614E-05  2910   0.273E-03
 136 F= -.23492747E+04 E0= -.23492746E+04  d E =-.268695E-02  mag=     3.0000
       N       E                     dE             d eps       ncg     rms          rms(c)
DAV:   1    -0.232776881354E+04    0.19837E-01   -0.40716E+00  4504   0.161E+00    0.457E-01
RMM:   2    -0.232778947873E+04   -0.20665E-01   -0.22708E-01  5895   0.283E-01    0.333E-01
RMM:   3    -0.232779105530E+04   -0.15766E-02   -0.23438E-02  5522   0.112E-01    0.390E-01
RMM:   4    -0.232778991072E+04    0.11446E-02   -0.29120E-03  5291   0.279E-02    0.201E-01
RMM:   5    -0.232778989126E+04    0.19459E-04   -0.17900E-03  5429   0.229E-02    0.172E-01
RMM:   6    -0.232778961013E+04    0.28114E-03   -0.73198E-04  4688   0.147E-02    0.835E-02
RMM:   7    -0.232778952977E+04    0.80361E-04   -0.12232E-04  2972   0.668E-03    0.350E-02
RMM:   8    -0.232778951626E+04    0.13506E-04   -0.43803E-05  2932   0.450E-03    0.267E-02
RMM:   9    -0.232778950574E+04    0.10520E-04   -0.15816E-05  2937   0.281E-03    0.694E-03
RMM:  10    -0.232778950507E+04    0.66597E-06   -0.58207E-06  2899   0.223E-03
 137 F= -.23492767E+04 E0= -.23492767E+04  d E =-.475205E-02  mag=     3.0000
       N       E                     dE             d eps       ncg     rms          rms(c)
DAV:   1    -0.232778667870E+04    0.28270E-02   -0.10383E+00  4516   0.859E-01    0.259E-01
RMM:   2    -0.232779190933E+04   -0.52306E-02   -0.57530E-02  5901   0.152E-01    0.178E-01
RMM:   3    -0.232779242276E+04   -0.51343E-03   -0.58824E-03  5490   0.612E-02    0.245E-01
RMM:   4    -0.232779190634E+04    0.51642E-03   -0.81716E-04  4451   0.163E-02    0.947E-02
RMM:   5    -0.232779187225E+04    0.34090E-04   -0.42562E-04  4267   0.133E-02    0.674E-02
RMM:   6    -0.232779184919E+04    0.23068E-04   -0.16512E-04  3069   0.929E-03    0.448E-02
RMM:   7    -0.232779181943E+04    0.29757E-04   -0.27527E-05  2932   0.455E-03    0.119E-02
RMM:   8    -0.232779181824E+04    0.11849E-05   -0.85679E-06  2912   0.276E-03
 138 F= -.23492798E+04 E0= -.23492798E+04  d E =-.307712E-02  mag=     3.0000
       N       E                     dE             d eps       ncg     rms          rms(c)
DAV:   1    -0.232778650618E+04    0.53132E-02   -0.11288E+00  4504   0.896E-01    0.270E-01
RMM:   2    -0.232779223116E+04   -0.57250E-02   -0.62761E-02  5888   0.159E-01    0.188E-01
RMM:   3    -0.232779280475E+04   -0.57359E-03   -0.64294E-03  5502   0.620E-02    0.260E-01
RMM:   4    -0.232779221469E+04    0.59006E-03   -0.89278E-04  4620   0.170E-02    0.981E-02
RMM:   5    -0.232779217902E+04    0.35664E-04   -0.46265E-04  4304   0.137E-02    0.709E-02
RMM:   6    -0.232779215083E+04    0.28195E-04   -0.18149E-04  3145   0.969E-03    0.449E-02
RMM:   7    -0.232779212146E+04    0.29371E-04   -0.30463E-05  2936   0.463E-03    0.144E-02
RMM:   8    -0.232779212008E+04    0.13819E-05   -0.10871E-05  2919   0.304E-03
 139 F= -.23492809E+04 E0= -.23492809E+04  d E =-.417767E-02  mag=     3.0000
       N       E                     dE             d eps       ncg     rms          rms(c)
DAV:   1    -0.232778810481E+04    0.40166E-02   -0.97614E-01  4548   0.830E-01    0.244E-01
RMM:   2    -0.232779434584E+04   -0.62410E-02   -0.66632E-02  5913   0.151E-01    0.201E-01
RMM:   3    -0.232779480313E+04   -0.45729E-03   -0.69692E-03  5512   0.637E-02    0.232E-01
RMM:   4    -0.232779432576E+04    0.47737E-03   -0.85107E-04  4294   0.156E-02    0.967E-02
RMM:   5    -0.232779438009E+04   -0.54327E-04   -0.48349E-04  3923   0.124E-02    0.111E-01
RMM:   6    -0.232779423181E+04    0.14828E-03   -0.27653E-04  3710   0.986E-03    0.331E-02
RMM:   7    -0.232779422410E+04    0.77047E-05   -0.47535E-05  2950   0.616E-03
 140 F= -.23492839E+04 E0= -.23492838E+04  d E =-.296100E-02  mag=     3.0000
       N       E                     dE             d eps       ncg     rms          rms(c)
DAV:   1    -0.232778906569E+04    0.51661E-02   -0.80678E-01  4548   0.754E-01    0.222E-01
RMM:   2    -0.232779419751E+04   -0.51318E-02   -0.55282E-02  5978   0.138E-01    0.169E-01
RMM:   3    -0.232779461093E+04   -0.41343E-03   -0.58039E-03  5481   0.592E-02    0.203E-01
RMM:   4    -0.232779425624E+04    0.35470E-03   -0.70590E-04  3812   0.142E-02    0.905E-02
RMM:   5    -0.232779428964E+04   -0.33400E-04   -0.38688E-04  3726   0.114E-02    0.984E-02
RMM:   6    -0.232779417997E+04    0.10967E-03   -0.21938E-04  3346   0.923E-03    0.345E-02
RMM:   7    -0.232779416975E+04    0.10218E-04   -0.41094E-05  2940   0.591E-03    0.222E-02
RMM:   8    -0.232779416274E+04    0.70106E-05   -0.11817E-05  2891   0.307E-03
 141 F= -.23492846E+04 E0= -.23492845E+04  d E =-.368270E-02  mag=     3.0000
       N       E                     dE             d eps       ncg     rms          rms(c)
DAV:   1    -0.232779025142E+04    0.39183E-02   -0.97269E-01  4568   0.824E-01    0.246E-01
RMM:   2    -0.232779566383E+04   -0.54124E-02   -0.58749E-02  5888   0.146E-01    0.196E-01
RMM:   3    -0.232779618742E+04   -0.52359E-03   -0.63800E-03  5463   0.600E-02    0.239E-01
RMM:   4    -0.232779567413E+04    0.51329E-03   -0.80390E-04  4270   0.153E-02    0.968E-02
RMM:   5    -0.232779569795E+04   -0.23822E-04   -0.45177E-04  4009   0.124E-02    0.956E-02
RMM:   6    -0.232779559750E+04    0.10045E-03   -0.25537E-04  3602   0.969E-03    0.341E-02
RMM:   7    -0.232779558822E+04    0.92782E-05   -0.41017E-05  2955   0.584E-03
 142 F= -.23492869E+04 E0= -.23492869E+04  d E =-.232187E-02  mag=     3.0000
       N       E                     dE             d eps       ncg     rms          rms(c)
DAV:   1    -0.232779133444E+04    0.42631E-02   -0.72029E-01  4592   0.710E-01    0.211E-01
RMM:   2    -0.232779532060E+04   -0.39862E-02   -0.43650E-02  5942   0.126E-01    0.155E-01
RMM:   3    -0.232779572774E+04   -0.40714E-03   -0.47362E-03  5421   0.523E-02    0.197E-01
RMM:   4    -0.232779539757E+04    0.33016E-03   -0.59127E-04  3644   0.132E-02    0.864E-02
RMM:   5    -0.232779540407E+04   -0.64978E-05   -0.31944E-04  3690   0.107E-02    0.789E-02
RMM:   6    -0.232779534287E+04    0.61205E-04   -0.18109E-04  3174   0.874E-03    0.340E-02
RMM:   7    -0.232779533141E+04    0.11454E-04   -0.32901E-05  2937   0.541E-03    0.202E-02
RMM:   8    -0.232779532552E+04    0.58918E-05   -0.97812E-06  2886   0.283E-03
 143 F= -.23492874E+04 E0= -.23492874E+04  d E =-.283391E-02  mag=     3.0000
       N       E                     dE             d eps       ncg     rms          rms(c)
DAV:   1    -0.232779401020E+04    0.13212E-02   -0.77193E-01  4568   0.753E-01    0.226E-01
RMM:   2    -0.232779734077E+04   -0.33306E-02   -0.36883E-02  5647   0.127E-01    0.163E-01
RMM:   3    -0.232779778091E+04   -0.44014E-03   -0.39269E-03  5147   0.517E-02    0.225E-01
RMM:   4    -0.232779729945E+04    0.48146E-03   -0.57570E-04  4442   0.145E-02    0.813E-02
RMM:   5    -0.232779732375E+04   -0.24302E-04   -0.37444E-04  4176   0.122E-02    0.800E-02
RMM:   6    -0.232779725145E+04    0.72304E-04   -0.15350E-04  3027   0.832E-03    0.277E-02
RMM:   7    -0.232779724222E+04    0.92332E-05   -0.19655E-05  2948   0.439E-03
 144 F= -.23492900E+04 E0= -.23492900E+04  d E =-.258132E-02  mag=     3.0000
       N       E                     dE             d eps       ncg     rms          rms(c)
DAV:   1    -0.232779317671E+04    0.40747E-02   -0.10114E+00  4568   0.862E-01    0.259E-01
RMM:   2    -0.232779750651E+04   -0.43298E-02   -0.48214E-02  5619   0.145E-01    0.177E-01
RMM:   3    -0.232779806370E+04   -0.55719E-03   -0.51199E-03  5151   0.638E-02    0.245E-01
RMM:   4    -0.232779750710E+04    0.55660E-03   -0.75183E-04  4773   0.168E-02    0.971E-02
RMM:   5    -0.232779754612E+04   -0.39021E-04   -0.49438E-04  4502   0.139E-02    0.981E-02
RMM:   6    -0.232779743277E+04    0.11335E-03   -0.19041E-04  3183   0.890E-03    0.302E-02
RMM:   7    -0.232779742046E+04    0.12311E-04   -0.20207E-05  2942   0.473E-03    0.878E-03
RMM:   8    -0.232779741873E+04    0.17340E-05   -0.63845E-06  2907   0.255E-03
 145 F= -.23492909E+04 E0= -.23492909E+04  d E =-.352140E-02  mag=     3.0000
       N       E                     dE             d eps       ncg     rms          rms(c)
DAV:   1    -0.232779544729E+04    0.19732E-02   -0.84870E-01  4580   0.785E-01    0.224E-01
RMM:   2    -0.232779961075E+04   -0.41635E-02   -0.45324E-02  5786   0.132E-01    0.180E-01
RMM:   3    -0.232779993851E+04   -0.32776E-03   -0.47697E-03  5022   0.522E-02    0.206E-01
RMM:   4    -0.232779953636E+04    0.40215E-03   -0.59935E-04  4195   0.142E-02    0.882E-02
RMM:   5    -0.232779961255E+04   -0.76198E-04   -0.42534E-04  4014   0.121E-02    0.109E-01
RMM:   6    -0.232779946885E+04    0.14370E-03   -0.20615E-04  3366   0.892E-03    0.286E-02
RMM:   7    -0.232779946315E+04    0.56989E-05   -0.32973E-05  2947   0.545E-03
 146 F= -.23492935E+04 E0= -.23492934E+04  d E =-.254029E-02  mag=     3.0000
       N       E                     dE             d eps       ncg     rms          rms(c)
DAV:   1    -0.232779667679E+04    0.27921E-02   -0.61640E-01  4592   0.670E-01    0.192E-01
RMM:   2    -0.232779966344E+04   -0.29867E-02   -0.32798E-02  5764   0.113E-01    0.142E-01
RMM:   3    -0.232779994596E+04   -0.28252E-03   -0.35713E-03  4838   0.483E-02    0.168E-01
RMM:   4    -0.232779967286E+04    0.27309E-03   -0.43211E-04  3485   0.123E-02    0.769E-02
RMM:   5    -0.232779973131E+04   -0.58446E-04   -0.31200E-04  3585   0.108E-02    0.982E-02
RMM:   6    -0.232779962261E+04    0.10870E-03   -0.14367E-04  3171   0.804E-03    0.248E-02
RMM:   7    -0.232779961791E+04    0.47020E-05   -0.24090E-05  2935   0.482E-03
 147 F= -.23492941E+04 E0= -.23492940E+04  d E =-.312139E-02  mag=     3.0000
       N       E                     dE             d eps       ncg     rms          rms(c)
DAV:   1    -0.232779595559E+04    0.36670E-02   -0.11326E+00  4536   0.930E-01    0.269E-01
RMM:   2    -0.232780178947E+04   -0.58339E-02   -0.63473E-02  5882   0.163E-01    0.204E-01
RMM:   3    -0.232780225466E+04   -0.46519E-03   -0.63027E-03  5310   0.644E-02    0.234E-01
RMM:   4    -0.232780176388E+04    0.49078E-03   -0.82154E-04  4521   0.168E-02    0.109E-01
RMM:   5    -0.232780182949E+04   -0.65610E-04   -0.52802E-04  4553   0.138E-02    0.121E-01
RMM:   6    -0.232780166000E+04    0.16949E-03   -0.28943E-04  4018   0.103E-02    0.399E-02
RMM:   7    -0.232780165192E+04    0.80875E-05   -0.65888E-05  2964   0.671E-03
 148 F= -.23492966E+04 E0= -.23492965E+04  d E =-.251351E-02  mag=     3.0000
       N       E                     dE             d eps       ncg     rms          rms(c)
DAV:   1    -0.232779572563E+04    0.59344E-02   -0.11214E+00  4536   0.925E-01    0.269E-01
RMM:   2    -0.232780153537E+04   -0.58097E-02   -0.63159E-02  5883   0.162E-01    0.202E-01
RMM:   3    -0.232780197414E+04   -0.43877E-03   -0.62596E-03  5363   0.619E-02    0.226E-01
RMM:   4    -0.232780151661E+04    0.45753E-03   -0.80871E-04  4434   0.165E-02    0.110E-01
RMM:   5    -0.232780157988E+04   -0.63270E-04   -0.51981E-04  4510   0.137E-02    0.122E-01
RMM:   6    -0.232780141104E+04    0.16884E-03   -0.28706E-04  4078   0.103E-02    0.421E-02
RMM:   7    -0.232780140177E+04    0.92705E-05   -0.73577E-05  2959   0.684E-03
 149 F= -.23492968E+04 E0= -.23492968E+04  d E =-.274520E-02  mag=     3.0000
       N       E                     dE             d eps       ncg     rms          rms(c)
DAV:   1    -0.232780108179E+04    0.32925E-03   -0.13560E-01  4624   0.322E-01    0.925E-02
RMM:   2    -0.232780177348E+04   -0.69170E-03   -0.74646E-03  5955   0.567E-02    0.844E-02
RMM:   3    -0.232780180960E+04   -0.36118E-04   -0.78011E-04  3526   0.213E-02    0.845E-02
RMM:   4    -0.232780174258E+04    0.67022E-04   -0.95855E-05  2972   0.697E-03    0.360E-02
RMM:   5    -0.232780174798E+04   -0.53996E-05   -0.66854E-05  3008   0.544E-03
 150 F= -.23492970E+04 E0= -.23492969E+04  d E =-.292351E-02  mag=     3.0000
