       N       E                     dE             d eps       ncg     rms          rms(c)
DAV:   1     0.124947847827E+05    0.12495E+05   -0.82186E+05  4416   0.143E+03
DAV:   2    -0.109406945769E+04   -0.13589E+05   -0.13042E+05  5376   0.329E+02
DAV:   3    -0.247910019799E+04   -0.13850E+04   -0.13737E+04  5272   0.108E+02
DAV:   4    -0.251729066724E+04   -0.38190E+02   -0.38012E+02  6376   0.252E+01
DAV:   5    -0.251800928281E+04   -0.71862E+00   -0.71771E+00  5472   0.283E+00    0.171E+02
RMM:   6    -0.147208357152E+04    0.10459E+04   -0.19473E+03  4356   0.388E+01    0.724E+01
RMM:   7    -0.164679446710E+04   -0.17471E+03   -0.27435E+02  4903   0.138E+01    0.477E+01
RMM:   8    -0.170742876156E+04   -0.60634E+02   -0.35660E+01  4950   0.696E+00    0.349E+01
RMM:   9    -0.185687711205E+04   -0.14945E+03   -0.68612E+01  4526   0.842E+00    0.219E+01
RMM:  10    -0.201542939440E+04   -0.15855E+03   -0.74779E+01  4507   0.778E+00    0.154E+01
RMM:  11    -0.214831858776E+04   -0.13289E+03   -0.85510E+01  4364   0.696E+00    0.113E+01
RMM:  12    -0.227642060346E+04   -0.12810E+03   -0.12080E+02  4401   0.781E+00    0.538E+00
RMM:  13    -0.230825975278E+04   -0.31839E+02   -0.35018E+01  4451   0.525E+00    0.351E+00
RMM:  14    -0.231462317975E+04   -0.63634E+01   -0.96141E+00  4827   0.217E+00    0.334E+00
RMM:  15    -0.231533810772E+04   -0.71493E+00   -0.10858E+00  5067   0.942E-01    0.336E+00
RMM:  16    -0.231546241631E+04   -0.12431E+00   -0.14472E-01  5453   0.255E-01    0.355E+00
RMM:  17    -0.231545782276E+04    0.45936E-02   -0.94890E-03  5775   0.756E-02    0.352E+00
RMM:  18    -0.231600467665E+04   -0.54685E+00   -0.10555E-01  4353   0.248E-01    0.299E+00
RMM:  19    -0.231722364059E+04   -0.12190E+01   -0.52020E-01  4356   0.527E-01    0.266E+00
RMM:  20    -0.231758038954E+04   -0.35675E+00   -0.28331E-01  4375   0.397E-01    0.231E+00
RMM:  21    -0.231709120166E+04    0.48919E+00   -0.63085E-01  4411   0.416E-01    0.261E+00
RMM:  22    -0.231563755488E+04    0.14536E+01   -0.76281E-01  4631   0.422E-01    0.380E+00
RMM:  23    -0.231501803585E+04    0.61952E+00   -0.14891E-01  5083   0.189E-01    0.420E+00
RMM:  24    -0.231703978757E+04   -0.20218E+01   -0.61492E-01  4537   0.320E-01    0.275E+00
RMM:  25    -0.231847879697E+04   -0.14390E+01   -0.15920E+00  4688   0.523E-01    0.687E-01
RMM:  26    -0.231857283830E+04   -0.94041E-01   -0.18294E-01  4930   0.284E-01    0.832E-01
RMM:  27    -0.231859161067E+04   -0.18772E-01   -0.41330E-02  5337   0.732E-02    0.115E+00
RMM:  28    -0.231859487016E+04   -0.32595E-02   -0.36914E-03  5109   0.350E-02    0.124E+00
RMM:  29    -0.231858164648E+04    0.13224E-01   -0.54123E-03  4486   0.373E-02    0.114E+00
RMM:  30    -0.231857782645E+04    0.38200E-02   -0.21733E-03  4336   0.300E-02    0.113E+00
RMM:  31    -0.231857876182E+04   -0.93537E-03   -0.21410E-04  3444   0.785E-03    0.113E+00
RMM:  32    -0.231857900671E+04   -0.24489E-03   -0.45269E-05  2843   0.551E-03    0.113E+00
RMM:  33    -0.231857622955E+04    0.27772E-02   -0.30344E-03  4529   0.272E-02    0.109E+00
RMM:  34    -0.231834514645E+04    0.23108E+00   -0.35478E-01  4614   0.336E-01    0.167E+00
RMM:  35    -0.231816619900E+04    0.17895E+00   -0.87893E-02  4599   0.177E-01    0.183E+00
RMM:  36    -0.231813583000E+04    0.30369E-01   -0.11450E-02  4730   0.540E-02    0.186E+00
RMM:  37    -0.231817150879E+04   -0.35679E-01   -0.38505E-03  4655   0.375E-02    0.188E+00
RMM:  38    -0.231847829546E+04   -0.30679E+00   -0.22248E-01  4437   0.216E-01    0.157E+00
RMM:  39    -0.231862971977E+04   -0.15142E+00   -0.38891E-01  4524   0.242E-01    0.125E+00
RMM:  40    -0.231865209053E+04   -0.22371E-01   -0.59265E-02  4736   0.127E-01    0.180E+00
RMM:  41    -0.231867029150E+04   -0.18201E-01   -0.31483E-02  4986   0.596E-02    0.191E+00
RMM:  42    -0.231866154399E+04    0.87475E-02   -0.31124E-03  4785   0.324E-02    0.187E+00
RMM:  43    -0.231865428257E+04    0.72614E-02   -0.26837E-03  4318   0.234E-02    0.187E+00
RMM:  44    -0.231865526569E+04   -0.98312E-03   -0.22031E-04  3073   0.102E-02    0.188E+00
RMM:  45    -0.231865579885E+04   -0.53317E-03   -0.44078E-05  2842   0.347E-03    0.187E+00
RMM:  46    -0.231866632283E+04   -0.10524E-01   -0.49352E-03  4442   0.301E-02    0.185E+00
RMM:  47    -0.231869323636E+04   -0.26914E-01   -0.24883E-02  4659   0.682E-02    0.182E+00
RMM:  48    -0.231869143576E+04    0.18006E-02   -0.18805E-03  4152   0.287E-02    0.180E+00
RMM:  49    -0.231868572263E+04    0.57131E-02   -0.84875E-04  3960   0.132E-02    0.182E+00
RMM:  50    -0.231866746668E+04    0.18256E-01   -0.28957E-02  4457   0.750E-02    0.204E+00
RMM:  51    -0.231866704302E+04    0.42366E-03   -0.28968E-03  4191   0.450E-02    0.213E+00
RMM:  52    -0.231866307790E+04    0.39651E-02   -0.44686E-03  4554   0.279E-02    0.200E+00
RMM:  53    -0.231864995970E+04    0.13118E-01   -0.46847E-03  4652   0.332E-02    0.189E+00
RMM:  54    -0.231864099685E+04    0.89628E-02   -0.99783E-03  4635   0.448E-02    0.171E+00
RMM:  55    -0.231772679495E+04    0.91420E+00   -0.10499E+00  4590   0.511E-01    0.267E+00
RMM:  56    -0.231745018371E+04    0.27661E+00   -0.11480E-01  4488   0.185E-01    0.288E+00
RMM:  57    -0.231742931615E+04    0.20868E-01   -0.13963E-02  4937   0.542E-02    0.293E+00
RMM:  58    -0.231758177391E+04   -0.15246E+00   -0.18174E-02  4438   0.672E-02    0.283E+00
RMM:  59    -0.231760270416E+04   -0.20930E-01   -0.19721E-03  3890   0.247E-02    0.280E+00
RMM:  60    -0.231751413077E+04    0.88573E-01   -0.50418E-03  4046   0.333E-02    0.291E+00
RMM:  61    -0.231809210376E+04   -0.57797E+00   -0.18016E-01  4524   0.181E-01    0.229E+00
RMM:  62    -0.231632275987E+04    0.17693E+01   -0.10085E+00  4508   0.464E-01    0.374E+00
RMM:  63    -0.231721377075E+04   -0.89101E+00   -0.14673E-01  4822   0.177E-01    0.302E+00
RMM:  64    -0.231760728902E+04   -0.39352E+00   -0.76500E-02  4598   0.138E-01    0.261E+00
RMM:  65    -0.231795544311E+04   -0.34815E+00   -0.10537E-01  4534   0.161E-01    0.228E+00
RMM:  66    -0.231826340483E+04   -0.30796E+00   -0.12458E-01  4690   0.173E-01    0.190E+00
RMM:  67    -0.231850967075E+04   -0.24627E+00   -0.22682E-01  4705   0.212E-01    0.151E+00
RMM:  68    -0.231860615729E+04   -0.96487E-01   -0.17250E-01  4735   0.169E-01    0.150E+00
RMM:  69    -0.231859988387E+04    0.62734E-02   -0.26027E-02  4715   0.709E-02    0.163E+00
RMM:  70    -0.231850074139E+04    0.99142E-01   -0.56326E-02  4530   0.111E-01    0.174E+00
RMM:  71    -0.231850235519E+04   -0.16138E-02   -0.49284E-03  4555   0.401E-02    0.162E+00
RMM:  72    -0.231821714303E+04    0.28521E+00   -0.15932E-01  4591   0.187E-01    0.201E+00
RMM:  73    -0.231802941145E+04    0.18773E+00   -0.68497E-02  4484   0.136E-01    0.221E+00
RMM:  74    -0.231819496052E+04   -0.16555E+00   -0.31319E-02  4506   0.900E-02    0.197E+00
RMM:  75    -0.231836641726E+04   -0.17146E+00   -0.84483E-02  4637   0.142E-01    0.166E+00
RMM:  76    -0.231811756047E+04    0.24886E+00   -0.90633E-02  4823   0.147E-01    0.205E+00
RMM:  77    -0.231808193620E+04    0.35624E-01   -0.67950E-03  4184   0.494E-02    0.209E+00
RMM:  78    -0.231806236607E+04    0.19570E-01   -0.14034E-03  3774   0.204E-02    0.211E+00
RMM:  79    -0.231798803001E+04    0.74336E-01   -0.81465E-03  4248   0.457E-02    0.219E+00
RMM:  80    -0.231812105998E+04   -0.13303E+00   -0.33701E-02  4382   0.829E-02    0.213E+00
RMM:  81    -0.231826611400E+04   -0.14505E+00   -0.36879E-02  4514   0.919E-02    0.194E+00
RMM:  82    -0.231856995089E+04   -0.30384E+00   -0.45804E-01  4552   0.250E-01    0.157E+00
RMM:  83    -0.231859736062E+04   -0.27410E-01   -0.40894E-02  4393   0.119E-01    0.156E+00
RMM:  84    -0.231859676203E+04    0.59859E-03   -0.90472E-03  4668   0.254E-02    0.158E+00
RMM:  85    -0.231861919172E+04   -0.22430E-01   -0.98537E-03  4484   0.449E-02    0.155E+00
RMM:  86    -0.231866287552E+04   -0.43684E-01   -0.39434E-02  4540   0.824E-02    0.160E+00
RMM:  87    -0.231867224719E+04   -0.93717E-02   -0.65951E-03  4397   0.431E-02    0.162E+00
RMM:  88    -0.231866584262E+04    0.64046E-02   -0.17157E-03  3717   0.192E-02    0.156E+00
RMM:  89    -0.231861840116E+04    0.47441E-01   -0.30496E-02  4418   0.776E-02    0.167E+00
RMM:  90    -0.231861747244E+04    0.92872E-03   -0.93309E-04  3507   0.168E-02    0.167E+00
RMM:  91    -0.231865889367E+04   -0.41421E-01   -0.33732E-02  4455   0.785E-02    0.165E+00
RMM:  92    -0.231865737259E+04    0.15211E-02   -0.17112E-03  3981   0.293E-02    0.167E+00
RMM:  93    -0.231865825800E+04   -0.88540E-03   -0.21028E-03  4164   0.209E-02    0.176E+00
RMM:  94    -0.231869162206E+04   -0.33364E-01   -0.33597E-02  4562   0.804E-02    0.178E+00
RMM:  95    -0.231869238333E+04   -0.76127E-03   -0.33283E-03  4282   0.388E-02    0.165E+00
RMM:  96    -0.231867549566E+04    0.16888E-01   -0.76265E-02  4470   0.135E-01    0.218E+00
RMM:  97    -0.231870134263E+04   -0.25847E-01   -0.17943E-02  4231   0.741E-02    0.205E+00
RMM:  98    -0.231871342420E+04   -0.12082E-01   -0.65635E-03  4252   0.457E-02    0.191E+00
RMM:  99    -0.231871781164E+04   -0.43874E-02   -0.22136E-03  4496   0.283E-02    0.190E+00
RMM: 100    -0.231871994069E+04   -0.21291E-02   -0.10075E-03  4307   0.152E-02    0.190E+00
RMM: 101    -0.231872815514E+04   -0.82144E-02   -0.40956E-03  4594   0.300E-02    0.180E+00
RMM: 102    -0.231874103907E+04   -0.12884E-01   -0.89920E-03  4604   0.427E-02    0.157E+00
RMM: 103    -0.231875163615E+04   -0.10597E-01   -0.25201E-02  4719   0.700E-02    0.162E+00
RMM: 104    -0.231875549810E+04   -0.38619E-02   -0.44240E-03  4371   0.344E-02    0.149E+00
RMM: 105    -0.231876219792E+04   -0.66998E-02   -0.32871E-03  4266   0.228E-02    0.130E+00
RMM: 106    -0.231876191617E+04    0.28175E-03   -0.29780E-02  4622   0.745E-02    0.143E+00
RMM: 107    -0.231875697537E+04    0.49408E-02   -0.10293E-02  4519   0.529E-02    0.156E+00
RMM: 108    -0.231876204263E+04   -0.50673E-02   -0.19026E-03  4689   0.171E-02    0.145E+00
RMM: 109    -0.231876738659E+04   -0.53440E-02   -0.88633E-04  4071   0.148E-02    0.133E+00
RMM: 110    -0.231876688263E+04    0.50396E-03   -0.52019E-04  3846   0.112E-02    0.139E+00
RMM: 111    -0.231878160495E+04   -0.14722E-01   -0.16775E-02  4422   0.551E-02    0.106E+00
RMM: 112    -0.231878147333E+04    0.13163E-03   -0.11023E-03  3906   0.280E-02    0.105E+00
RMM: 113    -0.231878188032E+04   -0.40699E-03   -0.29481E-04  3494   0.644E-03    0.105E+00
RMM: 114    -0.231878052206E+04    0.13583E-02   -0.68543E-05  2868   0.609E-03    0.109E+00
RMM: 115    -0.231877996636E+04    0.55570E-03   -0.26362E-05  2689   0.336E-03    0.110E+00
RMM: 116    -0.231878438978E+04   -0.44234E-02   -0.25510E-03  4217   0.219E-02    0.100E+00
RMM: 117    -0.231878293100E+04    0.14588E-02   -0.13624E-04  3093   0.938E-03    0.104E+00
RMM: 118    -0.231878372544E+04   -0.79445E-03   -0.42170E-05  2771   0.323E-03    0.101E+00
RMM: 119    -0.231878792076E+04   -0.41953E-02   -0.72335E-04  3761   0.122E-02    0.871E-01
RMM: 120    -0.231879344705E+04   -0.55263E-02   -0.34327E-03  4380   0.256E-02    0.577E-01
RMM: 121    -0.231879600608E+04   -0.25590E-02   -0.19162E-03  4084   0.213E-02    0.464E-01
RMM: 122    -0.231879609287E+04   -0.86796E-04   -0.21080E-03  4429   0.203E-02    0.348E-01
RMM: 123    -0.231879544529E+04    0.64759E-03   -0.75430E-04  3783   0.153E-02    0.365E-01
RMM: 124    -0.231879550417E+04   -0.58880E-04   -0.25370E-04  3372   0.770E-03    0.344E-01
RMM: 125    -0.231879654475E+04   -0.10406E-02   -0.61357E-04  3729   0.116E-02    0.292E-01
RMM: 126    -0.231879840189E+04   -0.18571E-02   -0.53632E-03  4322   0.327E-02    0.308E-01
RMM: 127    -0.231879931485E+04   -0.91295E-03   -0.10432E-03  3932   0.198E-02    0.241E-01
RMM: 128    -0.231879953914E+04   -0.22430E-03   -0.26779E-04  3174   0.693E-03    0.241E-01
RMM: 129    -0.231879978267E+04   -0.24353E-03   -0.86872E-04  3764   0.125E-02    0.297E-01
RMM: 130    -0.231880035798E+04   -0.57531E-03   -0.70175E-04  3692   0.122E-02    0.260E-01
RMM: 131    -0.231880003318E+04    0.32479E-03   -0.28366E-03  4073   0.223E-02    0.195E-01
RMM: 132    -0.231880002341E+04    0.97783E-05   -0.21388E-04  3092   0.104E-02    0.193E-01
RMM: 133    -0.231880036795E+04   -0.34455E-03   -0.23577E-04  3270   0.763E-03    0.157E-01
RMM: 134    -0.231880063169E+04   -0.26373E-03   -0.97807E-04  3919   0.139E-02    0.148E-01
RMM: 135    -0.231880059666E+04    0.35032E-04   -0.67316E-05  2804   0.637E-03    0.143E-01
RMM: 136    -0.231880068147E+04   -0.84809E-04   -0.71823E-05  2803   0.381E-03    0.130E-01
RMM: 137    -0.231880082941E+04   -0.14794E-03   -0.84094E-05  2895   0.471E-03    0.110E-01
RMM: 138    -0.231880101726E+04   -0.18785E-03   -0.19243E-04  3132   0.640E-03    0.769E-02
RMM: 139    -0.231880114720E+04   -0.12994E-03   -0.22087E-04  3080   0.712E-03    0.402E-02
RMM: 140    -0.231880119605E+04   -0.48850E-04   -0.12733E-04  2937   0.604E-03    0.206E-02
RMM: 141    -0.231880121419E+04   -0.18141E-04   -0.55354E-05  2778   0.469E-03    0.129E-02
RMM: 142    -0.231880122249E+04   -0.82967E-05   -0.21646E-05  2673   0.326E-03
   1 F= -.23389643E+04 E0= -.23389643E+04  d E =-.233896E+04  mag=     2.0015
       N       E                     dE             d eps       ncg     rms          rms(c)
DAV:   1    -0.231884227314E+04   -0.41059E-01   -0.48375E+00  4528   0.197E+00    0.477E-01
RMM:   2    -0.231885550363E+04   -0.13230E-01   -0.15848E-01  5557   0.277E-01    0.291E-01
RMM:   3    -0.231885421294E+04    0.12907E-02   -0.11362E-02  4767   0.117E-01    0.191E-01
RMM:   4    -0.231885376676E+04    0.44618E-03   -0.40187E-03  4757   0.399E-02    0.949E-02
RMM:   5    -0.231885364751E+04    0.11924E-03   -0.68886E-04  4561   0.255E-02    0.340E-02
RMM:   6    -0.231885362740E+04    0.20113E-04   -0.12640E-04  3763   0.762E-03    0.193E-02
RMM:   7    -0.231885362264E+04    0.47639E-05   -0.24720E-05  2931   0.557E-03
   2 F= -.23390174E+04 E0= -.23390174E+04  d E =-.530561E-01  mag=     2.0004
       N       E                     dE             d eps       ncg     rms          rms(c)
DAV:   1    -0.231885591478E+04   -0.22874E-02   -0.56901E-01  4768   0.668E-01    0.164E-01
RMM:   2    -0.231885750041E+04   -0.15856E-02   -0.18927E-02  5550   0.945E-02    0.101E-01
RMM:   3    -0.231885731751E+04    0.18290E-03   -0.11900E-03  4488   0.380E-02    0.651E-02
RMM:   4    -0.231885726260E+04    0.54914E-04   -0.48363E-04  4279   0.140E-02    0.324E-02
RMM:   5    -0.231885724801E+04    0.14584E-04   -0.67644E-05  3277   0.887E-03    0.144E-02
RMM:   6    -0.231885724419E+04    0.38163E-05   -0.16632E-05  2805   0.354E-03
   3 F= -.23390212E+04 E0= -.23390212E+04  d E =-.568999E-01  mag=     2.0001
       N       E                     dE             d eps       ncg     rms          rms(c)
DAV:   1    -0.231888510302E+04   -0.27855E-01   -0.62293E+00  4448   0.233E+00    0.475E-01
RMM:   2    -0.231890437846E+04   -0.19275E-01   -0.20643E-01  5512   0.327E-01    0.252E-01
RMM:   3    -0.231890323517E+04    0.11433E-02   -0.13880E-02  4752   0.134E-01    0.175E-01
RMM:   4    -0.231890282066E+04    0.41451E-03   -0.28515E-03  4830   0.351E-02    0.979E-02
RMM:   5    -0.231890268017E+04    0.14049E-03   -0.10386E-03  4675   0.262E-02    0.318E-02
RMM:   6    -0.231890266805E+04    0.12116E-04   -0.11689E-04  3855   0.988E-03    0.177E-02
RMM:   7    -0.231890266300E+04    0.50532E-05   -0.23294E-05  2901   0.515E-03
   4 F= -.23390672E+04 E0= -.23390672E+04  d E =-.460300E-01  mag=     2.0000
       N       E                     dE             d eps       ncg     rms          rms(c)
DAV:   1    -0.231886191370E+04    0.40754E-01   -0.28801E+01  4384   0.503E+00    0.102E+00
RMM:   2    -0.231895126521E+04   -0.89352E-01   -0.95522E-01  5555   0.712E-01    0.544E-01
RMM:   3    -0.231894651136E+04    0.47539E-02   -0.66714E-02  4797   0.274E-01    0.386E-01
RMM:   4    -0.231894457419E+04    0.19372E-02   -0.12742E-02  5065   0.738E-02    0.220E-01
RMM:   5    -0.231894381672E+04    0.75747E-03   -0.52293E-03  4916   0.542E-02    0.765E-02
RMM:   6    -0.231894373734E+04    0.79385E-04   -0.60444E-04  4921   0.225E-02    0.389E-02
RMM:   7    -0.231894371805E+04    0.19288E-04   -0.11105E-04  3558   0.745E-03    0.230E-02
RMM:   8    -0.231894371337E+04    0.46793E-05   -0.20970E-05  2890   0.489E-03
   5 F= -.23391095E+04 E0= -.23391095E+04  d E =-.883223E-01  mag=     2.0000
       N       E                     dE             d eps       ncg     rms          rms(c)
DAV:   1    -0.231895497960E+04   -0.11262E-01   -0.96091E+00  4416   0.298E+00    0.741E-01
RMM:   2    -0.231897821191E+04   -0.23232E-01   -0.26968E-01  5072   0.425E-01    0.369E-01
RMM:   3    -0.231897501575E+04    0.31962E-02   -0.14850E-02  4623   0.177E-01    0.231E-01
RMM:   4    -0.231897422519E+04    0.79056E-03   -0.71678E-03  4638   0.616E-02    0.102E-01
RMM:   5    -0.231897407959E+04    0.14560E-03   -0.73041E-04  4812   0.378E-02    0.424E-02
RMM:   6    -0.231897403838E+04    0.41214E-04   -0.23433E-04  4531   0.986E-03    0.233E-02
RMM:   7    -0.231897402578E+04    0.12596E-04   -0.28297E-05  2956   0.793E-03    0.132E-02
RMM:   8    -0.231897402006E+04    0.57226E-05   -0.20983E-05  2925   0.411E-03
   6 F= -.23391405E+04 E0= -.23391405E+04  d E =-.309562E-01  mag=     2.0000
       N       E                     dE             d eps       ncg     rms          rms(c)
DAV:   1    -0.231897402680E+04   -0.10193E-05   -0.60395E-02  5320   0.238E-01    0.585E-02
RMM:   2    -0.231897417245E+04   -0.14565E-03   -0.17395E-03  5446   0.360E-02    0.298E-02
RMM:   3    -0.231897415066E+04    0.21798E-04   -0.95374E-05  3602   0.137E-02    0.188E-02
RMM:   4    -0.231897414334E+04    0.73176E-05   -0.47454E-05  3354   0.564E-03
   7 F= -.23391407E+04 E0= -.23391407E+04  d E =-.311302E-01  mag=     2.0000
       N       E                     dE             d eps       ncg     rms          rms(c)
DAV:   1    -0.231898589547E+04   -0.11745E-01   -0.69459E+00  4416   0.256E+00    0.604E-01
RMM:   2    -0.231900135459E+04   -0.15459E-01   -0.18060E-01  4982   0.357E-01    0.300E-01
RMM:   3    -0.231899891236E+04    0.24422E-02   -0.89727E-03  4650   0.149E-01    0.185E-01
RMM:   4    -0.231899837504E+04    0.53732E-03   -0.53378E-03  4523   0.509E-02    0.691E-02
RMM:   5    -0.231899831401E+04    0.61024E-04   -0.36421E-04  4434   0.300E-02    0.344E-02
RMM:   6    -0.231899829106E+04    0.22954E-04   -0.17001E-04  4120   0.838E-03    0.190E-02
RMM:   7    -0.231899828420E+04    0.68552E-05   -0.17308E-05  2895   0.684E-03
   8 F= -.23391652E+04 E0= -.23391652E+04  d E =-.245334E-01  mag=     2.0000
       N       E                     dE             d eps       ncg     rms          rms(c)
DAV:   1    -0.231899728630E+04    0.10048E-02   -0.22104E+00  4480   0.144E+00    0.340E-01
RMM:   2    -0.231900221933E+04   -0.49330E-02   -0.57581E-02  4936   0.200E-01    0.168E-01
RMM:   3    -0.231900143910E+04    0.78023E-03   -0.27411E-03  4728   0.791E-02    0.104E-01
RMM:   4    -0.231900125637E+04    0.18273E-03   -0.16510E-03  4415   0.282E-02    0.389E-02
RMM:   5    -0.231900123347E+04    0.22901E-04   -0.10906E-04  3911   0.162E-02    0.196E-02
RMM:   6    -0.231900122435E+04    0.91176E-05   -0.55285E-05  3370   0.506E-03
   9 F= -.23391683E+04 E0= -.23391683E+04  d E =-.276829E-01  mag=     2.0000
       N       E                     dE             d eps       ncg     rms          rms(c)
DAV:   1    -0.231901196591E+04   -0.10732E-01   -0.51815E+00  4384   0.219E+00    0.488E-01
RMM:   2    -0.231902365557E+04   -0.11690E-01   -0.13084E-01  4871   0.300E-01    0.266E-01
RMM:   3    -0.231902215749E+04    0.14981E-02   -0.64513E-03  4496   0.130E-01    0.167E-01
RMM:   4    -0.231902185494E+04    0.30255E-03   -0.37542E-03  4440   0.446E-02    0.593E-02
RMM:   5    -0.231902182859E+04    0.26352E-04   -0.22543E-04  4186   0.267E-02    0.333E-02
RMM:   6    -0.231902181904E+04    0.95435E-05   -0.18270E-04  4041   0.933E-03    0.209E-02
RMM:   7    -0.231902181578E+04    0.32661E-05   -0.28287E-05  3056   0.770E-03
  10 F= -.23391889E+04 E0= -.23391889E+04  d E =-.205720E-01  mag=     2.0000
       N       E                     dE             d eps       ncg     rms          rms(c)
DAV:   1    -0.231901386340E+04    0.79556E-02   -0.70352E+00  4384   0.255E+00    0.569E-01
RMM:   2    -0.231902987000E+04   -0.16007E-01   -0.17891E-01  4817   0.349E-01    0.309E-01
RMM:   3    -0.231902775865E+04    0.21113E-02   -0.80433E-03  4593   0.141E-01    0.194E-01
RMM:   4    -0.231902733631E+04    0.42234E-03   -0.49638E-03  4436   0.512E-02    0.696E-02
RMM:   5    -0.231902729597E+04    0.40336E-04   -0.30771E-04  4298   0.299E-02    0.378E-02
RMM:   6    -0.231902728217E+04    0.13799E-04   -0.22557E-04  4121   0.104E-02    0.234E-02
RMM:   7    -0.231902727785E+04    0.43266E-05   -0.34228E-05  3151   0.850E-03
  11 F= -.23391943E+04 E0= -.23391943E+04  d E =-.259948E-01  mag=     2.0000
       N       E                     dE             d eps       ncg     rms          rms(c)
DAV:   1    -0.231903583183E+04   -0.85497E-02   -0.52490E+00  4384   0.221E+00    0.491E-01
RMM:   2    -0.231904658154E+04   -0.10750E-01   -0.12199E-01  4550   0.291E-01    0.264E-01
RMM:   3    -0.231904506943E+04    0.15121E-02   -0.56621E-03  4592   0.119E-01    0.166E-01
RMM:   4    -0.231904478349E+04    0.28595E-03   -0.35114E-03  4410   0.422E-02    0.607E-02
RMM:   5    -0.231904474090E+04    0.42581E-04   -0.26234E-04  4232   0.257E-02    0.278E-02
RMM:   6    -0.231904472736E+04    0.13546E-04   -0.98752E-05  3997   0.665E-03    0.142E-02
RMM:   7    -0.231904472669E+04    0.67306E-06   -0.95599E-06  2821   0.486E-03
  12 F= -.23392116E+04 E0= -.23392116E+04  d E =-.172588E-01  mag=     2.0000
       N       E                     dE             d eps       ncg     rms          rms(c)
DAV:   1    -0.231904362284E+04    0.11045E-02   -0.34236E+00  4400   0.178E+00    0.397E-01
RMM:   2    -0.231905059632E+04   -0.69735E-02   -0.79397E-02  4554   0.235E-01    0.214E-01
RMM:   3    -0.231904959177E+04    0.10045E-02   -0.36557E-03  4594   0.967E-02    0.134E-01
RMM:   4    -0.231904939421E+04    0.19756E-03   -0.22654E-03  4394   0.342E-02    0.493E-02
RMM:   5    -0.231904936632E+04    0.27892E-04   -0.17195E-04  4059   0.209E-02    0.223E-02
RMM:   6    -0.231904935710E+04    0.92222E-05   -0.64497E-05  3615   0.552E-03
  13 F= -.23392161E+04 E0= -.23392161E+04  d E =-.217298E-01  mag=     2.0000
       N       E                     dE             d eps       ncg     rms          rms(c)
DAV:   1    -0.231906346666E+04   -0.14100E-01   -0.38207E+00  4384   0.189E+00    0.442E-01
RMM:   2    -0.231907145267E+04   -0.79860E-02   -0.95466E-02  4818   0.259E-01    0.245E-01
RMM:   3    -0.231907017074E+04    0.12819E-02   -0.58232E-03  4568   0.115E-01    0.150E-01
RMM:   4    -0.231906992166E+04    0.24908E-03   -0.32452E-03  4478   0.391E-02    0.622E-02
RMM:   5    -0.231906986988E+04    0.51788E-04   -0.28078E-04  4307   0.252E-02    0.263E-02
RMM:   6    -0.231906985729E+04    0.12589E-04   -0.10479E-04  4099   0.640E-03    0.133E-02
RMM:   7    -0.231906985715E+04    0.13749E-06   -0.10543E-05  2828   0.481E-03
  14 F= -.23392366E+04 E0= -.23392366E+04  d E =-.205029E-01  mag=     2.0000
       N       E                     dE             d eps       ncg     rms          rms(c)
DAV:   1    -0.231907144353E+04   -0.15862E-02   -0.27536E+00  4400   0.160E+00    0.376E-01
RMM:   2    -0.231907722634E+04   -0.57828E-02   -0.69382E-02  4757   0.220E-01    0.209E-01
RMM:   3    -0.231907621809E+04    0.10082E-02   -0.41621E-03  4711   0.950E-02    0.127E-01
RMM:   4    -0.231907603140E+04    0.18669E-03   -0.21894E-03  4483   0.325E-02    0.543E-02
RMM:   5    -0.231907599019E+04    0.41205E-04   -0.19820E-04  4256   0.206E-02    0.222E-02
RMM:   6    -0.231907598175E+04    0.84438E-05   -0.70770E-05  3677   0.532E-03
  15 F= -.23392427E+04 E0= -.23392427E+04  d E =-.266257E-01  mag=     2.0000
       N       E                     dE             d eps       ncg     rms          rms(c)
DAV:   1    -0.231908596452E+04   -0.99743E-02   -0.48886E+00  4384   0.214E+00    0.560E-01
RMM:   2    -0.231909508583E+04   -0.91213E-02   -0.11303E-01  4658   0.295E-01    0.279E-01
RMM:   3    -0.231909335192E+04    0.17339E-02   -0.66127E-03  4574   0.132E-01    0.168E-01
RMM:   4    -0.231909300185E+04    0.35008E-03   -0.43067E-03  4433   0.465E-02    0.672E-02
RMM:   5    -0.231909293312E+04    0.68726E-04   -0.32789E-04  4351   0.299E-02    0.305E-02
RMM:   6    -0.231909290653E+04    0.26588E-04   -0.13181E-04  4315   0.755E-03    0.162E-02
RMM:   7    -0.231909289991E+04    0.66234E-05   -0.14938E-05  2835   0.605E-03
  16 F= -.23392593E+04 E0= -.23392593E+04  d E =-.166370E-01  mag=     2.0000
       N       E                     dE             d eps       ncg     rms          rms(c)
DAV:   1    -0.231909346498E+04   -0.55844E-03   -0.76571E-01  4544   0.847E-01    0.221E-01
RMM:   2    -0.231909488449E+04   -0.14195E-02   -0.17761E-02  4671   0.116E-01    0.111E-01
RMM:   3    -0.231909460137E+04    0.28312E-03   -0.10347E-03  4681   0.497E-02    0.672E-02
RMM:   4    -0.231909453959E+04    0.61787E-04   -0.65491E-04  4323   0.181E-02    0.285E-02
RMM:   5    -0.231909452509E+04    0.14498E-04   -0.52442E-05  3250   0.117E-02    0.128E-02
RMM:   6    -0.231909451972E+04    0.53686E-05   -0.20529E-05  2887   0.356E-03
  17 F= -.23392608E+04 E0= -.23392608E+04  d E =-.181420E-01  mag=     2.0000
       N       E                     dE             d eps       ncg     rms          rms(c)
DAV:   1    -0.231910590447E+04   -0.11379E-01   -0.36709E+00  4384   0.182E+00    0.432E-01
RMM:   2    -0.231911267774E+04   -0.67733E-02   -0.81202E-02  4635   0.245E-01    0.247E-01
RMM:   3    -0.231911150492E+04    0.11728E-02   -0.42104E-03  4518   0.107E-01    0.148E-01
RMM:   4    -0.231911127072E+04    0.23420E-03   -0.27250E-03  4396   0.379E-02    0.487E-02
RMM:   5    -0.231911125154E+04    0.19180E-04   -0.17499E-04  4130   0.242E-02    0.235E-02
RMM:   6    -0.231911124112E+04    0.10425E-04   -0.12681E-04  3993   0.785E-03    0.141E-02
RMM:   7    -0.231911123776E+04    0.33522E-05   -0.12508E-05  2843   0.614E-03
  18 F= -.23392773E+04 E0= -.23392773E+04  d E =-.164558E-01  mag=     2.0000
       N       E                     dE             d eps       ncg     rms          rms(c)
DAV:   1    -0.231910891520E+04    0.23259E-02   -0.77387E+00  4384   0.264E+00    0.626E-01
RMM:   2    -0.231912329127E+04   -0.14376E-01   -0.17244E-01  4595   0.355E-01    0.359E-01
RMM:   3    -0.231912076962E+04    0.25217E-02   -0.89842E-03  4683   0.147E-01    0.217E-01
RMM:   4    -0.231912025307E+04    0.51654E-03   -0.54986E-03  4407   0.538E-02    0.802E-02
RMM:   5    -0.231912019471E+04    0.58365E-04   -0.44730E-04  4346   0.350E-02    0.340E-02
RMM:   6    -0.231912016744E+04    0.27266E-04   -0.20255E-04  4242   0.960E-03    0.184E-02
RMM:   7    -0.231912016164E+04    0.57990E-05   -0.19712E-05  2880   0.770E-03
  19 F= -.23392858E+04 E0= -.23392858E+04  d E =-.249781E-01  mag=     2.0000
       N       E                     dE             d eps       ncg     rms          rms(c)
DAV:   1    -0.231912829658E+04   -0.81291E-02   -0.37536E+00  4384   0.183E+00    0.452E-01
RMM:   2    -0.231913728557E+04   -0.89890E-02   -0.10260E-01  5047   0.252E-01    0.257E-01
RMM:   3    -0.231913620725E+04    0.10783E-02   -0.57978E-03  4735   0.103E-01    0.155E-01
RMM:   4    -0.231913594954E+04    0.25770E-03   -0.24515E-03  4471   0.341E-02    0.587E-02
RMM:   5    -0.231913593644E+04    0.13104E-04   -0.22870E-04  4130   0.228E-02    0.211E-02
RMM:   6    -0.231913592840E+04    0.80430E-05   -0.54059E-05  3325   0.516E-03
  20 F= -.23393012E+04 E0= -.23393012E+04  d E =-.154002E-01  mag=     2.0000
       N       E                     dE             d eps       ncg     rms          rms(c)
DAV:   1    -0.231913042766E+04    0.55088E-02   -0.65431E+00  4384   0.241E+00    0.597E-01
RMM:   2    -0.231914605290E+04   -0.15625E-01   -0.17850E-01  5125   0.334E-01    0.339E-01
RMM:   3    -0.231914425449E+04    0.17984E-02   -0.10170E-02  4719   0.134E-01    0.206E-01
RMM:   4    -0.231914379410E+04    0.46039E-03   -0.42183E-03  4504   0.447E-02    0.798E-02
RMM:   5    -0.231914376453E+04    0.29573E-04   -0.42361E-04  4397   0.300E-02    0.280E-02
RMM:   6    -0.231914375047E+04    0.14058E-04   -0.10009E-04  3888   0.666E-03    0.168E-02
RMM:   7    -0.231914374545E+04    0.50130E-05   -0.13103E-05  2841   0.545E-03
  21 F= -.23393085E+04 E0= -.23393085E+04  d E =-.227207E-01  mag=     2.0000
       N       E                     dE             d eps       ncg     rms          rms(c)
DAV:   1    -0.231914833719E+04   -0.45867E-02   -0.46636E+00  4384   0.198E+00    0.522E-01
RMM:   2    -0.231916195956E+04   -0.13622E-01   -0.15233E-01  5300   0.280E-01    0.299E-01
RMM:   3    -0.231916100184E+04    0.95772E-03   -0.99500E-03  4687   0.125E-01    0.183E-01
RMM:   4    -0.231916067463E+04    0.32720E-03   -0.33827E-03  4515   0.375E-02    0.751E-02
RMM:   5    -0.231916065781E+04    0.16817E-04   -0.35777E-04  4292   0.261E-02    0.288E-02
RMM:   6    -0.231916064590E+04    0.11917E-04   -0.77397E-05  3542   0.568E-03    0.176E-02
RMM:   7    -0.231916064236E+04    0.35388E-05   -0.15884E-05  2860   0.494E-03
  22 F= -.23393248E+04 E0= -.23393248E+04  d E =-.163127E-01  mag=     2.0000
       N       E                     dE             d eps       ncg     rms          rms(c)
DAV:   1    -0.231915810553E+04    0.25404E-02   -0.30376E+00  4400   0.160E+00    0.421E-01
RMM:   2    -0.231916696107E+04   -0.88555E-02   -0.99125E-02  5304   0.226E-01    0.241E-01
RMM:   3    -0.231916628755E+04    0.67353E-03   -0.62372E-03  4690   0.977E-02    0.147E-01
RMM:   4    -0.231916606848E+04    0.21907E-03   -0.22502E-03  4506   0.302E-02    0.591E-02
RMM:   5    -0.231916605717E+04    0.11309E-04   -0.21485E-04  4098   0.210E-02    0.239E-02
RMM:   6    -0.231916604823E+04    0.89447E-05   -0.49259E-05  3250   0.483E-03
  23 F= -.23393298E+04 E0= -.23393298E+04  d E =-.212458E-01  mag=     2.0000
       N       E                     dE             d eps       ncg     rms          rms(c)
DAV:   1    -0.231917303138E+04   -0.69742E-02   -0.53901E+00  4384   0.215E+00    0.589E-01
RMM:   2    -0.231918817136E+04   -0.15140E-01   -0.17172E-01  5289   0.304E-01    0.332E-01
RMM:   3    -0.231918692272E+04    0.12486E-02   -0.10897E-02  4703   0.130E-01    0.201E-01
RMM:   4    -0.231918658086E+04    0.34185E-03   -0.40003E-03  4538   0.414E-02    0.813E-02
RMM:   5    -0.231918655412E+04    0.26739E-04   -0.42263E-04  4392   0.286E-02    0.290E-02
RMM:   6    -0.231918654246E+04    0.11662E-04   -0.84038E-05  3675   0.607E-03    0.171E-02
RMM:   7    -0.231918653996E+04    0.25060E-05   -0.14276E-05  2852   0.511E-03
  24 F= -.23393495E+04 E0= -.23393495E+04  d E =-.197235E-01  mag=     2.0000
       N       E                     dE             d eps       ncg     rms          rms(c)
DAV:   1    -0.231918197506E+04    0.45674E-02   -0.50810E+00  4384   0.208E+00    0.571E-01
RMM:   2    -0.231919609354E+04   -0.14118E-01   -0.16071E-01  5251   0.293E-01    0.322E-01
RMM:   3    -0.231919494791E+04    0.11456E-02   -0.10447E-02  4683   0.127E-01    0.195E-01
RMM:   4    -0.231919462099E+04    0.32692E-03   -0.37607E-03  4545   0.403E-02    0.795E-02
RMM:   5    -0.231919459697E+04    0.24023E-04   -0.40342E-04  4355   0.278E-02    0.283E-02
RMM:   6    -0.231919458560E+04    0.11369E-04   -0.81418E-05  3670   0.597E-03    0.165E-02
RMM:   7    -0.231919458329E+04    0.23074E-05   -0.13424E-05  2853   0.510E-03
  25 F= -.23393568E+04 E0= -.23393568E+04  d E =-.270265E-01  mag=     2.0000
       N       E                     dE             d eps       ncg     rms          rms(c)
DAV:   1    -0.231920390898E+04   -0.93234E-02   -0.43183E+00  4384   0.190E+00    0.489E-01
RMM:   2    -0.231921345355E+04   -0.95446E-02   -0.11157E-01  5035   0.257E-01    0.285E-01
RMM:   3    -0.231921218801E+04    0.12655E-02   -0.67619E-03  4684   0.106E-01    0.170E-01
RMM:   4    -0.231921193889E+04    0.24912E-03   -0.28623E-03  4519   0.350E-02    0.682E-02
RMM:   5    -0.231921191271E+04    0.26177E-04   -0.33146E-04  4259   0.246E-02    0.266E-02
RMM:   6    -0.231921190079E+04    0.11922E-04   -0.64131E-05  3376   0.513E-03    0.163E-02
RMM:   7    -0.231921189795E+04    0.28421E-05   -0.13650E-05  2856   0.405E-03
  26 F= -.23393734E+04 E0= -.23393734E+04  d E =-.165766E-01  mag=     2.0000
       N       E                     dE             d eps       ncg     rms          rms(c)
DAV:   1    -0.231921093124E+04    0.96955E-03   -0.64111E+00  4384   0.231E+00    0.596E-01
RMM:   2    -0.231922490195E+04   -0.13971E-01   -0.16442E-01  5072   0.312E-01    0.348E-01
RMM:   3    -0.231922309364E+04    0.18083E-02   -0.10596E-02  4665   0.133E-01    0.207E-01
RMM:   4    -0.231922271985E+04    0.37380E-03   -0.42596E-03  4542   0.424E-02    0.863E-02
RMM:   5    -0.231922266698E+04    0.52866E-04   -0.51638E-04  4446   0.300E-02    0.320E-02
RMM:   6    -0.231922264874E+04    0.18245E-04   -0.10591E-04  3826   0.621E-03    0.200E-02
RMM:   7    -0.231922264340E+04    0.53316E-05   -0.22791E-05  2894   0.524E-03
  27 F= -.23393832E+04 E0= -.23393832E+04  d E =-.264209E-01  mag=     2.0000
       N       E                     dE             d eps       ncg     rms          rms(c)
DAV:   1    -0.231922236791E+04    0.28083E-03   -0.75529E-01  4544   0.790E-01    0.205E-01
RMM:   2    -0.231922397869E+04   -0.16108E-02   -0.19197E-02  5151   0.107E-01    0.120E-01
RMM:   3    -0.231922376162E+04    0.21707E-03   -0.11747E-03  4657   0.431E-02    0.704E-02
RMM:   4    -0.231922371460E+04    0.47020E-04   -0.52243E-04  4257   0.149E-02    0.270E-02
RMM:   5    -0.231922371106E+04    0.35442E-05   -0.50886E-05  3091   0.101E-02
  28 F= -.23393840E+04 E0= -.23393840E+04  d E =-.271791E-01  mag=     2.0000
       N       E                     dE             d eps       ncg     rms          rms(c)
DAV:   1    -0.231923101100E+04   -0.72964E-02   -0.50810E+00  4384   0.201E+00    0.507E-01
RMM:   2    -0.231924123492E+04   -0.10224E-01   -0.12061E-01  4922   0.270E-01    0.307E-01
RMM:   3    -0.231923980960E+04    0.14253E-02   -0.75871E-03  4647   0.113E-01    0.181E-01
RMM:   4    -0.231923957896E+04    0.23064E-03   -0.35225E-03  4544   0.383E-02    0.725E-02
RMM:   5    -0.231923953939E+04    0.39570E-04   -0.37443E-04  4260   0.263E-02    0.271E-02
RMM:   6    -0.231923952573E+04    0.13660E-04   -0.91658E-05  3849   0.607E-03    0.154E-02
RMM:   7    -0.231923952253E+04    0.31953E-05   -0.13286E-05  2846   0.451E-03
  29 F= -.23393993E+04 E0= -.23393993E+04  d E =-.152845E-01  mag=     2.0000
       N       E                     dE             d eps       ncg     rms          rms(c)
DAV:   1    -0.231923318606E+04    0.63397E-02   -0.93838E+00  4384   0.273E+00    0.689E-01
RMM:   2    -0.231925200603E+04   -0.18820E-01   -0.22308E-01  4935   0.367E-01    0.418E-01
RMM:   3    -0.231924930968E+04    0.26963E-02   -0.14940E-02  4709   0.153E-01    0.247E-01
RMM:   4    -0.231924884291E+04    0.46677E-03   -0.63782E-03  4568   0.512E-02    0.101E-01
RMM:   5    -0.231924876788E+04    0.75029E-04   -0.70249E-04  4540   0.347E-02    0.359E-02
RMM:   6    -0.231924874272E+04    0.25159E-04   -0.16031E-04  4389   0.779E-03    0.202E-02
RMM:   7    -0.231924873616E+04    0.65606E-05   -0.24828E-05  2923   0.589E-03
  30 F= -.23394077E+04 E0= -.23394077E+04  d E =-.237665E-01  mag=     2.0000
       N       E                     dE             d eps       ncg     rms          rms(c)
DAV:   1    -0.231925787036E+04   -0.91276E-02   -0.30923E+00  4384   0.160E+00    0.422E-01
RMM:   2    -0.231926427661E+04   -0.64063E-02   -0.75813E-02  4898   0.218E-01    0.242E-01
RMM:   3    -0.231926332940E+04    0.94721E-03   -0.47830E-03  4701   0.925E-02    0.141E-01
RMM:   4    -0.231926316093E+04    0.16847E-03   -0.21298E-03  4529   0.311E-02    0.561E-02
RMM:   5    -0.231926313092E+04    0.30017E-04   -0.21606E-04  4175   0.204E-02    0.200E-02
RMM:   6    -0.231926312010E+04    0.10812E-04   -0.55309E-05  3420   0.498E-03    0.114E-02
RMM:   7    -0.231926311707E+04    0.30370E-05   -0.87517E-06  2819   0.352E-03
  31 F= -.23394219E+04 E0= -.23394219E+04  d E =-.141099E-01  mag=     2.0000
       N       E                     dE             d eps       ncg     rms          rms(c)
DAV:   1    -0.231926378496E+04   -0.66486E-03   -0.55736E+00  4384   0.215E+00    0.566E-01
RMM:   2    -0.231927536296E+04   -0.11578E-01   -0.13728E-01  4924   0.294E-01    0.324E-01
RMM:   3    -0.231927363698E+04    0.17260E-02   -0.88843E-03  4650   0.128E-01    0.190E-01
RMM:   4    -0.231927331728E+04    0.31970E-03   -0.39557E-03  4560   0.421E-02    0.759E-02
RMM:   5    -0.231927325713E+04    0.60155E-04   -0.41240E-04  4433   0.280E-02    0.269E-02
RMM:   6    -0.231927323751E+04    0.19616E-04   -0.10448E-04  4152   0.650E-03    0.155E-02
RMM:   7    -0.231927323164E+04    0.58716E-05   -0.14964E-05  2843   0.506E-03
  32 F= -.23394316E+04 E0= -.23394316E+04  d E =-.238460E-01  mag=     2.0000
       N       E                     dE             d eps       ncg     rms          rms(c)
DAV:   1    -0.231927291530E+04    0.32221E-03   -0.79423E-01  4480   0.812E-01    0.214E-01
RMM:   2    -0.231927457834E+04   -0.16630E-02   -0.19758E-02  4937   0.111E-01    0.123E-01
RMM:   3    -0.231927431219E+04    0.26615E-03   -0.11745E-03  4736   0.449E-02    0.716E-02
RMM:   4    -0.231927426347E+04    0.48718E-04   -0.55721E-04  4329   0.159E-02    0.272E-02
RMM:   5    -0.231927425601E+04    0.74547E-05   -0.51875E-05  3124   0.103E-02
  33 F= -.23394325E+04 E0= -.23394325E+04  d E =-.247232E-01  mag=     2.0000
       N       E                     dE             d eps       ncg     rms          rms(c)
DAV:   1    -0.231928162484E+04   -0.73614E-02   -0.27186E+00  4384   0.152E+00    0.399E-01
RMM:   2    -0.231928698112E+04   -0.53563E-02   -0.64041E-02  4750   0.205E-01    0.219E-01
RMM:   3    -0.231928606560E+04    0.91552E-03   -0.35582E-03  4615   0.869E-02    0.128E-01
RMM:   4    -0.231928591683E+04    0.14876E-03   -0.18339E-03  4462   0.290E-02    0.485E-02
RMM:   5    -0.231928590115E+04    0.15687E-04   -0.16186E-04  3940   0.190E-02    0.185E-02
RMM:   6    -0.231928589333E+04    0.78192E-05   -0.38243E-05  3061   0.427E-03
  34 F= -.23394436E+04 E0= -.23394436E+04  d E =-.111696E-01  mag=     2.0000
       N       E                     dE             d eps       ncg     rms          rms(c)
DAV:   1    -0.231927362145E+04    0.12280E-01   -0.13458E+01  4384   0.338E+00    0.886E-01
RMM:   2    -0.231929979012E+04   -0.26169E-01   -0.31516E-01  4712   0.454E-01    0.484E-01
RMM:   3    -0.231929535375E+04    0.44364E-02   -0.18640E-02  4642   0.194E-01    0.286E-01
RMM:   4    -0.231929458954E+04    0.76422E-03   -0.89816E-03  4491   0.637E-02    0.113E-01
RMM:   5    -0.231929449209E+04    0.97443E-04   -0.86812E-04  4537   0.431E-02    0.404E-02
RMM:   6    -0.231929445560E+04    0.36491E-04   -0.18928E-04  4608   0.850E-03    0.238E-02
RMM:   7    -0.231929444529E+04    0.10313E-04   -0.33066E-05  2939   0.670E-03    0.137E-02
RMM:   8    -0.231929444390E+04    0.13889E-05   -0.19643E-05  2889   0.384E-03
  35 F= -.23394511E+04 E0= -.23394511E+04  d E =-.186444E-01  mag=     2.0000
       N       E                     dE             d eps       ncg     rms          rms(c)
DAV:   1    -0.231929840198E+04   -0.39567E-02   -0.53134E+00  4384   0.206E+00    0.506E-01
RMM:   2    -0.231930831050E+04   -0.99085E-02   -0.11941E-01  4816   0.272E-01    0.304E-01
RMM:   3    -0.231930662398E+04    0.16865E-02   -0.67014E-03  4577   0.125E-01    0.177E-01
RMM:   4    -0.231930637082E+04    0.25316E-03   -0.37859E-03  4438   0.398E-02    0.620E-02
RMM:   5    -0.231930634523E+04    0.25598E-04   -0.27273E-04  4129   0.254E-02    0.269E-02
RMM:   6    -0.231930633226E+04    0.12971E-04   -0.99025E-05  3808   0.647E-03    0.153E-02
RMM:   7    -0.231930633139E+04    0.86991E-06   -0.10544E-05  2834   0.483E-03
  36 F= -.23394622E+04 E0= -.23394622E+04  d E =-.110477E-01  mag=     2.0000
       N       E                     dE             d eps       ncg     rms          rms(c)
DAV:   1    -0.231930489910E+04    0.14332E-02   -0.44878E+00  4384   0.189E+00    0.464E-01
RMM:   2    -0.231931337302E+04   -0.84739E-02   -0.10189E-01  4737   0.250E-01    0.280E-01
RMM:   3    -0.231931187505E+04    0.14980E-02   -0.55422E-03  4676   0.109E-01    0.163E-01
RMM:   4    -0.231931165186E+04    0.22319E-03   -0.31173E-03  4425   0.363E-02    0.582E-02
RMM:   5    -0.231931162752E+04    0.24340E-04   -0.22820E-04  4080   0.227E-02    0.245E-02
RMM:   6    -0.231931161689E+04    0.10622E-04   -0.78482E-05  3620   0.581E-03    0.139E-02
RMM:   7    -0.231931161602E+04    0.87786E-06   -0.92477E-06  2824   0.416E-03
  37 F= -.23394667E+04 E0= -.23394667E+04  d E =-.155473E-01  mag=     2.0000
       N       E                     dE             d eps       ncg     rms          rms(c)
DAV:   1    -0.231931907902E+04   -0.74621E-02   -0.83371E-01  4528   0.915E-01    0.307E-01
RMM:   2    -0.231932118619E+04   -0.21072E-02   -0.26575E-02  4949   0.139E-01    0.134E-01
RMM:   3    -0.231932076136E+04    0.42483E-03   -0.15367E-03  4657   0.641E-02    0.770E-02
RMM:   4    -0.231932067671E+04    0.84648E-04   -0.93685E-04  4449   0.228E-02    0.295E-02
RMM:   5    -0.231932066809E+04    0.86193E-05   -0.56265E-05  3499   0.140E-02
  38 F= -.23394756E+04 E0= -.23394756E+04  d E =-.896001E-02  mag=     2.0000
       N       E                     dE             d eps       ncg     rms          rms(c)
DAV:   1    -0.231932167827E+04   -0.10016E-02   -0.36879E-01  4576   0.612E-01    0.206E-01
RMM:   2    -0.231932262069E+04   -0.94242E-03   -0.11937E-02  5025   0.938E-02    0.917E-02
RMM:   3    -0.231932242596E+04    0.19473E-03   -0.71534E-04  4564   0.420E-02    0.531E-02
RMM:   4    -0.231932238408E+04    0.41873E-04   -0.44580E-04  4361   0.158E-02    0.209E-02
RMM:   5    -0.231932237864E+04    0.54391E-05   -0.27569E-05  3028   0.969E-03
  39 F= -.23394773E+04 E0= -.23394773E+04  d E =-.106093E-01  mag=     2.0000
       N       E                     dE             d eps       ncg     rms          rms(c)
DAV:   1    -0.231932794390E+04   -0.55598E-02   -0.10313E+00  4432   0.104E+00    0.275E-01
RMM:   2    -0.231933047981E+04   -0.25359E-02   -0.29619E-02  5029   0.148E-01    0.125E-01
RMM:   3    -0.231933010743E+04    0.37238E-03   -0.14717E-03  4620   0.617E-02    0.762E-02
RMM:   4    -0.231933001915E+04    0.88286E-04   -0.80003E-04  4461   0.213E-02    0.294E-02
RMM:   5    -0.231933001187E+04    0.72746E-05   -0.52849E-05  3417   0.129E-02
  40 F= -.23394847E+04 E0= -.23394847E+04  d E =-.746769E-02  mag=     2.0000
       N       E                     dE             d eps       ncg     rms          rms(c)
DAV:   1    -0.231932847682E+04    0.15423E-02   -0.22383E+00  4400   0.153E+00    0.407E-01
RMM:   2    -0.231933397531E+04   -0.54985E-02   -0.64486E-02  5006   0.218E-01    0.185E-01
RMM:   3    -0.231933314879E+04    0.82653E-03   -0.31535E-03  4673   0.886E-02    0.113E-01
RMM:   4    -0.231933293283E+04    0.21596E-03   -0.17456E-03  4470   0.314E-02    0.435E-02
RMM:   5    -0.231933291470E+04    0.18130E-04   -0.12192E-04  4084   0.193E-02    0.206E-02
RMM:   6    -0.231933290212E+04    0.12579E-04   -0.74604E-05  3888   0.619E-03    0.127E-02
RMM:   7    -0.231933289760E+04    0.45229E-05   -0.88547E-06  2811   0.518E-03
  41 F= -.23394874E+04 E0= -.23394874E+04  d E =-.101063E-01  mag=     2.0000
       N       E                     dE             d eps       ncg     rms          rms(c)
DAV:   1    -0.231933583398E+04   -0.29319E-02   -0.16104E+00  4416   0.128E+00    0.315E-01
RMM:   2    -0.231933915202E+04   -0.33180E-02   -0.39405E-02  4612   0.179E-01    0.150E-01
RMM:   3    -0.231933859512E+04    0.55690E-03   -0.19111E-03  4585   0.758E-02    0.919E-02
RMM:   4    -0.231933847697E+04    0.11815E-03   -0.11640E-03  4395   0.265E-02    0.326E-02
RMM:   5    -0.231933847041E+04    0.65626E-05   -0.76997E-05  3760   0.167E-02
  42 F= -.23394928E+04 E0= -.23394928E+04  d E =-.538526E-02  mag=     2.0000
       N       E                     dE             d eps       ncg     rms          rms(c)
DAV:   1    -0.231933843037E+04    0.46606E-04   -0.38461E-01  4608   0.628E-01    0.156E-01
RMM:   2    -0.231933923434E+04   -0.80397E-03   -0.95702E-03  4643   0.887E-02    0.772E-02
RMM:   3    -0.231933910035E+04    0.13399E-03   -0.52012E-04  4441   0.385E-02    0.472E-02
RMM:   4    -0.231933906992E+04    0.30423E-04   -0.30435E-04  4214   0.136E-02    0.183E-02
RMM:   5    -0.231933906698E+04    0.29390E-05   -0.21753E-05  2909   0.883E-03
  43 F= -.23394933E+04 E0= -.23394933E+04  d E =-.588854E-02  mag=     2.0000
       N       E                     dE             d eps       ncg     rms          rms(c)
DAV:   1    -0.231934148352E+04   -0.24136E-02   -0.89680E-01  4416   0.973E-01    0.260E-01
RMM:   2    -0.231934481786E+04   -0.33343E-02   -0.36513E-02  5303   0.147E-01    0.121E-01
RMM:   3    -0.231934463331E+04    0.18455E-03   -0.23653E-03  4629   0.646E-02    0.757E-02
RMM:   4    -0.231934456612E+04    0.67182E-04   -0.65212E-04  4576   0.179E-02    0.372E-02
RMM:   5    -0.231934455240E+04    0.13726E-04   -0.10023E-04  3817   0.126E-02    0.113E-02
RMM:   6    -0.231934455113E+04    0.12658E-05   -0.16677E-05  2850   0.406E-03
  44 F= -.23394989E+04 E0= -.23394989E+04  d E =-.561491E-02  mag=     2.0000
       N       E                     dE             d eps       ncg     rms          rms(c)
DAV:   1    -0.231934189437E+04    0.26580E-02   -0.11359E+00  4416   0.110E+00    0.293E-01
RMM:   2    -0.231934612932E+04   -0.42350E-02   -0.46296E-02  5366   0.166E-01    0.136E-01
RMM:   3    -0.231934591294E+04    0.21638E-03   -0.30912E-03  4796   0.704E-02    0.861E-02
RMM:   4    -0.231934582872E+04    0.84218E-04   -0.78993E-04  4689   0.197E-02    0.438E-02
RMM:   5    -0.231934580728E+04    0.21439E-04   -0.14177E-04  4128   0.134E-02    0.133E-02
RMM:   6    -0.231934580492E+04    0.23555E-05   -0.21904E-05  2880   0.457E-03
  45 F= -.23395003E+04 E0= -.23395003E+04  d E =-.701345E-02  mag=     2.0000
       N       E                     dE             d eps       ncg     rms          rms(c)
DAV:   1    -0.231934700592E+04   -0.11986E-02   -0.50216E-01  4448   0.731E-01    0.185E-01
RMM:   2    -0.231934915779E+04   -0.21519E-02   -0.23091E-02  5464   0.111E-01    0.915E-02
RMM:   3    -0.231934912772E+04    0.30066E-04   -0.16883E-03  4647   0.488E-02    0.592E-02
RMM:   4    -0.231934909514E+04    0.32574E-04   -0.35148E-04  4397   0.125E-02    0.321E-02
RMM:   5    -0.231934908418E+04    0.10967E-04   -0.75066E-05  3437   0.936E-03    0.960E-03
RMM:   6    -0.231934908401E+04    0.16543E-06   -0.13236E-05  2829   0.442E-03
  46 F= -.23395037E+04 E0= -.23395037E+04  d E =-.342813E-02  mag=     2.0000
       N       E                     dE             d eps       ncg     rms          rms(c)
DAV:   1    -0.231934530744E+04    0.37767E-02   -0.13386E+00  4400   0.119E+00    0.302E-01
RMM:   2    -0.231935099824E+04   -0.56908E-02   -0.61082E-02  5522   0.182E-01    0.150E-01
RMM:   3    -0.231935096091E+04    0.37333E-04   -0.49705E-03  4694   0.800E-02    0.986E-02
RMM:   4    -0.231935087412E+04    0.86787E-04   -0.91133E-04  4745   0.196E-02    0.545E-02
RMM:   5    -0.231935084090E+04    0.33221E-04   -0.22780E-04  4264   0.145E-02    0.170E-02
RMM:   6    -0.231935083876E+04    0.21483E-05   -0.32977E-05  3055   0.580E-03
  47 F= -.23395057E+04 E0= -.23395057E+04  d E =-.542539E-02  mag=     2.0000
       N       E                     dE             d eps       ncg     rms          rms(c)
DAV:   1    -0.231935281813E+04   -0.19772E-02   -0.13856E-01  4544   0.380E-01    0.108E-01
RMM:   2    -0.231935316094E+04   -0.34281E-03   -0.41701E-03  5115   0.593E-02    0.528E-02
RMM:   3    -0.231935309623E+04    0.64712E-04   -0.25266E-04  4809   0.257E-02    0.305E-02
RMM:   4    -0.231935308294E+04    0.13286E-04   -0.11830E-04  4051   0.897E-03    0.115E-02
RMM:   5    -0.231935308160E+04    0.13377E-05   -0.86699E-06  2824   0.568E-03
  48 F= -.23395080E+04 E0= -.23395080E+04  d E =-.229238E-02  mag=     2.0000
       N       E                     dE             d eps       ncg     rms          rms(c)
DAV:   1    -0.231935361220E+04   -0.52926E-03   -0.20790E-01  4416   0.465E-01    0.133E-01
RMM:   2    -0.231935412376E+04   -0.51157E-03   -0.62682E-03  4820   0.714E-02    0.658E-02
RMM:   3    -0.231935402341E+04    0.10036E-03   -0.34858E-04  4507   0.315E-02    0.380E-02
RMM:   4    -0.231935400183E+04    0.21574E-04   -0.21827E-04  4214   0.118E-02    0.143E-02
RMM:   5    -0.231935399860E+04    0.32293E-05   -0.12998E-05  2841   0.726E-03
  49 F= -.23395090E+04 E0= -.23395090E+04  d E =-.326939E-02  mag=     2.0000
       N       E                     dE             d eps       ncg     rms          rms(c)
DAV:   1    -0.231935562391E+04   -0.16221E-02   -0.24501E-01  4448   0.516E-01    0.138E-01
RMM:   2    -0.231935621227E+04   -0.58836E-03   -0.71270E-03  4950   0.761E-02    0.596E-02
RMM:   3    -0.231935611922E+04    0.93043E-04   -0.39771E-04  4558   0.310E-02    0.355E-02
RMM:   4    -0.231935610077E+04    0.18458E-04   -0.18928E-04  4224   0.106E-02    0.151E-02
RMM:   5    -0.231935609864E+04    0.21282E-05   -0.15434E-05  2845   0.677E-03
  50 F= -.23395110E+04 E0= -.23395110E+04  d E =-.206855E-02  mag=     2.0000
       N       E                     dE             d eps       ncg     rms          rms(c)
DAV:   1    -0.231935626955E+04   -0.16879E-03   -0.35150E-01  4416   0.619E-01    0.165E-01
RMM:   2    -0.231935711981E+04   -0.85025E-03   -0.10276E-02  4911   0.914E-02    0.716E-02
RMM:   3    -0.231935698451E+04    0.13530E-03   -0.57219E-04  4630   0.371E-02    0.431E-02
RMM:   4    -0.231935695567E+04    0.28835E-04   -0.26911E-04  4313   0.126E-02    0.188E-02
RMM:   5    -0.231935695190E+04    0.37694E-05   -0.23015E-05  2891   0.798E-03
  51 F= -.23395119E+04 E0= -.23395119E+04  d E =-.288249E-02  mag=     2.0000
       N       E                     dE             d eps       ncg     rms          rms(c)
DAV:   1    -0.231935811204E+04   -0.11564E-02   -0.29138E-01  4416   0.563E-01    0.130E-01
RMM:   2    -0.231935880424E+04   -0.69220E-03   -0.80730E-03  4797   0.817E-02    0.651E-02
RMM:   3    -0.231935870169E+04    0.10255E-03   -0.44145E-04  4630   0.329E-02    0.410E-02
RMM:   4    -0.231935867924E+04    0.22449E-04   -0.20199E-04  4224   0.112E-02    0.184E-02
RMM:   5    -0.231935867604E+04    0.32026E-05   -0.20764E-05  2867   0.731E-03
  52 F= -.23395135E+04 E0= -.23395135E+04  d E =-.167980E-02  mag=     2.0000
       N       E                     dE             d eps       ncg     rms          rms(c)
DAV:   1    -0.231935864653E+04    0.32710E-04   -0.26728E-01  4480   0.540E-01    0.125E-01
RMM:   2    -0.231935928693E+04   -0.64040E-03   -0.74476E-03  4791   0.787E-02    0.630E-02
RMM:   3    -0.231935919560E+04    0.91326E-04   -0.42409E-04  4546   0.328E-02    0.398E-02
RMM:   4    -0.231935917370E+04    0.21906E-04   -0.19484E-04  4198   0.110E-02    0.181E-02
RMM:   5    -0.231935916969E+04    0.40044E-05   -0.19809E-05  2854   0.726E-03
  53 F= -.23395140E+04 E0= -.23395140E+04  d E =-.213042E-02  mag=     2.0000
       N       E                     dE             d eps       ncg     rms          rms(c)
DAV:   1    -0.231936003751E+04   -0.86381E-03   -0.23821E-01  4416   0.508E-01    0.112E-01
RMM:   2    -0.231936063612E+04   -0.59861E-03   -0.66919E-03  5045   0.728E-02    0.550E-02
RMM:   3    -0.231936056676E+04    0.69363E-04   -0.33584E-04  4385   0.300E-02    0.348E-02
RMM:   4    -0.231936054917E+04    0.17586E-04   -0.13715E-04  4069   0.943E-03    0.142E-02
RMM:   5    -0.231936054864E+04    0.53749E-06   -0.13911E-05  2833   0.654E-03
  54 F= -.23395155E+04 E0= -.23395155E+04  d E =-.146639E-02  mag=     2.0000
       N       E                     dE             d eps       ncg     rms          rms(c)
DAV:   1    -0.231935843065E+04    0.21185E-02   -0.15940E+00  4384   0.131E+00    0.289E-01
RMM:   2    -0.231936244399E+04   -0.40133E-02   -0.44897E-02  5026   0.188E-01    0.141E-01
RMM:   3    -0.231936195489E+04    0.48910E-03   -0.21054E-03  4602   0.724E-02    0.891E-02
RMM:   4    -0.231936183147E+04    0.12342E-03   -0.92417E-04  4527   0.242E-02    0.349E-02
RMM:   5    -0.231936183172E+04   -0.25120E-06   -0.80533E-05  3794   0.156E-02
  55 F= -.23395170E+04 E0= -.23395170E+04  d E =-.297289E-02  mag=     2.0000
       N       E                     dE             d eps       ncg     rms          rms(c)
DAV:   1    -0.231936266084E+04   -0.82937E-03   -0.21780E-01  4448   0.480E-01    0.102E-01
RMM:   2    -0.231936332506E+04   -0.66422E-03   -0.71143E-03  5434   0.705E-02    0.554E-02
RMM:   3    -0.231936328576E+04    0.39301E-04   -0.39629E-04  4178   0.264E-02    0.357E-02
RMM:   4    -0.231936327319E+04    0.12571E-04   -0.11954E-04  3951   0.836E-03    0.171E-02
RMM:   5    -0.231936327114E+04    0.20494E-05   -0.18457E-05  2853   0.608E-03
  56 F= -.23395185E+04 E0= -.23395185E+04  d E =-.153237E-02  mag=     2.0000
       N       E                     dE             d eps       ncg     rms          rms(c)
DAV:   1    -0.231935984296E+04    0.34302E-02   -0.19594E+00  4384   0.144E+00    0.303E-01
RMM:   2    -0.231936568332E+04   -0.58404E-02   -0.63096E-02  5340   0.210E-01    0.163E-01
RMM:   3    -0.231936531817E+04    0.36516E-03   -0.38491E-03  4733   0.791E-02    0.106E-01
RMM:   4    -0.231936519842E+04    0.11975E-03   -0.99311E-04  4779   0.230E-02    0.547E-02
RMM:   5    -0.231936517231E+04    0.26104E-04   -0.20713E-04  4441   0.155E-02    0.160E-02
RMM:   6    -0.231936516935E+04    0.29657E-05   -0.27542E-05  2904   0.505E-03
  57 F= -.23395207E+04 E0= -.23395207E+04  d E =-.370882E-02  mag=     2.0000
       N       E                     dE             d eps       ncg     rms          rms(c)
DAV:   1    -0.231936608648E+04   -0.91417E-03   -0.24252E-01  4448   0.506E-01    0.125E-01
RMM:   2    -0.231936686855E+04   -0.78206E-03   -0.84930E-03  5517   0.757E-02    0.619E-02
RMM:   3    -0.231936682539E+04    0.43161E-04   -0.48976E-04  4468   0.296E-02    0.389E-02
RMM:   4    -0.231936680985E+04    0.15540E-04   -0.14692E-04  4073   0.925E-03    0.183E-02
RMM:   5    -0.231936680793E+04    0.19145E-05   -0.21097E-05  2883   0.647E-03
  58 F= -.23395223E+04 E0= -.23395223E+04  d E =-.161832E-02  mag=     2.0000
       N       E                     dE             d eps       ncg     rms          rms(c)
DAV:   1    -0.231936465846E+04    0.21514E-02   -0.11195E+00  4384   0.109E+00    0.268E-01
RMM:   2    -0.231936822867E+04   -0.35702E-02   -0.38953E-02  5458   0.162E-01    0.133E-01
RMM:   3    -0.231936804303E+04    0.18564E-03   -0.25931E-03  4653   0.667E-02    0.854E-02
RMM:   4    -0.231936797085E+04    0.72174E-04   -0.67267E-04  4703   0.189E-02    0.444E-02
RMM:   5    -0.231936794977E+04    0.21080E-04   -0.13983E-04  4231   0.129E-02    0.129E-02
RMM:   6    -0.231936794705E+04    0.27260E-05   -0.19982E-05  2856   0.446E-03
  59 F= -.23395234E+04 E0= -.23395234E+04  d E =-.271380E-02  mag=     2.0000
       N       E                     dE             d eps       ncg     rms          rms(c)
DAV:   1    -0.231936856842E+04   -0.61865E-03   -0.13292E-01  4592   0.371E-01    0.809E-02
RMM:   2    -0.231936894521E+04   -0.37679E-03   -0.40749E-03  5466   0.538E-02    0.432E-02
RMM:   3    -0.231936892116E+04    0.24056E-04   -0.20590E-04  4043   0.205E-02    0.275E-02
RMM:   4    -0.231936891253E+04    0.86228E-05   -0.69763E-05  3518   0.673E-03
  60 F= -.23395243E+04 E0= -.23395243E+04  d E =-.936992E-03  mag=     2.0000
       N       E                     dE             d eps       ncg     rms          rms(c)
DAV:   1    -0.231936790924E+04    0.10119E-02   -0.11912E+00  4384   0.111E+00    0.241E-01
RMM:   2    -0.231937119915E+04   -0.32899E-02   -0.35811E-02  5442   0.159E-01    0.129E-01
RMM:   3    -0.231937100320E+04    0.19594E-03   -0.22113E-03  4674   0.618E-02    0.838E-02
RMM:   4    -0.231937093347E+04    0.69739E-04   -0.61382E-04  4577   0.179E-02    0.422E-02
RMM:   5    -0.231937091958E+04    0.13885E-04   -0.12587E-04  4016   0.123E-02    0.119E-02
RMM:   6    -0.231937091812E+04    0.14614E-05   -0.16114E-05  2847   0.425E-03
  61 F= -.23395262E+04 E0= -.23395262E+04  d E =-.285719E-02  mag=     2.0000
       N       E                     dE             d eps       ncg     rms          rms(c)
DAV:   1    -0.231935898957E+04    0.11930E-01   -0.47776E+00  4384   0.222E+00    0.483E-01
RMM:   2    -0.231937219736E+04   -0.13208E-01   -0.14403E-01  5387   0.319E-01    0.259E-01
RMM:   3    -0.231937139964E+04    0.79772E-03   -0.90798E-03  4711   0.123E-01    0.169E-01
RMM:   4    -0.231937111126E+04    0.28838E-03   -0.24084E-03  4790   0.356E-02    0.865E-02
RMM:   5    -0.231937105597E+04    0.55293E-04   -0.52479E-04  4732   0.238E-02    0.249E-02
RMM:   6    -0.231937104869E+04    0.72763E-05   -0.63825E-05  3353   0.717E-03
  62 F= -.23395262E+04 E0= -.23395262E+04  d E =-.281766E-02  mag=     2.0000
       N       E                     dE             d eps       ncg     rms          rms(c)
DAV:   1    -0.231936873281E+04    0.23232E-02   -0.11772E+00  4384   0.110E+00    0.238E-01
RMM:   2    -0.231937195715E+04   -0.32243E-02   -0.35412E-02  5471   0.158E-01    0.126E-01
RMM:   3    -0.231937170056E+04    0.25659E-03   -0.16239E-03  4759   0.593E-02    0.787E-02
RMM:   4    -0.231937161438E+04    0.86179E-04   -0.61521E-04  4481   0.189E-02    0.296E-02
RMM:   5    -0.231937161924E+04   -0.48584E-05   -0.59505E-05  3423   0.121E-02
  63 F= -.23395269E+04 E0= -.23395269E+04  d E =-.347264E-02  mag=     2.0000
       N       E                     dE             d eps       ncg     rms          rms(c)
DAV:   1    -0.231937365645E+04   -0.20421E-02   -0.56165E-01  4384   0.747E-01    0.173E-01
RMM:   2    -0.231937482141E+04   -0.11650E-02   -0.13492E-02  4961   0.105E-01    0.886E-02
RMM:   3    -0.231937465171E+04    0.16970E-03   -0.69369E-04  4619   0.448E-02    0.539E-02
RMM:   4    -0.231937461182E+04    0.39892E-04   -0.34997E-04  4330   0.143E-02    0.193E-02
RMM:   5    -0.231937461038E+04    0.14423E-05   -0.23708E-05  2924   0.902E-03
  64 F= -.23395298E+04 E0= -.23395298E+04  d E =-.292847E-02  mag=     2.0000
       N       E                     dE             d eps       ncg     rms          rms(c)
DAV:   1    -0.231937050949E+04    0.41023E-02   -0.37434E+00  4384   0.193E+00    0.449E-01
RMM:   2    -0.231937850257E+04   -0.79931E-02   -0.91443E-02  4951   0.272E-01    0.231E-01
RMM:   3    -0.231937738002E+04    0.11226E-02   -0.41987E-03  4692   0.106E-01    0.141E-01
RMM:   4    -0.231937714467E+04    0.23535E-03   -0.23667E-03  4514   0.367E-02    0.482E-02
RMM:   5    -0.231937713281E+04    0.11860E-04   -0.16776E-04  4213   0.222E-02    0.209E-02
RMM:   6    -0.231937712670E+04    0.61113E-05   -0.59567E-05  3702   0.578E-03
  65 F= -.23395321E+04 E0= -.23395321E+04  d E =-.528036E-02  mag=     2.0000
       N       E                     dE             d eps       ncg     rms          rms(c)
DAV:   1    -0.231937826132E+04   -0.11285E-02   -0.51887E-01  4416   0.714E-01    0.155E-01
RMM:   2    -0.231937932880E+04   -0.10675E-02   -0.12052E-02  5058   0.101E-01    0.851E-02
RMM:   3    -0.231937916806E+04    0.16075E-03   -0.57573E-04  4904   0.361E-02    0.526E-02
RMM:   4    -0.231937913633E+04    0.31726E-04   -0.26815E-04  4279   0.127E-02    0.191E-02
RMM:   5    -0.231937913539E+04    0.94212E-06   -0.22689E-05  2888   0.791E-03
  66 F= -.23395341E+04 E0= -.23395341E+04  d E =-.194690E-02  mag=     2.0000
       N       E                     dE             d eps       ncg     rms          rms(c)
DAV:   1    -0.231937466110E+04    0.44752E-02   -0.38924E+00  4384   0.196E+00    0.425E-01
RMM:   2    -0.231938254631E+04   -0.78852E-02   -0.89696E-02  4758   0.272E-01    0.233E-01
RMM:   3    -0.231938136892E+04    0.11774E-02   -0.41000E-03  4699   0.107E-01    0.144E-01
RMM:   4    -0.231938111160E+04    0.25732E-03   -0.23037E-03  4422   0.366E-02    0.440E-02
RMM:   5    -0.231938109816E+04    0.13440E-04   -0.15148E-04  4174   0.223E-02    0.206E-02
RMM:   6    -0.231938109187E+04    0.62843E-05   -0.69371E-05  3912   0.633E-03
  67 F= -.23395359E+04 E0= -.23395359E+04  d E =-.373398E-02  mag=     2.0000
       N       E                     dE             d eps       ncg     rms          rms(c)
DAV:   1    -0.231938339585E+04   -0.22977E-02   -0.57180E-01  4448   0.744E-01    0.179E-01
RMM:   2    -0.231938459245E+04   -0.11966E-02   -0.13719E-02  5101   0.108E-01    0.968E-02
RMM:   3    -0.231938440473E+04    0.18772E-03   -0.69525E-04  4987   0.408E-02    0.582E-02
RMM:   4    -0.231938437188E+04    0.32848E-04   -0.33842E-04  4330   0.145E-02    0.204E-02
RMM:   5    -0.231938436869E+04    0.31965E-05   -0.23981E-05  2920   0.873E-03
  68 F= -.23395391E+04 E0= -.23395391E+04  d E =-.319442E-02  mag=     2.0000
       N       E                     dE             d eps       ncg     rms          rms(c)
DAV:   1    -0.231938366816E+04    0.70373E-03   -0.15805E+00  4384   0.124E+00    0.298E-01
RMM:   2    -0.231938692692E+04   -0.32588E-02   -0.37740E-02  4805   0.176E-01    0.163E-01
RMM:   3    -0.231938640698E+04    0.51994E-03   -0.18261E-03  4744   0.705E-02    0.975E-02
RMM:   4    -0.231938630385E+04    0.10313E-03   -0.10483E-03  4433   0.254E-02    0.323E-02
RMM:   5    -0.231938629375E+04    0.10104E-04   -0.68150E-05  3622   0.153E-02    0.157E-02
RMM:   6    -0.231938629140E+04    0.23519E-05   -0.63033E-05  3744   0.598E-03
  69 F= -.23395409E+04 E0= -.23395409E+04  d E =-.498042E-02  mag=     2.0000
       N       E                     dE             d eps       ncg     rms          rms(c)
DAV:   1    -0.231938808427E+04   -0.17905E-02   -0.72614E-01  4384   0.826E-01    0.227E-01
RMM:   2    -0.231938949098E+04   -0.14067E-02   -0.16965E-02  5200   0.118E-01    0.111E-01
RMM:   3    -0.231938925507E+04    0.23591E-03   -0.88394E-04  4826   0.457E-02    0.645E-02
RMM:   4    -0.231938920931E+04    0.45761E-04   -0.48324E-04  4473   0.168E-02    0.225E-02
RMM:   5    -0.231938920589E+04    0.34194E-05   -0.33166E-05  3077   0.103E-02
  70 F= -.23395437E+04 E0= -.23395437E+04  d E =-.280845E-02  mag=     2.0000
       N       E                     dE             d eps       ncg     rms          rms(c)
DAV:   1    -0.231938889640E+04    0.31291E-03   -0.54264E-01  4416   0.714E-01    0.197E-01
RMM:   2    -0.231938996686E+04   -0.10705E-02   -0.12893E-02  4948   0.101E-01    0.978E-02
RMM:   3    -0.231938978439E+04    0.18247E-03   -0.67661E-04  4594   0.402E-02    0.573E-02
RMM:   4    -0.231938974801E+04    0.36374E-04   -0.40444E-04  4351   0.153E-02    0.210E-02
RMM:   5    -0.231938974331E+04    0.47007E-05   -0.29143E-05  2979   0.975E-03
  71 F= -.23395441E+04 E0= -.23395441E+04  d E =-.325248E-02  mag=     2.0000
       N       E                     dE             d eps       ncg     rms          rms(c)
DAV:   1    -0.231939075993E+04   -0.10119E-02   -0.60685E-01  4384   0.749E-01    0.194E-01
RMM:   2    -0.231939205250E+04   -0.12926E-02   -0.15125E-02  5029   0.105E-01    0.104E-01
RMM:   3    -0.231939185631E+04    0.19619E-03   -0.80904E-04  4675   0.400E-02    0.619E-02
RMM:   4    -0.231939181915E+04    0.37160E-04   -0.43748E-04  4377   0.152E-02    0.247E-02
RMM:   5    -0.231939181280E+04    0.63514E-05   -0.38113E-05  3031   0.979E-03
  72 F= -.23395461E+04 E0= -.23395461E+04  d E =-.203145E-02  mag=     2.0000
       N       E                     dE             d eps       ncg     rms          rms(c)
DAV:   1    -0.231939161511E+04    0.20404E-03   -0.36275E-01  4400   0.580E-01    0.151E-01
RMM:   2    -0.231939239702E+04   -0.78191E-03   -0.90891E-03  5027   0.821E-02    0.812E-02
RMM:   3    -0.231939228660E+04    0.11042E-03   -0.53735E-04  4601   0.316E-02    0.490E-02
RMM:   4    -0.231939226450E+04    0.22099E-04   -0.25880E-04  4190   0.118E-02    0.217E-02
RMM:   5    -0.231939225862E+04    0.58785E-05   -0.27282E-05  2909   0.792E-03
  73 F= -.23395465E+04 E0= -.23395465E+04  d E =-.244672E-02  mag=     2.0000
       N       E                     dE             d eps       ncg     rms          rms(c)
DAV:   1    -0.231939382327E+04   -0.15588E-02   -0.70413E-01  4384   0.828E-01    0.233E-01
RMM:   2    -0.231939535424E+04   -0.15310E-02   -0.17944E-02  4867   0.117E-01    0.114E-01
RMM:   3    -0.231939509580E+04    0.25844E-03   -0.97669E-04  4595   0.469E-02    0.673E-02
RMM:   4    -0.231939505307E+04    0.42731E-04   -0.51022E-04  4409   0.168E-02    0.271E-02
RMM:   5    -0.231939504398E+04    0.90829E-05   -0.45299E-05  3159   0.110E-02
  74 F= -.23395492E+04 E0= -.23395492E+04  d E =-.268480E-02  mag=     2.0000
       N       E                     dE             d eps       ncg     rms          rms(c)
DAV:   1    -0.231939377048E+04    0.12826E-02   -0.76329E-01  4384   0.863E-01    0.244E-01
RMM:   2    -0.231939545681E+04   -0.16863E-02   -0.19695E-02  4833   0.122E-01    0.119E-01
RMM:   3    -0.231939516569E+04    0.29112E-03   -0.10390E-03  4720   0.457E-02    0.708E-02
RMM:   4    -0.231939511574E+04    0.49946E-04   -0.54514E-04  4395   0.173E-02    0.285E-02
RMM:   5    -0.231939510557E+04    0.10173E-04   -0.50610E-05  3269   0.115E-02    0.106E-02
RMM:   6    -0.231939510306E+04    0.25145E-05   -0.16404E-05  2848   0.344E-03
  75 F= -.23395492E+04 E0= -.23395492E+04  d E =-.263724E-02  mag=     2.0000
       N       E                     dE             d eps       ncg     rms          rms(c)
DAV:   1    -0.231939513200E+04   -0.26428E-04   -0.18722E-01  4416   0.427E-01    0.120E-01
RMM:   2    -0.231939551982E+04   -0.38782E-03   -0.46489E-03  5155   0.607E-02    0.580E-02
RMM:   3    -0.231939545653E+04    0.63293E-04   -0.26547E-04  4338   0.249E-02    0.340E-02
RMM:   4    -0.231939544344E+04    0.13085E-04   -0.12910E-04  4013   0.889E-03    0.131E-02
RMM:   5    -0.231939544227E+04    0.11682E-05   -0.11511E-05  2830   0.594E-03
  76 F= -.23395496E+04 E0= -.23395496E+04  d E =-.302957E-02  mag=     2.0000
       N       E                     dE             d eps       ncg     rms          rms(c)
DAV:   1    -0.231939669356E+04   -0.12501E-02   -0.87530E-01  4384   0.901E-01    0.243E-01
RMM:   2    -0.231939826617E+04   -0.15726E-02   -0.19200E-02  4551   0.124E-01    0.124E-01
RMM:   3    -0.231939792996E+04    0.33622E-03   -0.93718E-04  4531   0.499E-02    0.719E-02
RMM:   4    -0.231939786919E+04    0.60771E-04   -0.73330E-04  4382   0.198E-02    0.221E-02
RMM:   5    -0.231939785830E+04    0.10885E-04   -0.40406E-05  3242   0.123E-02    0.117E-02
RMM:   6    -0.231939785597E+04    0.23296E-05   -0.40588E-05  3428   0.478E-03
  77 F= -.23395518E+04 E0= -.23395518E+04  d E =-.218064E-02  mag=     2.0000
       N       E                     dE             d eps       ncg     rms          rms(c)
DAV:   1    -0.231939792698E+04   -0.68675E-04   -0.64190E-02  4592   0.244E-01    0.654E-02
RMM:   2    -0.231939804606E+04   -0.11908E-03   -0.14159E-03  5216   0.355E-02    0.333E-02
RMM:   3    -0.231939802177E+04    0.24291E-04   -0.64329E-05  3827   0.119E-02    0.193E-02
RMM:   4    -0.231939801674E+04    0.50289E-05   -0.41604E-05  3170   0.544E-03
  78 F= -.23395519E+04 E0= -.23395519E+04  d E =-.227758E-02  mag=     2.0000
       N       E                     dE             d eps       ncg     rms          rms(c)
DAV:   1    -0.231939930709E+04   -0.12853E-02   -0.76577E-01  4384   0.812E-01    0.215E-01
RMM:   2    -0.231940051650E+04   -0.12094E-02   -0.15119E-02  4580   0.111E-01    0.112E-01
RMM:   3    -0.231940028590E+04    0.23061E-03   -0.85452E-04  4555   0.522E-02    0.643E-02
RMM:   4    -0.231940025084E+04    0.35055E-04   -0.65354E-04  4348   0.175E-02    0.191E-02
RMM:   5    -0.231940024176E+04    0.90760E-05   -0.30023E-05  3033   0.107E-02
  79 F= -.23395539E+04 E0= -.23395539E+04  d E =-.203464E-02  mag=     2.0000
       N       E                     dE             d eps       ncg     rms          rms(c)
DAV:   1    -0.231940035461E+04   -0.10377E-03   -0.71332E-02  4464   0.248E-01    0.682E-02
RMM:   2    -0.231940047207E+04   -0.11746E-03   -0.14915E-03  4625   0.346E-02    0.372E-02
RMM:   3    -0.231940044635E+04    0.25719E-04   -0.78376E-05  3687   0.145E-02    0.211E-02
RMM:   4    -0.231940044248E+04    0.38734E-05   -0.70130E-05  3706   0.629E-03
  80 F= -.23395540E+04 E0= -.23395540E+04  d E =-.217721E-02  mag=     2.0000
       N       E                     dE             d eps       ncg     rms          rms(c)
DAV:   1    -0.231940138596E+04   -0.93961E-03   -0.73579E-01  4384   0.821E-01    0.236E-01
RMM:   2    -0.231940279689E+04   -0.14109E-02   -0.17048E-02  4985   0.118E-01    0.119E-01
RMM:   3    -0.231940255093E+04    0.24596E-03   -0.98970E-04  4603   0.549E-02    0.688E-02
RMM:   4    -0.231940250602E+04    0.44911E-04   -0.58023E-04  4488   0.184E-02    0.218E-02
RMM:   5    -0.231940249827E+04    0.77523E-05   -0.36108E-05  3120   0.110E-02
  81 F= -.23395559E+04 E0= -.23395559E+04  d E =-.185532E-02  mag=     2.0000
       N       E                     dE             d eps       ncg     rms          rms(c)
DAV:   1    -0.231940253271E+04   -0.26692E-04   -0.18274E-02  5152   0.130E-01    0.389E-02
RMM:   2    -0.231940257305E+04   -0.40343E-04   -0.47218E-04  5037   0.200E-02    0.210E-02
RMM:   3    -0.231940256539E+04    0.76682E-05   -0.24781E-05  2907   0.801E-03
  82 F= -.23395559E+04 E0= -.23395559E+04  d E =-.189098E-02  mag=     2.0000
       N       E                     dE             d eps       ncg     rms          rms(c)
DAV:   1    -0.231940351227E+04   -0.93922E-03   -0.61192E-01  4384   0.737E-01    0.212E-01
RMM:   2    -0.231940466648E+04   -0.11542E-02   -0.14058E-02  4927   0.102E-01    0.109E-01
RMM:   3    -0.231940444597E+04    0.22051E-03   -0.72591E-04  4515   0.432E-02    0.627E-02
RMM:   4    -0.231940441059E+04    0.35387E-04   -0.45727E-04  4340   0.155E-02    0.190E-02
RMM:   5    -0.231940440603E+04    0.45536E-05   -0.26732E-05  2979   0.102E-02
  83 F= -.23395576E+04 E0= -.23395576E+04  d E =-.165908E-02  mag=     2.0000
       N       E                     dE             d eps       ncg     rms          rms(c)
DAV:   1    -0.231940439960E+04    0.10988E-04   -0.10932E-01  4416   0.312E-01    0.907E-02
RMM:   2    -0.231940461610E+04   -0.21651E-03   -0.26191E-03  4935   0.443E-02    0.479E-02
RMM:   3    -0.231940457376E+04    0.42342E-04   -0.12894E-04  3941   0.174E-02    0.275E-02
RMM:   4    -0.231940456647E+04    0.72901E-05   -0.90484E-05  3901   0.729E-03
  84 F= -.23395577E+04 E0= -.23395577E+04  d E =-.174297E-02  mag=     2.0000
       N       E                     dE             d eps       ncg     rms          rms(c)
DAV:   1    -0.231940556749E+04   -0.99373E-03   -0.30833E-01  4384   0.495E-01    0.134E-01
RMM:   2    -0.231940607649E+04   -0.50900E-03   -0.62463E-03  5407   0.695E-02    0.765E-02
RMM:   3    -0.231940598268E+04    0.93810E-04   -0.33382E-04  4832   0.264E-02    0.426E-02
RMM:   4    -0.231940596842E+04    0.14255E-04   -0.19791E-04  4015   0.973E-03    0.118E-02
RMM:   5    -0.231940596748E+04    0.93938E-06   -0.10603E-05  2837   0.573E-03
  85 F= -.23395589E+04 E0= -.23395589E+04  d E =-.127624E-02  mag=     2.0000
       N       E                     dE             d eps       ncg     rms          rms(c)
DAV:   1    -0.231940604344E+04   -0.75017E-04   -0.72631E-01  4384   0.759E-01    0.205E-01
RMM:   2    -0.231940722991E+04   -0.11865E-02   -0.14697E-02  4819   0.102E-01    0.118E-01
RMM:   3    -0.231940698672E+04    0.24320E-03   -0.72127E-04  4549   0.403E-02    0.657E-02
RMM:   4    -0.231940695150E+04    0.35216E-04   -0.52072E-04  4356   0.156E-02    0.188E-02
RMM:   5    -0.231940694600E+04    0.55036E-05   -0.27394E-05  2965   0.959E-03
  86 F= -.23395597E+04 E0= -.23395597E+04  d E =-.206199E-02  mag=     2.0000
       N       E                     dE             d eps       ncg     rms          rms(c)
DAV:   1    -0.231940848395E+04   -0.15325E-02   -0.42685E-01  4384   0.575E-01    0.172E-01
RMM:   2    -0.231940909835E+04   -0.61440E-03   -0.80898E-03  4568   0.788E-02    0.923E-02
RMM:   3    -0.231940895633E+04    0.14202E-03   -0.45521E-04  4492   0.341E-02    0.499E-02
RMM:   4    -0.231940893721E+04    0.19121E-04   -0.34462E-04  4113   0.126E-02    0.133E-02
RMM:   5    -0.231940893185E+04    0.53536E-05   -0.16106E-05  2875   0.786E-03
  87 F= -.23395616E+04 E0= -.23395616E+04  d E =-.182287E-02  mag=     2.0000
       N       E                     dE             d eps       ncg     rms          rms(c)
DAV:   1    -0.231940927516E+04   -0.33795E-03   -0.26377E-01  4384   0.452E-01    0.136E-01
RMM:   2    -0.231940965395E+04   -0.37879E-03   -0.50545E-03  4552   0.623E-02    0.735E-02
RMM:   3    -0.231940956145E+04    0.92504E-04   -0.28422E-04  4435   0.267E-02    0.396E-02
RMM:   4    -0.231940954809E+04    0.13352E-04   -0.21824E-04  4037   0.102E-02    0.109E-02
RMM:   5    -0.231940954465E+04    0.34492E-05   -0.11507E-05  2839   0.655E-03
  88 F= -.23395620E+04 E0= -.23395620E+04  d E =-.230631E-02  mag=     2.0000
       N       E                     dE             d eps       ncg     rms          rms(c)
DAV:   1    -0.231941097926E+04   -0.14312E-02   -0.38217E-01  4384   0.548E-01    0.169E-01
RMM:   2    -0.231941146540E+04   -0.48614E-03   -0.67460E-03  4445   0.743E-02    0.914E-02
RMM:   3    -0.231941133835E+04    0.12705E-03   -0.37787E-04  4497   0.313E-02    0.486E-02
RMM:   4    -0.231941131905E+04    0.19307E-04   -0.31964E-04  4129   0.123E-02    0.131E-02
RMM:   5    -0.231941131337E+04    0.56766E-05   -0.16745E-05  2867   0.806E-03
  89 F= -.23395636E+04 E0= -.23395636E+04  d E =-.157877E-02  mag=     2.0000
       N       E                     dE             d eps       ncg     rms          rms(c)
DAV:   1    -0.231941162174E+04   -0.30269E-03   -0.15584E-01  4416   0.351E-01    0.109E-01
RMM:   2    -0.231941182067E+04   -0.19893E-03   -0.28087E-03  4443   0.479E-02    0.596E-02
RMM:   3    -0.231941176466E+04    0.56007E-04   -0.15617E-04  4301   0.191E-02    0.316E-02
RMM:   4    -0.231941175526E+04    0.93961E-05   -0.13544E-04  3963   0.822E-03    0.858E-03
RMM:   5    -0.231941175270E+04    0.25661E-05   -0.82953E-06  2813   0.581E-03
  90 F= -.23395639E+04 E0= -.23395639E+04  d E =-.189597E-02  mag=     2.0000
       N       E                     dE             d eps       ncg     rms          rms(c)
DAV:   1    -0.231941323405E+04   -0.14788E-02   -0.45099E-01  4384   0.573E-01    0.178E-01
RMM:   2    -0.231941375256E+04   -0.51851E-03   -0.72759E-03  4419   0.765E-02    0.995E-02
RMM:   3    -0.231941361503E+04    0.13752E-03   -0.42267E-04  4419   0.333E-02    0.506E-02
RMM:   4    -0.231941360047E+04    0.14560E-04   -0.35710E-04  4124   0.125E-02    0.130E-02
RMM:   5    -0.231941359338E+04    0.70937E-05   -0.20056E-05  2885   0.841E-03
  91 F= -.23395656E+04 E0= -.23395656E+04  d E =-.165168E-02  mag=     2.0000
       N       E                     dE             d eps       ncg     rms          rms(c)
DAV:   1    -0.231941393062E+04   -0.33015E-03   -0.12490E-01  4432   0.302E-01    0.948E-02
RMM:   2    -0.231941407775E+04   -0.14713E-03   -0.20798E-03  4412   0.407E-02    0.537E-02
RMM:   3    -0.231941403603E+04    0.41721E-04   -0.11531E-04  3980   0.157E-02    0.272E-02
RMM:   4    -0.231941403138E+04    0.46514E-05   -0.10125E-04  3814   0.714E-03    0.697E-03
RMM:   5    -0.231941402923E+04    0.21538E-05   -0.68968E-06  2798   0.516E-03
  92 F= -.23395659E+04 E0= -.23395659E+04  d E =-.198752E-02  mag=     2.0000
       N       E                     dE             d eps       ncg     rms          rms(c)
DAV:   1    -0.231941556848E+04   -0.15371E-02   -0.57856E-01  4384   0.632E-01    0.199E-01
RMM:   2    -0.231941624303E+04   -0.67456E-03   -0.95802E-03  4533   0.831E-02    0.111E-01
RMM:   3    -0.231941604107E+04    0.20196E-03   -0.56759E-04  4465   0.342E-02    0.566E-02
RMM:   4    -0.231941602038E+04    0.20690E-04   -0.47028E-04  4180   0.139E-02    0.157E-02
RMM:   5    -0.231941601190E+04    0.84797E-05   -0.26521E-05  2943   0.931E-03
  93 F= -.23395677E+04 E0= -.23395677E+04  d E =-.182267E-02  mag=     2.0000
       N       E                     dE             d eps       ncg     rms          rms(c)
DAV:   1    -0.231941622605E+04   -0.20567E-03   -0.82187E-02  4432   0.239E-01    0.770E-02
RMM:   2    -0.231941632418E+04   -0.98134E-04   -0.14306E-03  4541   0.322E-02    0.438E-02
RMM:   3    -0.231941629142E+04    0.32759E-04   -0.84712E-05  3527   0.124E-02    0.223E-02
RMM:   4    -0.231941628858E+04    0.28460E-05   -0.76039E-05  3539   0.638E-03
  94 F= -.23395680E+04 E0= -.23395680E+04  d E =-.203877E-02  mag=     2.0000
       N       E                     dE             d eps       ncg     rms          rms(c)
DAV:   1    -0.231941750209E+04   -0.12107E-02   -0.58855E-01  4384   0.648E-01    0.204E-01
RMM:   2    -0.231941831776E+04   -0.81567E-03   -0.10795E-02  5162   0.895E-02    0.114E-01
RMM:   3    -0.231941812905E+04    0.18870E-03   -0.67878E-04  4662   0.410E-02    0.595E-02
RMM:   4    -0.231941810528E+04    0.23773E-04   -0.44175E-04  4301   0.142E-02    0.168E-02
RMM:   5    -0.231941810009E+04    0.51901E-05   -0.21875E-05  2926   0.856E-03
  95 F= -.23395696E+04 E0= -.23395696E+04  d E =-.168524E-02  mag=     2.0000
       N       E                     dE             d eps       ncg     rms          rms(c)
DAV:   1    -0.231941827771E+04   -0.17243E-03   -0.18356E-01  4384   0.362E-01    0.115E-01
RMM:   2    -0.231941853769E+04   -0.25998E-03   -0.34796E-03  4898   0.497E-02    0.653E-02
RMM:   3    -0.231941846974E+04    0.67952E-04   -0.20916E-04  4249   0.215E-02    0.341E-02
RMM:   4    -0.231941846020E+04    0.95385E-05   -0.14680E-04  3959   0.848E-03    0.101E-02
RMM:   5    -0.231941845830E+04    0.19087E-05   -0.86754E-06  2824   0.550E-03
  96 F= -.23395699E+04 E0= -.23395699E+04  d E =-.197217E-02  mag=     2.0000
       N       E                     dE             d eps       ncg     rms          rms(c)
DAV:   1    -0.231941962169E+04   -0.11615E-02   -0.32534E-01  4384   0.469E-01    0.146E-01
RMM:   2    -0.231942007195E+04   -0.45026E-03   -0.59094E-03  4793   0.619E-02    0.865E-02
RMM:   3    -0.231941995947E+04    0.11248E-03   -0.36229E-04  4442   0.258E-02    0.429E-02
RMM:   4    -0.231941994829E+04    0.11174E-04   -0.20671E-04  4049   0.943E-03    0.132E-02
RMM:   5    -0.231941994569E+04    0.26030E-05   -0.15289E-05  2855   0.633E-03
  97 F= -.23395713E+04 E0= -.23395713E+04  d E =-.141724E-02  mag=     2.0000
       N       E                     dE             d eps       ncg     rms          rms(c)
DAV:   1    -0.231942003366E+04   -0.85371E-04   -0.98276E-01  4384   0.816E-01    0.254E-01
RMM:   2    -0.231942140815E+04   -0.13745E-02   -0.17962E-02  4752   0.108E-01    0.150E-01
RMM:   3    -0.231942106236E+04    0.34578E-03   -0.10608E-03  4735   0.436E-02    0.748E-02
RMM:   4    -0.231942102600E+04    0.36359E-04   -0.60581E-04  4323   0.158E-02    0.224E-02
RMM:   5    -0.231942101824E+04    0.77631E-05   -0.43126E-05  3040   0.104E-02
  98 F= -.23395723E+04 E0= -.23395723E+04  d E =-.236558E-02  mag=     2.0000
[...]
RMM:   5    -0.231974956606E+04    0.11849E-05   -0.11161E-05  2847   0.657E-03
 365 F= -.23398163E+04 E0= -.23398163E+04  d E =-.573657E-03  mag=     2.0000
       N       E                     dE             d eps       ncg     rms          rms(c)
DAV:   1    -0.231974957360E+04   -0.63479E-05   -0.43506E-04  5112   0.178E-02    0.790E-03
RMM:   2    -0.231974957397E+04   -0.37564E-06   -0.11199E-05  2641   0.349E-03
 366 F= -.23398163E+04 E0= -.23398163E+04  d E =-.574191E-03  mag=     2.0000
       N       E                     dE             d eps       ncg     rms          rms(c)
DAV:   1    -0.231975016950E+04   -0.59590E-03   -0.18795E-01  4400   0.346E-01    0.140E-01
RMM:   2    -0.231975035723E+04   -0.18774E-03   -0.31853E-03  4607   0.492E-02    0.711E-02
RMM:   3    -0.231975028671E+04    0.70525E-04   -0.22573E-04  4403   0.256E-02    0.359E-02
RMM:   4    -0.231975027349E+04    0.13223E-04   -0.15645E-04  3989   0.918E-03    0.104E-02
RMM:   5    -0.231975027199E+04    0.14963E-05   -0.95917E-06  2833   0.645E-03
 367 F= -.23398168E+04 E0= -.23398168E+04  d E =-.538095E-03  mag=     2.0000
       N       E                     dE             d eps       ncg     rms          rms(c)
DAV:   1    -0.231975028591E+04   -0.12427E-04   -0.11426E-03  5168   0.282E-02    0.119E-02
RMM:   2    -0.231975028680E+04   -0.88534E-06   -0.25120E-05  2879   0.508E-03
 368 F= -.23398168E+04 E0= -.23398168E+04  d E =-.540913E-03  mag=     2.0000
       N       E                     dE             d eps       ncg     rms          rms(c)
DAV:   1    -0.231975080553E+04   -0.51961E-03   -0.19655E-01  4400   0.350E-01    0.142E-01
RMM:   2    -0.231975100697E+04   -0.20144E-03   -0.33183E-03  4836   0.501E-02    0.728E-02
RMM:   3    -0.231975093576E+04    0.71207E-04   -0.24644E-04  4623   0.259E-02    0.365E-02
RMM:   4    -0.231975092382E+04    0.11941E-04   -0.14795E-04  3975   0.897E-03    0.100E-02
RMM:   5    -0.231975092286E+04    0.96357E-06   -0.99681E-06  2843   0.632E-03
 369 F= -.23398173E+04 E0= -.23398173E+04  d E =-.494717E-03  mag=     2.0000
       N       E                     dE             d eps       ncg     rms          rms(c)
DAV:   1    -0.231975092469E+04   -0.86677E-06   -0.78695E-05  4616   0.846E-03    0.475E-03
RMM:   2    -0.231975092470E+04   -0.17782E-07   -0.35917E-06  2642   0.206E-03
 370 F= -.23398173E+04 E0= -.23398173E+04  d E =-.494204E-03  mag=     2.0000
       N       E                     dE             d eps       ncg     rms          rms(c)
DAV:   1    -0.231975145525E+04   -0.53056E-03   -0.18153E-01  4400   0.341E-01    0.139E-01
RMM:   2    -0.231975163294E+04   -0.17770E-03   -0.30286E-03  4535   0.479E-02    0.678E-02
RMM:   3    -0.231975156544E+04    0.67503E-04   -0.20031E-04  4327   0.240E-02    0.347E-02
RMM:   4    -0.231975155255E+04    0.12893E-04   -0.15398E-04  3980   0.894E-03    0.960E-03
RMM:   5    -0.231975155108E+04    0.14651E-05   -0.92634E-06  2837   0.634E-03
 371 F= -.23398178E+04 E0= -.23398178E+04  d E =-.486564E-03  mag=     2.0000
       N       E                     dE             d eps       ncg     rms          rms(c)
DAV:   1    -0.231975155872E+04   -0.61723E-05   -0.46227E-04  5144   0.188E-02    0.868E-03
RMM:   2    -0.231975155869E+04    0.27590E-07   -0.12659E-05  2668   0.374E-03
 372 F= -.23398178E+04 E0= -.23398178E+04  d E =-.487661E-03  mag=     2.0000
       N       E                     dE             d eps       ncg     rms          rms(c)
DAV:   1    -0.231975213741E+04   -0.57869E-03   -0.16706E-01  4400   0.315E-01    0.129E-01
RMM:   2    -0.231975229732E+04   -0.15992E-03   -0.26927E-03  4718   0.452E-02    0.677E-02
RMM:   3    -0.231975223673E+04    0.60590E-04   -0.20313E-04  4559   0.241E-02    0.329E-02
RMM:   4    -0.231975222666E+04    0.10069E-04   -0.12131E-04  3935   0.816E-03    0.926E-03
RMM:   5    -0.231975222552E+04    0.11495E-05   -0.79216E-06  2831   0.569E-03
 373 F= -.23398183E+04 E0= -.23398183E+04  d E =-.507975E-03  mag=     2.0000
       N       E                     dE             d eps       ncg     rms          rms(c)
DAV:   1    -0.231975224724E+04   -0.20576E-04   -0.19249E-03  5216   0.348E-02    0.146E-02
RMM:   2    -0.231975224901E+04   -0.17666E-05   -0.35561E-05  3067   0.578E-03
 374 F= -.23398183E+04 E0= -.23398183E+04  d E =-.514818E-03  mag=     2.0000
       N       E                     dE             d eps       ncg     rms          rms(c)
DAV:   1    -0.231975283788E+04   -0.59064E-03   -0.16975E-01  4400   0.321E-01    0.135E-01
RMM:   2    -0.231975298607E+04   -0.14819E-03   -0.26825E-03  4844   0.459E-02    0.678E-02
RMM:   3    -0.231975292254E+04    0.63530E-04   -0.20233E-04  4834   0.229E-02    0.335E-02
RMM:   4    -0.231975291123E+04    0.11306E-04   -0.12072E-04  3908   0.805E-03    0.850E-03
RMM:   5    -0.231975291004E+04    0.11968E-05   -0.80151E-06  2829   0.567E-03
 375 F= -.23398188E+04 E0= -.23398188E+04  d E =-.489700E-03  mag=     2.0000
       N       E                     dE             d eps       ncg     rms          rms(c)
DAV:   1    -0.231975293822E+04   -0.26987E-04   -0.27877E-03  5304   0.421E-02    0.178E-02
RMM:   2    -0.231975294042E+04   -0.21974E-05   -0.50003E-05  3311   0.689E-03
 376 F= -.23398188E+04 E0= -.23398188E+04  d E =-.498611E-03  mag=     2.0000
       N       E                     dE             d eps       ncg     rms          rms(c)
DAV:   1    -0.231975357639E+04   -0.63816E-03   -0.14086E-01  4400   0.281E-01    0.120E-01
RMM:   2    -0.231975369545E+04   -0.11906E-03   -0.21472E-03  4893   0.406E-02    0.630E-02
RMM:   3    -0.231975364413E+04    0.51323E-04   -0.16109E-04  4858   0.199E-02    0.298E-02
RMM:   4    -0.231975363593E+04    0.81967E-05   -0.86973E-05  3596   0.685E-03
 377 F= -.23398194E+04 E0= -.23398194E+04  d E =-.523139E-03  mag=     2.0000
       N       E                     dE             d eps       ncg     rms          rms(c)
DAV:   1    -0.231975374565E+04   -0.10153E-03   -0.33890E-02  4416   0.139E-01    0.577E-02
RMM:   2    -0.231975378177E+04   -0.36120E-04   -0.55313E-04  4882   0.227E-02    0.300E-02
RMM:   3    -0.231975377171E+04    0.10068E-04   -0.40352E-05  3128   0.993E-03    0.149E-02
RMM:   4    -0.231975376894E+04    0.27613E-05   -0.19517E-05  2863   0.385E-03
 378 F= -.23398194E+04 E0= -.23398194E+04  d E =-.571921E-03  mag=     2.0000
       N       E                     dE             d eps       ncg     rms          rms(c)
DAV:   1    -0.231975429325E+04   -0.52155E-03   -0.80135E-02  4400   0.199E-01    0.824E-02
RMM:   2    -0.231975435758E+04   -0.64327E-04   -0.10940E-03  4893   0.280E-02    0.457E-02
RMM:   3    -0.231975433351E+04    0.24070E-04   -0.81425E-05  3650   0.135E-02    0.205E-02
RMM:   4    -0.231975433062E+04    0.28890E-05   -0.42451E-05  3055   0.488E-03
 379 F= -.23398198E+04 E0= -.23398198E+04  d E =-.441331E-03  mag=     2.0000
       N       E                     dE             d eps       ncg     rms          rms(c)
DAV:   1    -0.231975468843E+04   -0.35492E-03   -0.20095E-01  4400   0.316E-01    0.131E-01
RMM:   2    -0.231975485091E+04   -0.16248E-03   -0.27327E-03  4836   0.438E-02    0.722E-02
RMM:   3    -0.231975479298E+04    0.57932E-04   -0.20795E-04  4756   0.217E-02    0.327E-02
RMM:   4    -0.231975478499E+04    0.79926E-05   -0.10750E-04  3613   0.702E-03    0.751E-03
RMM:   5    -0.231975478407E+04    0.92163E-06   -0.70876E-06  2826   0.502E-03
 380 F= -.23398201E+04 E0= -.23398201E+04  d E =-.705336E-03  mag=     2.0000
       N       E                     dE             d eps       ncg     rms          rms(c)
DAV:   1    -0.231975540655E+04   -0.62156E-03   -0.90233E-02  4400   0.213E-01    0.912E-02
RMM:   2    -0.231975547589E+04   -0.69339E-04   -0.12304E-03  4529   0.287E-02    0.490E-02
RMM:   3    -0.231975544655E+04    0.29347E-04   -0.73050E-05  3362   0.118E-02    0.224E-02
RMM:   4    -0.231975544277E+04    0.37739E-05   -0.53265E-05  3388   0.568E-03
 381 F= -.23398207E+04 E0= -.23398207E+04  d E =-.565289E-03  mag=     2.0000
       N       E                     dE             d eps       ncg     rms          rms(c)
DAV:   1    -0.231975584499E+04   -0.39844E-03   -0.33189E-01  4400   0.409E-01    0.174E-01
RMM:   2    -0.231975611694E+04   -0.27195E-03   -0.45856E-03  4860   0.573E-02    0.930E-02
RMM:   3    -0.231975601419E+04    0.10274E-03   -0.31938E-04  4749   0.259E-02    0.429E-02
RMM:   4    -0.231975599724E+04    0.16953E-04   -0.17460E-04  3968   0.897E-03    0.878E-03
RMM:   5    -0.231975599509E+04    0.21480E-05   -0.97150E-06  2833   0.605E-03
 382 F= -.23398210E+04 E0= -.23398210E+04  d E =-.939788E-03  mag=     2.0000
       N       E                     dE             d eps       ncg     rms          rms(c)
DAV:   1    -0.231975662796E+04   -0.63072E-03   -0.11324E-01  4400   0.220E-01    0.977E-02
RMM:   2    -0.231975670458E+04   -0.76629E-04   -0.14053E-03  4525   0.289E-02    0.561E-02
RMM:   3    -0.231975666947E+04    0.35112E-04   -0.95564E-05  3552   0.128E-02    0.223E-02
RMM:   4    -0.231975666662E+04    0.28572E-05   -0.49960E-05  3121   0.535E-03
 383 F= -.23398216E+04 E0= -.23398216E+04  d E =-.561220E-03  mag=     2.0000
       N       E                     dE             d eps       ncg     rms          rms(c)
DAV:   1    -0.231975712671E+04   -0.45724E-03   -0.66647E-01  4384   0.535E-01    0.235E-01
RMM:   2    -0.231975759841E+04   -0.47170E-03   -0.82821E-03  4630   0.709E-02    0.134E-01
RMM:   3    -0.231975740413E+04    0.19427E-03   -0.59717E-04  4648   0.333E-02    0.545E-02
RMM:   4    -0.231975738609E+04    0.18044E-04   -0.29430E-04  4020   0.110E-02    0.118E-02
RMM:   5    -0.231975738259E+04    0.34967E-05   -0.18415E-05  2889   0.795E-03
 384 F= -.23398221E+04 E0= -.23398221E+04  d E =-.101262E-02  mag=     2.0000
       N       E                     dE             d eps       ncg     rms          rms(c)
DAV:   1    -0.231975808805E+04   -0.70196E-03   -0.10670E-01  4416   0.202E-01    0.936E-02
RMM:   2    -0.231975815519E+04   -0.67136E-04   -0.12595E-03  4477   0.260E-02    0.549E-02
RMM:   3    -0.231975812306E+04    0.32133E-04   -0.90750E-05  3282   0.116E-02    0.196E-02
RMM:   4    -0.231975812149E+04    0.15674E-05   -0.40505E-05  2939   0.492E-03
 385 F= -.23398227E+04 E0= -.23398227E+04  d E =-.595783E-03  mag=     2.0000
       N       E                     dE             d eps       ncg     rms          rms(c)
DAV:   1    -0.231975916310E+04   -0.10400E-02   -0.95385E-01  4384   0.604E-01    0.275E-01
RMM:   2    -0.231975977412E+04   -0.61102E-03   -0.11054E-02  4543   0.777E-02    0.161E-01
RMM:   3    -0.231975951252E+04    0.26160E-03   -0.84966E-04  4562   0.387E-02    0.589E-02
RMM:   4    -0.231975949880E+04    0.13722E-04   -0.37826E-04  4020   0.118E-02    0.130E-02
RMM:   5    -0.231975949555E+04    0.32505E-05   -0.27191E-05  2934   0.932E-03
 386 F= -.23398236E+04 E0= -.23398236E+04  d E =-.154592E-02  mag=     2.0000
       N       E                     dE             d eps       ncg     rms          rms(c)
DAV:   1    -0.231976062732E+04   -0.11285E-02   -0.14421E-01  4416   0.259E-01    0.119E-01
RMM:   2    -0.231976072655E+04   -0.99222E-04   -0.19476E-03  4417   0.351E-02    0.643E-02
RMM:   3    -0.231976067703E+04    0.49519E-04   -0.13526E-04  4059   0.157E-02    0.285E-02
RMM:   4    -0.231976067074E+04    0.62913E-05   -0.88706E-05  3823   0.661E-03
 387 F= -.23398246E+04 E0= -.23398246E+04  d E =-.968012E-03  mag=     2.0000
       N       E                     dE             d eps       ncg     rms          rms(c)
DAV:   1    -0.231976137769E+04   -0.70067E-03   -0.36520E-01  4400   0.414E-01    0.188E-01
RMM:   2    -0.231976165430E+04   -0.27661E-03   -0.49975E-03  5010   0.601E-02    0.101E-01
RMM:   3    -0.231976153664E+04    0.11766E-03   -0.38168E-04  4664   0.253E-02    0.453E-02
RMM:   4    -0.231976151597E+04    0.20672E-04   -0.19466E-04  4090   0.956E-03    0.905E-03
RMM:   5    -0.231976151272E+04    0.32487E-05   -0.12971E-05  2856   0.646E-03
 388 F= -.23398251E+04 E0= -.23398251E+04  d E =-.148144E-02  mag=     2.0000
       N       E                     dE             d eps       ncg     rms          rms(c)
DAV:   1    -0.231976236648E+04   -0.85051E-03   -0.20912E-01  4400   0.282E-01    0.130E-01
RMM:   2    -0.231976249258E+04   -0.12610E-03   -0.23912E-03  4559   0.360E-02    0.759E-02
RMM:   3    -0.231976243341E+04    0.59173E-04   -0.17649E-04  4118   0.158E-02    0.285E-02
RMM:   4    -0.231976242903E+04    0.43792E-05   -0.75608E-05  3382   0.607E-03
 389 F= -.23398258E+04 E0= -.23398258E+04  d E =-.693009E-03  mag=     2.0000
       N       E                     dE             d eps       ncg     rms          rms(c)
DAV:   1    -0.231976302373E+04   -0.59032E-03   -0.85678E-01  4384   0.570E-01    0.263E-01
RMM:   2    -0.231976354764E+04   -0.52390E-03   -0.97279E-03  4607   0.740E-02    0.153E-01
RMM:   3    -0.231976332289E+04    0.22474E-03   -0.79176E-04  4476   0.359E-02    0.582E-02
RMM:   4    -0.231976330784E+04    0.15055E-04   -0.35298E-04  4034   0.117E-02    0.125E-02
RMM:   5    -0.231976330328E+04    0.45601E-05   -0.24296E-05  2899   0.847E-03
 390 F= -.23398262E+04 E0= -.23398262E+04  d E =-.112049E-02  mag=     2.0000
       N       E                     dE             d eps       ncg     rms          rms(c)
DAV:   1    -0.231976402697E+04   -0.71914E-03   -0.98870E-02  4512   0.187E-01    0.890E-02
RMM:   2    -0.231976408122E+04   -0.54245E-04   -0.10693E-03  4494   0.233E-02    0.525E-02
RMM:   3    -0.231976405453E+04    0.26690E-04   -0.82534E-05  3134   0.113E-02    0.179E-02
RMM:   4    -0.231976405377E+04    0.75620E-06   -0.34628E-05  2905   0.431E-03
 391 F= -.23398268E+04 E0= -.23398268E+04  d E =-.625262E-03  mag=     2.0000
       N       E                     dE             d eps       ncg     rms          rms(c)
DAV:   1    -0.231976544277E+04   -0.13882E-02   -0.88439E-01  4384   0.558E-01    0.263E-01
RMM:   2    -0.231976593345E+04   -0.49068E-03   -0.93951E-03  4432   0.690E-02    0.155E-01
RMM:   3    -0.231976570930E+04    0.22415E-03   -0.77136E-04  4386   0.358E-02    0.537E-02
RMM:   4    -0.231976569970E+04    0.95986E-05   -0.31236E-04  3956   0.105E-02    0.115E-02
RMM:   5    -0.231976569744E+04    0.22619E-05   -0.24600E-05  2911   0.877E-03
 392 F= -.23398281E+04 E0= -.23398281E+04  d E =-.189869E-02  mag=     2.0000
       N       E                     dE             d eps       ncg     rms          rms(c)
DAV:   1    -0.231976535703E+04    0.34267E-03   -0.35456E+00  4384   0.112E+00    0.528E-01
RMM:   2    -0.231976729020E+04   -0.19332E-02   -0.38295E-02  4367   0.136E-01    0.311E-01
RMM:   3    -0.231976631137E+04    0.97884E-03   -0.27818E-03  4668   0.474E-02    0.108E-01
RMM:   4    -0.231976626023E+04    0.51139E-04   -0.11189E-03  4640   0.195E-02    0.224E-02
RMM:   5    -0.231976624603E+04    0.14194E-04   -0.10829E-04  3507   0.142E-02    0.121E-02
RMM:   6    -0.231976624224E+04    0.37895E-05   -0.32787E-05  2970   0.417E-03
 393 F= -.23398279E+04 E0= -.23398279E+04  d E =-.172797E-02  mag=     2.0000
       N       E                     dE             d eps       ncg     rms          rms(c)
DAV:   1    -0.231976606606E+04    0.17997E-03   -0.11937E+00  4384   0.652E-01    0.307E-01
RMM:   2    -0.231976670124E+04   -0.63519E-03   -0.12724E-02  4414   0.795E-02    0.180E-01
RMM:   3    -0.231976637827E+04    0.32297E-03   -0.99758E-04  4415   0.369E-02    0.616E-02
RMM:   4    -0.231976636528E+04    0.12994E-04   -0.37362E-04  4001   0.121E-02    0.132E-02
RMM:   5    -0.231976636238E+04    0.28955E-05   -0.37919E-05  2971   0.986E-03
 394 F= -.23398285E+04 E0= -.23398285E+04  d E =-.225931E-02  mag=     2.0000
       N       E                     dE             d eps       ncg     rms          rms(c)
DAV:   1    -0.231976782978E+04   -0.14645E-02   -0.31603E-01  4384   0.350E-01    0.162E-01
RMM:   2    -0.231976801755E+04   -0.18778E-03   -0.36130E-03  4392   0.449E-02    0.924E-02
RMM:   3    -0.231976792606E+04    0.91493E-04   -0.26248E-04  4256   0.203E-02    0.362E-02
RMM:   4    -0.231976791817E+04    0.78907E-05   -0.12885E-04  3892   0.759E-03    0.845E-03
RMM:   5    -0.231976791670E+04    0.14747E-05   -0.11009E-05  2828   0.614E-03
 395 F= -.23398298E+04 E0= -.23398298E+04  d E =-.134639E-02  mag=     2.0000
       N       E                     dE             d eps       ncg     rms          rms(c)
DAV:   1    -0.231976891571E+04   -0.99754E-03   -0.71437E-01  4384   0.527E-01    0.246E-01
RMM:   2    -0.231976934706E+04   -0.43135E-03   -0.83617E-03  4368   0.676E-02    0.141E-01
RMM:   3    -0.231976913084E+04    0.21621E-03   -0.60349E-04  4712   0.259E-02    0.545E-02
RMM:   4    -0.231976911086E+04    0.19981E-04   -0.27707E-04  4226   0.106E-02    0.118E-02
RMM:   5    -0.231976910662E+04    0.42469E-05   -0.26830E-05  2911   0.857E-03
 396 F= -.23398307E+04 E0= -.23398307E+04  d E =-.223005E-02  mag=     2.0000
       N       E                     dE             d eps       ncg     rms          rms(c)
DAV:   1    -0.231977013766E+04   -0.10268E-02   -0.18814E-01  4400   0.295E-01    0.134E-01
RMM:   2    -0.231977026722E+04   -0.12956E-03   -0.24450E-03  4518   0.396E-02    0.719E-02
RMM:   3    -0.231977020581E+04    0.61406E-04   -0.16550E-04  4328   0.177E-02    0.323E-02
RMM:   4    -0.231977019723E+04    0.85795E-05   -0.10827E-04  3837   0.727E-03    0.752E-03
RMM:   5    -0.231977019585E+04    0.13788E-05   -0.88770E-06  2827   0.584E-03
 397 F= -.23398316E+04 E0= -.23398316E+04  d E =-.914691E-03  mag=     2.0000
       N       E                     dE             d eps       ncg     rms          rms(c)
DAV:   1    -0.231977067533E+04   -0.47810E-03   -0.21275E-01  4400   0.314E-01    0.142E-01
RMM:   2    -0.231977081974E+04   -0.14441E-03   -0.28031E-03  4411   0.421E-02    0.766E-02
RMM:   3    -0.231977074619E+04    0.73553E-04   -0.18705E-04  4301   0.167E-02    0.349E-02
RMM:   4    -0.231977073378E+04    0.12409E-04   -0.11985E-04  3946   0.774E-03    0.819E-03
RMM:   5    -0.231977073168E+04    0.20992E-05   -0.10060E-05  2839   0.624E-03
 398 F= -.23398320E+04 E0= -.23398320E+04  d E =-.126667E-02  mag=     2.0000
       N       E                     dE             d eps       ncg     rms          rms(c)
DAV:   1    -0.231977159160E+04   -0.85782E-03   -0.19694E-01  4400   0.298E-01    0.130E-01
RMM:   2    -0.231977172822E+04   -0.13662E-03   -0.24874E-03  4444   0.388E-02    0.728E-02
RMM:   3    -0.231977166792E+04    0.60298E-04   -0.16942E-04  4175   0.166E-02    0.318E-02
RMM:   4    -0.231977166062E+04    0.72978E-05   -0.97381E-05  3850   0.679E-03
 399 F= -.23398327E+04 E0= -.23398327E+04  d E =-.765185E-03  mag=     2.0000
       N       E                     dE             d eps       ncg     rms          rms(c)
DAV:   1    -0.231977205046E+04   -0.38254E-03   -0.28708E-01  4384   0.360E-01    0.156E-01
RMM:   2    -0.231977227401E+04   -0.22355E-03   -0.37660E-03  5243   0.515E-02    0.874E-02
RMM:   3    -0.231977218878E+04    0.85229E-04   -0.27634E-04  5065   0.195E-02    0.386E-02
RMM:   4    -0.231977217605E+04    0.12726E-04   -0.11704E-04  3407   0.728E-03    0.722E-03
RMM:   5    -0.231977217503E+04    0.10265E-05   -0.84902E-06  2837   0.499E-03
 400 F= -.23398330E+04 E0= -.23398330E+04  d E =-.108386E-02  mag=     2.0000
       N       E                     dE             d eps       ncg     rms          rms(c)
DAV:   1    -0.231977302603E+04   -0.84998E-03   -0.18777E-01  4400   0.289E-01    0.124E-01
RMM:   2    -0.231977315323E+04   -0.12720E-03   -0.23315E-03  4595   0.375E-02    0.709E-02
RMM:   3    -0.231977309577E+04    0.57465E-04   -0.16345E-04  4194   0.165E-02    0.302E-02
RMM:   4    -0.231977308851E+04    0.72553E-05   -0.88183E-05  3698   0.649E-03
 401 F= -.23398338E+04 E0= -.23398338E+04  d E =-.772192E-03  mag=     2.0000
