       N       E                     dE             d eps       ncg     rms          rms(c)
DAV:   1     0.127251203149E+05    0.12725E+05   -0.84856E+05  4640   0.143E+03
DAV:   2    -0.122881998428E+04   -0.13954E+05   -0.13379E+05  5120   0.325E+02
DAV:   3    -0.250564163349E+04   -0.12768E+04   -0.12662E+04  5440   0.107E+02
DAV:   4    -0.253640382714E+04   -0.30762E+02   -0.30572E+02  5600   0.212E+01
DAV:   5    -0.253747808345E+04   -0.10743E+01   -0.10720E+01  5840   0.324E+00    0.170E+02
RMM:   6    -0.149655258698E+04    0.10409E+04   -0.19558E+03  4511   0.380E+01    0.726E+01
RMM:   7    -0.166972063579E+04   -0.17317E+03   -0.29490E+02  5138   0.144E+01    0.520E+01
RMM:   8    -0.172070872484E+04   -0.50988E+02   -0.71223E+01  5363   0.808E+00    0.435E+01
RMM:   9    -0.179155494214E+04   -0.70846E+02   -0.64460E+01  5014   0.769E+00    0.330E+01
RMM:  10    -0.192511179123E+04   -0.13356E+03   -0.62456E+01  5347   0.763E+00    0.259E+01
RMM:  11    -0.199393016291E+04   -0.68818E+02   -0.27819E+01  5359   0.461E+00    0.206E+01
RMM:  12    -0.207289769891E+04   -0.78968E+02   -0.29580E+01  4909   0.434E+00    0.156E+01
RMM:  13    -0.216410970132E+04   -0.91212E+02   -0.47732E+01  4869   0.522E+00    0.132E+01
RMM:  14    -0.225573502391E+04   -0.91625E+02   -0.68354E+01  4649   0.616E+00    0.101E+01
RMM:  15    -0.229934729090E+04   -0.43612E+02   -0.33346E+01  4839   0.451E+00    0.610E+00
RMM:  16    -0.232567449258E+04   -0.26327E+02   -0.27000E+01  4594   0.349E+00    0.485E+00
RMM:  17    -0.232953011675E+04   -0.38556E+01   -0.40900E+00  4837   0.201E+00    0.491E+00
RMM:  18    -0.233023679181E+04   -0.70668E+00   -0.12891E+00  5453   0.554E-01    0.403E+00
RMM:  19    -0.233319377173E+04   -0.29570E+01   -0.17017E+00  4627   0.856E-01    0.222E+00
RMM:  20    -0.233424640444E+04   -0.10526E+01   -0.80135E-01  4628   0.583E-01    0.127E+00
RMM:  21    -0.233464792545E+04   -0.40152E+00   -0.39684E-01  4633   0.362E-01    0.849E-01
RMM:  22    -0.233477822686E+04   -0.13030E+00   -0.14769E-01  4822   0.208E-01    0.584E-01
RMM:  23    -0.233489353557E+04   -0.11531E+00   -0.76124E-02  4663   0.152E-01    0.395E-01
RMM:  24    -0.233496258174E+04   -0.69046E-01   -0.34873E-02  4631   0.118E-01    0.282E-01
RMM:  25    -0.233498500391E+04   -0.22422E-01   -0.97018E-03  4958   0.689E-02    0.172E-01
RMM:  26    -0.233499724382E+04   -0.12240E-01   -0.26986E-03  4979   0.365E-02    0.107E-01
RMM:  27    -0.233501096865E+04   -0.13725E-01   -0.19247E-03  4519   0.295E-02    0.793E-02
RMM:  28    -0.233502059507E+04   -0.96264E-02   -0.15388E-03  4559   0.271E-02    0.697E-02
RMM:  29    -0.233502661645E+04   -0.60214E-02   -0.13878E-03  4587   0.244E-02    0.317E-02
RMM:  30    -0.233502823561E+04   -0.16192E-02   -0.42109E-04  4346   0.172E-02    0.164E-02
RMM:  31    -0.233502881693E+04   -0.58132E-03   -0.18639E-04  4020   0.828E-03    0.840E-03
RMM:  32    -0.233502896044E+04   -0.14351E-03   -0.38327E-05  3371   0.730E-03    0.533E-03
RMM:  33    -0.233502903251E+04   -0.72066E-04   -0.18503E-05  3063   0.322E-03    0.274E-03
RMM:  34    -0.233502907203E+04   -0.39523E-04   -0.79427E-06  2891   0.292E-03    0.165E-03
RMM:  35    -0.233502908424E+04   -0.12213E-04   -0.40755E-06  2651   0.230E-03    0.109E-03
RMM:  36    -0.233502908770E+04   -0.34550E-05   -0.20410E-06  2525   0.173E-03
   1 F= -.23565408E+04 E0= -.23565408E+04  d E =-.242219E-05  mag=     3.0001
       N       E                     dE             d eps       ncg     rms          rms(c)
DAV:   1    -0.233500941882E+04    0.19665E-01   -0.20459E+00  4320   0.530E-01    0.269E-01
RMM:   2    -0.233500917288E+04    0.24594E-03   -0.10530E-02  3860   0.352E-02    0.186E-01
RMM:   3    -0.233500993827E+04   -0.76539E-03   -0.25946E-03  4896   0.224E-02    0.337E-01
RMM:   4    -0.233500868742E+04    0.12509E-02   -0.15098E-03  4553   0.153E-02    0.912E-02
RMM:   5    -0.233500865263E+04    0.34791E-04   -0.23233E-04  2963   0.700E-03    0.714E-02
RMM:   6    -0.233500860756E+04    0.45067E-04   -0.53811E-05  2835   0.416E-03    0.250E-02
RMM:   7    -0.233500860590E+04    0.16580E-05   -0.26133E-05  2536   0.282E-03
   2 F= -.23565184E+04 E0= -.23565184E+04  d E =-.211799E-05  mag=     3.0000
       N       E                     dE             d eps       ncg     rms          rms(c)
DAV:   1    -0.233503559735E+04   -0.26990E-01   -0.81469E+00  4480   0.109E+00    0.538E-01
RMM:   2    -0.233503349773E+04    0.20996E-02   -0.32617E-02  4112   0.691E-02    0.357E-01
RMM:   3    -0.233503691226E+04   -0.34145E-02   -0.96157E-03  5381   0.477E-02    0.683E-01
RMM:   4    -0.233503191563E+04    0.49966E-02   -0.60753E-03  5495   0.303E-02    0.175E-01
RMM:   5    -0.233503187270E+04    0.42925E-04   -0.95395E-04  3389   0.137E-02    0.164E-01
RMM:   6    -0.233503161233E+04    0.26037E-03   -0.22484E-04  3179   0.764E-03    0.433E-02
RMM:   7    -0.233503162360E+04   -0.11271E-04   -0.11495E-04  2964   0.532E-03    0.464E-02
RMM:   8    -0.233503160081E+04    0.22797E-04   -0.49639E-05  2931   0.395E-03    0.130E-02
RMM:   9    -0.233503160230E+04   -0.14944E-05   -0.63942E-06  2610   0.230E-03
   3 F= -.23565454E+04 E0= -.23565454E+04  d E =-.259115E-05  mag=     3.0000
       N       E                     dE             d eps       ncg     rms          rms(c)
DAV:   1    -0.233499259608E+04    0.39005E-01   -0.39998E+00  4480   0.694E-01    0.360E-01
RMM:   2    -0.233499145554E+04    0.11405E-02   -0.10604E-02  3854   0.376E-02    0.211E-01
RMM:   3    -0.233499220519E+04   -0.74965E-03   -0.32407E-03  4745   0.248E-02    0.336E-01
RMM:   4    -0.233499113938E+04    0.10658E-02   -0.17867E-03  4253   0.169E-02    0.184E-01
RMM:   5    -0.233499091831E+04    0.22107E-03   -0.65675E-04  3088   0.107E-02    0.112E-01
RMM:   6    -0.233499078578E+04    0.13253E-03   -0.14371E-04  2931   0.624E-03    0.244E-02
RMM:   7    -0.233499079648E+04   -0.10704E-04   -0.33950E-05  2741   0.321E-03    0.354E-02
RMM:   8    -0.233499078449E+04    0.11989E-04   -0.17818E-05  2604   0.252E-03    0.121E-02
RMM:   9    -0.233499078345E+04    0.10432E-05   -0.32107E-06  2499   0.151E-03
   4 F= -.23565029E+04 E0= -.23565029E+04  d E =-.263663E-05  mag=     3.0000
       N       E                     dE             d eps       ncg     rms          rms(c)
DAV:   1    -0.233504441387E+04   -0.53629E-01   -0.82280E+00  4480   0.107E+00    0.577E-01
RMM:   2    -0.233504211549E+04    0.22984E-02   -0.34131E-02  4253   0.731E-02    0.423E-01
RMM:   3    -0.233504328584E+04   -0.11703E-02   -0.94976E-03  5542   0.451E-02    0.563E-01
RMM:   4    -0.233503971210E+04    0.35737E-02   -0.57794E-03  5450   0.304E-02    0.213E-01
RMM:   5    -0.233503960218E+04    0.10993E-03   -0.18273E-03  4525   0.171E-02    0.183E-01
RMM:   6    -0.233503916498E+04    0.43719E-03   -0.44187E-04  3394   0.101E-02    0.343E-02
RMM:   7    -0.233503917725E+04   -0.12263E-04   -0.12216E-04  3188   0.503E-03    0.589E-02
RMM:   8    -0.233503914504E+04    0.32207E-04   -0.39411E-05  2752   0.400E-03    0.197E-02
RMM:   9    -0.233503914013E+04    0.49149E-05   -0.71401E-06  2665   0.205E-03
   5 F= -.23565507E+04 E0= -.23565507E+04  d E =-.225472E-05  mag=     3.0000
       N       E                     dE             d eps       ncg     rms          rms(c)
DAV:   1    -0.233504417448E+04   -0.50294E-02   -0.40827E+00  4480   0.817E-01    0.372E-01
RMM:   2    -0.233504529983E+04   -0.11253E-02   -0.27432E-02  4316   0.638E-02    0.398E-01
RMM:   3    -0.233504402946E+04    0.12704E-02   -0.44576E-03  4858   0.356E-02    0.289E-01
RMM:   4    -0.233504341426E+04    0.61520E-03   -0.34008E-03  4613   0.217E-02    0.177E-01
RMM:   5    -0.233504303446E+04    0.37980E-03   -0.73277E-04  3518   0.153E-02    0.769E-02
RMM:   6    -0.233504306101E+04   -0.26545E-04   -0.17923E-04  3011   0.618E-03    0.103E-01
RMM:   7    -0.233504295151E+04    0.10949E-03   -0.87059E-05  2801   0.460E-03    0.228E-02
RMM:   8    -0.233504295025E+04    0.12602E-05   -0.27060E-05  2638   0.280E-03
   6 F= -.23565524E+04 E0= -.23565524E+04  d E =-.179617E-05  mag=     3.0000
       N       E                     dE             d eps       ncg     rms          rms(c)
DAV:   1    -0.233498874903E+04    0.54202E-01   -0.82029E+00  4480   0.105E+00    0.539E-01
RMM:   2    -0.233498841294E+04    0.33609E-03   -0.42564E-02  4407   0.828E-02    0.509E-01
RMM:   3    -0.233498770368E+04    0.70925E-03   -0.82997E-03  5595   0.416E-02    0.494E-01
RMM:   4    -0.233498494119E+04    0.27625E-02   -0.45415E-03  5353   0.271E-02    0.168E-01
RMM:   5    -0.233498513033E+04   -0.18914E-03   -0.13722E-03  4352   0.166E-02    0.214E-01
RMM:   6    -0.233498464042E+04    0.48991E-03   -0.42635E-04  3259   0.917E-03    0.763E-02
RMM:   7    -0.233498460210E+04    0.38324E-04   -0.15016E-04  2970   0.570E-03    0.490E-02
RMM:   8    -0.233498456958E+04    0.32518E-04   -0.64992E-05  3034   0.413E-03    0.118E-02
RMM:   9    -0.233498456912E+04    0.46690E-06   -0.74035E-06  2694   0.250E-03
   7 F= -.23564987E+04 E0= -.23564987E+04  d E =-.327330E-05  mag=     3.0000
       N       E                     dE             d eps       ncg     rms          rms(c)
DAV:   1    -0.233501877118E+04   -0.34202E-01   -0.44774E+00  4320   0.920E-01    0.436E-01
RMM:   2    -0.233501713033E+04    0.16409E-02   -0.24546E-02  3928   0.655E-02    0.312E-01
RMM:   3    -0.233501834362E+04   -0.12133E-02   -0.59030E-03  5120   0.384E-02    0.489E-01
RMM:   4    -0.233501560079E+04    0.27428E-02   -0.42031E-03  5100   0.256E-02    0.113E-01
RMM:   5    -0.233501569042E+04   -0.89629E-04   -0.75040E-04  3550   0.144E-02    0.151E-01
RMM:   6    -0.233501546069E+04    0.22973E-03   -0.22051E-04  3027   0.677E-03    0.376E-02
RMM:   7    -0.233501545368E+04    0.70167E-05   -0.67496E-05  2760   0.395E-03
   8 F= -.23565271E+04 E0= -.23565271E+04  d E =-.223845E-05  mag=     3.0000
       N       E                     dE             d eps       ncg     rms          rms(c)
DAV:   1    -0.233500853095E+04    0.69297E-02   -0.85859E+00  4320   0.128E+00    0.629E-01
RMM:   2    -0.233500393436E+04    0.45966E-02   -0.38501E-02  3844   0.824E-02    0.372E-01
RMM:   3    -0.233500693085E+04   -0.29965E-02   -0.12939E-02  5170   0.466E-02    0.713E-01
RMM:   4    -0.233500194819E+04    0.49827E-02   -0.55735E-03  5169   0.296E-02    0.188E-01
RMM:   5    -0.233500167846E+04    0.26973E-03   -0.90878E-04  3748   0.119E-02    0.102E-01
RMM:   6    -0.233500152767E+04    0.15080E-03   -0.21655E-04  3039   0.733E-03    0.362E-02
RMM:   7    -0.233500149919E+04    0.28479E-04   -0.77637E-05  2915   0.379E-03    0.144E-02
RMM:   8    -0.233500150025E+04   -0.10658E-05   -0.16203E-05  2811   0.329E-03
   9 F= -.23565133E+04 E0= -.23565133E+04  d E =-.241439E-05  mag=     3.0000
       N       E                     dE             d eps       ncg     rms          rms(c)
DAV:   1    -0.233501172046E+04   -0.10221E-01   -0.43118E+00  4320   0.921E-01    0.463E-01
RMM:   2    -0.233500896332E+04    0.27571E-02   -0.15314E-02  3661   0.522E-02    0.276E-01
RMM:   3    -0.233501202303E+04   -0.30597E-02   -0.84897E-03  5379   0.348E-02    0.612E-01
RMM:   4    -0.233500793292E+04    0.40901E-02   -0.34792E-03  4984   0.249E-02    0.125E-01
RMM:   5    -0.233500777547E+04    0.15745E-03   -0.49425E-04  3281   0.863E-03    0.692E-02
RMM:   6    -0.233500771711E+04    0.58363E-04   -0.95601E-05  2858   0.480E-03    0.406E-02
RMM:   7    -0.233500769733E+04    0.19777E-04   -0.48372E-05  2718   0.359E-03    0.237E-02
RMM:   8    -0.233500769122E+04    0.61101E-05   -0.42877E-05  2801   0.311E-03
  10 F= -.23565190E+04 E0= -.23565190E+04  d E =-.241683E-05  mag=     3.0000
       N       E                     dE             d eps       ncg     rms          rms(c)
DAV:   1    -0.233501593823E+04   -0.82409E-02   -0.85828E+00  4320   0.134E+00    0.637E-01
RMM:   2    -0.233501130370E+04    0.46345E-02   -0.41838E-02  3868   0.863E-02    0.391E-01
RMM:   3    -0.233501306421E+04   -0.17605E-02   -0.11008E-02  5580   0.461E-02    0.603E-01
RMM:   4    -0.233500918342E+04    0.38808E-02   -0.62027E-03  5570   0.328E-02    0.222E-01
RMM:   5    -0.233500912426E+04    0.59156E-04   -0.14064E-03  4273   0.165E-02    0.205E-01
RMM:   6    -0.233500865023E+04    0.47403E-03   -0.34323E-04  3067   0.899E-03    0.547E-02
RMM:   7    -0.233500863144E+04    0.18791E-04   -0.11826E-04  2893   0.505E-03    0.472E-02
RMM:   8    -0.233500859830E+04    0.33139E-04   -0.61630E-05  2788   0.375E-03    0.137E-02
RMM:   9    -0.233500859754E+04    0.76069E-06   -0.90193E-06  2693   0.253E-03
  11 F= -.23565208E+04 E0= -.23565208E+04  d E =-.242416E-05  mag=     3.0000
       N       E                     dE             d eps       ncg     rms          rms(c)
DAV:   1    -0.233502489017E+04   -0.16292E-01   -0.42662E+00  4320   0.902E-01    0.446E-01
RMM:   2    -0.233502221786E+04    0.26723E-02   -0.21934E-02  3675   0.581E-02    0.256E-01
RMM:   3    -0.233502142570E+04    0.79216E-03   -0.44048E-03  4623   0.305E-02    0.229E-01
RMM:   4    -0.233502161164E+04   -0.18595E-03   -0.21922E-03  4758   0.193E-02    0.264E-01
RMM:   5    -0.233502090457E+04    0.70707E-03   -0.51481E-04  3495   0.105E-02    0.774E-02
RMM:   6    -0.233502084501E+04    0.59564E-04   -0.97344E-05  2809   0.547E-03    0.369E-02
RMM:   7    -0.233502082551E+04    0.19500E-04   -0.36306E-05  2695   0.295E-03    0.113E-02
RMM:   8    -0.233502082512E+04    0.38830E-06   -0.66240E-06  2471   0.213E-03
  12 F= -.23565324E+04 E0= -.23565324E+04  d E =-.255169E-05  mag=     3.0000
       N       E                     dE             d eps       ncg     rms          rms(c)
DAV:   1    -0.233500383545E+04    0.16990E-01   -0.85846E+00  4320   0.128E+00    0.628E-01
RMM:   2    -0.233499913289E+04    0.47026E-02   -0.41295E-02  3801   0.838E-02    0.362E-01
RMM:   3    -0.233499914368E+04   -0.10792E-04   -0.14959E-02  5461   0.507E-02    0.434E-01
RMM:   4    -0.233499695719E+04    0.21865E-02   -0.36952E-03  5249   0.265E-02    0.132E-01
RMM:   5    -0.233499680843E+04    0.14876E-03   -0.47123E-04  3183   0.895E-03    0.971E-02
RMM:   6    -0.233499672231E+04    0.86115E-04   -0.15068E-04  2828   0.590E-03    0.571E-02
RMM:   7    -0.233499671257E+04    0.97423E-05   -0.97038E-05  2925   0.444E-03
  13 F= -.23565087E+04 E0= -.23565087E+04  d E =-.254257E-05  mag=     3.0000
       N       E                     dE             d eps       ncg     rms          rms(c)
DAV:   1    -0.233502864475E+04   -0.31922E-01   -0.27363E+00  4320   0.698E-01    0.434E-01
RMM:   2    -0.233502621805E+04    0.24267E-02   -0.16216E-02  3647   0.502E-02    0.245E-01
RMM:   3    -0.233502659172E+04   -0.37367E-03   -0.62304E-03  5095   0.288E-02    0.330E-01
RMM:   4    -0.233502531927E+04    0.12725E-02   -0.15320E-03  4297   0.173E-02    0.102E-01
RMM:   5    -0.233502531116E+04    0.81096E-05   -0.38639E-04  3121   0.776E-03    0.102E-01
RMM:   6    -0.233502519481E+04    0.11635E-03   -0.16113E-04  2918   0.598E-03    0.436E-02
RMM:   7    -0.233502518050E+04    0.14303E-04   -0.51197E-05  2573   0.385E-03    0.258E-02
RMM:   8    -0.233502517337E+04    0.71341E-05   -0.87532E-06  2369   0.241E-03
  14 F= -.23565370E+04 E0= -.23565370E+04  d E =-.239630E-05  mag=     3.0000
       N       E                     dE             d eps       ncg     rms          rms(c)
DAV:   1    -0.233502401672E+04    0.11638E-02   -0.12839E+00  4480   0.444E-01    0.453E-01
RMM:   2    -0.233502184535E+04    0.21714E-02   -0.10687E-02  3625   0.367E-02    0.245E-01
RMM:   3    -0.233502161712E+04    0.22823E-03   -0.42363E-03  4532   0.243E-02    0.113E-01
RMM:   4    -0.233502161515E+04    0.19710E-05   -0.57063E-04  3657   0.111E-02    0.132E-01
RMM:   5    -0.233502144985E+04    0.16530E-03   -0.40146E-04  3491   0.882E-03    0.724E-02
RMM:   6    -0.233502140326E+04    0.46588E-04   -0.89969E-05  2779   0.551E-03    0.377E-02
RMM:   7    -0.233502138946E+04    0.13806E-04   -0.16741E-05  2449   0.284E-03    0.179E-02
RMM:   8    -0.233502138523E+04    0.42246E-05   -0.58076E-06  2168   0.161E-03
  15 F= -.23565330E+04 E0= -.23565330E+04  d E =-.245338E-05  mag=     3.0000
       N       E                     dE             d eps       ncg     rms          rms(c)
DAV:   1    -0.233502329136E+04   -0.19019E-02   -0.65507E-01  4640   0.316E-01    0.380E-01
RMM:   2    -0.233502118113E+04    0.21102E-02   -0.83921E-03  3503   0.315E-02    0.198E-01
RMM:   3    -0.233502115458E+04    0.26554E-04   -0.37379E-03  4207   0.240E-02    0.149E-01
RMM:   4    -0.233502091948E+04    0.23510E-03   -0.62582E-04  3926   0.114E-02    0.880E-02
RMM:   5    -0.233502082194E+04    0.97540E-04   -0.29085E-04  3350   0.702E-03    0.398E-02
RMM:   6    -0.233502082271E+04   -0.76846E-06   -0.10111E-04  2801   0.535E-03    0.402E-02
RMM:   7    -0.233502080427E+04    0.18433E-04   -0.17830E-05  2403   0.295E-03    0.183E-02
RMM:   8    -0.233502080027E+04    0.40064E-05   -0.43828E-06  2007   0.154E-03
  16 F= -.23565326E+04 E0= -.23565326E+04  d E =-.245199E-05  mag=     3.0000
       N       E                     dE             d eps       ncg     rms          rms(c)
DAV:   1    -0.233502957959E+04   -0.87753E-02   -0.12732E+00  4640   0.442E-01    0.431E-01
RMM:   2    -0.233502764986E+04    0.19297E-02   -0.83458E-03  3633   0.337E-02    0.240E-01
RMM:   3    -0.233502863032E+04   -0.98046E-03   -0.44412E-03  5025   0.293E-02    0.328E-01
RMM:   4    -0.233502736044E+04    0.12699E-02   -0.12173E-03  4420   0.156E-02    0.727E-02
RMM:   5    -0.233502737043E+04   -0.99872E-05   -0.37153E-04  3430   0.783E-03    0.870E-02
RMM:   6    -0.233502732559E+04    0.44837E-04   -0.21671E-04  3173   0.681E-03    0.663E-02
RMM:   7    -0.233502729476E+04    0.30834E-04   -0.62721E-05  2739   0.444E-03    0.358E-02
RMM:   8    -0.233502727846E+04    0.16300E-04   -0.11578E-05  2362   0.253E-03    0.815E-03
RMM:   9    -0.233502727800E+04    0.45555E-06   -0.18234E-05  2317   0.166E-03
  17 F= -.23565389E+04 E0= -.23565389E+04  d E =-.240745E-05  mag=     3.0000
       N       E                     dE             d eps       ncg     rms          rms(c)
DAV:   1    -0.233502233327E+04    0.49452E-02   -0.63464E-01  4160   0.301E-01    0.241E-01
RMM:   2    -0.233502235328E+04   -0.20010E-04   -0.23384E-03  3255   0.181E-02    0.146E-01
RMM:   3    -0.233502275385E+04   -0.40057E-03   -0.97739E-04  4249   0.133E-02    0.191E-01
RMM:   4    -0.233502231831E+04    0.43554E-03   -0.32109E-04  3108   0.865E-03    0.308E-02
RMM:   5    -0.233502231108E+04    0.72299E-05   -0.48688E-05  2699   0.342E-03
  18 F= -.23565339E+04 E0= -.23565339E+04  d E =-.252799E-05  mag=     3.0000
       N       E                     dE             d eps       ncg     rms          rms(c)
DAV:   1    -0.233502629403E+04   -0.39757E-02   -0.12865E+00  4800   0.437E-01    0.468E-01
RMM:   2    -0.233502380717E+04    0.24869E-02   -0.11746E-02  3609   0.392E-02    0.259E-01
RMM:   3    -0.233502529037E+04   -0.14832E-02   -0.63381E-03  4923   0.313E-02    0.439E-01
RMM:   4    -0.233502331261E+04    0.19778E-02   -0.16636E-03  4370   0.173E-02    0.990E-02
RMM:   5    -0.233502326635E+04    0.46260E-04   -0.42507E-04  3357   0.834E-03    0.976E-02
RMM:   6    -0.233502316991E+04    0.96441E-04   -0.36752E-04  3500   0.825E-03    0.487E-02
RMM:   7    -0.233502316507E+04    0.48403E-05   -0.78537E-05  2755   0.545E-03
  19 F= -.23565350E+04 E0= -.23565350E+04  d E =-.253177E-05  mag=     3.0000
       N       E                     dE             d eps       ncg     rms          rms(c)
DAV:   1    -0.233502302889E+04    0.14102E-03   -0.64902E-01  4800   0.330E-01    0.348E-01
RMM:   2    -0.233502117224E+04    0.18566E-02   -0.88707E-03  3589   0.323E-02    0.175E-01
RMM:   3    -0.233502127907E+04   -0.10684E-03   -0.30730E-03  4414   0.215E-02    0.183E-01
RMM:   4    -0.233502098535E+04    0.29372E-03   -0.48288E-04  3375   0.964E-03    0.868E-02
RMM:   5    -0.233502093692E+04    0.48437E-04   -0.33012E-04  3359   0.730E-03    0.634E-02
RMM:   6    -0.233502092246E+04    0.14457E-04   -0.12715E-04  3000   0.582E-03    0.498E-02
RMM:   7    -0.233502089311E+04    0.29349E-04   -0.18018E-05  2584   0.331E-03    0.104E-02
RMM:   8    -0.233502089109E+04    0.20187E-05   -0.90697E-06  2196   0.166E-03
  20 F= -.23565321E+04 E0= -.23565321E+04  d E =-.243942E-05  mag=     3.0000
       N       E                     dE             d eps       ncg     rms          rms(c)
DAV:   1    -0.233502709006E+04   -0.61970E-02   -0.12532E+00  4960   0.445E-01    0.469E-01
RMM:   2    -0.233502436971E+04    0.27204E-02   -0.11518E-02  3731   0.369E-02    0.250E-01
RMM:   3    -0.233502464789E+04   -0.27818E-03   -0.51240E-03  4716   0.291E-02    0.254E-01
RMM:   4    -0.233502398106E+04    0.66683E-03   -0.97790E-04  4199   0.139E-02    0.103E-01
RMM:   5    -0.233502401258E+04   -0.31516E-04   -0.49710E-04  3581   0.898E-03    0.126E-01
RMM:   6    -0.233502386230E+04    0.15028E-03   -0.26047E-04  3395   0.750E-03    0.471E-02
RMM:   7    -0.233502383627E+04    0.26030E-04   -0.29219E-05  2717   0.373E-03    0.158E-02
RMM:   8    -0.233502383230E+04    0.39696E-05   -0.79343E-06  2295   0.200E-03
  21 F= -.23565361E+04 E0= -.23565361E+04  d E =-.246982E-05  mag=     3.0000
       N       E                     dE             d eps       ncg     rms          rms(c)
DAV:   1    -0.233503176987E+04   -0.79336E-02   -0.63873E-01  4960   0.323E-01    0.379E-01
RMM:   2    -0.233502973264E+04    0.20372E-02   -0.87494E-03  3538   0.322E-02    0.197E-01
RMM:   3    -0.233502954662E+04    0.18602E-03   -0.33662E-03  4295   0.222E-02    0.108E-01
RMM:   4    -0.233502948472E+04    0.61904E-04   -0.48204E-04  3654   0.100E-02    0.988E-02
RMM:   5    -0.233502935981E+04    0.12491E-03   -0.31543E-04  3399   0.734E-03    0.315E-02
RMM:   6    -0.233502935470E+04    0.51051E-05   -0.51435E-05  2631   0.463E-03
  22 F= -.23565409E+04 E0= -.23565409E+04  d E =-.257206E-05  mag=     3.0000
       N       E                     dE             d eps       ncg     rms          rms(c)
DAV:   1    -0.233502106384E+04    0.82960E-02   -0.12498E+00  4640   0.445E-01    0.420E-01
RMM:   2    -0.233501947430E+04    0.15895E-02   -0.90859E-03  3516   0.336E-02    0.233E-01
RMM:   3    -0.233502016805E+04   -0.69374E-03   -0.35133E-03  4785   0.246E-02    0.310E-01
RMM:   4    -0.233501922401E+04    0.94404E-03   -0.84382E-04  3768   0.124E-02    0.772E-02
RMM:   5    -0.233501921481E+04    0.92013E-05   -0.52249E-04  3545   0.884E-03    0.724E-02
RMM:   6    -0.233501914290E+04    0.71910E-04   -0.12595E-04  2910   0.607E-03    0.199E-02
RMM:   7    -0.233501913281E+04    0.10093E-04   -0.16986E-05  2519   0.251E-03    0.596E-03
RMM:   8    -0.233501913259E+04    0.21738E-06   -0.91617E-06  2294   0.163E-03
  23 F= -.23565310E+04 E0= -.23565310E+04  d E =-.237688E-05  mag=     3.0000
       N       E                     dE             d eps       ncg     rms          rms(c)
DAV:   1    -0.233502953765E+04   -0.10405E-01   -0.64018E-01  4800   0.324E-01    0.368E-01
RMM:   2    -0.233502778241E+04    0.17552E-02   -0.83950E-03  3569   0.315E-02    0.194E-01
RMM:   3    -0.233502783155E+04   -0.49140E-04   -0.31049E-03  4540   0.224E-02    0.174E-01
RMM:   4    -0.233502750634E+04    0.32521E-03   -0.54314E-04  3778   0.106E-02    0.741E-02
RMM:   5    -0.233502752494E+04   -0.18598E-04   -0.36585E-04  3343   0.776E-03    0.914E-02
RMM:   6    -0.233502744193E+04    0.83011E-04   -0.13795E-04  2967   0.609E-03    0.421E-02
RMM:   7    -0.233502742705E+04    0.14881E-04   -0.29902E-05  2486   0.333E-03    0.227E-02
RMM:   8    -0.233502741945E+04    0.76017E-05   -0.95491E-06  2181   0.183E-03
  24 F= -.23565391E+04 E0= -.23565391E+04  d E =-.240162E-05  mag=     3.0000
       N       E                     dE             d eps       ncg     rms          rms(c)
DAV:   1    -0.233502249556E+04    0.49315E-02   -0.12471E+00  4960   0.443E-01    0.446E-01
RMM:   2    -0.233502033767E+04    0.21579E-02   -0.10331E-02  3626   0.352E-02    0.239E-01
RMM:   3    -0.233502031516E+04    0.22505E-04   -0.39946E-03  4553   0.259E-02    0.171E-01
RMM:   4    -0.233502006818E+04    0.24698E-03   -0.77025E-04  3965   0.122E-02    0.110E-01
RMM:   5    -0.233502000342E+04    0.64764E-04   -0.33970E-04  3399   0.807E-03    0.880E-02
RMM:   6    -0.233501994480E+04    0.58616E-04   -0.17996E-04  3099   0.662E-03    0.588E-02
RMM:   7    -0.233501991698E+04    0.27820E-04   -0.48193E-05  2688   0.409E-03    0.310E-02
RMM:   8    -0.233501990448E+04    0.12503E-04   -0.97884E-06  2266   0.234E-03    0.721E-03
RMM:   9    -0.233501990373E+04    0.74485E-06   -0.11858E-05  2181   0.147E-03
  25 F= -.23565317E+04 E0= -.23565317E+04  d E =-.243600E-05  mag=     3.0000
       N       E                     dE             d eps       ncg     rms          rms(c)
DAV:   1    -0.233502023505E+04   -0.33058E-03   -0.61553E-01  4800   0.322E-01    0.292E-01
RMM:   2    -0.233502002054E+04    0.21452E-03   -0.31936E-03  3444   0.245E-02    0.176E-01
RMM:   3    -0.233501997036E+04    0.50182E-04   -0.82661E-04  3469   0.132E-02    0.118E-01
RMM:   4    -0.233501982796E+04    0.14240E-03   -0.18306E-04  2762   0.814E-03    0.277E-02
RMM:   5    -0.233501982269E+04    0.52610E-05   -0.32425E-05  2531   0.284E-03
  26 F= -.23565316E+04 E0= -.23565316E+04  d E =-.231634E-05  mag=     3.0000
       N       E                     dE             d eps       ncg     rms          rms(c)
DAV:   1    -0.233502962963E+04   -0.98017E-02   -0.12701E+00  4960   0.401E-01    0.441E-01
RMM:   2    -0.233502767330E+04    0.19563E-02   -0.92744E-03  3643   0.344E-02    0.243E-01
RMM:   3    -0.233502821025E+04   -0.53695E-03   -0.48414E-03  4764   0.273E-02    0.284E-01
RMM:   4    -0.233502732687E+04    0.88337E-03   -0.89254E-04  4056   0.134E-02    0.794E-02
RMM:   5    -0.233502735137E+04   -0.24494E-04   -0.36242E-04  3433   0.795E-03    0.109E-01
RMM:   6    -0.233502723358E+04    0.11779E-03   -0.24606E-04  3392   0.708E-03    0.365E-02
RMM:   7    -0.233502721890E+04    0.14679E-04   -0.19255E-05  2606   0.339E-03    0.115E-02
RMM:   8    -0.233502721669E+04    0.22158E-05   -0.67503E-06  2206   0.181E-03
  27 F= -.23565389E+04 E0= -.23565389E+04  d E =-.236824E-05  mag=     3.0000
       N       E                     dE             d eps       ncg     rms          rms(c)
DAV:   1    -0.233502664213E+04    0.57677E-03   -0.62640E-01  4480   0.280E-01    0.242E-01
RMM:   2    -0.233502661220E+04    0.29935E-04   -0.19185E-03  3309   0.157E-02    0.144E-01
RMM:   3    -0.233502659368E+04    0.18514E-04   -0.60528E-04  3389   0.843E-03    0.186E-02
RMM:   4    -0.233502659057E+04    0.31104E-05   -0.52993E-05  2522   0.637E-03
  28 F= -.23565380E+04 E0= -.23565380E+04  d E =-.235376E-05  mag=     3.0000
       N       E                     dE             d eps       ncg     rms          rms(c)
DAV:   1    -0.233502102475E+04    0.55689E-02   -0.12612E+00  4960   0.400E-01    0.476E-01
RMM:   2    -0.233501832908E+04    0.26957E-02   -0.11429E-02  3759   0.384E-02    0.259E-01
RMM:   3    -0.233501944120E+04   -0.11121E-02   -0.57033E-03  4763   0.327E-02    0.385E-01
RMM:   4    -0.233501787702E+04    0.15642E-02   -0.15280E-03  4427   0.166E-02    0.923E-02
RMM:   5    -0.233501789261E+04   -0.15591E-04   -0.44539E-04  3512   0.896E-03    0.114E-01
RMM:   6    -0.233501775739E+04    0.13522E-03   -0.30288E-04  3434   0.776E-03    0.451E-02
RMM:   7    -0.233501774406E+04    0.13323E-04   -0.52210E-05  2713   0.454E-03    0.282E-02
RMM:   8    -0.233501773213E+04    0.11937E-04   -0.10933E-05  2330   0.243E-03    0.845E-03
RMM:   9    -0.233501773107E+04    0.10555E-05   -0.14694E-05  2170   0.156E-03
  29 F= -.23565298E+04 E0= -.23565298E+04  d E =-.244038E-05  mag=     3.0000
       N       E                     dE             d eps       ncg     rms          rms(c)
DAV:   1    -0.233501968718E+04   -0.19551E-02   -0.61711E-01  4480   0.276E-01    0.225E-01
RMM:   2    -0.233501964488E+04    0.42299E-04   -0.17563E-03  3319   0.149E-02    0.134E-01
RMM:   3    -0.233501969011E+04   -0.45235E-04   -0.62613E-04  3543   0.965E-03    0.723E-02
RMM:   4    -0.233501964510E+04    0.45017E-04   -0.12258E-04  2714   0.693E-03    0.411E-02
RMM:   5    -0.233501962921E+04    0.15889E-04   -0.23576E-05  2450   0.269E-03    0.224E-02
RMM:   6    -0.233501962369E+04    0.55203E-05   -0.78688E-06  2162   0.188E-03
  30 F= -.23565318E+04 E0= -.23565318E+04  d E =-.247106E-05  mag=     3.0000
       N       E                     dE             d eps       ncg     rms          rms(c)
DAV:   1    -0.233503016579E+04   -0.10537E-01   -0.12725E+00  4800   0.395E-01    0.412E-01
RMM:   2    -0.233502876104E+04    0.14047E-02   -0.78282E-03  3585   0.319E-02    0.231E-01
RMM:   3    -0.233502880305E+04   -0.42002E-04   -0.39182E-03  4614   0.232E-02    0.158E-01
RMM:   4    -0.233502850273E+04    0.30032E-03   -0.53810E-04  3737   0.111E-02    0.709E-02
RMM:   5    -0.233502848420E+04    0.18521E-04   -0.37514E-04  3388   0.786E-03    0.709E-02
RMM:   6    -0.233502842919E+04    0.55019E-04   -0.14332E-04  3060   0.615E-03    0.303E-02
RMM:   7    -0.233502842445E+04    0.47354E-05   -0.23760E-05  2477   0.312E-03
  31 F= -.23565397E+04 E0= -.23565397E+04  d E =-.238678E-05  mag=     3.0000
       N       E                     dE             d eps       ncg     rms          rms(c)
DAV:   1    -0.233503350724E+04   -0.50781E-02   -0.61991E-01  4960   0.286E-01    0.312E-01
RMM:   2    -0.233503268165E+04    0.82559E-03   -0.64504E-03  3747   0.261E-02    0.187E-01
RMM:   3    -0.233503330438E+04   -0.62272E-03   -0.16743E-03  4216   0.191E-02    0.309E-01
RMM:   4    -0.233503249547E+04    0.80891E-03   -0.98276E-04  3832   0.129E-02    0.131E-01
RMM:   5    -0.233503249231E+04    0.31613E-05   -0.33443E-04  3346   0.872E-03    0.122E-01
RMM:   6    -0.233503232478E+04    0.16753E-03   -0.12153E-04  2842   0.608E-03    0.242E-02
RMM:   7    -0.233503232318E+04    0.15944E-05   -0.27212E-05  2745   0.297E-03
  32 F= -.23565434E+04 E0= -.23565434E+04  d E =-.245241E-05  mag=     3.0000
       N       E                     dE             d eps       ncg     rms          rms(c)
DAV:   1    -0.233502233589E+04    0.99889E-02   -0.11852E+00  4800   0.354E-01    0.466E-01
RMM:   2    -0.233502024303E+04    0.20929E-02   -0.12435E-02  4363   0.335E-02    0.293E-01
RMM:   3    -0.233502137620E+04   -0.11332E-02   -0.35907E-03  4508   0.253E-02    0.469E-01
RMM:   4    -0.233501950444E+04    0.18718E-02   -0.20010E-03  4406   0.175E-02    0.192E-01
RMM:   5    -0.233501966736E+04   -0.16292E-03   -0.91103E-04  4079   0.127E-02    0.209E-01
RMM:   6    -0.233501916588E+04    0.50148E-03   -0.34494E-04  3180   0.920E-03    0.354E-02
RMM:   7    -0.233501917479E+04   -0.89091E-05   -0.75728E-05  2860   0.460E-03
  33 F= -.23565316E+04 E0= -.23565316E+04  d E =-.249654E-05  mag=     3.0000
       N       E                     dE             d eps       ncg     rms          rms(c)
DAV:   1    -0.233503211086E+04   -0.12945E-01   -0.58182E-01  4480   0.252E-01    0.233E-01
RMM:   2    -0.233503217349E+04   -0.62626E-04   -0.23410E-03  3536   0.166E-02    0.162E-01
RMM:   3    -0.233503338021E+04   -0.12067E-02   -0.13744E-03  4418   0.127E-02    0.367E-01
RMM:   4    -0.233503203266E+04    0.13475E-02   -0.78126E-04  3430   0.118E-02    0.346E-02
RMM:   5    -0.233503203525E+04   -0.25846E-05   -0.11885E-04  2858   0.510E-03    0.402E-02
RMM:   6    -0.233503201759E+04    0.17657E-04   -0.27427E-05  2623   0.298E-03    0.125E-02
RMM:   7    -0.233503201790E+04   -0.31000E-06   -0.75786E-06  2480   0.173E-03
  34 F= -.23565442E+04 E0= -.23565442E+04  d E =-.233423E-05  mag=     3.0000
       N       E                     dE             d eps       ncg     rms          rms(c)
DAV:   1    -0.233501672885E+04    0.15289E-01   -0.12360E+00  4960   0.367E-01    0.534E-01
RMM:   2    -0.233501308937E+04    0.36395E-02   -0.18382E-02  4345   0.395E-02    0.316E-01
RMM:   3    -0.233501312093E+04   -0.31564E-04   -0.37745E-03  4600   0.294E-02    0.367E-01
RMM:   4    -0.233501264446E+04    0.47647E-03   -0.24827E-03  4754   0.197E-02    0.300E-01
RMM:   5    -0.233501217480E+04    0.46967E-03   -0.11744E-03  3777   0.140E-02    0.213E-01
RMM:   6    -0.233501168515E+04    0.48965E-03   -0.42038E-04  3161   0.960E-03    0.504E-02
RMM:   7    -0.233501170036E+04   -0.15212E-04   -0.12171E-04  2910   0.543E-03    0.534E-02
RMM:   8    -0.233501165860E+04    0.41756E-04   -0.33632E-05  2656   0.355E-03    0.981E-03
RMM:   9    -0.233501165730E+04    0.13014E-05   -0.68994E-06  2595   0.173E-03
  35 F= -.23565230E+04 E0= -.23565230E+04  d E =-.258162E-05  mag=     3.0000
       N       E                     dE             d eps       ncg     rms          rms(c)
DAV:   1    -0.233503384465E+04   -0.22186E-01   -0.60599E-01  4480   0.246E-01    0.255E-01
RMM:   2    -0.233503370785E+04    0.13680E-03   -0.34372E-03  3747   0.187E-02    0.161E-01
RMM:   3    -0.233503432460E+04   -0.61675E-03   -0.11131E-03  4075   0.140E-02    0.277E-01
RMM:   4    -0.233503366224E+04    0.66236E-03   -0.76946E-04  3394   0.113E-02    0.112E-01
RMM:   5    -0.233503359205E+04    0.70192E-04   -0.21444E-04  3042   0.679E-03    0.706E-02
RMM:   6    -0.233503353259E+04    0.59460E-04   -0.57557E-05  2673   0.422E-03    0.154E-02
RMM:   7    -0.233503353376E+04   -0.11688E-05   -0.14357E-05  2421   0.212E-03
  36 F= -.23565452E+04 E0= -.23565452E+04  d E =-.210633E-05  mag=     3.0000
       N       E                     dE             d eps       ncg     rms          rms(c)
DAV:   1    -0.233501746594E+04    0.16067E-01   -0.12126E+00  4800   0.362E-01    0.410E-01
RMM:   2    -0.233501633044E+04    0.11355E-02   -0.92878E-03  3835   0.298E-02    0.235E-01
RMM:   3    -0.233501679163E+04   -0.46119E-03   -0.20066E-03  4450   0.196E-02    0.316E-01
RMM:   4    -0.233501617463E+04    0.61701E-03   -0.16134E-03  4311   0.155E-02    0.202E-01
RMM:   5    -0.233501599192E+04    0.18271E-03   -0.53390E-04  3504   0.106E-02    0.141E-01
RMM:   6    -0.233501577695E+04    0.21497E-03   -0.17633E-04  2939   0.694E-03    0.323E-02
RMM:   7    -0.233501577463E+04    0.23172E-05   -0.29561E-05  2742   0.333E-03
  37 F= -.23565276E+04 E0= -.23565276E+04  d E =-.299341E-05  mag=     3.0000
       N       E                     dE             d eps       ncg     rms          rms(c)
DAV:   1    -0.233504553601E+04   -0.29759E-01   -0.56246E-01  4800   0.260E-01    0.240E-01
RMM:   2    -0.233504635313E+04   -0.81712E-03   -0.50640E-03  4439   0.283E-02    0.318E-01
RMM:   3    -0.233504533805E+04    0.10151E-02   -0.15120E-03  4415   0.166E-02    0.154E-01
RMM:   4    -0.233504531921E+04    0.18838E-04   -0.63824E-04  3651   0.108E-02    0.133E-01
RMM:   5    -0.233504513537E+04    0.18384E-03   -0.36221E-04  3220   0.874E-03    0.538E-02
RMM:   6    -0.233504509505E+04    0.40320E-04   -0.47605E-05  2773   0.422E-03    0.206E-02
RMM:   7    -0.233504509536E+04   -0.30657E-06   -0.12930E-05  2385   0.227E-03
  38 F= -.23565583E+04 E0= -.23565583E+04  d E =-.221390E-05  mag=     3.0000
       N       E                     dE             d eps       ncg     rms          rms(c)
DAV:   1    -0.233500203749E+04    0.43058E-01   -0.10644E+00  4800   0.349E-01    0.293E-01
RMM:   2    -0.233500615792E+04   -0.41204E-02   -0.12304E-02  5279   0.427E-02    0.620E-01
RMM:   3    -0.233500134674E+04    0.48112E-02   -0.32261E-03  5157   0.253E-02    0.142E-01
RMM:   4    -0.233500175716E+04   -0.41042E-03   -0.13687E-03  3935   0.138E-02    0.212E-01
RMM:   5    -0.233500127340E+04    0.48376E-03   -0.60072E-04  3712   0.105E-02    0.822E-02
RMM:   6    -0.233500124535E+04    0.28045E-04   -0.14365E-04  2839   0.524E-03    0.648E-02
RMM:   7    -0.233500120021E+04    0.45141E-04   -0.28101E-05  2567   0.316E-03    0.959E-03
RMM:   8    -0.233500119950E+04    0.70994E-06   -0.72732E-06  2428   0.154E-03
  39 F= -.23565115E+04 E0= -.23565115E+04  d E =-.262791E-05  mag=     3.0000
       N       E                     dE             d eps       ncg     rms          rms(c)
DAV:   1    -0.233503709574E+04   -0.35896E-01   -0.53121E-01  4560   0.237E-01    0.169E-01
RMM:   2    -0.233503788309E+04   -0.78735E-03   -0.31604E-03  4145   0.220E-02    0.272E-01
RMM:   3    -0.233503702777E+04    0.85533E-03   -0.81815E-04  3903   0.128E-02    0.100E-01
RMM:   4    -0.233503715184E+04   -0.12407E-03   -0.37255E-04  3102   0.798E-03    0.126E-01
RMM:   5    -0.233503700658E+04    0.14525E-03   -0.20846E-04  2889   0.669E-03    0.666E-02
RMM:   6    -0.233503698400E+04    0.22583E-04   -0.78351E-05  2690   0.395E-03    0.467E-02
RMM:   7    -0.233503695961E+04    0.24392E-04   -0.18669E-05  2417   0.261E-03    0.669E-03
RMM:   8    -0.233503695881E+04    0.80052E-06   -0.29554E-06  2084   0.114E-03
  40 F= -.23565489E+04 E0= -.23565489E+04  d E =-.239447E-05  mag=     3.0000
       N       E                     dE             d eps       ncg     rms          rms(c)
DAV:   1    -0.233502002797E+04    0.16932E-01   -0.10526E+00  4480   0.328E-01    0.188E-01
RMM:   2    -0.233502040692E+04   -0.37895E-03   -0.32214E-03  4041   0.211E-02    0.184E-01
RMM:   3    -0.233502030325E+04    0.10367E-03   -0.92435E-04  3582   0.130E-02    0.165E-01
RMM:   4    -0.233502027517E+04    0.28081E-04   -0.49391E-04  3225   0.951E-03    0.145E-01
RMM:   5    -0.233502011607E+04    0.15910E-03   -0.28859E-04  3047   0.730E-03    0.704E-02
RMM:   6    -0.233502008834E+04    0.27724E-04   -0.79732E-05  2787   0.450E-03    0.489E-02
RMM:   7    -0.233502006024E+04    0.28105E-04   -0.23887E-05  2594   0.303E-03    0.853E-03
RMM:   8    -0.233502005937E+04    0.86530E-06   -0.43447E-06  2379   0.139E-03
  41 F= -.23565317E+04 E0= -.23565317E+04  d E =-.246369E-05  mag=     3.0000
       N       E                     dE             d eps       ncg     rms          rms(c)
DAV:   1    -0.233498300612E+04    0.37054E-01   -0.52086E-01  4480   0.232E-01    0.183E-01
RMM:   2    -0.233498320008E+04   -0.19396E-03   -0.32826E-03  4210   0.203E-02    0.218E-01
RMM:   3    -0.233498284885E+04    0.35124E-03   -0.96641E-04  3781   0.139E-02    0.139E-01
RMM:   4    -0.233498273900E+04    0.10985E-03   -0.36661E-04  3297   0.824E-03    0.962E-02
RMM:   5    -0.233498269274E+04    0.46258E-04   -0.16802E-04  2887   0.590E-03    0.705E-02
RMM:   6    -0.233498266231E+04    0.30434E-04   -0.62502E-05  2626   0.388E-03    0.394E-02
RMM:   7    -0.233498264537E+04    0.16940E-04   -0.22032E-05  2402   0.271E-03    0.111E-02
RMM:   8    -0.233498264404E+04    0.13251E-05   -0.34703E-06  2263   0.132E-03
  42 F= -.23564976E+04 E0= -.23564976E+04  d E =-.250423E-05  mag=     3.0000
       N       E                     dE             d eps       ncg     rms          rms(c)
DAV:   1    -0.233507877731E+04   -0.96132E-01   -0.10350E+00  4560   0.345E-01    0.298E-01
RMM:   2    -0.233507884527E+04   -0.67958E-04   -0.77805E-03  4679   0.304E-02    0.325E-01
RMM:   3    -0.233507823948E+04    0.60578E-03   -0.23423E-03  4828   0.213E-02    0.242E-01
RMM:   4    -0.233507759955E+04    0.63993E-03   -0.82331E-04  4280   0.111E-02    0.865E-02
RMM:   5    -0.233507768455E+04   -0.84998E-04   -0.25764E-04  3020   0.754E-03    0.121E-01
RMM:   6    -0.233507753096E+04    0.15358E-03   -0.94674E-05  2850   0.511E-03    0.223E-02
RMM:   7    -0.233507752694E+04    0.40243E-05   -0.16430E-05  2815   0.248E-03
  43 F= -.23565861E+04 E0= -.23565861E+04  d E =-.235080E-05  mag=     3.0000
