       N       E                     dE             d eps       ncg     rms          rms(c)
DAV:   1     0.126947359178E+05    0.12695E+05   -0.82204E+05  4408   0.144E+03
DAV:   2    -0.104030871437E+04   -0.13735E+05   -0.13162E+05  5264   0.330E+02
DAV:   3    -0.244619149677E+04   -0.14059E+04   -0.13929E+04  5280   0.111E+02
DAV:   4    -0.249164931627E+04   -0.45458E+02   -0.45233E+02  6576   0.298E+01
DAV:   5    -0.249253481570E+04   -0.88550E+00   -0.88387E+00  5496   0.329E+00    0.170E+02
RMM:   6    -0.145588216115E+04    0.10367E+04   -0.19092E+03  4344   0.386E+01    0.733E+01
RMM:   7    -0.164429465831E+04   -0.18841E+03   -0.28876E+02  4884   0.138E+01    0.498E+01
RMM:   8    -0.169595620313E+04   -0.51662E+02   -0.39557E+01  5304   0.650E+00    0.440E+01
RMM:   9    -0.175923263568E+04   -0.63276E+02   -0.59050E+01  4823   0.652E+00    0.352E+01
RMM:  10    -0.190731259780E+04   -0.14808E+03   -0.74970E+01  4998   0.839E+00    0.221E+01
RMM:  11    -0.200879470076E+04   -0.10148E+03   -0.42192E+01  4912   0.541E+00    0.221E+01
RMM:  12    -0.203588805511E+04   -0.27093E+02   -0.82509E+00  4875   0.245E+00    0.139E+01
RMM:  13    -0.216984613186E+04   -0.13396E+03   -0.97841E+01  4342   0.733E+00    0.112E+01
RMM:  14    -0.222400607074E+04   -0.54160E+02   -0.40127E+01  4366   0.452E+00    0.103E+01
RMM:  15    -0.226609873495E+04   -0.42093E+02   -0.34720E+01  4348   0.440E+00    0.117E+01
RMM:  16    -0.227981374217E+04   -0.13715E+02   -0.13472E+01  4767   0.301E+00    0.973E+00
RMM:  17    -0.228349262856E+04   -0.36789E+01   -0.40585E+00  4925   0.128E+00    0.273E+00
RMM:  18    -0.228469778785E+04   -0.12052E+01   -0.89872E-01  4837   0.693E-01    0.949E-01
RMM:  19    -0.228495649400E+04   -0.25871E+00   -0.25164E-01  4856   0.331E-01    0.136E+00
RMM:  20    -0.228495734465E+04   -0.85065E-03   -0.24748E-02  5625   0.104E-01    0.153E+00
RMM:  21    -0.228510300658E+04   -0.14566E+00   -0.69056E-02  4348   0.170E-01    0.260E+00
RMM:  22    -0.228511212512E+04   -0.91185E-02   -0.75653E-03  4852   0.532E-02    0.270E+00
RMM:  23    -0.228509802562E+04    0.14100E-01   -0.10784E-02  4666   0.440E-02    0.263E+00
RMM:  24    -0.228510801880E+04   -0.99932E-02   -0.20998E-03  4400   0.232E-02    0.274E+00
RMM:  25    -0.228510666179E+04    0.13570E-02   -0.12856E-02  4178   0.344E-02    0.288E+00
RMM:  26    -0.228510471942E+04    0.19424E-02   -0.56249E-02  4494   0.690E-02    0.240E+00
RMM:  27    -0.228498026790E+04    0.12445E+00   -0.34405E-01  4548   0.188E-01    0.111E+00
RMM:  28    -0.228501770252E+04   -0.37435E-01   -0.61696E-02  4906   0.855E-02    0.100E+00
RMM:  29    -0.228509276565E+04   -0.75063E-01   -0.29295E-02  4464   0.646E-02    0.728E-01
RMM:  30    -0.228514632956E+04   -0.53564E-01   -0.32342E-02  4357   0.724E-02    0.773E-01
RMM:  31    -0.228513945376E+04    0.68758E-02   -0.15119E-02  4457   0.697E-02    0.474E-01
RMM:  32    -0.228514450252E+04   -0.50488E-02   -0.37015E-03  4641   0.477E-02    0.500E-01
RMM:  33    -0.228513371739E+04    0.10785E-01   -0.35384E-03  4466   0.323E-02    0.436E-01
RMM:  34    -0.228514242181E+04   -0.87044E-02   -0.35147E-03  4076   0.306E-02    0.447E-01
RMM:  35    -0.228512190714E+04    0.20515E-01   -0.34307E-03  3966   0.228E-02    0.449E-01
RMM:  36    -0.228511853366E+04    0.33735E-02   -0.53586E-04  3721   0.131E-02    0.457E-01
RMM:  37    -0.228511425706E+04    0.42766E-02   -0.70896E-04  3523   0.115E-02    0.464E-01
RMM:  38    -0.228511059463E+04    0.36624E-02   -0.51252E-04  3178   0.985E-03    0.471E-01
RMM:  39    -0.228510655953E+04    0.40351E-02   -0.22950E-04  2982   0.644E-03    0.475E-01
RMM:  40    -0.228510126086E+04    0.52987E-02   -0.24295E-04  2981   0.646E-03    0.481E-01
RMM:  41    -0.228509680468E+04    0.44562E-02   -0.18923E-04  2920   0.580E-03    0.487E-01
RMM:  42    -0.228508561059E+04    0.11194E-01   -0.82217E-04  3153   0.995E-03    0.504E-01
RMM:  43    -0.228507665162E+04    0.89590E-02   -0.56434E-04  3035   0.837E-03    0.515E-01
RMM:  44    -0.228506898390E+04    0.76677E-02   -0.41901E-04  3021   0.813E-03    0.524E-01
RMM:  45    -0.228507038111E+04   -0.13972E-02   -0.28478E-05  2609   0.324E-03    0.523E-01
RMM:  46    -0.228506998579E+04    0.39532E-03   -0.19269E-05  2296   0.217E-03    0.520E-01
RMM:  47    -0.228505612489E+04    0.13861E-01   -0.90318E-04  3155   0.106E-02    0.542E-01
RMM:  48    -0.228506658706E+04   -0.10462E-01   -0.40450E-04  2911   0.732E-03    0.529E-01
RMM:  49    -0.228507308565E+04   -0.64986E-02   -0.25796E-04  2869   0.621E-03    0.521E-01
RMM:  50    -0.228511844141E+04   -0.45356E-01   -0.10952E-02  4092   0.329E-02    0.453E-01
RMM:  51    -0.228515661056E+04   -0.38169E-01   -0.15382E-02  4264   0.398E-02    0.415E-01
RMM:  52    -0.228515694966E+04   -0.33910E-03   -0.10549E-03  3078   0.116E-02    0.425E-01
RMM:  53    -0.228515619559E+04    0.75407E-03   -0.66888E-05  2902   0.338E-03    0.428E-01
RMM:  54    -0.228514605751E+04    0.10138E-01   -0.93529E-04  3076   0.103E-02    0.429E-01
RMM:  55    -0.228514942661E+04   -0.33691E-02   -0.11116E-04  2788   0.444E-03    0.436E-01
RMM:  56    -0.228515296424E+04   -0.35376E-02   -0.15551E-04  2755   0.456E-03    0.439E-01
RMM:  57    -0.228515425244E+04   -0.12882E-02   -0.37349E-05  2508   0.268E-03    0.441E-01
RMM:  58    -0.228515699386E+04   -0.27414E-02   -0.11928E-04  2746   0.389E-03    0.446E-01
RMM:  59    -0.228515635884E+04    0.63502E-03   -0.29271E-05  2505   0.250E-03    0.442E-01
RMM:  60    -0.228515563636E+04    0.72248E-03   -0.19531E-05  2450   0.205E-03    0.441E-01
RMM:  61    -0.228522610087E+04   -0.70465E-01   -0.13158E-01  4511   0.883E-02    0.106E+00
RMM:  62    -0.228522685688E+04   -0.75600E-03   -0.39423E-03  3788   0.244E-02    0.152E+00
RMM:  63    -0.228522702012E+04   -0.16324E-03   -0.43066E-04  3060   0.673E-03    0.154E+00
RMM:  64    -0.228522518163E+04    0.18385E-02   -0.32550E-04  2816   0.523E-03    0.151E+00
RMM:  65    -0.228522025913E+04    0.49225E-02   -0.18052E-03  2898   0.712E-03    0.138E+00
RMM:  66    -0.228522715723E+04   -0.68981E-02   -0.43214E-03  3331   0.128E-02    0.148E+00
RMM:  67    -0.228522734759E+04   -0.19036E-03   -0.21544E-04  2743   0.485E-03    0.148E+00
RMM:  68    -0.228522736182E+04   -0.14233E-04   -0.13631E-05  2577   0.220E-03    0.148E+00
RMM:  69    -0.228522736056E+04    0.12607E-05   -0.16200E-06  2240   0.122E-03
   1 F= -.23053473E+04 E0= -.23053367E+04  d E =-.230535E+04  mag=     5.9962
