       N       E                     dE             d eps       ncg     rms          rms(c)
DAV:   1     0.126542874878E+05    0.12654E+05   -0.83027E+05  4456   0.144E+03
DAV:   2    -0.108774251626E+04   -0.13742E+05   -0.13164E+05  5312   0.329E+02
DAV:   3    -0.247918894303E+04   -0.13914E+04   -0.13787E+04  5360   0.110E+02
DAV:   4    -0.252379323170E+04   -0.44604E+02   -0.44391E+02  6664   0.294E+01
DAV:   5    -0.252461851603E+04   -0.82528E+00   -0.82391E+00  5576   0.323E+00    0.171E+02
RMM:   6    -0.147380583024E+04    0.10508E+04   -0.19603E+03  4400   0.387E+01    0.725E+01
RMM:   7    -0.164764709281E+04   -0.17384E+03   -0.28180E+02  4945   0.138E+01    0.472E+01
RMM:   8    -0.170256790758E+04   -0.54921E+02   -0.30681E+01  5172   0.650E+00    0.359E+01
RMM:   9    -0.184785544325E+04   -0.14529E+03   -0.77611E+01  5013   0.866E+00    0.349E+01
RMM:  10    -0.194050110594E+04   -0.92646E+02   -0.45160E+01  5280   0.632E+00    0.196E+01
RMM:  11    -0.206083961009E+04   -0.12034E+03   -0.54349E+01  4730   0.572E+00    0.143E+01
RMM:  12    -0.220323787344E+04   -0.14240E+03   -0.10859E+02  4400   0.760E+00    0.101E+01
RMM:  13    -0.228887888716E+04   -0.85641E+02   -0.79605E+01  4493   0.628E+00    0.940E+00
RMM:  14    -0.230886520836E+04   -0.19986E+02   -0.22013E+01  4888   0.398E+00    0.545E+00
RMM:  15    -0.231389449624E+04   -0.50293E+01   -0.63808E+00  5136   0.158E+00    0.377E+00
RMM:  16    -0.231985037883E+04   -0.59559E+01   -0.46084E+00  4521   0.149E+00    0.221E+00
RMM:  17    -0.232206954602E+04   -0.22192E+01   -0.17695E+00  4734   0.999E-01    0.173E+00
RMM:  18    -0.232269227480E+04   -0.62273E+00   -0.62382E-01  4735   0.430E-01    0.127E+00
RMM:  19    -0.232302890537E+04   -0.33663E+00   -0.43310E-01  4551   0.343E-01    0.102E+00
RMM:  20    -0.232320392639E+04   -0.17502E+00   -0.23088E-01  4508   0.280E-01    0.398E-01
RMM:  21    -0.232325509673E+04   -0.51170E-01   -0.50906E-02  4728   0.162E-01    0.212E-01
RMM:  22    -0.232328114923E+04   -0.26053E-01   -0.14430E-02  4525   0.750E-02    0.131E-01
RMM:  23    -0.232329834353E+04   -0.17194E-01   -0.52022E-03  4451   0.640E-02    0.785E-02
RMM:  24    -0.232330889288E+04   -0.10549E-01   -0.29322E-03  4529   0.413E-02    0.565E-02
RMM:  25    -0.232331550602E+04   -0.66131E-02   -0.15369E-03  4445   0.337E-02    0.401E-02
RMM:  26    -0.232331981973E+04   -0.43137E-02   -0.12899E-03  4163   0.249E-02    0.197E-02
RMM:  27    -0.232332082194E+04   -0.10022E-02   -0.32944E-04  3980   0.191E-02    0.118E-02
RMM:  28    -0.232332128848E+04   -0.46653E-03   -0.17246E-04  3708   0.902E-03    0.971E-03
RMM:  29    -0.232332142391E+04   -0.13543E-03   -0.43616E-05  3359   0.842E-03    0.387E-03
RMM:  30    -0.232332147646E+04   -0.52557E-04   -0.16683E-05  2988   0.359E-03    0.325E-03
RMM:  31    -0.232332150808E+04   -0.31615E-04   -0.72240E-06  2819   0.320E-03    0.164E-03
RMM:  32    -0.232332151759E+04   -0.95171E-05   -0.36997E-06  2613   0.232E-03
   1 F= -.23439213E+04 E0= -.23439213E+04  d E =-.234392E+04  mag=     4.0000
       N       E                     dE             d eps       ncg     rms          rms(c)
DAV:   1    -0.232388466972E+04   -0.56316E+00   -0.37269E+01  4720   0.398E+00    0.164E+00
RMM:   2    -0.232416692143E+04   -0.28225E+00   -0.27673E+00  5960   0.812E-01    0.276E+00
RMM:   3    -0.232413554350E+04    0.31378E-01   -0.21407E-01  5688   0.267E-01    0.127E+00
RMM:   4    -0.232412296832E+04    0.12575E-01   -0.37466E-02  4717   0.835E-02    0.548E-01
RMM:   5    -0.232411969656E+04    0.32718E-02   -0.20231E-02  5270   0.773E-02    0.524E-01
RMM:   6    -0.232411780433E+04    0.18922E-02   -0.32173E-03  5647   0.389E-02    0.983E-02
RMM:   7    -0.232411768361E+04    0.12072E-03   -0.45554E-04  4331   0.119E-02    0.454E-02
RMM:   8    -0.232411764598E+04    0.37630E-04   -0.10559E-04  3660   0.862E-03    0.211E-02
RMM:   9    -0.232411762519E+04    0.20785E-04   -0.57477E-05  3531   0.637E-03    0.108E-02
RMM:  10    -0.232411761945E+04    0.57492E-05   -0.21003E-05  2904   0.546E-03
   2 F= -.23447123E+04 E0= -.23447123E+04  d E =-.791002E+00  mag=     4.0000
       N       E                     dE             d eps       ncg     rms          rms(c)
DAV:   1    -0.232417395244E+04   -0.56327E-01   -0.10352E+01  4576   0.211E+00    0.880E-01
RMM:   2    -0.232424955576E+04   -0.75603E-01   -0.73537E-01  5949   0.419E-01    0.148E+00
RMM:   3    -0.232424145309E+04    0.81027E-02   -0.64495E-02  5618   0.143E-01    0.652E-01
RMM:   4    -0.232423813317E+04    0.33199E-02   -0.10471E-02  4608   0.440E-02    0.291E-01
RMM:   5    -0.232423721429E+04    0.91888E-03   -0.54950E-03  5248   0.405E-02    0.266E-01
RMM:   6    -0.232423673408E+04    0.48020E-03   -0.85451E-04  5225   0.201E-02    0.502E-02
RMM:   7    -0.232423670471E+04    0.29371E-04   -0.10704E-04  3330   0.631E-03    0.276E-02
RMM:   8    -0.232423669296E+04    0.11748E-04   -0.33495E-05  2977   0.511E-03    0.119E-02
RMM:   9    -0.232423668822E+04    0.47416E-05   -0.19128E-05  2904   0.449E-03
   3 F= -.23448295E+04 E0= -.23448295E+04  d E =-.908156E+00  mag=     4.0000
       N       E                     dE             d eps       ncg     rms          rms(c)
DAV:   1    -0.232450832825E+04   -0.27164E+00   -0.30507E+01  4464   0.438E+00    0.228E+00
RMM:   2    -0.232503837805E+04   -0.53005E+00   -0.39540E+00  6044   0.993E-01    0.580E+00
RMM:   3    -0.232485631435E+04    0.18206E+00   -0.33615E-01  5760   0.308E-01    0.112E+00
RMM:   4    -0.232485003991E+04    0.62744E-02   -0.44287E-02  5085   0.852E-02    0.586E-01
RMM:   5    -0.232484913466E+04    0.90525E-03   -0.10237E-02  5431   0.604E-02    0.680E-01
RMM:   6    -0.232484627000E+04    0.28647E-02   -0.60456E-03  5573   0.428E-02    0.112E-01
RMM:   7    -0.232484624981E+04    0.20186E-04   -0.59736E-04  4231   0.143E-02    0.470E-02
RMM:   8    -0.232484624524E+04    0.45702E-05   -0.11419E-04  3579   0.802E-03    0.204E-02
RMM:   9    -0.232484625561E+04   -0.10371E-04   -0.37520E-05  2961   0.527E-03    0.237E-02
RMM:  10    -0.232484625867E+04   -0.30578E-05   -0.14692E-05  2842   0.442E-03
   4 F= -.23454358E+04 E0= -.23454358E+04  d E =-.606315E+00  mag=     4.0000
       N       E                     dE             d eps       ncg     rms          rms(c)
DAV:   1    -0.232467248067E+04    0.17377E+00   -0.39712E+01  4504   0.501E+00    0.269E+00
RMM:   2    -0.232539103407E+04   -0.71855E+00   -0.52355E+00  6048   0.113E+00    0.703E+00
RMM:   3    -0.232512392601E+04    0.26711E+00   -0.47758E-01  5794   0.364E-01    0.127E+00
RMM:   4    -0.232511687136E+04    0.70546E-02   -0.58847E-02  5134   0.980E-02    0.711E-01
RMM:   5    -0.232511489388E+04    0.19775E-02   -0.14119E-02  5457   0.709E-02    0.743E-01
RMM:   6    -0.232511131895E+04    0.35749E-02   -0.77379E-03  5584   0.491E-02    0.130E-01
RMM:   7    -0.232511132348E+04   -0.45349E-05   -0.79136E-04  4524   0.161E-02    0.554E-02
RMM:   8    -0.232511131356E+04    0.99268E-05   -0.16103E-04  3943   0.890E-03    0.252E-02
RMM:   9    -0.232511132649E+04   -0.12939E-04   -0.46359E-05  3064   0.579E-03    0.247E-02
RMM:  10    -0.232511133023E+04   -0.37338E-05   -0.16710E-05  2849   0.460E-03
   5 F= -.23456972E+04 E0= -.23456972E+04  d E =-.867743E+00  mag=     4.0000
       N       E                     dE             d eps       ncg     rms          rms(c)
DAV:   1    -0.232514444585E+04   -0.33119E-01   -0.39373E+01  4480   0.559E+00    0.288E+00
RMM:   2    -0.232577250327E+04   -0.62806E+00   -0.49426E+00  5957   0.125E+00    0.637E+00
RMM:   3    -0.232553409338E+04    0.23841E+00   -0.48809E-01  5779   0.416E-01    0.132E+00
RMM:   4    -0.232552444898E+04    0.96444E-02   -0.68517E-02  4662   0.122E-01    0.736E-01
RMM:   5    -0.232552013520E+04    0.43138E-02   -0.18153E-02  5491   0.973E-02    0.697E-01
RMM:   6    -0.232551603320E+04    0.41020E-02   -0.82240E-03  5647   0.583E-02    0.139E-01
RMM:   7    -0.232551573476E+04    0.29845E-03   -0.86297E-04  5077   0.248E-02    0.596E-02
RMM:   8    -0.232551552732E+04    0.20744E-03   -0.27730E-04  4624   0.123E-02    0.295E-02
RMM:   9    -0.232551543719E+04    0.90126E-04   -0.13220E-04  4195   0.103E-02    0.213E-02
RMM:  10    -0.232551540540E+04    0.31792E-04   -0.56320E-05  3724   0.647E-03    0.126E-02
RMM:  11    -0.232551539192E+04    0.13480E-04   -0.37012E-05  3328   0.617E-03    0.894E-03
RMM:  12    -0.232551539099E+04    0.92476E-06   -0.12864E-05  2839   0.470E-03
   6 F= -.23460984E+04 E0= -.23460984E+04  d E =-.401178E+00  mag=     4.0000
       N       E                     dE             d eps       ncg     rms          rms(c)
DAV:   1    -0.232551427628E+04    0.11156E-02   -0.12071E+00  4928   0.982E-01    0.488E-01
RMM:   2    -0.232553119652E+04   -0.16920E-01   -0.13961E-01  5955   0.209E-01    0.942E-01
RMM:   3    -0.232552585619E+04    0.53403E-02   -0.12427E-02  5665   0.713E-02    0.255E-01
RMM:   4    -0.232552542829E+04    0.42790E-03   -0.18771E-03  4494   0.217E-02    0.109E-01
RMM:   5    -0.232552531195E+04    0.11633E-03   -0.51725E-04  4975   0.174E-02    0.103E-01
RMM:   6    -0.232552521957E+04    0.92383E-04   -0.20556E-04  4616   0.105E-02    0.196E-02
RMM:   7    -0.232552520934E+04    0.10227E-04   -0.22947E-05  2970   0.604E-03    0.859E-03
RMM:   8    -0.232552520324E+04    0.61048E-05   -0.12280E-05  2845   0.331E-03
   7 F= -.23461077E+04 E0= -.23461077E+04  d E =-.410504E+00  mag=     4.0000
       N       E                     dE             d eps       ncg     rms          rms(c)
DAV:   1    -0.232526559558E+04    0.25961E+00   -0.29342E+01  4432   0.404E+00    0.192E+00
RMM:   2    -0.232575951443E+04   -0.49392E+00   -0.49651E+00  6032   0.934E-01    0.245E+00
RMM:   3    -0.232578892911E+04   -0.29415E-01   -0.58905E-01  5585   0.359E-01    0.185E+00
RMM:   4    -0.232576845301E+04    0.20476E-01   -0.54625E-02  5492   0.892E-02    0.538E-01
RMM:   5    -0.232576509823E+04    0.33548E-02   -0.12050E-02  5282   0.598E-02    0.281E-01
RMM:   6    -0.232576427641E+04    0.82182E-03   -0.39292E-03  5053   0.383E-02    0.104E-01
RMM:   7    -0.232576414645E+04    0.12996E-03   -0.80882E-04  4772   0.227E-02    0.457E-02
RMM:   8    -0.232576409381E+04    0.52641E-04   -0.17349E-04  4150   0.890E-03    0.262E-02
RMM:   9    -0.232576405928E+04    0.34528E-04   -0.63138E-05  3523   0.798E-03    0.140E-02
RMM:  10    -0.232576405029E+04    0.89868E-05   -0.28892E-05  3083   0.536E-03
   8 F= -.23463455E+04 E0= -.23463455E+04  d E =-.237797E+00  mag=     4.0000
       N       E                     dE             d eps       ncg     rms          rms(c)
DAV:   1    -0.232574768026E+04    0.16379E-01   -0.15059E+00  4768   0.923E-01    0.438E-01
RMM:   2    -0.232577357718E+04   -0.25897E-01   -0.25264E-01  6104   0.209E-01    0.642E-01
RMM:   3    -0.232577314338E+04    0.43379E-03   -0.23485E-02  5566   0.749E-02    0.340E-01
RMM:   4    -0.232577255196E+04    0.59143E-03   -0.28624E-03  4674   0.198E-02    0.115E-01
RMM:   5    -0.232577237894E+04    0.17302E-03   -0.47736E-04  4678   0.144E-02    0.799E-02
RMM:   6    -0.232577232511E+04    0.53832E-04   -0.24171E-04  4240   0.106E-02    0.313E-02
RMM:   7    -0.232577231504E+04    0.10065E-04   -0.30820E-05  2992   0.604E-03    0.145E-02
RMM:   8    -0.232577231050E+04    0.45460E-05   -0.12775E-05  2864   0.337E-03
   9 F= -.23463536E+04 E0= -.23463536E+04  d E =-.245873E+00  mag=     4.0000
       N       E                     dE             d eps       ncg     rms          rms(c)
DAV:   1    -0.232570228187E+04    0.70033E-01   -0.13081E+01  4432   0.292E+00    0.127E+00
RMM:   2    -0.232587168742E+04   -0.16941E+00   -0.16897E+00  5883   0.561E-01    0.161E+00
RMM:   3    -0.232587867616E+04   -0.69887E-02   -0.18981E-01  5649   0.225E-01    0.124E+00
RMM:   4    -0.232586928722E+04    0.93889E-02   -0.20444E-02  5353   0.589E-02    0.353E-01
RMM:   5    -0.232586793541E+04    0.13518E-02   -0.52789E-03  5137   0.422E-02    0.187E-01
RMM:   6    -0.232586770157E+04    0.23384E-03   -0.12662E-03  4870   0.260E-02    0.505E-02
RMM:   7    -0.232586769364E+04    0.79331E-05   -0.22873E-04  3912   0.111E-02    0.311E-02
RMM:   8    -0.232586767645E+04    0.17191E-04   -0.42768E-05  3099   0.600E-03    0.142E-02
RMM:   9    -0.232586767067E+04    0.57749E-05   -0.26628E-05  3002   0.456E-03
  10 F= -.23464489E+04 E0= -.23464489E+04  d E =-.952902E-01  mag=     4.0000
       N       E                     dE             d eps       ncg     rms          rms(c)
DAV:   1    -0.232586750909E+04    0.16735E-03   -0.27976E-02  5424   0.134E-01    0.617E-02
RMM:   2    -0.232586791975E+04   -0.41066E-03   -0.37837E-03  5822   0.283E-02    0.108E-01
RMM:   3    -0.232586786996E+04    0.49787E-04   -0.35445E-04  2923   0.106E-02    0.402E-02
RMM:   4    -0.232586786078E+04    0.91869E-05   -0.46022E-05  2913   0.364E-03
  11 F= -.23464491E+04 E0= -.23464491E+04  d E =-.954803E-01  mag=     4.0000
       N       E                     dE             d eps       ncg     rms          rms(c)
DAV:   1    -0.232588002670E+04   -0.12157E-01   -0.62989E+00  4448   0.206E+00    0.892E-01
RMM:   2    -0.232596338296E+04   -0.83356E-01   -0.76972E-01  5960   0.401E-01    0.152E+00
RMM:   3    -0.232595542937E+04    0.79536E-02   -0.70382E-02  5796   0.141E-01    0.600E-01
RMM:   4    -0.232595336953E+04    0.20598E-02   -0.90296E-03  4685   0.384E-02    0.234E-01
RMM:   5    -0.232595292101E+04    0.44852E-03   -0.21462E-03  5282   0.292E-02    0.184E-01
RMM:   6    -0.232595275723E+04    0.16378E-03   -0.70688E-04  4879   0.170E-02    0.554E-02
RMM:   7    -0.232595274101E+04    0.16217E-04   -0.62505E-05  3105   0.701E-03    0.201E-02
RMM:   8    -0.232595274082E+04    0.19344E-06   -0.25395E-05  2935   0.406E-03
  12 F= -.23465335E+04 E0= -.23465335E+04  d E =-.844727E-01  mag=     4.0000
       N       E                     dE             d eps       ncg     rms          rms(c)
DAV:   1    -0.232593653945E+04    0.16202E-01   -0.28354E+00  4568   0.139E+00    0.603E-01
RMM:   2    -0.232597460788E+04   -0.38068E-01   -0.34534E-01  5976   0.269E-01    0.107E+00
RMM:   3    -0.232597014254E+04    0.44653E-02   -0.31037E-02  5795   0.932E-02    0.386E-01
RMM:   4    -0.232596932761E+04    0.81492E-03   -0.41260E-03  4513   0.254E-02    0.157E-01
RMM:   5    -0.232596913837E+04    0.18925E-03   -0.96728E-04  5084   0.198E-02    0.141E-01
RMM:   6    -0.232596903228E+04    0.10609E-03   -0.36471E-04  4530   0.121E-02    0.430E-02
RMM:   7    -0.232596902026E+04    0.12018E-04   -0.33175E-05  2930   0.559E-03    0.136E-02
RMM:   8    -0.232596902008E+04    0.17959E-06   -0.13637E-05  2890   0.309E-03
  13 F= -.23465496E+04 E0= -.23465496E+04  d E =-.100525E+00  mag=     4.0000
       N       E                     dE             d eps       ncg     rms          rms(c)
DAV:   1    -0.232598309118E+04   -0.14071E-01   -0.70884E+00  4432   0.227E+00    0.968E-01
RMM:   2    -0.232604074856E+04   -0.57657E-01   -0.52755E-01  5822   0.419E-01    0.153E+00
RMM:   3    -0.232603150687E+04    0.92417E-02   -0.49441E-02  5735   0.140E-01    0.672E-01
RMM:   4    -0.232602787396E+04    0.36329E-02   -0.76134E-03  4507   0.478E-02    0.241E-01
RMM:   5    -0.232602718734E+04    0.68661E-03   -0.32521E-03  5339   0.411E-02    0.167E-01
RMM:   6    -0.232602701760E+04    0.16974E-03   -0.59219E-04  5334   0.180E-02    0.397E-02
RMM:   7    -0.232602699520E+04    0.22397E-04   -0.75260E-05  3184   0.688E-03    0.224E-02
RMM:   8    -0.232602698350E+04    0.11698E-04   -0.33118E-05  3048   0.531E-03    0.105E-02
RMM:   9    -0.232602698123E+04    0.22718E-05   -0.12842E-05  2852   0.466E-03
  14 F= -.23466070E+04 E0= -.23466070E+04  d E =-.574529E-01  mag=     4.0000
       N       E                     dE             d eps       ncg     rms          rms(c)
DAV:   1    -0.232602704765E+04   -0.64143E-04   -0.25001E-02  5440   0.136E-01    0.570E-02
RMM:   2    -0.232602725338E+04   -0.20573E-03   -0.18534E-03  5636   0.267E-02    0.936E-02
RMM:   3    -0.232602721542E+04    0.37962E-04   -0.18356E-04  3036   0.104E-02    0.382E-02
RMM:   4    -0.232602720309E+04    0.12328E-04   -0.26913E-05  2912   0.388E-03    0.145E-02
RMM:   5    -0.232602720097E+04    0.21213E-05   -0.14090E-05  2881   0.324E-03
  15 F= -.23466072E+04 E0= -.23466072E+04  d E =-.576446E-01  mag=     4.0000
       N       E                     dE             d eps       ncg     rms          rms(c)
DAV:   1    -0.232603574779E+04   -0.85447E-02   -0.36269E+00  4480   0.161E+00    0.644E-01
RMM:   2    -0.232606048396E+04   -0.24736E-01   -0.21915E-01  5761   0.290E-01    0.114E+00
RMM:   3    -0.232605396962E+04    0.65143E-02   -0.20678E-02  5655   0.977E-02    0.404E-01
RMM:   4    -0.232605242637E+04    0.15433E-02   -0.38215E-03  4504   0.339E-02    0.174E-01
RMM:   5    -0.232605215232E+04    0.27405E-03   -0.22489E-03  5310   0.312E-02    0.157E-01
RMM:   6    -0.232605195628E+04    0.19604E-03   -0.33015E-04  5177   0.128E-02    0.327E-02
RMM:   7    -0.232605192957E+04    0.26710E-04   -0.50959E-05  3100   0.558E-03    0.185E-02
RMM:   8    -0.232605191951E+04    0.10061E-04   -0.20600E-05  2924   0.421E-03    0.680E-03
RMM:   9    -0.232605191583E+04    0.36777E-05   -0.84430E-06  2834   0.364E-03
  16 F= -.23466318E+04 E0= -.23466318E+04  d E =-.245628E-01  mag=     4.0000
       N       E                     dE             d eps       ncg     rms          rms(c)
DAV:   1    -0.232605196628E+04   -0.46765E-04   -0.18388E-02  5288   0.115E-01    0.461E-02
RMM:   2    -0.232605208935E+04   -0.12308E-03   -0.10998E-03  5436   0.219E-02    0.765E-02
RMM:   3    -0.232605206144E+04    0.27912E-04   -0.11081E-04  2936   0.887E-03    0.307E-02
RMM:   4    -0.232605205320E+04    0.82397E-05   -0.18328E-05  2912   0.328E-03
  17 F= -.23466319E+04 E0= -.23466319E+04  d E =-.247103E-01  mag=     4.0000
       N       E                     dE             d eps       ncg     rms          rms(c)
DAV:   1    -0.232605344017E+04   -0.13787E-02   -0.16042E+00  4456   0.109E+00    0.469E-01
RMM:   2    -0.232607789609E+04   -0.24456E-01   -0.21132E-01  6012   0.220E-01    0.975E-01
RMM:   3    -0.232607348273E+04    0.44134E-02   -0.21486E-02  5619   0.788E-02    0.250E-01
RMM:   4    -0.232607334696E+04    0.13577E-03   -0.27833E-03  4601   0.198E-02    0.141E-01
RMM:   5    -0.232607330908E+04    0.37878E-04   -0.70043E-04  4749   0.163E-02    0.165E-01
RMM:   6    -0.232607313251E+04    0.17657E-03   -0.34303E-04  4420   0.108E-02    0.441E-02
RMM:   7    -0.232607311598E+04    0.16529E-04   -0.24412E-05  2883   0.528E-03    0.960E-03
RMM:   8    -0.232607311432E+04    0.16580E-05   -0.86097E-06  2863   0.258E-03
  18 F= -.23466534E+04 E0= -.23466534E+04  d E =-.214703E-01  mag=     4.0000
       N       E                     dE             d eps       ncg     rms          rms(c)
DAV:   1    -0.232606413666E+04    0.89793E-02   -0.11695E+00  4528   0.929E-01    0.397E-01
RMM:   2    -0.232608168716E+04   -0.17551E-01   -0.15386E-01  5993   0.188E-01    0.801E-01
RMM:   3    -0.232607879718E+04    0.28900E-02   -0.15644E-02  5546   0.668E-02    0.217E-01
RMM:   4    -0.232607868778E+04    0.10941E-03   -0.20139E-03  4522   0.169E-02    0.119E-01
RMM:   5    -0.232607865695E+04    0.30829E-04   -0.50191E-04  4472   0.142E-02    0.139E-01
RMM:   6    -0.232607853316E+04    0.12379E-03   -0.24927E-04  3962   0.967E-03    0.383E-02
RMM:   7    -0.232607852057E+04    0.12589E-04   -0.19123E-05  2868   0.522E-03    0.855E-03
RMM:   8    -0.232607851921E+04    0.13545E-05   -0.73857E-06  2857   0.244E-03
  19 F= -.23466592E+04 E0= -.23466592E+04  d E =-.272227E-01  mag=     4.0000
       N       E                     dE             d eps       ncg     rms          rms(c)
DAV:   1    -0.232608179214E+04   -0.32716E-02   -0.70985E-01  4448   0.689E-01    0.293E-01
RMM:   2    -0.232609364867E+04   -0.11857E-01   -0.11072E-01  6041   0.144E-01    0.515E-01
RMM:   3    -0.232609294429E+04    0.70437E-03   -0.10787E-02  5347   0.528E-02    0.194E-01
RMM:   4    -0.232609281892E+04    0.12537E-03   -0.12109E-03  4023   0.124E-02    0.793E-02
RMM:   5    -0.232609276630E+04    0.52617E-04   -0.20595E-04  3813   0.887E-03    0.684E-02
RMM:   6    -0.232609274226E+04    0.24037E-04   -0.10427E-04  3194   0.752E-03    0.257E-02
RMM:   7    -0.232609273780E+04    0.44679E-05   -0.11116E-05  2849   0.472E-03
  20 F= -.23466737E+04 E0= -.23466737E+04  d E =-.145457E-01  mag=     4.0000
       N       E                     dE             d eps       ncg     rms          rms(c)
DAV:   1    -0.232602148437E+04    0.71258E-01   -0.63663E+00  4416   0.206E+00    0.876E-01
RMM:   2    -0.232612827079E+04   -0.10679E+00   -0.99823E-01  6047   0.431E-01    0.158E+00
RMM:   3    -0.232612234225E+04    0.59285E-02   -0.10434E-01  5684   0.161E-01    0.587E-01
RMM:   4    -0.232612113137E+04    0.12109E-02   -0.10917E-02  5056   0.364E-02    0.240E-01
RMM:   5    -0.232612063628E+04    0.49509E-03   -0.18852E-03  5086   0.250E-02    0.198E-01
RMM:   6    -0.232612042351E+04    0.21277E-03   -0.89601E-04  4942   0.173E-02    0.751E-02
RMM:   7    -0.232612037712E+04    0.46383E-04   -0.79556E-05  3129   0.785E-03    0.221E-02
RMM:   8    -0.232612037195E+04    0.51683E-05   -0.22890E-05  2887   0.381E-03
  21 F= -.23467023E+04 E0= -.23467023E+04  d E =-.431344E-01  mag=     4.0000
       N       E                     dE             d eps       ncg     rms          rms(c)
DAV:   1    -0.232570477670E+04    0.41560E+00   -0.25285E+01  4416   0.412E+00    0.174E+00
RMM:   2    -0.232613655357E+04   -0.43178E+00   -0.40409E+00  6066   0.865E-01    0.322E+00
RMM:   3    -0.232611445573E+04    0.22098E-01   -0.44402E-01  5738   0.316E-01    0.118E+00
RMM:   4    -0.232610938527E+04    0.50705E-02   -0.45562E-02  5116   0.721E-02    0.490E-01
RMM:   5    -0.232610709497E+04    0.22903E-02   -0.76191E-03  5192   0.495E-02    0.398E-01
RMM:   6    -0.232610621823E+04    0.87674E-03   -0.39533E-03  5339   0.350E-02    0.165E-01
RMM:   7    -0.232610600953E+04    0.20870E-03   -0.38814E-04  4132   0.147E-02    0.410E-02
RMM:   8    -0.232610599322E+04    0.16316E-04   -0.85185E-05  3208   0.584E-03    0.194E-02
RMM:   9    -0.232610598559E+04    0.76313E-05   -0.25635E-05  2893   0.463E-03
  22 F= -.23466897E+04 E0= -.23466897E+04  d E =-.304971E-01  mag=     4.0000
       N       E                     dE             d eps       ncg     rms          rms(c)
DAV:   1    -0.232596382835E+04    0.14216E+00   -0.10328E+01  4416   0.262E+00    0.113E+00
RMM:   2    -0.232614177339E+04   -0.17795E+00   -0.16336E+00  6043   0.566E-01    0.206E+00
RMM:   3    -0.232612862515E+04    0.13148E-01   -0.18974E-01  5659   0.218E-01    0.680E-01
RMM:   4    -0.232612740003E+04    0.12251E-02   -0.19094E-02  5113   0.464E-02    0.314E-01
RMM:   5    -0.232612680231E+04    0.59772E-03   -0.33534E-03  5196   0.322E-02    0.326E-01
RMM:   6    -0.232612622965E+04    0.57266E-03   -0.22021E-03  5299   0.242E-02    0.132E-01
RMM:   7    -0.232612608109E+04    0.14856E-03   -0.17078E-04  3426   0.972E-03    0.272E-02
RMM:   8    -0.232612607131E+04    0.97830E-05   -0.50830E-05  2915   0.482E-03
  23 F= -.23467087E+04 E0= -.23467087E+04  d E =-.494933E-01  mag=     4.0000
       N       E                     dE             d eps       ncg     rms          rms(c)
DAV:   1    -0.232612256736E+04    0.35137E-02   -0.16540E+00  4432   0.972E-01    0.400E-01
RMM:   2    -0.232614658989E+04   -0.24023E-01   -0.22971E-01  6096   0.201E-01    0.676E-01
RMM:   3    -0.232614587868E+04    0.71121E-03   -0.21600E-02  5627   0.687E-02    0.295E-01
RMM:   4    -0.232614548087E+04    0.39781E-03   -0.23847E-03  4617   0.172E-02    0.111E-01
RMM:   5    -0.232614531697E+04    0.16390E-03   -0.52344E-04  4287   0.129E-02    0.775E-02
RMM:   6    -0.232614528299E+04    0.33980E-04   -0.16790E-04  3683   0.949E-03    0.184E-02
RMM:   7    -0.232614528010E+04    0.28953E-05   -0.21040E-05  2892   0.512E-03
  24 F= -.23467282E+04 E0= -.23467282E+04  d E =-.195363E-01  mag=     4.0000
       N       E                     dE             d eps       ncg     rms          rms(c)
DAV:   1    -0.232596484396E+04    0.18044E+00   -0.14854E+01  4416   0.291E+00    0.121E+00
RMM:   2    -0.232618305651E+04   -0.21821E+00   -0.20746E+00  6087   0.604E-01    0.214E+00
RMM:   3    -0.232617683378E+04    0.62227E-02   -0.22647E-01  5798   0.220E-01    0.868E-01
RMM:   4    -0.232617369632E+04    0.31375E-02   -0.22705E-02  5086   0.515E-02    0.344E-01
RMM:   5    -0.232617225032E+04    0.14460E-02   -0.47526E-03  5134   0.372E-02    0.248E-01
RMM:   6    -0.232617192318E+04    0.32714E-03   -0.17499E-03  4977   0.257E-02    0.860E-02
RMM:   7    -0.232617186876E+04    0.54415E-04   -0.23632E-04  3677   0.107E-02    0.430E-02
RMM:   8    -0.232617184758E+04    0.21184E-04   -0.56597E-05  3016   0.519E-03    0.147E-02
RMM:   9    -0.232617184010E+04    0.74818E-05   -0.20404E-05  2896   0.406E-03
  25 F= -.23467557E+04 E0= -.23467557E+04  d E =-.470080E-01  mag=     4.0000
       N       E                     dE             d eps       ncg     rms          rms(c)
DAV:   1    -0.232616867427E+04    0.31733E-02   -0.16462E+00  4432   0.951E-01    0.382E-01
RMM:   2    -0.232618928057E+04   -0.20606E-01   -0.20384E-01  6128   0.196E-01    0.583E-01
RMM:   3    -0.232618942879E+04   -0.14822E-03   -0.20315E-02  5626   0.659E-02    0.329E-01
RMM:   4    -0.232618888740E+04    0.54139E-03   -0.21727E-03  4669   0.174E-02    0.114E-01
RMM:   5    -0.232618872027E+04    0.16712E-03   -0.60862E-04  4288   0.133E-02    0.530E-02
RMM:   6    -0.232618871054E+04    0.97323E-05   -0.12652E-04  3506   0.969E-03    0.143E-02
RMM:   7    -0.232618870894E+04    0.15968E-05   -0.22135E-05  2925   0.466E-03
  26 F= -.23467730E+04 E0= -.23467730E+04  d E =-.173575E-01  mag=     4.0000
       N       E                     dE             d eps       ncg     rms          rms(c)
DAV:   1    -0.232613780133E+04    0.50909E-01   -0.50644E+00  4416   0.167E+00    0.673E-01
RMM:   2    -0.232620125337E+04   -0.63452E-01   -0.62773E-01  6136   0.347E-01    0.103E+00
RMM:   3    -0.232620178160E+04   -0.52823E-03   -0.66213E-02  5761   0.121E-01    0.563E-01
RMM:   4    -0.232620020210E+04    0.15795E-02   -0.67854E-03  5100   0.305E-02    0.200E-01
RMM:   5    -0.232619967264E+04    0.52946E-03   -0.17962E-03  4886   0.228E-02    0.932E-02
RMM:   6    -0.232619964083E+04    0.31815E-04   -0.40858E-04  4386   0.153E-02    0.273E-02
RMM:   7    -0.232619963262E+04    0.82057E-05   -0.75579E-05  3179   0.627E-03
  27 F= -.23467848E+04 E0= -.23467848E+04  d E =-.291055E-01  mag=     4.0000
       N       E                     dE             d eps       ncg     rms          rms(c)
DAV:   1    -0.232617528041E+04    0.24360E-01   -0.24378E+00  4448   0.119E+00    0.499E-01
RMM:   2    -0.232621219837E+04   -0.36918E-01   -0.38269E-01  6170   0.258E-01    0.534E-01
RMM:   3    -0.232621601613E+04   -0.38178E-02   -0.44768E-02  5708   0.953E-02    0.556E-01
RMM:   4    -0.232621445532E+04    0.15608E-02   -0.42744E-03  5131   0.237E-02    0.155E-01
RMM:   5    -0.232621420519E+04    0.25013E-03   -0.86177E-04  4376   0.146E-02    0.771E-02
RMM:   6    -0.232621416977E+04    0.35429E-04   -0.26588E-04  4174   0.113E-02    0.224E-02
RMM:   7    -0.232621416625E+04    0.35180E-05   -0.36614E-05  2961   0.626E-03
  28 F= -.23467999E+04 E0= -.23467999E+04  d E =-.151736E-01  mag=     4.0000
       N       E                     dE             d eps       ncg     rms          rms(c)
DAV:   1    -0.232615529629E+04    0.58873E-01   -0.40063E+00  4416   0.153E+00    0.640E-01
RMM:   2    -0.232621621167E+04   -0.60915E-01   -0.63053E-01  6169   0.332E-01    0.699E-01
RMM:   3    -0.232622227730E+04   -0.60656E-02   -0.75203E-02  5743   0.122E-01    0.692E-01
RMM:   4    -0.232621987442E+04    0.24029E-02   -0.70675E-03  5364   0.301E-02    0.200E-01
RMM:   5    -0.232621945100E+04    0.42343E-03   -0.13596E-03  4678   0.183E-02    0.103E-01
RMM:   6    -0.232621937713E+04    0.73868E-04   -0.48222E-04  4548   0.138E-02    0.322E-02
RMM:   7    -0.232621936680E+04    0.10327E-04   -0.63764E-05  3126   0.746E-03    0.150E-02
RMM:   8    -0.232621936230E+04    0.45055E-05   -0.18126E-05  2881   0.390E-03
  29 F= -.23468059E+04 E0= -.23468059E+04  d E =-.211235E-01  mag=     4.0000
       N       E                     dE             d eps       ncg     rms          rms(c)
DAV:   1    -0.232616665299E+04    0.52714E-01   -0.34122E+00  4440   0.135E+00    0.602E-01
RMM:   2    -0.232622785962E+04   -0.61207E-01   -0.63789E-01  6232   0.310E-01    0.474E-01
RMM:   3    -0.232623581775E+04   -0.79581E-02   -0.80784E-02  5685   0.122E-01    0.655E-01
RMM:   4    -0.232623384189E+04    0.19759E-02   -0.70686E-03  5184   0.276E-02    0.202E-01
RMM:   5    -0.232623347651E+04    0.36538E-03   -0.12184E-03  4425   0.147E-02    0.108E-01
RMM:   6    -0.232623336870E+04    0.10781E-03   -0.55383E-04  4268   0.124E-02    0.386E-02
RMM:   7    -0.232623336294E+04    0.57606E-05   -0.77204E-05  3013   0.855E-03
  30 F= -.23468205E+04 E0= -.23468205E+04  d E =-.145792E-01  mag=     4.0000
       N       E                     dE             d eps       ncg     rms          rms(c)
DAV:   1    -0.232614068130E+04    0.92687E-01   -0.49116E+00  4416   0.163E+00    0.727E-01
RMM:   2    -0.232622953414E+04   -0.88853E-01   -0.92575E-01  6228   0.376E-01    0.599E-01
RMM:   3    -0.232624108204E+04   -0.11548E-01   -0.11933E-01  5744   0.144E-01    0.795E-01
RMM:   4    -0.232623814602E+04    0.29360E-02   -0.10286E-02  5447   0.334E-02    0.247E-01
RMM:   5    -0.232623760625E+04    0.53976E-03   -0.17783E-03  4716   0.175E-02    0.133E-01
RMM:   6    -0.232623745222E+04    0.15403E-03   -0.85381E-04  4459   0.145E-02    0.491E-02
RMM:   7    -0.232623743916E+04    0.13060E-04   -0.12082E-04  3207   0.101E-02    0.196E-02
RMM:   8    -0.232623743831E+04    0.84405E-06   -0.29469E-05  2927   0.419E-03
  31 F= -.23468251E+04 E0= -.23468251E+04  d E =-.192256E-01  mag=     4.0000
       N       E                     dE             d eps       ncg     rms          rms(c)
DAV:   1    -0.232614883411E+04    0.88605E-01   -0.46156E+00  4416   0.153E+00    0.708E-01
RMM:   2    -0.232624026464E+04   -0.91431E-01   -0.95694E-01  6291   0.370E-01    0.453E-01
RMM:   3    -0.232625148696E+04   -0.11222E-01   -0.12195E-01  5673   0.143E-01    0.600E-01
RMM:   4    -0.232625039360E+04    0.10934E-02   -0.10124E-02  5149   0.305E-02    0.274E-01
RMM:   5    -0.232624977194E+04    0.62166E-03   -0.13639E-03  4472   0.154E-02    0.140E-01
RMM:   6    -0.232624956100E+04    0.21094E-03   -0.97706E-04  4528   0.151E-02    0.546E-02
RMM:   7    -0.232624954350E+04    0.17500E-04   -0.14609E-04  3594   0.102E-02    0.216E-02
RMM:   8    -0.232624954115E+04    0.23501E-05   -0.30107E-05  2933   0.451E-03
  32 F= -.23468378E+04 E0= -.23468378E+04  d E =-.126671E-01  mag=     4.0000
       N       E                     dE             d eps       ncg     rms          rms(c)
DAV:   1    -0.232623785187E+04    0.11692E-01   -0.56979E-01  4656   0.540E-01    0.249E-01
RMM:   2    -0.232624908697E+04   -0.11235E-01   -0.11782E-01  6298   0.129E-01    0.137E-01
RMM:   3    -0.232625029897E+04   -0.12120E-02   -0.13900E-02  4851   0.506E-02    0.134E-01
RMM:   4    -0.232625034801E+04   -0.49038E-04   -0.12122E-03  3050   0.106E-02    0.115E-01
RMM:   5    -0.232625025090E+04    0.97107E-04   -0.13447E-04  3075   0.583E-03    0.456E-02
RMM:   6    -0.232625022925E+04    0.21648E-04   -0.99532E-05  3253   0.608E-03    0.218E-02
RMM:   7    -0.232625022757E+04    0.16860E-05   -0.17311E-05  2869   0.502E-03
  33 F= -.23468386E+04 E0= -.23468386E+04  d E =-.135213E-01  mag=     4.0000
       N       E                     dE             d eps       ncg     rms          rms(c)
DAV:   1    -0.232620846721E+04    0.41762E-01   -0.24015E+00  4432   0.120E+00    0.534E-01
RMM:   2    -0.232625579686E+04   -0.47330E-01   -0.50066E-01  6160   0.279E-01    0.310E-01
RMM:   3    -0.232626098366E+04   -0.51868E-02   -0.58705E-02  5607   0.107E-01    0.317E-01
RMM:   4    -0.232626083067E+04    0.15299E-03   -0.51917E-03  4604   0.235E-02    0.192E-01
RMM:   5    -0.232626055901E+04    0.27167E-03   -0.66155E-04  3891   0.125E-02    0.116E-01
RMM:   6    -0.232626045462E+04    0.10439E-03   -0.50096E-04  4641   0.121E-02    0.796E-02
RMM:   7    -0.232626041523E+04    0.39389E-04   -0.93243E-05  3119   0.867E-03    0.159E-02
RMM:   8    -0.232626041353E+04    0.17041E-05   -0.21329E-05  2887   0.393E-03
  34 F= -.23468492E+04 E0= -.23468492E+04  d E =-.105409E-01  mag=     4.0000
       N       E                     dE             d eps       ncg     rms          rms(c)
DAV:   1    -0.232623092032E+04    0.29495E-01   -0.14508E+00  4448   0.931E-01    0.415E-01
RMM:   2    -0.232625949255E+04   -0.28572E-01   -0.30197E-01  6101   0.216E-01    0.241E-01
RMM:   3    -0.232626256845E+04   -0.30759E-02   -0.34866E-02  5522   0.813E-02    0.241E-01
RMM:   4    -0.232626249748E+04    0.70968E-04   -0.31234E-03  3909   0.181E-02    0.148E-01
RMM:   5    -0.232626233455E+04    0.16293E-03   -0.39797E-04  3470   0.102E-02    0.902E-02
RMM:   6    -0.232626227464E+04    0.59905E-04   -0.29457E-04  4305   0.984E-03    0.679E-02
RMM:   7    -0.232626224674E+04    0.27904E-04   -0.59740E-05  2959   0.758E-03    0.125E-02
RMM:   8    -0.232626224533E+04    0.14031E-05   -0.14336E-05  2873   0.337E-03
  35 F= -.23468513E+04 E0= -.23468513E+04  d E =-.126057E-01  mag=     4.0000
       N       E                     dE             d eps       ncg     rms          rms(c)
DAV:   1    -0.232622280781E+04    0.39439E-01   -0.21665E+00  4424   0.112E+00    0.505E-01
RMM:   2    -0.232626758588E+04   -0.44778E-01   -0.46653E-01  6112   0.260E-01    0.439E-01
RMM:   3    -0.232627264666E+04   -0.50608E-02   -0.53423E-02  5701   0.999E-02    0.511E-01
RMM:   4    -0.232627142769E+04    0.12190E-02   -0.50908E-03  4764   0.238E-02    0.144E-01
RMM:   5    -0.232627122057E+04    0.20712E-03   -0.57073E-04  3757   0.113E-02    0.949E-02
RMM:   6    -0.232627115374E+04    0.66829E-04   -0.41678E-04  4411   0.113E-02    0.799E-02
RMM:   7    -0.232627112059E+04    0.33147E-04   -0.10769E-04  3017   0.880E-03    0.236E-02
RMM:   8    -0.232627111639E+04    0.42088E-05   -0.16267E-05  2859   0.400E-03
  36 F= -.23468604E+04 E0= -.23468604E+04  d E =-.912869E-02  mag=     4.0000
       N       E                     dE             d eps       ncg     rms          rms(c)
DAV:   1    -0.232615501711E+04    0.11610E+00   -0.53611E+00  4424   0.177E+00    0.793E-01
RMM:   2    -0.232626585737E+04   -0.11084E+00   -0.11582E+00  6130   0.411E-01    0.659E-01
RMM:   3    -0.232627923231E+04   -0.13375E-01   -0.13797E-01  5749   0.156E-01    0.815E-01
RMM:   4    -0.232627609529E+04    0.31370E-02   -0.12650E-02  5359   0.372E-02    0.233E-01
RMM:   5    -0.232627557054E+04    0.52474E-03   -0.14722E-03  4444   0.168E-02    0.157E-01
RMM:   6    -0.232627535202E+04    0.21852E-03   -0.11000E-03  4822   0.166E-02    0.117E-01
RMM:   7    -0.232627528086E+04    0.71159E-04   -0.27155E-04  3957   0.124E-02    0.346E-02
RMM:   8    -0.232627527078E+04    0.10084E-04   -0.40631E-05  2937   0.500E-03    0.123E-02
RMM:   9    -0.232627526747E+04    0.33069E-05   -0.14079E-05  2856   0.361E-03
  37 F= -.23468648E+04 E0= -.23468648E+04  d E =-.135407E-01  mag=     4.0000
       N       E                     dE             d eps       ncg     rms          rms(c)
DAV:   1    -0.232623546662E+04    0.39804E-01   -0.21416E+00  4448   0.108E+00    0.497E-01
RMM:   2    -0.232628084499E+04   -0.45378E-01   -0.46535E-01  6214   0.249E-01    0.534E-01
RMM:   3    -0.232628504933E+04   -0.42043E-02   -0.51259E-02  5738   0.935E-02    0.510E-01
RMM:   4    -0.232628381954E+04    0.12298E-02   -0.50215E-03  4743   0.232E-02    0.134E-01
RMM:   5    -0.232628360880E+04    0.21074E-03   -0.59445E-04  3824   0.109E-02    0.861E-02
RMM:   6    -0.232628354268E+04    0.66119E-04   -0.38186E-04  4259   0.110E-02    0.632E-02
RMM:   7    -0.232628352579E+04    0.16898E-04   -0.81013E-05  2971   0.794E-03    0.198E-02
RMM:   8    -0.232628352249E+04    0.32978E-05   -0.13438E-05  2853   0.376E-03
  38 F= -.23468731E+04 E0= -.23468731E+04  d E =-.829933E-02  mag=     4.0000
       N       E                     dE             d eps       ncg     rms          rms(c)
DAV:   1    -0.232620861207E+04    0.74914E-01   -0.35006E+00  4416   0.138E+00    0.635E-01
RMM:   2    -0.232628248216E+04   -0.73870E-01   -0.76011E-01  6179   0.320E-01    0.654E-01
RMM:   3    -0.232628987973E+04   -0.73976E-02   -0.85769E-02  5791   0.118E-01    0.663E-01
RMM:   4    -0.232628776772E+04    0.21120E-02   -0.81906E-03  5127   0.294E-02    0.174E-01
RMM:   5    -0.232628742845E+04    0.33927E-03   -0.99643E-04  4167   0.135E-02    0.113E-01
RMM:   6    -0.232628730681E+04    0.12164E-03   -0.62953E-04  4534   0.133E-02    0.816E-02
RMM:   7    -0.232628727770E+04    0.29113E-04   -0.14764E-04  3211   0.982E-03    0.264E-02
RMM:   8    -0.232628727170E+04    0.59918E-05   -0.22756E-05  2886   0.438E-03
  39 F= -.23468768E+04 E0= -.23468768E+04  d E =-.120009E-01  mag=     4.0000
       N       E                     dE             d eps       ncg     rms          rms(c)
DAV:   1    -0.232627843092E+04    0.88468E-02   -0.67446E-01  4528   0.657E-01    0.293E-01
RMM:   2    -0.232629176433E+04   -0.13333E-01   -0.13672E-01  6023   0.144E-01    0.314E-01
RMM:   3    -0.232629284151E+04   -0.10772E-02   -0.14120E-02  5578   0.565E-02    0.297E-01
RMM:   4    -0.232629238370E+04    0.45781E-03   -0.14889E-03  3868   0.140E-02    0.778E-02
RMM:   5    -0.232629230180E+04    0.81898E-04   -0.20898E-04  3471   0.842E-03    0.445E-02
RMM:   6    -0.232629228377E+04    0.18027E-04   -0.12900E-04  3834   0.831E-03    0.315E-02
RMM:   7    -0.232629227848E+04    0.52896E-05   -0.21207E-05  2862   0.571E-03
  40 F= -.23468817E+04 E0= -.23468817E+04  d E =-.494550E-02  mag=     4.0000
       N       E                     dE             d eps       ncg     rms          rms(c)
DAV:   1    -0.232626939352E+04    0.22890E-01   -0.11878E+00  4448   0.872E-01    0.387E-01
RMM:   2    -0.232629266207E+04   -0.23269E-01   -0.24025E-01  6004   0.192E-01    0.382E-01
RMM:   3    -0.232629482996E+04   -0.21679E-02   -0.25335E-02  5627   0.762E-02    0.401E-01
RMM:   4    -0.232629399212E+04    0.83784E-03   -0.26295E-03  4650   0.186E-02    0.105E-01
RMM:   5    -0.232629384851E+04    0.14361E-03   -0.37493E-04  3904   0.107E-02    0.611E-02
RMM:   6    -0.232629381160E+04    0.36913E-04   -0.22609E-04  4155   0.101E-02    0.464E-02
RMM:   7    -0.232629379842E+04    0.13175E-04   -0.39027E-05  2883   0.700E-03    0.135E-02
RMM:   8    -0.232629379536E+04    0.30592E-05   -0.10018E-05  2847   0.331E-03
  41 F= -.23468831E+04 E0= -.23468831E+04  d E =-.635637E-02  mag=     4.0000
       N       E                     dE             d eps       ncg     rms          rms(c)
DAV:   1    -0.232628682326E+04    0.69752E-02   -0.48130E-01  4520   0.564E-01    0.244E-01
RMM:   2    -0.232629677687E+04   -0.99536E-02   -0.10101E-01  6030   0.121E-01    0.292E-01
RMM:   3    -0.232629743795E+04   -0.66107E-03   -0.10268E-02  5427   0.453E-02    0.239E-01
RMM:   4    -0.232629716094E+04    0.27701E-03   -0.10665E-03  3195   0.113E-02    0.621E-02
RMM:   5    -0.232629711134E+04    0.49603E-04   -0.12446E-04  3010   0.629E-03    0.389E-02
RMM:   6    -0.232629709616E+04    0.15178E-04   -0.90006E-05  3449   0.695E-03    0.223E-02
RMM:   7    -0.232629709422E+04    0.19409E-05   -0.12919E-05  2851   0.501E-03
  42 F= -.23468864E+04 E0= -.23468864E+04  d E =-.324926E-02  mag=     4.0000
       N       E                     dE             d eps       ncg     rms          rms(c)
DAV:   1    -0.232620793879E+04    0.89157E-01   -0.43236E+00  4416   0.169E+00    0.724E-01
RMM:   2    -0.232629612511E+04   -0.88186E-01   -0.90673E-01  6074   0.364E-01    0.763E-01
RMM:   3    -0.232630459972E+04   -0.84746E-02   -0.10103E-01  5771   0.136E-01    0.774E-01
RMM:   4    -0.232630159901E+04    0.30007E-02   -0.98352E-03  5367   0.338E-02    0.196E-01
RMM:   5    -0.232630115293E+04    0.44608E-03   -0.11910E-03  4450   0.160E-02    0.127E-01
RMM:   6    -0.232630098159E+04    0.17134E-03   -0.88777E-04  4699   0.165E-02    0.820E-02
RMM:   7    -0.232630094422E+04    0.37366E-04   -0.14833E-04  3599   0.113E-02    0.265E-02
RMM:   8    -0.232630093538E+04    0.88469E-05   -0.30550E-05  2889   0.455E-03
  43 F= -.23468900E+04 E0= -.23468900E+04  d E =-.687592E-02  mag=     4.0000
       N       E                     dE             d eps       ncg     rms          rms(c)
DAV:   1    -0.232629512858E+04    0.58156E-02   -0.60901E-01  4504   0.614E-01    0.265E-01
RMM:   2    -0.232630557701E+04   -0.10448E-01   -0.10617E-01  6113   0.132E-01    0.340E-01
RMM:   3    -0.232630610963E+04   -0.53262E-03   -0.11242E-02  5598   0.505E-02    0.251E-01
RMM:   4    -0.232630580293E+04    0.30670E-03   -0.11827E-03  3626   0.128E-02    0.729E-02
RMM:   5    -0.232630572890E+04    0.74032E-04   -0.17409E-04  3544   0.841E-03    0.398E-02
RMM:   6    -0.232630571952E+04    0.93726E-05   -0.94404E-05  3418   0.787E-03
  44 F= -.23468947E+04 E0= -.23468947E+04  d E =-.472357E-02  mag=     4.0000
       N       E                     dE             d eps       ncg     rms          rms(c)
DAV:   1    -0.232630161291E+04    0.41160E-02   -0.27089E-01  4672   0.409E-01    0.178E-01
RMM:   2    -0.232630628361E+04   -0.46707E-02   -0.47552E-02  6225   0.896E-02    0.230E-01
RMM:   3    -0.232630651620E+04   -0.23259E-03   -0.49628E-03  5065   0.341E-02    0.171E-01
RMM:   4    -0.232630637478E+04    0.14142E-03   -0.53274E-04  3050   0.905E-03    0.486E-02
RMM:   5    -0.232630634342E+04    0.31359E-04   -0.81969E-05  3050   0.609E-03    0.265E-02
RMM:   6    -0.232630633936E+04    0.40654E-05   -0.39219E-05  2935   0.597E-03
  45 F= -.23468953E+04 E0= -.23468953E+04  d E =-.529837E-02  mag=     4.0000
       N       E                     dE             d eps       ncg     rms          rms(c)
DAV:   1    -0.232630434469E+04    0.19987E-02   -0.24380E-01  4456   0.440E-01    0.173E-01
RMM:   2    -0.232630833476E+04   -0.39901E-02   -0.42176E-02  6095   0.915E-02    0.138E-01
RMM:   3    -0.232630879218E+04   -0.45742E-03   -0.48340E-03  5078   0.384E-02    0.167E-01
RMM:   4    -0.232630866342E+04    0.12876E-03   -0.48248E-04  2978   0.918E-03    0.507E-02
RMM:   5    -0.232630864088E+04    0.22536E-04   -0.81035E-05  2930   0.618E-03    0.344E-02
RMM:   6    -0.232630863476E+04    0.61226E-05   -0.45636E-05  3013   0.596E-03
  46 F= -.23468976E+04 E0= -.23468976E+04  d E =-.226968E-02  mag=     4.0000
       N       E                     dE             d eps       ncg     rms          rms(c)
DAV:   1    -0.232630277083E+04    0.58700E-02   -0.38957E-01  4456   0.556E-01    0.219E-01
RMM:   2    -0.232630917477E+04   -0.64039E-02   -0.67521E-02  6052   0.115E-01    0.178E-01
RMM:   3    -0.232630990071E+04   -0.72595E-03   -0.77252E-03  5515   0.469E-02    0.212E-01
RMM:   4    -0.232630968758E+04    0.21313E-03   -0.76844E-04  3196   0.112E-02    0.644E-02
RMM:   5    -0.232630964879E+04    0.38789E-04   -0.13201E-04  3148   0.760E-03    0.420E-02
RMM:   6    -0.232630963741E+04    0.11387E-04   -0.73677E-05  3528   0.714E-03    0.338E-02
RMM:   7    -0.232630963028E+04    0.71236E-05   -0.18498E-05  2843   0.538E-03
  47 F= -.23468985E+04 E0= -.23468985E+04  d E =-.322722E-02  mag=     4.0000
       N       E                     dE             d eps       ncg     rms          rms(c)
DAV:   1    -0.232630785415E+04    0.17833E-02   -0.32987E-01  4448   0.551E-01    0.193E-01
RMM:   2    -0.232631169926E+04   -0.38451E-02   -0.42182E-02  5856   0.102E-01    0.954E-02
RMM:   3    -0.232631205200E+04   -0.35275E-03   -0.47203E-03  4913   0.435E-02    0.879E-02
RMM:   4    -0.232631208536E+04   -0.33354E-04   -0.48356E-04  3201   0.962E-03    0.104E-01
RMM:   5    -0.232631200920E+04    0.76152E-04   -0.10567E-04  3276   0.735E-03    0.290E-02
RMM:   6    -0.232631200165E+04    0.75581E-05   -0.52603E-05  3274   0.657E-03
  48 F= -.23469009E+04 E0= -.23469009E+04  d E =-.232024E-02  mag=     4.0000
       N       E                     dE             d eps       ncg     rms          rms(c)
DAV:   1    -0.232630962406E+04    0.23851E-02   -0.19639E-01  4600   0.425E-01    0.150E-01
RMM:   2    -0.232631193749E+04   -0.23134E-02   -0.25377E-02  6000   0.807E-02    0.739E-02
RMM:   3    -0.232631213859E+04   -0.20110E-03   -0.27893E-03  4691   0.333E-02    0.654E-02
RMM:   4    -0.232631216078E+04   -0.22183E-04   -0.28597E-04  2966   0.755E-03    0.810E-02
RMM:   5    -0.232631211375E+04    0.47023E-04   -0.70519E-05  2992   0.574E-03    0.221E-02
RMM:   6    -0.232631210789E+04    0.58608E-05   -0.28523E-05  2935   0.524E-03
  49 F= -.23469009E+04 E0= -.23469009E+04  d E =-.238549E-02  mag=     4.0000
       N       E                     dE             d eps       ncg     rms          rms(c)
DAV:   1    -0.232631185451E+04    0.25924E-03   -0.31219E-02  4592   0.169E-01    0.592E-02
RMM:   2    -0.232631221950E+04   -0.36499E-03   -0.39546E-03  6081   0.340E-02    0.347E-02
RMM:   3    -0.232631226468E+04   -0.45178E-04   -0.44970E-04  3009   0.132E-02    0.600E-02
RMM:   4    -0.232631224620E+04    0.18475E-04   -0.44805E-05  2867   0.397E-03    0.172E-02
RMM:   5    -0.232631224308E+04    0.31195E-05   -0.11947E-05  2875   0.265E-03
  50 F= -.23469011E+04 E0= -.23469011E+04  d E =-.253705E-02  mag=     4.0000
       N       E                     dE             d eps       ncg     rms          rms(c)
DAV:   1    -0.232631129346E+04    0.95274E-03   -0.20364E-01  4448   0.414E-01    0.144E-01
RMM:   2    -0.232631385532E+04   -0.25619E-02   -0.27288E-02  5892   0.777E-02    0.124E-01
RMM:   3    -0.232631415566E+04   -0.30034E-03   -0.29473E-03  4316   0.313E-02    0.165E-01
RMM:   4    -0.232631401373E+04    0.14194E-03   -0.31237E-04  3022   0.833E-03    0.440E-02
RMM:   5    -0.232631399119E+04    0.22538E-04   -0.94409E-05  3362   0.669E-03    0.224E-02
RMM:   6    -0.232631398788E+04    0.33074E-05   -0.25723E-05  2912   0.575E-03
  51 F= -.23469027E+04 E0= -.23469027E+04  d E =-.162489E-02  mag=     4.0000
       N       E                     dE             d eps       ncg     rms          rms(c)
DAV:   1    -0.232631160861E+04    0.23826E-02   -0.22576E-01  4448   0.436E-01    0.155E-01
RMM:   2    -0.232631448769E+04   -0.28791E-02   -0.30587E-02  5816   0.824E-02    0.144E-01
RMM:   3    -0.232631481652E+04   -0.32883E-03   -0.33401E-03  4556   0.342E-02    0.179E-01
RMM:   4    -0.232631464674E+04    0.16978E-03   -0.35425E-04  3061   0.869E-03    0.465E-02
RMM:   5    -0.232631462214E+04    0.24603E-04   -0.10387E-04  3447   0.699E-03    0.229E-02
RMM:   6    -0.232631461869E+04    0.34483E-05   -0.27729E-05  2920   0.595E-03
  52 F= -.23469032E+04 E0= -.23469032E+04  d E =-.212950E-02  mag=     4.0000
       N       E                     dE             d eps       ncg     rms          rms(c)
DAV:   1    -0.232631336367E+04    0.12585E-02   -0.20941E-01  4480   0.408E-01    0.148E-01
RMM:   2    -0.232631612596E+04   -0.27623E-02   -0.29221E-02  6020   0.784E-02    0.154E-01
RMM:   3    -0.232631640620E+04   -0.28024E-03   -0.31532E-03  4456   0.320E-02    0.166E-01
RMM:   4    -0.232631626426E+04    0.14194E-03   -0.34874E-04  3024   0.842E-03    0.432E-02
RMM:   5    -0.232631624434E+04    0.19913E-04   -0.76352E-05  3125   0.627E-03    0.215E-02
RMM:   6    -0.232631624278E+04    0.15661E-05   -0.24519E-05  2900   0.562E-03
  53 F= -.23469047E+04 E0= -.23469047E+04  d E =-.149137E-02  mag=     4.0000
       N       E                     dE             d eps       ncg     rms          rms(c)
DAV:   1    -0.232631416958E+04    0.20748E-02   -0.18890E-01  4448   0.387E-01    0.141E-01
RMM:   2    -0.232631667449E+04   -0.25049E-02   -0.26417E-02  5951   0.741E-02    0.149E-01
RMM:   3    -0.232631692116E+04   -0.24666E-03   -0.28419E-03  4320   0.307E-02    0.158E-01
RMM:   4    -0.232631679382E+04    0.12734E-03   -0.31403E-04  3004   0.805E-03    0.410E-02
RMM:   5    -0.232631677553E+04    0.18293E-04   -0.68717E-05  3084   0.597E-03    0.203E-02
RMM:   6    -0.232631677371E+04    0.18167E-05   -0.21712E-05  2890   0.541E-03
  54 F= -.23469051E+04 E0= -.23469051E+04  d E =-.189635E-02  mag=     4.0000
       N       E                     dE             d eps       ncg     rms          rms(c)
DAV:   1    -0.232631498355E+04    0.17920E-02   -0.23208E-01  4448   0.419E-01    0.150E-01
RMM:   2    -0.232631833444E+04   -0.33509E-02   -0.35561E-02  6066   0.792E-02    0.150E-01
RMM:   3    -0.232631864730E+04   -0.31286E-03   -0.32398E-03  4438   0.309E-02    0.177E-01
RMM:   4    -0.232631848726E+04    0.16004E-03   -0.38431E-04  3019   0.845E-03    0.453E-02
RMM:   5    -0.232631846806E+04    0.19199E-04   -0.77444E-05  3034   0.611E-03    0.232E-02
RMM:   6    -0.232631846494E+04    0.31225E-05   -0.25937E-05  2907   0.548E-03
  55 F= -.23469067E+04 E0= -.23469067E+04  d E =-.161526E-02  mag=     4.0000
       N       E                     dE             d eps       ncg     rms          rms(c)
DAV:   1    -0.232630754897E+04    0.10919E-01   -0.80192E-01  4416   0.780E-01    0.276E-01
RMM:   2    -0.232631900979E+04   -0.11461E-01   -0.12233E-01  5886   0.147E-01    0.252E-01
RMM:   3    -0.232632025344E+04   -0.12437E-02   -0.11717E-02  5349   0.572E-02    0.331E-01
RMM:   4    -0.232631968729E+04    0.56615E-03   -0.13427E-03  4114   0.141E-02    0.851E-02
RMM:   5    -0.232631961912E+04    0.68174E-04   -0.26483E-04  3859   0.997E-03    0.453E-02
RMM:   6    -0.232631960411E+04    0.15004E-04   -0.98672E-05  3715   0.816E-03    0.137E-02
RMM:   7    -0.232631960272E+04    0.13930E-05   -0.17494E-05  2850   0.565E-03
  56 F= -.23469077E+04 E0= -.23469077E+04  d E =-.260887E-02  mag=     4.0000
       N       E                     dE             d eps       ncg     rms          rms(c)
DAV:   1    -0.232631850729E+04    0.10968E-02   -0.15762E-01  4576   0.343E-01    0.123E-01
RMM:   2    -0.232632075278E+04   -0.22455E-02   -0.23999E-02  5976   0.640E-02    0.957E-02
RMM:   3    -0.232632102695E+04   -0.27417E-03   -0.24657E-03  3909   0.265E-02    0.142E-01
RMM:   4    -0.232632092690E+04    0.10005E-03   -0.26495E-04  2940   0.704E-03    0.373E-02
RMM:   5    -0.232632091637E+04    0.10523E-04   -0.48146E-05  2927   0.460E-03    0.198E-02
RMM:   6    -0.232632091454E+04    0.18310E-05   -0.19698E-05  2897   0.424E-03
  57 F= -.23469090E+04 E0= -.23469090E+04  d E =-.126998E-02  mag=     4.0000
       N       E                     dE             d eps       ncg     rms          rms(c)
DAV:   1    -0.232630151825E+04    0.19398E-01   -0.14167E+00  4416   0.103E+00    0.366E-01
RMM:   2    -0.232632150217E+04   -0.19984E-01   -0.21446E-01  5768   0.189E-01    0.256E-01
RMM:   3    -0.232632411468E+04   -0.26125E-02   -0.23658E-02  5246   0.771E-02    0.407E-01
RMM:   4    -0.232632329027E+04    0.82441E-03   -0.23396E-03  4549   0.173E-02    0.115E-01
RMM:   5    -0.232632318269E+04    0.10758E-03   -0.41763E-04  3987   0.114E-02    0.637E-02
RMM:   6    -0.232632315740E+04    0.25284E-04   -0.21189E-04  4090   0.998E-03    0.192E-02
RMM:   7    -0.232632315531E+04    0.20968E-05   -0.29271E-05  2880   0.722E-03
  58 F= -.23469111E+04 E0= -.23469111E+04  d E =-.338186E-02  mag=     4.0000
       N       E                     dE             d eps       ncg     rms          rms(c)
DAV:   1    -0.232632012115E+04    0.30363E-02   -0.20971E-01  4616   0.396E-01    0.142E-01
RMM:   2    -0.232632311423E+04   -0.29931E-02   -0.32051E-02  5849   0.738E-02    0.109E-01
RMM:   3    -0.232632348786E+04   -0.37362E-03   -0.34038E-03  4209   0.309E-02    0.164E-01
RMM:   4    -0.232632335483E+04    0.13303E-03   -0.35430E-04  2965   0.772E-03    0.435E-02
RMM:   5    -0.232632334057E+04    0.14261E-04   -0.63153E-05  2945   0.515E-03    0.234E-02
RMM:   6    -0.232632333749E+04    0.30791E-05   -0.27631E-05  2921   0.476E-03
  59 F= -.23469112E+04 E0= -.23469112E+04  d E =-.351309E-02  mag=     4.0000
       N       E                     dE             d eps       ncg     rms          rms(c)
DAV:   1    -0.232632058096E+04    0.27596E-02   -0.31301E-01  4432   0.465E-01    0.168E-01
RMM:   2    -0.232632496543E+04   -0.43845E-02   -0.47246E-02  5771   0.858E-02    0.115E-01
RMM:   3    -0.232632549257E+04   -0.52714E-03   -0.49995E-03  4580   0.384E-02    0.174E-01
RMM:   4    -0.232632535600E+04    0.13657E-03   -0.51569E-04  3043   0.847E-03    0.589E-02
RMM:   5    -0.232632533050E+04    0.25495E-04   -0.89556E-05  2999   0.595E-03    0.295E-02
RMM:   6    -0.232632532544E+04    0.50629E-05   -0.44326E-05  3000   0.558E-03
  60 F= -.23469132E+04 E0= -.23469132E+04  d E =-.194854E-02  mag=     4.0000
       N       E                     dE             d eps       ncg     rms          rms(c)
DAV:   1    -0.232630340119E+04    0.21929E-01   -0.15518E+00  4416   0.103E+00    0.373E-01
RMM:   2    -0.232632488177E+04   -0.21481E-01   -0.23203E-01  5880   0.191E-01    0.233E-01
RMM:   3    -0.232632756116E+04   -0.26794E-02   -0.27044E-02  5278   0.836E-02    0.337E-01
RMM:   4    -0.232632712145E+04    0.43971E-03   -0.26478E-03  4324   0.171E-02    0.140E-01
RMM:   5    -0.232632697824E+04    0.14321E-03   -0.42520E-04  4006   0.118E-02    0.693E-02
RMM:   6    -0.232632694560E+04    0.32640E-04   -0.25251E-04  4117   0.105E-02    0.206E-02
RMM:   7    -0.232632694209E+04    0.35066E-05   -0.33141E-05  2891   0.742E-03
  61 F= -.23469147E+04 E0= -.23469147E+04  d E =-.347772E-02  mag=     4.0000
       N       E                     dE             d eps       ncg     rms          rms(c)
DAV:   1    -0.232632211835E+04    0.48273E-02   -0.48310E-01  4480   0.573E-01    0.209E-01
RMM:   2    -0.232632879764E+04   -0.66793E-02   -0.72441E-02  5835   0.103E-01    0.121E-01
RMM:   3    -0.232632941737E+04   -0.61973E-03   -0.64134E-03  4961   0.409E-02    0.150E-01
RMM:   4    -0.232632936731E+04    0.50058E-04   -0.75387E-04  3050   0.926E-03    0.899E-02
RMM:   5    -0.232632931245E+04    0.54866E-04   -0.11936E-04  3102   0.687E-03    0.359E-02
RMM:   6    -0.232632930592E+04    0.65333E-05   -0.63661E-05  3098   0.644E-03
  62 F= -.23469170E+04 E0= -.23469170E+04  d E =-.226677E-02  mag=     4.0000
       N       E                     dE             d eps       ncg     rms          rms(c)
DAV:   1    -0.232626708565E+04    0.62227E-01   -0.43459E+00  4416   0.172E+00    0.626E-01
RMM:   2    -0.232632684812E+04   -0.59762E-01   -0.64837E-01  5834   0.308E-01    0.344E-01
RMM:   3    -0.232633214328E+04   -0.52952E-02   -0.64097E-02  5401   0.112E-01    0.222E-01
RMM:   4    -0.232633233530E+04   -0.19202E-03   -0.62434E-03  4907   0.271E-02    0.194E-01
RMM:   5    -0.232633251547E+04   -0.18017E-03   -0.11220E-03  4412   0.173E-02    0.281E-01
RMM:   6    -0.232633204249E+04    0.47297E-03   -0.67635E-04  4468   0.139E-02    0.385E-02
RMM:   7    -0.232633203873E+04    0.37691E-05   -0.10804E-04  3012   0.891E-03    0.302E-02
RMM:   8    -0.232633203054E+04    0.81901E-05   -0.20851E-05  2883   0.338E-03
  63 F= -.23469194E+04 E0= -.23469194E+04  d E =-.469407E-02  mag=     4.0000
       N       E                     dE             d eps       ncg     rms          rms(c)
DAV:   1    -0.232632985326E+04    0.21855E-02   -0.27386E-01  4640   0.416E-01    0.153E-01
RMM:   2    -0.232633368290E+04   -0.38296E-02   -0.41372E-02  6042   0.753E-02    0.886E-02
RMM:   3    -0.232633399268E+04   -0.30978E-03   -0.33092E-03  4141   0.278E-02    0.931E-02
RMM:   4    -0.232633399560E+04   -0.29209E-05   -0.42244E-04  2955   0.716E-03    0.754E-02
RMM:   5    -0.232633395830E+04    0.37299E-04   -0.71432E-05  2955   0.513E-03    0.269E-02
RMM:   6    -0.232633395567E+04    0.26310E-05   -0.34195E-05  2947   0.466E-03
  64 F= -.23469212E+04 E0= -.23469212E+04  d E =-.180414E-02  mag=     4.0000
       N       E                     dE             d eps       ncg     rms          rms(c)
DAV:   1    -0.232630068780E+04    0.33270E-01   -0.24573E+00  4416   0.125E+00    0.460E-01
RMM:   2    -0.232633473494E+04   -0.34047E-01   -0.36872E-01  5868   0.223E-01    0.259E-01
RMM:   3    -0.232633757740E+04   -0.28425E-02   -0.33682E-02  5356   0.854E-02    0.172E-01
RMM:   4    -0.232633770154E+04   -0.12414E-03   -0.34529E-03  4525   0.191E-02    0.157E-01
RMM:   5    -0.232633778752E+04   -0.85976E-04   -0.80742E-04  4052   0.138E-02    0.202E-01
RMM:   6    -0.232633752617E+04    0.26135E-03   -0.33684E-04  4312   0.102E-02    0.424E-02
RMM:   7    -0.232633751842E+04    0.77430E-05   -0.38678E-05  2895   0.663E-03
  65 F= -.23469244E+04 E0= -.23469244E+04  d E =-.500066E-02  mag=     4.0000
       N       E                     dE             d eps       ncg     rms          rms(c)
DAV:   1    -0.232632936597E+04    0.81602E-02   -0.57496E-01  4464   0.603E-01    0.224E-01
RMM:   2    -0.232633738071E+04   -0.80147E-02   -0.86981E-02  5905   0.108E-01    0.123E-01
RMM:   3    -0.232633799905E+04   -0.61834E-03   -0.72751E-03  4877   0.417E-02    0.779E-02
RMM:   4    -0.232633801255E+04   -0.13502E-04   -0.80911E-04  3373   0.996E-03    0.493E-02
RMM:   5    -0.232633799303E+04    0.19525E-04   -0.10746E-04  3321   0.723E-03    0.203E-02
RMM:   6    -0.232633800185E+04   -0.88286E-05   -0.31199E-05  2871   0.542E-03
  66 F= -.23469247E+04 E0= -.23469247E+04  d E =-.530519E-02  mag=     4.0000
       N       E                     dE             d eps       ncg     rms          rms(c)
DAV:   1    -0.232633607573E+04    0.19173E-02   -0.29414E-01  4528   0.445E-01    0.173E-01
RMM:   2    -0.232633997642E+04   -0.39007E-02   -0.42372E-02  5810   0.812E-02    0.992E-02
RMM:   3    -0.232634035658E+04   -0.38016E-03   -0.42440E-03  4463   0.332E-02    0.103E-01
RMM:   4    -0.232634035256E+04    0.40241E-05   -0.46773E-04  3002   0.811E-03    0.711E-02
RMM:   5    -0.232634032692E+04    0.25641E-04   -0.10750E-04  2991   0.665E-03    0.469E-02
RMM:   6    -0.232634031833E+04    0.85844E-05   -0.45719E-05  2999   0.578E-03
  67 F= -.23469269E+04 E0= -.23469269E+04  d E =-.220468E-02  mag=     4.0000
       N       E                     dE             d eps       ncg     rms          rms(c)
DAV:   1    -0.232631995122E+04    0.20376E-01   -0.15633E+00  4416   0.103E+00    0.397E-01
RMM:   2    -0.232634074876E+04   -0.20798E-01   -0.22502E-01  5737   0.187E-01    0.248E-01
RMM:   3    -0.232634287592E+04   -0.21272E-02   -0.22972E-02  5297   0.791E-02    0.296E-01
RMM:   4    -0.232634263583E+04    0.24009E-03   -0.25168E-03  4626   0.180E-02    0.154E-01
RMM:   5    -0.232634249392E+04    0.14190E-03   -0.57415E-04  4295   0.139E-02    0.938E-02
RMM:   6    -0.232634244882E+04    0.45100E-04   -0.21565E-04  4172   0.103E-02    0.486E-02
RMM:   7    -0.232634243517E+04    0.13658E-04   -0.35291E-05  2911   0.639E-03    0.912E-03
RMM:   8    -0.232634243430E+04    0.87103E-06   -0.79180E-06  2854   0.289E-03
  68 F= -.23469288E+04 E0= -.23469288E+04  d E =-.406517E-02  mag=     4.0000
       N       E                     dE             d eps       ncg     rms          rms(c)
DAV:   1    -0.232633835842E+04    0.40767E-02   -0.44968E-01  4464   0.565E-01    0.220E-01
RMM:   2    -0.232634409749E+04   -0.57391E-02   -0.61796E-02  5838   0.103E-01    0.150E-01
RMM:   3    -0.232634475088E+04   -0.65339E-03   -0.65486E-03  5025   0.431E-02    0.199E-01
RMM:   4    -0.232634457264E+04    0.17824E-03   -0.71295E-04  3295   0.105E-02    0.729E-02
RMM:   5    -0.232634453369E+04    0.38952E-04   -0.16326E-04  3447   0.829E-03    0.437E-02
RMM:   6    -0.232634452569E+04    0.79971E-05   -0.64425E-05  3265   0.684E-03
  69 F= -.23469308E+04 E0= -.23469308E+04  d E =-.202343E-02  mag=     4.0000
       N       E                     dE             d eps       ncg     rms          rms(c)
DAV:   1    -0.232633781628E+04    0.67174E-02   -0.53657E-01  4432   0.618E-01    0.243E-01
RMM:   2    -0.232634470885E+04   -0.68926E-02   -0.74248E-02  5783   0.113E-01    0.173E-01
RMM:   3    -0.232634552710E+04   -0.81826E-03   -0.81078E-03  5217   0.502E-02    0.233E-01
RMM:   4    -0.232634526789E+04    0.25922E-03   -0.87606E-04  3578   0.117E-02    0.777E-02
RMM:   5    -0.232634521985E+04    0.48037E-04   -0.20084E-04  3705   0.894E-03    0.433E-02
RMM:   6    -0.232634520840E+04    0.11452E-04   -0.67856E-05  3351   0.711E-03    0.232E-02
RMM:   7    -0.232634520460E+04    0.37945E-05   -0.13780E-05  2864   0.509E-03
  70 F= -.23469314E+04 E0= -.23469314E+04  d E =-.262841E-02  mag=     4.0000
       N       E                     dE             d eps       ncg     rms          rms(c)
DAV:   1    -0.232634098590E+04    0.42225E-02   -0.50828E-01  4432   0.602E-01    0.227E-01
RMM:   2    -0.232634711036E+04   -0.61245E-02   -0.65314E-02  5857   0.109E-01    0.187E-01
RMM:   3    -0.232634777423E+04   -0.66387E-03   -0.70078E-03  5143   0.446E-02    0.223E-01
RMM:   4    -0.232634752900E+04    0.24523E-03   -0.76471E-04  3455   0.113E-02    0.732E-02
RMM:   5    -0.232634748920E+04    0.39797E-04   -0.18515E-04  3479   0.875E-03    0.421E-02
RMM:   6    -0.232634748270E+04    0.64991E-05   -0.65802E-05  3145   0.697E-03
  71 F= -.23469336E+04 E0= -.23469336E+04  d E =-.222778E-02  mag=     4.0000
       N       E                     dE             d eps       ncg     rms          rms(c)
DAV:   1    -0.232633594923E+04    0.11540E-01   -0.97637E-01  4416   0.835E-01    0.317E-01
RMM:   2    -0.232634782348E+04   -0.11874E-01   -0.12624E-01  5808   0.151E-01    0.275E-01
RMM:   3    -0.232634906344E+04   -0.12400E-02   -0.13784E-02  5402   0.631E-02    0.314E-01
RMM:   4    -0.232634857089E+04    0.49255E-03   -0.14864E-03  4447   0.154E-02    0.101E-01
RMM:   5    -0.232634849375E+04    0.77142E-04   -0.36774E-04  4028   0.117E-02    0.556E-02
RMM:   6    -0.232634848002E+04    0.13730E-04   -0.12423E-04  3788   0.857E-03    0.324E-02
RMM:   7    -0.232634847387E+04    0.61503E-05   -0.23871E-05  2882   0.574E-03
  72 F= -.23469346E+04 E0= -.23469346E+04  d E =-.314976E-02  mag=     4.0000
       N       E                     dE             d eps       ncg     rms          rms(c)
DAV:   1    -0.232634500139E+04    0.34786E-02   -0.46511E-01  4464   0.566E-01    0.218E-01
RMM:   2    -0.232635039701E+04   -0.53956E-02   -0.57248E-02  5894   0.103E-01    0.200E-01
RMM:   3    -0.232635094630E+04   -0.54929E-03   -0.63550E-03  5092   0.420E-02    0.219E-01
RMM:   4    -0.232635070045E+04    0.24585E-03   -0.67467E-04  3337   0.108E-02    0.667E-02
RMM:   5    -0.232635066460E+04    0.35850E-04   -0.17334E-04  3469   0.832E-03    0.353E-02
RMM:   6    -0.232635066082E+04    0.37826E-05   -0.53511E-05  3029   0.664E-03
  73 F= -.23469366E+04 E0= -.23469366E+04  d E =-.208505E-02  mag=     4.0000
       N       E                     dE             d eps       ncg     rms          rms(c)
DAV:   1    -0.232633600984E+04    0.14655E-01   -0.12989E+00  4416   0.946E-01    0.367E-01
RMM:   2    -0.232635124422E+04   -0.15234E-01   -0.16086E-01  5855   0.172E-01    0.356E-01
RMM:   3    -0.232635264334E+04   -0.13991E-02   -0.18057E-02  5514   0.674E-02    0.365E-01
RMM:   4    -0.232635196217E+04    0.68117E-03   -0.18823E-03  4621   0.174E-02    0.111E-01
RMM:   5    -0.232635185728E+04    0.10489E-03   -0.50015E-04  4275   0.132E-02    0.564E-02
RMM:   6    -0.232635184419E+04    0.13088E-04   -0.15382E-04  3927   0.924E-03    0.326E-02
RMM:   7    -0.232635183636E+04    0.78234E-05   -0.27211E-05  2911   0.581E-03
  74 F= -.23469376E+04 E0= -.23469376E+04  d E =-.309324E-02  mag=     4.0000
       N       E                     dE             d eps       ncg     rms          rms(c)
DAV:   1    -0.232634692716E+04    0.49170E-02   -0.63907E-01  4432   0.648E-01    0.251E-01
RMM:   2    -0.232635416134E+04   -0.72342E-02   -0.75024E-02  5860   0.118E-01    0.278E-01
RMM:   3    -0.232635468234E+04   -0.52100E-03   -0.88711E-03  5220   0.479E-02    0.236E-01
RMM:   4    -0.232635441142E+04    0.27092E-03   -0.86767E-04  3923   0.122E-02    0.751E-02
RMM:   5    -0.232635436222E+04    0.49197E-04   -0.20947E-04  3706   0.937E-03    0.330E-02
RMM:   6    -0.232635436191E+04    0.31342E-06   -0.49604E-05  3022   0.701E-03
  75 F= -.23469401E+04 E0= -.23469401E+04  d E =-.240504E-02  mag=     4.0000
       N       E                     dE             d eps       ncg     rms          rms(c)
DAV:   1    -0.232633926411E+04    0.15098E-01   -0.14011E+00  4416   0.961E-01    0.374E-01
RMM:   2    -0.232635534230E+04   -0.16078E-01   -0.16566E-01  5900   0.176E-01    0.438E-01
RMM:   3    -0.232635626008E+04   -0.91778E-03   -0.19680E-02  5579   0.671E-02    0.341E-01
RMM:   4    -0.232635570561E+04    0.55447E-03   -0.19042E-03  4637   0.175E-02    0.111E-01
RMM:   5    -0.232635559683E+04    0.10878E-03   -0.47175E-04  4271   0.134E-02    0.496E-02
RMM:   6    -0.232635559234E+04    0.44918E-05   -0.10655E-04  3676   0.899E-03    0.177E-02
RMM:   7    -0.232635559100E+04    0.13377E-05   -0.19145E-05  2906   0.502E-03
  76 F= -.23469411E+04 E0= -.23469411E+04  d E =-.346194E-02  mag=     4.0000
       N       E                     dE             d eps       ncg     rms          rms(c)
DAV:   1    -0.232634903890E+04    0.65534E-02   -0.91562E-01  4416   0.810E-01    0.303E-01
RMM:   2    -0.232635874240E+04   -0.97035E-02   -0.98532E-02  5756   0.143E-01    0.368E-01
RMM:   3    -0.232635912224E+04   -0.37985E-03   -0.11744E-02  5272   0.584E-02    0.267E-01
RMM:   4    -0.232635877146E+04    0.35079E-03   -0.11614E-03  4452   0.145E-02    0.853E-02
RMM:   5    -0.232635870119E+04    0.70266E-04   -0.26789E-04  4074   0.112E-02    0.419E-02
RMM:   6    -0.232635869839E+04    0.28058E-05   -0.67464E-05  3262   0.786E-03
  77 F= -.23469442E+04 E0= -.23469442E+04  d E =-.306135E-02  mag=     4.0000
       N       E                     dE             d eps       ncg     rms          rms(c)
DAV:   1    -0.232633945038E+04    0.19251E-01   -0.19457E+00  4416   0.118E+00    0.445E-01
RMM:   2    -0.232636029958E+04   -0.20849E-01   -0.21095E-01  5786   0.210E-01    0.552E-01
RMM:   3    -0.232636087305E+04   -0.57346E-03   -0.25132E-02  5511   0.799E-02    0.376E-01
RMM:   4    -0.232636018904E+04    0.68401E-03   -0.24840E-03  4744   0.206E-02    0.125E-01
RMM:   5    -0.232636004046E+04    0.14858E-03   -0.58865E-04  4711   0.158E-02    0.642E-02
RMM:   6    -0.232636002760E+04    0.12855E-04   -0.14774E-04  4151   0.999E-03    0.163E-02
RMM:   7    -0.232636002697E+04    0.63097E-06   -0.22241E-05  2925   0.486E-03
  78 F= -.23469454E+04 E0= -.23469454E+04  d E =-.433393E-02  mag=     4.0000
       N       E                     dE             d eps       ncg     rms          rms(c)
DAV:   1    -0.232634958105E+04    0.10447E-01   -0.13513E+00  4416   0.985E-01    0.369E-01
RMM:   2    -0.232636330196E+04   -0.13721E-01   -0.13764E-01  5686   0.175E-01    0.479E-01
RMM:   3    -0.232636337142E+04   -0.69461E-04   -0.16132E-02  5319   0.693E-02    0.297E-01
RMM:   4    -0.232636293231E+04    0.43911E-03   -0.16634E-03  4563   0.177E-02    0.104E-01
RMM:   5    -0.232636283001E+04    0.10230E-03   -0.43999E-04  4545   0.143E-02    0.604E-02
RMM:   6    -0.232636281548E+04    0.14523E-04   -0.11049E-04  3764   0.888E-03    0.173E-02
RMM:   7    -0.232636281387E+04    0.16151E-05   -0.16861E-05  2895   0.471E-03
  79 F= -.23469482E+04 E0= -.23469482E+04  d E =-.271270E-02  mag=     4.0000
       N       E                     dE             d eps       ncg     rms          rms(c)
DAV:   1    -0.232636126985E+04    0.15456E-02   -0.17767E-01  4608   0.357E-01    0.134E-01
RMM:   2    -0.232636306306E+04   -0.17932E-02   -0.18055E-02  5706   0.634E-02    0.172E-01
RMM:   3    -0.232636309310E+04   -0.30043E-04   -0.21370E-03  4056   0.271E-02    0.113E-01
RMM:   4    -0.232636302836E+04    0.64739E-04   -0.21755E-04  3022   0.730E-03    0.378E-02
RMM:   5    -0.232636301421E+04    0.14150E-04   -0.60949E-05  3195   0.585E-03    0.213E-02
RMM:   6    -0.232636301234E+04    0.18789E-05   -0.14918E-05  2876   0.507E-03
  80 F= -.23469483E+04 E0= -.23469483E+04  d E =-.288694E-02  mag=     4.0000
       N       E                     dE             d eps       ncg     rms          rms(c)
DAV:   1    -0.232636253223E+04    0.48199E-03   -0.37663E-01  4448   0.561E-01    0.207E-01
RMM:   2    -0.232636551457E+04   -0.29823E-02   -0.30461E-02  5591   0.967E-02    0.233E-01
RMM:   3    -0.232636557444E+04   -0.59868E-04   -0.34170E-03  4804   0.365E-02    0.189E-01
RMM:   4    -0.232636535907E+04    0.21537E-03   -0.40978E-04  4228   0.112E-02    0.536E-02
RMM:   5    -0.232636532823E+04    0.30845E-04   -0.14005E-04  3904   0.936E-03    0.220E-02
RMM:   6    -0.232636532730E+04    0.92399E-06   -0.23466E-05  2915   0.587E-03
  81 F= -.23469505E+04 E0= -.23469505E+04  d E =-.219165E-02  mag=     4.0000
       N       E                     dE             d eps       ncg     rms          rms(c)
DAV:   1    -0.232636337935E+04    0.19489E-02   -0.36393E-01  4464   0.552E-01    0.204E-01
RMM:   2    -0.232636628915E+04   -0.29098E-02   -0.29552E-02  5632   0.962E-02    0.235E-01
RMM:   3    -0.232636633176E+04   -0.42613E-04   -0.33614E-03  4868   0.381E-02    0.184E-01
RMM:   4    -0.232636612391E+04    0.20785E-03   -0.39524E-04  4190   0.112E-02    0.531E-02
RMM:   5    -0.232636609268E+04    0.31226E-04   -0.14157E-04  3935   0.945E-03    0.226E-02
RMM:   6    -0.232636609065E+04    0.20344E-05   -0.23216E-05  2910   0.612E-03
  82 F= -.23469512E+04 E0= -.23469512E+04  d E =-.283612E-02  mag=     4.0000
       N       E                     dE             d eps       ncg     rms          rms(c)
DAV:   1    -0.232636610182E+04   -0.91328E-05   -0.30466E-01  4448   0.515E-01    0.185E-01
RMM:   2    -0.232636834287E+04   -0.22410E-02   -0.22656E-02  5730   0.883E-02    0.209E-01
RMM:   3    -0.232636837740E+04   -0.34538E-04   -0.24868E-03  4769   0.355E-02    0.168E-01
RMM:   4    -0.232636820247E+04    0.17493E-03   -0.29872E-04  3919   0.100E-02    0.471E-02
RMM:   5    -0.232636817985E+04    0.22623E-04   -0.11465E-04  3769   0.845E-03    0.189E-02
RMM:   6    -0.232636817969E+04    0.16205E-06   -0.18505E-05  2888   0.571E-03
  83 F= -.23469532E+04 E0= -.23469532E+04  d E =-.200400E-02  mag=     4.0000
       N       E                     dE             d eps       ncg     rms          rms(c)
DAV:   1    -0.232636415906E+04    0.40208E-02   -0.76674E-01  4416   0.817E-01    0.293E-01
RMM:   2    -0.232636980909E+04   -0.56500E-02   -0.56968E-02  5674   0.139E-01    0.334E-01
RMM:   3    -0.232636986297E+04   -0.53887E-04   -0.62610E-03  5185   0.536E-02    0.263E-01
RMM:   4    -0.232636943663E+04    0.42634E-03   -0.76544E-04  4443   0.152E-02    0.747E-02
RMM:   5    -0.232636937489E+04    0.61737E-04   -0.28074E-04  4388   0.128E-02    0.300E-02
RMM:   6    -0.232636937216E+04    0.27302E-05   -0.43401E-05  3155   0.699E-03
  84 F= -.23469542E+04 E0= -.23469542E+04  d E =-.306505E-02  mag=     4.0000
       N       E                     dE             d eps       ncg     rms          rms(c)
DAV:   1    -0.232636884847E+04    0.52642E-03   -0.38965E-01  4480   0.549E-01    0.190E-01
RMM:   2    -0.232637190459E+04   -0.30561E-02   -0.30705E-02  5874   0.957E-02    0.226E-01
RMM:   3    -0.232637196387E+04   -0.59287E-04   -0.32350E-03  4870   0.351E-02    0.168E-01
RMM:   4    -0.232637180484E+04    0.15903E-03   -0.38510E-04  3603   0.101E-02    0.541E-02
RMM:   5    -0.232637177743E+04    0.27409E-04   -0.13515E-04  3800   0.861E-03    0.199E-02
RMM:   6    -0.232637177748E+04   -0.42986E-07   -0.19101E-05  2907   0.584E-03
  85 F= -.23469565E+04 E0= -.23469565E+04  d E =-.229069E-02  mag=     4.0000
       N       E                     dE             d eps       ncg     rms          rms(c)
DAV:   1    -0.232635897491E+04    0.12803E-01   -0.19943E+00  4416   0.124E+00    0.429E-01
RMM:   2    -0.232637462021E+04   -0.15645E-01   -0.15671E-01  5801   0.215E-01    0.519E-01
RMM:   3    -0.232637479908E+04   -0.17886E-03   -0.16946E-02  5365   0.758E-02    0.368E-01
RMM:   4    -0.232637404859E+04    0.75049E-03   -0.19852E-03  4717   0.215E-02    0.122E-01
RMM:   5    -0.232637390187E+04    0.14671E-03   -0.70390E-04  5088   0.183E-02    0.459E-02
RMM:   6    -0.232637389685E+04    0.50246E-05   -0.93945E-05  3853   0.850E-03
  86 F= -.23469584E+04 E0= -.23469584E+04  d E =-.415947E-02  mag=     4.0000
       N       E                     dE             d eps       ncg     rms          rms(c)
DAV:   1    -0.232637300940E+04    0.89248E-03   -0.39569E-01  4528   0.541E-01    0.194E-01
RMM:   2    -0.232637628993E+04   -0.32805E-02   -0.33232E-02  5862   0.953E-02    0.218E-01
RMM:   3    -0.232637643872E+04   -0.14879E-03   -0.35384E-03  4766   0.358E-02    0.185E-01
RMM:   4    -0.232637624646E+04    0.19227E-03   -0.40717E-04  3444   0.100E-02    0.542E-02
RMM:   5    -0.232637622125E+04    0.25210E-04   -0.14516E-04  3703   0.835E-03    0.205E-02
RMM:   6    -0.232637622149E+04   -0.24062E-06   -0.22421E-05  2923   0.591E-03
  87 F= -.23469606E+04 E0= -.23469606E+04  d E =-.222793E-02  mag=     4.0000
       N       E                     dE             d eps       ncg     rms          rms(c)
DAV:   1    -0.232635494494E+04    0.21276E-01   -0.29667E+00  4416   0.148E+00    0.528E-01
RMM:   2    -0.232637931978E+04   -0.24375E-01   -0.24725E-01  5848   0.261E-01    0.591E-01
RMM:   3    -0.232638037976E+04   -0.10600E-02   -0.27399E-02  5458   0.938E-02    0.490E-01
RMM:   4    -0.232637904441E+04    0.13354E-02   -0.30891E-03  4954   0.255E-02    0.148E-01
RMM:   5    -0.232637883052E+04    0.21389E-03   -0.10802E-03  5177   0.209E-02    0.570E-02
RMM:   6    -0.232637882323E+04    0.72918E-05   -0.17505E-04  4269   0.101E-02    0.279E-02
RMM:   7    -0.232637881648E+04    0.67506E-05   -0.32654E-05  2967   0.451E-03
  88 F= -.23469630E+04 E0= -.23469630E+04  d E =-.457084E-02  mag=     4.0000
       N       E                     dE             d eps       ncg     rms          rms(c)
DAV:   1    -0.232637414352E+04    0.46797E-02   -0.90258E-01  4416   0.804E-01    0.291E-01
RMM:   2    -0.232638201133E+04   -0.78678E-02   -0.81448E-02  5841   0.144E-01    0.286E-01
RMM:   3    -0.232638269903E+04   -0.68771E-03   -0.88690E-03  5260   0.564E-02    0.302E-01
RMM:   4    -0.232638219656E+04    0.50248E-03   -0.10082E-03  4463   0.147E-02    0.848E-02
RMM:   5    -0.232638213339E+04    0.63163E-04   -0.33987E-04  4180   0.118E-02    0.354E-02
RMM:   6    -0.232638213106E+04    0.23276E-05   -0.61546E-05  3065   0.745E-03
  89 F= -.23469662E+04 E0= -.23469662E+04  d E =-.323064E-02  mag=     4.0000
       N       E                     dE             d eps       ncg     rms          rms(c)
DAV:   1    -0.232635900834E+04    0.23125E-01   -0.28130E+00  4416   0.142E+00    0.517E-01
RMM:   2    -0.232638370414E+04   -0.24696E-01   -0.25487E-01  5835   0.254E-01    0.527E-01
RMM:   3    -0.232638568313E+04   -0.19790E-02   -0.29097E-02  5477   0.898E-02    0.525E-01
RMM:   4    -0.232638415421E+04    0.15289E-02   -0.31484E-03  5085   0.252E-02    0.151E-01
RMM:   5    -0.232638395431E+04    0.19990E-03   -0.11335E-03  5094   0.199E-02    0.641E-02
RMM:   6    -0.232638393721E+04    0.17101E-04   -0.21545E-04  4274   0.104E-02    0.278E-02
RMM:   7    -0.232638393081E+04    0.63967E-05   -0.36877E-05  2991   0.489E-03
  90 F= -.23469679E+04 E0= -.23469679E+04  d E =-.489764E-02  mag=     4.0000
       N       E                     dE             d eps       ncg     rms          rms(c)
DAV:   1    -0.232637831944E+04    0.56178E-02   -0.95724E-01  4448   0.812E-01    0.297E-01
RMM:   2    -0.232638677331E+04   -0.84539E-02   -0.88493E-02  5875   0.145E-01    0.266E-01
RMM:   3    -0.232638772314E+04   -0.94983E-03   -0.99691E-03  5283   0.562E-02    0.323E-01
RMM:   4    -0.232638714623E+04    0.57692E-03   -0.10954E-03  4249   0.145E-02    0.897E-02
RMM:   5    -0.232638708215E+04    0.64075E-04   -0.36053E-04  4047   0.111E-02    0.387E-02
RMM:   6    -0.232638707700E+04    0.51526E-05   -0.72488E-05  3086   0.745E-03
  91 F= -.23469709E+04 E0= -.23469709E+04  d E =-.301529E-02  mag=     4.0000
       N       E                     dE             d eps       ncg     rms          rms(c)
DAV:   1    -0.232634395700E+04    0.43125E-01   -0.49609E+00  4416   0.185E+00    0.680E-01
RMM:   2    -0.232638805456E+04   -0.44098E-01   -0.46062E-01  5886   0.332E-01    0.640E-01
RMM:   3    -0.232639272747E+04   -0.46729E-02   -0.55710E-02  5555   0.121E-01    0.720E-01
RMM:   4    -0.232638986148E+04    0.28660E-02   -0.56984E-03  5317   0.319E-02    0.207E-01
RMM:   5    -0.232638952072E+04    0.34077E-03   -0.20276E-03  5131   0.239E-02    0.973E-02
RMM:   6    -0.232638947314E+04    0.47583E-04   -0.48746E-04  4495   0.135E-02    0.395E-02
RMM:   7    -0.232638945609E+04    0.17048E-04   -0.79711E-05  3120   0.678E-03    0.165E-02
RMM:   8    -0.232638945375E+04    0.23364E-05   -0.18010E-05  2875   0.347E-03
  92 F= -.23469730E+04 E0= -.23469730E+04  d E =-.511478E-02  mag=     4.0000
       N       E                     dE             d eps       ncg     rms          rms(c)
DAV:   1    -0.232637966879E+04    0.97873E-02   -0.15612E+00  4416   0.100E+00    0.370E-01
RMM:   2    -0.232639299295E+04   -0.13324E-01   -0.14105E-01  5941   0.180E-01    0.301E-01
RMM:   3    -0.232639469340E+04   -0.17004E-02   -0.16201E-02  5443   0.673E-02    0.410E-01
RMM:   4    -0.232639376578E+04    0.92761E-03   -0.17916E-03  4677   0.177E-02    0.118E-01
RMM:   5    -0.232639365813E+04    0.10765E-03   -0.61963E-04  4305   0.136E-02    0.510E-02
RMM:   6    -0.232639364642E+04    0.11708E-04   -0.13224E-04  3358   0.878E-03    0.163E-02
RMM:   7    -0.232639364390E+04    0.25212E-05   -0.23421E-05  2908   0.502E-03
  93 F= -.23469770E+04 E0= -.23469770E+04  d E =-.398760E-02  mag=     4.0000
       N       E                     dE             d eps       ncg     rms          rms(c)
DAV:   1    -0.232635799619E+04    0.35650E-01   -0.42487E+00  4416   0.166E+00    0.612E-01
RMM:   2    -0.232639446121E+04   -0.36465E-01   -0.38490E-01  5907   0.299E-01    0.524E-01
RMM:   3    -0.232639897339E+04   -0.45122E-02   -0.46171E-02  5534   0.115E-01    0.672E-01
RMM:   4    -0.232639649436E+04    0.24790E-02   -0.48704E-03  5332   0.293E-02    0.195E-01
RMM:   5    -0.232639620439E+04    0.28998E-03   -0.17643E-03  5045   0.217E-02    0.920E-02
RMM:   6    -0.232639616062E+04    0.43770E-04   -0.43208E-04  4447   0.127E-02    0.330E-02
RMM:   7    -0.232639614709E+04    0.13526E-04   -0.66536E-05  3050   0.635E-03    0.141E-02
RMM:   8    -0.232639614619E+04    0.90402E-06   -0.15511E-05  2876   0.320E-03
  94 F= -.23469791E+04 E0= -.23469791E+04  d E =-.616993E-02  mag=     4.0000
       N       E                     dE             d eps       ncg     rms          rms(c)
DAV:   1    -0.232638565719E+04    0.10490E-01   -0.17208E+00  4416   0.105E+00    0.397E-01
RMM:   2    -0.232640028451E+04   -0.14627E-01   -0.15617E-01  5923   0.191E-01    0.293E-01
RMM:   3    -0.232640227053E+04   -0.19860E-02   -0.18151E-02  5468   0.732E-02    0.438E-01
RMM:   4    -0.232640120809E+04    0.10624E-02   -0.20250E-03  4812   0.190E-02    0.128E-01
RMM:   5    -0.232640107291E+04    0.13518E-03   -0.77785E-04  4437   0.150E-02    0.547E-02
RMM:   6    -0.232640105359E+04    0.19329E-04   -0.17077E-04  3864   0.983E-03    0.175E-02
RMM:   7    -0.232640104902E+04    0.45693E-05   -0.30499E-05  2930   0.540E-03
[...]
       N       E                     dE             d eps       ncg     rms          rms(c)
DAV:   1    -0.232648487845E+04    0.25946E-01   -0.14716E+00  4432   0.921E-01    0.381E-01
RMM:   2    -0.232651072245E+04   -0.25844E-01   -0.26926E-01  6181   0.196E-01    0.382E-01
RMM:   3    -0.232651310696E+04   -0.23845E-02   -0.30288E-02  5732   0.755E-02    0.312E-01
RMM:   4    -0.232651262256E+04    0.48441E-03   -0.29288E-03  3985   0.176E-02    0.139E-01
RMM:   5    -0.232651241360E+04    0.20895E-03   -0.53216E-04  3879   0.109E-02    0.722E-02
RMM:   6    -0.232651237968E+04    0.33929E-04   -0.25201E-04  3687   0.899E-03    0.305E-02
RMM:   7    -0.232651237749E+04    0.21814E-05   -0.34587E-05  2891   0.615E-03
 175 F= -.23471077E+04 E0= -.23471077E+04  d E =-.187613E-02  mag=     4.0000
       N       E                     dE             d eps       ncg     rms          rms(c)
DAV:   1    -0.232642030605E+04    0.92074E-01   -0.49456E+00  4416   0.169E+00    0.699E-01
RMM:   2    -0.232650760344E+04   -0.87297E-01   -0.90624E-01  6277   0.362E-01    0.738E-01
RMM:   3    -0.232651548818E+04   -0.78847E-02   -0.10670E-01  5927   0.137E-01    0.562E-01
RMM:   4    -0.232651389387E+04    0.15943E-02   -0.98324E-03  5417   0.318E-02    0.255E-01
RMM:   5    -0.232651319757E+04    0.69630E-03   -0.18682E-03  4818   0.188E-02    0.142E-01
RMM:   6    -0.232651303765E+04    0.15992E-03   -0.95731E-04  4552   0.143E-02    0.572E-02
RMM:   7    -0.232651302334E+04    0.14317E-04   -0.13464E-04  3126   0.994E-03    0.237E-02
RMM:   8    -0.232651302377E+04   -0.42902E-06   -0.28745E-05  2925   0.416E-03
 176 F= -.23471090E+04 E0= -.23471090E+04  d E =-.312453E-02  mag=     4.0000
       N       E                     dE             d eps       ncg     rms          rms(c)
DAV:   1    -0.232649596352E+04    0.17060E-01   -0.10945E+00  4480   0.842E-01    0.348E-01
RMM:   2    -0.232651437924E+04   -0.18416E-01   -0.19269E-01  6021   0.178E-01    0.324E-01
RMM:   3    -0.232651614729E+04   -0.17680E-02   -0.21904E-02  5684   0.717E-02    0.286E-01
RMM:   4    -0.232651569771E+04    0.44957E-03   -0.21063E-03  4494   0.168E-02    0.122E-01
RMM:   5    -0.232651553793E+04    0.15978E-03   -0.48262E-04  4207   0.117E-02    0.615E-02
RMM:   6    -0.232651551005E+04    0.27886E-04   -0.17812E-04  3948   0.914E-03    0.249E-02
RMM:   7    -0.232651550847E+04    0.15752E-05   -0.24756E-05  2886   0.607E-03
 177 F= -.23471117E+04 E0= -.23471117E+04  d E =-.271947E-02  mag=     4.0000
       N       E                     dE             d eps       ncg     rms          rms(c)
DAV:   1    -0.232649226052E+04    0.23250E-01   -0.13040E+00  4416   0.919E-01    0.379E-01
RMM:   2    -0.232651417170E+04   -0.21911E-01   -0.22947E-01  6012   0.194E-01    0.349E-01
RMM:   3    -0.232651629483E+04   -0.21231E-02   -0.26070E-02  5689   0.779E-02    0.310E-01
RMM:   4    -0.232651576766E+04    0.52717E-03   -0.25015E-03  4733   0.183E-02    0.134E-01
RMM:   5    -0.232651557391E+04    0.19375E-03   -0.57749E-04  4305   0.126E-02    0.678E-02
RMM:   6    -0.232651553696E+04    0.36958E-04   -0.21772E-04  4067   0.981E-03    0.270E-02
RMM:   7    -0.232651553392E+04    0.30341E-05   -0.30269E-05  2898   0.642E-03
 178 F= -.23471120E+04 E0= -.23471120E+04  d E =-.300604E-02  mag=     4.0000
       N       E                     dE             d eps       ncg     rms          rms(c)
DAV:   1    -0.232651273485E+04    0.28021E-02   -0.17741E-01  4512   0.339E-01    0.138E-01
RMM:   2    -0.232651568966E+04   -0.29548E-02   -0.30791E-02  6012   0.710E-02    0.123E-01
RMM:   3    -0.232651597261E+04   -0.28294E-03   -0.33524E-03  4146   0.308E-02    0.116E-01
RMM:   4    -0.232651589613E+04    0.76480E-04   -0.33160E-04  2968   0.763E-03    0.470E-02
RMM:   5    -0.232651586727E+04    0.28860E-04   -0.72885E-05  2988   0.544E-03    0.209E-02
RMM:   6    -0.232651586644E+04    0.82667E-06   -0.28913E-05  2929   0.493E-03
 179 F= -.23471122E+04 E0= -.23471122E+04  d E =-.324169E-02  mag=     4.0000
       N       E                     dE             d eps       ncg     rms          rms(c)
DAV:   1    -0.232650706505E+04    0.88022E-02   -0.55622E-01  4448   0.600E-01    0.249E-01
RMM:   2    -0.232651686585E+04   -0.98008E-02   -0.10222E-01  6169   0.128E-01    0.229E-01
RMM:   3    -0.232651780424E+04   -0.93840E-03   -0.11382E-02  5523   0.511E-02    0.205E-01
RMM:   4    -0.232651758285E+04    0.22140E-03   -0.11027E-03  3394   0.122E-02    0.871E-02
RMM:   5    -0.232651749577E+04    0.87073E-04   -0.24834E-04  3672   0.905E-03    0.443E-02
RMM:   6    -0.232651748037E+04    0.15406E-04   -0.93163E-05  3293   0.733E-03    0.191E-02
RMM:   7    -0.232651747888E+04    0.14875E-05   -0.15712E-05  2857   0.542E-03
 180 F= -.23471139E+04 E0= -.23471139E+04  d E =-.168955E-02  mag=     4.0000
       N       E                     dE             d eps       ncg     rms          rms(c)
DAV:   1    -0.232650643816E+04    0.11042E-01   -0.60749E-01  4432   0.626E-01    0.262E-01
RMM:   2    -0.232651715586E+04   -0.10718E-01   -0.11226E-01  6039   0.132E-01    0.236E-01
RMM:   3    -0.232651821414E+04   -0.10583E-02   -0.12573E-02  5517   0.552E-02    0.214E-01
RMM:   4    -0.232651797813E+04    0.23601E-03   -0.12299E-03  3525   0.128E-02    0.928E-02
RMM:   5    -0.232651788582E+04    0.92313E-04   -0.27011E-04  3696   0.942E-03    0.470E-02
RMM:   6    -0.232651786921E+04    0.16609E-04   -0.10190E-04  3428   0.757E-03    0.199E-02
RMM:   7    -0.232651786771E+04    0.15028E-05   -0.16592E-05  2854   0.557E-03
 181 F= -.23471144E+04 E0= -.23471144E+04  d E =-.215969E-02  mag=     4.0000
       N       E                     dE             d eps       ncg     rms          rms(c)
DAV:   1    -0.232650737829E+04    0.10491E-01   -0.64937E-01  4448   0.663E-01    0.261E-01
RMM:   2    -0.232651851633E+04   -0.11138E-01   -0.11650E-01  6029   0.137E-01    0.233E-01
RMM:   3    -0.232651961441E+04   -0.10981E-02   -0.12979E-02  5463   0.575E-02    0.212E-01
RMM:   4    -0.232651939775E+04    0.21666E-03   -0.12697E-03  3512   0.128E-02    0.929E-02
RMM:   5    -0.232651930485E+04    0.92902E-04   -0.25440E-04  3689   0.931E-03    0.484E-02
RMM:   6    -0.232651928890E+04    0.15943E-04   -0.10732E-04  3421   0.766E-03    0.203E-02
RMM:   7    -0.232651928797E+04    0.93851E-06   -0.15399E-05  2857   0.560E-03
 182 F= -.23471159E+04 E0= -.23471159E+04  d E =-.150798E-02  mag=     4.0000
       N       E                     dE             d eps       ncg     rms          rms(c)
DAV:   1    -0.232649706441E+04    0.22224E-01   -0.11957E+00  4416   0.900E-01    0.354E-01
RMM:   2    -0.232651763327E+04   -0.20569E-01   -0.21469E-01  6021   0.186E-01    0.327E-01
RMM:   3    -0.232651961158E+04   -0.19783E-02   -0.24177E-02  5651   0.763E-02    0.286E-01
RMM:   4    -0.232651921303E+04    0.39855E-03   -0.23348E-03  4607   0.172E-02    0.126E-01
RMM:   5    -0.232651904121E+04    0.17182E-03   -0.47517E-04  4224   0.118E-02    0.671E-02
RMM:   6    -0.232651900650E+04    0.34708E-04   -0.19723E-04  4025   0.936E-03    0.266E-02
RMM:   7    -0.232651900485E+04    0.16575E-05   -0.28319E-05  2876   0.635E-03
 183 F= -.23471157E+04 E0= -.23471157E+04  d E =-.134396E-02  mag=     4.0000
       N       E                     dE             d eps       ncg     rms          rms(c)
DAV:   1    -0.232651356835E+04    0.54381E-02   -0.32400E-01  4448   0.468E-01    0.180E-01
RMM:   2    -0.232651905724E+04   -0.54889E-02   -0.57444E-02  5933   0.950E-02    0.143E-01
RMM:   3    -0.232651962560E+04   -0.56836E-03   -0.62218E-03  4758   0.422E-02    0.150E-01
RMM:   4    -0.232651951372E+04    0.11188E-03   -0.61163E-04  3062   0.931E-03    0.639E-02
RMM:   5    -0.232651946282E+04    0.50901E-04   -0.11726E-04  3118   0.677E-03    0.292E-02
RMM:   6    -0.232651945878E+04    0.40356E-05   -0.52151E-05  3009   0.624E-03
 184 F= -.23471161E+04 E0= -.23471161E+04  d E =-.173593E-02  mag=     4.0000
       N       E                     dE             d eps       ncg     rms          rms(c)
DAV:   1    -0.232650630326E+04    0.13160E-01   -0.83777E-01  4416   0.770E-01    0.286E-01
RMM:   2    -0.232651999412E+04   -0.13691E-01   -0.14269E-01  6138   0.156E-01    0.260E-01
RMM:   3    -0.232652126622E+04   -0.12721E-02   -0.15515E-02  5595   0.614E-02    0.233E-01
RMM:   4    -0.232652099978E+04    0.26644E-03   -0.15334E-03  4045   0.142E-02    0.102E-01
RMM:   5    -0.232652087701E+04    0.12277E-03   -0.31669E-04  4041   0.103E-02    0.538E-02
RMM:   6    -0.232652085262E+04    0.24396E-04   -0.13838E-04  3782   0.843E-03    0.232E-02
RMM:   7    -0.232652084997E+04    0.26515E-05   -0.18844E-05  2870   0.572E-03
 185 F= -.23471176E+04 E0= -.23471176E+04  d E =-.154893E-02  mag=     4.0000
       N       E                     dE             d eps       ncg     rms          rms(c)
DAV:   1    -0.232651742474E+04    0.34279E-02   -0.19903E-01  4480   0.375E-01    0.141E-01
RMM:   2    -0.232652066676E+04   -0.32420E-02   -0.34109E-02  6020   0.754E-02    0.117E-01
RMM:   3    -0.232652099781E+04   -0.33105E-03   -0.37393E-03  4171   0.325E-02    0.113E-01
RMM:   4    -0.232652093998E+04    0.57828E-04   -0.37498E-04  2956   0.790E-03    0.509E-02
RMM:   5    -0.232652091176E+04    0.28221E-04   -0.72293E-05  2974   0.570E-03    0.258E-02
RMM:   6    -0.232652090762E+04    0.41415E-05   -0.35146E-05  2952   0.529E-03
 186 F= -.23471178E+04 E0= -.23471178E+04  d E =-.168305E-02  mag=     4.0000
       N       E                     dE             d eps       ncg     rms          rms(c)
DAV:   1    -0.232650512617E+04    0.15786E-01   -0.10378E+00  4416   0.884E-01    0.311E-01
RMM:   2    -0.232652128933E+04   -0.16163E-01   -0.16930E-01  5820   0.170E-01    0.277E-01
RMM:   3    -0.232652284389E+04   -0.15546E-02   -0.18555E-02  5299   0.736E-02    0.251E-01
RMM:   4    -0.232652255092E+04    0.29297E-03   -0.18460E-03  4482   0.156E-02    0.112E-01
RMM:   5    -0.232652241609E+04    0.13483E-03   -0.35165E-04  4084   0.108E-02    0.580E-02
RMM:   6    -0.232652239055E+04    0.25534E-04   -0.15747E-04  3997   0.889E-03    0.243E-02
RMM:   7    -0.232652238845E+04    0.21043E-05   -0.19082E-05  2872   0.595E-03
 187 F= -.23471193E+04 E0= -.23471193E+04  d E =-.155018E-02  mag=     4.0000
       N       E                     dE             d eps       ncg     rms          rms(c)
DAV:   1    -0.232652008541E+04    0.23051E-02   -0.14218E-01  4584   0.327E-01    0.115E-01
RMM:   2    -0.232652229608E+04   -0.22107E-02   -0.23285E-02  5870   0.634E-02    0.933E-02
RMM:   3    -0.232652251930E+04   -0.22321E-03   -0.24790E-03  3920   0.282E-02    0.922E-02
RMM:   4    -0.232652248235E+04    0.36942E-04   -0.25837E-04  2915   0.669E-03    0.418E-02
RMM:   5    -0.232652246342E+04    0.18934E-04   -0.44814E-05  2911   0.464E-03    0.206E-02
RMM:   6    -0.232652246129E+04    0.21346E-05   -0.24046E-05  2907   0.438E-03
 188 F= -.23471194E+04 E0= -.23471194E+04  d E =-.164788E-02  mag=     4.0000
       N       E                     dE             d eps       ncg     rms          rms(c)
DAV:   1    -0.232651056883E+04    0.11895E-01   -0.83678E-01  4416   0.816E-01    0.281E-01
RMM:   2    -0.232652310030E+04   -0.12531E-01   -0.13107E-01  5695   0.155E-01    0.246E-01
RMM:   3    -0.232652425546E+04   -0.11552E-02   -0.13822E-02  5144   0.709E-02    0.232E-01
RMM:   4    -0.232652399237E+04    0.26308E-03   -0.14453E-03  4442   0.146E-02    0.981E-02
RMM:   5    -0.232652388419E+04    0.10818E-03   -0.27091E-04  4048   0.104E-02    0.492E-02
RMM:   6    -0.232652386685E+04    0.17342E-04   -0.12394E-04  3897   0.836E-03    0.230E-02
RMM:   7    -0.232652386348E+04    0.33697E-05   -0.14987E-05  2853   0.578E-03
 189 F= -.23471208E+04 E0= -.23471208E+04  d E =-.135051E-02  mag=     4.0000
       N       E                     dE             d eps       ncg     rms          rms(c)
DAV:   1    -0.232652238128E+04    0.14856E-02   -0.94192E-02  4592   0.274E-01    0.941E-02
RMM:   2    -0.232652379248E+04   -0.14112E-02   -0.14825E-02  5799   0.526E-02    0.760E-02
RMM:   3    -0.232652392828E+04   -0.13580E-03   -0.15199E-03  3670   0.239E-02    0.780E-02
RMM:   4    -0.232652389963E+04    0.28646E-04   -0.16595E-04  2904   0.588E-03    0.330E-02
RMM:   5    -0.232652388691E+04    0.12720E-04   -0.29767E-05  2886   0.410E-03    0.160E-02
RMM:   6    -0.232652388545E+04    0.14597E-05   -0.15562E-05  2875   0.385E-03
 190 F= -.23471208E+04 E0= -.23471208E+04  d E =-.135428E-02  mag=     4.0000
       N       E                     dE             d eps       ncg     rms          rms(c)
DAV:   1    -0.232651316009E+04    0.10727E-01   -0.75282E-01  4432   0.770E-01    0.258E-01
RMM:   2    -0.232652441032E+04   -0.11250E-01   -0.11707E-01  5751   0.144E-01    0.238E-01
RMM:   3    -0.232652539340E+04   -0.98308E-03   -0.12137E-02  5128   0.649E-02    0.217E-01
RMM:   4    -0.232652516591E+04    0.22749E-03   -0.12764E-03  4004   0.133E-02    0.880E-02
RMM:   5    -0.232652507495E+04    0.90962E-04   -0.21666E-04  3752   0.931E-03    0.440E-02
RMM:   6    -0.232652506430E+04    0.10652E-04   -0.10740E-04  3671   0.795E-03    0.236E-02
RMM:   7    -0.232652506114E+04    0.31613E-05   -0.13880E-05  2851   0.552E-03
 191 F= -.23471219E+04 E0= -.23471219E+04  d E =-.107136E-02  mag=     4.0000
       N       E                     dE             d eps       ncg     rms          rms(c)
DAV:   1    -0.232652205743E+04    0.30069E-02   -0.19981E-01  4496   0.397E-01    0.133E-01
RMM:   2    -0.232652504279E+04   -0.29854E-02   -0.31147E-02  5899   0.749E-02    0.116E-01
RMM:   3    -0.232652531609E+04   -0.27330E-03   -0.31829E-03  4167   0.332E-02    0.113E-01
RMM:   4    -0.232652525543E+04    0.60658E-04   -0.34329E-04  2973   0.772E-03    0.454E-02
RMM:   5    -0.232652523102E+04    0.24412E-04   -0.56534E-05  2946   0.531E-03    0.225E-02
RMM:   6    -0.232652522887E+04    0.21554E-05   -0.30281E-05  2914   0.503E-03
 192 F= -.23471220E+04 E0= -.23471220E+04  d E =-.118387E-02  mag=     4.0000
       N       E                     dE             d eps       ncg     rms          rms(c)
DAV:   1    -0.232651777278E+04    0.74582E-02   -0.59036E-01  4416   0.704E-01    0.240E-01
RMM:   2    -0.232652603372E+04   -0.82609E-02   -0.86484E-02  5607   0.131E-01    0.209E-01
RMM:   3    -0.232652678308E+04   -0.74936E-03   -0.90864E-03  5001   0.613E-02    0.209E-01
RMM:   4    -0.232652654768E+04    0.23540E-03   -0.97737E-04  4178   0.128E-02    0.769E-02
RMM:   5    -0.232652647492E+04    0.72760E-04   -0.20273E-04  3921   0.961E-03    0.368E-02
RMM:   6    -0.232652646678E+04    0.81350E-05   -0.73705E-05  3558   0.753E-03
 193 F= -.23471231E+04 E0= -.23471231E+04  d E =-.110391E-02  mag=     4.0000
       N       E                     dE             d eps       ncg     rms          rms(c)
DAV:   1    -0.232652547420E+04    0.10007E-02   -0.66226E-02  4720   0.236E-01    0.817E-02
RMM:   2    -0.232652641217E+04   -0.93798E-03   -0.99105E-03  6169   0.473E-02    0.666E-02
RMM:   3    -0.232652650636E+04   -0.94185E-04   -0.10276E-03  3378   0.185E-02    0.755E-02
RMM:   4    -0.232652647571E+04    0.30648E-04   -0.11257E-04  2901   0.555E-03    0.263E-02
RMM:   5    -0.232652646762E+04    0.80912E-05   -0.24598E-05  2885   0.377E-03
 194 F= -.23471230E+04 E0= -.23471230E+04  d E =-.105917E-02  mag=     4.0000
       N       E                     dE             d eps       ncg     rms          rms(c)
DAV:   1    -0.232652621460E+04    0.26111E-03   -0.19156E-02  4544   0.127E-01    0.420E-02
RMM:   2    -0.232652648158E+04   -0.26697E-03   -0.27560E-03  5895   0.252E-02    0.384E-02
RMM:   3    -0.232652650448E+04   -0.22903E-04   -0.27525E-04  2919   0.105E-02    0.397E-02
RMM:   4    -0.232652649490E+04    0.95829E-05   -0.29409E-05  2857   0.322E-03
 195 F= -.23471231E+04 E0= -.23471231E+04  d E =-.111065E-02  mag=     4.0000
       N       E                     dE             d eps       ncg     rms          rms(c)
DAV:   1    -0.232652059479E+04    0.59097E-02   -0.45420E-01  4448   0.618E-01    0.214E-01
RMM:   2    -0.232652724013E+04   -0.66453E-02   -0.69215E-02  5870   0.117E-01    0.187E-01
RMM:   3    -0.232652782288E+04   -0.58274E-03   -0.70124E-03  5139   0.457E-02    0.186E-01
RMM:   4    -0.232652763774E+04    0.18513E-03   -0.76858E-04  3507   0.109E-02    0.645E-02
RMM:   5    -0.232652758587E+04    0.51876E-04   -0.13050E-04  3352   0.803E-03    0.333E-02
RMM:   6    -0.232652757966E+04    0.62081E-05   -0.60973E-05  3322   0.709E-03
 196 F= -.23471239E+04 E0= -.23471239E+04  d E =-.860740E-03  mag=     4.0000
       N       E                     dE             d eps       ncg     rms          rms(c)
DAV:   1    -0.232652640626E+04    0.11796E-02   -0.83196E-02  4544   0.265E-01    0.929E-02
RMM:   2    -0.232652763273E+04   -0.12265E-02   -0.12875E-02  6126   0.521E-02    0.782E-02
RMM:   3    -0.232652775681E+04   -0.12409E-03   -0.13675E-03  3539   0.214E-02    0.861E-02
RMM:   4    -0.232652771758E+04    0.39238E-04   -0.14800E-04  2907   0.603E-03    0.287E-02
RMM:   5    -0.232652770827E+04    0.93062E-05   -0.26724E-05  2889   0.400E-03
 197 F= -.23471240E+04 E0= -.23471240E+04  d E =-.892473E-03  mag=     4.0000
       N       E                     dE             d eps       ncg     rms          rms(c)
DAV:   1    -0.232652139633E+04    0.63212E-02   -0.47471E-01  4416   0.633E-01    0.207E-01
RMM:   2    -0.232652844884E+04   -0.70525E-02   -0.73381E-02  5960   0.120E-01    0.189E-01
RMM:   3    -0.232652903584E+04   -0.58701E-03   -0.73038E-03  5202   0.457E-02    0.178E-01
RMM:   4    -0.232652888022E+04    0.15562E-03   -0.80012E-04  3351   0.109E-02    0.685E-02
RMM:   5    -0.232652882429E+04    0.55933E-04   -0.13462E-04  3406   0.807E-03    0.360E-02
RMM:   6    -0.232652881769E+04    0.65942E-05   -0.68046E-05  3302   0.724E-03
 198 F= -.23471248E+04 E0= -.23471248E+04  d E =-.849530E-03  mag=     4.0000
       N       E                     dE             d eps       ncg     rms          rms(c)
DAV:   1    -0.232652824171E+04    0.58258E-03   -0.42128E-02  4768   0.188E-01    0.637E-02
RMM:   2    -0.232652887490E+04   -0.63320E-03   -0.66435E-03  6183   0.382E-02    0.586E-02
RMM:   3    -0.232652893673E+04   -0.61832E-04   -0.70493E-04  3054   0.148E-02    0.605E-02
RMM:   4    -0.232652891840E+04    0.18339E-04   -0.76009E-05  2892   0.466E-03    0.204E-02
RMM:   5    -0.232652891393E+04    0.44707E-05   -0.13402E-05  2864   0.287E-03
 199 F= -.23471248E+04 E0= -.23471248E+04  d E =-.867868E-03  mag=     4.0000
       N       E                     dE             d eps       ncg     rms          rms(c)
DAV:   1    -0.232652298099E+04    0.59374E-02   -0.47874E-01  4416   0.653E-01    0.218E-01
RMM:   2    -0.232652969844E+04   -0.67175E-02   -0.69887E-02  5874   0.123E-01    0.194E-01
RMM:   3    -0.232653024192E+04   -0.54348E-03   -0.68546E-03  5229   0.469E-02    0.191E-01
RMM:   4    -0.232653004061E+04    0.20131E-03   -0.77552E-04  3873   0.115E-02    0.666E-02
RMM:   5    -0.232652998497E+04    0.55638E-04   -0.14886E-04  3706   0.872E-03    0.333E-02
RMM:   6    -0.232652997926E+04    0.57130E-05   -0.60192E-05  3373   0.716E-03
 200 F= -.23471257E+04 E0= -.23471257E+04  d E =-.821255E-03  mag=     4.0000
       N       E                     dE             d eps       ncg     rms          rms(c)
DAV:   1    -0.232652941467E+04    0.57030E-03   -0.41364E-02  4752   0.192E-01    0.658E-02
RMM:   2    -0.232653000472E+04   -0.59005E-03   -0.61810E-03  6152   0.387E-02    0.589E-02
RMM:   3    -0.232653005961E+04   -0.54891E-04   -0.63250E-04  3120   0.151E-02    0.634E-02
RMM:   4    -0.232653003700E+04    0.22613E-04   -0.69468E-05  2892   0.478E-03    0.196E-02
RMM:   5    -0.232653003240E+04    0.45957E-05   -0.15364E-05  2869   0.310E-03
 201 F= -.23471256E+04 E0= -.23471256E+04  d E =-.801988E-03  mag=     4.0000
