       N       E                     dE             d eps       ncg     rms          rms(c)
DAV:   1     0.120935113218E+05    0.12094E+05   -0.84426E+05  5000   0.134E+03
DAV:   2    -0.133787701066E+04   -0.13431E+05   -0.12793E+05  5300   0.307E+02
DAV:   3    -0.250919247900E+04   -0.11713E+04   -0.11595E+04  6000   0.974E+01
DAV:   4    -0.253460328568E+04   -0.25411E+02   -0.25262E+02  6000   0.176E+01
DAV:   5    -0.253535767724E+04   -0.75439E+00   -0.75284E+00  6300   0.262E+00    0.171E+02
RMM:   6    -0.150195900396E+04    0.10334E+04   -0.18164E+03  4830   0.347E+01    0.722E+01
RMM:   7    -0.165918649666E+04   -0.15723E+03   -0.24776E+02  5483   0.127E+01    0.524E+01
RMM:   8    -0.172202138701E+04   -0.62835E+02   -0.66774E+01  5462   0.725E+00    0.473E+01
RMM:   9    -0.177307386657E+04   -0.51052E+02   -0.58535E+01  5371   0.660E+00    0.342E+01
RMM:  10    -0.193521869833E+04   -0.16214E+03   -0.73974E+01  5560   0.773E+00    0.257E+01
RMM:  11    -0.199695179474E+04   -0.61733E+02   -0.23487E+01  5427   0.409E+00    0.237E+01
RMM:  12    -0.206956853382E+04   -0.72617E+02   -0.26681E+01  5322   0.390E+00    0.167E+01
RMM:  13    -0.213750746459E+04   -0.67939E+02   -0.28240E+01  5455   0.393E+00    0.156E+01
RMM:  14    -0.222965034386E+04   -0.92143E+02   -0.61161E+01  4901   0.543E+00    0.102E+01
RMM:  15    -0.229933751664E+04   -0.69687E+02   -0.58079E+01  4945   0.513E+00    0.568E+00
RMM:  16    -0.232223735754E+04   -0.22900E+02   -0.23079E+01  4961   0.350E+00    0.344E+00
RMM:  17    -0.232622515116E+04   -0.39878E+01   -0.46398E+00  5629   0.153E+00    0.376E+00
RMM:  18    -0.232683423094E+04   -0.60908E+00   -0.55218E-01  5819   0.480E-01    0.311E+00
RMM:  19    -0.232904350508E+04   -0.22093E+01   -0.97409E-01  4826   0.586E-01    0.161E+00
RMM:  20    -0.232976699987E+04   -0.72349E+00   -0.52085E-01  4837   0.435E-01    0.102E+00
RMM:  21    -0.233006298007E+04   -0.29598E+00   -0.33529E-01  4934   0.258E-01    0.662E-01
RMM:  22    -0.233017634273E+04   -0.11336E+00   -0.97389E-02  5038   0.198E-01    0.336E-01
RMM:  23    -0.233023429198E+04   -0.57949E-01   -0.38741E-02  5000   0.111E-01    0.191E-01
RMM:  24    -0.233025987778E+04   -0.25586E-01   -0.10200E-02  4955   0.656E-02    0.122E-01
RMM:  25    -0.233027833666E+04   -0.18459E-01   -0.51777E-03  4856   0.469E-02    0.835E-02
RMM:  26    -0.233028892921E+04   -0.10593E-01   -0.23416E-03  4904   0.359E-02    0.512E-02
RMM:  27    -0.233029539284E+04   -0.64636E-02   -0.16195E-03  4866   0.267E-02    0.364E-02
RMM:  28    -0.233029826154E+04   -0.28687E-02   -0.80595E-04  4575   0.214E-02    0.186E-02
RMM:  29    -0.233029909138E+04   -0.82984E-03   -0.30434E-04  4460   0.126E-02    0.104E-02
RMM:  30    -0.233029933158E+04   -0.24020E-03   -0.76703E-05  4076   0.785E-03    0.658E-03
RMM:  31    -0.233029944448E+04   -0.11290E-03   -0.25192E-05  3561   0.431E-03    0.417E-03
RMM:  32    -0.233029950290E+04   -0.58426E-04   -0.11769E-05  3272   0.333E-03    0.208E-03
RMM:  33    -0.233029952088E+04   -0.17977E-04   -0.45947E-06  3157   0.239E-03    0.188E-03
RMM:  34    -0.233029953172E+04   -0.10841E-04   -0.30332E-06  2828   0.178E-03    0.933E-04
RMM:  35    -0.233029953588E+04   -0.41539E-05   -0.17771E-06  2741   0.153E-03
   1 F= -.23518094E+04 E0= -.23518094E+04  d E =-.264893E-06  mag=     3.9999
       N       E                     dE             d eps       ncg     rms          rms(c)
DAV:   1    -0.233026567333E+04    0.33858E-01   -0.20633E+00  4800   0.706E-01    0.316E-01
RMM:   2    -0.233026517603E+04    0.49730E-03   -0.77916E-03  4307   0.360E-02    0.202E-01
RMM:   3    -0.233026591079E+04   -0.73476E-03   -0.26983E-03  5584   0.240E-02    0.361E-01
RMM:   4    -0.233026479697E+04    0.11138E-02   -0.14487E-03  5117   0.150E-02    0.133E-01
RMM:   5    -0.233026476164E+04    0.35330E-04   -0.45399E-04  3964   0.940E-03    0.110E-01
RMM:   6    -0.233026462271E+04    0.13893E-03   -0.10491E-04  3271   0.525E-03    0.208E-02
RMM:   7    -0.233026461928E+04    0.34317E-05   -0.16131E-05  3086   0.267E-03
   2 F= -.23517749E+04 E0= -.23517749E+04  d E =-.334069E-06  mag=     4.0000
       N       E                     dE             d eps       ncg     rms          rms(c)
DAV:   1    -0.233030687260E+04   -0.42250E-01   -0.81442E+00  4800   0.141E+00    0.607E-01
RMM:   2    -0.233030459815E+04    0.22744E-02   -0.23795E-02  4490   0.694E-02    0.399E-01
RMM:   3    -0.233030757788E+04   -0.29797E-02   -0.93668E-03  6267   0.447E-02    0.723E-01
RMM:   4    -0.233030300949E+04    0.45684E-02   -0.57016E-03  5868   0.287E-02    0.263E-01
RMM:   5    -0.233030285084E+04    0.15865E-03   -0.18319E-03  4967   0.178E-02    0.211E-01
RMM:   6    -0.233030232980E+04    0.52104E-03   -0.39632E-04  3923   0.893E-03    0.417E-02
RMM:   7    -0.233030232726E+04    0.25444E-05   -0.88484E-05  3547   0.500E-03
   3 F= -.23518118E+04 E0= -.23518118E+04  d E =-.215894E-06  mag=     4.0000
       N       E                     dE             d eps       ncg     rms          rms(c)
DAV:   1    -0.233024458658E+04    0.57743E-01   -0.41084E+00  4800   0.102E+00    0.388E-01
RMM:   2    -0.233024425666E+04    0.32992E-03   -0.11641E-02  4365   0.485E-02    0.342E-01
RMM:   3    -0.233024516188E+04   -0.90522E-03   -0.37764E-03  5501   0.256E-02    0.483E-01
RMM:   4    -0.233024296222E+04    0.21997E-02   -0.25084E-03  5078   0.197E-02    0.115E-01
RMM:   5    -0.233024293934E+04    0.22884E-04   -0.52011E-04  3916   0.118E-02    0.961E-02
RMM:   6    -0.233024283781E+04    0.10153E-03   -0.93261E-05  3363   0.517E-03    0.181E-02
RMM:   7    -0.233024283308E+04    0.47348E-05   -0.19109E-05  3171   0.262E-03
   4 F= -.23517523E+04 E0= -.23517523E+04  d E =-.270039E-06  mag=     4.0000
       N       E                     dE             d eps       ncg     rms          rms(c)
DAV:   1    -0.233033697309E+04   -0.94135E-01   -0.79193E+00  4800   0.137E+00    0.552E-01
RMM:   2    -0.233033743570E+04   -0.46261E-03   -0.25036E-02  4610   0.734E-02    0.573E-01
RMM:   3    -0.233033638703E+04    0.10487E-02   -0.68995E-03  5779   0.384E-02    0.520E-01
RMM:   4    -0.233033513083E+04    0.12562E-02   -0.48608E-03  5725   0.292E-02    0.391E-01
RMM:   5    -0.233033368182E+04    0.14490E-02   -0.20824E-03  5467   0.202E-02    0.148E-01
RMM:   6    -0.233033344283E+04    0.23899E-03   -0.30563E-04  4076   0.832E-03    0.426E-02
RMM:   7    -0.233033345140E+04   -0.85673E-05   -0.89465E-05  3489   0.532E-03
   5 F= -.23518437E+04 E0= -.23518437E+04  d E =-.249759E-06  mag=     4.0000
       N       E                     dE             d eps       ncg     rms          rms(c)
DAV:   1    -0.233030193375E+04    0.31509E-01   -0.41209E+00  4800   0.998E-01    0.369E-01
RMM:   2    -0.233030278285E+04   -0.84910E-03   -0.13779E-02  4417   0.538E-02    0.425E-01
RMM:   3    -0.233030178735E+04    0.99550E-03   -0.29771E-03  5250   0.261E-02    0.329E-01
RMM:   4    -0.233030129359E+04    0.49376E-03   -0.25625E-03  5427   0.210E-02    0.246E-01
RMM:   5    -0.233030071738E+04    0.57622E-03   -0.98005E-04  4939   0.137E-02    0.981E-02
RMM:   6    -0.233030062058E+04    0.96795E-04   -0.14603E-04  3595   0.623E-03    0.317E-02
RMM:   7    -0.233030062778E+04   -0.72022E-05   -0.53426E-05  3362   0.439E-03
   6 F= -.23518108E+04 E0= -.23518108E+04  d E =-.166927E-06  mag=     4.0000
       N       E                     dE             d eps       ncg     rms          rms(c)
DAV:   1    -0.233028951153E+04    0.11109E-01   -0.79192E+00  4800   0.124E+00    0.527E-01
RMM:   2    -0.233028955109E+04   -0.39560E-04   -0.25870E-02  4471   0.664E-02    0.402E-01
RMM:   3    -0.233029260056E+04   -0.30495E-02   -0.72323E-03  5199   0.387E-02    0.698E-01
RMM:   4    -0.233028785537E+04    0.47452E-02   -0.46497E-03  5362   0.270E-02    0.162E-01
RMM:   5    -0.233028803246E+04   -0.17709E-03   -0.11247E-03  4654   0.163E-02    0.171E-01
RMM:   6    -0.233028769101E+04    0.34145E-03   -0.28705E-04  3754   0.852E-03    0.404E-02
RMM:   7    -0.233028771431E+04   -0.23306E-04   -0.94716E-05  3469   0.532E-03    0.476E-02
RMM:   8    -0.233028768992E+04    0.24391E-04   -0.42482E-05  3259   0.399E-03    0.151E-02
RMM:   9    -0.233028768981E+04    0.11592E-06   -0.67289E-06  3043   0.220E-03
   7 F= -.23517972E+04 E0= -.23517972E+04  d E =-.450451E-06  mag=     4.0000
       N       E                     dE             d eps       ncg     rms          rms(c)
DAV:   1    -0.233028928647E+04   -0.15965E-02   -0.40225E+00  4800   0.965E-01    0.408E-01
RMM:   2    -0.233028911965E+04    0.16682E-03   -0.15418E-02  4325   0.555E-02    0.228E-01
RMM:   3    -0.233028976176E+04   -0.64211E-03   -0.32049E-03  4884   0.308E-02    0.371E-01
RMM:   4    -0.233028865670E+04    0.11051E-02   -0.20854E-03  5120   0.171E-02    0.181E-01
RMM:   5    -0.233028860033E+04    0.56363E-04   -0.60163E-04  4355   0.119E-02    0.117E-01
RMM:   6    -0.233028842553E+04    0.17480E-03   -0.19042E-04  3779   0.748E-03    0.311E-02
RMM:   7    -0.233028842127E+04    0.42662E-05   -0.28564E-05  3173   0.359E-03
   8 F= -.23517975E+04 E0= -.23517975E+04  d E =-.497108E-06  mag=     4.0000
       N       E                     dE             d eps       ncg     rms          rms(c)
DAV:   1    -0.233028855995E+04   -0.13442E-03   -0.81408E+00  4800   0.133E+00    0.637E-01
RMM:   2    -0.233028894426E+04   -0.38431E-03   -0.32422E-02  4536   0.780E-02    0.382E-01
RMM:   3    -0.233029132027E+04   -0.23760E-02   -0.77544E-03  6040   0.442E-02    0.628E-01
RMM:   4    -0.233028772675E+04    0.35935E-02   -0.47566E-03  5841   0.284E-02    0.301E-01
RMM:   5    -0.233028765330E+04    0.73454E-04   -0.19397E-03  4943   0.180E-02    0.218E-01
RMM:   6    -0.233028712685E+04    0.52645E-03   -0.54525E-04  4498   0.117E-02    0.399E-02
RMM:   7    -0.233028712771E+04   -0.85996E-06   -0.71692E-05  3273   0.449E-03
   9 F= -.23517978E+04 E0= -.23517978E+04  d E =-.157499E-06  mag=     4.0000
       N       E                     dE             d eps       ncg     rms          rms(c)
DAV:   1    -0.233029059263E+04   -0.34658E-02   -0.40944E+00  4800   0.969E-01    0.461E-01
RMM:   2    -0.233029029008E+04    0.30255E-03   -0.15098E-02  4511   0.540E-02    0.332E-01
RMM:   3    -0.233029146426E+04   -0.11742E-02   -0.48794E-03  6003   0.316E-02    0.477E-01
RMM:   4    -0.233028951344E+04    0.19508E-02   -0.29749E-03  5452   0.225E-02    0.275E-01
RMM:   5    -0.233028911055E+04    0.40289E-03   -0.12530E-03  4704   0.144E-02    0.155E-01
RMM:   6    -0.233028886954E+04    0.24101E-03   -0.29701E-04  4044   0.897E-03    0.291E-02
RMM:   7    -0.233028887267E+04   -0.31257E-05   -0.49764E-05  3184   0.398E-03
  10 F= -.23517993E+04 E0= -.23517993E+04  d E =-.191895E-06  mag=     4.0000
       N       E                     dE             d eps       ncg     rms          rms(c)
DAV:   1    -0.233029641356E+04   -0.75440E-02   -0.77359E+00  4800   0.123E+00    0.616E-01
RMM:   2    -0.233029832842E+04   -0.19149E-02   -0.26934E-02  4653   0.739E-02    0.425E-01
RMM:   3    -0.233030090962E+04   -0.25812E-02   -0.80185E-03  6140   0.413E-02    0.601E-01
RMM:   4    -0.233029745272E+04    0.34569E-02   -0.45192E-03  5730   0.287E-02    0.338E-01
RMM:   5    -0.233029714551E+04    0.30722E-03   -0.20106E-03  5031   0.179E-02    0.239E-01
RMM:   6    -0.233029670201E+04    0.44350E-03   -0.53977E-04  4278   0.122E-02    0.454E-02
RMM:   7    -0.233029673317E+04   -0.31162E-04   -0.12128E-04  3417   0.595E-03    0.566E-02
RMM:   8    -0.233029669382E+04    0.39346E-04   -0.51542E-05  3270   0.429E-03    0.165E-02
RMM:   9    -0.233029669479E+04   -0.96664E-06   -0.11013E-05  3151   0.236E-03
  11 F= -.23518060E+04 E0= -.23518060E+04  d E =-.408622E-06  mag=     4.0000
       N       E                     dE             d eps       ncg     rms          rms(c)
DAV:   1    -0.233023854550E+04    0.58148E-01   -0.42146E+00  4800   0.970E-01    0.478E-01
RMM:   2    -0.233023987952E+04   -0.13340E-02   -0.19888E-02  4732   0.631E-02    0.484E-01
RMM:   3    -0.233024001576E+04   -0.13624E-03   -0.55210E-03  5830   0.342E-02    0.519E-01
RMM:   4    -0.233023750182E+04    0.25139E-02   -0.27293E-03  5255   0.227E-02    0.191E-01
RMM:   5    -0.233023754464E+04   -0.42814E-04   -0.15226E-03  5304   0.163E-02    0.177E-01
RMM:   6    -0.233023714592E+04    0.39871E-03   -0.36312E-04  4060   0.963E-03    0.286E-02
RMM:   7    -0.233023715418E+04   -0.82517E-05   -0.49757E-05  3254   0.395E-03
  12 F= -.23517472E+04 E0= -.23517472E+04  d E =-.191009E-06  mag=     4.0000
       N       E                     dE             d eps       ncg     rms          rms(c)
DAV:   1    -0.233033514940E+04   -0.98003E-01   -0.82759E+00  4800   0.126E+00    0.788E-01
RMM:   2    -0.233033715907E+04   -0.20097E-02   -0.56262E-02  5007   0.107E-01    0.761E-01
RMM:   3    -0.233033878037E+04   -0.16213E-02   -0.15737E-02  5931   0.580E-02    0.908E-01
RMM:   4    -0.233033138565E+04    0.73947E-02   -0.63704E-03  5873   0.338E-02    0.299E-01
RMM:   5    -0.233033216009E+04   -0.77445E-03   -0.39115E-03  5507   0.256E-02    0.349E-01
RMM:   6    -0.233033050592E+04    0.16542E-02   -0.13005E-03  4921   0.172E-02    0.613E-02
RMM:   7    -0.233033056967E+04   -0.63752E-04   -0.21351E-04  3851   0.707E-03    0.636E-02
RMM:   8    -0.233033054922E+04    0.20447E-04   -0.92028E-05  3342   0.524E-03    0.305E-02
RMM:   9    -0.233033057244E+04   -0.23221E-04   -0.27758E-05  3401   0.360E-03    0.827E-03
RMM:  10    -0.233033059432E+04   -0.21882E-04   -0.53368E-06  3052   0.237E-03    0.439E-03
RMM:  11    -0.233033060973E+04   -0.15401E-04   -0.26220E-06  2888   0.155E-03    0.273E-03
RMM:  12    -0.233033061892E+04   -0.91967E-05   -0.15439E-06  2871   0.140E-03
  13 F= -.23518404E+04 E0= -.23518404E+04  d E =-.341358E-06  mag=     4.0000
       N       E                     dE             d eps       ncg     rms          rms(c)
DAV:   1    -0.233030990431E+04    0.20705E-01   -0.21658E+00  5000   0.699E-01    0.349E-01
RMM:   2    -0.233031154494E+04   -0.16406E-02   -0.11778E-02  4545   0.511E-02    0.322E-01
RMM:   3    -0.233031202692E+04   -0.48198E-03   -0.27684E-03  5229   0.253E-02    0.391E-01
RMM:   4    -0.233031070321E+04    0.13237E-02   -0.15187E-03  4822   0.174E-02    0.144E-01
RMM:   5    -0.233031074543E+04   -0.42225E-04   -0.84158E-04  4705   0.133E-02    0.126E-01
RMM:   6    -0.233031051747E+04    0.22796E-03   -0.20014E-04  3736   0.780E-03    0.264E-02
RMM:   7    -0.233031052655E+04   -0.90813E-05   -0.38123E-05  3301   0.391E-03
  14 F= -.23518198E+04 E0= -.23518198E+04  d E =-.247245E-06  mag=     4.0000
       N       E                     dE             d eps       ncg     rms          rms(c)
DAV:   1    -0.233028359202E+04    0.26925E-01   -0.11839E+00  5100   0.500E-01    0.417E-01
RMM:   2    -0.233028265104E+04    0.94098E-03   -0.11357E-02  4748   0.429E-02    0.310E-01
RMM:   3    -0.233028266111E+04   -0.10069E-04   -0.27254E-03  5045   0.241E-02    0.346E-01
RMM:   4    -0.233028207375E+04    0.58736E-03   -0.15476E-03  4855   0.147E-02    0.226E-01
RMM:   5    -0.233028215384E+04   -0.80094E-04   -0.86178E-04  4571   0.132E-02    0.194E-01
RMM:   6    -0.233028172667E+04    0.42717E-03   -0.37378E-04  4154   0.937E-03    0.427E-02
RMM:   7    -0.233028172179E+04    0.48806E-05   -0.48911E-05  3222   0.405E-03
  15 F= -.23517922E+04 E0= -.23517922E+04  d E =-.307280E-06  mag=     4.0000
       N       E                     dE             d eps       ncg     rms          rms(c)
DAV:   1    -0.233030698832E+04   -0.25262E-01   -0.59960E-01  5200   0.367E-01    0.347E-01
RMM:   2    -0.233030568299E+04    0.13053E-02   -0.73738E-03  4604   0.339E-02    0.247E-01
RMM:   3    -0.233030538534E+04    0.29765E-03   -0.15521E-03  4573   0.197E-02    0.215E-01
RMM:   4    -0.233030539943E+04   -0.14088E-04   -0.10674E-03  4470   0.125E-02    0.214E-01
RMM:   5    -0.233030523647E+04    0.16296E-03   -0.51112E-04  4117   0.103E-02    0.143E-01
RMM:   6    -0.233030502415E+04    0.21232E-03   -0.23629E-04  3809   0.759E-03    0.452E-02
RMM:   7    -0.233030500613E+04    0.18017E-04   -0.29626E-05  3120   0.356E-03    0.221E-02
RMM:   8    -0.233030500055E+04    0.55846E-05   -0.96354E-06  2766   0.221E-03
  16 F= -.23518148E+04 E0= -.23518148E+04  d E =-.303206E-06  mag=     4.0000
       N       E                     dE             d eps       ncg     rms          rms(c)
DAV:   1    -0.233028891884E+04    0.16087E-01   -0.11674E+00  5000   0.502E-01    0.433E-01
RMM:   2    -0.233028746511E+04    0.14537E-02   -0.91502E-03  4553   0.375E-02    0.279E-01
RMM:   3    -0.233028720965E+04    0.25546E-03   -0.20162E-03  4923   0.224E-02    0.251E-01
RMM:   4    -0.233028741614E+04   -0.20649E-03   -0.17986E-03  4866   0.157E-02    0.279E-01
RMM:   5    -0.233028692231E+04    0.49383E-03   -0.68961E-04  4330   0.119E-02    0.141E-01
RMM:   6    -0.233028675914E+04    0.16317E-03   -0.25910E-04  3709   0.763E-03    0.653E-02
RMM:   7    -0.233028671410E+04    0.45042E-04   -0.32033E-05  3170   0.383E-03    0.168E-02
RMM:   8    -0.233028671331E+04    0.79619E-06   -0.11569E-05  2916   0.237E-03
  17 F= -.23517968E+04 E0= -.23517968E+04  d E =-.230933E-06  mag=     4.0000
       N       E                     dE             d eps       ncg     rms          rms(c)
DAV:   1    -0.233032337219E+04   -0.36658E-01   -0.61090E-01  5400   0.375E-01    0.421E-01
RMM:   2    -0.233032120225E+04    0.21699E-02   -0.10948E-02  4671   0.413E-02    0.294E-01
RMM:   3    -0.233032068583E+04    0.51642E-03   -0.23116E-03  4958   0.238E-02    0.238E-01
RMM:   4    -0.233032059377E+04    0.92053E-04   -0.15112E-03  4959   0.158E-02    0.217E-01
RMM:   5    -0.233032033410E+04    0.25967E-03   -0.57209E-04  4219   0.104E-02    0.143E-01
RMM:   6    -0.233032018348E+04    0.15062E-03   -0.24672E-04  3714   0.779E-03    0.732E-02
RMM:   7    -0.233032013537E+04    0.48117E-04   -0.51349E-05  3234   0.433E-03    0.299E-02
RMM:   8    -0.233032012423E+04    0.11139E-04   -0.16165E-05  2892   0.279E-03    0.110E-02
RMM:   9    -0.233032012266E+04    0.15647E-05   -0.35337E-06  2807   0.166E-03
  18 F= -.23518297E+04 E0= -.23518297E+04  d E =-.257208E-06  mag=     4.0000
       N       E                     dE             d eps       ncg     rms          rms(c)
DAV:   1    -0.233026985190E+04    0.50272E-01   -0.11960E+00  5400   0.517E-01    0.543E-01
RMM:   2    -0.233026648819E+04    0.33637E-02   -0.18108E-02  4741   0.535E-02    0.366E-01
RMM:   3    -0.233026575968E+04    0.72851E-03   -0.38018E-03  5047   0.312E-02    0.306E-01
RMM:   4    -0.233026553163E+04    0.22805E-03   -0.25870E-03  5414   0.211E-02    0.262E-01
RMM:   5    -0.233026515555E+04    0.37609E-03   -0.92835E-04  4723   0.129E-02    0.181E-01
RMM:   6    -0.233026491667E+04    0.23887E-03   -0.36678E-04  3923   0.950E-03    0.876E-02
RMM:   7    -0.233026485102E+04    0.65651E-04   -0.78588E-05  3397   0.507E-03    0.399E-02
RMM:   8    -0.233026483298E+04    0.18035E-04   -0.24226E-05  2993   0.322E-03    0.145E-02
RMM:   9    -0.233026483047E+04    0.25138E-05   -0.52425E-06  2889   0.186E-03
  19 F= -.23517751E+04 E0= -.23517751E+04  d E =-.271925E-06  mag=     4.0000
       N       E                     dE             d eps       ncg     rms          rms(c)
DAV:   1    -0.233027787983E+04   -0.13047E-01   -0.58462E-01  5400   0.366E-01    0.314E-01
RMM:   2    -0.233027729519E+04    0.58464E-03   -0.32972E-03  4013   0.277E-02    0.187E-01
RMM:   3    -0.233027814559E+04   -0.85040E-03   -0.17305E-03  5008   0.164E-02    0.341E-01
RMM:   4    -0.233027699246E+04    0.11531E-02   -0.81338E-04  4117   0.114E-02    0.698E-02
RMM:   5    -0.233027696586E+04    0.26597E-04   -0.13471E-04  3274   0.538E-03    0.446E-02
RMM:   6    -0.233027693720E+04    0.28660E-04   -0.31577E-05  3020   0.346E-03    0.136E-02
RMM:   7    -0.233027693484E+04    0.23676E-05   -0.10899E-05  2760   0.186E-03
  20 F= -.23517870E+04 E0= -.23517870E+04  d E =-.251225E-06  mag=     4.0000
       N       E                     dE             d eps       ncg     rms          rms(c)
DAV:   1    -0.233031274830E+04   -0.35811E-01   -0.12034E+00  5400   0.498E-01    0.586E-01
RMM:   2    -0.233030903220E+04    0.37161E-02   -0.20829E-02  4841   0.555E-02    0.429E-01
RMM:   3    -0.233030819053E+04    0.84167E-03   -0.52204E-03  5100   0.340E-02    0.385E-01
RMM:   4    -0.233030757941E+04    0.61112E-03   -0.29066E-03  5338   0.215E-02    0.314E-01
RMM:   5    -0.233030752812E+04    0.51291E-04   -0.14677E-03  4955   0.163E-02    0.270E-01
RMM:   6    -0.233030670285E+04    0.82527E-03   -0.69249E-04  4936   0.126E-02    0.635E-02
RMM:   7    -0.233030667065E+04    0.32202E-04   -0.79712E-05  3451   0.482E-03    0.379E-02
RMM:   8    -0.233030665500E+04    0.15649E-04   -0.24854E-05  2979   0.326E-03    0.150E-02
RMM:   9    -0.233030665208E+04    0.29219E-05   -0.61839E-06  2887   0.189E-03
  21 F= -.23518164E+04 E0= -.23518164E+04  d E =-.276825E-06  mag=     4.0000
       N       E                     dE             d eps       ncg     rms          rms(c)
DAV:   1    -0.233028019463E+04    0.26460E-01   -0.60896E-01  5400   0.358E-01    0.447E-01
RMM:   2    -0.233027758274E+04    0.26119E-02   -0.13246E-02  4737   0.439E-02    0.323E-01
RMM:   3    -0.233027690592E+04    0.67682E-03   -0.27775E-03  4884   0.258E-02    0.255E-01
RMM:   4    -0.233027673582E+04    0.17010E-03   -0.16619E-03  4984   0.166E-02    0.222E-01
RMM:   5    -0.233027652751E+04    0.20831E-03   -0.66129E-04  4286   0.109E-02    0.167E-01
RMM:   6    -0.233027629862E+04    0.22889E-03   -0.30341E-04  3830   0.836E-03    0.740E-02
RMM:   7    -0.233027624791E+04    0.50707E-04   -0.56628E-05  3224   0.446E-03    0.332E-02
RMM:   8    -0.233027623380E+04    0.14115E-04   -0.18444E-05  2887   0.287E-03    0.120E-02
RMM:   9    -0.233027623150E+04    0.23010E-05   -0.42829E-06  2808   0.173E-03
  22 F= -.23517864E+04 E0= -.23517864E+04  d E =-.246835E-06  mag=     4.0000
       N       E                     dE             d eps       ncg     rms          rms(c)
DAV:   1    -0.233031829575E+04   -0.42062E-01   -0.11759E+00  5000   0.490E-01    0.435E-01
RMM:   2    -0.233031709095E+04    0.12048E-02   -0.89333E-03  4664   0.369E-02    0.312E-01
RMM:   3    -0.233031731439E+04   -0.22344E-03   -0.28085E-03  5413   0.245E-02    0.326E-01
RMM:   4    -0.233031687824E+04    0.43615E-03   -0.18839E-03  5041   0.181E-02    0.260E-01
RMM:   5    -0.233031671045E+04    0.16779E-03   -0.99357E-04  4463   0.123E-02    0.228E-01
RMM:   6    -0.233031623452E+04    0.47592E-03   -0.39555E-04  3536   0.870E-03    0.450E-02
RMM:   7    -0.233031621876E+04    0.15762E-04   -0.35997E-05  3222   0.371E-03    0.176E-02
RMM:   8    -0.233031621872E+04    0.40076E-07   -0.14306E-05  2968   0.256E-03
  23 F= -.23518258E+04 E0= -.23518258E+04  d E =-.298808E-06  mag=     4.0000
       N       E                     dE             d eps       ncg     rms          rms(c)
DAV:   1    -0.233031454746E+04    0.16713E-02   -0.58882E-01  4900   0.339E-01    0.228E-01
RMM:   2    -0.233031465072E+04   -0.10326E-03   -0.24051E-03  4151   0.202E-02    0.157E-01
RMM:   3    -0.233031485949E+04   -0.20877E-03   -0.79147E-04  4898   0.121E-02    0.185E-01
RMM:   4    -0.233031469502E+04    0.16447E-03   -0.59721E-04  4273   0.105E-02    0.127E-01
RMM:   5    -0.233031463335E+04    0.61665E-04   -0.22964E-04  3476   0.676E-03    0.105E-01
RMM:   6    -0.233031453244E+04    0.10091E-03   -0.70647E-05  3057   0.432E-03    0.158E-02
RMM:   7    -0.233031453062E+04    0.18173E-05   -0.89511E-06  2901   0.197E-03
  24 F= -.23518246E+04 E0= -.23518246E+04  d E =-.254933E-06  mag=     4.0000
       N       E                     dE             d eps       ncg     rms          rms(c)
DAV:   1    -0.233028011285E+04    0.34420E-01   -0.11763E+00  5000   0.489E-01    0.350E-01
RMM:   2    -0.233027968435E+04    0.42850E-03   -0.53563E-03  4343   0.303E-02    0.205E-01
RMM:   3    -0.233027982348E+04   -0.13913E-03   -0.13258E-03  5003   0.184E-02    0.198E-01
RMM:   4    -0.233027969531E+04    0.12817E-03   -0.10055E-03  4992   0.134E-02    0.151E-01
RMM:   5    -0.233027946724E+04    0.22807E-03   -0.23626E-04  3785   0.761E-03    0.493E-02
RMM:   6    -0.233027947364E+04   -0.63979E-05   -0.68869E-05  3115   0.455E-03
  25 F= -.23517892E+04 E0= -.23517892E+04  d E =-.291345E-06  mag=     4.0000
       N       E                     dE             d eps       ncg     rms          rms(c)
DAV:   1    -0.233030376754E+04   -0.24300E-01   -0.58514E-01  4800   0.379E-01    0.241E-01
RMM:   2    -0.233030355666E+04    0.21087E-03   -0.32789E-03  4405   0.255E-02    0.149E-01
RMM:   3    -0.233030386679E+04   -0.31013E-03   -0.88068E-04  4955   0.144E-02    0.218E-01
RMM:   4    -0.233030352509E+04    0.34170E-03   -0.63086E-04  4223   0.101E-02    0.124E-01
RMM:   5    -0.233030345109E+04    0.74000E-04   -0.22395E-04  3788   0.694E-03    0.866E-02
RMM:   6    -0.233030337656E+04    0.74528E-04   -0.64689E-05  3095   0.445E-03    0.160E-02
RMM:   7    -0.233030337524E+04    0.13185E-05   -0.65390E-06  2874   0.196E-03
  26 F= -.23518130E+04 E0= -.23518130E+04  d E =-.265186E-06  mag=     4.0000
       N       E                     dE             d eps       ncg     rms          rms(c)
DAV:   1    -0.233028990461E+04    0.13472E-01   -0.11486E+00  4800   0.503E-01    0.338E-01
RMM:   2    -0.233028914393E+04    0.76068E-03   -0.58990E-03  4632   0.323E-02    0.198E-01
RMM:   3    -0.233028956439E+04   -0.42045E-03   -0.15932E-03  5298   0.205E-02    0.228E-01
RMM:   4    -0.233028896859E+04    0.59580E-03   -0.95986E-04  4855   0.139E-02    0.101E-01
RMM:   5    -0.233028892844E+04    0.40153E-04   -0.21849E-04  3853   0.707E-03    0.810E-02
RMM:   6    -0.233028888387E+04    0.44565E-04   -0.80650E-05  3159   0.488E-03    0.413E-02
RMM:   7    -0.233028887172E+04    0.12156E-04   -0.16537E-05  3027   0.243E-03    0.207E-02
RMM:   8    -0.233028886715E+04    0.45656E-05   -0.57488E-06  2706   0.183E-03
  27 F= -.23517990E+04 E0= -.23517990E+04  d E =-.266171E-06  mag=     4.0000
       N       E                     dE             d eps       ncg     rms          rms(c)
DAV:   1    -0.233035427364E+04   -0.65402E-01   -0.59018E-01  5500   0.381E-01    0.367E-01
RMM:   2    -0.233035215435E+04    0.21193E-02   -0.73359E-03  4696   0.367E-02    0.194E-01
RMM:   3    -0.233035225160E+04   -0.97244E-04   -0.12463E-03  4145   0.222E-02    0.229E-01
RMM:   4    -0.233035204366E+04    0.20794E-03   -0.88741E-04  4634   0.122E-02    0.184E-01
RMM:   5    -0.233035180173E+04    0.24193E-03   -0.34606E-04  4016   0.875E-03    0.933E-02
RMM:   6    -0.233035173092E+04    0.70815E-04   -0.13174E-04  3255   0.570E-03    0.422E-02
RMM:   7    -0.233035171161E+04    0.19307E-04   -0.17367E-05  3009   0.296E-03    0.892E-03
RMM:   8    -0.233035171265E+04   -0.10426E-05   -0.74277E-06  2730   0.182E-03
  28 F= -.23518612E+04 E0= -.23518612E+04  d E =-.286802E-06  mag=     4.0000
       N       E                     dE             d eps       ncg     rms          rms(c)
DAV:   1    -0.233023682395E+04    0.11489E+00   -0.11776E+00  5500   0.535E-01    0.522E-01
RMM:   2    -0.233023303946E+04    0.37845E-02   -0.17725E-02  4780   0.510E-02    0.276E-01
RMM:   3    -0.233023364908E+04   -0.60962E-03   -0.32561E-03  4944   0.317E-02    0.379E-01
RMM:   4    -0.233023251209E+04    0.11370E-02   -0.19401E-03  5420   0.190E-02    0.233E-01
RMM:   5    -0.233023239621E+04    0.11588E-03   -0.93786E-04  4358   0.118E-02    0.181E-01
RMM:   6    -0.233023202232E+04    0.37388E-03   -0.37915E-04  4071   0.923E-03    0.392E-02
RMM:   7    -0.233023200058E+04    0.21743E-04   -0.31294E-05  3225   0.366E-03    0.143E-02
RMM:   8    -0.233023200369E+04   -0.31086E-05   -0.12890E-05  2982   0.232E-03
  29 F= -.23517423E+04 E0= -.23517423E+04  d E =-.240648E-06  mag=     4.0000
       N       E                     dE             d eps       ncg     rms          rms(c)
DAV:   1    -0.233030198472E+04   -0.69984E-01   -0.57488E-01  5200   0.369E-01    0.320E-01
RMM:   2    -0.233030060552E+04    0.13792E-02   -0.52168E-03  4477   0.294E-02    0.168E-01
RMM:   3    -0.233030051072E+04    0.94797E-04   -0.80022E-04  4282   0.167E-02    0.143E-01
RMM:   4    -0.233030056435E+04   -0.53631E-04   -0.68929E-04  4708   0.115E-02    0.158E-01
RMM:   5    -0.233030039856E+04    0.16580E-03   -0.27939E-04  3770   0.782E-03    0.104E-01
RMM:   6    -0.233030029532E+04    0.10323E-03   -0.99103E-05  3180   0.497E-03    0.263E-02
RMM:   7    -0.233030028883E+04    0.64968E-05   -0.11266E-05  2894   0.249E-03
  30 F= -.23518100E+04 E0= -.23518100E+04  d E =-.245078E-06  mag=     4.0000
       N       E                     dE             d eps       ncg     rms          rms(c)
DAV:   1    -0.233029521740E+04    0.50779E-02   -0.11398E+00  4800   0.508E-01    0.309E-01
RMM:   2    -0.233029497320E+04    0.24420E-03   -0.37242E-03  4176   0.247E-02    0.182E-01
RMM:   3    -0.233029568517E+04   -0.71197E-03   -0.12957E-03  5075   0.162E-02    0.286E-01
RMM:   4    -0.233029485999E+04    0.82518E-03   -0.67573E-04  4160   0.106E-02    0.833E-02
RMM:   5    -0.233029489890E+04   -0.38915E-04   -0.20478E-04  3344   0.606E-03    0.923E-02
RMM:   6    -0.233029480999E+04    0.88915E-04   -0.57136E-05  3110   0.429E-03    0.114E-02
RMM:   7    -0.233029480906E+04    0.92942E-06   -0.74593E-06  2945   0.169E-03
  31 F= -.23518049E+04 E0= -.23518049E+04  d E =-.281344E-06  mag=     4.0000
       N       E                     dE             d eps       ncg     rms          rms(c)
DAV:   1    -0.233029288449E+04    0.19255E-02   -0.59950E-01  5000   0.379E-01    0.335E-01
RMM:   2    -0.233029155191E+04    0.13326E-02   -0.57464E-03  4504   0.307E-02    0.187E-01
RMM:   3    -0.233029164039E+04   -0.88480E-04   -0.12288E-03  4768   0.179E-02    0.222E-01
RMM:   4    -0.233029139945E+04    0.24094E-03   -0.80377E-04  4509   0.116E-02    0.171E-01
RMM:   5    -0.233029120780E+04    0.19165E-03   -0.32775E-04  3832   0.798E-03    0.104E-01
RMM:   6    -0.233029111524E+04    0.92559E-04   -0.12298E-04  3142   0.536E-03    0.349E-02
RMM:   7    -0.233029110201E+04    0.13224E-04   -0.10874E-05  2935   0.249E-03    0.992E-03
RMM:   8    -0.233029110267E+04   -0.65687E-06   -0.64738E-06  2623   0.163E-03
  32 F= -.23518015E+04 E0= -.23518015E+04  d E =-.264177E-06  mag=     4.0000
       N       E                     dE             d eps       ncg     rms          rms(c)
DAV:   1    -0.233029284706E+04   -0.17450E-02   -0.12762E+00  5400   0.527E-01    0.656E-01
RMM:   2    -0.233028556253E+04    0.72845E-02   -0.23813E-02  4917   0.594E-02    0.344E-01
RMM:   3    -0.233028533872E+04    0.22381E-03   -0.43719E-03  4647   0.381E-02    0.353E-01
RMM:   4    -0.233028494007E+04    0.39864E-03   -0.27958E-03  5556   0.219E-02    0.303E-01
RMM:   5    -0.233028437162E+04    0.56845E-03   -0.11832E-03  4754   0.148E-02    0.225E-01
RMM:   6    -0.233028395852E+04    0.41310E-03   -0.49388E-04  3561   0.902E-03    0.827E-02
RMM:   7    -0.233028389533E+04    0.63185E-04   -0.56425E-05  3269   0.463E-03    0.220E-02
RMM:   8    -0.233028389624E+04   -0.90712E-06   -0.26786E-05  3025   0.313E-03
  33 F= -.23517933E+04 E0= -.23517933E+04  d E =-.269176E-06  mag=     4.0000
       N       E                     dE             d eps       ncg     rms          rms(c)
DAV:   1    -0.233031167765E+04   -0.27782E-01   -0.62889E-01  5300   0.360E-01    0.391E-01
RMM:   2    -0.233030941117E+04    0.22665E-02   -0.82602E-03  4769   0.349E-02    0.205E-01
RMM:   3    -0.233030917844E+04    0.23273E-03   -0.12157E-03  4661   0.197E-02    0.178E-01
RMM:   4    -0.233030940112E+04   -0.22268E-03   -0.10048E-03  4662   0.123E-02    0.233E-01
RMM:   5    -0.233030897253E+04    0.42859E-03   -0.40019E-04  4137   0.896E-03    0.888E-02
RMM:   6    -0.233030892904E+04    0.43490E-04   -0.15333E-04  3285   0.598E-03    0.593E-02
RMM:   7    -0.233030888565E+04    0.43395E-04   -0.25056E-05  2996   0.333E-03    0.987E-03
RMM:   8    -0.233030888603E+04   -0.38935E-06   -0.67767E-06  2715   0.182E-03
  34 F= -.23518183E+04 E0= -.23518183E+04  d E =-.277070E-06  mag=     4.0000
       N       E                     dE             d eps       ncg     rms          rms(c)
DAV:   1    -0.233028709779E+04    0.21788E-01   -0.12036E+00  4800   0.507E-01    0.339E-01
RMM:   2    -0.233028701158E+04    0.86207E-04   -0.36695E-03  4153   0.277E-02    0.216E-01
RMM:   3    -0.233028919650E+04   -0.21849E-02   -0.27063E-03  5723   0.214E-02    0.473E-01
RMM:   4    -0.233028695564E+04    0.22409E-02   -0.13378E-03  5117   0.157E-02    0.109E-01
RMM:   5    -0.233028685834E+04    0.97302E-04   -0.30438E-04  3653   0.776E-03    0.557E-02
RMM:   6    -0.233028682213E+04    0.36214E-04   -0.47597E-05  3200   0.385E-03    0.164E-02
RMM:   7    -0.233028682199E+04    0.13932E-06   -0.11709E-05  2952   0.225E-03
  35 F= -.23517972E+04 E0= -.23517972E+04  d E =-.264084E-06  mag=     4.0000
       N       E                     dE             d eps       ncg     rms          rms(c)
DAV:   1    -0.233029513054E+04   -0.83084E-02   -0.61085E-01  4900   0.349E-01    0.252E-01
RMM:   2    -0.233029502157E+04    0.10896E-03   -0.23575E-03  4226   0.203E-02    0.155E-01
RMM:   3    -0.233029579459E+04   -0.77302E-03   -0.12812E-03  5439   0.150E-02    0.273E-01
RMM:   4    -0.233029497103E+04    0.82356E-03   -0.64211E-04  4555   0.114E-02    0.910E-02
RMM:   5    -0.233029490800E+04    0.63038E-04   -0.14988E-04  3324   0.550E-03    0.421E-02
RMM:   6    -0.233029488861E+04    0.19381E-04   -0.18349E-05  2957   0.294E-03    0.157E-02
RMM:   7    -0.233029488761E+04    0.10088E-05   -0.80239E-06  2764   0.180E-03
  36 F= -.23518050E+04 E0= -.23518050E+04  d E =-.272448E-06  mag=     4.0000
       N       E                     dE             d eps       ncg     rms          rms(c)
DAV:   1    -0.233030008095E+04   -0.51923E-02   -0.12100E+00  4900   0.499E-01    0.392E-01
RMM:   2    -0.233029936722E+04    0.71373E-03   -0.63970E-03  4384   0.314E-02    0.225E-01
RMM:   3    -0.233029945184E+04   -0.84618E-04   -0.13267E-03  4978   0.186E-02    0.192E-01
RMM:   4    -0.233029922044E+04    0.23140E-03   -0.94123E-04  4512   0.126E-02    0.123E-01
RMM:   5    -0.233029906299E+04    0.15745E-03   -0.15386E-04  3784   0.705E-03    0.481E-02
RMM:   6    -0.233029905411E+04    0.88742E-05   -0.42038E-05  3122   0.388E-03
  37 F= -.23518087E+04 E0= -.23518087E+04  d E =-.278025E-06  mag=     4.0000
