       N       E                     dE             d eps       ncg     rms          rms(c)
DAV:   1     0.124373567440E+05    0.12437E+05   -0.82050E+05  4416   0.143E+03
DAV:   2    -0.110137142828E+04   -0.13539E+05   -0.12991E+05  5368   0.329E+02
DAV:   3    -0.247505063384E+04   -0.13737E+04   -0.13627E+04  5280   0.108E+02
DAV:   4    -0.251327985714E+04   -0.38229E+02   -0.38060E+02  6296   0.254E+01
DAV:   5    -0.251403590802E+04   -0.75605E+00   -0.75517E+00  5480   0.291E+00    0.170E+02
RMM:   6    -0.146488146083E+04    0.10492E+04   -0.19375E+03  4340   0.389E+01    0.726E+01
RMM:   7    -0.164036563097E+04   -0.17548E+03   -0.26927E+02  4871   0.139E+01    0.524E+01
RMM:   8    -0.168928903837E+04   -0.48923E+02   -0.66113E+01  4958   0.775E+00    0.381E+01
RMM:   9    -0.180510368002E+04   -0.11581E+03   -0.57159E+01  4530   0.780E+00    0.256E+01
RMM:  10    -0.196123701670E+04   -0.15613E+03   -0.63239E+01  4706   0.756E+00    0.171E+01
RMM:  11    -0.208747338646E+04   -0.12624E+03   -0.70978E+01  4547   0.643E+00    0.130E+01
RMM:  12    -0.227113090944E+04   -0.18366E+03   -0.20390E+02  4369   0.936E+00    0.174E+01
RMM:  13    -0.227906875324E+04   -0.79378E+01   -0.13138E+01  4579   0.378E+00    0.656E+00
RMM:  14    -0.229904724789E+04   -0.19978E+02   -0.17797E+01  4341   0.284E+00    0.667E+00
RMM:  15    -0.230280349906E+04   -0.37563E+01   -0.31263E+00  4575   0.151E+00    0.537E+00
RMM:  16    -0.230681175596E+04   -0.40083E+01   -0.38839E+00  4396   0.112E+00    0.297E+00
RMM:  17    -0.230838638073E+04   -0.15746E+01   -0.10487E+00  4749   0.805E-01    0.201E+00
RMM:  18    -0.230857632617E+04   -0.18995E+00   -0.24497E-01  5094   0.260E-01    0.175E+00
RMM:  19    -0.230860184448E+04   -0.25518E-01   -0.45706E-02  4614   0.153E-01    0.148E+00
RMM:  20    -0.230860998181E+04   -0.81373E-02   -0.49514E-02  4527   0.110E-01    0.111E+00
RMM:  21    -0.230861144467E+04   -0.14629E-02   -0.13301E-02  4662   0.735E-02    0.101E+00
RMM:  22    -0.230861227791E+04   -0.83324E-03   -0.16768E-03  4936   0.231E-02    0.998E-01
RMM:  23    -0.230861397921E+04   -0.17013E-02   -0.24837E-03  4325   0.208E-02    0.952E-01
RMM:  24    -0.230861417573E+04   -0.19652E-03   -0.31146E-04  3608   0.113E-02    0.948E-01
RMM:  25    -0.230861489601E+04   -0.72028E-03   -0.13218E-03  4184   0.164E-02    0.937E-01
RMM:  26    -0.230861382275E+04    0.10733E-02   -0.15168E-03  4267   0.193E-02    0.949E-01
RMM:  27    -0.230861309827E+04    0.72448E-03   -0.16614E-02  4357   0.517E-02    0.873E-01
RMM:  28    -0.230861266852E+04    0.42974E-03   -0.56689E-03  4543   0.389E-02    0.906E-01
RMM:  29    -0.230861149944E+04    0.11691E-02   -0.51967E-03  4190   0.269E-02    0.989E-01
RMM:  30    -0.230861572438E+04   -0.42249E-02   -0.80322E-02  4381   0.111E-01    0.737E-01
RMM:  31    -0.230861149639E+04    0.42280E-02   -0.10198E-01  4505   0.127E-01    0.157E+00
RMM:  32    -0.230861057701E+04    0.91938E-03   -0.89802E-03  4561   0.557E-02    0.161E+00
RMM:  33    -0.230861492969E+04   -0.43527E-02   -0.31582E-03  4515   0.215E-02    0.149E+00
RMM:  34    -0.230862039721E+04   -0.54675E-02   -0.17476E-03  3988   0.223E-02    0.115E+00
RMM:  35    -0.230862097258E+04   -0.57536E-03   -0.14350E-03  3918   0.156E-02    0.130E+00
RMM:  36    -0.230863680982E+04   -0.15837E-01   -0.20995E-02  4329   0.546E-02    0.427E-01
RMM:  37    -0.230864690359E+04   -0.10094E-01   -0.30583E-02  4436   0.751E-02    0.594E-01
RMM:  38    -0.230865158099E+04   -0.46774E-02   -0.78513E-03  4296   0.497E-02    0.461E-01
RMM:  39    -0.230865204434E+04   -0.46335E-03   -0.19080E-03  4305   0.178E-02    0.511E-01
RMM:  40    -0.230865631173E+04   -0.42674E-02   -0.32646E-03  4016   0.243E-02    0.298E-01
RMM:  41    -0.230865762345E+04   -0.13117E-02   -0.14977E-03  3828   0.164E-02    0.271E-01
RMM:  42    -0.230865900444E+04   -0.13810E-02   -0.13957E-03  3650   0.147E-02    0.282E-01
RMM:  43    -0.230866045316E+04   -0.14487E-02   -0.15710E-03  3787   0.158E-02    0.268E-01
RMM:  44    -0.230866157938E+04   -0.11262E-02   -0.15435E-03  3664   0.157E-02    0.269E-01
RMM:  45    -0.230866274367E+04   -0.11643E-02   -0.12593E-03  3597   0.135E-02    0.196E-01
RMM:  46    -0.230866425046E+04   -0.15068E-02   -0.24253E-03  3892   0.184E-02    0.171E-01
RMM:  47    -0.230866521211E+04   -0.96165E-03   -0.18200E-03  3690   0.171E-02    0.163E-01
RMM:  48    -0.230866583324E+04   -0.62113E-03   -0.13546E-03  3537   0.130E-02    0.142E-01
RMM:  49    -0.230866624459E+04   -0.41135E-03   -0.59866E-04  3233   0.982E-03    0.124E-01
RMM:  50    -0.230866675219E+04   -0.50759E-03   -0.10436E-03  3576   0.119E-02    0.113E-01
RMM:  51    -0.230866703505E+04   -0.28286E-03   -0.62078E-04  3262   0.104E-02    0.819E-02
RMM:  52    -0.230866740859E+04   -0.37353E-03   -0.15309E-03  3694   0.139E-02    0.713E-02
RMM:  53    -0.230866747340E+04   -0.64812E-04   -0.27006E-04  2922   0.806E-03    0.445E-02
RMM:  54    -0.230866756761E+04   -0.94214E-04   -0.37043E-04  3095   0.646E-03    0.466E-02
RMM:  55    -0.230866759015E+04   -0.22543E-04   -0.66240E-05  2743   0.412E-03    0.418E-02
RMM:  56    -0.230866764563E+04   -0.55474E-04   -0.28959E-04  3002   0.596E-03    0.409E-02
RMM:  57    -0.230866766300E+04   -0.17375E-04   -0.57994E-05  2694   0.388E-03    0.167E-02
RMM:  58    -0.230866768353E+04   -0.20531E-04   -0.93366E-05  2730   0.358E-03    0.153E-02
RMM:  59    -0.230866768329E+04    0.23904E-06   -0.12556E-05  2520   0.237E-03
   1 F= -.23286882E+04 E0= -.23286880E+04  d E =-.232869E+04  mag=     1.0005
       N       E                     dE             d eps       ncg     rms          rms(c)
DAV:   1    -0.230866653040E+04    0.11531E-02   -0.18821E+00  4720   0.136E+00    0.502E-01
RMM:   2    -0.230868535303E+04   -0.18823E-01   -0.20801E-01  5756   0.283E-01    0.369E-01
RMM:   3    -0.230868610896E+04   -0.75593E-03   -0.23282E-02  5113   0.119E-01    0.306E-01
RMM:   4    -0.230868594950E+04    0.15946E-03   -0.28452E-03  4971   0.255E-02    0.327E-01
RMM:   5    -0.230868592470E+04    0.24797E-04   -0.15558E-04  3431   0.128E-02    0.323E-01
RMM:   6    -0.230868578332E+04    0.14138E-03   -0.85127E-04  4353   0.130E-02    0.314E-01
RMM:   7    -0.230868595958E+04   -0.17626E-03   -0.51714E-03  4855   0.304E-02    0.414E-01
RMM:   8    -0.230868638557E+04   -0.42599E-03   -0.34838E-03  4557   0.258E-02    0.579E-01
RMM:   9    -0.230868521764E+04    0.11679E-02   -0.79081E-03  4387   0.353E-02    0.186E-01
RMM:  10    -0.230868499095E+04    0.22670E-03   -0.67953E-04  4317   0.180E-02    0.116E-01
RMM:  11    -0.230868492813E+04    0.62824E-04   -0.38922E-04  4149   0.105E-02    0.829E-02
RMM:  12    -0.230868493852E+04   -0.10392E-04   -0.81641E-05  3061   0.853E-03    0.785E-02
RMM:  13    -0.230868495462E+04   -0.16101E-04   -0.91021E-05  3089   0.532E-03    0.621E-02
RMM:  14    -0.230868496622E+04   -0.11602E-04   -0.65874E-05  2864   0.528E-03    0.490E-02
RMM:  15    -0.230868498009E+04   -0.13865E-04   -0.20923E-04  3304   0.651E-03    0.169E-02
RMM:  16    -0.230868498427E+04   -0.41866E-05   -0.61345E-05  2844   0.523E-03
   2 F= -.23287047E+04 E0= -.23287046E+04  d E =-.165589E-01  mag=     1.0000
       N       E                     dE             d eps       ncg     rms          rms(c)
DAV:   1    -0.230868495586E+04    0.24221E-04   -0.31725E-03  4976   0.555E-02    0.205E-02
RMM:   2    -0.230868498662E+04   -0.30756E-04   -0.34514E-04  5091   0.124E-02    0.119E-02
RMM:   3    -0.230868498792E+04   -0.12956E-05   -0.33860E-05  2824   0.523E-03
   3 F= -.23287047E+04 E0= -.23287046E+04  d E =-.165929E-01  mag=     1.0000
       N       E                     dE             d eps       ncg     rms          rms(c)
DAV:   1    -0.230868901964E+04   -0.40330E-02   -0.14847E+00  4480   0.119E+00    0.340E-01
RMM:   2    -0.230869681227E+04   -0.77926E-02   -0.89501E-02  5773   0.199E-01    0.185E-01
RMM:   3    -0.230869690696E+04   -0.94684E-04   -0.59346E-03  5198   0.659E-02    0.144E-01
RMM:   4    -0.230869684475E+04    0.62204E-04   -0.12535E-03  4708   0.183E-02    0.149E-01
RMM:   5    -0.230869677954E+04    0.65213E-04   -0.19965E-04  3313   0.114E-02    0.150E-01
RMM:   6    -0.230869681132E+04   -0.31784E-04   -0.42367E-05  2828   0.431E-03    0.151E-01
RMM:   7    -0.230869682131E+04   -0.99905E-05   -0.91323E-06  2791   0.265E-03
   4 F= -.23287167E+04 E0= -.23287166E+04  d E =-.119818E-01  mag=     1.0000
       N       E                     dE             d eps       ncg     rms          rms(c)
DAV:   1    -0.230869226285E+04    0.45485E-02   -0.13348E+00  4448   0.112E+00    0.326E-01
RMM:   2    -0.230869943363E+04   -0.71708E-02   -0.80634E-02  5800   0.188E-01    0.191E-01
RMM:   3    -0.230869979134E+04   -0.35771E-03   -0.56085E-03  5086   0.610E-02    0.236E-01
RMM:   4    -0.230869983351E+04   -0.42170E-04   -0.70396E-04  3682   0.125E-02    0.236E-01
RMM:   5    -0.230869979741E+04    0.36094E-04   -0.16021E-04  3124   0.760E-03    0.219E-01
RMM:   6    -0.230869979293E+04    0.44869E-05   -0.55856E-04  3698   0.889E-03    0.214E-01
RMM:   7    -0.230869967836E+04    0.11456E-03   -0.26467E-03  4230   0.194E-02    0.192E-01
RMM:   8    -0.230869938920E+04    0.28916E-03   -0.79678E-04  4533   0.151E-02    0.182E-01
RMM:   9    -0.230869930869E+04    0.80510E-04   -0.92182E-04  4060   0.156E-02    0.856E-02
RMM:  10    -0.230869933349E+04   -0.24803E-04   -0.81451E-04  3925   0.123E-02    0.277E-02
RMM:  11    -0.230869935520E+04   -0.21709E-04   -0.25255E-04  3069   0.754E-03    0.347E-02
RMM:  12    -0.230869935938E+04   -0.41827E-05   -0.53627E-05  2830   0.425E-03
   5 F= -.23287194E+04 E0= -.23287192E+04  d E =-.146576E-01  mag=     1.0000
       N       E                     dE             d eps       ncg     rms          rms(c)
DAV:   1    -0.230869656889E+04    0.27863E-02   -0.16940E+00  4432   0.126E+00    0.333E-01
RMM:   2    -0.230870711909E+04   -0.10550E-01   -0.11468E-01  5796   0.210E-01    0.203E-01
RMM:   3    -0.230870744997E+04   -0.33088E-03   -0.82556E-03  5133   0.756E-02    0.174E-01
RMM:   4    -0.230870744485E+04    0.51205E-05   -0.12488E-03  4620   0.178E-02    0.191E-01
RMM:   5    -0.230870743505E+04    0.98036E-05   -0.89433E-05  2994   0.876E-03
   6 F= -.23287272E+04 E0= -.23287270E+04  d E =-.779399E-02  mag=     1.0000
       N       E                     dE             d eps       ncg     rms          rms(c)
DAV:   1    -0.230870535186E+04    0.20930E-02   -0.48395E-01  4544   0.672E-01    0.251E-01
RMM:   2    -0.230870847602E+04   -0.31242E-02   -0.32234E-02  5791   0.111E-01    0.290E-01
RMM:   3    -0.230870869883E+04   -0.22281E-03   -0.24313E-03  4726   0.391E-02    0.311E-01
RMM:   4    -0.230870874857E+04   -0.49740E-04   -0.91422E-04  4003   0.138E-02    0.266E-01
RMM:   5    -0.230870834045E+04    0.40811E-03   -0.16994E-03  4025   0.156E-02    0.234E-01
RMM:   6    -0.230870814885E+04    0.19160E-03   -0.21396E-03  4163   0.183E-02    0.289E-01
RMM:   7    -0.230870817643E+04   -0.27585E-04   -0.10573E-04  2908   0.689E-03    0.262E-01
RMM:   8    -0.230870773539E+04    0.44105E-03   -0.60536E-04  4212   0.135E-02    0.959E-02
RMM:   9    -0.230870789151E+04   -0.15612E-03   -0.10004E-03  4034   0.169E-02    0.489E-02
RMM:  10    -0.230870792259E+04   -0.31079E-04   -0.12798E-04  3283   0.787E-03    0.386E-02
RMM:  11    -0.230870792868E+04   -0.60910E-05   -0.32568E-05  2818   0.476E-03
   7 F= -.23287275E+04 E0= -.23287274E+04  d E =-.813590E-02  mag=     1.0000
       N       E                     dE             d eps       ncg     rms          rms(c)
DAV:   1    -0.230870754348E+04    0.37910E-03   -0.92109E-01  4416   0.958E-01    0.283E-01
RMM:   2    -0.230871371048E+04   -0.61670E-02   -0.66384E-02  5871   0.166E-01    0.148E-01
RMM:   3    -0.230871385364E+04   -0.14316E-03   -0.52559E-03  5014   0.586E-02    0.134E-01
RMM:   4    -0.230871390056E+04   -0.46923E-04   -0.66058E-04  4184   0.131E-02    0.155E-01
RMM:   5    -0.230871384947E+04    0.51096E-04   -0.10050E-04  2879   0.772E-03    0.132E-01
RMM:   6    -0.230871374913E+04    0.10033E-03   -0.70845E-04  3937   0.111E-02    0.130E-01
RMM:   7    -0.230871367796E+04    0.71167E-04   -0.16947E-03  3983   0.172E-02    0.223E-01
RMM:   8    -0.230871374110E+04   -0.63136E-04   -0.71687E-04  3586   0.108E-02    0.140E-01
RMM:   9    -0.230871365753E+04    0.83571E-04   -0.33661E-04  3399   0.878E-03    0.346E-02
RMM:  10    -0.230871367177E+04   -0.14236E-04   -0.83673E-05  2885   0.531E-03    0.272E-02
RMM:  11    -0.230871368703E+04   -0.15261E-04   -0.41976E-05  2813   0.401E-03    0.300E-02
RMM:  12    -0.230871369748E+04   -0.10455E-04   -0.46951E-05  2826   0.393E-03    0.239E-02
RMM:  13    -0.230871370340E+04   -0.59210E-05   -0.43798E-05  2806   0.346E-03
   8 F= -.23287332E+04 E0= -.23287331E+04  d E =-.567600E-02  mag=     1.0000
       N       E                     dE             d eps       ncg     rms          rms(c)
DAV:   1    -0.230871158413E+04    0.21134E-02   -0.61722E-01  4416   0.785E-01    0.229E-01
RMM:   2    -0.230871570395E+04   -0.41198E-02   -0.44622E-02  5897   0.136E-01    0.113E-01
RMM:   3    -0.230871575888E+04   -0.54936E-04   -0.34037E-03  4927   0.478E-02    0.701E-02
RMM:   4    -0.230871571214E+04    0.46743E-04   -0.48446E-04  4256   0.128E-02    0.444E-02
RMM:   5    -0.230871568516E+04    0.26982E-04   -0.12221E-04  3659   0.106E-02    0.207E-02
RMM:   6    -0.230871567915E+04    0.60096E-05   -0.31595E-05  2865   0.523E-03
   9 F= -.23287351E+04 E0= -.23287350E+04  d E =-.757083E-02  mag=     1.0000
       N       E                     dE             d eps       ncg     rms          rms(c)
DAV:   1    -0.230871622954E+04   -0.54438E-03   -0.94236E-01  4416   0.971E-01    0.261E-01
RMM:   2    -0.230872214392E+04   -0.59144E-02   -0.63248E-02  5722   0.161E-01    0.141E-01
RMM:   3    -0.230872220792E+04   -0.64008E-04   -0.45776E-03  4952   0.570E-02    0.106E-01
RMM:   4    -0.230872217873E+04    0.29194E-04   -0.71965E-04  4394   0.157E-02    0.112E-01
RMM:   5    -0.230872217972E+04   -0.99068E-06   -0.81396E-05  2943   0.954E-03
  10 F= -.23287414E+04 E0= -.23287413E+04  d E =-.630071E-02  mag=     1.0000
       N       E                     dE             d eps       ncg     rms          rms(c)
DAV:   1    -0.230870514128E+04    0.17037E-01   -0.31229E+00  4376   0.177E+00    0.489E-01
RMM:   2    -0.230872450983E+04   -0.19369E-01   -0.20822E-01  5651   0.291E-01    0.295E-01
RMM:   3    -0.230872472897E+04   -0.21913E-03   -0.16107E-02  4928   0.106E-01    0.236E-01
RMM:   4    -0.230872444935E+04    0.27962E-03   -0.30375E-03  4630   0.315E-02    0.231E-01
RMM:   5    -0.230872429140E+04    0.15795E-03   -0.55606E-04  4310   0.192E-02    0.234E-01
RMM:   6    -0.230872430048E+04   -0.90806E-05   -0.62523E-05  2912   0.472E-03
  11 F= -.23287432E+04 E0= -.23287430E+04  d E =-.805887E-02  mag=     1.0000
       N       E                     dE             d eps       ncg     rms          rms(c)
DAV:   1    -0.230872384187E+04    0.44953E-03   -0.26813E-01  4496   0.516E-01    0.384E-01
RMM:   2    -0.230872654226E+04   -0.27004E-02   -0.20856E-02  5716   0.888E-02    0.572E-01
RMM:   3    -0.230872598797E+04    0.55429E-03   -0.36419E-03  4708   0.419E-02    0.363E-01
RMM:   4    -0.230872509941E+04    0.88857E-03   -0.72222E-03  4595   0.315E-02    0.220E-01
RMM:   5    -0.230872488044E+04    0.21897E-03   -0.17346E-03  4183   0.183E-02    0.183E-01
RMM:   6    -0.230872487316E+04    0.72746E-05   -0.72161E-04  3467   0.936E-03    0.204E-01
RMM:   7    -0.230872456659E+04    0.30657E-03   -0.12472E-03  3882   0.136E-02    0.262E-01
RMM:   8    -0.230872475588E+04   -0.18929E-03   -0.15425E-03  3908   0.148E-02    0.141E-01
RMM:   9    -0.230872475269E+04    0.31948E-05   -0.20827E-04  3147   0.823E-03    0.818E-02
RMM:  10    -0.230872485658E+04   -0.10389E-03   -0.73431E-04  3754   0.104E-02    0.380E-02
RMM:  11    -0.230872485535E+04    0.12281E-05   -0.11382E-04  2943   0.703E-03    0.147E-02
RMM:  12    -0.230872486063E+04   -0.52768E-05   -0.41836E-05  2823   0.383E-03
  12 F= -.23287438E+04 E0= -.23287437E+04  d E =-.872517E-02  mag=     1.0000
       N       E                     dE             d eps       ncg     rms          rms(c)
DAV:   1    -0.230872439303E+04    0.46232E-03   -0.64798E-01  4384   0.790E-01    0.200E-01
RMM:   2    -0.230872851491E+04   -0.41219E-02   -0.43611E-02  5667   0.126E-01    0.104E-01
RMM:   3    -0.230872861272E+04   -0.97804E-04   -0.31179E-03  4813   0.464E-02    0.738E-02
RMM:   4    -0.230872860808E+04    0.46350E-05   -0.47130E-04  4153   0.123E-02    0.805E-02
RMM:   5    -0.230872860665E+04    0.14312E-05   -0.50721E-05  2889   0.772E-03
  13 F= -.23287474E+04 E0= -.23287473E+04  d E =-.354053E-02  mag=     1.0000
       N       E                     dE             d eps       ncg     rms          rms(c)
DAV:   1    -0.230870144335E+04    0.27165E-01   -0.47821E+00  4368   0.215E+00    0.553E-01
RMM:   2    -0.230873167985E+04   -0.30237E-01   -0.32110E-01  5541   0.342E-01    0.304E-01
RMM:   3    -0.230873232432E+04   -0.64446E-03   -0.24601E-02  4886   0.130E-01    0.205E-01
RMM:   4    -0.230873210533E+04    0.21899E-03   -0.39636E-03  4761   0.358E-02    0.151E-01
RMM:   5    -0.230873184597E+04    0.25936E-03   -0.97702E-04  4940   0.244E-02    0.754E-02
RMM:   6    -0.230873176513E+04    0.80839E-04   -0.28753E-04  4272   0.116E-02    0.421E-02
RMM:   7    -0.230873187070E+04   -0.10557E-03   -0.49212E-05  2906   0.754E-03    0.108E-01
RMM:   8    -0.230873186106E+04    0.96419E-05   -0.10766E-05  2797   0.258E-03
  14 F= -.23287501E+04 E0= -.23287499E+04  d E =-.623337E-02  mag=     1.0000
       N       E                     dE             d eps       ncg     rms          rms(c)
DAV:   1    -0.230872952900E+04    0.23417E-02   -0.83514E-01  4416   0.885E-01    0.242E-01
RMM:   2    -0.230873608562E+04   -0.65566E-02   -0.63642E-02  5593   0.140E-01    0.280E-01
RMM:   3    -0.230873661452E+04   -0.52890E-03   -0.43920E-03  4820   0.547E-02    0.325E-01
RMM:   4    -0.230873625939E+04    0.35513E-03   -0.17374E-03  4342   0.172E-02    0.274E-01
RMM:   5    -0.230873611475E+04    0.14464E-03   -0.90212E-04  3620   0.127E-02    0.299E-01
RMM:   6    -0.230873609296E+04    0.21790E-04   -0.15368E-03  3720   0.139E-02    0.202E-01
RMM:   7    -0.230873575484E+04    0.33812E-03   -0.40213E-03  4277   0.251E-02    0.916E-02
RMM:   8    -0.230873578146E+04   -0.26619E-04   -0.48122E-04  4459   0.153E-02    0.906E-02
RMM:   9    -0.230873573514E+04    0.46320E-04   -0.29514E-04  3523   0.909E-03    0.200E-02
RMM:  10    -0.230873573386E+04    0.12788E-05   -0.22632E-05  2813   0.493E-03
  15 F= -.23287538E+04 E0= -.23287537E+04  d E =-.370374E-02  mag=     1.0000
       N       E                     dE             d eps       ncg     rms          rms(c)
DAV:   1    -0.230871771216E+04    0.18023E-01   -0.31169E+00  4368   0.171E+00    0.410E-01
RMM:   2    -0.230873991391E+04   -0.22202E-01   -0.23282E-01  5551   0.270E-01    0.225E-01
RMM:   3    -0.230874069012E+04   -0.77622E-03   -0.17216E-02  4935   0.105E-01    0.148E-01
RMM:   4    -0.230874062348E+04    0.66640E-04   -0.24294E-03  4793   0.248E-02    0.102E-01
RMM:   5    -0.230874052768E+04    0.95804E-04   -0.47017E-04  4568   0.166E-02    0.763E-02
RMM:   6    -0.230874047959E+04    0.48089E-04   -0.13763E-04  3437   0.807E-03    0.550E-02
RMM:   7    -0.230874041948E+04    0.60107E-04   -0.14437E-04  3016   0.695E-03    0.243E-02
RMM:   8    -0.230874045838E+04   -0.38892E-04   -0.36747E-05  2841   0.432E-03    0.732E-02
RMM:   9    -0.230874047488E+04   -0.16508E-04   -0.36942E-05  2813   0.383E-03    0.578E-02
RMM:  10    -0.230874048036E+04   -0.54720E-05   -0.10468E-04  2891   0.410E-03    0.239E-02
RMM:  11    -0.230874048677E+04   -0.64107E-05   -0.64154E-05  2772   0.347E-03
  16 F= -.23287582E+04 E0= -.23287581E+04  d E =-.813103E-02  mag=     1.0000
       N       E                     dE             d eps       ncg     rms          rms(c)
DAV:   1    -0.230864818641E+04    0.92294E-01   -0.12466E+01  4368   0.341E+00    0.819E-01
RMM:   2    -0.230873643922E+04   -0.88253E-01   -0.92554E-01  5623   0.543E-01    0.458E-01
RMM:   3    -0.230874024912E+04   -0.38099E-02   -0.77699E-02  5006   0.208E-01    0.296E-01
RMM:   4    -0.230873999003E+04    0.25909E-03   -0.95863E-03  5001   0.492E-02    0.202E-01
RMM:   5    -0.230873959733E+04    0.39269E-03   -0.19389E-03  5107   0.321E-02    0.118E-01
RMM:   6    -0.230873956518E+04    0.32153E-04   -0.40493E-04  4553   0.149E-02    0.109E-01
RMM:   7    -0.230873956675E+04   -0.15726E-05   -0.56920E-05  2971   0.813E-03
  17 F= -.23287566E+04 E0= -.23287566E+04  d E =-.656627E-02  mag=     1.0000
       N       E                     dE             d eps       ncg     rms          rms(c)
DAV:   1    -0.230870782530E+04    0.31740E-01   -0.46548E+00  4368   0.208E+00    0.495E-01
RMM:   2    -0.230874074558E+04   -0.32920E-01   -0.34504E-01  5594   0.329E-01    0.279E-01
RMM:   3    -0.230874210791E+04   -0.13623E-02   -0.28286E-02  4998   0.128E-01    0.216E-01
RMM:   4    -0.230874196883E+04    0.13908E-03   -0.36386E-03  5016   0.285E-02    0.161E-01
RMM:   5    -0.230874161650E+04    0.35233E-03   -0.11082E-03  4625   0.202E-02    0.112E-01
RMM:   6    -0.230874137700E+04    0.23950E-03   -0.63685E-04  4279   0.152E-02    0.808E-02
RMM:   7    -0.230874161184E+04   -0.23485E-03   -0.80674E-05  2970   0.736E-03    0.147E-01
RMM:   8    -0.230874165842E+04   -0.46571E-04   -0.97057E-05  2878   0.486E-03    0.127E-01
RMM:   9    -0.230874168667E+04   -0.28258E-04   -0.60101E-04  3473   0.870E-03    0.494E-02
RMM:  10    -0.230874170399E+04   -0.17316E-04   -0.35581E-04  3120   0.776E-03    0.995E-03
RMM:  11    -0.230874171334E+04   -0.93553E-05   -0.97616E-05  2851   0.386E-03
  18 F= -.23287592E+04 E0= -.23287591E+04  d E =-.910577E-02  mag=     1.0000
       N       E                     dE             d eps       ncg     rms          rms(c)
DAV:   1    -0.230873956752E+04    0.21365E-02   -0.96318E-01  4384   0.978E-01    0.307E-01
RMM:   2    -0.230874713527E+04   -0.75677E-02   -0.81378E-02  5667   0.165E-01    0.141E-01
RMM:   3    -0.230874725199E+04   -0.11672E-03   -0.52242E-03  5029   0.597E-02    0.893E-02
RMM:   4    -0.230874720496E+04    0.47025E-04   -0.86289E-04  4593   0.161E-02    0.620E-02
RMM:   5    -0.230874714137E+04    0.63589E-04   -0.22870E-04  4384   0.131E-02    0.266E-02
RMM:   6    -0.230874714232E+04   -0.95296E-06   -0.27063E-05  2833   0.536E-03
  19 F= -.23287642E+04 E0= -.23287641E+04  d E =-.504296E-02  mag=     1.0000
       N       E                     dE             d eps       ncg     rms          rms(c)
DAV:   1    -0.230873999607E+04    0.71453E-02   -0.11141E+00  4384   0.105E+00    0.334E-01
RMM:   2    -0.230874877678E+04   -0.87807E-02   -0.94361E-02  5643   0.177E-01    0.155E-01
RMM:   3    -0.230874888068E+04   -0.10390E-03   -0.57320E-03  5095   0.598E-02    0.112E-01
RMM:   4    -0.230874883553E+04    0.45148E-04   -0.10355E-03  4708   0.166E-02    0.827E-02
RMM:   5    -0.230874874623E+04    0.89303E-04   -0.32695E-04  4357   0.132E-02    0.723E-02
RMM:   6    -0.230874869752E+04    0.48705E-04   -0.95064E-05  2926   0.683E-03    0.502E-02
RMM:   7    -0.230874865972E+04    0.37800E-04   -0.21558E-04  3287   0.706E-03    0.742E-02
RMM:   8    -0.230874871530E+04   -0.55579E-04   -0.86296E-05  2870   0.546E-03    0.660E-02
RMM:   9    -0.230874872117E+04   -0.58651E-05   -0.10973E-04  2899   0.494E-03    0.323E-02
RMM:  10    -0.230874872704E+04   -0.58693E-05   -0.96397E-05  2869   0.433E-03
  20 F= -.23287654E+04 E0= -.23287653E+04  d E =-.620995E-02  mag=     1.0000
       N       E                     dE             d eps       ncg     rms          rms(c)
DAV:   1    -0.230874365265E+04    0.50685E-02   -0.99769E-01  4384   0.960E-01    0.274E-01
RMM:   2    -0.230875264321E+04   -0.89906E-02   -0.95202E-02  5744   0.160E-01    0.144E-01
RMM:   3    -0.230875294766E+04   -0.30445E-03   -0.62923E-03  5052   0.565E-02    0.899E-02
RMM:   4    -0.230875291041E+04    0.37249E-04   -0.95905E-04  4456   0.152E-02    0.569E-02
RMM:   5    -0.230875288618E+04    0.24226E-04   -0.15274E-04  3837   0.111E-02    0.473E-02
RMM:   6    -0.230875287625E+04    0.99352E-05   -0.29800E-05  2828   0.475E-03
  21 F= -.23287692E+04 E0= -.23287691E+04  d E =-.378539E-02  mag=     1.0000
       N       E                     dE             d eps       ncg     rms          rms(c)
DAV:   1    -0.230874097441E+04    0.11912E-01   -0.14900E+00  4384   0.117E+00    0.337E-01
RMM:   2    -0.230875435604E+04   -0.13382E-01   -0.14188E-01  5762   0.196E-01    0.185E-01
RMM:   3    -0.230875485442E+04   -0.49838E-03   -0.10091E-02  5148   0.687E-02    0.118E-01
RMM:   4    -0.230875482509E+04    0.29334E-04   -0.15016E-03  4637   0.184E-02    0.951E-02
RMM:   5    -0.230875476403E+04    0.61058E-04   -0.30969E-04  4155   0.135E-02    0.780E-02
RMM:   6    -0.230875475802E+04    0.60117E-05   -0.86318E-05  2849   0.532E-03
  22 F= -.23287706E+04 E0= -.23287705E+04  d E =-.522192E-02  mag=     1.0000
       N       E                     dE             d eps       ncg     rms          rms(c)
DAV:   1    -0.230875470761E+04    0.56425E-04   -0.42237E-01  4416   0.635E-01    0.227E-01
RMM:   2    -0.230875820986E+04   -0.35023E-02   -0.38111E-02  5784   0.112E-01    0.130E-01
RMM:   3    -0.230875823833E+04   -0.28467E-04   -0.30361E-03  4854   0.396E-02    0.839E-02
RMM:   4    -0.230875816419E+04    0.74143E-04   -0.61704E-04  4399   0.146E-02    0.472E-02
RMM:   5    -0.230875825402E+04   -0.89833E-04   -0.68415E-05  2962   0.843E-03    0.101E-01
RMM:   6    -0.230875825072E+04    0.33035E-05   -0.11246E-05  2810   0.295E-03
  23 F= -.23287739E+04 E0= -.23287738E+04  d E =-.326247E-02  mag=     1.0000
       N       E                     dE             d eps       ncg     rms          rms(c)
DAV:   1    -0.230875120460E+04    0.70494E-02   -0.87187E-01  4384   0.913E-01    0.322E-01
RMM:   2    -0.230875897639E+04   -0.77718E-02   -0.80147E-02  5636   0.161E-01    0.260E-01
RMM:   3    -0.230875944205E+04   -0.46565E-03   -0.61967E-03  4872   0.591E-02    0.286E-01
RMM:   4    -0.230875954461E+04   -0.10256E-03   -0.72424E-04  3685   0.112E-02    0.291E-01
RMM:   5    -0.230875908776E+04    0.45685E-03   -0.68581E-04  3673   0.115E-02    0.193E-01
RMM:   6    -0.230875859007E+04    0.49769E-03   -0.25451E-03  4429   0.228E-02    0.169E-01
RMM:   7    -0.230875875710E+04   -0.16704E-03   -0.35070E-04  4145   0.156E-02    0.181E-01
RMM:   8    -0.230875867186E+04    0.85246E-04   -0.10293E-03  3934   0.130E-02    0.318E-02
RMM:   9    -0.230875868200E+04   -0.10143E-04   -0.21956E-04  3000   0.817E-03    0.106E-02
RMM:  10    -0.230875868457E+04   -0.25656E-05   -0.61849E-05  2820   0.386E-03
  24 F= -.23287740E+04 E0= -.23287739E+04  d E =-.336656E-02  mag=     1.0000
       N       E                     dE             d eps       ncg     rms          rms(c)
DAV:   1    -0.230875748942E+04    0.11926E-02   -0.19777E-01  4416   0.434E-01    0.143E-01
RMM:   2    -0.230875915409E+04   -0.16647E-02   -0.17877E-02  5798   0.765E-02    0.720E-02
RMM:   3    -0.230875919666E+04   -0.42572E-04   -0.12842E-03  4516   0.267E-02    0.501E-02
RMM:   4    -0.230875917894E+04    0.17717E-04   -0.23815E-04  3795   0.877E-03    0.405E-02
RMM:   5    -0.230875916628E+04    0.12667E-04   -0.46605E-05  2828   0.659E-03    0.343E-02
RMM:   6    -0.230875913891E+04    0.27365E-04   -0.94816E-05  2913   0.473E-03    0.192E-02
RMM:   7    -0.230875915385E+04   -0.14937E-04   -0.15548E-05  2831   0.332E-03    0.412E-02
RMM:   8    -0.230875916537E+04   -0.11517E-04   -0.33180E-05  2794   0.287E-03    0.327E-02
RMM:   9    -0.230875916776E+04   -0.23895E-05   -0.54626E-05  2784   0.317E-03
  25 F= -.23287746E+04 E0= -.23287746E+04  d E =-.400662E-02  mag=     1.0000
       N       E                     dE             d eps       ncg     rms          rms(c)
DAV:   1    -0.230875838372E+04    0.78165E-03   -0.43228E-01  4384   0.639E-01    0.194E-01
RMM:   2    -0.230876227792E+04   -0.38942E-02   -0.41116E-02  5887   0.115E-01    0.107E-01
RMM:   3    -0.230876241221E+04   -0.13429E-03   -0.31003E-03  4830   0.374E-02    0.785E-02
RMM:   4    -0.230876239537E+04    0.16840E-04   -0.50191E-04  3814   0.104E-02    0.677E-02
RMM:   5    -0.230876236668E+04    0.28690E-04   -0.11123E-04  3011   0.768E-03    0.655E-02
RMM:   6    -0.230876233385E+04    0.32824E-04   -0.64425E-05  2849   0.520E-03    0.467E-02
RMM:   7    -0.230876229822E+04    0.35631E-04   -0.18737E-04  3165   0.647E-03    0.647E-02
RMM:   8    -0.230876234097E+04   -0.42748E-04   -0.92266E-05  2862   0.552E-03    0.515E-02
RMM:   9    -0.230876234596E+04   -0.49901E-05   -0.10085E-04  2888   0.464E-03    0.188E-02
RMM:  10    -0.230876234864E+04   -0.26842E-05   -0.51518E-05  2813   0.375E-03
  26 F= -.23287776E+04 E0= -.23287776E+04  d E =-.303535E-02  mag=     1.0000
       N       E                     dE             d eps       ncg     rms          rms(c)
DAV:   1    -0.230875606841E+04    0.62775E-02   -0.87496E-01  4384   0.910E-01    0.277E-01
RMM:   2    -0.230876396842E+04   -0.79000E-02   -0.83451E-02  5849   0.164E-01    0.150E-01
RMM:   3    -0.230876423781E+04   -0.26940E-03   -0.64830E-03  5098   0.536E-02    0.105E-01
RMM:   4    -0.230876418382E+04    0.53992E-04   -0.10054E-03  4277   0.146E-02    0.755E-02
RMM:   5    -0.230876411992E+04    0.63905E-04   -0.24180E-04  3875   0.112E-02    0.579E-02
RMM:   6    -0.230876406375E+04    0.56165E-04   -0.15765E-04  3167   0.832E-03    0.289E-02
RMM:   7    -0.230876410827E+04   -0.44522E-04   -0.26169E-05  2822   0.489E-03    0.663E-02
RMM:   8    -0.230876411946E+04   -0.11182E-04   -0.20303E-05  2803   0.310E-03    0.569E-02
RMM:   9    -0.230876412273E+04   -0.32743E-05   -0.11145E-04  2892   0.435E-03    0.200E-02
RMM:  10    -0.230876412454E+04   -0.18149E-05   -0.48526E-05  2816   0.328E-03
  27 F= -.23287792E+04 E0= -.23287792E+04  d E =-.460656E-02  mag=     1.0000
       N       E                     dE             d eps       ncg     rms          rms(c)
DAV:   1    -0.230876142466E+04    0.26981E-02   -0.68757E-01  4384   0.814E-01    0.235E-01
RMM:   2    -0.230876694587E+04   -0.55212E-02   -0.58235E-02  5760   0.140E-01    0.122E-01
RMM:   3    -0.230876713409E+04   -0.18822E-03   -0.42799E-03  4952   0.496E-02    0.896E-02
RMM:   4    -0.230876709678E+04    0.37313E-04   -0.69858E-04  4230   0.134E-02    0.668E-02
RMM:   5    -0.230876705010E+04    0.46684E-04   -0.15725E-04  3424   0.957E-03    0.532E-02
RMM:   6    -0.230876699763E+04    0.52469E-04   -0.13596E-04  3073   0.748E-03    0.288E-02
RMM:   7    -0.230876703841E+04   -0.40779E-04   -0.20615E-05  2807   0.464E-03    0.622E-02
RMM:   8    -0.230876704964E+04   -0.11235E-04   -0.26001E-05  2804   0.315E-03    0.505E-02
RMM:   9    -0.230876705214E+04   -0.25031E-05   -0.10388E-04  2884   0.420E-03    0.137E-02
RMM:  10    -0.230876705422E+04   -0.20714E-05   -0.34634E-05  2757   0.292E-03
  28 F= -.23287819E+04 E0= -.23287819E+04  d E =-.269037E-02  mag=     1.0000
       N       E                     dE             d eps       ncg     rms          rms(c)
DAV:   1    -0.230876529239E+04    0.17598E-02   -0.29743E-01  4416   0.535E-01    0.154E-01
RMM:   2    -0.230876768275E+04   -0.23904E-02   -0.25224E-02  5742   0.917E-02    0.800E-02
RMM:   3    -0.230876775870E+04   -0.75947E-04   -0.17973E-03  4566   0.338E-02    0.572E-02
RMM:   4    -0.230876773924E+04    0.19461E-04   -0.31831E-04  3756   0.934E-03    0.407E-02
RMM:   5    -0.230876771432E+04    0.24919E-04   -0.67993E-05  2998   0.703E-03    0.266E-02
RMM:   6    -0.230876770513E+04    0.91907E-05   -0.47407E-05  2844   0.520E-03
  29 F= -.23287824E+04 E0= -.23287824E+04  d E =-.318473E-02  mag=     1.0000
       N       E                     dE             d eps       ncg     rms          rms(c)
DAV:   1    -0.230876395113E+04    0.37632E-02   -0.80523E-01  4384   0.873E-01    0.237E-01
RMM:   2    -0.230877047385E+04   -0.65227E-02   -0.68930E-02  5757   0.144E-01    0.132E-01
RMM:   3    -0.230877073519E+04   -0.26134E-03   -0.50943E-03  4921   0.556E-02    0.886E-02
RMM:   4    -0.230877070427E+04    0.30915E-04   -0.77109E-04  4376   0.140E-02    0.720E-02
RMM:   5    -0.230877061640E+04    0.87871E-04   -0.23419E-04  4028   0.110E-02    0.282E-02
RMM:   6    -0.230877062867E+04   -0.12264E-04   -0.41256E-05  2871   0.581E-03    0.452E-02
RMM:   7    -0.230877064587E+04   -0.17204E-04   -0.97301E-06  2791   0.384E-03    0.537E-02
RMM:   8    -0.230877064591E+04   -0.34284E-07   -0.18286E-06  2769   0.159E-03
  30 F= -.23287850E+04 E0= -.23287850E+04  d E =-.262919E-02  mag=     1.0000
       N       E                     dE             d eps       ncg     rms          rms(c)
DAV:   1    -0.230876547062E+04    0.51753E-02   -0.75312E-01  4384   0.845E-01    0.234E-01
RMM:   2    -0.230877170283E+04   -0.62322E-02   -0.65325E-02  5631   0.139E-01    0.136E-01
RMM:   3    -0.230877196316E+04   -0.26034E-03   -0.44144E-03  4837   0.525E-02    0.126E-01
RMM:   4    -0.230877196868E+04   -0.55218E-05   -0.60136E-04  3836   0.110E-02    0.117E-01
RMM:   5    -0.230877188501E+04    0.83668E-04   -0.21250E-04  3224   0.885E-03    0.105E-01
RMM:   6    -0.230877166544E+04    0.21957E-03   -0.75267E-04  3849   0.118E-02    0.769E-02
RMM:   7    -0.230877178636E+04   -0.12091E-03   -0.70325E-05  2946   0.636E-03    0.108E-01
RMM:   8    -0.230877180591E+04   -0.19549E-04   -0.29379E-04  3222   0.793E-03    0.428E-02
RMM:   9    -0.230877181769E+04   -0.11785E-04   -0.18848E-04  2953   0.647E-03    0.822E-03
RMM:  10    -0.230877182180E+04   -0.41072E-05   -0.44066E-05  2815   0.373E-03
  31 F= -.23287859E+04 E0= -.23287859E+04  d E =-.350477E-02  mag=     1.0000
       N       E                     dE             d eps       ncg     rms          rms(c)
DAV:   1    -0.230876956237E+04    0.22553E-02   -0.52163E-01  4384   0.691E-01    0.186E-01
RMM:   2    -0.230877405249E+04   -0.44901E-02   -0.47357E-02  5726   0.115E-01    0.990E-02
RMM:   3    -0.230877422205E+04   -0.16956E-03   -0.31669E-03  4796   0.415E-02    0.670E-02
RMM:   4    -0.230877421114E+04    0.10910E-04   -0.49562E-04  4054   0.106E-02    0.476E-02
RMM:   5    -0.230877418091E+04    0.30235E-04   -0.93946E-05  3101   0.811E-03    0.320E-02
RMM:   6    -0.230877416694E+04    0.13966E-04   -0.49971E-05  2850   0.534E-03    0.241E-02
RMM:   7    -0.230877418164E+04   -0.14703E-04   -0.10306E-05  2797   0.366E-03    0.394E-02
RMM:   8    -0.230877418502E+04   -0.33794E-05   -0.11104E-05  2771   0.232E-03
  32 F= -.23287880E+04 E0= -.23287880E+04  d E =-.212848E-02  mag=     1.0000
       N       E                     dE             d eps       ncg     rms          rms(c)
DAV:   1    -0.230875697689E+04    0.17205E-01   -0.21753E+00  4368   0.141E+00    0.379E-01
RMM:   2    -0.230877556009E+04   -0.18583E-01   -0.19641E-01  5701   0.236E-01    0.203E-01
RMM:   3    -0.230877645103E+04   -0.89095E-03   -0.14989E-02  5003   0.919E-02    0.142E-01
RMM:   4    -0.230877641312E+04    0.37913E-04   -0.21074E-03  4848   0.211E-02    0.100E-01
RMM:   5    -0.230877627345E+04    0.13967E-03   -0.44650E-04  4447   0.150E-02    0.648E-02
RMM:   6    -0.230877620835E+04    0.65104E-04   -0.15756E-04  3609   0.866E-03    0.322E-02
RMM:   7    -0.230877625637E+04   -0.48022E-04   -0.26156E-05  2832   0.544E-03    0.653E-02
RMM:   8    -0.230877626501E+04   -0.86427E-05   -0.18535E-05  2796   0.301E-03
  33 F= -.23287896E+04 E0= -.23287896E+04  d E =-.373316E-02  mag=     1.0000
       N       E                     dE             d eps       ncg     rms          rms(c)
DAV:   1    -0.230876948224E+04    0.67741E-02   -0.91888E-01  4368   0.900E-01    0.258E-01
RMM:   2    -0.230877825331E+04   -0.87711E-02   -0.92360E-02  5764   0.154E-01    0.137E-01
RMM:   3    -0.230877875824E+04   -0.50493E-03   -0.75501E-03  4975   0.587E-02    0.956E-02
RMM:   4    -0.230877876236E+04   -0.41226E-05   -0.10041E-03  4338   0.140E-02    0.678E-02
RMM:   5    -0.230877869838E+04    0.63981E-04   -0.17412E-04  3793   0.985E-03    0.360E-02
RMM:   6    -0.230877868750E+04    0.10878E-04   -0.55049E-05  2941   0.672E-03    0.242E-02
RMM:   7    -0.230877870048E+04   -0.12979E-04   -0.10245E-05  2803   0.440E-03    0.360E-02
RMM:   8    -0.230877870112E+04   -0.63318E-06   -0.23998E-06  2767   0.199E-03
  34 F= -.23287917E+04 E0= -.23287917E+04  d E =-.206468E-02  mag=     1.0000
       N       E                     dE             d eps       ncg     rms          rms(c)
DAV:   1    -0.230877352988E+04    0.51706E-02   -0.59353E-01  4384   0.723E-01    0.208E-01
RMM:   2    -0.230877922478E+04   -0.56949E-02   -0.59957E-02  5795   0.124E-01    0.110E-01
RMM:   3    -0.230877950859E+04   -0.28381E-03   -0.45066E-03  4880   0.461E-02    0.729E-02
RMM:   4    -0.230877950861E+04   -0.15600E-07   -0.63882E-04  4084   0.116E-02    0.525E-02
RMM:   5    -0.230877947156E+04    0.37054E-04   -0.11002E-04  3369   0.834E-03    0.291E-02
RMM:   6    -0.230877946403E+04    0.75243E-05   -0.29538E-05  2821   0.554E-03
  35 F= -.23287922E+04 E0= -.23287922E+04  d E =-.253148E-02  mag=     1.0000
       N       E                     dE             d eps       ncg     rms          rms(c)
DAV:   1    -0.230877364530E+04    0.58263E-02   -0.70278E-01  4376   0.775E-01    0.240E-01
RMM:   2    -0.230878130350E+04   -0.76582E-02   -0.80624E-02  6009   0.141E-01    0.127E-01
RMM:   3    -0.230878171472E+04   -0.41122E-03   -0.63055E-03  5110   0.490E-02    0.813E-02
RMM:   4    -0.230878170043E+04    0.14291E-04   -0.87682E-04  4155   0.131E-02    0.532E-02
RMM:   5    -0.230878167870E+04    0.21736E-04   -0.13349E-04  3400   0.862E-03    0.304E-02
RMM:   6    -0.230878167247E+04    0.62288E-05   -0.40717E-05  2913   0.611E-03
  36 F= -.23287941E+04 E0= -.23287941E+04  d E =-.190191E-02  mag=     1.0000
       N       E                     dE             d eps       ncg     rms          rms(c)
DAV:   1    -0.230877598032E+04    0.56984E-02   -0.55610E-01  4376   0.690E-01    0.216E-01
RMM:   2    -0.230878206013E+04   -0.60798E-02   -0.64082E-02  6024   0.126E-01    0.116E-01
RMM:   3    -0.230878239487E+04   -0.33474E-03   -0.50774E-03  5052   0.452E-02    0.766E-02
RMM:   4    -0.230878238334E+04    0.11525E-04   -0.69469E-04  3974   0.115E-02    0.506E-02
RMM:   5    -0.230878236766E+04    0.15678E-04   -0.11223E-04  3284   0.801E-03    0.371E-02
RMM:   6    -0.230878234746E+04    0.20198E-04   -0.56446E-05  2889   0.629E-03    0.173E-02
RMM:   7    -0.230878235633E+04   -0.88627E-05   -0.10486E-05  2804   0.410E-03
  37 F= -.23287945E+04 E0= -.23287945E+04  d E =-.231523E-02  mag=     1.0000
       N       E                     dE             d eps       ncg     rms          rms(c)
DAV:   1    -0.230877593058E+04    0.64169E-02   -0.66571E-01  4376   0.741E-01    0.240E-01
RMM:   2    -0.230878381469E+04   -0.78841E-02   -0.83069E-02  5884   0.135E-01    0.128E-01
RMM:   3    -0.230878426005E+04   -0.44536E-03   -0.66679E-03  4998   0.489E-02    0.802E-02
RMM:   4    -0.230878426011E+04   -0.66051E-07   -0.89571E-04  4066   0.123E-02    0.535E-02
RMM:   5    -0.230878423851E+04    0.21602E-04   -0.12993E-04  3316   0.812E-03    0.339E-02
RMM:   6    -0.230878422602E+04    0.12497E-04   -0.47743E-05  2919   0.608E-03    0.112E-02
RMM:   7    -0.230878422650E+04   -0.48032E-06   -0.92932E-06  2817   0.415E-03
  38 F= -.23287960E+04 E0= -.23287960E+04  d E =-.154937E-02  mag=     1.0000
       N       E                     dE             d eps       ncg     rms          rms(c)
DAV:   1    -0.230877873716E+04    0.54889E-02   -0.49613E-01  4376   0.640E-01    0.206E-01
RMM:   2    -0.230878463603E+04   -0.58989E-02   -0.62038E-02  5825   0.117E-01    0.111E-01
RMM:   3    -0.230878495113E+04   -0.31510E-03   -0.46903E-03  4888   0.415E-02    0.737E-02
RMM:   4    -0.230878494239E+04    0.87367E-05   -0.67394E-04  3704   0.106E-02    0.484E-02
RMM:   5    -0.230878492425E+04    0.18148E-04   -0.10520E-04  3171   0.753E-03    0.311E-02
RMM:   6    -0.230878491553E+04    0.87175E-05   -0.44843E-05  2860   0.581E-03
  39 F= -.23287965E+04 E0= -.23287964E+04  d E =-.196398E-02  mag=     1.0000
       N       E                     dE             d eps       ncg     rms          rms(c)
DAV:   1    -0.230878130222E+04    0.36220E-02   -0.40632E-01  4384   0.578E-01    0.194E-01
RMM:   2    -0.230878626366E+04   -0.49614E-02   -0.52384E-02  5998   0.107E-01    0.106E-01
RMM:   3    -0.230878653225E+04   -0.26858E-03   -0.41093E-03  4936   0.398E-02    0.661E-02
RMM:   4    -0.230878653195E+04    0.29644E-06   -0.59118E-04  3763   0.107E-02    0.456E-02
RMM:   5    -0.230878650966E+04    0.22291E-04   -0.93182E-05  3181   0.749E-03    0.327E-02
RMM:   6    -0.230878651061E+04   -0.94603E-06   -0.20850E-05  2823   0.490E-03
  40 F= -.23287978E+04 E0= -.23287978E+04  d E =-.131787E-02  mag=     1.0000
       N       E                     dE             d eps       ncg     rms          rms(c)
DAV:   1    -0.230878512445E+04    0.13852E-02   -0.13308E-01  4480   0.331E-01    0.117E-01
RMM:   2    -0.230878677196E+04   -0.16475E-02   -0.17347E-02  6019   0.611E-02    0.709E-02
RMM:   3    -0.230878683662E+04   -0.64655E-04   -0.11902E-03  3823   0.235E-02    0.487E-02
RMM:   4    -0.230878681908E+04    0.17542E-04   -0.22742E-04  3222   0.756E-03    0.298E-02
RMM:   5    -0.230878682153E+04   -0.24518E-05   -0.36368E-05  2877   0.533E-03
  41 F= -.23287979E+04 E0= -.23287979E+04  d E =-.147098E-02  mag=     1.0000
       N       E                     dE             d eps       ncg     rms          rms(c)
DAV:   1    -0.230878186267E+04    0.49564E-02   -0.54393E-01  4384   0.682E-01    0.214E-01
RMM:   2    -0.230878820375E+04   -0.63411E-02   -0.66507E-02  5834   0.121E-01    0.121E-01
RMM:   3    -0.230878851101E+04   -0.30725E-03   -0.48803E-03  4837   0.484E-02    0.744E-02
RMM:   4    -0.230878847657E+04    0.34430E-04   -0.69128E-04  4143   0.118E-02    0.401E-02
RMM:   5    -0.230878848694E+04   -0.10367E-04   -0.68224E-05  2960   0.829E-03    0.483E-02
RMM:   6    -0.230878848841E+04   -0.14666E-05   -0.11390E-05  2809   0.382E-03
  42 F= -.23287993E+04 E0= -.23287993E+04  d E =-.138845E-02  mag=     1.0000
       N       E                     dE             d eps       ncg     rms          rms(c)
DAV:   1    -0.230878108234E+04    0.74046E-02   -0.67294E-01  4368   0.759E-01    0.242E-01
RMM:   2    -0.230878894402E+04   -0.78617E-02   -0.82465E-02  5728   0.134E-01    0.135E-01
RMM:   3    -0.230878929868E+04   -0.35466E-03   -0.58420E-03  4876   0.534E-02    0.919E-02
RMM:   4    -0.230878924338E+04    0.55301E-04   -0.95099E-04  4192   0.132E-02    0.519E-02
RMM:   5    -0.230878922136E+04    0.22015E-04   -0.13539E-04  3488   0.101E-02    0.372E-02
RMM:   6    -0.230878924513E+04   -0.23763E-04   -0.23764E-05  2840   0.448E-03    0.532E-02
RMM:   7    -0.230878924502E+04    0.10627E-06   -0.48106E-06  2794   0.257E-03
  43 F= -.23287998E+04 E0= -.23287998E+04  d E =-.183828E-02  mag=     1.0000
       N       E                     dE             d eps       ncg     rms          rms(c)
DAV:   1    -0.230878654694E+04    0.26982E-02   -0.34168E-01  4384   0.540E-01    0.165E-01
RMM:   2    -0.230879040198E+04   -0.38550E-02   -0.40473E-02  5735   0.941E-02    0.974E-02
RMM:   3    -0.230879059299E+04   -0.19101E-03   -0.29850E-03  4547   0.379E-02    0.616E-02
RMM:   4    -0.230879057348E+04    0.19516E-04   -0.44323E-04  3892   0.933E-03    0.361E-02
RMM:   5    -0.230879057090E+04    0.25732E-05   -0.73310E-05  2959   0.707E-03
  44 F= -.23288009E+04 E0= -.23288009E+04  d E =-.110758E-02  mag=     1.0000
       N       E                     dE             d eps       ncg     rms          rms(c)
DAV:   1    -0.230876241508E+04    0.28158E-01   -0.24758E+00  4368   0.145E+00    0.434E-01
RMM:   2    -0.230879040115E+04   -0.27986E-01   -0.29398E-01  5715   0.254E-01    0.238E-01
RMM:   3    -0.230879188161E+04   -0.14805E-02   -0.22348E-02  5043   0.101E-01    0.159E-01
RMM:   4    -0.230879186772E+04    0.13890E-04   -0.30691E-03  4950   0.226E-02    0.111E-01
RMM:   5    -0.230879169685E+04    0.17087E-03   -0.58925E-04  4682   0.162E-02    0.538E-02
RMM:   6    -0.230879167366E+04    0.23186E-04   -0.10587E-04  3584   0.861E-03    0.363E-02
RMM:   7    -0.230879169923E+04   -0.25570E-04   -0.21101E-05  2815   0.518E-03    0.505E-02
RMM:   8    -0.230879169978E+04   -0.54293E-06   -0.45200E-06  2794   0.227E-03
  45 F= -.23288014E+04 E0= -.23288014E+04  d E =-.165777E-02  mag=     1.0000
       N       E                     dE             d eps       ncg     rms          rms(c)
DAV:   1    -0.230878879004E+04    0.29092E-02   -0.24988E-01  4416   0.462E-01    0.136E-01
RMM:   2    -0.230879160209E+04   -0.28120E-02   -0.29409E-02  5829   0.815E-02    0.747E-02
RMM:   3    -0.230879175023E+04   -0.14814E-03   -0.23077E-03  4408   0.301E-02    0.477E-02
RMM:   4    -0.230879174304E+04    0.71929E-05   -0.30965E-04  3052   0.748E-03    0.300E-02
RMM:   5    -0.230879173549E+04    0.75472E-05   -0.44205E-05  2948   0.541E-03
  46 F= -.23288016E+04 E0= -.23288016E+04  d E =-.187603E-02  mag=     1.0000
       N       E                     dE             d eps       ncg     rms          rms(c)
DAV:   1    -0.230878873091E+04    0.30121E-02   -0.37403E-01  4368   0.567E-01    0.171E-01
RMM:   2    -0.230879279024E+04   -0.40593E-02   -0.42469E-02  5725   0.989E-02    0.906E-02
RMM:   3    -0.230879294726E+04   -0.15702E-03   -0.28023E-03  4774   0.367E-02    0.553E-02
RMM:   4    -0.230879293065E+04    0.16604E-04   -0.42998E-04  3978   0.970E-03    0.296E-02
RMM:   5    -0.230879293124E+04   -0.58614E-06   -0.37911E-05  2846   0.666E-03
  47 F= -.23288026E+04 E0= -.23288026E+04  d E =-.100225E-02  mag=     1.0000
       N       E                     dE             d eps       ncg     rms          rms(c)
DAV:   1    -0.230878018509E+04    0.12746E-01   -0.11557E+00  4368   0.997E-01    0.305E-01
RMM:   2    -0.230879285276E+04   -0.12668E-01   -0.13296E-01  5704   0.174E-01    0.162E-01
RMM:   3    -0.230879348995E+04   -0.63719E-03   -0.99836E-03  4956   0.711E-02    0.104E-01
RMM:   4    -0.230879346664E+04    0.23310E-04   -0.14523E-03  4540   0.168E-02    0.693E-02
RMM:   5    -0.230879341410E+04    0.52535E-04   -0.24189E-04  4176   0.121E-02    0.310E-02
RMM:   6    -0.230879341592E+04   -0.18162E-05   -0.39310E-05  2885   0.554E-03
  48 F= -.23288028E+04 E0= -.23288028E+04  d E =-.114997E-02  mag=     1.0000
       N       E                     dE             d eps       ncg     rms          rms(c)
DAV:   1    -0.230879186387E+04    0.15502E-02   -0.14634E-01  4416   0.354E-01    0.111E-01
RMM:   2    -0.230879342229E+04   -0.15584E-02   -0.16333E-02  6088   0.629E-02    0.644E-02
RMM:   3    -0.230879349057E+04   -0.68278E-04   -0.13484E-03  3923   0.228E-02    0.403E-02
RMM:   4    -0.230879347717E+04    0.13401E-04   -0.18772E-04  2945   0.669E-03    0.226E-02
RMM:   5    -0.230879348054E+04   -0.33712E-05   -0.28806E-05  2861   0.478E-03
  49 F= -.23288030E+04 E0= -.23288030E+04  d E =-.133348E-02  mag=     1.0000
       N       E                     dE             d eps       ncg     rms          rms(c)
DAV:   1    -0.230878929034E+04    0.41868E-02   -0.47400E-01  4368   0.632E-01    0.191E-01
RMM:   2    -0.230879440323E+04   -0.51129E-02   -0.53460E-02  5734   0.110E-01    0.104E-01
RMM:   3    -0.230879463759E+04   -0.23437E-03   -0.37904E-03  4715   0.432E-02    0.695E-02
RMM:   4    -0.230879459913E+04    0.38457E-04   -0.57226E-04  4021   0.109E-02    0.385E-02
RMM:   5    -0.230879459277E+04    0.63610E-05   -0.74420E-05  3018   0.760E-03
  50 F= -.23288039E+04 E0= -.23288039E+04  d E =-.904267E-03  mag=     1.0000
       N       E                     dE             d eps       ncg     rms          rms(c)
DAV:   1    -0.230878838149E+04    0.62176E-02   -0.58243E-01  4368   0.700E-01    0.216E-01
RMM:   2    -0.230879461811E+04   -0.62366E-02   -0.65320E-02  5758   0.122E-01    0.122E-01
RMM:   3    -0.230879492317E+04   -0.30506E-03   -0.50897E-03  4887   0.491E-02    0.763E-02
RMM:   4    -0.230879490533E+04    0.17838E-04   -0.73331E-04  4151   0.121E-02    0.486E-02
RMM:   5    -0.230879489237E+04    0.12962E-04   -0.11914E-04  3281   0.840E-03    0.410E-02
RMM:   6    -0.230879489368E+04   -0.13097E-05   -0.23090E-05  2831   0.484E-03
  51 F= -.23288039E+04 E0= -.23288039E+04  d E =-.977232E-03  mag=     1.0000
       N       E                     dE             d eps       ncg     rms          rms(c)
DAV:   1    -0.230879419958E+04    0.69280E-03   -0.65001E-02  4496   0.234E-01    0.761E-02
RMM:   2    -0.230879489147E+04   -0.69190E-03   -0.72146E-03  5964   0.412E-02    0.485E-02
RMM:   3    -0.230879491483E+04   -0.23355E-04   -0.55972E-04  3250   0.160E-02    0.338E-02
RMM:   4    -0.230879489714E+04    0.17693E-04   -0.10319E-04  2878   0.505E-03    0.188E-02
RMM:   5    -0.230879490682E+04   -0.96819E-05   -0.13989E-05  2784   0.344E-03
  52 F= -.23288040E+04 E0= -.23288040E+04  d E =-.106590E-02  mag=     1.0000
       N       E                     dE             d eps       ncg     rms          rms(c)
DAV:   1    -0.230879020665E+04    0.46905E-02   -0.52616E-01  4368   0.664E-01    0.202E-01
RMM:   2    -0.230879579174E+04   -0.55851E-02   -0.58676E-02  5750   0.117E-01    0.106E-01
RMM:   3    -0.230879605441E+04   -0.26267E-03   -0.42610E-03  4768   0.413E-02    0.651E-02
RMM:   4    -0.230879604301E+04    0.11396E-04   -0.62038E-04  4031   0.111E-02    0.430E-02
RMM:   5    -0.230879602510E+04    0.17909E-04   -0.95244E-05  3114   0.772E-03    0.247E-02
RMM:   6    -0.230879602018E+04    0.49164E-05   -0.23326E-05  2849   0.497E-03
  53 F= -.23288049E+04 E0= -.23288049E+04  d E =-.871043E-03  mag=     1.0000
       N       E                     dE             d eps       ncg     rms          rms(c)
DAV:   1    -0.230879495418E+04    0.10709E-02   -0.11160E-01  4384   0.306E-01    0.952E-02
RMM:   2    -0.230879614534E+04   -0.11912E-02   -0.12506E-02  6103   0.548E-02    0.545E-02
RMM:   3    -0.230879618726E+04   -0.41923E-04   -0.77487E-04  3616   0.175E-02    0.346E-02
RMM:   4    -0.230879618129E+04    0.59685E-05   -0.12840E-04  2884   0.598E-03    0.213E-02
RMM:   5    -0.230879618370E+04   -0.24113E-05   -0.18644E-05  2840   0.423E-03
  54 F= -.23288050E+04 E0= -.23288050E+04  d E =-.923902E-03  mag=     1.0000
       N       E                     dE             d eps       ncg     rms          rms(c)
DAV:   1    -0.230879364469E+04    0.25366E-02   -0.29575E-01  4368   0.512E-01    0.160E-01
RMM:   2    -0.230879672889E+04   -0.30842E-02   -0.32506E-02  5808   0.905E-02    0.848E-02
RMM:   3    -0.230879686318E+04   -0.13429E-03   -0.23514E-03  4636   0.343E-02    0.516E-02
RMM:   4    -0.230879684634E+04    0.16844E-04   -0.35205E-04  3954   0.949E-03    0.268E-02
RMM:   5    -0.230879684490E+04    0.14389E-05   -0.33212E-05  2861   0.680E-03
  55 F= -.23288055E+04 E0= -.23288055E+04  d E =-.545610E-03  mag=     1.0000
       N       E                     dE             d eps       ncg     rms          rms(c)
DAV:   1    -0.230879658929E+04    0.25705E-03   -0.25901E-02  4736   0.152E-01    0.518E-02
RMM:   2    -0.230879686502E+04   -0.27574E-03   -0.29321E-03  5867   0.279E-02    0.307E-02
RMM:   3    -0.230879687670E+04   -0.11674E-04   -0.23379E-04  2946   0.115E-02    0.192E-02
RMM:   4    -0.230879687618E+04    0.51668E-06   -0.37960E-05  2841   0.369E-03
  56 F= -.23288055E+04 E0= -.23288055E+04  d E =-.542811E-03  mag=     1.0000
       N       E                     dE             d eps       ncg     rms          rms(c)
DAV:   1    -0.230879386546E+04    0.30112E-02   -0.32856E-01  4368   0.546E-01    0.168E-01
RMM:   2    -0.230879733668E+04   -0.34712E-02   -0.36518E-02  5760   0.955E-02    0.892E-02
RMM:   3    -0.230879745094E+04   -0.11426E-03   -0.22537E-03  4710   0.340E-02    0.543E-02
RMM:   4    -0.230879743685E+04    0.14094E-04   -0.36740E-04  3965   0.951E-03    0.283E-02
RMM:   5    -0.230879743848E+04   -0.16321E-05   -0.37571E-05  2848   0.705E-03
  57 F= -.23288060E+04 E0= -.23288060E+04  d E =-.459135E-03  mag=     1.0000
       N       E                     dE             d eps       ncg     rms          rms(c)
DAV:   1    -0.230879706433E+04    0.37252E-03   -0.35827E-02  4592   0.180E-01    0.638E-02
RMM:   2    -0.230879744476E+04   -0.38043E-03   -0.40354E-03  5894   0.329E-02    0.393E-02
RMM:   3    -0.230879745526E+04   -0.10492E-04   -0.31996E-04  3105   0.126E-02    0.255E-02
RMM:   4    -0.230879744846E+04    0.67912E-05   -0.54486E-05  2822   0.409E-03
  58 F= -.23288059E+04 E0= -.23288059E+04  d E =-.435246E-03  mag=     1.0000
       N       E                     dE             d eps       ncg     rms          rms(c)
DAV:   1    -0.230879423156E+04    0.32237E-02   -0.36667E-01  4368   0.587E-01    0.178E-01
RMM:   2    -0.230879794411E+04   -0.37125E-02   -0.39083E-02  5770   0.103E-01    0.975E-02
RMM:   3    -0.230879805974E+04   -0.11563E-03   -0.25074E-03  4753   0.366E-02    0.607E-02
RMM:   4    -0.230879803183E+04    0.27915E-04   -0.41744E-04  4060   0.102E-02    0.340E-02
RMM:   5    -0.230879803005E+04    0.17783E-05   -0.70796E-05  2984   0.800E-03
  59 F= -.23288064E+04 E0= -.23288064E+04  d E =-.449957E-03  mag=     1.0000
       N       E                     dE             d eps       ncg     rms          rms(c)
DAV:   1    -0.230879789491E+04    0.13692E-03   -0.13170E-02  4944   0.112E-01    0.512E-02
RMM:   2    -0.230879803951E+04   -0.14460E-03   -0.15022E-03  5747   0.218E-02    0.409E-02
RMM:   3    -0.230879803625E+04    0.32574E-05   -0.16511E-04  2870   0.836E-03    0.323E-02
RMM:   4    -0.230879801976E+04    0.16494E-04   -0.53487E-05  2822   0.354E-03    0.156E-02
RMM:   5    -0.230879802773E+04   -0.79703E-05   -0.85309E-06  2743   0.238E-03
  60 F= -.23288064E+04 E0= -.23288064E+04  d E =-.422658E-03  mag=     1.0000
       N       E                     dE             d eps       ncg     rms          rms(c)
DAV:   1    -0.230879498812E+04    0.30316E-02   -0.36117E-01  4384   0.586E-01    0.171E-01
RMM:   2    -0.230879840772E+04   -0.34196E-02   -0.36063E-02  5613   0.101E-01    0.909E-02
RMM:   3    -0.230879850064E+04   -0.92915E-04   -0.22680E-03  4726   0.344E-02    0.565E-02
RMM:   4    -0.230879846949E+04    0.31150E-04   -0.38663E-04  4051   0.102E-02    0.275E-02
RMM:   5    -0.230879847110E+04   -0.16137E-05   -0.34400E-05  2845   0.730E-03
  61 F= -.23288067E+04 E0= -.23288067E+04  d E =-.347647E-03  mag=     1.0000
       N       E                     dE             d eps       ncg     rms          rms(c)
DAV:   1    -0.230879845496E+04    0.14532E-04   -0.16749E-03  5224   0.403E-02    0.283E-02
RMM:   2    -0.230879847274E+04   -0.17783E-04   -0.19446E-04  3513   0.821E-03    0.265E-02
RMM:   3    -0.230879846940E+04    0.33341E-05   -0.30409E-05  2757   0.477E-03
  62 F= -.23288067E+04 E0= -.23288067E+04  d E =-.339338E-03  mag=     1.0000
       N       E                     dE             d eps       ncg     rms          rms(c)
DAV:   1    -0.230879610088E+04    0.23719E-02   -0.31347E-01  4368   0.550E-01    0.158E-01
RMM:   2    -0.230879892339E+04   -0.28225E-02   -0.29787E-02  5546   0.934E-02    0.854E-02
RMM:   3    -0.230879900076E+04   -0.77368E-04   -0.19239E-03  4687   0.318E-02    0.557E-02
RMM:   4    -0.230879897950E+04    0.21251E-04   -0.30052E-04  4008   0.933E-03    0.369E-02
RMM:   5    -0.230879896349E+04    0.16011E-04   -0.85999E-05  3027   0.774E-03    0.252E-02
RMM:   6    -0.230879896920E+04   -0.57019E-05   -0.12463E-05  2804   0.434E-03
  63 F= -.23288071E+04 E0= -.23288071E+04  d E =-.391897E-03  mag=     1.0000
       N       E                     dE             d eps       ncg     rms          rms(c)
DAV:   1    -0.230879895033E+04    0.13159E-04   -0.28794E-03  5088   0.529E-02    0.334E-02
RMM:   2    -0.230879898530E+04   -0.34965E-04   -0.31146E-04  4177   0.104E-02    0.340E-02
RMM:   3    -0.230879898366E+04    0.16425E-05   -0.41845E-05  2788   0.530E-03
  64 F= -.23288071E+04 E0= -.23288071E+04  d E =-.395970E-03  mag=     1.0000
       N       E                     dE             d eps       ncg     rms          rms(c)
DAV:   1    -0.230879734335E+04    0.16419E-02   -0.24208E-01  4368   0.489E-01    0.143E-01
RMM:   2    -0.230879932351E+04   -0.19802E-02   -0.21105E-02  5552   0.829E-02    0.716E-02
RMM:   3    -0.230879937574E+04   -0.52231E-04   -0.14093E-03  4594   0.304E-02    0.496E-02
RMM:   4    -0.230879936461E+04    0.11135E-04   -0.24811E-04  3847   0.864E-03    0.353E-02
RMM:   5    -0.230879934873E+04    0.15878E-04   -0.41007E-05  2841   0.663E-03    0.198E-02
RMM:   6    -0.230879935044E+04   -0.17120E-05   -0.31485E-05  2819   0.420E-03
  65 F= -.23288073E+04 E0= -.23288073E+04  d E =-.246306E-03  mag=     1.0000
       N       E                     dE             d eps       ncg     rms          rms(c)
DAV:   1    -0.230879928833E+04    0.60399E-04   -0.80270E-03  4608   0.890E-02    0.362E-02
RMM:   2    -0.230879936519E+04   -0.76860E-04   -0.70695E-04  5343   0.168E-02    0.389E-02
RMM:   3    -0.230879936742E+04   -0.22289E-05   -0.65970E-05  2793   0.667E-03
  66 F= -.23288074E+04 E0= -.23288074E+04  d E =-.285002E-03  mag=     1.0000
       N       E                     dE             d eps       ncg     rms          rms(c)
DAV:   1    -0.230879871602E+04    0.64917E-03   -0.12182E-01  4376   0.350E-01    0.108E-01
RMM:   2    -0.230879962382E+04   -0.90780E-03   -0.98352E-03  5624   0.594E-02    0.502E-02
RMM:   3    -0.230879965126E+04   -0.27445E-04   -0.74435E-04  3965   0.203E-02    0.327E-02
RMM:   4    -0.230879965130E+04   -0.43408E-07   -0.10279E-04  2969   0.626E-03    0.300E-02
RMM:   5    -0.230879964935E+04    0.19492E-05   -0.16046E-05  2796   0.418E-03
  67 F= -.23288076E+04 E0= -.23288076E+04  d E =-.187297E-03  mag=     1.0000
       N       E                     dE             d eps       ncg     rms          rms(c)
DAV:   1    -0.230879963626E+04    0.15040E-04   -0.17770E-04  5160   0.121E-02    0.162E-02
RMM:   2    -0.230879964903E+04   -0.12763E-04   -0.22738E-05  2730   0.312E-03    0.299E-02
RMM:   3    -0.230879964642E+04    0.26037E-05   -0.27322E-06  2360   0.204E-03
  68 F= -.23288076E+04 E0= -.23288076E+04  d E =-.187057E-03  mag=     1.0000
       N       E                     dE             d eps       ncg     rms          rms(c)
DAV:   1    -0.230879915722E+04    0.49180E-03   -0.96045E-02  4376   0.310E-01    0.938E-02
RMM:   2    -0.230879989516E+04   -0.73794E-03   -0.78752E-03  5574   0.537E-02    0.495E-02
RMM:   3    -0.230879990220E+04   -0.70411E-05   -0.55127E-04  3795   0.181E-02    0.322E-02
RMM:   4    -0.230879989023E+04    0.11972E-04   -0.10180E-04  3120   0.641E-03    0.167E-02
RMM:   5    -0.230879989146E+04   -0.12275E-05   -0.16203E-05  2815   0.452E-03
  69 F= -.23288077E+04 E0= -.23288077E+04  d E =-.145686E-03  mag=     1.0000
       N       E                     dE             d eps       ncg     rms          rms(c)
DAV:   1    -0.230879988900E+04    0.12356E-05   -0.19154E-04  5112   0.136E-02    0.186E-02
RMM:   2    -0.230879989371E+04   -0.47108E-05   -0.26593E-05  2669   0.313E-03
  70 F= -.23288077E+04 E0= -.23288077E+04  d E =-.152015E-03  mag=     1.0000
       N       E                     dE             d eps       ncg     rms          rms(c)
DAV:   1    -0.230879935756E+04    0.53143E-03   -0.90398E-02  4376   0.303E-01    0.891E-02
RMM:   2    -0.230880008317E+04   -0.72561E-03   -0.77444E-03  5764   0.542E-02    0.530E-02
RMM:   3    -0.230880008385E+04   -0.68326E-06   -0.50546E-04  3844   0.193E-02    0.313E-02
RMM:   4    -0.230880007640E+04    0.74551E-05   -0.85378E-05  2912   0.603E-03
  71 F= -.23288079E+04 E0= -.23288079E+04  d E =-.138202E-03  mag=     1.0000
       N       E                     dE             d eps       ncg     rms          rms(c)
DAV:   1    -0.230880008191E+04    0.19444E-05   -0.31126E-04  5088   0.165E-02    0.282E-02
RMM:   2    -0.230880008687E+04   -0.49616E-05   -0.50328E-05  2857   0.408E-03
  72 F= -.23288079E+04 E0= -.23288079E+04  d E =-.146238E-03  mag=     1.0000
       N       E                     dE             d eps       ncg     rms          rms(c)
DAV:   1    -0.230879974888E+04    0.33303E-03   -0.66613E-02  4368   0.261E-01    0.778E-02
RMM:   2    -0.230880025948E+04   -0.51060E-03   -0.55266E-03  5919   0.466E-02    0.413E-02
RMM:   3    -0.230880027553E+04   -0.16052E-04   -0.46832E-04  3623   0.165E-02    0.267E-02
RMM:   4    -0.230880027607E+04   -0.53705E-06   -0.64665E-05  2816   0.497E-03
  73 F= -.23288080E+04 E0= -.23288080E+04  d E =-.141075E-03  mag=     1.0000
       N       E                     dE             d eps       ncg     rms          rms(c)
DAV:   1    -0.230880016706E+04    0.10847E-03   -0.17580E-02  4384   0.134E-01    0.441E-02
RMM:   2    -0.230880029600E+04   -0.12894E-03   -0.14190E-03  5834   0.237E-02    0.279E-02
RMM:   3    -0.230880029539E+04    0.60890E-06   -0.12061E-04  2902   0.914E-03    0.163E-02
RMM:   4    -0.230880029658E+04   -0.11911E-05   -0.20624E-05  2821   0.346E-03
  74 F= -.23288080E+04 E0= -.23288080E+04  d E =-.136803E-03  mag=     1.0000
       N       E                     dE             d eps       ncg     rms          rms(c)
DAV:   1    -0.230879998201E+04    0.31338E-03   -0.60416E-02  4368   0.246E-01    0.695E-02
RMM:   2    -0.230880052161E+04   -0.53960E-03   -0.57165E-03  6001   0.448E-02    0.403E-02
RMM:   3    -0.230880053273E+04   -0.11118E-04   -0.44030E-04  3340   0.144E-02    0.255E-02
RMM:   4    -0.230880052659E+04    0.61404E-05   -0.59579E-05  2825   0.481E-03
  75 F= -.23288081E+04 E0= -.23288081E+04  d E =-.128794E-03  mag=     1.0000
       N       E                     dE             d eps       ncg     rms          rms(c)
DAV:   1    -0.230880019349E+04    0.33924E-03   -0.47490E-02  4376   0.218E-01    0.593E-02
RMM:   2    -0.230880061985E+04   -0.42636E-03   -0.44987E-03  6041   0.394E-02    0.364E-02
RMM:   3    -0.230880063445E+04   -0.14605E-04   -0.32307E-04  3195   0.128E-02    0.248E-02
RMM:   4    -0.230880062864E+04    0.58091E-05   -0.56101E-05  2818   0.445E-03
  76 F= -.23288081E+04 E0= -.23288081E+04  d E =-.140477E-03  mag=     1.0000
       N       E                     dE             d eps       ncg     rms          rms(c)
DAV:   1    -0.230880023935E+04    0.39510E-03   -0.77372E-02  4368   0.280E-01    0.795E-02
RMM:   2    -0.230880086968E+04   -0.63033E-03   -0.67019E-03  6010   0.499E-02    0.420E-02
RMM:   3    -0.230880088423E+04   -0.14548E-04   -0.48057E-04  3522   0.156E-02    0.285E-02
RMM:   4    -0.230880087578E+04    0.84523E-05   -0.74916E-05  2850   0.545E-03
  77 F= -.23288083E+04 E0= -.23288083E+04  d E =-.160527E-03  mag=     1.0000
       N       E                     dE             d eps       ncg     rms          rms(c)
DAV:   1    -0.230880075490E+04    0.12933E-03   -0.19300E-02  4576   0.140E-01    0.405E-02
RMM:   2    -0.230880091521E+04   -0.16031E-03   -0.16775E-03  5910   0.254E-02    0.257E-02
RMM:   3    -0.230880092357E+04   -0.83611E-05   -0.13311E-04  2916   0.890E-03    0.237E-02
RMM:   4    -0.230880092204E+04    0.15290E-05   -0.23158E-05  2808   0.280E-03
  78 F= -.23288083E+04 E0= -.23288083E+04  d E =-.163141E-03  mag=     1.0000
       N       E                     dE             d eps       ncg     rms          rms(c)
DAV:   1    -0.230880058738E+04    0.33619E-03   -0.68987E-02  4368   0.265E-01    0.736E-02
RMM:   2    -0.230880111475E+04   -0.52737E-03   -0.56209E-03  5837   0.460E-02    0.386E-02
RMM:   3    -0.230880113118E+04   -0.16427E-04   -0.39398E-04  3583   0.151E-02    0.300E-02
RMM:   4    -0.230880112742E+04    0.37545E-05   -0.60502E-05  2827   0.480E-03
  79 F= -.23288084E+04 E0= -.23288084E+04  d E =-.138899E-03  mag=     1.0000
       N       E                     dE             d eps       ncg     rms          rms(c)
DAV:   1    -0.230880107302E+04    0.58161E-04   -0.98401E-03  4736   0.100E-01    0.333E-02
RMM:   2    -0.230880114303E+04   -0.70009E-04   -0.78454E-04  5545   0.178E-02    0.192E-02
RMM:   3    -0.230880114757E+04   -0.45482E-05   -0.65183E-05  2830   0.708E-03
  80 F= -.23288084E+04 E0= -.23288084E+04  d E =-.133849E-03  mag=     1.0000
       N       E                     dE             d eps       ncg     rms          rms(c)
DAV:   1    -0.230880084289E+04    0.30013E-03   -0.68624E-02  4368   0.265E-01    0.783E-02
RMM:   2    -0.230880136399E+04   -0.52110E-03   -0.55764E-03  5756   0.457E-02    0.454E-02
RMM:   3    -0.230880136431E+04   -0.31311E-06   -0.34406E-04  3512   0.147E-02    0.289E-02
RMM:   4    -0.230880135488E+04    0.94233E-05   -0.75765E-05  2970   0.577E-03
  81 F= -.23288086E+04 E0= -.23288086E+04  d E =-.128964E-03  mag=     1.0000
       N       E                     dE             d eps       ncg     rms          rms(c)
DAV:   1    -0.230880135653E+04    0.77764E-05   -0.16206E-03  5152   0.406E-02    0.236E-02
RMM:   2    -0.230880137069E+04   -0.14156E-04   -0.14465E-04  3494   0.801E-03    0.221E-02
RMM:   3    -0.230880136847E+04    0.22111E-05   -0.21209E-05  2722   0.461E-03
  82 F= -.23288086E+04 E0= -.23288086E+04  d E =-.130371E-03  mag=     1.0000
       N       E                     dE             d eps       ncg     rms          rms(c)
DAV:   1    -0.230880107857E+04    0.29212E-03   -0.64238E-02  4368   0.256E-01    0.759E-02
RMM:   2    -0.230880156792E+04   -0.48935E-03   -0.51737E-03  5603   0.442E-02    0.471E-02
RMM:   3    -0.230880158402E+04   -0.16096E-04   -0.41565E-04  3505   0.161E-02    0.383E-02
RMM:   4    -0.230880157026E+04    0.13763E-04   -0.92167E-05  2841   0.525E-03    0.218E-02
RMM:   5    -0.230880156638E+04    0.38793E-05   -0.23382E-05  2842   0.401E-03
  83 F= -.23288087E+04 E0= -.23288087E+04  d E =-.127230E-03  mag=     1.0000
       N       E                     dE             d eps       ncg     rms          rms(c)
DAV:   1    -0.230880156929E+04    0.96593E-06   -0.15222E-03  4984   0.394E-02    0.262E-02
RMM:   2    -0.230880158784E+04   -0.18554E-04   -0.14589E-04  3471   0.808E-03    0.291E-02
RMM:   3    -0.230880158812E+04   -0.27919E-06   -0.16258E-05  2641   0.443E-03
  84 F= -.23288087E+04 E0= -.23288087E+04  d E =-.138048E-03  mag=     1.0000
       N       E                     dE             d eps       ncg     rms          rms(c)
DAV:   1    -0.230880132310E+04    0.26474E-03   -0.53136E-02  4376   0.232E-01    0.739E-02
RMM:   2    -0.230880171206E+04   -0.38896E-03   -0.42799E-03  5815   0.412E-02    0.387E-02
RMM:   3    -0.230880171933E+04   -0.72739E-05   -0.35149E-04  3345   0.139E-02    0.243E-02
RMM:   4    -0.230880171903E+04    0.30591E-06   -0.49406E-05  2834   0.483E-03
  85 F= -.23288088E+04 E0= -.23288088E+04  d E =-.123179E-03  mag=     1.0000
       N       E                     dE             d eps       ncg     rms          rms(c)
DAV:   1    -0.230880169716E+04    0.22175E-04   -0.31072E-03  4976   0.562E-02    0.268E-02
RMM:   2    -0.230880171576E+04   -0.18601E-04   -0.24720E-04  4147   0.107E-02    0.179E-02
RMM:   3    -0.230880171350E+04    0.22620E-05   -0.31881E-05  2802   0.554E-03
  86 F= -.23288088E+04 E0= -.23288088E+04  d E =-.115772E-03  mag=     1.0000
       N       E                     dE             d eps       ncg     rms          rms(c)
DAV:   1    -0.230880140268E+04    0.31308E-03   -0.56959E-02  4376   0.241E-01    0.724E-02
RMM:   2    -0.230880188521E+04   -0.48253E-03   -0.51671E-03  5937   0.446E-02    0.381E-02
RMM:   3    -0.230880189612E+04   -0.10906E-04   -0.42953E-04  3347   0.138E-02    0.251E-02
RMM:   4    -0.230880189064E+04    0.54793E-05   -0.56967E-05  2831   0.487E-03
  87 F= -.23288089E+04 E0= -.23288089E+04  d E =-.114322E-03  mag=     1.0000
       N       E                     dE             d eps       ncg     rms          rms(c)
DAV:   1    -0.230880187390E+04    0.22225E-04   -0.28487E-03  5088   0.540E-02    0.182E-02
RMM:   2    -0.230880189837E+04   -0.24474E-04   -0.25114E-04  4139   0.103E-02    0.139E-02
RMM:   3    -0.230880190112E+04   -0.27537E-05   -0.26882E-05  2801   0.564E-03
  88 F= -.23288089E+04 E0= -.23288089E+04  d E =-.110337E-03  mag=     1.0000
       N       E                     dE             d eps       ncg     rms          rms(c)
DAV:   1    -0.230880165769E+04    0.24068E-03   -0.51036E-02  4376   0.231E-01    0.710E-02
RMM:   2    -0.230880206786E+04   -0.41017E-03   -0.43819E-03  5863   0.423E-02    0.419E-02
RMM:   3    -0.230880206580E+04    0.20606E-05   -0.30284E-04  3295   0.132E-02    0.257E-02
RMM:   4    -0.230880205866E+04    0.71437E-05   -0.53126E-05  2846   0.497E-03
  89 F= -.23288090E+04 E0= -.23288090E+04  d E =-.934822E-04  mag=     1.0000
       N       E                     dE             d eps       ncg     rms          rms(c)
DAV:   1    -0.230880205918E+04    0.66200E-05   -0.15092E-03  5080   0.395E-02    0.235E-02
RMM:   2    -0.230880207220E+04   -0.13016E-04   -0.14652E-04  3517   0.796E-03    0.196E-02
RMM:   3    -0.230880206852E+04    0.36765E-05   -0.14912E-05  2744   0.438E-03
  90 F= -.23288090E+04 E0= -.23288090E+04  d E =-.921649E-04  mag=     1.0000
       N       E                     dE             d eps       ncg     rms          rms(c)
DAV:   1    -0.230880194210E+04    0.13010E-03   -0.35047E-02  4376   0.191E-01    0.586E-02
RMM:   2    -0.230880219371E+04   -0.25161E-03   -0.26383E-03  5748   0.337E-02    0.378E-02
RMM:   3    -0.230880220204E+04   -0.83278E-05   -0.21495E-04  3111   0.120E-02    0.333E-02
RMM:   4    -0.230880219394E+04    0.80914E-05   -0.55469E-05  2820   0.403E-03
  91 F= -.23288091E+04 E0= -.23288091E+04  d E =-.942712E-04  mag=     1.0000
       N       E                     dE             d eps       ncg     rms          rms(c)
DAV:   1    -0.230880218353E+04    0.18508E-04   -0.15438E-03  5096   0.399E-02    0.192E-02
RMM:   2    -0.230880220270E+04   -0.19173E-04   -0.11715E-04  3411   0.757E-03    0.304E-02
RMM:   3    -0.230880220358E+04   -0.87525E-06   -0.11334E-05  2634   0.437E-03
  92 F= -.23288091E+04 E0= -.23288091E+04  d E =-.972664E-04  mag=     1.0000
       N       E                     dE             d eps       ncg     rms          rms(c)
DAV:   1    -0.230880208376E+04    0.11894E-03   -0.27148E-02  4376   0.167E-01    0.606E-02
RMM:   2    -0.230880228208E+04   -0.19832E-03   -0.22105E-03  5873   0.307E-02    0.345E-02
RMM:   3    -0.230880227377E+04    0.83137E-05   -0.18041E-04  3036   0.105E-02    0.212E-02
RMM:   4    -0.230880226800E+04    0.57710E-05   -0.31232E-05  2842   0.413E-03
  93 F= -.23288092E+04 E0= -.23288092E+04  d E =-.671698E-04  mag=     1.0000
       N       E                     dE             d eps       ncg     rms          rms(c)
DAV:   1    -0.230880225773E+04    0.16037E-04   -0.14995E-03  5088   0.392E-02    0.211E-02
RMM:   2    -0.230880226979E+04   -0.12058E-04   -0.12041E-04  3412   0.779E-03    0.205E-02
RMM:   3    -0.230880226908E+04    0.70562E-06   -0.17006E-05  2645   0.434E-03
  94 F= -.23288092E+04 E0= -.23288092E+04  d E =-.689091E-04  mag=     1.0000
       N       E                     dE             d eps       ncg     rms          rms(c)
DAV:   1    -0.230880213716E+04    0.13263E-03   -0.27064E-02  4376   0.167E-01    0.513E-02
RMM:   2    -0.230880235256E+04   -0.21540E-03   -0.23254E-03  5838   0.304E-02    0.252E-02
RMM:   3    -0.230880236092E+04   -0.83568E-05   -0.20103E-04  3013   0.108E-02    0.196E-02
RMM:   4    -0.230880236067E+04    0.24303E-06   -0.27870E-05  2806   0.345E-03
  95 F= -.23288093E+04 E0= -.23288093E+04  d E =-.661743E-04  mag=     1.0000
       N       E                     dE             d eps       ncg     rms          rms(c)
DAV:   1    -0.230880235837E+04    0.25430E-05   -0.46980E-04  5040   0.221E-02    0.157E-02
RMM:   2    -0.230880235906E+04   -0.68503E-06   -0.40148E-05  2776   0.455E-03
  96 F= -.23288093E+04 E0= -.23288093E+04  d E =-.611665E-04  mag=     1.0000
       N       E                     dE             d eps       ncg     rms          rms(c)
DAV:   1    -0.230880225910E+04    0.99275E-04   -0.27569E-02  4408   0.171E-01    0.554E-02
RMM:   2    -0.230880246373E+04   -0.20463E-03   -0.22030E-03  5914   0.316E-02    0.321E-02
RMM:   3    -0.230880246729E+04   -0.35643E-05   -0.17927E-04  3130   0.115E-02    0.241E-02
RMM:   4    -0.230880245990E+04    0.73928E-05   -0.44249E-05  2818   0.401E-03
  97 F= -.23288093E+04 E0= -.23288093E+04  d E =-.660137E-04  mag=     1.0000
       N       E                     dE             d eps       ncg     rms          rms(c)
DAV:   1    -0.230880246204E+04    0.52519E-05   -0.38769E-05  3560   0.375E-03    0.147E-02
RMM:   2    -0.230880246670E+04   -0.46616E-05   -0.70334E-06  2568   0.181E-03
  98 F= -.23288093E+04 E0= -.23288093E+04  d E =-.724239E-04  mag=     1.0000
       N       E                     dE             d eps       ncg     rms          rms(c)
DAV:   1    -0.230880238796E+04    0.74075E-04   -0.21722E-02  4376   0.151E-01    0.574E-02
RMM:   2    -0.230880255723E+04   -0.16926E-03   -0.18518E-03  5789   0.281E-02    0.348E-02
RMM:   3    -0.230880254848E+04    0.87471E-05   -0.15303E-04  3001   0.985E-03    0.248E-02
RMM:   4    -0.230880254015E+04    0.83311E-05   -0.32753E-05  2831   0.401E-03
  99 F= -.23288094E+04 E0= -.23288094E+04  d E =-.431427E-04  mag=     1.0000
       N       E                     dE             d eps       ncg     rms          rms(c)
DAV:   1    -0.230880254186E+04    0.66255E-05   -0.63479E-05  4040   0.548E-03    0.184E-02
RMM:   2    -0.230880254841E+04   -0.65509E-05   -0.14273E-05  2601   0.279E-03
 100 F= -.23288094E+04 E0= -.23288094E+04  d E =-.520113E-04  mag=     1.0000
       N       E                     dE             d eps       ncg     rms          rms(c)
DAV:   1    -0.230880245452E+04    0.87338E-04   -0.19185E-02  4376   0.142E-01    0.544E-02
RMM:   2    -0.230880261901E+04   -0.16450E-03   -0.17014E-03  5852   0.265E-02    0.478E-02
RMM:   3    -0.230880261290E+04    0.61146E-05   -0.14742E-04  2909   0.969E-03    0.351E-02
RMM:   4    -0.230880259516E+04    0.17739E-04   -0.55664E-05  2841   0.404E-03    0.134E-02
RMM:   5    -0.230880260504E+04   -0.98814E-05   -0.85556E-06  2746   0.278E-03
 101 F= -.23288094E+04 E0= -.23288094E+04  d E =-.472124E-04  mag=     1.0000
       N       E                     dE             d eps       ncg     rms          rms(c)
DAV:   1    -0.230880260498E+04   -0.98224E-05   -0.66867E-05  5136   0.841E-03    0.189E-02
RMM:   2    -0.230880260956E+04   -0.45797E-05   -0.18477E-05  2518   0.231E-03
 102 F= -.23288094E+04 E0= -.23288094E+04  d E =-.512080E-04  mag=     1.0000
       N       E                     dE             d eps       ncg     rms          rms(c)
DAV:   1    -0.230880254648E+04    0.58501E-04   -0.16625E-02  4376   0.132E-01    0.472E-02
RMM:   2    -0.230880266845E+04   -0.12196E-03   -0.13672E-03  5696   0.235E-02    0.286E-02
RMM:   3    -0.230880266559E+04    0.28525E-05   -0.13526E-04  2946   0.972E-03    0.171E-02
RMM:   4    -0.230880266489E+04    0.70478E-06   -0.25201E-05  2818   0.342E-03
 103 F= -.23288095E+04 E0= -.23288095E+04  d E =-.420265E-04  mag=     1.0000
       N       E                     dE             d eps       ncg     rms          rms(c)
DAV:   1    -0.230880266548E+04    0.10854E-06   -0.43995E-04  4944   0.212E-02    0.192E-02
RMM:   2    -0.230880267114E+04   -0.56537E-05   -0.47930E-05  2822   0.456E-03
 104 F= -.23288095E+04 E0= -.23288095E+04  d E =-.461235E-04  mag=     1.0000
       N       E                     dE             d eps       ncg     rms          rms(c)
DAV:   1    -0.230880263655E+04    0.28939E-04   -0.12231E-02  4376   0.110E-01    0.396E-02
RMM:   2    -0.230880273754E+04   -0.10099E-03   -0.11340E-03  5784   0.216E-02    0.242E-02
RMM:   3    -0.230880273779E+04   -0.24632E-06   -0.98194E-05  2850   0.803E-03
 105 F= -.23288095E+04 E0= -.23288095E+04  d E =-.398121E-04  mag=     1.0000
       N       E                     dE             d eps       ncg     rms          rms(c)
DAV:   1    -0.230880274016E+04   -0.26163E-05   -0.51101E-04  4960   0.223E-02    0.167E-02
RMM:   2    -0.230880274767E+04   -0.75186E-05   -0.55093E-05  2877   0.477E-03
 106 F= -.23288095E+04 E0= -.23288095E+04  d E =-.441985E-04  mag=     1.0000
       N       E                     dE             d eps       ncg     rms          rms(c)
DAV:   1    -0.230880273128E+04    0.88711E-05   -0.10924E-02  4376   0.106E-01    0.410E-02
RMM:   2    -0.230880282074E+04   -0.89459E-04   -0.99004E-04  5757   0.209E-02    0.250E-02
RMM:   3    -0.230880281793E+04    0.28131E-05   -0.96230E-05  2856   0.812E-03
 107 F= -.23288096E+04 E0= -.23288096E+04  d E =-.413084E-04  mag=     1.0000
       N       E                     dE             d eps       ncg     rms          rms(c)
DAV:   1    -0.230880281768E+04    0.30654E-05   -0.12808E-04  5040   0.107E-02    0.139E-02
RMM:   2    -0.230880282260E+04   -0.49205E-05   -0.19960E-05  2575   0.277E-03
 108 F= -.23288096E+04 E0= -.23288096E+04  d E =-.429016E-04  mag=     1.0000
       N       E                     dE             d eps       ncg     rms          rms(c)
DAV:   1    -0.230880280531E+04    0.12365E-04   -0.87910E-03  4376   0.949E-02    0.375E-02
RMM:   2    -0.230880288289E+04   -0.77578E-04   -0.83600E-04  5694   0.187E-02    0.288E-02
RMM:   3    -0.230880287908E+04    0.38146E-05   -0.72420E-05  2822   0.748E-03
 109 F= -.23288096E+04 E0= -.23288096E+04  d E =-.368422E-04  mag=     1.0000
       N       E                     dE             d eps       ncg     rms          rms(c)
DAV:   1    -0.230880287585E+04    0.70432E-05   -0.14955E-04  5064   0.118E-02    0.105E-02
RMM:   2    -0.230880288205E+04   -0.62048E-05   -0.17926E-05  2555   0.283E-03
 110 F= -.23288096E+04 E0= -.23288096E+04  d E =-.372716E-04  mag=     1.0000
       N       E                     dE             d eps       ncg     rms          rms(c)
DAV:   1    -0.230880284208E+04    0.33768E-04   -0.83787E-03  4376   0.907E-02    0.363E-02
RMM:   2    -0.230880291418E+04   -0.72095E-04   -0.76716E-04  5601   0.177E-02    0.257E-02
RMM:   3    -0.230880291123E+04    0.29454E-05   -0.71600E-05  2850   0.723E-03
 111 F= -.23288096E+04 E0= -.23288096E+04  d E =-.234782E-04  mag=     1.0000
       N       E                     dE             d eps       ncg     rms          rms(c)
DAV:   1    -0.230880290533E+04    0.88464E-05   -0.64065E-05  4968   0.719E-03    0.105E-02
RMM:   2    -0.230880290668E+04   -0.13469E-05   -0.89165E-06  2413   0.214E-03
 112 F= -.23288096E+04 E0= -.23288096E+04  d E =-.192439E-04  mag=     1.0000
       N       E                     dE             d eps       ncg     rms          rms(c)
DAV:   1    -0.230880290437E+04    0.96351E-06   -0.82671E-03  4376   0.907E-02    0.323E-02
RMM:   2    -0.230880296735E+04   -0.62981E-04   -0.66540E-04  5527   0.164E-02    0.249E-02
RMM:   3    -0.230880296635E+04    0.99903E-06   -0.54434E-05  2813   0.693E-03
 113 F= -.23288097E+04 E0= -.23288097E+04  d E =-.390713E-04  mag=     1.0000
       N       E                     dE             d eps       ncg     rms          rms(c)
DAV:   1    -0.230880296291E+04    0.44347E-05   -0.63992E-05  4976   0.744E-03    0.852E-03
RMM:   2    -0.230880296589E+04   -0.29783E-05   -0.84376E-06  2379   0.203E-03
 114 F= -.23288097E+04 E0= -.23288097E+04  d E =-.368943E-04  mag=     1.0000
       N       E                     dE             d eps       ncg     rms          rms(c)
DAV:   1    -0.230880296939E+04   -0.64768E-05   -0.65700E-03  4376   0.808E-02    0.315E-02
RMM:   2    -0.230880302291E+04   -0.53524E-04   -0.57373E-04  5411   0.153E-02    0.211E-02
RMM:   3    -0.230880302093E+04    0.19823E-05   -0.49232E-05  2826   0.657E-03
 115 F= -.23288097E+04 E0= -.23288097E+04  d E =-.269845E-04  mag=     1.0000
       N       E                     dE             d eps       ncg     rms          rms(c)
DAV:   1    -0.230880301575E+04    0.71630E-05   -0.37052E-05  4104   0.550E-03    0.903E-03
RMM:   2    -0.230880301635E+04   -0.59903E-06   -0.73322E-06  2350   0.263E-03
 116 F= -.23288097E+04 E0= -.23288097E+04  d E =-.235836E-04  mag=     1.0000
       N       E                     dE             d eps       ncg     rms          rms(c)
DAV:   1    -0.230880301078E+04    0.49685E-05   -0.64974E-03  4376   0.813E-02    0.286E-02
RMM:   2    -0.230880306365E+04   -0.52869E-04   -0.55767E-04  5496   0.152E-02    0.215E-02
RMM:   3    -0.230880306312E+04    0.52623E-06   -0.44988E-05  2802   0.635E-03
 117 F= -.23288097E+04 E0= -.23288097E+04  d E =-.297486E-04  mag=     1.0000
       N       E                     dE             d eps       ncg     rms          rms(c)
DAV:   1    -0.230880306086E+04    0.27946E-05   -0.89272E-05  5088   0.915E-03    0.803E-03
RMM:   2    -0.230880306432E+04   -0.34629E-05   -0.10547E-05  2427   0.226E-03
 118 F= -.23288097E+04 E0= -.23288097E+04  d E =-.289588E-04  mag=     1.0000
       N       E                     dE             d eps       ncg     rms          rms(c)
DAV:   1    -0.230880307069E+04   -0.98313E-05   -0.45885E-03  4384   0.681E-02    0.270E-02
RMM:   2    -0.230880311221E+04   -0.41524E-04   -0.43649E-04  5146   0.133E-02    0.190E-02
RMM:   3    -0.230880311144E+04    0.77552E-06   -0.43500E-05  2790   0.590E-03
 119 F= -.23288097E+04 E0= -.23288097E+04  d E =-.276722E-04  mag=     1.0000
       N       E                     dE             d eps       ncg     rms          rms(c)
DAV:   1    -0.230880311057E+04    0.16410E-05   -0.13222E-04  4992   0.113E-02    0.841E-03
RMM:   2    -0.230880311275E+04   -0.21817E-05   -0.14209E-05  2421   0.252E-03
 120 F= -.23288097E+04 E0= -.23288097E+04  d E =-.256352E-04  mag=     1.0000
       N       E                     dE             d eps       ncg     rms          rms(c)
DAV:   1    -0.230880312483E+04   -0.14263E-04   -0.37861E-03  4384   0.612E-02    0.237E-02
RMM:   2    -0.230880315922E+04   -0.34385E-04   -0.35679E-04  4761   0.123E-02    0.201E-02
RMM:   3    -0.230880315878E+04    0.43752E-06   -0.32224E-05  2749   0.562E-03
 121 F= -.23288098E+04 E0= -.23288098E+04  d E =-.202244E-04  mag=     1.0000
       N       E                     dE             d eps       ncg     rms          rms(c)
DAV:   1    -0.230880315863E+04    0.58865E-06   -0.43649E-05  4616   0.632E-03    0.751E-03
RMM:   2    -0.230880316007E+04   -0.14396E-05   -0.76884E-06  2282   0.218E-03
 122 F= -.23288098E+04 E0= -.23288098E+04  d E =-.188529E-04  mag=     1.0000
       N       E                     dE             d eps       ncg     rms          rms(c)
DAV:   1    -0.230880317105E+04   -0.12423E-04   -0.37492E-03  4384   0.599E-02    0.232E-02
RMM:   2    -0.230880320588E+04   -0.34825E-04   -0.36827E-04  4848   0.120E-02    0.157E-02
RMM:   3    -0.230880320538E+04    0.49913E-06   -0.34349E-05  2717   0.526E-03
 123 F= -.23288098E+04 E0= -.23288098E+04  d E =-.268441E-04  mag=     1.0000
       N       E                     dE             d eps       ncg     rms          rms(c)
DAV:   1    -0.230880320662E+04   -0.74184E-06   -0.18357E-04  4808   0.132E-02    0.848E-03
RMM:   2    -0.230880320807E+04   -0.14519E-05   -0.19749E-05  2466   0.287E-03
 124 F= -.23288098E+04 E0= -.23288098E+04  d E =-.253621E-04  mag=     1.0000
       N       E                     dE             d eps       ncg     rms          rms(c)
DAV:   1    -0.230880321052E+04   -0.38995E-05   -0.33762E-03  4368   0.571E-02    0.209E-02
RMM:   2    -0.230880323861E+04   -0.28094E-04   -0.29426E-04  4485   0.114E-02    0.161E-02
RMM:   3    -0.230880323891E+04   -0.29414E-06   -0.27474E-05  2698   0.536E-03
 125 F= -.23288098E+04 E0= -.23288098E+04  d E =-.253160E-04  mag=     1.0000
       N       E                     dE             d eps       ncg     rms          rms(c)
DAV:   1    -0.230880323691E+04    0.16998E-05   -0.30076E-04  4632   0.170E-02    0.783E-03
RMM:   2    -0.230880324059E+04   -0.36804E-05   -0.28512E-05  2675   0.367E-03
 126 F= -.23288098E+04 E0= -.23288098E+04  d E =-.253091E-04  mag=     1.0000
       N       E                     dE             d eps       ncg     rms          rms(c)
DAV:   1    -0.230880324777E+04   -0.10859E-04   -0.36562E-03  4376   0.600E-02    0.223E-02
RMM:   2    -0.230880327549E+04   -0.27719E-04   -0.29830E-04  4572   0.120E-02    0.144E-02
RMM:   3    -0.230880327495E+04    0.53992E-06   -0.28386E-05  2758   0.556E-03
 127 F= -.23288098E+04 E0= -.23288098E+04  d E =-.207363E-04  mag=     1.0000
       N       E                     dE             d eps       ncg     rms          rms(c)
DAV:   1    -0.230880327483E+04    0.66511E-06   -0.75404E-05  5032   0.852E-03    0.680E-03
RMM:   2    -0.230880327619E+04   -0.13612E-05   -0.84290E-06  2311   0.196E-03
 128 F= -.23288098E+04 E0= -.23288098E+04  d E =-.199882E-04  mag=     1.0000
       N       E                     dE             d eps       ncg     rms          rms(c)
DAV:   1    -0.230880328401E+04   -0.91819E-05   -0.32167E-03  4376   0.564E-02    0.200E-02
RMM:   2    -0.230880330603E+04   -0.22020E-04   -0.23475E-04  4359   0.106E-02    0.155E-02
RMM:   3    -0.230880330567E+04    0.36333E-06   -0.24633E-05  2607   0.528E-03
 129 F= -.23288098E+04 E0= -.23288098E+04  d E =-.214011E-04  mag=     1.0000
       N       E                     dE             d eps       ncg     rms          rms(c)
DAV:   1    -0.230880330625E+04   -0.22579E-06   -0.58643E-04  4376   0.241E-02    0.960E-03
RMM:   2    -0.230880331058E+04   -0.43265E-05   -0.43571E-05  2898   0.472E-03
 130 F= -.23288098E+04 E0= -.23288098E+04  d E =-.227973E-04  mag=     1.0000
       N       E                     dE             d eps       ncg     rms          rms(c)
DAV:   1    -0.230880332524E+04   -0.18986E-04   -0.20921E-03  4352   0.450E-02    0.166E-02
RMM:   2    -0.230880333888E+04   -0.13644E-04   -0.14883E-04  3642   0.898E-03    0.117E-02
RMM:   3    -0.230880333829E+04    0.59907E-06   -0.14884E-05  2660   0.472E-03
 131 F= -.23288099E+04 E0= -.23288099E+04  d E =-.198527E-04  mag=     1.0000
       N       E                     dE             d eps       ncg     rms          rms(c)
DAV:   1    -0.230880333870E+04    0.17964E-06   -0.18798E-03  4368   0.425E-02    0.137E-02
RMM:   2    -0.230880335163E+04   -0.12924E-04   -0.12645E-04  3554   0.802E-03    0.122E-02
RMM:   3    -0.230880335267E+04   -0.10389E-05   -0.12814E-05  2651   0.427E-03
 132 F= -.23288099E+04 E0= -.23288099E+04  d E =-.266965E-04  mag=     1.0000
       N       E                     dE             d eps       ncg     rms          rms(c)
DAV:   1    -0.230880337033E+04   -0.18705E-04   -0.28846E-03  4360   0.533E-02    0.197E-02
RMM:   2    -0.230880338615E+04   -0.15817E-04   -0.18378E-04  4113   0.100E-02    0.126E-02
RMM:   3    -0.230880338536E+04    0.78978E-06   -0.17322E-05  2693   0.481E-03
 133 F= -.23288099E+04 E0= -.23288099E+04  d E =-.224857E-04  mag=     1.0000
       N       E                     dE             d eps       ncg     rms          rms(c)
DAV:   1    -0.230880337481E+04    0.11336E-04   -0.56358E-03  4368   0.745E-02    0.244E-02
RMM:   2    -0.230880340809E+04   -0.33276E-04   -0.36185E-04  5113   0.136E-02    0.145E-02
RMM:   3    -0.230880340757E+04    0.51594E-06   -0.30106E-05  2795   0.511E-03
 134 F= -.23288099E+04 E0= -.23288099E+04  d E =-.303229E-04  mag=     1.0000
       N       E                     dE             d eps       ncg     rms          rms(c)
DAV:   1    -0.230880341434E+04   -0.62452E-05   -0.24965E-03  4416   0.490E-02    0.150E-02
RMM:   2    -0.230880342872E+04   -0.14382E-04   -0.15363E-04  3797   0.880E-03    0.104E-02
RMM:   3    -0.230880342981E+04   -0.10943E-05   -0.14300E-05  2697   0.419E-03
 135 F= -.23288099E+04 E0= -.23288099E+04  d E =-.158218E-04  mag=     1.0000
       N       E                     dE             d eps       ncg     rms          rms(c)
DAV:   1    -0.230880342966E+04   -0.94346E-06   -0.26329E-03  4360   0.502E-02    0.175E-02
RMM:   2    -0.230880344381E+04   -0.14150E-04   -0.16113E-04  3899   0.912E-03    0.116E-02
RMM:   3    -0.230880344321E+04    0.60113E-06   -0.15743E-05  2729   0.442E-03
 136 F= -.23288099E+04 E0= -.23288099E+04  d E =-.226849E-04  mag=     1.0000
       N       E                     dE             d eps       ncg     rms          rms(c)
DAV:   1    -0.230880339390E+04    0.49911E-04   -0.10495E-02  4400   0.100E-01    0.287E-02
RMM:   2    -0.230880345425E+04   -0.60347E-04   -0.65134E-04  5554   0.176E-02    0.163E-02
RMM:   3    -0.230880345406E+04    0.18896E-06   -0.48314E-05  2816   0.608E-03
 137 F= -.23288099E+04 E0= -.23288099E+04  d E =-.204733E-04  mag=     1.0000
       N       E                     dE             d eps       ncg     rms          rms(c)
DAV:   1    -0.230880343584E+04    0.18407E-04   -0.29204E-03  4288   0.527E-02    0.148E-02
RMM:   2    -0.230880345078E+04   -0.14939E-04   -0.16799E-04  4078   0.930E-03    0.639E-03
RMM:   3    -0.230880345136E+04   -0.57877E-06   -0.12633E-05  2394   0.443E-03
 138 F= -.23288099E+04 E0= -.23288099E+04  d E =-.244729E-04  mag=     1.0000
       N       E                     dE             d eps       ncg     rms          rms(c)
DAV:   1    -0.230880347260E+04   -0.21821E-04   -0.40868E-03  4352   0.630E-02    0.182E-02
RMM:   2    -0.230880349603E+04   -0.23428E-04   -0.25119E-04  4609   0.109E-02    0.112E-02
RMM:   3    -0.230880349582E+04    0.20352E-06   -0.17634E-05  2600   0.455E-03
 139 F= -.23288100E+04 E0= -.23288100E+04  d E =-.341458E-04  mag=     1.0000
       N       E                     dE             d eps       ncg     rms          rms(c)
DAV:   1    -0.230880343727E+04    0.58756E-04   -0.18181E-02  4400   0.133E-01    0.388E-02
RMM:   2    -0.230880354393E+04   -0.10666E-03   -0.11649E-03  5694   0.230E-02    0.204E-02
RMM:   3    -0.230880354285E+04    0.10862E-05   -0.73619E-05  2857   0.730E-03
 140 F= -.23288100E+04 E0= -.23288100E+04  d E =-.592900E-04  mag=     1.0000
       N       E                     dE             d eps       ncg     rms          rms(c)
DAV:   1    -0.230880355138E+04   -0.74471E-05   -0.73633E-03  4376   0.849E-02    0.265E-02
RMM:   2    -0.230880359232E+04   -0.40939E-04   -0.45548E-04  5256   0.149E-02    0.149E-02
RMM:   3    -0.230880359223E+04    0.83222E-07   -0.37620E-05  2804   0.578E-03
 141 F= -.23288100E+04 E0= -.23288100E+04  d E =-.338507E-04  mag=     1.0000
       N       E                     dE             d eps       ncg     rms          rms(c)
DAV:   1    -0.230880357328E+04    0.19034E-04   -0.84375E-03  4384   0.906E-02    0.275E-02
RMM:   2    -0.230880362101E+04   -0.47726E-04   -0.51845E-04  5369   0.157E-02    0.178E-02
RMM:   3    -0.230880361957E+04    0.14352E-05   -0.37962E-05  2820   0.583E-03
 142 F= -.23288100E+04 E0= -.23288100E+04  d E =-.446142E-04  mag=     1.0000
       N       E                     dE             d eps       ncg     rms          rms(c)
DAV:   1    -0.230880363883E+04   -0.17820E-04   -0.96748E-03  4368   0.976E-02    0.292E-02
RMM:   2    -0.230880369279E+04   -0.53965E-04   -0.58649E-04  5464   0.172E-02    0.160E-02
RMM:   3    -0.230880369245E+04    0.34242E-06   -0.43287E-05  2810   0.592E-03
 143 F= -.23288101E+04 E0= -.23288101E+04  d E =-.462020E-04  mag=     1.0000
       N       E                     dE             d eps       ncg     rms          rms(c)
DAV:   1    -0.230880368443E+04    0.83630E-05   -0.70697E-03  4368   0.833E-02    0.256E-02
RMM:   2    -0.230880372277E+04   -0.38335E-04   -0.42795E-04  5299   0.147E-02    0.149E-02
RMM:   3    -0.230880372231E+04    0.45584E-06   -0.32825E-05  2803   0.546E-03
 144 F= -.23288101E+04 E0= -.23288101E+04  d E =-.531641E-04  mag=     1.0000
       N       E                     dE             d eps       ncg     rms          rms(c)
DAV:   1    -0.230880371746E+04    0.53020E-05   -0.10749E-02  4368   0.103E-01    0.308E-02
RMM:   2    -0.230880377755E+04   -0.60084E-04   -0.65807E-04  5522   0.180E-02    0.175E-02
RMM:   3    -0.230880377633E+04    0.12180E-05   -0.46959E-05  2812   0.610E-03
 145 F= -.23288101E+04 E0= -.23288101E+04  d E =-.329105E-04  mag=     1.0000
       N       E                     dE             d eps       ncg     rms          rms(c)
DAV:   1    -0.230880377729E+04    0.25977E-06   -0.17630E-03  4784   0.417E-02    0.149E-02
RMM:   2    -0.230880378742E+04   -0.10135E-04   -0.11142E-04  3502   0.766E-03    0.105E-02
RMM:   3    -0.230880378699E+04    0.43656E-06   -0.10987E-05  2735   0.386E-03
 146 F= -.23288101E+04 E0= -.23288101E+04  d E =-.348701E-04  mag=     1.0000
       N       E                     dE             d eps       ncg     rms          rms(c)
DAV:   1    -0.230880380137E+04   -0.13948E-04   -0.78069E-03  4368   0.898E-02    0.279E-02
RMM:   2    -0.230880384499E+04   -0.43615E-04   -0.46954E-04  5402   0.160E-02    0.166E-02
RMM:   3    -0.230880384482E+04    0.16959E-06   -0.37141E-05  2795   0.634E-03
 147 F= -.23288102E+04 E0= -.23288102E+04  d E =-.467567E-04  mag=     1.0000
       N       E                     dE             d eps       ncg     rms          rms(c)
DAV:   1    -0.230880384332E+04    0.16656E-05   -0.18924E-03  4528   0.442E-02    0.166E-02
RMM:   2    -0.230880385267E+04   -0.93449E-05   -0.11443E-04  3604   0.814E-03    0.904E-03
RMM:   3    -0.230880385347E+04   -0.80020E-06   -0.10575E-05  2769   0.405E-03
 148 F= -.23288102E+04 E0= -.23288102E+04  d E =-.498888E-04  mag=     1.0000
       N       E                     dE             d eps       ncg     rms          rms(c)
DAV:   1    -0.230880387250E+04   -0.19833E-04   -0.54123E-03  4376   0.763E-02    0.260E-02
RMM:   2    -0.230880390159E+04   -0.29088E-04   -0.33189E-04  5195   0.140E-02    0.147E-02
RMM:   3    -0.230880389958E+04    0.20104E-05   -0.26487E-05  2801   0.572E-03
 149 F= -.23288102E+04 E0= -.23288102E+04  d E =-.326754E-04  mag=     1.0000
       N       E                     dE             d eps       ncg     rms          rms(c)
DAV:   1    -0.230880390138E+04    0.20588E-06   -0.48512E-04  4952   0.228E-02    0.100E-02
RMM:   2    -0.230880390435E+04   -0.29701E-05   -0.30751E-05  2766   0.440E-03
 150 F= -.23288102E+04 E0= -.23288102E+04  d E =-.333111E-04  mag=     1.0000
