       N       E                     dE             d eps       ncg     rms          rms(c)
DAV:   1     0.130992296142E+05    0.13099E+05   -0.84186E+05  4536   0.144E+03
DAV:   2    -0.100613103140E+04   -0.14105E+05   -0.13481E+05  4944   0.331E+02
DAV:   3    -0.247494680242E+04   -0.14688E+04   -0.14500E+04  5520   0.115E+02
DAV:   4    -0.252266166953E+04   -0.47715E+02   -0.47462E+02  6752   0.304E+01
DAV:   5    -0.252348165408E+04   -0.81998E+00   -0.81837E+00  6368   0.346E+00    0.170E+02
RMM:   6    -0.148990511243E+04    0.10336E+04   -0.19550E+03  4457   0.383E+01    0.722E+01
RMM:   7    -0.166114396733E+04   -0.17124E+03   -0.29392E+02  5079   0.146E+01    0.488E+01
RMM:   8    -0.172254612436E+04   -0.61402E+02   -0.52705E+01  5397   0.730E+00    0.440E+01
RMM:   9    -0.179242793872E+04   -0.69882E+02   -0.58125E+01  5179   0.700E+00    0.359E+01
RMM:  10    -0.192489224316E+04   -0.13246E+03   -0.59871E+01  5276   0.749E+00    0.224E+01
RMM:  11    -0.201163537503E+04   -0.86743E+02   -0.32517E+01  5044   0.493E+00    0.247E+01
RMM:  12    -0.206444327238E+04   -0.52808E+02   -0.19404E+01  5048   0.361E+00    0.154E+01
RMM:  13    -0.215030547420E+04   -0.85862E+02   -0.46489E+01  4749   0.510E+00    0.139E+01
RMM:  14    -0.221611718897E+04   -0.65812E+02   -0.41589E+01  5152   0.491E+00    0.104E+01
RMM:  15    -0.227944647509E+04   -0.63329E+02   -0.50031E+01  4518   0.504E+00    0.568E+00
RMM:  16    -0.230859149180E+04   -0.29145E+02   -0.29348E+01  4582   0.387E+00    0.619E+00
RMM:  17    -0.231172890930E+04   -0.31374E+01   -0.47400E+00  5048   0.186E+00    0.503E+00
RMM:  18    -0.231420624252E+04   -0.24773E+01   -0.19991E+00  4507   0.906E-01    0.298E+00
RMM:  19    -0.231638469388E+04   -0.21785E+01   -0.93125E-01  4520   0.833E-01    0.336E+00
RMM:  20    -0.231663934688E+04   -0.25465E+00   -0.16399E-01  5315   0.335E-01    0.392E+00
RMM:  21    -0.231675225689E+04   -0.11291E+00   -0.73706E-02  4966   0.163E-01    0.339E+00
RMM:  22    -0.231699927794E+04   -0.24702E+00   -0.20735E-01  4510   0.284E-01    0.289E+00
RMM:  23    -0.231691936491E+04    0.79913E-01   -0.14979E-01  4620   0.245E-01    0.471E+00
RMM:  24    -0.231713375539E+04   -0.21439E+00   -0.58751E-02  4647   0.132E-01    0.267E+00
RMM:  25    -0.231727233233E+04   -0.13858E+00   -0.52229E-02  4496   0.159E-01    0.198E+00
RMM:  26    -0.231741011513E+04   -0.13778E+00   -0.85292E-02  4686   0.180E-01    0.348E+00
RMM:  27    -0.231747408833E+04   -0.63973E-01   -0.46737E-02  4967   0.125E-01    0.302E+00
RMM:  28    -0.231750835314E+04   -0.34265E-01   -0.37693E-02  5381   0.856E-02    0.186E+00
RMM:  29    -0.231752616946E+04   -0.17816E-01   -0.48172E-03  4931   0.440E-02    0.166E+00
RMM:  30    -0.231758240088E+04   -0.56231E-01   -0.16724E-02  4469   0.747E-02    0.918E-01
RMM:  31    -0.231761695863E+04   -0.34558E-01   -0.17066E-02  4558   0.796E-02    0.175E-01
RMM:  32    -0.231763253451E+04   -0.15576E-01   -0.50317E-03  4868   0.490E-02    0.103E-01
RMM:  33    -0.231764020676E+04   -0.76722E-02   -0.17519E-03  4639   0.285E-02    0.120E-01
RMM:  34    -0.231764566956E+04   -0.54628E-02   -0.97992E-04  4229   0.199E-02    0.491E-02
RMM:  35    -0.231764789191E+04   -0.22224E-02   -0.47232E-04  4216   0.149E-02    0.339E-02
RMM:  36    -0.231764868758E+04   -0.79567E-03   -0.22479E-04  4180   0.103E-02    0.267E-02
RMM:  37    -0.231764890022E+04   -0.21264E-03   -0.53188E-05  3615   0.615E-03    0.537E-03
RMM:  38    -0.231764896706E+04   -0.66843E-04   -0.15930E-05  2983   0.388E-03    0.327E-03
RMM:  39    -0.231764899211E+04   -0.25047E-04   -0.64203E-06  2821   0.294E-03    0.358E-03
RMM:  40    -0.231764900573E+04   -0.13621E-04   -0.37243E-06  2539   0.218E-03    0.480E-03
RMM:  41    -0.231764901205E+04   -0.63218E-05   -0.20833E-06  2507   0.177E-03
   1 F= -.23389930E+04 E0= -.23389930E+04  d E =-.233899E+04  mag=     2.9994
       N       E                     dE             d eps       ncg     rms          rms(c)
DAV:   1    -0.231672028526E+04    0.92872E+00   -0.81867E+01  4704   0.715E+00    0.280E+00
RMM:   2    -0.231860356463E+04   -0.18833E+01   -0.18662E+01  6619   0.229E+00    0.368E+00
RMM:   3    -0.231849406182E+04    0.10950E+00   -0.18366E+00  6352   0.663E-01    0.203E+00
RMM:   4    -0.231847700084E+04    0.17061E-01   -0.17630E-01  6235   0.145E-01    0.185E+00
RMM:   5    -0.231845248858E+04    0.24512E-01   -0.39663E-02  5800   0.827E-02    0.121E+00
RMM:   6    -0.231844889584E+04    0.35927E-02   -0.37011E-02  6160   0.839E-02    0.125E+00
RMM:   7    -0.231843095503E+04    0.17941E-01   -0.27831E-02  6142   0.798E-02    0.362E-01
RMM:   8    -0.231842966145E+04    0.12936E-02   -0.40930E-03  5496   0.337E-02    0.112E-01
RMM:   9    -0.231842956863E+04    0.92819E-04   -0.50626E-04  4428   0.132E-02    0.783E-02
RMM:  10    -0.231842948612E+04    0.82515E-04   -0.30126E-04  4137   0.115E-02    0.240E-02
RMM:  11    -0.231842948188E+04    0.42389E-05   -0.55254E-05  3060   0.600E-03
   2 F= -.23397757E+04 E0= -.23397757E+04  d E =-.782676E+00  mag=     2.9999
       N       E                     dE             d eps       ncg     rms          rms(c)
DAV:   1    -0.231841326026E+04    0.16226E-01   -0.12928E+00  4960   0.828E-01    0.308E-01
RMM:   2    -0.231843473064E+04   -0.21470E-01   -0.22996E-01  6696   0.214E-01    0.192E-01
RMM:   3    -0.231843661543E+04   -0.18848E-02   -0.22903E-02  5613   0.668E-02    0.276E-01
RMM:   4    -0.231843611840E+04    0.49703E-03   -0.25413E-03  4272   0.171E-02    0.119E-01
RMM:   5    -0.231843619816E+04   -0.79761E-04   -0.58384E-04  4363   0.115E-02    0.172E-01
RMM:   6    -0.231843591487E+04    0.28330E-03   -0.32169E-04  3548   0.928E-03    0.616E-02
RMM:   7    -0.231843587450E+04    0.40365E-04   -0.96291E-05  3672   0.600E-03    0.148E-02
RMM:   8    -0.231843587411E+04    0.39313E-06   -0.12081E-05  2874   0.409E-03
   3 F= -.23397825E+04 E0= -.23397825E+04  d E =-.789444E+00  mag=     3.0000
       N       E                     dE             d eps       ncg     rms          rms(c)
DAV:   1    -0.231858328808E+04   -0.14741E+00   -0.15672E+01  4576   0.364E+00    0.143E+00
RMM:   2    -0.231876752681E+04   -0.18424E+00   -0.23346E+00  6542   0.796E-01    0.866E-01
RMM:   3    -0.231879393382E+04   -0.26407E-01   -0.28264E-01  6207   0.320E-01    0.128E+00
RMM:   4    -0.231877955157E+04    0.14382E-01   -0.34522E-02  6450   0.860E-02    0.536E-01
RMM:   5    -0.231878250041E+04   -0.29488E-02   -0.87476E-03  5684   0.435E-02    0.772E-01
RMM:   6    -0.231877723179E+04    0.52686E-02   -0.47202E-03  5324   0.306E-02    0.250E-01
RMM:   7    -0.231877699581E+04    0.23597E-03   -0.14361E-03  4995   0.196E-02    0.170E-01
RMM:   8    -0.231877668139E+04    0.31443E-03   -0.65944E-04  3978   0.136E-02    0.630E-02
RMM:   9    -0.231877664976E+04    0.31631E-04   -0.10700E-04  3324   0.609E-03    0.192E-02
RMM:  10    -0.231877665487E+04   -0.51158E-05   -0.30010E-05  3032   0.462E-03
   4 F= -.23401254E+04 E0= -.23401254E+04  d E =-.342892E+00  mag=     3.0000
       N       E                     dE             d eps       ncg     rms          rms(c)
DAV:   1    -0.231876343606E+04    0.13214E-01   -0.38239E+00  4712   0.180E+00    0.673E-01
RMM:   2    -0.231880966919E+04   -0.46233E-01   -0.56687E-01  6560   0.390E-01    0.435E-01
RMM:   3    -0.231881688743E+04   -0.72182E-02   -0.65774E-02  6232   0.154E-01    0.705E-01
RMM:   4    -0.231881230816E+04    0.45793E-02   -0.80789E-03  6162   0.418E-02    0.252E-01
RMM:   5    -0.231881373926E+04   -0.14311E-02   -0.26578E-03  5142   0.222E-02    0.443E-01
RMM:   6    -0.231881170643E+04    0.20328E-02   -0.12397E-03  4693   0.171E-02    0.792E-02
RMM:   7    -0.231881167693E+04    0.29495E-04   -0.28420E-04  4018   0.961E-03    0.347E-02
RMM:   8    -0.231881168698E+04   -0.10049E-04   -0.73040E-05  2965   0.698E-03    0.365E-02
RMM:   9    -0.231881167235E+04    0.14634E-04   -0.21141E-05  2911   0.370E-03    0.965E-03
RMM:  10    -0.231881167434E+04   -0.19878E-05   -0.97824E-06  2913   0.264E-03
   5 F= -.23401616E+04 E0= -.23401616E+04  d E =-.379095E+00  mag=     3.0000
       N       E                     dE             d eps       ncg     rms          rms(c)
DAV:   1    -0.231883757923E+04   -0.25907E-01   -0.10752E+01  4544   0.315E+00    0.853E-01
RMM:   2    -0.231895691823E+04   -0.11934E+00   -0.12791E+00  6318   0.613E-01    0.702E-01
RMM:   3    -0.231897263567E+04   -0.15717E-01   -0.13852E-01  6092   0.245E-01    0.100E+00
RMM:   4    -0.231896391695E+04    0.87187E-02   -0.14922E-02  6187   0.578E-02    0.377E-01
RMM:   5    -0.231896376332E+04    0.15363E-03   -0.35278E-03  5281   0.276E-02    0.348E-01
RMM:   6    -0.231896257245E+04    0.11909E-02   -0.28186E-03  5411   0.298E-02    0.177E-01
RMM:   7    -0.231896254997E+04    0.22476E-04   -0.12683E-03  5227   0.212E-02    0.160E-01
RMM:   8    -0.231896225234E+04    0.29763E-03   -0.39787E-04  4497   0.117E-02    0.434E-02
RMM:   9    -0.231896222028E+04    0.32060E-04   -0.65541E-05  3054   0.653E-03    0.227E-02
RMM:  10    -0.231896221184E+04    0.84368E-05   -0.27924E-05  2983   0.452E-03
   6 F= -.23403144E+04 E0= -.23403144E+04  d E =-.152798E+00  mag=     3.0000
       N       E                     dE             d eps       ncg     rms          rms(c)
DAV:   1    -0.231888877763E+04    0.73443E-01   -0.10900E+01  4560   0.317E+00    0.860E-01
RMM:   2    -0.231900837433E+04   -0.11960E+00   -0.12837E+00  6324   0.607E-01    0.714E-01
RMM:   3    -0.231902392431E+04   -0.15550E-01   -0.13972E-01  6103   0.240E-01    0.999E-01
RMM:   4    -0.231901529925E+04    0.86251E-02   -0.15067E-02  6165   0.577E-02    0.385E-01
RMM:   5    -0.231901509805E+04    0.20120E-03   -0.35906E-03  5281   0.278E-02    0.351E-01
RMM:   6    -0.231901390740E+04    0.11907E-02   -0.28859E-03  5368   0.299E-02    0.181E-01
RMM:   7    -0.231901387074E+04    0.36660E-04   -0.13232E-03  5153   0.213E-02    0.163E-01
RMM:   8    -0.231901355695E+04    0.31378E-03   -0.40058E-04  4559   0.117E-02    0.419E-02
RMM:   9    -0.231901352538E+04    0.31573E-04   -0.66187E-05  3096   0.656E-03    0.226E-02
RMM:  10    -0.231901351641E+04    0.89658E-05   -0.29254E-05  3014   0.462E-03
   7 F= -.23403681E+04 E0= -.23403681E+04  d E =-.206546E+00  mag=     3.0000
       N       E                     dE             d eps       ncg     rms          rms(c)
DAV:   1    -0.231891473160E+04    0.98794E-01   -0.16804E+01  4544   0.410E+00    0.134E+00
RMM:   2    -0.231913332136E+04   -0.21859E+00   -0.22874E+00  6276   0.882E-01    0.128E+00
RMM:   3    -0.231915430101E+04   -0.20980E-01   -0.25525E-01  6110   0.332E-01    0.148E+00
RMM:   4    -0.231913535713E+04    0.18944E-01   -0.28963E-02  6083   0.861E-02    0.633E-01
RMM:   5    -0.231913310788E+04    0.22492E-02   -0.69247E-03  5493   0.437E-02    0.442E-01
RMM:   6    -0.231913076051E+04    0.23474E-02   -0.55336E-03  5068   0.453E-02    0.167E-01
RMM:   7    -0.231913079730E+04   -0.36789E-04   -0.17483E-03  5029   0.325E-02    0.158E-01
RMM:   8    -0.231913055908E+04    0.23822E-03   -0.60177E-04  4761   0.138E-02    0.657E-02
RMM:   9    -0.231913048705E+04    0.72036E-04   -0.11608E-04  3437   0.835E-03    0.284E-02
RMM:  10    -0.231913047299E+04    0.14055E-04   -0.53457E-05  3299   0.630E-03    0.122E-02
RMM:  11    -0.231913047108E+04    0.19182E-05   -0.15098E-05  2940   0.471E-03
   8 F= -.23404871E+04 E0= -.23404871E+04  d E =-.119001E+00  mag=     3.0000
       N       E                     dE             d eps       ncg     rms          rms(c)
DAV:   1    -0.231911188301E+04    0.18590E-01   -0.20969E+00  4688   0.147E+00    0.470E-01
RMM:   2    -0.231913845217E+04   -0.26569E-01   -0.28288E-01  6232   0.306E-01    0.398E-01
RMM:   3    -0.231914176034E+04   -0.33082E-02   -0.30422E-02  6027   0.118E-01    0.533E-01
RMM:   4    -0.231913915171E+04    0.26086E-02   -0.36464E-03  5722   0.309E-02    0.207E-01
RMM:   5    -0.231913900139E+04    0.15032E-03   -0.88980E-04  4555   0.163E-02    0.169E-01
RMM:   6    -0.231913865335E+04    0.34805E-03   -0.69253E-04  4878   0.166E-02    0.579E-02
RMM:   7    -0.231913866543E+04   -0.12084E-04   -0.22364E-04  4025   0.121E-02    0.609E-02
RMM:   8    -0.231913862596E+04    0.39471E-04   -0.73429E-05  3074   0.584E-03    0.213E-02
RMM:   9    -0.231913861846E+04    0.75040E-05   -0.15714E-05  2930   0.388E-03
   9 F= -.23404960E+04 E0= -.23404960E+04  d E =-.127922E+00  mag=     3.0000
       N       E                     dE             d eps       ncg     rms          rms(c)
DAV:   1    -0.231906484562E+04    0.73780E-01   -0.12037E+01  4656   0.363E+00    0.131E+00
RMM:   2    -0.231917593337E+04   -0.11109E+00   -0.12328E+00  6025   0.727E-01    0.974E-01
RMM:   3    -0.231919838714E+04   -0.22454E-01   -0.14234E-01  5915   0.290E-01    0.163E+00
RMM:   4    -0.231917373712E+04    0.24650E-01   -0.21235E-02  6065   0.850E-02    0.518E-01
RMM:   5    -0.231917338118E+04    0.35594E-03   -0.72663E-03  5662   0.491E-02    0.497E-01
RMM:   6    -0.231917017921E+04    0.32020E-02   -0.46665E-03  5178   0.430E-02    0.144E-01
RMM:   7    -0.231917017860E+04    0.60906E-06   -0.13089E-03  5121   0.275E-02    0.155E-01
RMM:   8    -0.231916984752E+04    0.33108E-03   -0.51221E-04  4673   0.122E-02    0.531E-02
RMM:   9    -0.231916977229E+04    0.75230E-04   -0.10617E-04  3694   0.787E-03    0.234E-02
RMM:  10    -0.231916974362E+04    0.28672E-04   -0.50791E-05  3577   0.655E-03    0.116E-02
RMM:  11    -0.231916973545E+04    0.81739E-05   -0.20592E-05  3035   0.534E-03
  10 F= -.23405287E+04 E0= -.23405287E+04  d E =-.326315E-01  mag=     3.0000
       N       E                     dE             d eps       ncg     rms          rms(c)
DAV:   1    -0.231916794113E+04    0.18025E-02   -0.99634E-01  4736   0.102E+00    0.377E-01
RMM:   2    -0.231917678785E+04   -0.88467E-02   -0.10098E-01  6017   0.203E-01    0.232E-01
RMM:   3    -0.231917883914E+04   -0.20513E-02   -0.11799E-02  5787   0.847E-02    0.447E-01
RMM:   4    -0.231917689608E+04    0.19431E-02   -0.16570E-03  5655   0.239E-02    0.126E-01
RMM:   5    -0.231917703302E+04   -0.13693E-03   -0.67925E-04  4626   0.149E-02    0.171E-01
RMM:   6    -0.231917667011E+04    0.36290E-03   -0.40323E-04  4766   0.128E-02    0.309E-02
RMM:   7    -0.231917666919E+04    0.92169E-06   -0.75567E-05  3181   0.784E-03
  11 F= -.23405352E+04 E0= -.23405352E+04  d E =-.391226E-01  mag=     3.0000
       N       E                     dE             d eps       ncg     rms          rms(c)
DAV:   1    -0.231918720994E+04   -0.10540E-01   -0.29044E+00  4576   0.170E+00    0.426E-01
RMM:   2    -0.231921010913E+04   -0.22899E-01   -0.23818E-01  6135   0.304E-01    0.402E-01
RMM:   3    -0.231921254034E+04   -0.24312E-02   -0.24767E-02  5817   0.114E-01    0.499E-01
RMM:   4    -0.231921032507E+04    0.22153E-02   -0.27649E-03  5612   0.293E-02    0.186E-01
RMM:   5    -0.231921029670E+04    0.28371E-04   -0.12217E-03  5178   0.187E-02    0.180E-01
RMM:   6    -0.231920993215E+04    0.36455E-03   -0.88154E-04  4950   0.173E-02    0.576E-02
RMM:   7    -0.231920997276E+04   -0.40611E-04   -0.18485E-04  3319   0.112E-02    0.776E-02
RMM:   8    -0.231920989848E+04    0.74280E-04   -0.63875E-05  2953   0.520E-03    0.163E-02
RMM:   9    -0.231920989408E+04    0.44013E-05   -0.13595E-05  2938   0.320E-03
  12 F= -.23405691E+04 E0= -.23405691E+04  d E =-.339705E-01  mag=     3.0000
       N       E                     dE             d eps       ncg     rms          rms(c)
DAV:   1    -0.231912473536E+04    0.85163E-01   -0.14358E+01  4528   0.379E+00    0.955E-01
RMM:   2    -0.231923750501E+04   -0.11277E+00   -0.11833E+00  6113   0.681E-01    0.839E-01
RMM:   3    -0.231925064966E+04   -0.13145E-01   -0.12557E-01  5847   0.256E-01    0.111E+00
RMM:   4    -0.231923974373E+04    0.10906E-01   -0.13903E-02  6119   0.650E-02    0.417E-01
RMM:   5    -0.231923955376E+04    0.18997E-03   -0.60641E-03  5818   0.404E-02    0.395E-01
RMM:   6    -0.231923791636E+04    0.16374E-02   -0.44710E-03  5394   0.366E-02    0.146E-01
RMM:   7    -0.231923798277E+04   -0.66412E-04   -0.85081E-04  4830   0.214E-02    0.157E-01
RMM:   8    -0.231923769262E+04    0.29015E-03   -0.30084E-04  3526   0.924E-03    0.427E-02
RMM:   9    -0.231923766352E+04    0.29100E-04   -0.65331E-05  3068   0.582E-03    0.185E-02
RMM:  10    -0.231923766041E+04    0.31072E-05   -0.23823E-05  2991   0.436E-03
  13 F= -.23405986E+04 E0= -.23405986E+04  d E =-.633869E-01  mag=     3.0000
       N       E                     dE             d eps       ncg     rms          rms(c)
DAV:   1    -0.231924736065E+04   -0.96971E-02   -0.60597E-01  4656   0.780E-01    0.191E-01
RMM:   2    -0.231925211246E+04   -0.47518E-02   -0.49560E-02  6171   0.141E-01    0.159E-01
RMM:   3    -0.231925269742E+04   -0.58496E-03   -0.49301E-03  5569   0.497E-02    0.226E-01
RMM:   4    -0.231925222368E+04    0.47374E-03   -0.56017E-04  3790   0.133E-02    0.758E-02
RMM:   5    -0.231925223296E+04   -0.92764E-05   -0.25394E-04  3698   0.970E-03    0.815E-02
RMM:   6    -0.231925215880E+04    0.74156E-04   -0.17617E-04  3977   0.890E-03    0.266E-02
RMM:   7    -0.231925216611E+04   -0.73107E-05   -0.38309E-05  2930   0.598E-03
  14 F= -.23406134E+04 E0= -.23406134E+04  d E =-.148167E-01  mag=     3.0000
       N       E                     dE             d eps       ncg     rms          rms(c)
DAV:   1    -0.231924437081E+04    0.77880E-02   -0.54385E+00  4536   0.234E+00    0.572E-01
RMM:   2    -0.231928690823E+04   -0.42537E-01   -0.44584E-01  6174   0.423E-01    0.457E-01
RMM:   3    -0.231929244171E+04   -0.55335E-02   -0.45185E-02  5936   0.152E-01    0.678E-01
RMM:   4    -0.231928820118E+04    0.42405E-02   -0.50467E-03  5980   0.391E-02    0.224E-01
RMM:   5    -0.231928824579E+04   -0.44604E-04   -0.22229E-03  5506   0.253E-02    0.236E-01
RMM:   6    -0.231928764383E+04    0.60196E-03   -0.14136E-03  5482   0.211E-02    0.888E-02
RMM:   7    -0.231928767401E+04   -0.30180E-04   -0.30967E-04  4121   0.119E-02    0.956E-02
RMM:   8    -0.231928756292E+04    0.11109E-03   -0.10716E-04  3005   0.648E-03    0.225E-02
RMM:   9    -0.231928755328E+04    0.96434E-05   -0.25665E-05  2969   0.403E-03
  15 F= -.23406497E+04 E0= -.23406497E+04  d E =-.511172E-01  mag=     3.0000
       N       E                     dE             d eps       ncg     rms          rms(c)
DAV:   1    -0.231914867488E+04    0.13889E+00   -0.21728E+01  4528   0.468E+00    0.114E+00
RMM:   2    -0.231931977042E+04   -0.17110E+00   -0.17919E+00  6174   0.847E-01    0.918E-01
RMM:   3    -0.231934239497E+04   -0.22625E-01   -0.18872E-01  5963   0.311E-01    0.136E+00
RMM:   4    -0.231932531808E+04    0.17077E-01   -0.20220E-02  6270   0.783E-02    0.450E-01
RMM:   5    -0.231932504941E+04    0.26867E-03   -0.83633E-03  5758   0.487E-02    0.440E-01
RMM:   6    -0.231932316413E+04    0.18853E-02   -0.57914E-03  5731   0.407E-02    0.210E-01
RMM:   7    -0.231932309474E+04    0.69394E-04   -0.13865E-03  5448   0.243E-02    0.188E-01
RMM:   8    -0.231932266228E+04    0.43245E-03   -0.46141E-04  3870   0.115E-02    0.491E-02
RMM:   9    -0.231932261718E+04    0.45100E-04   -0.12297E-04  3308   0.724E-03    0.238E-02
RMM:  10    -0.231932260814E+04    0.90476E-05   -0.40403E-05  3100   0.579E-03
  16 F= -.23406865E+04 E0= -.23406865E+04  d E =-.879102E-01  mag=     3.0000
       N       E                     dE             d eps       ncg     rms          rms(c)
DAV:   1    -0.231932490066E+04   -0.22835E-02   -0.19654E+00  4576   0.139E+00    0.414E-01
RMM:   2    -0.231935162830E+04   -0.26728E-01   -0.27560E-01  6352   0.295E-01    0.393E-01
RMM:   3    -0.231935461342E+04   -0.29851E-02   -0.31608E-02  6094   0.111E-01    0.491E-01
RMM:   4    -0.231935237827E+04    0.22351E-02   -0.32254E-03  5711   0.278E-02    0.168E-01
RMM:   5    -0.231935241732E+04   -0.39043E-04   -0.95185E-04  4797   0.160E-02    0.181E-01
RMM:   6    -0.231935204917E+04    0.36814E-03   -0.68947E-04  4900   0.151E-02    0.772E-02
RMM:   7    -0.231935203301E+04    0.16163E-04   -0.27331E-04  3545   0.114E-02    0.637E-02
RMM:   8    -0.231935198314E+04    0.49865E-04   -0.54040E-05  3000   0.557E-03    0.124E-02
RMM:   9    -0.231935197923E+04    0.39174E-05   -0.11504E-05  2928   0.351E-03
  17 F= -.23407165E+04 E0= -.23407165E+04  d E =-.300595E-01  mag=     3.0000
       N       E                     dE             d eps       ncg     rms          rms(c)
DAV:   1    -0.231926561249E+04    0.86371E-01   -0.81742E+00  4496   0.283E+00    0.849E-01
RMM:   2    -0.231937744632E+04   -0.11183E+00   -0.11471E+00  6338   0.596E-01    0.839E-01
RMM:   3    -0.231938893290E+04   -0.11487E-01   -0.13379E-01  6161   0.228E-01    0.999E-01
RMM:   4    -0.231938008228E+04    0.88506E-02   -0.13655E-02  6133   0.561E-02    0.371E-01
RMM:   5    -0.231937970147E+04    0.38081E-03   -0.37852E-03  5507   0.294E-02    0.338E-01
RMM:   6    -0.231937853978E+04    0.11617E-02   -0.28623E-03  5384   0.292E-02    0.190E-01
RMM:   7    -0.231937833083E+04    0.20895E-03   -0.13445E-03  5152   0.215E-02    0.132E-01
RMM:   8    -0.231937811004E+04    0.22080E-03   -0.23560E-04  4107   0.945E-03    0.259E-02
RMM:   9    -0.231937808747E+04    0.22573E-04   -0.45928E-05  3004   0.635E-03    0.188E-02
RMM:  10    -0.231937807661E+04    0.10860E-04   -0.33500E-05  3106   0.445E-03    0.658E-03
RMM:  11    -0.231937807422E+04    0.23891E-05   -0.71589E-06  2879   0.373E-03
  18 F= -.23407440E+04 E0= -.23407440E+04  d E =-.575633E-01  mag=     3.0000
       N       E                     dE             d eps       ncg     rms          rms(c)
DAV:   1    -0.231935294542E+04    0.25131E-01   -0.25617E+00  4560   0.153E+00    0.495E-01
RMM:   2    -0.231940145167E+04   -0.48506E-01   -0.49031E-01  6511   0.356E-01    0.590E-01
RMM:   3    -0.231940526609E+04   -0.38144E-02   -0.58421E-02  6209   0.133E-01    0.566E-01
RMM:   4    -0.231940250756E+04    0.27585E-02   -0.56661E-03  5599   0.318E-02    0.219E-01
RMM:   5    -0.231940222162E+04    0.28594E-03   -0.11248E-03  4563   0.158E-02    0.174E-01
RMM:   6    -0.231940196980E+04    0.25182E-03   -0.87778E-04  4985   0.160E-02    0.120E-01
RMM:   7    -0.231940188601E+04    0.83796E-04   -0.47099E-04  4004   0.124E-02    0.819E-02
RMM:   8    -0.231940181309E+04    0.72920E-04   -0.94348E-05  3284   0.685E-03    0.168E-02
RMM:   9    -0.231940180802E+04    0.50655E-05   -0.15390E-05  2949   0.466E-03
  19 F= -.23407688E+04 E0= -.23407688E+04  d E =-.247883E-01  mag=     3.0000
       N       E                     dE             d eps       ncg     rms          rms(c)
DAV:   1    -0.231922632518E+04    0.17549E+00   -0.99057E+00  4528   0.302E+00    0.983E-01
RMM:   2    -0.231941577587E+04   -0.18945E+00   -0.19081E+00  6529   0.705E-01    0.118E+00
RMM:   3    -0.231942896536E+04   -0.13189E-01   -0.23248E-01  6309   0.267E-01    0.111E+00
RMM:   4    -0.231941914928E+04    0.98161E-02   -0.22647E-02  6139   0.629E-02    0.473E-01
RMM:   5    -0.231941746355E+04    0.16857E-02   -0.45421E-03  5608   0.296E-02    0.333E-01
RMM:   6    -0.231941670728E+04    0.75627E-03   -0.32671E-03  5537   0.293E-02    0.259E-01
RMM:   7    -0.231941622155E+04    0.48572E-03   -0.20004E-03  5367   0.230E-02    0.155E-01
RMM:   8    -0.231941596460E+04    0.25695E-03   -0.41951E-04  4857   0.119E-02    0.341E-02
RMM:   9    -0.231941594374E+04    0.20865E-04   -0.55211E-05  3056   0.748E-03    0.235E-02
RMM:  10    -0.231941593877E+04    0.49728E-05   -0.49585E-05  3050   0.478E-03
  20 F= -.23407851E+04 E0= -.23407851E+04  d E =-.410433E-01  mag=     3.0000
       N       E                     dE             d eps       ncg     rms          rms(c)
DAV:   1    -0.231938166770E+04    0.34276E-01   -0.29916E+00  4544   0.175E+00    0.552E-01
RMM:   2    -0.231943225510E+04   -0.50587E-01   -0.49262E-01  6331   0.376E-01    0.733E-01
RMM:   3    -0.231943409257E+04   -0.18375E-02   -0.51510E-02  6118   0.140E-01    0.593E-01
RMM:   4    -0.231943077068E+04    0.33219E-02   -0.51708E-03  5415   0.350E-02    0.185E-01
RMM:   5    -0.231943074017E+04    0.30509E-04   -0.12335E-03  4900   0.190E-02    0.194E-01
RMM:   6    -0.231943032710E+04    0.41307E-03   -0.94672E-04  5135   0.179E-02    0.920E-02
RMM:   7    -0.231943033293E+04   -0.58288E-05   -0.39071E-04  3942   0.129E-02    0.896E-02
RMM:   8    -0.231943023954E+04    0.93393E-04   -0.90869E-05  3078   0.642E-03    0.178E-02
RMM:   9    -0.231943023211E+04    0.74203E-05   -0.16257E-05  2946   0.417E-03
  21 F= -.23408002E+04 E0= -.23408002E+04  d E =-.150918E-01  mag=     3.0000
       N       E                     dE             d eps       ncg     rms          rms(c)
DAV:   1    -0.231933809874E+04    0.92141E-01   -0.60621E+00  4528   0.249E+00    0.788E-01
RMM:   2    -0.231944071676E+04   -0.10262E+00   -0.10000E+00  6314   0.535E-01    0.104E+00
RMM:   3    -0.231944451206E+04   -0.37953E-02   -0.10575E-01  6118   0.201E-01    0.847E-01
RMM:   4    -0.231943780155E+04    0.67105E-02   -0.10523E-02  5617   0.499E-02    0.273E-01
RMM:   5    -0.231943763559E+04    0.16596E-03   -0.24581E-03  5317   0.260E-02    0.272E-01
RMM:   6    -0.231943681745E+04    0.81814E-03   -0.18707E-03  5317   0.248E-02    0.133E-01
RMM:   7    -0.231943681996E+04   -0.25040E-05   -0.84315E-04  4750   0.175E-02    0.128E-01
RMM:   8    -0.231943662470E+04    0.19526E-03   -0.20172E-04  3794   0.853E-03    0.258E-02
RMM:   9    -0.231943660689E+04    0.17807E-04   -0.32843E-05  2962   0.544E-03    0.169E-02
RMM:  10    -0.231943659994E+04    0.69466E-05   -0.25915E-05  2933   0.397E-03
  22 F= -.23408077E+04 E0= -.23408077E+04  d E =-.226216E-01  mag=     3.0000
       N       E                     dE             d eps       ncg     rms          rms(c)
DAV:   1    -0.231942177995E+04    0.14827E-01   -0.17363E+00  4560   0.129E+00    0.396E-01
RMM:   2    -0.231945246518E+04   -0.30685E-01   -0.29674E-01  6401   0.279E-01    0.567E-01
RMM:   3    -0.231945317231E+04   -0.70713E-03   -0.30529E-02  6110   0.103E-01    0.400E-01
RMM:   4    -0.231945171632E+04    0.14560E-02   -0.29748E-03  5057   0.246E-02    0.133E-01
RMM:   5    -0.231945173404E+04   -0.17723E-04   -0.55240E-04  3838   0.125E-02    0.146E-01
RMM:   6    -0.231945147014E+04    0.26390E-03   -0.47898E-04  4540   0.132E-02    0.460E-02
RMM:   7    -0.231945147190E+04   -0.17615E-05   -0.11364E-04  3330   0.921E-03    0.321E-02
RMM:   8    -0.231945146344E+04    0.84559E-05   -0.31955E-05  2914   0.475E-03
  23 F= -.23408231E+04 E0= -.23408231E+04  d E =-.153940E-01  mag=     3.0000
       N       E                     dE             d eps       ncg     rms          rms(c)
DAV:   1    -0.231920928521E+04    0.24219E+00   -0.15599E+01  4496   0.386E+00    0.119E+00
RMM:   2    -0.231948559618E+04   -0.27631E+00   -0.26972E+00  6392   0.840E-01    0.161E+00
RMM:   3    -0.231949527297E+04   -0.96768E-02   -0.28340E-01  6219   0.311E-01    0.124E+00
RMM:   4    -0.231948177935E+04    0.13494E-01   -0.27542E-02  5761   0.744E-02    0.468E-01
RMM:   5    -0.231948083952E+04    0.93983E-03   -0.52083E-03  5556   0.342E-02    0.403E-01
RMM:   6    -0.231947880189E+04    0.20376E-02   -0.41067E-03  5246   0.363E-02    0.142E-01
RMM:   7    -0.231947874695E+04    0.54938E-04   -0.11912E-03  4881   0.240E-02    0.708E-02
RMM:   8    -0.231947873233E+04    0.14626E-04   -0.23524E-04  3670   0.105E-02    0.640E-02
RMM:   9    -0.231947866861E+04    0.63718E-04   -0.85349E-05  2971   0.684E-03    0.292E-02
RMM:  10    -0.231947865281E+04    0.15793E-04   -0.57387E-05  3007   0.502E-03    0.830E-03
RMM:  11    -0.231947865214E+04    0.67422E-06   -0.10190E-05  2918   0.363E-03
  24 F= -.23408519E+04 E0= -.23408519E+04  d E =-.442350E-01  mag=     3.0000
       N       E                     dE             d eps       ncg     rms          rms(c)
DAV:   1    -0.231834957323E+04    0.11291E+01   -0.62185E+01  4496   0.771E+00    0.240E+00
RMM:   2    -0.231947209386E+04   -0.11225E+01   -0.11078E+01  6422   0.173E+00    0.296E+00
RMM:   3    -0.231952377961E+04   -0.51686E-01   -0.11834E+00  6253   0.631E-01    0.253E+00
RMM:   4    -0.231947019797E+04    0.53582E-01   -0.11386E-01  5965   0.150E-01    0.110E+00
RMM:   5    -0.231946234748E+04    0.78505E-02   -0.21326E-02  5899   0.678E-02    0.768E-01
RMM:   6    -0.231945505068E+04    0.72968E-02   -0.15028E-02  5317   0.678E-02    0.327E-01
RMM:   7    -0.231945446154E+04    0.58913E-03   -0.64830E-03  5225   0.500E-02    0.126E-01
RMM:   8    -0.231945446012E+04    0.14239E-05   -0.99564E-04  4972   0.232E-02    0.151E-01
RMM:   9    -0.231945418708E+04    0.27304E-03   -0.36647E-04  3954   0.105E-02    0.630E-02
RMM:  10    -0.231945411498E+04    0.72108E-04   -0.23838E-04  3631   0.887E-03    0.185E-02
RMM:  11    -0.231945411167E+04    0.33103E-05   -0.45001E-05  3031   0.579E-03
  25 F= -.23408310E+04 E0= -.23408310E+04  d E =-.232759E-01  mag=     3.0000
       N       E                     dE             d eps       ncg     rms          rms(c)
DAV:   1    -0.231893924235E+04    0.51487E+00   -0.31031E+01  4496   0.543E+00    0.170E+00
RMM:   2    -0.231951619944E+04   -0.57696E+00   -0.54614E+00  6429   0.122E+00    0.269E+00
RMM:   3    -0.231950869448E+04    0.75050E-02   -0.59118E-01  6243   0.441E-01    0.152E+00
RMM:   4    -0.231948741208E+04    0.21282E-01   -0.54282E-02  5834   0.104E-01    0.596E-01
RMM:   5    -0.231948682510E+04    0.58699E-03   -0.92906E-03  5970   0.481E-02    0.573E-01
RMM:   6    -0.231948320441E+04    0.36207E-02   -0.75094E-03  5280   0.463E-02    0.274E-01
RMM:   7    -0.231948350394E+04   -0.29953E-03   -0.38014E-03  5308   0.367E-02    0.274E-01
RMM:   8    -0.231948256571E+04    0.93822E-03   -0.10363E-03  5232   0.168E-02    0.646E-02
RMM:   9    -0.231948249439E+04    0.71325E-04   -0.15368E-04  3195   0.797E-03    0.320E-02
RMM:  10    -0.231948247463E+04    0.19755E-04   -0.67268E-05  3038   0.632E-03    0.104E-02
RMM:  11    -0.231948247262E+04    0.20090E-05   -0.19661E-05  2958   0.458E-03
  26 F= -.23408568E+04 E0= -.23408568E+04  d E =-.490701E-01  mag=     3.0000
       N       E                     dE             d eps       ncg     rms          rms(c)
DAV:   1    -0.231941460652E+04    0.67868E-01   -0.47157E+00  4504   0.208E+00    0.675E-01
RMM:   2    -0.231950559098E+04   -0.90984E-01   -0.88569E-01  6489   0.471E-01    0.936E-01
RMM:   3    -0.231950794798E+04   -0.23570E-02   -0.92361E-02  6296   0.174E-01    0.674E-01
RMM:   4    -0.231950421418E+04    0.37338E-02   -0.91373E-03  5713   0.419E-02    0.287E-01
RMM:   5    -0.231950369208E+04    0.52210E-03   -0.16228E-03  4725   0.189E-02    0.206E-01
RMM:   6    -0.231950315187E+04    0.54021E-03   -0.12132E-03  5014   0.202E-02    0.810E-02
RMM:   7    -0.231950317240E+04   -0.20531E-04   -0.39341E-04  4351   0.144E-02    0.593E-02
RMM:   8    -0.231950313598E+04    0.36420E-04   -0.10719E-04  3001   0.660E-03    0.332E-02
RMM:   9    -0.231950311862E+04    0.17363E-04   -0.20614E-05  2928   0.424E-03    0.128E-02
RMM:  10    -0.231950311658E+04    0.20332E-05   -0.15153E-05  2927   0.277E-03
  27 F= -.23408785E+04 E0= -.23408785E+04  d E =-.217603E-01  mag=     3.0000
       N       E                     dE             d eps       ncg     rms          rms(c)
DAV:   1    -0.231888810943E+04    0.61501E+00   -0.33397E+01  4496   0.555E+00    0.182E+00
RMM:   2    -0.231954280334E+04   -0.65469E+00   -0.64073E+00  6484   0.129E+00    0.238E+00
RMM:   3    -0.231956051320E+04   -0.17710E-01   -0.67985E-01  6351   0.470E-01    0.179E+00
RMM:   4    -0.231953590303E+04    0.24610E-01   -0.67342E-02  5979   0.112E-01    0.895E-01
RMM:   5    -0.231952973878E+04    0.61642E-02   -0.11934E-02  5772   0.489E-02    0.531E-01
RMM:   6    -0.231952630020E+04    0.34386E-02   -0.83979E-03  5285   0.513E-02    0.249E-01
RMM:   7    -0.231952663121E+04   -0.33100E-03   -0.39629E-03  5444   0.379E-02    0.224E-01
RMM:   8    -0.231952604091E+04    0.59029E-03   -0.12340E-03  4907   0.182E-02    0.946E-02
RMM:   9    -0.231952590289E+04    0.13803E-03   -0.18481E-04  3320   0.853E-03    0.391E-02
RMM:  10    -0.231952588202E+04    0.20866E-04   -0.97937E-05  3129   0.680E-03    0.128E-02
RMM:  11    -0.231952588150E+04    0.51598E-06   -0.20889E-05  2952   0.463E-03
  28 F= -.23409044E+04 E0= -.23409044E+04  d E =-.476266E-01  mag=     3.0000
       N       E                     dE             d eps       ncg     rms          rms(c)
DAV:   1    -0.231943698304E+04    0.88899E-01   -0.59531E+00  4504   0.236E+00    0.808E-01
RMM:   2    -0.231955238851E+04   -0.11541E+00   -0.10952E+00  6376   0.540E-01    0.117E+00
RMM:   3    -0.231955065637E+04    0.17321E-02   -0.11426E-01  6231   0.204E-01    0.724E-01
RMM:   4    -0.231954682117E+04    0.38352E-02   -0.11962E-02  5768   0.488E-02    0.380E-01
RMM:   5    -0.231954565118E+04    0.11700E-02   -0.23670E-03  5078   0.236E-02    0.227E-01
RMM:   6    -0.231954494924E+04    0.70193E-03   -0.16410E-03  5063   0.243E-02    0.841E-02
RMM:   7    -0.231954492322E+04    0.26025E-04   -0.34621E-04  4257   0.167E-02    0.293E-02
RMM:   8    -0.231954491485E+04    0.83683E-05   -0.58833E-05  3207   0.588E-03
  29 F= -.23409248E+04 E0= -.23409248E+04  d E =-.203733E-01  mag=     3.0000
       N       E                     dE             d eps       ncg     rms          rms(c)
DAV:   1    -0.231948213799E+04    0.62785E-01   -0.36842E+00  4528   0.185E+00    0.639E-01
RMM:   2    -0.231955383938E+04   -0.71701E-01   -0.67835E-01  6368   0.426E-01    0.936E-01
RMM:   3    -0.231955242906E+04    0.14103E-02   -0.70020E-02  6219   0.156E-01    0.567E-01
RMM:   4    -0.231955000323E+04    0.24258E-02   -0.73437E-03  5588   0.382E-02    0.288E-01
RMM:   5    -0.231954938223E+04    0.62100E-03   -0.14578E-03  4701   0.191E-02    0.185E-01
RMM:   6    -0.231954893744E+04    0.44479E-03   -0.10392E-03  4990   0.194E-02    0.726E-02
RMM:   7    -0.231954895676E+04   -0.19314E-04   -0.30569E-04  4078   0.146E-02    0.689E-02
RMM:   8    -0.231954889872E+04    0.58039E-04   -0.81450E-05  3031   0.581E-03    0.187E-02
RMM:   9    -0.231954888893E+04    0.97900E-05   -0.17222E-05  2951   0.385E-03
  30 F= -.23409298E+04 E0= -.23409298E+04  d E =-.254168E-01  mag=     3.0000
       N       E                     dE             d eps       ncg     rms          rms(c)
DAV:   1    -0.231945496216E+04    0.93937E-01   -0.63509E+00  4504   0.242E+00    0.791E-01
RMM:   2    -0.231957594639E+04   -0.12098E+00   -0.11235E+00  6531   0.546E-01    0.125E+00
RMM:   3    -0.231957125121E+04    0.46952E-02   -0.11769E-01  6311   0.198E-01    0.650E-01
RMM:   4    -0.231956857972E+04    0.26715E-02   -0.12230E-02  5716   0.472E-02    0.371E-01
RMM:   5    -0.231956745465E+04    0.11251E-02   -0.22269E-03  5037   0.220E-02    0.227E-01
RMM:   6    -0.231956690851E+04    0.54614E-03   -0.16088E-03  5050   0.227E-02    0.126E-01
RMM:   7    -0.231956693808E+04   -0.29573E-04   -0.80250E-04  4299   0.191E-02    0.118E-01
RMM:   8    -0.231956676612E+04    0.17196E-03   -0.16586E-04  3314   0.758E-03    0.210E-02
RMM:   9    -0.231956675738E+04    0.87410E-05   -0.28462E-05  2960   0.473E-03
  31 F= -.23409490E+04 E0= -.23409490E+04  d E =-.191467E-01  mag=     3.0000
       N       E                     dE             d eps       ncg     rms          rms(c)
DAV:   1    -0.231880003461E+04    0.76673E+00   -0.43525E+01  4496   0.636E+00    0.209E+00
RMM:   2    -0.231963607917E+04   -0.83604E+00   -0.78575E+00  6546   0.149E+00    0.304E+00
RMM:   3    -0.231961069728E+04    0.25382E-01   -0.83706E-01  6367   0.524E-01    0.174E+00
RMM:   4    -0.231959231888E+04    0.18378E-01   -0.85982E-02  6044   0.125E-01    0.104E+00
RMM:   5    -0.231958295626E+04    0.93626E-02   -0.16571E-02  5929   0.570E-02    0.600E-01
RMM:   6    -0.231958061501E+04    0.23413E-02   -0.11371E-02  5373   0.553E-02    0.463E-01
RMM:   7    -0.231957917083E+04    0.14442E-02   -0.76826E-03  5622   0.486E-02    0.294E-01
RMM:   8    -0.231957820053E+04    0.97030E-03   -0.11351E-03  5437   0.194E-02    0.644E-02
RMM:   9    -0.231957813994E+04    0.60587E-04   -0.22170E-04  3351   0.102E-02    0.356E-02
RMM:  10    -0.231957813855E+04    0.13895E-05   -0.10180E-04  3308   0.691E-03    0.121E-02
RMM:  11    -0.231957814666E+04   -0.81073E-05   -0.20889E-05  2961   0.464E-03
  32 F= -.23409638E+04 E0= -.23409638E+04  d E =-.339885E-01  mag=     3.0000
       N       E                     dE             d eps       ncg     rms          rms(c)
DAV:   1    -0.231954388876E+04    0.34250E-01   -0.20672E+00  4560   0.138E+00    0.450E-01
RMM:   2    -0.231958306995E+04   -0.39181E-01   -0.36382E-01  6526   0.311E-01    0.724E-01
RMM:   3    -0.231958153293E+04    0.15370E-02   -0.37069E-02  6228   0.111E-01    0.359E-01
RMM:   4    -0.231958051271E+04    0.10202E-02   -0.36896E-03  5076   0.262E-02    0.172E-01
RMM:   5    -0.231958039878E+04    0.11393E-03   -0.65441E-04  3656   0.133E-02    0.146E-01
RMM:   6    -0.231958014043E+04    0.25835E-03   -0.48647E-04  4679   0.135E-02    0.575E-02
RMM:   7    -0.231958014720E+04   -0.67710E-05   -0.15118E-04  3273   0.107E-02    0.460E-02
RMM:   8    -0.231958012226E+04    0.24942E-04   -0.43018E-05  2945   0.479E-03    0.133E-02
RMM:   9    -0.231958011931E+04    0.29507E-05   -0.68721E-06  2900   0.274E-03
  33 F= -.23409650E+04 E0= -.23409650E+04  d E =-.351994E-01  mag=     3.0000
       N       E                     dE             d eps       ncg     rms          rms(c)
DAV:   1    -0.231949596692E+04    0.84155E-01   -0.63517E+00  4504   0.240E+00    0.754E-01
RMM:   2    -0.231959992525E+04   -0.10396E+00   -0.10079E+00  6493   0.523E-01    0.100E+00
RMM:   3    -0.231960298578E+04   -0.30605E-02   -0.10647E-01  6253   0.189E-01    0.741E-01
RMM:   4    -0.231959789140E+04    0.50944E-02   -0.10303E-02  5722   0.464E-02    0.247E-01
RMM:   5    -0.231959812074E+04   -0.22934E-03   -0.22251E-03  5221   0.225E-02    0.296E-01
RMM:   6    -0.231959708307E+04    0.10377E-02   -0.16724E-03  5341   0.225E-02    0.968E-02
RMM:   7    -0.231959714371E+04   -0.60639E-04   -0.58452E-04  4337   0.150E-02    0.104E-01
RMM:   8    -0.231959700867E+04    0.13504E-03   -0.15321E-04  3106   0.723E-03    0.211E-02
RMM:   9    -0.231959699841E+04    0.10267E-04   -0.24617E-05  2958   0.421E-03    0.130E-02
RMM:  10    -0.231959699656E+04    0.18410E-05   -0.15112E-05  2921   0.294E-03
  34 F= -.23409833E+04 E0= -.23409833E+04  d E =-.183039E-01  mag=     3.0000
       N       E                     dE             d eps       ncg     rms          rms(c)
DAV:   1    -0.231940313151E+04    0.19387E+00   -0.12638E+01  4496   0.338E+00    0.106E+00
RMM:   2    -0.231961028976E+04   -0.20716E+00   -0.20192E+00  6485   0.738E-01    0.137E+00
RMM:   3    -0.231961830106E+04   -0.80113E-02   -0.21501E-01  6277   0.269E-01    0.107E+00
RMM:   4    -0.231960774511E+04    0.10556E-01   -0.20687E-02  5859   0.657E-02    0.364E-01
RMM:   5    -0.231960791803E+04   -0.17292E-03   -0.44354E-03  5563   0.310E-02    0.405E-01
RMM:   6    -0.231960603119E+04    0.18868E-02   -0.33295E-03  5468   0.313E-02    0.147E-01
RMM:   7    -0.231960616127E+04   -0.13008E-03   -0.13420E-03  5039   0.212E-02    0.159E-01
RMM:   8    -0.231960584792E+04    0.31335E-03   -0.33222E-04  3776   0.990E-03    0.304E-02
RMM:   9    -0.231960582640E+04    0.21521E-04   -0.51214E-05  2982   0.537E-03    0.190E-02
RMM:  10    -0.231960582316E+04    0.32416E-05   -0.29856E-05  2951   0.388E-03
  35 F= -.23409942E+04 E0= -.23409942E+04  d E =-.291679E-01  mag=     3.0000
       N       E                     dE             d eps       ncg     rms          rms(c)
DAV:   1    -0.231958610076E+04    0.19726E-01   -0.20442E+00  4544   0.140E+00    0.443E-01
RMM:   2    -0.231961571137E+04   -0.29611E-01   -0.30343E-01  6189   0.295E-01    0.406E-01
RMM:   3    -0.231961896330E+04   -0.32519E-02   -0.32390E-02  5948   0.116E-01    0.509E-01
RMM:   4    -0.231961626507E+04    0.26982E-02   -0.31041E-03  5534   0.290E-02    0.152E-01
RMM:   5    -0.231961643892E+04   -0.17385E-03   -0.10212E-03  4833   0.172E-02    0.197E-01
RMM:   6    -0.231961596611E+04    0.47282E-03   -0.65292E-04  4929   0.145E-02    0.616E-02
RMM:   7    -0.231961597274E+04   -0.66325E-05   -0.19217E-04  3354   0.110E-02    0.557E-02
RMM:   8    -0.231961593020E+04    0.42540E-04   -0.50433E-05  2960   0.512E-03    0.139E-02
RMM:   9    -0.231961592488E+04    0.53167E-05   -0.10548E-05  2930   0.325E-03
  36 F= -.23410049E+04 E0= -.23410049E+04  d E =-.107530E-01  mag=     3.0000
       N       E                     dE             d eps       ncg     rms          rms(c)
DAV:   1    -0.231959589413E+04    0.20036E-01   -0.15293E+00  4544   0.121E+00    0.383E-01
RMM:   2    -0.231961810821E+04   -0.22214E-01   -0.22688E-01  6197   0.255E-01    0.363E-01
RMM:   3    -0.231962040667E+04   -0.22985E-02   -0.24178E-02  5925   0.996E-02    0.438E-01
RMM:   4    -0.231961841023E+04    0.19964E-02   -0.23222E-03  5306   0.252E-02    0.132E-01
RMM:   5    -0.231961853627E+04   -0.12604E-03   -0.75959E-04  4443   0.153E-02    0.170E-01
RMM:   6    -0.231961817470E+04    0.36157E-03   -0.49929E-04  4780   0.130E-02    0.533E-02
RMM:   7    -0.231961817849E+04   -0.37929E-05   -0.14590E-04  3169   0.101E-02    0.486E-02
RMM:   8    -0.231961814577E+04    0.32720E-04   -0.38437E-05  2942   0.479E-03    0.123E-02
RMM:   9    -0.231961814172E+04    0.40564E-05   -0.89242E-06  2921   0.310E-03
  37 F= -.23410077E+04 E0= -.23410077E+04  d E =-.135335E-01  mag=     3.0000
       N       E                     dE             d eps       ncg     rms          rms(c)
DAV:   1    -0.231960372365E+04    0.14422E-01   -0.21594E+00  4504   0.150E+00    0.422E-01
RMM:   2    -0.231962676832E+04   -0.23045E-01   -0.24225E-01  6126   0.285E-01    0.272E-01
RMM:   3    -0.231962968919E+04   -0.29209E-02   -0.25629E-02  5900   0.112E-01    0.424E-01
RMM:   4    -0.231962775899E+04    0.19302E-02   -0.24852E-03  5659   0.271E-02    0.133E-01
RMM:   5    -0.231962800618E+04   -0.24719E-03   -0.96663E-04  4947   0.166E-02    0.201E-01
RMM:   6    -0.231962761243E+04    0.39375E-03   -0.58508E-04  4977   0.135E-02    0.952E-02
RMM:   7    -0.231962756243E+04    0.50004E-04   -0.24518E-04  3310   0.105E-02    0.532E-02
RMM:   8    -0.231962752858E+04    0.33849E-04   -0.35335E-05  2921   0.507E-03    0.107E-02
RMM:   9    -0.231962752670E+04    0.18775E-05   -0.92874E-06  2920   0.299E-03
  38 F= -.23410175E+04 E0= -.23410175E+04  d E =-.974419E-02  mag=     3.0000
       N       E                     dE             d eps       ncg     rms          rms(c)
DAV:   1    -0.231956987674E+04    0.57652E-01   -0.57115E+00  4496   0.243E+00    0.686E-01
RMM:   2    -0.231963061585E+04   -0.60739E-01   -0.64026E-01  6127   0.462E-01    0.431E-01
RMM:   3    -0.231963840850E+04   -0.77927E-02   -0.69052E-02  5951   0.183E-01    0.679E-01
RMM:   4    -0.231963344919E+04    0.49593E-02   -0.65452E-03  6192   0.437E-02    0.215E-01
RMM:   5    -0.231963408383E+04   -0.63464E-03   -0.25050E-03  5479   0.253E-02    0.327E-01
RMM:   6    -0.231963306932E+04    0.10145E-02   -0.15642E-03  5485   0.212E-02    0.157E-01
RMM:   7    -0.231963293924E+04    0.13008E-03   -0.67854E-04  4619   0.151E-02    0.923E-02
RMM:   8    -0.231963283298E+04    0.10626E-03   -0.10157E-04  3023   0.667E-03    0.181E-02
RMM:   9    -0.231963282591E+04    0.70671E-05   -0.25815E-05  2946   0.421E-03
  39 F= -.23410233E+04 E0= -.23410233E+04  d E =-.156173E-01  mag=     3.0000
       N       E                     dE             d eps       ncg     rms          rms(c)
DAV:   1    -0.231962448881E+04    0.83442E-02   -0.28023E+00  4496   0.169E+00    0.439E-01
RMM:   2    -0.231964382190E+04   -0.19333E-01   -0.20070E-01  5995   0.301E-01    0.350E-01
RMM:   3    -0.231964561308E+04   -0.17912E-02   -0.20651E-02  5760   0.117E-01    0.413E-01
RMM:   4    -0.231964365064E+04    0.19624E-02   -0.23639E-03  5711   0.302E-02    0.147E-01
RMM:   5    -0.231964402401E+04   -0.37337E-03   -0.11605E-03  5016   0.196E-02    0.252E-01
RMM:   6    -0.231964348227E+04    0.54174E-03   -0.78820E-04  5055   0.166E-02    0.894E-02
RMM:   7    -0.231964342709E+04    0.55182E-04   -0.25034E-04  3309   0.107E-02    0.533E-02
RMM:   8    -0.231964338710E+04    0.39990E-04   -0.39875E-05  2911   0.466E-03    0.116E-02
RMM:   9    -0.231964338497E+04    0.21252E-05   -0.11428E-05  2921   0.282E-03
  40 F= -.23410338E+04 E0= -.23410338E+04  d E =-.105195E-01  mag=     3.0000
       N       E                     dE             d eps       ncg     rms          rms(c)
DAV:   1    -0.231963020582E+04    0.13181E-01   -0.24986E+00  4504   0.159E+00    0.415E-01
RMM:   2    -0.231964742785E+04   -0.17222E-01   -0.17874E-01  5972   0.284E-01    0.334E-01
RMM:   3    -0.231964899700E+04   -0.15692E-02   -0.18436E-02  5732   0.110E-01    0.392E-01
RMM:   4    -0.231964723518E+04    0.17618E-02   -0.21179E-03  5621   0.286E-02    0.140E-01
RMM:   5    -0.231964756890E+04   -0.33372E-03   -0.10312E-03  4935   0.185E-02    0.240E-01
RMM:   6    -0.231964707157E+04    0.49733E-03   -0.71431E-04  4990   0.159E-02    0.819E-02
RMM:   7    -0.231964702570E+04    0.45867E-04   -0.22077E-04  3241   0.104E-02    0.498E-02
RMM:   8    -0.231964699035E+04    0.35350E-04   -0.36152E-05  2913   0.449E-03    0.110E-02
RMM:   9    -0.231964698848E+04    0.18718E-05   -0.10289E-05  2914   0.273E-03
  41 F= -.23410374E+04 E0= -.23410374E+04  d E =-.140859E-01  mag=     3.0000
       N       E                     dE             d eps       ncg     rms          rms(c)
DAV:   1    -0.231963998739E+04    0.70030E-02   -0.23705E+00  4504   0.158E+00    0.410E-01
RMM:   2    -0.231965952929E+04   -0.19542E-01   -0.19293E-01  5954   0.283E-01    0.451E-01
RMM:   3    -0.231965938047E+04    0.14883E-03   -0.20121E-02  5617   0.115E-01    0.343E-01
RMM:   4    -0.231965804076E+04    0.13397E-02   -0.17975E-03  5282   0.270E-02    0.118E-01
RMM:   5    -0.231965808299E+04   -0.42233E-04   -0.10457E-03  5217   0.209E-02    0.147E-01
RMM:   6    -0.231965791961E+04    0.16338E-03   -0.37904E-04  4251   0.128E-02    0.778E-02
RMM:   7    -0.231965789564E+04    0.23971E-04   -0.10879E-04  3032   0.579E-03    0.518E-02
RMM:   8    -0.231965785993E+04    0.35706E-04   -0.30902E-05  2896   0.440E-03    0.110E-02
RMM:   9    -0.231965785814E+04    0.17956E-05   -0.79076E-06  2920   0.214E-03
  42 F= -.23410482E+04 E0= -.23410482E+04  d E =-.107896E-01  mag=     3.0000
       N       E                     dE             d eps       ncg     rms          rms(c)
DAV:   1    -0.231962288323E+04    0.34977E-01   -0.54749E+00  4496   0.240E+00    0.622E-01
RMM:   2    -0.231966804874E+04   -0.45166E-01   -0.44624E-01  5955   0.431E-01    0.690E-01
RMM:   3    -0.231966770261E+04    0.34613E-03   -0.47007E-02  5608   0.179E-01    0.524E-01
RMM:   4    -0.231966459536E+04    0.31072E-02   -0.41473E-03  5466   0.410E-02    0.180E-01
RMM:   5    -0.231966481196E+04   -0.21660E-03   -0.24808E-03  5273   0.317E-02    0.254E-01
RMM:   6    -0.231966428695E+04    0.52501E-03   -0.88220E-04  5173   0.192E-02    0.109E-01
RMM:   7    -0.231966422689E+04    0.60063E-04   -0.21384E-04  3396   0.769E-03    0.650E-02
RMM:   8    -0.231966416831E+04    0.58581E-04   -0.62564E-05  2903   0.571E-03    0.178E-02
RMM:   9    -0.231966416351E+04    0.47974E-05   -0.17873E-05  2950   0.309E-03
  43 F= -.23410544E+04 E0= -.23410544E+04  d E =-.169808E-01  mag=     3.0000
       N       E                     dE             d eps       ncg     rms          rms(c)
DAV:   1    -0.231965605892E+04    0.81094E-02   -0.33939E+00  4496   0.187E+00    0.467E-01
RMM:   2    -0.231967459356E+04   -0.18535E-01   -0.19960E-01  5856   0.315E-01    0.288E-01
RMM:   3    -0.231967686811E+04   -0.22746E-02   -0.19459E-02  5382   0.129E-01    0.453E-01
RMM:   4    -0.231967481673E+04    0.20514E-02   -0.23645E-03  5957   0.311E-02    0.152E-01
RMM:   5    -0.231967542724E+04   -0.61051E-03   -0.14594E-03  4969   0.219E-02    0.290E-01
RMM:   6    -0.231967455571E+04    0.87153E-03   -0.82313E-04  5124   0.168E-02    0.523E-02
RMM:   7    -0.231967453584E+04    0.19872E-04   -0.88530E-05  3084   0.689E-03    0.258E-02
RMM:   8    -0.231967453143E+04    0.44114E-05   -0.30877E-05  2925   0.441E-03
  44 F= -.23410648E+04 E0= -.23410648E+04  d E =-.103766E-01  mag=     3.0000
       N       E                     dE             d eps       ncg     rms          rms(c)
DAV:   1    -0.231965740900E+04    0.17127E-01   -0.37307E+00  4496   0.196E+00    0.490E-01
RMM:   2    -0.231967795430E+04   -0.20545E-01   -0.22093E-01  5862   0.331E-01    0.306E-01
RMM:   3    -0.231968053344E+04   -0.25791E-02   -0.21775E-02  5390   0.135E-01    0.486E-01
RMM:   4    -0.231967817577E+04    0.23577E-02   -0.26003E-03  6004   0.327E-02    0.160E-01
RMM:   5    -0.231967886834E+04   -0.69257E-03   -0.16290E-03  4979   0.230E-02    0.308E-01
RMM:   6    -0.231967787801E+04    0.99033E-03   -0.94330E-04  5242   0.179E-02    0.543E-02
RMM:   7    -0.231967785482E+04    0.23196E-04   -0.10289E-04  3132   0.752E-03    0.283E-02
RMM:   8    -0.231967784834E+04    0.64787E-05   -0.35774E-05  2914   0.461E-03
  45 F= -.23410681E+04 E0= -.23410681E+04  d E =-.137067E-01  mag=     3.0000
       N       E                     dE             d eps       ncg     rms          rms(c)
DAV:   1    -0.231966567250E+04    0.12182E-01   -0.42768E+00  4496   0.206E+00    0.505E-01
RMM:   2    -0.231968933113E+04   -0.23659E-01   -0.24621E-01  6002   0.350E-01    0.402E-01
RMM:   3    -0.231969150975E+04   -0.21786E-02   -0.25173E-02  5720   0.136E-01    0.486E-01
RMM:   4    -0.231968890404E+04    0.26057E-02   -0.28185E-03  5914   0.345E-02    0.168E-01
RMM:   5    -0.231968952012E+04   -0.61608E-03   -0.19532E-03  5225   0.262E-02    0.295E-01
RMM:   6    -0.231968863165E+04    0.88847E-03   -0.84542E-04  4914   0.175E-02    0.720E-02
RMM:   7    -0.231968860550E+04    0.26156E-04   -0.13558E-04  3296   0.814E-03    0.387E-02
RMM:   8    -0.231968858754E+04    0.17959E-04   -0.44285E-05  2914   0.524E-03    0.203E-02
RMM:   9    -0.231968858089E+04    0.66419E-05   -0.11402E-05  2937   0.274E-03
  46 F= -.23410790E+04 E0= -.23410790E+04  d E =-.108539E-01  mag=     3.0000
       N       E                     dE             d eps       ncg     rms          rms(c)
DAV:   1    -0.231966744238E+04    0.21145E-01   -0.46810E+00  4496   0.215E+00    0.528E-01
RMM:   2    -0.231969331762E+04   -0.25875E-01   -0.26897E-01  6004   0.365E-01    0.429E-01
RMM:   3    -0.231969564142E+04   -0.23238E-02   -0.27614E-02  5720   0.141E-01    0.511E-01
RMM:   4    -0.231969278009E+04    0.28613E-02   -0.30812E-03  5892   0.360E-02    0.180E-01
RMM:   5    -0.231969356052E+04   -0.78043E-03   -0.21350E-03  5304   0.267E-02    0.326E-01
RMM:   6    -0.231969245354E+04    0.11070E-02   -0.10267E-03  5135   0.188E-02    0.737E-02
RMM:   7    -0.231969243943E+04    0.14112E-04   -0.19409E-04  3385   0.976E-03    0.520E-02
RMM:   8    -0.231969240267E+04    0.36759E-04   -0.57546E-05  2917   0.537E-03    0.193E-02
RMM:   9    -0.231969239584E+04    0.68377E-05   -0.14585E-05  2945   0.297E-03
  47 F= -.23410829E+04 E0= -.23410829E+04  d E =-.147923E-01  mag=     3.0000
       N       E                     dE             d eps       ncg     rms          rms(c)
DAV:   1    -0.231967121295E+04    0.21190E-01   -0.53874E+00  4496   0.231E+00    0.600E-01
RMM:   2    -0.231971181651E+04   -0.40604E-01   -0.36447E-01  6042   0.410E-01    0.884E-01
RMM:   3    -0.231970724194E+04    0.45746E-02   -0.37700E-02  5854   0.150E-01    0.466E-01
RMM:   4    -0.231970545921E+04    0.17827E-02   -0.42080E-03  4975   0.379E-02    0.286E-01
RMM:   5    -0.231970520314E+04    0.25607E-03   -0.17265E-03  5009   0.258E-02    0.249E-01
RMM:   6    -0.231970448621E+04    0.71693E-03   -0.16679E-03  4583   0.252E-02    0.689E-02
RMM:   7    -0.231970449385E+04   -0.76456E-05   -0.25552E-04  3676   0.176E-02    0.617E-02
RMM:   8    -0.231970443977E+04    0.54080E-04   -0.68305E-05  2985   0.458E-03    0.170E-02
RMM:   9    -0.231970443371E+04    0.60622E-05   -0.13489E-05  2920   0.324E-03
  48 F= -.23410948E+04 E0= -.23410948E+04  d E =-.119082E-01  mag=     3.0000
       N       E                     dE             d eps       ncg     rms          rms(c)
DAV:   1    -0.231969537239E+04    0.90674E-02   -0.18287E+00  4512   0.134E+00    0.350E-01
RMM:   2    -0.231970909607E+04   -0.13724E-01   -0.12368E-01  6036   0.239E-01    0.510E-01
RMM:   3    -0.231970757769E+04    0.15184E-02   -0.12288E-02  5805   0.850E-02    0.275E-01
RMM:   4    -0.231970692991E+04    0.64778E-03   -0.13905E-03  4824   0.221E-02    0.163E-01
RMM:   5    -0.231970686747E+04    0.62443E-04   -0.58907E-04  4033   0.154E-02    0.149E-01
RMM:   6    -0.231970660891E+04    0.25856E-03   -0.57961E-04  4499   0.154E-02    0.394E-02
RMM:   7    -0.231970661055E+04   -0.16425E-05   -0.84815E-05  3164   0.115E-02
  49 F= -.23410969E+04 E0= -.23410969E+04  d E =-.139997E-01  mag=     3.0000
       N       E                     dE             d eps       ncg     rms          rms(c)
DAV:   1    -0.231969157548E+04    0.15033E-01   -0.34543E+00  4496   0.186E+00    0.529E-01
RMM:   2    -0.231972511828E+04   -0.33543E-01   -0.27027E-01  6008   0.342E-01    0.963E-01
RMM:   3    -0.231971740905E+04    0.77092E-02   -0.27211E-02  5772   0.125E-01    0.351E-01
RMM:   4    -0.231971622200E+04    0.11871E-02   -0.30980E-03  4715   0.318E-02    0.180E-01
RMM:   5    -0.231971651970E+04   -0.29770E-03   -0.15392E-03  5245   0.237E-02    0.241E-01
RMM:   6    -0.231971590642E+04    0.61328E-03   -0.11110E-03  5257   0.204E-02    0.123E-01
RMM:   7    -0.231971576782E+04    0.13860E-03   -0.31581E-04  3566   0.134E-02    0.612E-02
RMM:   8    -0.231971572243E+04    0.45396E-04   -0.39807E-05  2927   0.467E-03    0.134E-02
RMM:   9    -0.231971571734E+04    0.50882E-05   -0.11421E-05  2925   0.300E-03
  50 F= -.23411054E+04 E0= -.23411054E+04  d E =-.855430E-02  mag=     3.0000
       N       E                     dE             d eps       ncg     rms          rms(c)
DAV:   1    -0.231970875712E+04    0.69653E-02   -0.11917E+00  4544   0.110E+00    0.309E-01
RMM:   2    -0.231972028330E+04   -0.11526E-01   -0.93225E-02  6014   0.201E-01    0.563E-01
RMM:   3    -0.231971764388E+04    0.26394E-02   -0.92445E-03  5686   0.713E-02    0.205E-01
RMM:   4    -0.231971722930E+04    0.41457E-03   -0.10622E-03  4544   0.187E-02    0.106E-01
RMM:   5    -0.231971733384E+04   -0.10454E-03   -0.53416E-04  4322   0.142E-02    0.144E-01
RMM:   6    -0.231971710845E+04    0.22539E-03   -0.40423E-04  4826   0.129E-02    0.711E-02
RMM:   7    -0.231971706133E+04    0.47126E-04   -0.10953E-04  2984   0.907E-03    0.356E-02
RMM:   8    -0.231971704578E+04    0.15550E-04   -0.15108E-05  2909   0.337E-03    0.818E-03
RMM:   9    -0.231971704374E+04    0.20331E-05   -0.47464E-06  2887   0.221E-03
  51 F= -.23411064E+04 E0= -.23411064E+04  d E =-.955213E-02  mag=     3.0000
       N       E                     dE             d eps       ncg     rms          rms(c)
DAV:   1    -0.231971149031E+04    0.55555E-02   -0.16433E+00  4496   0.125E+00    0.325E-01
RMM:   2    -0.231972700013E+04   -0.15510E-01   -0.13221E-01  6066   0.225E-01    0.589E-01
RMM:   3    -0.231972426099E+04    0.27391E-02   -0.11853E-02  5698   0.772E-02    0.225E-01
RMM:   4    -0.231972381336E+04    0.44763E-03   -0.14374E-03  4635   0.199E-02    0.123E-01
RMM:   5    -0.231972384645E+04   -0.33093E-04   -0.65774E-04  4449   0.141E-02    0.138E-01
RMM:   6    -0.231972364657E+04    0.19988E-03   -0.54049E-04  4827   0.142E-02    0.716E-02
RMM:   7    -0.231972361001E+04    0.36560E-04   -0.11203E-04  3025   0.896E-03    0.447E-02
RMM:   8    -0.231972358742E+04    0.22594E-04   -0.18315E-05  2923   0.327E-03    0.984E-03
RMM:   9    -0.231972358564E+04    0.17771E-05   -0.49801E-06  2878   0.197E-03
  52 F= -.23411125E+04 E0= -.23411125E+04  d E =-.608519E-02  mag=     3.0000
       N       E                     dE             d eps       ncg     rms          rms(c)
DAV:   1    -0.231962444388E+04    0.99144E-01   -0.14646E+01  4496   0.372E+00    0.969E-01
RMM:   2    -0.231976226973E+04   -0.13783E+00   -0.11831E+00  6068   0.676E-01    0.173E+00
RMM:   3    -0.231973937131E+04    0.22898E-01   -0.11068E-01  5858   0.235E-01    0.693E-01
RMM:   4    -0.231973535755E+04    0.40138E-02   -0.13667E-02  5085   0.598E-02    0.394E-01
RMM:   5    -0.231973494181E+04    0.41574E-03   -0.55652E-03  5836   0.402E-02    0.375E-01
RMM:   6    -0.231973338353E+04    0.15583E-02   -0.46325E-03  4951   0.398E-02    0.171E-01
RMM:   7    -0.231973332723E+04    0.56303E-04   -0.91509E-04  4331   0.246E-02    0.151E-01
RMM:   8    -0.231973305654E+04    0.27069E-03   -0.19589E-04  3250   0.712E-03    0.306E-02
RMM:   9    -0.231973303823E+04    0.18308E-04   -0.47868E-05  2988   0.518E-03    0.155E-02
RMM:  10    -0.231973303596E+04    0.22636E-05   -0.29864E-05  2972   0.446E-03
  53 F= -.23411206E+04 E0= -.23411206E+04  d E =-.141584E-01  mag=     3.0000
       N       E                     dE             d eps       ncg     rms          rms(c)
DAV:   1    -0.231972387978E+04    0.91584E-02   -0.20500E+00  4552   0.141E+00    0.386E-01
RMM:   2    -0.231974213220E+04   -0.18252E-01   -0.19535E-01  6050   0.266E-01    0.242E-01
RMM:   3    -0.231974371215E+04   -0.15800E-02   -0.18614E-02  5797   0.101E-01    0.305E-01
RMM:   4    -0.231974278104E+04    0.93111E-03   -0.20501E-03  5588   0.244E-02    0.146E-01
RMM:   5    -0.231974300299E+04   -0.22196E-03   -0.94493E-04  4998   0.163E-02    0.219E-01
RMM:   6    -0.231974254501E+04    0.45798E-03   -0.71934E-04  4808   0.156E-02    0.847E-02
RMM:   7    -0.231974251276E+04    0.32253E-04   -0.22217E-04  3288   0.897E-03    0.582E-02
RMM:   8    -0.231974247059E+04    0.42168E-04   -0.43934E-05  2906   0.536E-03    0.118E-02
RMM:   9    -0.231974246727E+04    0.33192E-05   -0.11253E-05  2920   0.283E-03
  54 F= -.23411292E+04 E0= -.23411292E+04  d E =-.861170E-02  mag=     3.0000
       N       E                     dE             d eps       ncg     rms          rms(c)
DAV:   1    -0.231973168797E+04    0.10783E-01   -0.15810E+00  4496   0.124E+00    0.339E-01
RMM:   2    -0.231974577702E+04   -0.14089E-01   -0.15079E-01  6064   0.234E-01    0.213E-01
RMM:   3    -0.231974699884E+04   -0.12218E-02   -0.14414E-02  5797   0.879E-02    0.268E-01
RMM:   4    -0.231974628563E+04    0.71321E-03   -0.15800E-03  5323   0.214E-02    0.129E-01
RMM:   5    -0.231974645257E+04   -0.16694E-03   -0.72763E-04  4826   0.145E-02    0.192E-01
RMM:   6    -0.231974609769E+04    0.35488E-03   -0.56273E-04  4605   0.140E-02    0.755E-02
RMM:   7    -0.231974607066E+04    0.27033E-04   -0.17461E-04  3149   0.833E-03    0.516E-02
RMM:   8    -0.231974603739E+04    0.33268E-04   -0.34782E-05  2904   0.499E-03    0.105E-02
RMM:   9    -0.231974603427E+04    0.31155E-05   -0.91287E-06  2912   0.266E-03
  55 F= -.23411321E+04 E0= -.23411321E+04  d E =-.114595E-01  mag=     3.0000
       N       E                     dE             d eps       ncg     rms          rms(c)
DAV:   1    -0.231973561937E+04    0.10418E-01   -0.16103E+00  4496   0.131E+00    0.396E-01
RMM:   2    -0.231975386715E+04   -0.18248E-01   -0.18884E-01  6044   0.257E-01    0.337E-01
RMM:   3    -0.231975609767E+04   -0.22305E-02   -0.21163E-02  5850   0.107E-01    0.471E-01
RMM:   4    -0.231975394085E+04    0.21568E-02   -0.21330E-03  5341   0.263E-02    0.145E-01
RMM:   5    -0.231975399873E+04   -0.57885E-04   -0.78267E-04  4843   0.156E-02    0.185E-01
RMM:   6    -0.231975362156E+04    0.37717E-03   -0.64618E-04  4900   0.159E-02    0.338E-02
RMM:   7    -0.231975362383E+04   -0.22691E-05   -0.10693E-04  3264   0.100E-02    0.315E-02
RMM:   8    -0.231975361424E+04    0.95895E-05   -0.33223E-05  2925   0.428E-03
  56 F= -.23411387E+04 E0= -.23411387E+04  d E =-.663232E-02  mag=     3.0000
       N       E                     dE             d eps       ncg     rms          rms(c)
DAV:   1    -0.231975017529E+04    0.34485E-02   -0.42685E-01  4576   0.673E-01    0.205E-01
RMM:   2    -0.231975503640E+04   -0.48611E-02   -0.50286E-02  6087   0.133E-01    0.176E-01
RMM:   3    -0.231975561808E+04   -0.58168E-03   -0.56198E-03  5678   0.532E-02    0.243E-01
RMM:   4    -0.231975504892E+04    0.56917E-03   -0.56705E-04  3587   0.136E-02    0.775E-02
RMM:   5    -0.231975505700E+04   -0.80836E-05   -0.20649E-04  3113   0.904E-03    0.942E-02
RMM:   6    -0.231975495886E+04    0.98143E-04   -0.18456E-04  4081   0.978E-03    0.188E-02
RMM:   7    -0.231975496158E+04   -0.27238E-05   -0.37007E-05  2976   0.649E-03
  57 F= -.23411396E+04 E0= -.23411396E+04  d E =-.749216E-02  mag=     3.0000
       N       E                     dE             d eps       ncg     rms          rms(c)
DAV:   1    -0.231974682527E+04    0.81336E-02   -0.15026E+00  4496   0.127E+00    0.338E-01
RMM:   2    -0.231976196583E+04   -0.15141E-01   -0.15457E-01  6133   0.239E-01    0.332E-01
RMM:   3    -0.231976286715E+04   -0.90133E-03   -0.15956E-02  5886   0.946E-02    0.304E-01
RMM:   4    -0.231976189786E+04    0.96930E-03   -0.16173E-03  5337   0.229E-02    0.136E-01
RMM:   5    -0.231976199153E+04   -0.93667E-04   -0.56656E-04  3876   0.134E-02    0.166E-01
RMM:   6    -0.231976168110E+04    0.31043E-03   -0.48744E-04  4520   0.140E-02    0.441E-02
RMM:   7    -0.231976169452E+04   -0.13424E-04   -0.12413E-04  3133   0.999E-03    0.440E-02
RMM:   8    -0.231976166791E+04    0.26615E-04   -0.41142E-05  2925   0.478E-03    0.143E-02
RMM:   9    -0.231976166465E+04    0.32525E-05   -0.70001E-06  2909   0.297E-03
  58 F= -.23411452E+04 E0= -.23411452E+04  d E =-.561567E-02  mag=     3.0000
       N       E                     dE             d eps       ncg     rms          rms(c)
DAV:   1    -0.231974742065E+04    0.14247E-01   -0.17807E+00  4496   0.138E+00    0.367E-01
RMM:   2    -0.231976536911E+04   -0.17948E-01   -0.18296E-01  6101   0.260E-01    0.362E-01
RMM:   3    -0.231976639956E+04   -0.10304E-02   -0.18860E-02  5868   0.104E-01    0.327E-01
RMM:   4    -0.231976525749E+04    0.11421E-02   -0.19086E-03  5420   0.249E-02    0.148E-01
RMM:   5    -0.231976537014E+04   -0.11266E-03   -0.67013E-04  4173   0.145E-02    0.182E-01
RMM:   6    -0.231976499217E+04    0.37798E-03   -0.58138E-04  4602   0.150E-02    0.473E-02
RMM:   7    -0.231976500573E+04   -0.13563E-04   -0.14369E-04  3272   0.106E-02    0.463E-02
RMM:   8    -0.231976497649E+04    0.29243E-04   -0.47880E-05  2940   0.492E-03    0.161E-02
RMM:   9    -0.231976497239E+04    0.41039E-05   -0.82421E-06  2917   0.315E-03
  59 F= -.23411473E+04 E0= -.23411473E+04  d E =-.774256E-02  mag=     3.0000
       N       E                     dE             d eps       ncg     rms          rms(c)
DAV:   1    -0.231975396240E+04    0.11014E-01   -0.16039E+00  4496   0.128E+00    0.363E-01
RMM:   2    -0.231977536732E+04   -0.21405E-01   -0.18778E-01  6065   0.249E-01    0.658E-01
RMM:   3    -0.231977250905E+04    0.28583E-02   -0.20018E-02  5846   0.996E-02    0.256E-01
RMM:   4    -0.231977209404E+04    0.41501E-03   -0.21907E-03  4957   0.229E-02    0.170E-01
RMM:   5    -0.231977188605E+04    0.20799E-03   -0.55129E-04  3855   0.131E-02    0.131E-01
RMM:   6    -0.231977171382E+04    0.17223E-03   -0.57143E-04  4587   0.148E-02    0.753E-02
RMM:   7    -0.231977168864E+04    0.25174E-04   -0.18221E-04  3228   0.120E-02    0.498E-02
RMM:   8    -0.231977165392E+04    0.34726E-04   -0.38268E-05  2966   0.434E-03    0.128E-02
RMM:   9    -0.231977165082E+04    0.30923E-05   -0.63446E-06  2901   0.284E-03
  60 F= -.23411529E+04 E0= -.23411529E+04  d E =-.561719E-02  mag=     3.0000
       N       E                     dE             d eps       ncg     rms          rms(c)
DAV:   1    -0.231974936457E+04    0.22289E-01   -0.23684E+00  4496   0.156E+00    0.440E-01
RMM:   2    -0.231978077086E+04   -0.31406E-01   -0.27700E-01  6081   0.303E-01    0.789E-01
RMM:   3    -0.231977676071E+04    0.40102E-02   -0.29454E-02  5871   0.121E-01    0.313E-01
RMM:   4    -0.231977612558E+04    0.63513E-03   -0.32023E-03  5158   0.278E-02    0.206E-01
RMM:   5    -0.231977582835E+04    0.29723E-03   -0.82068E-04  4471   0.158E-02    0.160E-01
RMM:   6    -0.231977555588E+04    0.27246E-03   -0.82313E-04  4631   0.175E-02    0.869E-02
RMM:   7    -0.231977553088E+04    0.25004E-04   -0.25826E-04  3469   0.140E-02    0.612E-02
RMM:   8    -0.231977547755E+04    0.53335E-04   -0.57337E-05  2987   0.494E-03    0.156E-02
RMM:   9    -0.231977547259E+04    0.49532E-05   -0.91674E-06  2904   0.332E-03
  61 F= -.23411555E+04 E0= -.23411555E+04  d E =-.816013E-02  mag=     3.0000
       N       E                     dE             d eps       ncg     rms          rms(c)
DAV:   1    -0.231976110966E+04    0.14368E-01   -0.17436E+00  4496   0.135E+00    0.390E-01
RMM:   2    -0.231978572463E+04   -0.24615E-01   -0.22025E-01  6048   0.264E-01    0.673E-01
RMM:   3    -0.231978316879E+04    0.25558E-02   -0.24100E-02  5856   0.109E-01    0.289E-01
RMM:   4    -0.231978262941E+04    0.53938E-03   -0.25233E-03  5096   0.248E-02    0.183E-01
RMM:   5    -0.231978239010E+04    0.23931E-03   -0.63661E-04  4087   0.140E-02    0.140E-01
RMM:   6    -0.231978217178E+04    0.21832E-03   -0.60788E-04  4583   0.154E-02    0.667E-02
RMM:   7    -0.231978217191E+04   -0.13437E-06   -0.18821E-04  3278   0.123E-02    0.541E-02
RMM:   8    -0.231978212973E+04    0.42185E-04   -0.47739E-05  2959   0.454E-03    0.140E-02
RMM:   9    -0.231978212583E+04    0.39021E-05   -0.76598E-06  2901   0.295E-03
  62 F= -.23411612E+04 E0= -.23411612E+04  d E =-.572114E-02  mag=     3.0000
       N       E                     dE             d eps       ncg     rms          rms(c)
DAV:   1    -0.231976925558E+04    0.12874E-01   -0.12989E+00  4512   0.116E+00    0.337E-01
RMM:   2    -0.231978764496E+04   -0.18389E-01   -0.16413E-01  6067   0.228E-01    0.587E-01
RMM:   3    -0.231978566817E+04    0.19768E-02   -0.17918E-02  5847   0.941E-02    0.249E-01
RMM:   4    -0.231978526987E+04    0.39830E-03   -0.18829E-03  4910   0.215E-02    0.158E-01
RMM:   5    -0.231978509085E+04    0.17902E-03   -0.47516E-04  3631   0.123E-02    0.121E-01
RMM:   6    -0.231978492774E+04    0.16311E-03   -0.46472E-04  4498   0.137E-02    0.591E-02
RMM:   7    -0.231978492473E+04    0.30161E-05   -0.14422E-04  3152   0.111E-02    0.468E-02
RMM:   8    -0.231978489285E+04    0.31881E-04   -0.36649E-05  2942   0.413E-03    0.122E-02
RMM:   9    -0.231978488974E+04    0.31058E-05   -0.61497E-06  2901   0.273E-03
  63 F= -.23411631E+04 E0= -.23411631E+04  d E =-.768858E-02  mag=     3.0000
       N       E                     dE             d eps       ncg     rms          rms(c)
DAV:   1    -0.231977842801E+04    0.64648E-02   -0.10914E+00  4496   0.109E+00    0.303E-01
RMM:   2    -0.231979050323E+04   -0.12075E-01   -0.12555E-01  6015   0.207E-01    0.240E-01
RMM:   3    -0.231979161434E+04   -0.11111E-02   -0.13586E-02  5838   0.885E-02    0.261E-01
RMM:   4    -0.231979078534E+04    0.82900E-03   -0.12803E-03  5287   0.202E-02    0.930E-02
RMM:   5    -0.231979085934E+04   -0.73993E-04   -0.46762E-04  4292   0.129E-02    0.141E-01
RMM:   6    -0.231979068842E+04    0.17092E-03   -0.26394E-04  3406   0.106E-02    0.536E-02
RMM:   7    -0.231979066422E+04    0.24196E-04   -0.56404E-05  3194   0.685E-03    0.161E-02
RMM:   8    -0.231979066418E+04    0.45053E-07   -0.16930E-05  2905   0.507E-03
  64 F= -.23411681E+04 E0= -.23411681E+04  d E =-.496938E-02  mag=     3.0000
       N       E                     dE             d eps       ncg     rms          rms(c)
DAV:   1    -0.231977142119E+04    0.19243E-01   -0.20302E+00  4496   0.149E+00    0.415E-01
RMM:   2    -0.231979399083E+04   -0.22570E-01   -0.23410E-01  6014   0.282E-01    0.337E-01
RMM:   3    -0.231979601158E+04   -0.20208E-02   -0.25546E-02  5873   0.119E-01    0.359E-01
RMM:   4    -0.231979442817E+04    0.15834E-02   -0.23895E-03  5715   0.275E-02    0.126E-01
RMM:   5    -0.231979458103E+04   -0.15286E-03   -0.88329E-04  4815   0.169E-02    0.194E-01
RMM:   6    -0.231979425259E+04    0.32844E-03   -0.49827E-04  4379   0.134E-02    0.737E-02
RMM:   7    -0.231979421120E+04    0.41385E-04   -0.11254E-04  3575   0.800E-03    0.305E-02
RMM:   8    -0.231979420405E+04    0.71497E-05   -0.34614E-05  2901   0.594E-03
  65 F= -.23411706E+04 E0= -.23411706E+04  d E =-.741809E-02  mag=     3.0000
       N       E                     dE             d eps       ncg     rms          rms(c)
DAV:   1    -0.231979062380E+04    0.35874E-02   -0.69327E-01  4544   0.841E-01    0.222E-01
RMM:   2    -0.231979836646E+04   -0.77427E-02   -0.79348E-02  6143   0.160E-01    0.211E-01
RMM:   3    -0.231979901809E+04   -0.65163E-03   -0.87884E-03  5758   0.646E-02    0.225E-01
RMM:   4    -0.231979851560E+04    0.50249E-03   -0.81477E-04  3837   0.151E-02    0.960E-02
RMM:   5    -0.231979851196E+04    0.36456E-05   -0.25402E-04  3106   0.919E-03    0.102E-01
RMM:   6    -0.231979839959E+04    0.11237E-03   -0.23797E-04  4105   0.102E-02    0.265E-02
RMM:   7    -0.231979840596E+04   -0.63668E-05   -0.61083E-05  2984   0.734E-03
  66 F= -.23411740E+04 E0= -.23411740E+04  d E =-.344115E-02  mag=     3.0000
       N       E                     dE             d eps       ncg     rms          rms(c)
DAV:   1    -0.231973464687E+04    0.63753E-01   -0.62300E+00  4496   0.252E+00    0.663E-01
RMM:   2    -0.231980420786E+04   -0.69561E-01   -0.71419E-01  6072   0.478E-01    0.626E-01
RMM:   3    -0.231981027789E+04   -0.60700E-02   -0.79940E-02  5911   0.198E-01    0.678E-01
RMM:   4    -0.231980566975E+04    0.46081E-02   -0.72949E-03  5955   0.450E-02    0.278E-01
RMM:   5    -0.231980573025E+04   -0.60501E-04   -0.23407E-03  5403   0.228E-02    0.312E-01
RMM:   6    -0.231980468135E+04    0.10489E-02   -0.19650E-03  5039   0.252E-02    0.888E-02
RMM:   7    -0.231980471528E+04   -0.33937E-04   -0.59151E-04  4563   0.177E-02    0.912E-02
RMM:   8    -0.231980461312E+04    0.10216E-03   -0.16721E-04  3226   0.740E-03    0.258E-02
RMM:   9    -0.231980459782E+04    0.15301E-04   -0.24553E-05  2942   0.479E-03    0.135E-02
RMM:  10    -0.231980459464E+04    0.31802E-05   -0.15908E-05  2929   0.326E-03
  67 F= -.23411779E+04 E0= -.23411779E+04  d E =-.736846E-02  mag=     3.0000
       N       E                     dE             d eps       ncg     rms          rms(c)
DAV:   1    -0.231979522435E+04    0.93735E-02   -0.13599E+00  4496   0.116E+00    0.294E-01
RMM:   2    -0.231980916997E+04   -0.13946E-01   -0.14760E-01  6072   0.218E-01    0.204E-01
RMM:   3    -0.231981047856E+04   -0.13086E-02   -0.15740E-02  5826   0.877E-02    0.225E-01
RMM:   4    -0.231980994897E+04    0.52959E-03   -0.14878E-03  4938   0.198E-02    0.109E-01
RMM:   5    -0.231980986148E+04    0.87491E-04   -0.51957E-04  4315   0.137E-02    0.859E-02
RMM:   6    -0.231980985767E+04    0.38125E-05   -0.26691E-04  3310   0.108E-02    0.860E-02
RMM:   7    -0.231980981266E+04    0.45005E-04   -0.95876E-05  3061   0.699E-03    0.452E-02
RMM:   8    -0.231980978894E+04    0.23722E-04   -0.30916E-05  2900   0.520E-03    0.144E-02
RMM:   9    -0.231980978623E+04    0.27121E-05   -0.57291E-06  2907   0.234E-03
  68 F= -.23411821E+04 E0= -.23411821E+04  d E =-.416668E-02  mag=     3.0000
       N       E                     dE             d eps       ncg     rms          rms(c)
DAV:   1    -0.231980013944E+04    0.96495E-02   -0.11797E+00  4496   0.108E+00    0.275E-01
RMM:   2    -0.231981225173E+04   -0.12112E-01   -0.12823E-01  6054   0.203E-01    0.191E-01
RMM:   3    -0.231981338653E+04   -0.11348E-02   -0.13686E-02  5774   0.841E-02    0.209E-01
RMM:   4    -0.231981292769E+04    0.45883E-03   -0.12902E-03  4735   0.186E-02    0.102E-01
RMM:   5    -0.231981284034E+04    0.87354E-04   -0.45070E-04  4237   0.131E-02    0.726E-02
RMM:   6    -0.231981284283E+04   -0.24900E-05   -0.22803E-04  3241   0.102E-02    0.758E-02
RMM:   7    -0.231981280748E+04    0.35349E-04   -0.76760E-05  3018   0.661E-03    0.420E-02
RMM:   8    -0.231981278816E+04    0.19319E-04   -0.25747E-05  2894   0.476E-03    0.144E-02
RMM:   9    -0.231981278528E+04    0.28829E-05   -0.50081E-06  2902   0.227E-03
  69 F= -.23411842E+04 E0= -.23411842E+04  d E =-.621803E-02  mag=     3.0000
       N       E                     dE             d eps       ncg     rms          rms(c)
DAV:   1    -0.231976304679E+04    0.49741E-01   -0.47173E+00  4496   0.217E+00    0.550E-01
RMM:   2    -0.231981157554E+04   -0.48529E-01   -0.51341E-01  6045   0.407E-01    0.388E-01
RMM:   3    -0.231981610785E+04   -0.45323E-02   -0.55620E-02  5871   0.168E-01    0.419E-01
RMM:   4    -0.231981422472E+04    0.18831E-02   -0.51831E-03  6154   0.370E-02    0.204E-01
RMM:   5    -0.231981386025E+04    0.36447E-03   -0.17222E-03  5044   0.234E-02    0.137E-01
RMM:   6    -0.231981380751E+04    0.52740E-04   -0.99920E-04  5037   0.188E-02    0.115E-01
RMM:   7    -0.231981365624E+04    0.15127E-03   -0.22648E-04  3786   0.931E-03    0.347E-02
RMM:   8    -0.231981367838E+04   -0.22141E-04   -0.66652E-05  2918   0.639E-03    0.618E-02
RMM:   9    -0.231981363825E+04    0.40135E-04   -0.27716E-05  2899   0.339E-03    0.126E-02
RMM:  10    -0.231981363600E+04    0.22427E-05   -0.11397E-05  2923   0.272E-03
  70 F= -.23411831E+04 E0= -.23411831E+04  d E =-.519385E-02  mag=     3.0000
       N       E                     dE             d eps       ncg     rms          rms(c)
DAV:   1    -0.231979059080E+04    0.23047E-01   -0.21761E+00  4496   0.147E+00    0.373E-01
RMM:   2    -0.231981278733E+04   -0.22197E-01   -0.23567E-01  6032   0.274E-01    0.255E-01
RMM:   3    -0.231981492582E+04   -0.21385E-02   -0.25379E-02  5802   0.113E-01    0.288E-01
RMM:   4    -0.231981408534E+04    0.84048E-03   -0.23880E-03  5652   0.249E-02    0.140E-01
RMM:   5    -0.231981403086E+04    0.54475E-04   -0.82364E-04  4531   0.165E-02    0.147E-01
RMM:   6    -0.231981389470E+04    0.13616E-03   -0.38752E-04  3564   0.127E-02    0.939E-02
RMM:   7    -0.231981382586E+04    0.68834E-04   -0.12627E-04  3565   0.781E-03    0.328E-02
RMM:   8    -0.231981381532E+04    0.10540E-04   -0.32251E-05  2909   0.591E-03    0.183E-02
RMM:   9    -0.231981380945E+04    0.58708E-05   -0.85916E-06  2912   0.234E-03
  71 F= -.23411846E+04 E0= -.23411846E+04  d E =-.663845E-02  mag=     3.0000
       N       E                     dE             d eps       ncg     rms          rms(c)
DAV:   1    -0.231979883436E+04    0.14981E-01   -0.19368E+00  4496   0.144E+00    0.382E-01
RMM:   2    -0.231982030651E+04   -0.21472E-01   -0.22304E-01  6016   0.269E-01    0.329E-01
RMM:   3    -0.231982277662E+04   -0.24701E-02   -0.24732E-02  5815   0.112E-01    0.426E-01
RMM:   4    -0.231982104776E+04    0.17289E-02   -0.23635E-03  5394   0.257E-02    0.141E-01
RMM:   5    -0.231982115454E+04   -0.10678E-03   -0.77834E-04  4446   0.148E-02    0.182E-01
RMM:   6    -0.231982077011E+04    0.38443E-03   -0.64140E-04  4952   0.147E-02    0.472E-02
RMM:   7    -0.231982075897E+04    0.11143E-04   -0.11502E-04  3313   0.935E-03    0.305E-02
RMM:   8    -0.231982075491E+04    0.40556E-05   -0.40936E-05  2913   0.517E-03
  72 F= -.23411904E+04 E0= -.23411904E+04  d E =-.587049E-02  mag=     3.0000
       N       E                     dE             d eps       ncg     rms          rms(c)
DAV:   1    -0.231979726120E+04    0.23498E-01   -0.24334E+00  4496   0.161E+00    0.431E-01
RMM:   2    -0.231982441643E+04   -0.27155E-01   -0.28179E-01  6012   0.303E-01    0.374E-01
RMM:   3    -0.231982746929E+04   -0.30529E-02   -0.31112E-02  5842   0.124E-01    0.478E-01
RMM:   4    -0.231982530535E+04    0.21639E-02   -0.30061E-03  5551   0.289E-02    0.160E-01
RMM:   5    -0.231982542923E+04   -0.12388E-03   -0.97773E-04  4676   0.162E-02    0.203E-01
RMM:   6    -0.231982495350E+04    0.47573E-03   -0.79676E-04  5060   0.163E-02    0.530E-02
RMM:   7    -0.231982494077E+04    0.12728E-04   -0.14882E-04  3585   0.102E-02    0.353E-02
RMM:   8    -0.231982493476E+04    0.60124E-05   -0.52255E-05  2919   0.547E-03
  73 F= -.23411934E+04 E0= -.23411934E+04  d E =-.885802E-02  mag=     3.0000
       N       E                     dE             d eps       ncg     rms          rms(c)
DAV:   1    -0.231982294427E+04    0.19965E-02   -0.21954E-01  4624   0.485E-01    0.131E-01
RMM:   2    -0.231982542362E+04   -0.24793E-02   -0.25669E-02  6140   0.922E-02    0.118E-01
RMM:   3    -0.231982568644E+04   -0.26282E-03   -0.27844E-03  4868   0.363E-02    0.144E-01
RMM:   4    -0.231982548905E+04    0.19739E-03   -0.27152E-04  2968   0.951E-03    0.491E-02
RMM:   5    -0.231982550143E+04   -0.12384E-04   -0.91490E-05  2976   0.598E-03    0.614E-02
RMM:   6    -0.231982545735E+04    0.44084E-04   -0.72240E-05  3015   0.610E-03    0.144E-02
RMM:   7    -0.231982545674E+04    0.61089E-06   -0.15135E-05  2940   0.455E-03
  74 F= -.23411936E+04 E0= -.23411936E+04  d E =-.902449E-02  mag=     3.0000
       N       E                     dE             d eps       ncg     rms          rms(c)
DAV:   1    -0.231980008089E+04    0.25376E-01   -0.29331E+00  4496   0.176E+00    0.459E-01
RMM:   2    -0.231983151759E+04   -0.31437E-01   -0.32600E-01  6034   0.328E-01    0.400E-01
RMM:   3    -0.231983449320E+04   -0.29756E-02   -0.35286E-02  5854   0.135E-01    0.462E-01
RMM:   4    -0.231983252679E+04    0.19664E-02   -0.34842E-03  5739   0.310E-02    0.189E-01
RMM:   5    -0.231983260978E+04   -0.82996E-04   -0.10802E-03  4814   0.165E-02    0.221E-01
RMM:   6    -0.231983207111E+04    0.53867E-03   -0.96513E-04  4997   0.178E-02    0.638E-02
RMM:   7    -0.231983207170E+04   -0.58670E-06   -0.23812E-04  3869   0.117E-02    0.550E-02
RMM:   8    -0.231983203429E+04    0.37407E-04   -0.77859E-05  2935   0.589E-03    0.243E-02
RMM:   9    -0.231983202506E+04    0.92270E-05   -0.13938E-05  2918   0.368E-03
  75 F= -.23411990E+04 E0= -.23411990E+04  d E =-.545421E-02  mag=     3.0000
       N       E                     dE             d eps       ncg     rms          rms(c)
DAV:   1    -0.231981924229E+04    0.12792E-01   -0.13483E+00  4496   0.120E+00    0.311E-01
RMM:   2    -0.231983371250E+04   -0.14470E-01   -0.14973E-01  6016   0.222E-01    0.274E-01
RMM:   3    -0.231983508180E+04   -0.13693E-02   -0.16043E-02  5779   0.918E-02    0.319E-01
RMM:   4    -0.231983414204E+04    0.93976E-03   -0.16036E-03  5007   0.212E-02    0.127E-01
RMM:   5    -0.231983418434E+04   -0.42302E-04   -0.50061E-04  3770   0.122E-02    0.150E-01
RMM:   6    -0.231983392805E+04    0.25629E-03   -0.44864E-04  4516   0.131E-02    0.400E-02
RMM:   7    -0.231983392818E+04   -0.13507E-06   -0.99693E-05  3210   0.907E-03
  76 F= -.23412002E+04 E0= -.23412002E+04  d E =-.661009E-02  mag=     3.0000
       N       E                     dE             d eps       ncg     rms          rms(c)
DAV:   1    -0.231982310439E+04    0.10824E-01   -0.16521E+00  4496   0.131E+00    0.346E-01
RMM:   2    -0.231983904361E+04   -0.15939E-01   -0.16178E-01  5984   0.240E-01    0.340E-01
RMM:   3    -0.231984012443E+04   -0.10808E-02   -0.17882E-02  5735   0.102E-01    0.338E-01
RMM:   4    -0.231983895165E+04    0.11728E-02   -0.17695E-03  5198   0.234E-02    0.155E-01
RMM:   5    -0.231983890221E+04    0.49435E-04   -0.59709E-04  3919   0.138E-02    0.149E-01
RMM:   6    -0.231983868458E+04    0.21764E-03   -0.53604E-04  4621   0.142E-02    0.600E-02
RMM:   7    -0.231983868103E+04    0.35444E-05   -0.19051E-04  3252   0.111E-02    0.516E-02
[...]
RMM:   2    -0.231995111181E+04   -0.70727E-04   -0.54253E-04  5623   0.177E-02    0.538E-02
RMM:   3    -0.231995109311E+04    0.18705E-04   -0.70567E-05  2920   0.762E-03    0.319E-02
RMM:   4    -0.231995108332E+04    0.97864E-05   -0.11339E-05  2897   0.311E-03
 260 F= -.23412858E+04 E0= -.23412858E+04  d E =-.105357E-03  mag=     3.0000
       N       E                     dE             d eps       ncg     rms          rms(c)
DAV:   1    -0.231995108096E+04    0.12147E-04   -0.34358E-03  4904   0.567E-02    0.290E-02
RMM:   2    -0.231995112011E+04   -0.39155E-04   -0.23352E-04  4699   0.119E-02    0.457E-02
RMM:   3    -0.231995110014E+04    0.19969E-04   -0.36458E-05  2921   0.610E-03    0.205E-02
RMM:   4    -0.231995109851E+04    0.16294E-05   -0.86470E-06  2888   0.243E-03
 261 F= -.23412858E+04 E0= -.23412858E+04  d E =-.121390E-03  mag=     3.0000
       N       E                     dE             d eps       ncg     rms          rms(c)
DAV:   1    -0.231995120986E+04   -0.10972E-03   -0.11799E-02  4512   0.109E-01    0.476E-02
RMM:   2    -0.231995128253E+04   -0.72670E-04   -0.67068E-04  5771   0.209E-02    0.483E-02
RMM:   3    -0.231995127892E+04    0.36107E-05   -0.95878E-05  2977   0.939E-03
 262 F= -.23412859E+04 E0= -.23412859E+04  d E =-.165792E-03  mag=     3.0000
       N       E                     dE             d eps       ncg     rms          rms(c)
DAV:   1    -0.231995126624E+04    0.16292E-04   -0.18454E-03  5568   0.444E-02    0.314E-02
RMM:   2    -0.231995132761E+04   -0.61367E-04   -0.18133E-04  3739   0.104E-02    0.737E-02
RMM:   3    -0.231995126911E+04    0.58500E-04   -0.50814E-05  2902   0.602E-03    0.179E-02
RMM:   4    -0.231995127132E+04   -0.22073E-05   -0.16609E-05  2902   0.261E-03
 263 F= -.23412859E+04 E0= -.23412859E+04  d E =-.152276E-03  mag=     3.0000
       N       E                     dE             d eps       ncg     rms          rms(c)
DAV:   1    -0.231995136850E+04   -0.99388E-04   -0.90598E-03  4504   0.965E-02    0.404E-02
RMM:   2    -0.231995141297E+04   -0.44474E-04   -0.53360E-04  5807   0.192E-02    0.227E-02
RMM:   3    -0.231995142126E+04   -0.82901E-05   -0.63326E-05  2922   0.842E-03
 264 F= -.23412860E+04 E0= -.23412860E+04  d E =-.122895E-03  mag=     3.0000
       N       E                     dE             d eps       ncg     rms          rms(c)
DAV:   1    -0.231995142280E+04   -0.98259E-05   -0.23593E-03  5352   0.501E-02    0.299E-02
RMM:   2    -0.231995147505E+04   -0.52258E-04   -0.19078E-04  4083   0.111E-02    0.667E-02
RMM:   3    -0.231995143096E+04    0.44094E-04   -0.42285E-05  2906   0.609E-03    0.173E-02
RMM:   4    -0.231995142927E+04    0.16884E-05   -0.10915E-05  2900   0.254E-03
 265 F= -.23412860E+04 E0= -.23412860E+04  d E =-.117016E-03  mag=     3.0000
       N       E                     dE             d eps       ncg     rms          rms(c)
DAV:   1    -0.231995153201E+04   -0.10105E-03   -0.94737E-03  4496   0.962E-02    0.406E-02
RMM:   2    -0.231995157537E+04   -0.43365E-04   -0.52994E-04  5678   0.190E-02    0.232E-02
RMM:   3    -0.231995158822E+04   -0.12845E-04   -0.66577E-05  2948   0.844E-03    0.413E-02
RMM:   4    -0.231995157179E+04    0.16423E-04   -0.15360E-05  2892   0.337E-03    0.147E-02
RMM:   5    -0.231995157292E+04   -0.11270E-05   -0.10283E-05  2862   0.250E-03
 266 F= -.23412861E+04 E0= -.23412861E+04  d E =-.107665E-03  mag=     3.0000
       N       E                     dE             d eps       ncg     rms          rms(c)
DAV:   1    -0.231995157622E+04   -0.44302E-05   -0.42915E-04  5336   0.212E-02    0.939E-03
RMM:   2    -0.231995157955E+04   -0.33234E-05   -0.29412E-05  2853   0.514E-03
 267 F= -.23412861E+04 E0= -.23412861E+04  d E =-.106366E-03  mag=     3.0000
       N       E                     dE             d eps       ncg     rms          rms(c)
DAV:   1    -0.231995164740E+04   -0.71173E-04   -0.96141E-03  4496   0.972E-02    0.416E-02
RMM:   2    -0.231995169445E+04   -0.47050E-04   -0.56778E-04  5578   0.207E-02    0.244E-02
RMM:   3    -0.231995170729E+04   -0.12846E-04   -0.74613E-05  2970   0.920E-03    0.391E-02
RMM:   4    -0.231995168897E+04    0.18326E-04   -0.16407E-05  2902   0.405E-03    0.112E-02
RMM:   5    -0.231995168719E+04    0.17745E-05   -0.76636E-06  2861   0.280E-03
 268 F= -.23412862E+04 E0= -.23412862E+04  d E =-.966466E-04  mag=     3.0000
       N       E                     dE             d eps       ncg     rms          rms(c)
DAV:   1    -0.231995168834E+04    0.63036E-06   -0.14615E-04  5288   0.126E-02    0.819E-03
RMM:   2    -0.231995169587E+04   -0.75313E-05   -0.17469E-05  2699   0.347E-03
 269 F= -.23412862E+04 E0= -.23412862E+04  d E =-.103933E-03  mag=     3.0000
       N       E                     dE             d eps       ncg     rms          rms(c)
DAV:   1    -0.231995174983E+04   -0.61492E-04   -0.89295E-03  4496   0.937E-02    0.390E-02
RMM:   2    -0.231995179203E+04   -0.42200E-04   -0.52066E-04  5504   0.191E-02    0.186E-02
RMM:   3    -0.231995179311E+04   -0.10811E-05   -0.57363E-05  2944   0.950E-03
 270 F= -.23412863E+04 E0= -.23412863E+04  d E =-.100748E-03  mag=     3.0000
       N       E                     dE             d eps       ncg     rms          rms(c)
DAV:   1    -0.231995179092E+04    0.11114E-05   -0.87181E-04  5624   0.303E-02    0.221E-02
RMM:   2    -0.231995182240E+04   -0.31483E-04   -0.85723E-05  3118   0.731E-03    0.529E-02
RMM:   3    -0.231995179294E+04    0.29463E-04   -0.24131E-05  2810   0.459E-03    0.128E-02
RMM:   4    -0.231995179325E+04   -0.31391E-06   -0.75765E-06  2631   0.194E-03
 271 F= -.23412863E+04 E0= -.23412863E+04  d E =-.102017E-03  mag=     3.0000
       N       E                     dE             d eps       ncg     rms          rms(c)
DAV:   1    -0.231995184479E+04   -0.51856E-04   -0.82289E-03  4496   0.895E-02    0.377E-02
RMM:   2    -0.231995187384E+04   -0.29049E-04   -0.37970E-04  5310   0.172E-02    0.188E-02
RMM:   3    -0.231995188152E+04   -0.76783E-05   -0.49592E-05  2930   0.891E-03
 272 F= -.23412865E+04 E0= -.23412865E+04  d E =-.106135E-03  mag=     3.0000
       N       E                     dE             d eps       ncg     rms          rms(c)
DAV:   1    -0.231995186739E+04    0.64563E-05   -0.63976E-04  5584   0.264E-02    0.181E-02
RMM:   2    -0.231995187859E+04   -0.11206E-04   -0.41619E-05  3017   0.584E-03    0.333E-02
RMM:   3    -0.231995186847E+04    0.10119E-04   -0.12900E-05  2647   0.367E-03    0.124E-02
RMM:   4    -0.231995186681E+04    0.16596E-05   -0.37578E-06  2611   0.183E-03
 273 F= -.23412864E+04 E0= -.23412864E+04  d E =-.964591E-04  mag=     3.0000
       N       E                     dE             d eps       ncg     rms          rms(c)
DAV:   1    -0.231995193392E+04   -0.65450E-04   -0.77064E-03  4496   0.858E-02    0.357E-02
RMM:   2    -0.231995196165E+04   -0.27729E-04   -0.34666E-04  5262   0.167E-02    0.163E-02
RMM:   3    -0.231995196397E+04   -0.23191E-05   -0.39283E-05  2922   0.834E-03
 274 F= -.23412865E+04 E0= -.23412865E+04  d E =-.940066E-04  mag=     3.0000
       N       E                     dE             d eps       ncg     rms          rms(c)
DAV:   1    -0.231995196366E+04   -0.20117E-05   -0.16447E-03  5232   0.403E-02    0.234E-02
RMM:   2    -0.231995198331E+04   -0.19650E-04   -0.92956E-05  3446   0.868E-03    0.390E-02
RMM:   3    -0.231995196916E+04    0.14149E-04   -0.22083E-05  2896   0.512E-03    0.164E-02
RMM:   4    -0.231995196857E+04    0.59349E-06   -0.67529E-06  2846   0.233E-03
 275 F= -.23412865E+04 E0= -.23412865E+04  d E =-.971480E-04  mag=     3.0000
       N       E                     dE             d eps       ncg     rms          rms(c)
DAV:   1    -0.231995204946E+04   -0.80298E-04   -0.56466E-03  4512   0.722E-02    0.304E-02
RMM:   2    -0.231995207888E+04   -0.29415E-04   -0.33332E-04  5136   0.151E-02    0.187E-02
RMM:   3    -0.231995208818E+04   -0.93058E-05   -0.39449E-05  2908   0.677E-03
 276 F= -.23412866E+04 E0= -.23412866E+04  d E =-.100097E-03  mag=     3.0000
       N       E                     dE             d eps       ncg     rms          rms(c)
DAV:   1    -0.231995209779E+04   -0.18914E-04   -0.59030E-03  4544   0.739E-02    0.349E-02
RMM:   2    -0.231995213388E+04   -0.36088E-04   -0.36807E-04  5334   0.153E-02    0.309E-02
RMM:   3    -0.231995213539E+04   -0.15104E-05   -0.46828E-05  2918   0.631E-03
 277 F= -.23412867E+04 E0= -.23412867E+04  d E =-.127289E-03  mag=     3.0000
       N       E                     dE             d eps       ncg     rms          rms(c)
DAV:   1    -0.231995221110E+04   -0.77223E-04   -0.79722E-03  4512   0.860E-02    0.407E-02
RMM:   2    -0.231995229400E+04   -0.82901E-04   -0.56037E-04  5619   0.187E-02    0.620E-02
RMM:   3    -0.231995226004E+04    0.33968E-04   -0.71719E-05  2939   0.728E-03    0.313E-02
RMM:   4    -0.231995225642E+04    0.36194E-05   -0.19805E-05  2909   0.345E-03
 278 F= -.23412868E+04 E0= -.23412868E+04  d E =-.990359E-04  mag=     3.0000
       N       E                     dE             d eps       ncg     rms          rms(c)
DAV:   1    -0.231995226102E+04   -0.98365E-06   -0.11350E-03  5376   0.330E-02    0.198E-02
RMM:   2    -0.231995227599E+04   -0.14973E-04   -0.79801E-05  3196   0.736E-03    0.315E-02
RMM:   3    -0.231995226691E+04    0.90795E-05   -0.15806E-05  2755   0.440E-03
 279 F= -.23412868E+04 E0= -.23412868E+04  d E =-.101111E-03  mag=     3.0000
       N       E                     dE             d eps       ncg     rms          rms(c)
DAV:   1    -0.231995236233E+04   -0.86338E-04   -0.83997E-03  4500   0.920E-02    0.411E-02
RMM:   2    -0.231995240522E+04   -0.42892E-04   -0.43503E-04  5656   0.173E-02    0.350E-02
RMM:   3    -0.231995241497E+04   -0.97465E-05   -0.67005E-05  2938   0.866E-03
 280 F= -.23412869E+04 E0= -.23412869E+04  d E =-.136195E-03  mag=     3.0000
       N       E                     dE             d eps       ncg     rms          rms(c)
DAV:   1    -0.231995239933E+04    0.58903E-05   -0.10510E-03  5664   0.342E-02    0.230E-02
RMM:   2    -0.231995242399E+04   -0.24661E-04   -0.83064E-05  3174   0.758E-03    0.473E-02
RMM:   3    -0.231995240159E+04    0.22404E-04   -0.23352E-05  2830   0.462E-03    0.138E-02
RMM:   4    -0.231995240209E+04   -0.50178E-06   -0.70013E-06  2825   0.211E-03
 281 F= -.23412869E+04 E0= -.23412869E+04  d E =-.119053E-03  mag=     3.0000
       N       E                     dE             d eps       ncg     rms          rms(c)
DAV:   1    -0.231995245924E+04   -0.57647E-04   -0.75054E-03  4496   0.860E-02    0.359E-02
RMM:   2    -0.231995249880E+04   -0.39560E-04   -0.46904E-04  5554   0.170E-02    0.182E-02
RMM:   3    -0.231995250456E+04   -0.57663E-05   -0.55295E-05  2914   0.847E-03
 282 F= -.23412870E+04 E0= -.23412870E+04  d E =-.893639E-04  mag=     3.0000
       N       E                     dE             d eps       ncg     rms          rms(c)
DAV:   1    -0.231995250337E+04   -0.45742E-05   -0.54921E-04  5544   0.244E-02    0.186E-02
RMM:   2    -0.231995252477E+04   -0.21398E-04   -0.59615E-05  3021   0.584E-03    0.449E-02
RMM:   3    -0.231995250504E+04    0.19730E-04   -0.17491E-05  2598   0.373E-03    0.997E-03
RMM:   4    -0.231995250556E+04   -0.52404E-06   -0.45130E-06  2481   0.165E-03
 283 F= -.23412870E+04 E0= -.23412870E+04  d E =-.867681E-04  mag=     3.0000
       N       E                     dE             d eps       ncg     rms          rms(c)
DAV:   1    -0.231995259542E+04   -0.90385E-04   -0.77166E-03  4496   0.896E-02    0.374E-02
RMM:   2    -0.231995263791E+04   -0.42486E-04   -0.50455E-04  5618   0.180E-02    0.214E-02
RMM:   3    -0.231995265469E+04   -0.16784E-04   -0.72034E-05  2937   0.924E-03    0.445E-02
RMM:   4    -0.231995263525E+04    0.19448E-04   -0.13249E-05  2889   0.315E-03    0.102E-02
RMM:   5    -0.231995263624E+04   -0.99163E-06   -0.66256E-06  2842   0.217E-03
 284 F= -.23412871E+04 E0= -.23412871E+04  d E =-.993041E-04  mag=     3.0000
       N       E                     dE             d eps       ncg     rms          rms(c)
DAV:   1    -0.231995264107E+04   -0.58296E-05   -0.37791E-04  5288   0.204E-02    0.938E-03
RMM:   2    -0.231995264518E+04   -0.41047E-05   -0.29426E-05  2845   0.489E-03
 285 F= -.23412871E+04 E0= -.23412871E+04  d E =-.101108E-03  mag=     3.0000
       N       E                     dE             d eps       ncg     rms          rms(c)
DAV:   1    -0.231995268298E+04   -0.41903E-04   -0.59508E-03  4496   0.754E-02    0.324E-02
RMM:   2    -0.231995271251E+04   -0.29527E-04   -0.35017E-04  5241   0.168E-02    0.188E-02
RMM:   3    -0.231995272053E+04   -0.80207E-05   -0.46647E-05  2921   0.747E-03
 286 F= -.23412872E+04 E0= -.23412872E+04  d E =-.740046E-04  mag=     3.0000
       N       E                     dE             d eps       ncg     rms          rms(c)
DAV:   1    -0.231995271063E+04    0.18783E-05   -0.12200E-04  5368   0.129E-02    0.119E-02
RMM:   2    -0.231995271654E+04   -0.59115E-05   -0.15597E-05  2683   0.324E-03
 287 F= -.23412871E+04 E0= -.23412871E+04  d E =-.698224E-04  mag=     3.0000
       N       E                     dE             d eps       ncg     rms          rms(c)
DAV:   1    -0.231995274372E+04   -0.33095E-04   -0.62647E-03  4496   0.783E-02    0.339E-02
RMM:   2    -0.231995277135E+04   -0.27624E-04   -0.33666E-04  5118   0.159E-02    0.186E-02
RMM:   3    -0.231995277959E+04   -0.82458E-05   -0.43707E-05  2918   0.840E-03
 288 F= -.23412872E+04 E0= -.23412872E+04  d E =-.807519E-04  mag=     3.0000
       N       E                     dE             d eps       ncg     rms          rms(c)
DAV:   1    -0.231995276225E+04    0.90931E-05   -0.54125E-04  5584   0.245E-02    0.154E-02
RMM:   2    -0.231995276532E+04   -0.30665E-05   -0.34591E-05  2910   0.551E-03
 289 F= -.23412872E+04 E0= -.23412872E+04  d E =-.718036E-04  mag=     3.0000
       N       E                     dE             d eps       ncg     rms          rms(c)
DAV:   1    -0.231995281810E+04   -0.55845E-04   -0.51619E-03  4496   0.688E-02    0.305E-02
RMM:   2    -0.231995285055E+04   -0.32453E-04   -0.33360E-04  5227   0.154E-02    0.254E-02
RMM:   3    -0.231995285568E+04   -0.51329E-05   -0.46797E-05  2910   0.690E-03
 290 F= -.23412873E+04 E0= -.23412873E+04  d E =-.856520E-04  mag=     3.0000
       N       E                     dE             d eps       ncg     rms          rms(c)
DAV:   1    -0.231995285420E+04   -0.36518E-05   -0.21268E-03  4848   0.446E-02    0.253E-02
RMM:   2    -0.231995289339E+04   -0.39184E-04   -0.16831E-04  3705   0.100E-02    0.523E-02
RMM:   3    -0.231995286568E+04    0.27704E-04   -0.31772E-05  2912   0.542E-03    0.156E-02
RMM:   4    -0.231995286570E+04   -0.19034E-07   -0.84506E-06  2868   0.236E-03
 291 F= -.23412873E+04 E0= -.23412873E+04  d E =-.926113E-04  mag=     3.0000
       N       E                     dE             d eps       ncg     rms          rms(c)
DAV:   1    -0.231995295377E+04   -0.88084E-04   -0.68117E-03  4496   0.816E-02    0.348E-02
RMM:   2    -0.231995299158E+04   -0.37809E-04   -0.40464E-04  5497   0.169E-02    0.261E-02
RMM:   3    -0.231995300564E+04   -0.14063E-04   -0.54749E-05  2919   0.751E-03    0.433E-02
RMM:   4    -0.231995298618E+04    0.19457E-04   -0.12120E-05  2889   0.319E-03    0.985E-03
RMM:   5    -0.231995298843E+04   -0.22464E-05   -0.67235E-06  2830   0.219E-03
 292 F= -.23412874E+04 E0= -.23412874E+04  d E =-.950165E-04  mag=     3.0000
       N       E                     dE             d eps       ncg     rms          rms(c)
DAV:   1    -0.231995299741E+04   -0.11232E-04   -0.10462E-03  5120   0.323E-02    0.138E-02
RMM:   2    -0.231995300386E+04   -0.64457E-05   -0.65940E-05  3200   0.731E-03
 293 F= -.23412874E+04 E0= -.23412874E+04  d E =-.993727E-04  mag=     3.0000
       N       E                     dE             d eps       ncg     rms          rms(c)
DAV:   1    -0.231995307485E+04   -0.77434E-04   -0.54017E-03  4496   0.676E-02    0.332E-02
RMM:   2    -0.231995312763E+04   -0.52783E-04   -0.35387E-04  4895   0.159E-02    0.491E-02
RMM:   3    -0.231995310340E+04    0.24228E-04   -0.51243E-05  2927   0.695E-03    0.207E-02
RMM:   4    -0.231995309879E+04    0.46094E-05   -0.77295E-06  2892   0.309E-03
 294 F= -.23412875E+04 E0= -.23412875E+04  d E =-.741210E-04  mag=     3.0000
       N       E                     dE             d eps       ncg     rms          rms(c)
DAV:   1    -0.231995310867E+04   -0.52685E-05   -0.33697E-03  4696   0.534E-02    0.279E-02
RMM:   2    -0.231995314745E+04   -0.38783E-04   -0.21080E-04  4246   0.114E-02    0.503E-02
RMM:   3    -0.231995312562E+04    0.21839E-04   -0.36096E-05  2910   0.607E-03    0.195E-02
RMM:   4    -0.231995312463E+04    0.98828E-06   -0.98147E-06  2891   0.246E-03
 295 F= -.23412875E+04 E0= -.23412875E+04  d E =-.833731E-04  mag=     3.0000
       N       E                     dE             d eps       ncg     rms          rms(c)
DAV:   1    -0.231995318898E+04   -0.63367E-04   -0.29014E-03  4480   0.484E-02    0.214E-02
RMM:   2    -0.231995320416E+04   -0.15177E-04   -0.16883E-04  3801   0.100E-02    0.135E-02
RMM:   3    -0.231995320908E+04   -0.49229E-05   -0.24439E-05  2879   0.563E-03
 296 F= -.23412876E+04 E0= -.23412876E+04  d E =-.728066E-04  mag=     3.0000
       N       E                     dE             d eps       ncg     rms          rms(c)
DAV:   1    -0.231995322259E+04   -0.18428E-04   -0.18711E-02  4496   0.122E-01    0.524E-02
RMM:   2    -0.231995332470E+04   -0.10211E-03   -0.10839E-03  5861   0.232E-02    0.405E-02
RMM:   3    -0.231995336114E+04   -0.36436E-04   -0.16850E-04  2953   0.107E-02    0.670E-02
RMM:   4    -0.231995331684E+04    0.44296E-04   -0.28736E-05  2909   0.428E-03    0.164E-02
RMM:   5    -0.231995332097E+04   -0.41315E-05   -0.16688E-05  2888   0.297E-03
 297 F= -.23412877E+04 E0= -.23412876E+04  d E =-.155247E-03  mag=     3.0000
       N       E                     dE             d eps       ncg     rms          rms(c)
DAV:   1    -0.231995341029E+04   -0.93450E-04   -0.55471E-03  4592   0.711E-02    0.309E-02
RMM:   2    -0.231995344192E+04   -0.31627E-04   -0.32401E-04  4976   0.149E-02    0.259E-02
RMM:   3    -0.231995344554E+04   -0.36219E-05   -0.47030E-05  2915   0.737E-03
 298 F= -.23412878E+04 E0= -.23412878E+04  d E =-.123006E-03  mag=     3.0000
       N       E                     dE             d eps       ncg     rms          rms(c)
DAV:   1    -0.231995344440E+04   -0.24792E-05   -0.11015E-02  4496   0.994E-02    0.461E-02
RMM:   2    -0.231995349981E+04   -0.55410E-04   -0.63824E-04  5601   0.202E-02    0.319E-02
RMM:   3    -0.231995352241E+04   -0.22600E-04   -0.10373E-04  2959   0.902E-03    0.537E-02
RMM:   4    -0.231995349312E+04    0.29288E-04   -0.23880E-05  2901   0.422E-03    0.202E-02
RMM:   5    -0.231995349169E+04    0.14265E-05   -0.12975E-05  2811   0.271E-03
 299 F= -.23412878E+04 E0= -.23412878E+04  d E =-.167006E-03  mag=     3.0000
       N       E                     dE             d eps       ncg     rms          rms(c)
DAV:   1    -0.231995354326E+04   -0.50139E-04   -0.63567E-03  4688   0.700E-02    0.311E-02
RMM:   2    -0.231995359072E+04   -0.47466E-04   -0.38928E-04  5127   0.145E-02    0.390E-02
RMM:   3    -0.231995358195E+04    0.87740E-05   -0.54254E-05  2924   0.688E-03
 300 F= -.23412879E+04 E0= -.23412879E+04  d E =-.858938E-04  mag=     3.0000
       N       E                     dE             d eps       ncg     rms          rms(c)
DAV:   1    -0.231995358720E+04    0.35181E-05   -0.48604E-03  4568   0.611E-02    0.352E-02
RMM:   2    -0.231995363946E+04   -0.52250E-04   -0.33136E-04  4507   0.127E-02    0.564E-02
RMM:   3    -0.231995361277E+04    0.26681E-04   -0.54213E-05  2915   0.619E-03    0.264E-02
RMM:   4    -0.231995361425E+04   -0.14780E-05   -0.19842E-05  2897   0.283E-03
 301 F= -.23412879E+04 E0= -.23412879E+04  d E =-.114431E-03  mag=     3.0000
