       N       E                     dE             d eps       ncg     rms          rms(c)
DAV:   1     0.130750380909E+05    0.13075E+05   -0.84201E+05  4544   0.144E+03
DAV:   2    -0.101348123689E+04   -0.14089E+05   -0.13472E+05  4944   0.331E+02
DAV:   3    -0.247707455501E+04   -0.14636E+04   -0.14451E+04  5504   0.115E+02
DAV:   4    -0.252341796748E+04   -0.46343E+02   -0.46088E+02  6744   0.298E+01
DAV:   5    -0.252432703617E+04   -0.90907E+00   -0.90694E+00  6232   0.352E+00    0.170E+02
RMM:   6    -0.149121047601E+04    0.10331E+04   -0.19538E+03  4465   0.383E+01    0.723E+01
RMM:   7    -0.166156477553E+04   -0.17035E+03   -0.29378E+02  5161   0.145E+01    0.511E+01
RMM:   8    -0.171587770238E+04   -0.54313E+02   -0.60305E+01  5432   0.764E+00    0.454E+01
RMM:   9    -0.177696479156E+04   -0.61087E+02   -0.57561E+01  5092   0.715E+00    0.359E+01
RMM:  10    -0.191040095674E+04   -0.13344E+03   -0.66572E+01  5285   0.798E+00    0.311E+01
RMM:  11    -0.196639942407E+04   -0.55998E+02   -0.26551E+01  5472   0.456E+00    0.243E+01
RMM:  12    -0.203223554243E+04   -0.65836E+02   -0.23826E+01  5180   0.389E+00    0.181E+01
RMM:  13    -0.209688685379E+04   -0.64651E+02   -0.26280E+01  5149   0.383E+00    0.143E+01
RMM:  14    -0.221038865033E+04   -0.11350E+03   -0.83682E+01  4522   0.664E+00    0.978E+00
RMM:  15    -0.228559360370E+04   -0.75205E+02   -0.69028E+01  4696   0.579E+00    0.822E+00
RMM:  16    -0.230778076133E+04   -0.22187E+02   -0.23566E+01  4792   0.384E+00    0.442E+00
RMM:  17    -0.231431057749E+04   -0.65298E+01   -0.77369E+00  5045   0.187E+00    0.271E+00
RMM:  18    -0.231717112893E+04   -0.28606E+01   -0.18763E+00  4983   0.104E+00    0.155E+00
RMM:  19    -0.231845559532E+04   -0.12845E+01   -0.61934E-01  4991   0.563E-01    0.190E+00
RMM:  20    -0.231850865154E+04   -0.53056E-01   -0.77669E-02  5492   0.224E-01    0.215E+00
RMM:  21    -0.231861569789E+04   -0.10705E+00   -0.86194E-02  4608   0.185E-01    0.987E-01
RMM:  22    -0.231882495054E+04   -0.20925E+00   -0.43856E-02  4605   0.157E-01    0.942E-01
RMM:  23    -0.231888301957E+04   -0.58069E-01   -0.35638E-02  4900   0.136E-01    0.116E+00
RMM:  24    -0.231886231055E+04    0.20709E-01   -0.14048E-02  5166   0.782E-02    0.160E+00
RMM:  25    -0.231891098307E+04   -0.48673E-01   -0.11391E-02  4960   0.560E-02    0.116E+00
RMM:  26    -0.231897726692E+04   -0.66284E-01   -0.33320E-02  4628   0.103E-01    0.147E+00
RMM:  27    -0.231901205798E+04   -0.34791E-01   -0.24829E-02  4903   0.919E-02    0.190E+00
RMM:  28    -0.231902999814E+04   -0.17940E-01   -0.10582E-02  5493   0.537E-02    0.208E+00
RMM:  29    -0.231903089778E+04   -0.89964E-03   -0.85305E-04  5017   0.172E-02    0.210E+00
RMM:  30    -0.231902730873E+04    0.35891E-02   -0.28555E-04  3883   0.105E-02    0.199E+00
RMM:  31    -0.231902273869E+04    0.45700E-02   -0.42883E-03  4489   0.386E-02    0.145E+00
RMM:  32    -0.231900222967E+04    0.20509E-01   -0.37495E-02  4703   0.100E-01    0.958E-01
RMM:  33    -0.231899102720E+04    0.11202E-01   -0.11436E-02  4726   0.684E-02    0.972E-01
RMM:  34    -0.231896384866E+04    0.27179E-01   -0.23682E-02  5452   0.718E-02    0.141E+00
RMM:  35    -0.231894981893E+04    0.14030E-01   -0.43543E-03  4749   0.418E-02    0.167E+00
RMM:  36    -0.231897103731E+04   -0.21218E-01   -0.34155E-03  4895   0.277E-02    0.128E+00
RMM:  37    -0.231899428855E+04   -0.23251E-01   -0.86142E-03  4875   0.449E-02    0.937E-01
RMM:  38    -0.231902962586E+04   -0.35337E-01   -0.21063E-02  4632   0.753E-02    0.151E+00
RMM:  39    -0.231907533641E+04   -0.45711E-01   -0.36252E-02  5145   0.960E-02    0.222E+00
RMM:  40    -0.231912093526E+04   -0.45599E-01   -0.31846E-02  5473   0.872E-02    0.178E+00
RMM:  41    -0.231913210873E+04   -0.11173E-01   -0.42805E-03  5543   0.332E-02    0.160E+00
RMM:  42    -0.231913625705E+04   -0.41483E-02   -0.70922E-04  4325   0.115E-02    0.155E+00
RMM:  43    -0.231914069880E+04   -0.44417E-02   -0.37283E-04  3608   0.100E-02    0.148E+00
RMM:  44    -0.231914933703E+04   -0.86382E-02   -0.12881E-03  4505   0.169E-02    0.127E+00
RMM:  45    -0.231915595734E+04   -0.66203E-02   -0.14273E-03  4403   0.190E-02    0.111E+00
RMM:  46    -0.231916280407E+04   -0.68467E-02   -0.15658E-03  4364   0.194E-02    0.927E-01
RMM:  47    -0.231916766750E+04   -0.48634E-02   -0.14559E-03  4397   0.192E-02    0.795E-01
RMM:  48    -0.231917425064E+04   -0.65831E-02   -0.22259E-03  4924   0.229E-02    0.552E-01
RMM:  49    -0.231917586152E+04   -0.16109E-02   -0.49311E-04  4073   0.123E-02    0.481E-01
RMM:  50    -0.231917703213E+04   -0.11706E-02   -0.33725E-04  3700   0.907E-03    0.443E-01
RMM:  51    -0.231917802723E+04   -0.99510E-03   -0.48385E-04  3922   0.113E-02    0.392E-01
RMM:  52    -0.231917920137E+04   -0.11741E-02   -0.44747E-04  3786   0.110E-02    0.326E-01
RMM:  53    -0.231917998212E+04   -0.78076E-03   -0.22541E-04  3365   0.831E-03    0.286E-01
RMM:  54    -0.231918043599E+04   -0.45387E-03   -0.10080E-04  3046   0.583E-03    0.276E-01
RMM:  55    -0.231918043322E+04    0.27725E-05   -0.22417E-05  2820   0.359E-03
   1 F= -.23405207E+04 E0= -.23405144E+04  d E =-.234052E+04  mag=     2.9530
       N       E                     dE             d eps       ncg     rms          rms(c)
DAV:   1    -0.231907503574E+04    0.10540E+00   -0.11230E+01  4784   0.253E+00    0.112E+00
RMM:   2    -0.231934628111E+04   -0.27125E+00   -0.28646E+00  6599   0.767E-01    0.857E-01
RMM:   3    -0.231938099627E+04   -0.34715E-01   -0.35277E-01  6361   0.298E-01    0.124E+00
RMM:   4    -0.231936807512E+04    0.12921E-01   -0.27492E-02  6372   0.676E-02    0.422E-01
RMM:   5    -0.231936761928E+04    0.45583E-03   -0.61949E-03  5691   0.335E-02    0.427E-01
RMM:   6    -0.231936532439E+04    0.22949E-02   -0.57717E-03  5836   0.336E-02    0.169E-01
RMM:   7    -0.231936513552E+04    0.18888E-03   -0.15525E-03  5357   0.199E-02    0.129E-01
RMM:   8    -0.231936498661E+04    0.14891E-03   -0.48482E-04  3982   0.114E-02    0.788E-02
RMM:   9    -0.231936486419E+04    0.12242E-03   -0.15747E-04  3207   0.816E-03    0.239E-02
RMM:  10    -0.231936485361E+04    0.10579E-04   -0.88883E-05  3227   0.614E-03    0.170E-02
RMM:  11    -0.231936485413E+04   -0.52093E-06   -0.13027E-05  2918   0.435E-03
   2 F= -.23407013E+04 E0= -.23406997E+04  d E =-.180535E+00  mag=     2.9613
       N       E                     dE             d eps       ncg     rms          rms(c)
DAV:   1    -0.231907816604E+04    0.28669E+00   -0.14181E+01  4640   0.286E+00    0.117E+00
RMM:   2    -0.231942296698E+04   -0.34480E+00   -0.36122E+00  6594   0.856E-01    0.101E+00
RMM:   3    -0.231946157343E+04   -0.38606E-01   -0.42748E-01  6354   0.329E-01    0.122E+00
RMM:   4    -0.231944776209E+04    0.13811E-01   -0.34480E-02  6368   0.754E-02    0.518E-01
RMM:   5    -0.231944604666E+04    0.17154E-02   -0.61480E-03  5750   0.324E-02    0.431E-01
RMM:   6    -0.231944353464E+04    0.25120E-02   -0.76786E-03  5798   0.393E-02    0.186E-01
RMM:   7    -0.231944349675E+04    0.37895E-04   -0.25744E-03  5504   0.246E-02    0.188E-01
RMM:   8    -0.231944313223E+04    0.36452E-03   -0.69158E-04  4489   0.135E-02    0.895E-02
RMM:   9    -0.231944295123E+04    0.18100E-03   -0.24396E-04  3427   0.946E-03    0.329E-02
RMM:  10    -0.231944291773E+04    0.33502E-04   -0.15843E-04  3473   0.736E-03    0.190E-02
RMM:  11    -0.231944291268E+04    0.50512E-05   -0.19459E-05  2943   0.468E-03
   3 F= -.23407794E+04 E0= -.23407792E+04  d E =-.258712E+00  mag=     2.9897
       N       E                     dE             d eps       ncg     rms          rms(c)
DAV:   1    -0.231933533192E+04    0.10759E+00   -0.10620E+01  4608   0.334E+00    0.137E+00
RMM:   2    -0.231949343786E+04   -0.15811E+00   -0.16079E+00  6054   0.780E-01    0.119E+00
RMM:   3    -0.231950631523E+04   -0.12877E-01   -0.18651E-01  5978   0.325E-01    0.129E+00
RMM:   4    -0.231949015808E+04    0.16157E-01   -0.23062E-02  6047   0.869E-02    0.687E-01
RMM:   5    -0.231948578960E+04    0.43685E-02   -0.79156E-03  5657   0.520E-02    0.348E-01
RMM:   6    -0.231948442457E+04    0.13650E-02   -0.54398E-03  4764   0.449E-02    0.247E-01
RMM:   7    -0.231948383657E+04    0.58800E-03   -0.17477E-03  4709   0.335E-02    0.125E-01
RMM:   8    -0.231948360938E+04    0.22719E-03   -0.30652E-04  4499   0.110E-02    0.430E-02
RMM:   9    -0.231948357907E+04    0.30310E-04   -0.14311E-04  3986   0.914E-03    0.350E-02
RMM:  10    -0.231948357601E+04    0.30581E-05   -0.77536E-05  3900   0.716E-03
   4 F= -.23408203E+04 E0= -.23408201E+04  d E =-.408913E-01  mag=     2.9949
       N       E                     dE             d eps       ncg     rms          rms(c)
DAV:   1    -0.231947958821E+04    0.39909E-02   -0.79930E-01  4752   0.915E-01    0.393E-01
RMM:   2    -0.231949265660E+04   -0.13068E-01   -0.12652E-01  6143   0.218E-01    0.395E-01
RMM:   3    -0.231949234171E+04    0.31488E-03   -0.13816E-02  6013   0.903E-02    0.340E-01
RMM:   4    -0.231949157770E+04    0.76401E-03   -0.21863E-03  5422   0.240E-02    0.236E-01
RMM:   5    -0.231949099815E+04    0.57955E-03   -0.69938E-04  4669   0.164E-02    0.879E-02
RMM:   6    -0.231949095314E+04    0.45011E-04   -0.41329E-04  4664   0.131E-02    0.850E-02
RMM:   7    -0.231949087120E+04    0.81943E-04   -0.16410E-04  3387   0.110E-02    0.300E-02
RMM:   8    -0.231949085871E+04    0.12486E-04   -0.29201E-05  2995   0.437E-03    0.116E-02
RMM:   9    -0.231949085732E+04    0.13964E-05   -0.87356E-06  2902   0.366E-03
   5 F= -.23408275E+04 E0= -.23408273E+04  d E =-.480683E-01  mag=     2.9958
       N       E                     dE             d eps       ncg     rms          rms(c)
DAV:   1    -0.231945011519E+04    0.40744E-01   -0.27015E+00  4592   0.148E+00    0.579E-01
RMM:   2    -0.231951714638E+04   -0.67031E-01   -0.71618E-01  6538   0.426E-01    0.426E-01
RMM:   3    -0.231952292878E+04   -0.57824E-02   -0.75784E-02  6316   0.161E-01    0.427E-01
RMM:   4    -0.231952134235E+04    0.15864E-02   -0.67496E-03  6054   0.359E-02    0.260E-01
RMM:   5    -0.231952108730E+04    0.25505E-03   -0.14329E-03  4803   0.174E-02    0.216E-01
RMM:   6    -0.231952039480E+04    0.69251E-03   -0.13632E-03  5559   0.196E-02    0.816E-02
RMM:   7    -0.231952039935E+04   -0.45554E-05   -0.44169E-04  4903   0.131E-02    0.753E-02
RMM:   8    -0.231952035487E+04    0.44485E-04   -0.11711E-04  3021   0.720E-03    0.364E-02
RMM:   9    -0.231952035281E+04    0.20553E-05   -0.33031E-05  2974   0.475E-03
   6 F= -.23408560E+04 E0= -.23408556E+04  d E =-.284812E-01  mag=     2.9925
       N       E                     dE             d eps       ncg     rms          rms(c)
DAV:   1    -0.231949884224E+04    0.21513E-01   -0.10449E+00  4656   0.921E-01    0.365E-01
RMM:   2    -0.231952480162E+04   -0.25959E-01   -0.27683E-01  6532   0.265E-01    0.275E-01
RMM:   3    -0.231952708955E+04   -0.22879E-02   -0.29649E-02  6183   0.102E-01    0.285E-01
RMM:   4    -0.231952639608E+04    0.69347E-03   -0.26485E-03  5281   0.226E-02    0.163E-01
RMM:   5    -0.231952628335E+04    0.11273E-03   -0.52874E-04  3619   0.112E-02    0.131E-01
RMM:   6    -0.231952604261E+04    0.24075E-03   -0.59069E-04  4997   0.136E-02    0.581E-02
RMM:   7    -0.231952606995E+04   -0.27341E-04   -0.25595E-04  4209   0.102E-02    0.583E-02
RMM:   8    -0.231952604383E+04    0.26120E-04   -0.61258E-05  2937   0.582E-03    0.239E-02
RMM:   9    -0.231952605843E+04   -0.14606E-04   -0.22090E-05  2958   0.387E-03    0.211E-02
RMM:  10    -0.231952608936E+04   -0.30924E-04   -0.33660E-05  2961   0.402E-03    0.120E-02
RMM:  11    -0.231952610732E+04   -0.17967E-04   -0.93744E-06  2917   0.325E-03    0.644E-03
RMM:  12    -0.231952612475E+04   -0.17425E-04   -0.83064E-06  2849   0.247E-03    0.357E-03
RMM:  13    -0.231952613199E+04   -0.72411E-05   -0.29367E-06  2660   0.233E-03
   7 F= -.23408612E+04 E0= -.23408605E+04  d E =-.336661E-01  mag=     2.9873
       N       E                     dE             d eps       ncg     rms          rms(c)
DAV:   1    -0.231948445306E+04    0.41672E-01   -0.26203E+00  4544   0.160E+00    0.585E-01
RMM:   2    -0.231953583197E+04   -0.51379E-01   -0.55912E-01  6304   0.415E-01    0.309E-01
RMM:   3    -0.231953990871E+04   -0.40767E-02   -0.62008E-02  6008   0.162E-01    0.256E-01
RMM:   4    -0.231953986697E+04    0.41736E-04   -0.53194E-03  5944   0.331E-02    0.243E-01
RMM:   5    -0.231953963375E+04    0.23322E-03   -0.13641E-03  5234   0.212E-02    0.193E-01
RMM:   6    -0.231953938114E+04    0.25261E-03   -0.84208E-04  5054   0.159E-02    0.138E-01
RMM:   7    -0.231953917598E+04    0.20516E-03   -0.36562E-04  4806   0.119E-02    0.567E-02
RMM:   8    -0.231953914562E+04    0.30362E-04   -0.86460E-05  3023   0.704E-03    0.424E-02
RMM:   9    -0.231953912649E+04    0.19126E-04   -0.31035E-05  2930   0.481E-03    0.188E-02
RMM:  10    -0.231953912913E+04   -0.26363E-05   -0.26645E-05  2946   0.404E-03
   8 F= -.23408734E+04 E0= -.23408726E+04  d E =-.122639E-01  mag=     2.9823
       N       E                     dE             d eps       ncg     rms          rms(c)
DAV:   1    -0.231953900438E+04    0.12211E-03   -0.59877E-03  5440   0.767E-02    0.283E-02
RMM:   2    -0.231953912348E+04   -0.11910E-03   -0.12818E-03  5703   0.210E-02    0.144E-02
RMM:   3    -0.231953913377E+04   -0.10296E-04   -0.13890E-04  2919   0.827E-03    0.995E-03
RMM:   4    -0.231953913550E+04   -0.17267E-05   -0.12983E-05  2950   0.241E-03
   9 F= -.23408735E+04 E0= -.23408726E+04  d E =-.123044E-01  mag=     2.9821
       N       E                     dE             d eps       ncg     rms          rms(c)
DAV:   1    -0.231952252728E+04    0.16606E-01   -0.12596E+00  4544   0.113E+00    0.393E-01
RMM:   2    -0.231954726687E+04   -0.24740E-01   -0.25447E-01  6408   0.276E-01    0.454E-01
RMM:   3    -0.231954880040E+04   -0.15335E-02   -0.24952E-02  6098   0.976E-02    0.407E-01
RMM:   4    -0.231954741704E+04    0.13834E-02   -0.28806E-03  5547   0.268E-02    0.168E-01
RMM:   5    -0.231954715104E+04    0.26600E-03   -0.61283E-04  4489   0.136E-02    0.109E-01
RMM:   6    -0.231954698910E+04    0.16194E-03   -0.45215E-04  4621   0.133E-02    0.554E-02
RMM:   7    -0.231954698907E+04    0.28303E-07   -0.19673E-04  3549   0.105E-02    0.556E-02
RMM:   8    -0.231954694164E+04    0.47434E-04   -0.60829E-05  2988   0.605E-03    0.151E-02
RMM:   9    -0.231954693582E+04    0.58181E-05   -0.13092E-05  2932   0.422E-03
  10 F= -.23408817E+04 E0= -.23408810E+04  d E =-.819133E-02  mag=     2.9847
       N       E                     dE             d eps       ncg     rms          rms(c)
DAV:   1    -0.231954122206E+04    0.57196E-02   -0.32980E-01  4592   0.580E-01    0.201E-01
RMM:   2    -0.231954770978E+04   -0.64877E-02   -0.66750E-02  6407   0.142E-01    0.233E-01
RMM:   3    -0.231954808199E+04   -0.37222E-03   -0.65059E-03  5634   0.503E-02    0.203E-01
RMM:   4    -0.231954774610E+04    0.33589E-03   -0.76151E-04  3766   0.139E-02    0.895E-02
RMM:   5    -0.231954766991E+04    0.76193E-04   -0.16288E-04  3108   0.817E-03    0.561E-02
RMM:   6    -0.231954762477E+04    0.45140E-04   -0.13047E-04  3770   0.808E-03    0.289E-02
RMM:   7    -0.231954762371E+04    0.10602E-05   -0.55259E-05  2989   0.665E-03
  11 F= -.23408826E+04 E0= -.23408819E+04  d E =-.908392E-02  mag=     2.9863
       N       E                     dE             d eps       ncg     rms          rms(c)
DAV:   1    -0.231953242704E+04    0.15198E-01   -0.10628E+00  4544   0.102E+00    0.346E-01
RMM:   2    -0.231955476690E+04   -0.22340E-01   -0.21560E-01  6546   0.240E-01    0.587E-01
RMM:   3    -0.231955423138E+04    0.53552E-03   -0.23082E-02  6169   0.913E-02    0.301E-01
RMM:   4    -0.231955355657E+04    0.67481E-03   -0.25113E-03  5133   0.234E-02    0.147E-01
RMM:   5    -0.231955335486E+04    0.20171E-03   -0.47022E-04  3884   0.116E-02    0.107E-01
RMM:   6    -0.231955319582E+04    0.15904E-03   -0.35155E-04  4424   0.114E-02    0.531E-02
RMM:   7    -0.231955320298E+04   -0.71637E-05   -0.15185E-04  3222   0.974E-03    0.463E-02
RMM:   8    -0.231955317168E+04    0.31304E-04   -0.45022E-05  2924   0.545E-03    0.125E-02
RMM:   9    -0.231955317047E+04    0.12097E-05   -0.84930E-06  2897   0.359E-03
  12 F= -.23408889E+04 E0= -.23408884E+04  d E =-.631120E-02  mag=     2.9903
       N       E                     dE             d eps       ncg     rms          rms(c)
DAV:   1    -0.231953936466E+04    0.13807E-01   -0.74554E-01  4544   0.854E-01    0.291E-01
RMM:   2    -0.231955520725E+04   -0.15843E-01   -0.15139E-01  6535   0.201E-01    0.510E-01
RMM:   3    -0.231955461834E+04    0.58891E-03   -0.16167E-02  6046   0.763E-02    0.244E-01
RMM:   4    -0.231955418368E+04    0.43466E-03   -0.17781E-03  4692   0.197E-02    0.125E-01
RMM:   5    -0.231955403071E+04    0.15297E-03   -0.32842E-04  3525   0.101E-02    0.889E-02
RMM:   6    -0.231955391709E+04    0.11362E-03   -0.25469E-04  4254   0.100E-02    0.459E-02
RMM:   7    -0.231955391879E+04   -0.16996E-05   -0.10290E-04  3078   0.849E-03    0.365E-02
RMM:   8    -0.231955389959E+04    0.19198E-04   -0.31620E-05  2906   0.480E-03    0.111E-02
RMM:   9    -0.231955389884E+04    0.75344E-06   -0.64624E-06  2876   0.324E-03
  13 F= -.23408902E+04 E0= -.23408899E+04  d E =-.768551E-02  mag=     2.9931
       N       E                     dE             d eps       ncg     rms          rms(c)
DAV:   1    -0.231953813649E+04    0.15763E-01   -0.11137E+00  4528   0.105E+00    0.328E-01
RMM:   2    -0.231956001028E+04   -0.21874E-01   -0.20691E-01  6529   0.239E-01    0.593E-01
RMM:   3    -0.231955902858E+04    0.98170E-03   -0.23977E-02  6191   0.947E-02    0.268E-01
RMM:   4    -0.231955852610E+04    0.50248E-03   -0.22795E-03  4975   0.222E-02    0.129E-01
RMM:   5    -0.231955842294E+04    0.10315E-03   -0.46970E-04  4052   0.120E-02    0.119E-01
RMM:   6    -0.231955824667E+04    0.17627E-03   -0.40152E-04  4727   0.122E-02    0.638E-02
RMM:   7    -0.231955823037E+04    0.16303E-04   -0.17091E-04  3306   0.106E-02    0.504E-02
RMM:   8    -0.231955820201E+04    0.28365E-04   -0.42446E-05  2914   0.508E-03    0.118E-02
RMM:   9    -0.231955820057E+04    0.14335E-05   -0.77197E-06  2905   0.341E-03
  14 F= -.23408951E+04 E0= -.23408948E+04  d E =-.480609E-02  mag=     2.9949
       N       E                     dE             d eps       ncg     rms          rms(c)
DAV:   1    -0.231955497760E+04    0.32244E-02   -0.19146E-01  4576   0.436E-01    0.136E-01
RMM:   2    -0.231955874225E+04   -0.37647E-02   -0.35725E-02  6509   0.100E-01    0.242E-01
RMM:   3    -0.231955857943E+04    0.16282E-03   -0.41267E-03  5090   0.398E-02    0.111E-01
RMM:   4    -0.231955849178E+04    0.87658E-04   -0.39383E-04  3059   0.981E-03    0.530E-02
RMM:   5    -0.231955847358E+04    0.18196E-04   -0.80006E-05  3010   0.621E-03    0.490E-02
RMM:   6    -0.231955844430E+04    0.29279E-04   -0.74191E-05  3250   0.629E-03    0.272E-02
RMM:   7    -0.231955844141E+04    0.28878E-05   -0.34450E-05  2930   0.550E-03
  15 F= -.23408955E+04 E0= -.23408953E+04  d E =-.525740E-02  mag=     2.9956
       N       E                     dE             d eps       ncg     rms          rms(c)
DAV:   1    -0.231954676978E+04    0.11675E-01   -0.81940E-01  4528   0.937E-01    0.279E-01
RMM:   2    -0.231956178473E+04   -0.15015E-01   -0.15735E-01  6529   0.213E-01    0.254E-01
RMM:   3    -0.231956349826E+04   -0.17135E-02   -0.18185E-02  6091   0.867E-02    0.346E-01
RMM:   4    -0.231956248086E+04    0.10174E-02   -0.17641E-03  4265   0.197E-02    0.110E-01
RMM:   5    -0.231956238427E+04    0.96596E-04   -0.36018E-04  3483   0.105E-02    0.885E-02
RMM:   6    -0.231956227883E+04    0.10543E-03   -0.30681E-04  4507   0.115E-02    0.432E-02
RMM:   7    -0.231956229238E+04   -0.13548E-04   -0.12065E-04  3168   0.870E-03    0.466E-02
RMM:   8    -0.231956226291E+04    0.29470E-04   -0.36106E-05  2923   0.536E-03    0.997E-03
RMM:   9    -0.231956226120E+04    0.17143E-05   -0.68093E-06  2901   0.316E-03
  16 F= -.23408993E+04 E0= -.23408991E+04  d E =-.377367E-02  mag=     2.9961
       N       E                     dE             d eps       ncg     rms          rms(c)
DAV:   1    -0.231955646328E+04    0.57996E-02   -0.34587E-01  4544   0.609E-01    0.181E-01
RMM:   2    -0.231956281200E+04   -0.63487E-02   -0.66406E-02  6475   0.138E-01    0.166E-01
RMM:   3    -0.231956350953E+04   -0.69753E-03   -0.76291E-03  5655   0.571E-02    0.220E-01
RMM:   4    -0.231956309491E+04    0.41462E-03   -0.73935E-04  3190   0.130E-02    0.714E-02
RMM:   5    -0.231956305440E+04    0.40510E-04   -0.15076E-04  3093   0.739E-03    0.573E-02
RMM:   6    -0.231956300872E+04    0.45676E-04   -0.12959E-04  3724   0.802E-03    0.275E-02
RMM:   7    -0.231956301499E+04   -0.62667E-05   -0.52446E-05  2967   0.631E-03
  17 F= -.23409000E+04 E0= -.23408998E+04  d E =-.450036E-02  mag=     2.9963
       N       E                     dE             d eps       ncg     rms          rms(c)
DAV:   1    -0.231955090287E+04    0.12106E-01   -0.79445E-01  4528   0.898E-01    0.268E-01
RMM:   2    -0.231956549121E+04   -0.14588E-01   -0.15316E-01  6453   0.200E-01    0.227E-01
RMM:   3    -0.231956684470E+04   -0.13535E-02   -0.17027E-02  5884   0.791E-02    0.236E-01
RMM:   4    -0.231956655084E+04    0.29386E-03   -0.16757E-03  4210   0.178E-02    0.127E-01
RMM:   5    -0.231956642798E+04    0.12287E-03   -0.25782E-04  3222   0.949E-03    0.792E-02
RMM:   6    -0.231956635560E+04    0.72377E-04   -0.21363E-04  3973   0.969E-03    0.475E-02
RMM:   7    -0.231956635833E+04   -0.27319E-05   -0.14298E-04  3256   0.842E-03    0.458E-02
RMM:   8    -0.231956633112E+04    0.27214E-04   -0.31031E-05  2900   0.534E-03    0.108E-02
RMM:   9    -0.231956632923E+04    0.18847E-05   -0.65033E-06  2899   0.310E-03
  18 F= -.23409034E+04 E0= -.23409032E+04  d E =-.338006E-02  mag=     2.9967
       N       E                     dE             d eps       ncg     rms          rms(c)
DAV:   1    -0.231954414942E+04    0.22182E-01   -0.12173E+00  4512   0.111E+00    0.330E-01
RMM:   2    -0.231956650508E+04   -0.22356E-01   -0.23431E-01  6472   0.247E-01    0.279E-01
RMM:   3    -0.231956856550E+04   -0.20604E-02   -0.26126E-02  6000   0.972E-02    0.288E-01
RMM:   4    -0.231956812300E+04    0.44250E-03   -0.25468E-03  4957   0.218E-02    0.156E-01
RMM:   5    -0.231956793500E+04    0.18800E-03   -0.38910E-04  3505   0.109E-02    0.976E-02
RMM:   6    -0.231956781775E+04    0.11725E-03   -0.33360E-04  4292   0.116E-02    0.564E-02
RMM:   7    -0.231956782206E+04   -0.43112E-05   -0.20670E-04  3682   0.986E-03    0.562E-02
RMM:   8    -0.231956778139E+04    0.40668E-04   -0.45990E-05  2921   0.578E-03    0.140E-02
RMM:   9    -0.231956777787E+04    0.35232E-05   -0.93697E-06  2918   0.350E-03
  19 F= -.23409049E+04 E0= -.23409048E+04  d E =-.491553E-02  mag=     2.9971
       N       E                     dE             d eps       ncg     rms          rms(c)
DAV:   1    -0.231956051481E+04    0.72666E-02   -0.47440E-01  4544   0.680E-01    0.203E-01
RMM:   2    -0.231956981283E+04   -0.92980E-02   -0.94423E-02  6483   0.154E-01    0.235E-01
RMM:   3    -0.231957058782E+04   -0.77499E-03   -0.10782E-02  5458   0.608E-02    0.220E-01
RMM:   4    -0.231957021056E+04    0.37726E-03   -0.10486E-03  3542   0.147E-02    0.745E-02
RMM:   5    -0.231957016669E+04    0.43873E-04   -0.13485E-04  3069   0.748E-03    0.580E-02
RMM:   6    -0.231957011984E+04    0.46851E-04   -0.11855E-04  3286   0.745E-03    0.260E-02
RMM:   7    -0.231957011678E+04    0.30512E-05   -0.50816E-05  3045   0.598E-03
  20 F= -.23409076E+04 E0= -.23409074E+04  d E =-.265459E-02  mag=     2.9974
       N       E                     dE             d eps       ncg     rms          rms(c)
DAV:   1    -0.231948630419E+04    0.83816E-01   -0.42613E+00  4504   0.204E+00    0.618E-01
RMM:   2    -0.231957157149E+04   -0.85267E-01   -0.85704E-01  6529   0.464E-01    0.785E-01
RMM:   3    -0.231957657123E+04   -0.49997E-02   -0.98537E-02  6253   0.183E-01    0.610E-01
RMM:   4    -0.231957373027E+04    0.28410E-02   -0.94399E-03  6048   0.429E-02    0.230E-01
RMM:   5    -0.231957330311E+04    0.42717E-03   -0.12213E-03  4988   0.168E-02    0.173E-01
RMM:   6    -0.231957290461E+04    0.39850E-03   -0.10222E-03  5006   0.177E-02    0.846E-02
RMM:   7    -0.231957289479E+04    0.98204E-05   -0.50797E-04  4726   0.145E-02    0.775E-02
RMM:   8    -0.231957283533E+04    0.59462E-04   -0.10490E-04  2996   0.710E-03    0.241E-02
RMM:   9    -0.231957282434E+04    0.10989E-04   -0.19064E-05  2948   0.429E-03    0.164E-02
RMM:  10    -0.231957282047E+04    0.38647E-05   -0.17770E-05  2892   0.323E-03
  21 F= -.23409112E+04 E0= -.23409111E+04  d E =-.632030E-02  mag=     2.9982
       N       E                     dE             d eps       ncg     rms          rms(c)
DAV:   1    -0.231956354030E+04    0.92840E-02   -0.53507E-01  4544   0.737E-01    0.231E-01
RMM:   2    -0.231957485628E+04   -0.11316E-01   -0.11364E-01  6456   0.178E-01    0.252E-01
RMM:   3    -0.231957569092E+04   -0.83463E-03   -0.12415E-02  5642   0.674E-02    0.250E-01
RMM:   4    -0.231957515073E+04    0.54019E-03   -0.12774E-03  3837   0.163E-02    0.996E-02
RMM:   5    -0.231957507067E+04    0.80063E-04   -0.18969E-04  3033   0.799E-03    0.638E-02
RMM:   6    -0.231957501426E+04    0.56405E-04   -0.13025E-04  3614   0.806E-03    0.291E-02
RMM:   7    -0.231957501434E+04   -0.80938E-07   -0.69318E-05  3158   0.688E-03
  22 F= -.23409139E+04 E0= -.23409138E+04  d E =-.264139E-02  mag=     2.9984
       N       E                     dE             d eps       ncg     rms          rms(c)
DAV:   1    -0.231953361422E+04    0.41400E-01   -0.19570E+00  4504   0.141E+00    0.445E-01
RMM:   2    -0.231957521367E+04   -0.41599E-01   -0.41737E-01  6498   0.342E-01    0.494E-01
RMM:   3    -0.231957812982E+04   -0.29161E-02   -0.46073E-02  6096   0.131E-01    0.472E-01
RMM:   4    -0.231957618698E+04    0.19428E-02   -0.46896E-03  5645   0.312E-02    0.195E-01
RMM:   5    -0.231957588207E+04    0.30491E-03   -0.69056E-04  3947   0.129E-02    0.123E-01
RMM:   6    -0.231957568106E+04    0.20101E-03   -0.44302E-04  4694   0.133E-02    0.582E-02
RMM:   7    -0.231957567785E+04    0.32125E-05   -0.27029E-04  4268   0.116E-02    0.443E-02
RMM:   8    -0.231957565091E+04    0.26942E-04   -0.55232E-05  2945   0.613E-03    0.162E-02
RMM:   9    -0.231957564607E+04    0.48332E-05   -0.99889E-06  2907   0.382E-03
  23 F= -.23409154E+04 E0= -.23409153E+04  d E =-.414102E-02  mag=     2.9988
       N       E                     dE             d eps       ncg     rms          rms(c)
DAV:   1    -0.231956522764E+04    0.10423E-01   -0.52735E-01  4528   0.724E-01    0.228E-01
RMM:   2    -0.231957669015E+04   -0.11463E-01   -0.11699E-01  6566   0.178E-01    0.209E-01
RMM:   3    -0.231957758133E+04   -0.89118E-03   -0.12349E-02  5759   0.661E-02    0.199E-01
RMM:   4    -0.231957724277E+04    0.33856E-03   -0.12934E-03  3558   0.159E-02    0.120E-01
RMM:   5    -0.231957712958E+04    0.11319E-03   -0.18608E-04  2972   0.729E-03    0.604E-02
RMM:   6    -0.231957707825E+04    0.51330E-04   -0.98057E-05  3225   0.687E-03    0.280E-02
RMM:   7    -0.231957707247E+04    0.57761E-05   -0.63925E-05  3163   0.643E-03
  24 F= -.23409171E+04 E0= -.23409171E+04  d E =-.173738E-02  mag=     2.9989
       N       E                     dE             d eps       ncg     rms          rms(c)
DAV:   1    -0.231953297241E+04    0.44106E-01   -0.19786E+00  4504   0.140E+00    0.444E-01
RMM:   2    -0.231957611499E+04   -0.43143E-01   -0.43991E-01  6577   0.345E-01    0.416E-01
RMM:   3    -0.231957954460E+04   -0.34296E-02   -0.47113E-02  6208   0.131E-01    0.404E-01
RMM:   4    -0.231957811986E+04    0.14247E-02   -0.48833E-03  5435   0.308E-02    0.232E-01
RMM:   5    -0.231957769250E+04    0.42736E-03   -0.69232E-04  3532   0.116E-02    0.116E-01
RMM:   6    -0.231957750398E+04    0.18852E-03   -0.35371E-04  4298   0.120E-02    0.552E-02
RMM:   7    -0.231957747687E+04    0.27113E-04   -0.23315E-04  4175   0.110E-02    0.175E-02
RMM:   8    -0.231957747387E+04    0.29986E-05   -0.16989E-05  2921   0.538E-03
  25 F= -.23409181E+04 E0= -.23409181E+04  d E =-.275344E-02  mag=     2.9991
       N       E                     dE             d eps       ncg     rms          rms(c)
DAV:   1    -0.231957075777E+04    0.67191E-02   -0.38654E-01  4576   0.611E-01    0.202E-01
RMM:   2    -0.231957909399E+04   -0.83362E-02   -0.86354E-02  6507   0.150E-01    0.190E-01
RMM:   3    -0.231957982135E+04   -0.72735E-03   -0.92416E-03  5782   0.564E-02    0.198E-01
RMM:   4    -0.231957956911E+04    0.25224E-03   -0.96035E-04  3323   0.139E-02    0.870E-02
RMM:   5    -0.231957951361E+04    0.55497E-04   -0.15272E-04  3079   0.765E-03    0.651E-02
RMM:   6    -0.231957945692E+04    0.56687E-04   -0.11426E-04  3446   0.801E-03    0.242E-02
RMM:   7    -0.231957945735E+04   -0.42426E-06   -0.47014E-05  3056   0.630E-03
  26 F= -.23409202E+04 E0= -.23409201E+04  d E =-.203450E-02  mag=     2.9991
       N       E                     dE             d eps       ncg     rms          rms(c)
DAV:   1    -0.231957193219E+04    0.75247E-02   -0.35818E-01  4528   0.588E-01    0.195E-01
RMM:   2    -0.231957959505E+04   -0.76629E-02   -0.80130E-02  6544   0.145E-01    0.166E-01
RMM:   3    -0.231958030295E+04   -0.70790E-03   -0.83921E-03  5700   0.548E-02    0.182E-01
RMM:   4    -0.231958009583E+04    0.20712E-03   -0.86753E-04  3188   0.133E-02    0.808E-02
RMM:   5    -0.231958005823E+04    0.37592E-04   -0.13891E-04  3078   0.749E-03    0.655E-02
RMM:   6    -0.231958000171E+04    0.56520E-04   -0.10429E-04  3234   0.771E-03    0.239E-02
RMM:   7    -0.231957999762E+04    0.40946E-05   -0.40322E-05  3029   0.613E-03
  27 F= -.23409208E+04 E0= -.23409207E+04  d E =-.262688E-02  mag=     2.9992
       N       E                     dE             d eps       ncg     rms          rms(c)
DAV:   1    -0.231957737439E+04    0.26273E-02   -0.18702E-01  4560   0.437E-01    0.154E-01
RMM:   2    -0.231958157330E+04   -0.41989E-02   -0.40279E-02  6547   0.109E-01    0.230E-01
RMM:   3    -0.231958153574E+04    0.37558E-04   -0.43649E-03  5203   0.410E-02    0.144E-01
RMM:   4    -0.231958134579E+04    0.18995E-03   -0.42727E-04  3058   0.105E-02    0.447E-02
RMM:   5    -0.231958133842E+04    0.73756E-05   -0.85166E-05  3067   0.643E-03
  28 F= -.23409220E+04 E0= -.23409220E+04  d E =-.124706E-02  mag=     2.9992
       N       E                     dE             d eps       ncg     rms          rms(c)
DAV:   1    -0.231957760327E+04    0.37425E-02   -0.19522E-01  4528   0.447E-01    0.155E-01
RMM:   2    -0.231958186530E+04   -0.42620E-02   -0.42096E-02  6542   0.110E-01    0.206E-01
RMM:   3    -0.231958199401E+04   -0.12871E-03   -0.45405E-03  5254   0.417E-02    0.153E-01
RMM:   4    -0.231958178470E+04    0.20931E-03   -0.44472E-04  3063   0.108E-02    0.506E-02
RMM:   5    -0.231958177973E+04    0.49718E-05   -0.10367E-04  3060   0.687E-03    0.519E-02
RMM:   6    -0.231958174284E+04    0.36892E-04   -0.85089E-05  3292   0.721E-03    0.217E-02
RMM:   7    -0.231958174358E+04   -0.74141E-06   -0.30742E-05  2928   0.558E-03
  29 F= -.23409223E+04 E0= -.23409223E+04  d E =-.155717E-02  mag=     2.9992
       N       E                     dE             d eps       ncg     rms          rms(c)
DAV:   1    -0.231957907827E+04    0.26646E-02   -0.17646E-01  4528   0.428E-01    0.144E-01
RMM:   2    -0.231958299598E+04   -0.39177E-02   -0.37202E-02  6564   0.105E-01    0.226E-01
RMM:   3    -0.231958287902E+04    0.11696E-03   -0.39571E-03  4960   0.385E-02    0.129E-01
RMM:   4    -0.231958273741E+04    0.14161E-03   -0.42569E-04  3077   0.100E-02    0.513E-02
RMM:   5    -0.231958271198E+04    0.25431E-04   -0.76894E-05  2990   0.597E-03    0.392E-02
RMM:   6    -0.231958268627E+04    0.25712E-04   -0.66917E-05  3223   0.627E-03    0.161E-02
RMM:   7    -0.231958268540E+04    0.86619E-06   -0.16087E-05  2928   0.483E-03
  30 F= -.23409233E+04 E0= -.23409232E+04  d E =-.952512E-03  mag=     2.9993
       N       E                     dE             d eps       ncg     rms          rms(c)
DAV:   1    -0.231957755336E+04    0.51329E-02   -0.26852E-01  4512   0.528E-01    0.178E-01
RMM:   2    -0.231958356260E+04   -0.60092E-02   -0.56496E-02  6549   0.128E-01    0.287E-01
RMM:   3    -0.231958332009E+04    0.24251E-03   -0.60682E-03  5456   0.479E-02    0.157E-01
RMM:   4    -0.231958311265E+04    0.20744E-03   -0.64400E-04  3209   0.119E-02    0.632E-02
RMM:   5    -0.231958307349E+04    0.39158E-04   -0.11404E-04  3063   0.710E-03    0.481E-02
RMM:   6    -0.231958303365E+04    0.39840E-04   -0.10452E-04  3756   0.753E-03    0.215E-02
RMM:   7    -0.231958303493E+04   -0.12827E-05   -0.28033E-05  2916   0.572E-03
  31 F= -.23409236E+04 E0= -.23409236E+04  d E =-.131657E-02  mag=     2.9993
       N       E                     dE             d eps       ncg     rms          rms(c)
DAV:   1    -0.231958112338E+04    0.19103E-02   -0.14190E-01  4544   0.387E-01    0.126E-01
RMM:   2    -0.231958372807E+04   -0.26047E-02   -0.26816E-02  6478   0.906E-02    0.127E-01
RMM:   3    -0.231958392188E+04   -0.19381E-03   -0.27998E-03  4731   0.340E-02    0.132E-01
RMM:   4    -0.231958377806E+04    0.14382E-03   -0.30750E-04  3006   0.938E-03    0.512E-02
RMM:   5    -0.231958375536E+04    0.22702E-04   -0.64585E-05  2945   0.559E-03    0.365E-02
RMM:   6    -0.231958373880E+04    0.16559E-04   -0.51307E-05  2962   0.564E-03    0.205E-02
RMM:   7    -0.231958373898E+04   -0.18210E-06   -0.26925E-05  2911   0.509E-03
  32 F= -.23409245E+04 E0= -.23409245E+04  d E =-.869366E-03  mag=     2.9994
       N       E                     dE             d eps       ncg     rms          rms(c)
DAV:   1    -0.231958012502E+04    0.36138E-02   -0.20296E-01  4512   0.463E-01    0.151E-01
RMM:   2    -0.231958385965E+04   -0.37346E-02   -0.38413E-02  6519   0.108E-01    0.151E-01
RMM:   3    -0.231958411686E+04   -0.25720E-03   -0.38745E-03  5232   0.397E-02    0.154E-01
RMM:   4    -0.231958392309E+04    0.19376E-03   -0.43462E-04  3061   0.106E-02    0.627E-02
RMM:   5    -0.231958389033E+04    0.32762E-04   -0.90916E-05  2968   0.660E-03    0.434E-02
RMM:   6    -0.231958386799E+04    0.22337E-04   -0.73619E-05  3159   0.654E-03    0.269E-02
RMM:   7    -0.231958386575E+04    0.22387E-05   -0.39315E-05  2919   0.586E-03
  33 F= -.23409248E+04 E0= -.23409248E+04  d E =-.119449E-02  mag=     2.9994
       N       E                     dE             d eps       ncg     rms          rms(c)
DAV:   1    -0.231958212510E+04    0.17429E-02   -0.13490E-01  4528   0.373E-01    0.116E-01
RMM:   2    -0.231958444546E+04   -0.23204E-02   -0.24579E-02  6537   0.869E-02    0.840E-02
RMM:   3    -0.231958462398E+04   -0.17852E-03   -0.24909E-03  4379   0.319E-02    0.846E-02
RMM:   4    -0.231958456725E+04    0.56734E-04   -0.25252E-04  2982   0.823E-03    0.439E-02
RMM:   5    -0.231958456499E+04    0.22581E-05   -0.45740E-05  2921   0.453E-03
  34 F= -.23409257E+04 E0= -.23409257E+04  d E =-.858331E-03  mag=     2.9994
       N       E                     dE             d eps       ncg     rms          rms(c)
DAV:   1    -0.231957663129E+04    0.79360E-02   -0.45685E-01  4512   0.686E-01    0.211E-01
RMM:   2    -0.231958450637E+04   -0.78751E-02   -0.82758E-02  6519   0.158E-01    0.164E-01
RMM:   3    -0.231958505008E+04   -0.54370E-03   -0.86025E-03  5835   0.582E-02    0.144E-01
RMM:   4    -0.231958484891E+04    0.20117E-03   -0.81306E-04  3426   0.135E-02    0.638E-02
RMM:   5    -0.231958481261E+04    0.36299E-04   -0.16982E-04  3789   0.897E-03    0.521E-02
RMM:   6    -0.231958480093E+04    0.11673E-04   -0.11164E-04  3004   0.787E-03    0.456E-02
RMM:   7    -0.231958479620E+04    0.47314E-05   -0.44101E-05  2915   0.593E-03
  35 F= -.23409262E+04 E0= -.23409262E+04  d E =-.138432E-02  mag=     2.9995
       N       E                     dE             d eps       ncg     rms          rms(c)
DAV:   1    -0.231958105013E+04    0.37508E-02   -0.24749E-01  4512   0.510E-01    0.149E-01
RMM:   2    -0.231958521548E+04   -0.41654E-02   -0.44344E-02  6499   0.117E-01    0.940E-02
RMM:   3    -0.231958559807E+04   -0.38258E-03   -0.45509E-03  5158   0.437E-02    0.111E-01
RMM:   4    -0.231958552420E+04    0.73862E-04   -0.44452E-04  3047   0.989E-03    0.578E-02
RMM:   5    -0.231958551324E+04    0.10968E-04   -0.77523E-05  2939   0.612E-03    0.497E-02
RMM:   6    -0.231958548513E+04    0.28104E-04   -0.60342E-05  2987   0.560E-03    0.267E-02
RMM:   7    -0.231958547918E+04    0.59491E-05   -0.28602E-05  2944   0.521E-03
  36 F= -.23409270E+04 E0= -.23409270E+04  d E =-.828912E-03  mag=     2.9995
       N       E                     dE             d eps       ncg     rms          rms(c)
DAV:   1    -0.231958149037E+04    0.39948E-02   -0.22609E-01  4512   0.488E-01    0.143E-01
RMM:   2    -0.231958530459E+04   -0.38142E-02   -0.40539E-02  6544   0.112E-01    0.929E-02
RMM:   3    -0.231958566037E+04   -0.35578E-03   -0.41384E-03  5009   0.413E-02    0.115E-01
RMM:   4    -0.231958557546E+04    0.84910E-04   -0.41140E-04  3021   0.965E-03    0.544E-02
RMM:   5    -0.231958556749E+04    0.79707E-05   -0.75103E-05  2963   0.598E-03
  37 F= -.23409273E+04 E0= -.23409272E+04  d E =-.105740E-02  mag=     2.9995
       N       E                     dE             d eps       ncg     rms          rms(c)
DAV:   1    -0.231958147239E+04    0.41031E-02   -0.26718E-01  4512   0.539E-01    0.155E-01
RMM:   2    -0.231958598757E+04   -0.45152E-02   -0.46349E-02  6459   0.121E-01    0.158E-01
RMM:   3    -0.231958638730E+04   -0.39973E-03   -0.48926E-03  5256   0.456E-02    0.166E-01
RMM:   4    -0.231958613666E+04    0.25064E-03   -0.47157E-04  3143   0.115E-02    0.538E-02
RMM:   5    -0.231958611632E+04    0.20343E-04   -0.12315E-04  3156   0.790E-03    0.464E-02
RMM:   6    -0.231958610047E+04    0.15850E-04   -0.77917E-05  3200   0.696E-03    0.305E-02
RMM:   7    -0.231958609101E+04    0.94565E-05   -0.25952E-05  2917   0.554E-03
  38 F= -.23409279E+04 E0= -.23409279E+04  d E =-.676199E-03  mag=     2.9995
       N       E                     dE             d eps       ncg     rms          rms(c)
DAV:   1    -0.231958504488E+04    0.10556E-02   -0.58694E-02  4672   0.252E-01    0.744E-02
RMM:   2    -0.231958605216E+04   -0.10073E-02   -0.10319E-02  6459   0.582E-02    0.758E-02
RMM:   3    -0.231958614386E+04   -0.91699E-04   -0.11028E-03  3539   0.219E-02    0.832E-02
RMM:   4    -0.231958607703E+04    0.66833E-04   -0.10875E-04  2943   0.688E-03    0.236E-02
RMM:   5    -0.231958607443E+04    0.25974E-05   -0.27583E-05  2956   0.356E-03
  39 F= -.23409280E+04 E0= -.23409280E+04  d E =-.731243E-03  mag=     2.9996
       N       E                     dE             d eps       ncg     rms          rms(c)
DAV:   1    -0.231958229008E+04    0.37869E-02   -0.26713E-01  4512   0.538E-01    0.156E-01
RMM:   2    -0.231958667918E+04   -0.43891E-02   -0.43005E-02  6329   0.117E-01    0.200E-01
RMM:   3    -0.231958682170E+04   -0.14251E-03   -0.47152E-03  5313   0.454E-02    0.157E-01
RMM:   4    -0.231958658558E+04    0.23611E-03   -0.45980E-04  3143   0.112E-02    0.541E-02
RMM:   5    -0.231958657725E+04    0.83327E-05   -0.10687E-04  3050   0.697E-03    0.534E-02
RMM:   6    -0.231958654194E+04    0.35306E-04   -0.90304E-05  3373   0.711E-03    0.206E-02
RMM:   7    -0.231958654408E+04   -0.21334E-05   -0.25423E-05  2926   0.553E-03
  40 F= -.23409288E+04 E0= -.23409288E+04  d E =-.776726E-03  mag=     2.9996
       N       E                     dE             d eps       ncg     rms          rms(c)
DAV:   1    -0.231958471527E+04    0.18267E-02   -0.10701E-01  4512   0.341E-01    0.101E-01
RMM:   2    -0.231958646782E+04   -0.17526E-02   -0.17417E-02  6421   0.758E-02    0.120E-01
RMM:   3    -0.231958656021E+04   -0.92392E-04   -0.19014E-03  4167   0.289E-02    0.106E-01
RMM:   4    -0.231958645226E+04    0.10795E-03   -0.18637E-04  2957   0.814E-03    0.325E-02
RMM:   5    -0.231958645023E+04    0.20333E-05   -0.44955E-05  2999   0.465E-03
  41 F= -.23409289E+04 E0= -.23409289E+04  d E =-.877557E-03  mag=     2.9996
       N       E                     dE             d eps       ncg     rms          rms(c)
DAV:   1    -0.231958244376E+04    0.40085E-02   -0.28451E-01  4504   0.563E-01    0.162E-01
RMM:   2    -0.231958670368E+04   -0.42599E-02   -0.43147E-02  6366   0.124E-01    0.162E-01
RMM:   3    -0.231958709083E+04   -0.38715E-03   -0.46823E-03  5523   0.461E-02    0.182E-01
RMM:   4    -0.231958677158E+04    0.31925E-03   -0.47455E-04  3157   0.118E-02    0.537E-02
RMM:   5    -0.231958676171E+04    0.98755E-05   -0.12785E-04  3120   0.749E-03    0.494E-02
RMM:   6    -0.231958672741E+04    0.34294E-04   -0.90678E-05  3451   0.741E-03    0.178E-02
RMM:   7    -0.231958672906E+04   -0.16515E-05   -0.20640E-05  2925   0.532E-03
  42 F= -.23409296E+04 E0= -.23409295E+04  d E =-.689439E-03  mag=     2.9996
       N       E                     dE             d eps       ncg     rms          rms(c)
DAV:   1    -0.231958516951E+04    0.15579E-02   -0.90113E-02  4544   0.317E-01    0.932E-02
RMM:   2    -0.231958653238E+04   -0.13629E-02   -0.13820E-02  6445   0.706E-02    0.918E-02
RMM:   3    -0.231958665975E+04   -0.12737E-03   -0.14946E-03  4094   0.262E-02    0.106E-01
RMM:   4    -0.231958655363E+04    0.10613E-03   -0.15338E-04  2946   0.772E-03    0.300E-02
RMM:   5    -0.231958654979E+04    0.38386E-05   -0.41306E-05  2970   0.436E-03
  43 F= -.23409296E+04 E0= -.23409296E+04  d E =-.741636E-03  mag=     2.9996
       N       E                     dE             d eps       ncg     rms          rms(c)
DAV:   1    -0.231958100348E+04    0.55501E-02   -0.35208E-01  4496   0.624E-01    0.180E-01
RMM:   2    -0.231958644443E+04   -0.54410E-02   -0.57042E-02  6397   0.141E-01    0.124E-01
RMM:   3    -0.231958702655E+04   -0.58212E-03   -0.60748E-03  5708   0.516E-02    0.172E-01
RMM:   4    -0.231958677512E+04    0.25143E-03   -0.62848E-04  3285   0.124E-02    0.692E-02
RMM:   5    -0.231958675831E+04    0.16814E-04   -0.13696E-04  2989   0.739E-03    0.545E-02
RMM:   6    -0.231958671426E+04    0.44042E-04   -0.90902E-05  3544   0.723E-03    0.238E-02
RMM:   7    -0.231958671794E+04   -0.36754E-05   -0.38836E-05  2932   0.595E-03
  44 F= -.23409302E+04 E0= -.23409302E+04  d E =-.579477E-03  mag=     2.9997
       N       E                     dE             d eps       ncg     rms          rms(c)
DAV:   1    -0.231958621371E+04    0.50055E-03   -0.23157E-02  4848   0.160E-01    0.482E-02
RMM:   2    -0.231958657270E+04   -0.35898E-03   -0.38363E-03  6321   0.376E-02    0.265E-02
RMM:   3    -0.231958660638E+04   -0.33682E-04   -0.40523E-04  3024   0.139E-02    0.307E-02
RMM:   4    -0.231958659996E+04    0.64136E-05   -0.41775E-05  2957   0.427E-03
  45 F= -.23409302E+04 E0= -.23409302E+04  d E =-.567732E-03  mag=     2.9997
       N       E                     dE             d eps       ncg     rms          rms(c)
DAV:   1    -0.231958156313E+04    0.50432E-02   -0.30942E-01  4504   0.585E-01    0.180E-01
RMM:   2    -0.231958639865E+04   -0.48355E-02   -0.51378E-02  6277   0.133E-01    0.908E-02
RMM:   3    -0.231958682726E+04   -0.42861E-03   -0.52613E-03  5460   0.491E-02    0.114E-01
RMM:   4    -0.231958677091E+04    0.56352E-04   -0.54536E-04  3177   0.107E-02    0.671E-02
RMM:   5    -0.231958675384E+04    0.17064E-04   -0.11703E-04  3141   0.784E-03    0.532E-02
RMM:   6    -0.231958672564E+04    0.28200E-04   -0.67545E-05  3057   0.677E-03    0.296E-02
RMM:   7    -0.231958671543E+04    0.10215E-04   -0.23661E-05  2909   0.532E-03    0.686E-03
RMM:   8    -0.231958671486E+04    0.57006E-06   -0.55297E-06  2862   0.366E-03
  46 F= -.23409307E+04 E0= -.23409306E+04  d E =-.477422E-03  mag=     2.9997
       N       E                     dE             d eps       ncg     rms          rms(c)
DAV:   1    -0.231958669577E+04    0.19658E-04   -0.30805E-04  5184   0.188E-02    0.744E-03
RMM:   2    -0.231958670199E+04   -0.62236E-05   -0.57880E-05  3081   0.498E-03
  47 F= -.23409307E+04 E0= -.23409306E+04  d E =-.476179E-03  mag=     2.9997
       N       E                     dE             d eps       ncg     rms          rms(c)
DAV:   1    -0.231958408718E+04    0.26086E-02   -0.16454E-01  4512   0.426E-01    0.133E-01
RMM:   2    -0.231958666053E+04   -0.25734E-02   -0.27365E-02  6233   0.980E-02    0.622E-02
RMM:   3    -0.231958685025E+04   -0.18972E-03   -0.28007E-03  4852   0.376E-02    0.506E-02
RMM:   4    -0.231958685706E+04   -0.68055E-05   -0.28978E-04  3025   0.856E-03    0.521E-02
RMM:   5    -0.231958684927E+04    0.77899E-05   -0.64263E-05  2917   0.573E-03
  48 F= -.23409311E+04 E0= -.23409311E+04  d E =-.447362E-03  mag=     2.9997
       N       E                     dE             d eps       ncg     rms          rms(c)
DAV:   1    -0.231958654603E+04    0.31102E-03   -0.11848E-02  4992   0.115E-01    0.407E-02
RMM:   2    -0.231958676126E+04   -0.21523E-03   -0.20711E-03  6067   0.283E-02    0.478E-02
RMM:   3    -0.231958676230E+04   -0.10394E-05   -0.25050E-04  2996   0.111E-02    0.426E-02
RMM:   4    -0.231958675083E+04    0.11473E-04   -0.34686E-05  2930   0.416E-03    0.232E-02
RMM:   5    -0.231958674503E+04    0.58028E-05   -0.94986E-06  2841   0.214E-03
  49 F= -.23409311E+04 E0= -.23409311E+04  d E =-.425376E-03  mag=     2.9997
       N       E                     dE             d eps       ncg     rms          rms(c)
DAV:   1    -0.231958462083E+04    0.21300E-02   -0.13921E-01  4504   0.389E-01    0.116E-01
RMM:   2    -0.231958674379E+04   -0.21230E-02   -0.22382E-02  6180   0.888E-02    0.660E-02
RMM:   3    -0.231958695942E+04   -0.21562E-03   -0.22740E-03  4530   0.328E-02    0.974E-02
RMM:   4    -0.231958688763E+04    0.71787E-04   -0.24811E-04  2997   0.823E-03    0.435E-02
RMM:   5    -0.231958687824E+04    0.93940E-05   -0.54010E-05  2984   0.538E-03
  50 F= -.23409315E+04 E0= -.23409315E+04  d E =-.394692E-03  mag=     2.9997
       N       E                     dE             d eps       ncg     rms          rms(c)
DAV:   1    -0.231958634995E+04    0.53768E-03   -0.25208E-02  4656   0.166E-01    0.527E-02
RMM:   2    -0.231958676384E+04   -0.41388E-03   -0.42299E-03  6334   0.402E-02    0.443E-02
RMM:   3    -0.231958678413E+04   -0.20291E-04   -0.44249E-04  3110   0.141E-02    0.387E-02
RMM:   4    -0.231958677102E+04    0.13109E-04   -0.49128E-05  2937   0.508E-03    0.276E-02
RMM:   5    -0.231958676609E+04    0.49257E-05   -0.13081E-05  2892   0.256E-03
  51 F= -.23409315E+04 E0= -.23409315E+04  d E =-.395618E-03  mag=     2.9997
       N       E                     dE             d eps       ncg     rms          rms(c)
DAV:   1    -0.231958496592E+04    0.18051E-02   -0.13251E-01  4504   0.382E-01    0.118E-01
RMM:   2    -0.231958698417E+04   -0.20183E-02   -0.19965E-02  6171   0.848E-02    0.122E-01
RMM:   3    -0.231958711280E+04   -0.12862E-03   -0.20961E-03  4612   0.323E-02    0.124E-01
RMM:   4    -0.231958695962E+04    0.15318E-03   -0.23619E-04  2998   0.904E-03    0.468E-02
RMM:   5    -0.231958694662E+04    0.13001E-04   -0.57137E-05  2969   0.541E-03    0.351E-02
RMM:   6    -0.231958693063E+04    0.15991E-04   -0.41988E-05  3024   0.533E-03    0.106E-02
RMM:   7    -0.231958693113E+04   -0.49909E-06   -0.10098E-05  2919   0.429E-03
  52 F= -.23409319E+04 E0= -.23409319E+04  d E =-.394530E-03  mag=     2.9997
       N       E                     dE             d eps       ncg     rms          rms(c)
DAV:   1    -0.231958637694E+04    0.55369E-03   -0.31332E-02  4576   0.186E-01    0.576E-02
RMM:   2    -0.231958685306E+04   -0.47612E-03   -0.47458E-03  6327   0.422E-02    0.575E-02
RMM:   3    -0.231958689193E+04   -0.38867E-04   -0.49927E-04  3260   0.158E-02    0.638E-02
RMM:   4    -0.231958685148E+04    0.40446E-04   -0.56423E-05  2930   0.540E-03    0.196E-02
RMM:   5    -0.231958685038E+04    0.11012E-05   -0.14496E-05  2910   0.275E-03
  53 F= -.23409319E+04 E0= -.23409319E+04  d E =-.425790E-03  mag=     2.9998
       N       E                     dE             d eps       ncg     rms          rms(c)
DAV:   1    -0.231958499411E+04    0.18574E-02   -0.13397E-01  4504   0.383E-01    0.122E-01
RMM:   2    -0.231958714546E+04   -0.21514E-02   -0.20589E-02  6277   0.875E-02    0.158E-01
RMM:   3    -0.231958714747E+04   -0.20072E-05   -0.21412E-03  4697   0.316E-02    0.118E-01
RMM:   4    -0.231958701158E+04    0.13589E-03   -0.22961E-04  3009   0.885E-03    0.378E-02
RMM:   5    -0.231958700919E+04    0.23912E-05   -0.65486E-05  3009   0.589E-03
  54 F= -.23409323E+04 E0= -.23409323E+04  d E =-.388191E-03  mag=     2.9998
       N       E                     dE             d eps       ncg     rms          rms(c)
DAV:   1    -0.231958674930E+04    0.26228E-03   -0.11195E-02  5144   0.111E-01    0.372E-02
RMM:   2    -0.231958693193E+04   -0.18263E-03   -0.17567E-03  6106   0.268E-02    0.442E-02
RMM:   3    -0.231958693342E+04   -0.14851E-05   -0.20499E-04  2946   0.104E-02    0.349E-02
RMM:   4    -0.231958692230E+04    0.11115E-04   -0.22374E-05  2921   0.381E-03    0.178E-02
RMM:   5    -0.231958692004E+04    0.22607E-05   -0.78858E-06  2832   0.209E-03
  55 F= -.23409323E+04 E0= -.23409323E+04  d E =-.367023E-03  mag=     2.9998
       N       E                     dE             d eps       ncg     rms          rms(c)
DAV:   1    -0.231958482477E+04    0.20975E-02   -0.13236E-01  4504   0.375E-01    0.118E-01
RMM:   2    -0.231958714417E+04   -0.23194E-02   -0.22485E-02  6389   0.895E-02    0.150E-01
RMM:   3    -0.231958717623E+04   -0.32061E-04   -0.22843E-03  4687   0.311E-02    0.116E-01
RMM:   4    -0.231958705697E+04    0.11926E-03   -0.25321E-04  2995   0.856E-03    0.426E-02
RMM:   5    -0.231958704280E+04    0.14167E-04   -0.58435E-05  2953   0.525E-03    0.313E-02
RMM:   6    -0.231958702774E+04    0.15062E-04   -0.42966E-05  3083   0.543E-03    0.105E-02
RMM:   7    -0.231958702891E+04   -0.11641E-05   -0.97032E-06  2902   0.420E-03
  56 F= -.23409327E+04 E0= -.23409327E+04  d E =-.386439E-03  mag=     2.9998
       N       E                     dE             d eps       ncg     rms          rms(c)
DAV:   1    -0.231958575410E+04    0.12736E-02   -0.66946E-02  4512   0.267E-01    0.845E-02
RMM:   2    -0.231958692978E+04   -0.11757E-02   -0.11395E-02  6494   0.644E-02    0.107E-01
RMM:   3    -0.231958695244E+04   -0.22661E-04   -0.11595E-03  3852   0.222E-02    0.842E-02
RMM:   4    -0.231958688623E+04    0.66208E-04   -0.12313E-04  2957   0.677E-03    0.266E-02
RMM:   5    -0.231958688289E+04    0.33479E-05   -0.29809E-05  2933   0.379E-03
  57 F= -.23409327E+04 E0= -.23409327E+04  d E =-.438660E-03  mag=     2.9998
       N       E                     dE             d eps       ncg     rms          rms(c)
DAV:   1    -0.231958467268E+04    0.22136E-02   -0.13988E-01  4504   0.387E-01    0.123E-01
RMM:   2    -0.231958694583E+04   -0.22732E-02   -0.23419E-02  6453   0.928E-02    0.102E-01
RMM:   3    -0.231958721737E+04   -0.27154E-03   -0.24160E-03  4705   0.324E-02    0.144E-01
RMM:   4    -0.231958701110E+04    0.20627E-03   -0.25273E-04  3020   0.940E-03    0.362E-02
RMM:   5    -0.231958700826E+04    0.28430E-05   -0.78582E-05  3041   0.610E-03
  58 F= -.23409331E+04 E0= -.23409331E+04  d E =-.416288E-03  mag=     2.9998
       N       E                     dE             d eps       ncg     rms          rms(c)
DAV:   1    -0.231958609474E+04    0.91636E-03   -0.45180E-02  4544   0.220E-01    0.719E-02
RMM:   2    -0.231958685646E+04   -0.76172E-03   -0.76768E-03  6491   0.544E-02    0.707E-02
RMM:   3    -0.231958691793E+04   -0.61468E-04   -0.80271E-04  3506   0.188E-02    0.781E-02
RMM:   4    -0.231958685676E+04    0.61168E-04   -0.88579E-05  2939   0.649E-03    0.277E-02
RMM:   5    -0.231958685333E+04    0.34319E-05   -0.26628E-05  2930   0.352E-03
  59 F= -.23409331E+04 E0= -.23409331E+04  d E =-.428042E-03  mag=     2.9998
       N       E                     dE             d eps       ncg     rms          rms(c)
DAV:   1    -0.231958409948E+04    0.27573E-02   -0.16539E-01  4504   0.414E-01    0.129E-01
RMM:   2    -0.231958681242E+04   -0.27129E-02   -0.28529E-02  6394   0.996E-02    0.802E-02
RMM:   3    -0.231958711904E+04   -0.30662E-03   -0.28404E-03  4721   0.353E-02    0.126E-01
RMM:   4    -0.231958697520E+04    0.14384E-03   -0.31609E-04  3038   0.945E-03    0.448E-02
RMM:   5    -0.231958696699E+04    0.82082E-05   -0.65989E-05  3039   0.592E-03
  60 F= -.23409335E+04 E0= -.23409335E+04  d E =-.400297E-03  mag=     2.9998
       N       E                     dE             d eps       ncg     rms          rms(c)
DAV:   1    -0.231958597861E+04    0.99659E-03   -0.47859E-02  4576   0.223E-01    0.717E-02
RMM:   2    -0.231958679365E+04   -0.81504E-03   -0.83692E-03  6481   0.555E-02    0.594E-02
RMM:   3    -0.231958686845E+04   -0.74800E-04   -0.84772E-04  3521   0.189E-02    0.703E-02
RMM:   4    -0.231958681740E+04    0.51049E-04   -0.95216E-05  2951   0.653E-03    0.333E-02
RMM:   5    -0.231958681127E+04    0.61239E-05   -0.25522E-05  2924   0.344E-03
  61 F= -.23409335E+04 E0= -.23409335E+04  d E =-.400344E-03  mag=     2.9998
       N       E                     dE             d eps       ncg     rms          rms(c)
DAV:   1    -0.231958400815E+04    0.28092E-02   -0.16279E-01  4504   0.413E-01    0.129E-01
RMM:   2    -0.231958670396E+04   -0.26958E-02   -0.28531E-02  6360   0.990E-02    0.665E-02
RMM:   3    -0.231958697077E+04   -0.26681E-03   -0.27683E-03  4642   0.351E-02    0.992E-02
RMM:   4    -0.231958689293E+04    0.77840E-04   -0.31373E-04  3051   0.901E-03    0.466E-02
RMM:   5    -0.231958688051E+04    0.12426E-04   -0.58612E-05  3037   0.556E-03    0.356E-02
RMM:   6    -0.231958686967E+04    0.10833E-04   -0.39250E-05  2918   0.514E-03    0.213E-02
RMM:   7    -0.231958686514E+04    0.45385E-05   -0.12336E-05  2908   0.377E-03
  62 F= -.23409339E+04 E0= -.23409339E+04  d E =-.371609E-03  mag=     2.9998
       N       E                     dE             d eps       ncg     rms          rms(c)
DAV:   1    -0.231958595972E+04    0.90996E-03   -0.43210E-02  4576   0.213E-01    0.670E-02
RMM:   2    -0.231958667796E+04   -0.71824E-03   -0.76134E-03  6437   0.527E-02    0.330E-02
RMM:   3    -0.231958674744E+04   -0.69480E-04   -0.74332E-04  3390   0.182E-02    0.487E-02
RMM:   4    -0.231958673073E+04    0.16709E-04   -0.83331E-05  2966   0.538E-03    0.238E-02
RMM:   5    -0.231958672521E+04    0.55246E-05   -0.14153E-05  2904   0.295E-03
  63 F= -.23409339E+04 E0= -.23409339E+04  d E =-.395923E-03  mag=     2.9998
       N       E                     dE             d eps       ncg     rms          rms(c)
DAV:   1    -0.231958434272E+04    0.23880E-02   -0.13088E-01  4512   0.371E-01    0.120E-01
RMM:   2    -0.231958662597E+04   -0.22832E-02   -0.23871E-02  6269   0.909E-02    0.766E-02
RMM:   3    -0.231958687631E+04   -0.25034E-03   -0.23299E-03  4614   0.328E-02    0.113E-01
RMM:   4    -0.231958674475E+04    0.13155E-03   -0.27442E-04  3043   0.917E-03    0.468E-02
RMM:   5    -0.231958673769E+04    0.70625E-05   -0.60479E-05  2982   0.510E-03
  64 F= -.23409343E+04 E0= -.23409343E+04  d E =-.387120E-03  mag=     2.9998
       N       E                     dE             d eps       ncg     rms          rms(c)
DAV:   1    -0.231958631312E+04    0.43164E-03   -0.15488E-02  4784   0.128E-01    0.425E-02
RMM:   2    -0.231958658559E+04   -0.27247E-03   -0.28558E-03  6156   0.322E-02    0.306E-02
RMM:   3    -0.231958661584E+04   -0.30244E-04   -0.29109E-04  3019   0.117E-02    0.417E-02
RMM:   4    -0.231958659813E+04    0.17703E-04   -0.34558E-05  2930   0.436E-03    0.192E-02
RMM:   5    -0.231958659760E+04    0.53349E-06   -0.12037E-05  2855   0.224E-03
  65 F= -.23409343E+04 E0= -.23409343E+04  d E =-.378068E-03  mag=     2.9998
       N       E                     dE             d eps       ncg     rms          rms(c)
DAV:   1    -0.231958495146E+04    0.16467E-02   -0.83071E-02  4512   0.297E-01    0.101E-01
RMM:   2    -0.231958640203E+04   -0.14506E-02   -0.15207E-02  6189   0.726E-02    0.666E-02
RMM:   3    -0.231958659519E+04   -0.19316E-03   -0.15116E-03  4176   0.268E-02    0.114E-01
RMM:   4    -0.231958646612E+04    0.12907E-03   -0.17894E-04  2985   0.798E-03    0.308E-02
RMM:   5    -0.231958646568E+04    0.44485E-06   -0.43608E-05  3005   0.460E-03
  66 F= -.23409346E+04 E0= -.23409345E+04  d E =-.231018E-03  mag=     2.9999
       N       E                     dE             d eps       ncg     rms          rms(c)
DAV:   1    -0.231958631888E+04    0.14725E-03   -0.32253E-03  5384   0.591E-02    0.233E-02
RMM:   2    -0.231958638406E+04   -0.65185E-04   -0.61343E-04  4949   0.154E-02    0.283E-02
RMM:   3    -0.231958638324E+04    0.82381E-06   -0.73512E-05  2910   0.709E-03
  67 F= -.23409345E+04 E0= -.23409345E+04  d E =-.221636E-03  mag=     2.9999
       N       E                     dE             d eps       ncg     rms          rms(c)
DAV:   1    -0.231958497618E+04    0.14079E-02   -0.69556E-02  4512   0.266E-01    0.875E-02
RMM:   2    -0.231958622187E+04   -0.12457E-02   -0.12985E-02  6394   0.657E-02    0.622E-02
RMM:   3    -0.231958632737E+04   -0.10549E-03   -0.12719E-03  3848   0.232E-02    0.689E-02
RMM:   4    -0.231958627799E+04    0.49374E-04   -0.14456E-04  2996   0.727E-03    0.383E-02
RMM:   5    -0.231958627232E+04    0.56719E-05   -0.32317E-05  2928   0.386E-03
  68 F= -.23409347E+04 E0= -.23409347E+04  d E =-.206145E-03  mag=     2.9999
       N       E                     dE             d eps       ncg     rms          rms(c)
DAV:   1    -0.231958612301E+04    0.15499E-03   -0.33974E-03  5144   0.593E-02    0.214E-02
RMM:   2    -0.231958618568E+04   -0.62670E-04   -0.65134E-04  5012   0.154E-02    0.181E-02
RMM:   3    -0.231958619060E+04   -0.49261E-05   -0.70383E-05  2905   0.654E-03
  69 F= -.23409347E+04 E0= -.23409347E+04  d E =-.196558E-03  mag=     2.9999
       N       E                     dE             d eps       ncg     rms          rms(c)
DAV:   1    -0.231958477056E+04    0.14151E-02   -0.81425E-02  4544   0.295E-01    0.961E-02
RMM:   2    -0.231958606971E+04   -0.12992E-02   -0.13669E-02  6342   0.693E-02    0.596E-02
RMM:   3    -0.231958618123E+04   -0.11152E-03   -0.13259E-03  4000   0.248E-02    0.683E-02
RMM:   4    -0.231958612961E+04    0.51624E-04   -0.14982E-04  3004   0.754E-03    0.373E-02
RMM:   5    -0.231958612717E+04    0.24363E-05   -0.37555E-05  2929   0.428E-03
  70 F= -.23409349E+04 E0= -.23409349E+04  d E =-.204281E-03  mag=     2.9999
       N       E                     dE             d eps       ncg     rms          rms(c)
DAV:   1    -0.231958602294E+04    0.10667E-03   -0.22711E-03  5392   0.498E-02    0.189E-02
RMM:   2    -0.231958606226E+04   -0.39320E-04   -0.40145E-04  4631   0.126E-02    0.196E-02
RMM:   3    -0.231958606329E+04   -0.10285E-05   -0.45757E-05  2876   0.573E-03
  71 F= -.23409349E+04 E0= -.23409349E+04  d E =-.186708E-03  mag=     2.9999
       N       E                     dE             d eps       ncg     rms          rms(c)
DAV:   1    -0.231958496133E+04    0.11009E-02   -0.66302E-02  4512   0.267E-01    0.850E-02
RMM:   2    -0.231958601406E+04   -0.10527E-02   -0.10996E-02  6291   0.620E-02    0.569E-02
RMM:   3    -0.231958611817E+04   -0.10411E-03   -0.10975E-03  3864   0.228E-02    0.730E-02
RMM:   4    -0.231958606170E+04    0.56463E-04   -0.12720E-04  2973   0.701E-03    0.378E-02
RMM:   5    -0.231958605450E+04    0.72062E-05   -0.31328E-05  2944   0.377E-03
  72 F= -.23409351E+04 E0= -.23409351E+04  d E =-.180348E-03  mag=     2.9999
       N       E                     dE             d eps       ncg     rms          rms(c)
DAV:   1    -0.231958594446E+04    0.11724E-03   -0.33514E-03  5192   0.603E-02    0.209E-02
RMM:   2    -0.231958599942E+04   -0.54955E-04   -0.57122E-04  4961   0.149E-02    0.194E-02
RMM:   3    -0.231958600247E+04   -0.30501E-05   -0.63530E-05  2897   0.645E-03
  73 F= -.23409351E+04 E0= -.23409351E+04  d E =-.172145E-03  mag=     2.9999
       N       E                     dE             d eps       ncg     rms          rms(c)
DAV:   1    -0.231958492271E+04    0.10767E-02   -0.64138E-02  4512   0.263E-01    0.852E-02
RMM:   2    -0.231958590758E+04   -0.98487E-03   -0.10422E-02  6206   0.610E-02    0.462E-02
RMM:   3    -0.231958598119E+04   -0.73610E-04   -0.10316E-03  3810   0.228E-02    0.458E-02
RMM:   4    -0.231958596379E+04    0.17394E-04   -0.11503E-04  2970   0.653E-03    0.264E-02
RMM:   5    -0.231958595581E+04    0.79825E-05   -0.29479E-05  2937   0.458E-03
  74 F= -.23409353E+04 E0= -.23409353E+04  d E =-.164906E-03  mag=     2.9999
       N       E                     dE             d eps       ncg     rms          rms(c)
DAV:   1    -0.231958590325E+04    0.60547E-04   -0.11416E-03  5320   0.361E-02    0.169E-02
RMM:   2    -0.231958593131E+04   -0.28064E-04   -0.21798E-04  3875   0.950E-03    0.262E-02
RMM:   3    -0.231958592253E+04    0.87839E-05   -0.30967E-05  2775   0.551E-03
  75 F= -.23409353E+04 E0= -.23409353E+04  d E =-.160857E-03  mag=     2.9999
       N       E                     dE             d eps       ncg     rms          rms(c)
DAV:   1    -0.231958469148E+04    0.12398E-02   -0.65873E-02  4512   0.265E-01    0.857E-02
RMM:   2    -0.231958573261E+04   -0.10411E-02   -0.10964E-02  6161   0.624E-02    0.467E-02
RMM:   3    -0.231958581067E+04   -0.78060E-04   -0.11030E-03  3834   0.235E-02    0.449E-02
RMM:   4    -0.231958579624E+04    0.14431E-04   -0.12179E-04  2975   0.646E-03    0.347E-02
RMM:   5    -0.231958579306E+04    0.31833E-05   -0.27655E-05  2909   0.368E-03
  76 F= -.23409354E+04 E0= -.23409354E+04  d E =-.152813E-03  mag=     2.9999
       N       E                     dE             d eps       ncg     rms          rms(c)
DAV:   1    -0.231958569612E+04    0.10012E-03   -0.19667E-03  5264   0.465E-02    0.190E-02
RMM:   2    -0.231958573565E+04   -0.39531E-04   -0.35409E-04  4278   0.117E-02    0.270E-02
RMM:   3    -0.231958573004E+04    0.56049E-05   -0.41339E-05  2857   0.558E-03
  77 F= -.23409354E+04 E0= -.23409354E+04  d E =-.140219E-03  mag=     2.9999
       N       E                     dE             d eps       ncg     rms          rms(c)
DAV:   1    -0.231958444942E+04    0.12862E-02   -0.67775E-02  4512   0.268E-01    0.849E-02
RMM:   2    -0.231958555851E+04   -0.11091E-02   -0.11563E-02  6251   0.646E-02    0.580E-02
RMM:   3    -0.231958566849E+04   -0.10997E-03   -0.11679E-03  3784   0.232E-02    0.804E-02
RMM:   4    -0.231958561590E+04    0.52593E-04   -0.13509E-04  2962   0.678E-03    0.335E-02
RMM:   5    -0.231958560932E+04    0.65758E-05   -0.32287E-05  2946   0.398E-03
  78 F= -.23409356E+04 E0= -.23409356E+04  d E =-.183756E-03  mag=     2.9999
       N       E                     dE             d eps       ncg     rms          rms(c)
DAV:   1    -0.231958543340E+04    0.18250E-03   -0.47921E-03  5048   0.721E-02    0.246E-02
RMM:   2    -0.231958551730E+04   -0.83897E-04   -0.85903E-04  5362   0.182E-02    0.218E-02
RMM:   3    -0.231958552184E+04   -0.45470E-05   -0.90630E-05  2902   0.718E-03
  79 F= -.23409356E+04 E0= -.23409356E+04  d E =-.179406E-03  mag=     2.9999
       N       E                     dE             d eps       ncg     rms          rms(c)
DAV:   1    -0.231958423643E+04    0.12809E-02   -0.68228E-02  4512   0.271E-01    0.884E-02
RMM:   2    -0.231958533944E+04   -0.11030E-02   -0.11581E-02  6154   0.651E-02    0.508E-02
RMM:   3    -0.231958541406E+04   -0.74627E-04   -0.11678E-03  3875   0.244E-02    0.443E-02
RMM:   4    -0.231958539770E+04    0.16366E-04   -0.12505E-04  2968   0.673E-03    0.286E-02
RMM:   5    -0.231958540197E+04   -0.42757E-05   -0.31978E-05  2907   0.410E-03
  80 F= -.23409357E+04 E0= -.23409357E+04  d E =-.158749E-03  mag=     2.9999
       N       E                     dE             d eps       ncg     rms          rms(c)
DAV:   1    -0.231958529047E+04    0.10722E-03   -0.23153E-03  5272   0.507E-02    0.197E-02
RMM:   2    -0.231958533733E+04   -0.46858E-04   -0.41929E-04  4584   0.131E-02    0.272E-02
RMM:   3    -0.231958533321E+04    0.41251E-05   -0.49810E-05  2876   0.610E-03
  81 F= -.23409357E+04 E0= -.23409357E+04  d E =-.142631E-03  mag=     2.9999
       N       E                     dE             d eps       ncg     rms          rms(c)
DAV:   1    -0.231958419702E+04    0.11403E-02   -0.59450E-02  4512   0.249E-01    0.826E-02
RMM:   2    -0.231958527709E+04   -0.10801E-02   -0.10836E-02  6312   0.612E-02    0.913E-02
RMM:   3    -0.231958533866E+04   -0.61571E-04   -0.11144E-03  3679   0.217E-02    0.849E-02
RMM:   4    -0.231958528361E+04    0.55047E-04   -0.13304E-04  2984   0.689E-03    0.328E-02
RMM:   5    -0.231958527447E+04    0.91399E-05   -0.32021E-05  2927   0.419E-03
  82 F= -.23409359E+04 E0= -.23409359E+04  d E =-.170710E-03  mag=     2.9999
       N       E                     dE             d eps       ncg     rms          rms(c)
DAV:   1    -0.231958489125E+04    0.39236E-03   -0.14353E-02  4624   0.123E-01    0.411E-02
RMM:   2    -0.231958514877E+04   -0.25752E-03   -0.26372E-03  6092   0.309E-02    0.396E-02
RMM:   3    -0.231958516231E+04   -0.13539E-04   -0.29157E-04  2970   0.115E-02    0.315E-02
RMM:   4    -0.231958515388E+04    0.84332E-05   -0.28880E-05  2943   0.382E-03
  83 F= -.23409359E+04 E0= -.23409359E+04  d E =-.164902E-03  mag=     2.9999
       N       E                     dE             d eps       ncg     rms          rms(c)
DAV:   1    -0.231958391553E+04    0.12468E-02   -0.66668E-02  4512   0.264E-01    0.920E-02
RMM:   2    -0.231958515977E+04   -0.12442E-02   -0.11871E-02  6266   0.640E-02    0.124E-01
RMM:   3    -0.231958515520E+04    0.45711E-05   -0.12130E-03  3901   0.229E-02    0.886E-02
RMM:   4    -0.231958507919E+04    0.76005E-04   -0.13251E-04  2967   0.719E-03    0.258E-02
RMM:   5    -0.231958508009E+04   -0.89403E-06   -0.32959E-05  2940   0.437E-03
  84 F= -.23409361E+04 E0= -.23409360E+04  d E =-.165794E-03  mag=     2.9999
       N       E                     dE             d eps       ncg     rms          rms(c)
DAV:   1    -0.231958499624E+04    0.82956E-04   -0.16021E-03  5280   0.417E-02    0.165E-02
RMM:   2    -0.231958502810E+04   -0.31869E-04   -0.30695E-04  4245   0.109E-02    0.191E-02
RMM:   3    -0.231958502766E+04    0.44212E-06   -0.37469E-05  2841   0.564E-03
  85 F= -.23409360E+04 E0= -.23409360E+04  d E =-.151929E-03  mag=     2.9999
       N       E                     dE             d eps       ncg     rms          rms(c)
DAV:   1    -0.231958419918E+04    0.82893E-03   -0.44099E-02  4512   0.212E-01    0.722E-02
RMM:   2    -0.231958491414E+04   -0.71496E-03   -0.76017E-03  6247   0.518E-02    0.373E-02
RMM:   3    -0.231958497054E+04   -0.56402E-04   -0.75546E-04  3543   0.198E-02    0.385E-02
RMM:   4    -0.231958495950E+04    0.11042E-04   -0.84451E-05  2975   0.564E-03    0.225E-02
RMM:   5    -0.231958495329E+04    0.62091E-05   -0.20676E-05  2908   0.390E-03
  86 F= -.23409362E+04 E0= -.23409362E+04  d E =-.131745E-03  mag=     2.9999
       N       E                     dE             d eps       ncg     rms          rms(c)
DAV:   1    -0.231958485659E+04    0.10291E-03   -0.25944E-03  5152   0.519E-02    0.270E-02
RMM:   2    -0.231958495804E+04   -0.10144E-03   -0.50798E-04  4843   0.141E-02    0.794E-02
RMM:   3    -0.231958490042E+04    0.57613E-04   -0.66557E-05  2912   0.609E-03    0.116E-02
RMM:   4    -0.231958489971E+04    0.71607E-06   -0.93673E-06  2895   0.232E-03
  87 F= -.23409362E+04 E0= -.23409362E+04  d E =-.129017E-03  mag=     2.9999
       N       E                     dE             d eps       ncg     rms          rms(c)
DAV:   1    -0.231958398497E+04    0.91545E-03   -0.48400E-02  4512   0.223E-01    0.788E-02
RMM:   2    -0.231958473749E+04   -0.75252E-03   -0.80349E-03  6174   0.531E-02    0.371E-02
RMM:   3    -0.231958479567E+04   -0.58179E-04   -0.78808E-04  3636   0.205E-02    0.390E-02
RMM:   4    -0.231958478776E+04    0.79061E-05   -0.90077E-05  2982   0.565E-03
  88 F= -.23409363E+04 E0= -.23409363E+04  d E =-.135170E-03  mag=     2.9999
       N       E                     dE             d eps       ncg     rms          rms(c)
DAV:   1    -0.231958477130E+04    0.24365E-04   -0.12168E-04  5136   0.114E-02    0.293E-02
RMM:   2    -0.231958485199E+04   -0.80685E-04   -0.12918E-04  2997   0.553E-03    0.978E-02
RMM:   3    -0.231958476683E+04    0.85155E-04   -0.46406E-05  2822   0.433E-03    0.135E-02
RMM:   4    -0.231958476466E+04    0.21707E-05   -0.56814E-06  2150   0.142E-03
  89 F= -.23409363E+04 E0= -.23409363E+04  d E =-.122235E-03  mag=     2.9999
       N       E                     dE             d eps       ncg     rms          rms(c)
DAV:   1    -0.231958422472E+04    0.54211E-03   -0.29497E-02  4512   0.174E-01    0.624E-02
RMM:   2    -0.231958470465E+04   -0.47993E-03   -0.51352E-03  6148   0.423E-02    0.297E-02
RMM:   3    -0.231958473991E+04   -0.35255E-04   -0.49885E-04  3257   0.162E-02    0.302E-02
RMM:   4    -0.231958473389E+04    0.60202E-05   -0.57910E-05  2966   0.468E-03
  90 F= -.23409364E+04 E0= -.23409364E+04  d E =-.120341E-03  mag=     2.9999
       N       E                     dE             d eps       ncg     rms          rms(c)
DAV:   1    -0.231958469460E+04    0.45304E-04   -0.71573E-04  5240   0.276E-02    0.231E-02
RMM:   2    -0.231958476846E+04   -0.73861E-04   -0.19747E-04  3482   0.773E-03    0.821E-02
RMM:   3    -0.231958470426E+04    0.64201E-04   -0.43557E-05  2833   0.486E-03    0.749E-03
RMM:   4    -0.231958470308E+04    0.11815E-05   -0.54932E-06  2487   0.156E-03
  91 F= -.23409364E+04 E0= -.23409364E+04  d E =-.113716E-03  mag=     2.9999
       N       E                     dE             d eps       ncg     rms          rms(c)
DAV:   1    -0.231958414621E+04    0.55806E-03   -0.28731E-02  4512   0.173E-01    0.627E-02
RMM:   2    -0.231958464336E+04   -0.49715E-03   -0.52550E-03  6154   0.430E-02    0.395E-02
RMM:   3    -0.231958468582E+04   -0.42464E-04   -0.51914E-04  3263   0.163E-02    0.509E-02
RMM:   4    -0.231958466433E+04    0.21492E-04   -0.62643E-05  2939   0.518E-03    0.218E-02
RMM:   5    -0.231958466544E+04   -0.11128E-05   -0.16252E-05  2898   0.280E-03
  92 F= -.23409365E+04 E0= -.23409365E+04  d E =-.889582E-04  mag=     2.9999
       N       E                     dE             d eps       ncg     rms          rms(c)
DAV:   1    -0.231958466045E+04    0.38815E-05   -0.37769E-05  4240   0.774E-03    0.871E-03
RMM:   2    -0.231958466623E+04   -0.57868E-05   -0.14893E-05  2697   0.378E-03
  93 F= -.23409365E+04 E0= -.23409365E+04  d E =-.873161E-04  mag=     2.9999
       N       E                     dE             d eps       ncg     rms          rms(c)
DAV:   1    -0.231958409888E+04    0.56157E-03   -0.28268E-02  4512   0.174E-01    0.614E-02
RMM:   2    -0.231958458750E+04   -0.48862E-03   -0.51892E-03  6229   0.440E-02    0.308E-02
RMM:   3    -0.231958462109E+04   -0.33587E-04   -0.49496E-04  3261   0.162E-02    0.303E-02
RMM:   4    -0.231958461543E+04    0.56555E-05   -0.56861E-05  2942   0.484E-03
  94 F= -.23409366E+04 E0= -.23409366E+04  d E =-.898771E-04  mag=     2.9999
       N       E                     dE             d eps       ncg     rms          rms(c)
DAV:   1    -0.231958457487E+04    0.46213E-04   -0.80560E-04  5200   0.297E-02    0.222E-02
RMM:   2    -0.231958463054E+04   -0.55663E-04   -0.19734E-04  3583   0.822E-03    0.659E-02
RMM:   3    -0.231958458680E+04    0.43735E-04   -0.35952E-05  2834   0.485E-03    0.122E-02
RMM:   4    -0.231958458575E+04    0.10475E-05   -0.70763E-06  2540   0.176E-03
  95 F= -.23409366E+04 E0= -.23409366E+04  d E =-.841211E-04  mag=     2.9999
       N       E                     dE             d eps       ncg     rms          rms(c)
DAV:   1    -0.231958401420E+04    0.57260E-03   -0.26485E-02  4512   0.166E-01    0.567E-02
RMM:   2    -0.231958446418E+04   -0.44998E-03   -0.47999E-03  6160   0.420E-02    0.293E-02
RMM:   3    -0.231958449439E+04   -0.30212E-04   -0.45446E-04  3174   0.155E-02    0.291E-02
RMM:   4    -0.231958448960E+04    0.47896E-05   -0.51547E-05  2941   0.463E-03
  96 F= -.23409366E+04 E0= -.23409366E+04  d E =-.727007E-04  mag=     2.9999
       N       E                     dE             d eps       ncg     rms          rms(c)
DAV:   1    -0.231958449255E+04    0.18458E-05   -0.46140E-05  4160   0.734E-03    0.225E-02
RMM:   2    -0.231958455326E+04   -0.60716E-04   -0.81086E-05  2944   0.559E-03    0.789E-02
RMM:   3    -0.231958448873E+04    0.64529E-04   -0.28141E-05  2526   0.382E-03    0.106E-02
RMM:   4    -0.231958448709E+04    0.16423E-05   -0.45911E-06  1985   0.143E-03
  97 F= -.23409366E+04 E0= -.23409366E+04  d E =-.670511E-04  mag=     2.9999
       N       E                     dE             d eps       ncg     rms          rms(c)
DAV:   1    -0.231958398738E+04    0.50136E-03   -0.25499E-02  4512   0.164E-01    0.563E-02
RMM:   2    -0.231958438431E+04   -0.39693E-03   -0.41942E-03  6137   0.405E-02    0.326E-02
RMM:   3    -0.231958443242E+04   -0.48117E-04   -0.41069E-04  3202   0.146E-02    0.573E-02
RMM:   4    -0.231958440230E+04    0.30129E-04   -0.48819E-05  2924   0.454E-03    0.176E-02
RMM:   5    -0.231958440135E+04    0.94323E-06   -0.13299E-05  2887   0.260E-03
  98 F= -.23409367E+04 E0= -.23409367E+04  d E =-.865692E-04  mag=     2.9999
       N       E                     dE             d eps       ncg     rms          rms(c)
DAV:   1    -0.231958435299E+04    0.49307E-04   -0.75812E-04  5072   0.288E-02    0.115E-02
RMM:   2    -0.231958436766E+04   -0.14668E-04   -0.13651E-04  3570   0.764E-03    0.135E-02
RMM:   3    -0.231958436687E+04    0.78653E-06   -0.16210E-05  2607   0.423E-03
  99 F= -.23409367E+04 E0= -.23409367E+04  d E =-.827091E-04  mag=     2.9999
       N       E                     dE             d eps       ncg     rms          rms(c)
DAV:   1    -0.231958394460E+04    0.42306E-03   -0.19888E-02  4512   0.139E-01    0.476E-02
RMM:   2    -0.231958427529E+04   -0.33069E-03   -0.35039E-03  6188   0.355E-02    0.258E-02
RMM:   3    -0.231958429807E+04   -0.22787E-04   -0.34436E-04  3050   0.129E-02    0.223E-02
RMM:   4    -0.231958429391E+04    0.41618E-05   -0.37762E-05  2949   0.408E-03
 100 F= -.23409368E+04 E0= -.23409368E+04  d E =-.810671E-04  mag=     2.9999
       N       E                     dE             d eps       ncg     rms          rms(c)
DAV:   1    -0.231958423535E+04    0.62721E-04   -0.10323E-03  5096   0.320E-02    0.159E-02
RMM:   2    -0.231958426281E+04   -0.27456E-04   -0.19758E-04  3705   0.852E-03    0.289E-02
RMM:   3    -0.231958425377E+04    0.90380E-05   -0.27780E-05  2761   0.489E-03
 101 F= -.23409368E+04 E0= -.23409368E+04  d E =-.768311E-04  mag=     2.9999
       N       E                     dE             d eps       ncg     rms          rms(c)
DAV:   1    -0.231958386881E+04    0.39400E-03   -0.20392E-02  4512   0.144E-01    0.498E-02
RMM:   2    -0.231958418218E+04   -0.31337E-03   -0.33157E-03  6126   0.350E-02    0.258E-02
RMM:   3    -0.231958420775E+04   -0.25575E-04   -0.33232E-04  3066   0.133E-02    0.307E-02
RMM:   4    -0.231958420095E+04    0.68080E-05   -0.38192E-05  2950   0.391E-03
 102 F= -.23409369E+04 E0= -.23409369E+04  d E =-.850764E-04  mag=     2.9999
       N       E                     dE             d eps       ncg     rms          rms(c)
DAV:   1    -0.231958394740E+04    0.26036E-03   -0.10228E-02  4512   0.102E-01    0.391E-02
RMM:   2    -0.231958414513E+04   -0.19773E-03   -0.16891E-03  5967   0.251E-02    0.650E-02
RMM:   3    -0.231958412070E+04    0.24434E-04   -0.19524E-04  2975   0.102E-02    0.332E-02
RMM:   4    -0.231958411161E+04    0.90888E-05   -0.22599E-05  2931   0.331E-03
 103 F= -.23409369E+04 E0= -.23409369E+04  d E =-.941843E-04  mag=     2.9999
       N       E                     dE             d eps       ncg     rms          rms(c)
DAV:   1    -0.231958370358E+04    0.41712E-03   -0.22900E-02  4512   0.151E-01    0.522E-02
RMM:   2    -0.231958406524E+04   -0.36166E-03   -0.37990E-03  6157   0.371E-02    0.322E-02
RMM:   3    -0.231958409399E+04   -0.28756E-04   -0.37442E-04  3098   0.136E-02    0.366E-02
RMM:   4    -0.231958408068E+04    0.13316E-04   -0.44478E-05  2940   0.450E-03    0.158E-02
RMM:   5    -0.231958408075E+04   -0.72134E-07   -0.13206E-05  2937   0.274E-03
 104 F= -.23409370E+04 E0= -.23409370E+04  d E =-.948467E-04  mag=     2.9999
       N       E                     dE             d eps       ncg     rms          rms(c)
DAV:   1    -0.231958401934E+04    0.61337E-04   -0.15589E-03  5120   0.397E-02    0.180E-02
RMM:   2    -0.231958406454E+04   -0.45196E-04   -0.28195E-04  4016   0.105E-02    0.447E-02
RMM:   3    -0.231958404561E+04    0.18923E-04   -0.34327E-05  2837   0.514E-03    0.963E-03
RMM:   4    -0.231958404488E+04    0.72930E-06   -0.46606E-06  2687   0.178E-03
 105 F= -.23409370E+04 E0= -.23409370E+04  d E =-.921458E-04  mag=     2.9999
       N       E                     dE             d eps       ncg     rms          rms(c)
DAV:   1    -0.231958356208E+04    0.48353E-03   -0.25185E-02  4512   0.157E-01    0.556E-02
RMM:   2    -0.231958397704E+04   -0.41496E-03   -0.43859E-03  6191   0.393E-02    0.294E-02
RMM:   3    -0.231958402621E+04   -0.49171E-04   -0.45921E-04  3102   0.149E-02    0.510E-02
RMM:   4    -0.231958400321E+04    0.23003E-04   -0.51735E-05  2938   0.475E-03    0.189E-02
RMM:   5    -0.231958400214E+04    0.10728E-05   -0.14482E-05  2884   0.244E-03
 106 F= -.23409371E+04 E0= -.23409371E+04  d E =-.942283E-04  mag=     2.9999
       N       E                     dE             d eps       ncg     rms          rms(c)
DAV:   1    -0.231958391958E+04    0.83626E-04   -0.21779E-03  4976   0.463E-02    0.176E-02
RMM:   2    -0.231958395826E+04   -0.38675E-04   -0.39405E-04  4443   0.124E-02    0.163E-02
RMM:   3    -0.231958396050E+04   -0.22372E-05   -0.46902E-05  2864   0.571E-03
 107 F= -.23409371E+04 E0= -.23409371E+04  d E =-.936070E-04  mag=     2.9999
       N       E                     dE             d eps       ncg     rms          rms(c)
DAV:   1    -0.231958344370E+04    0.51456E-03   -0.23269E-02  4512   0.148E-01    0.540E-02
RMM:   2    -0.231958386247E+04   -0.41877E-03   -0.44262E-03  6200   0.389E-02    0.278E-02
RMM:   3    -0.231958390513E+04   -0.42657E-04   -0.44633E-04  3050   0.145E-02    0.437E-02
RMM:   4    -0.231958389136E+04    0.13769E-04   -0.53355E-05  2946   0.448E-03    0.195E-02
RMM:   5    -0.231958388949E+04    0.18642E-05   -0.11592E-05  2901   0.231E-03
 108 F= -.23409372E+04 E0= -.23409372E+04  d E =-.866220E-04  mag=     2.9999
       N       E                     dE             d eps       ncg     rms          rms(c)
DAV:   1    -0.231958378133E+04    0.11003E-03   -0.26740E-03  4984   0.506E-02    0.196E-02
RMM:   2    -0.231958383234E+04   -0.51010E-04   -0.52369E-04  4656   0.138E-02    0.163E-02
RMM:   3    -0.231958383622E+04   -0.38811E-05   -0.62100E-05  2895   0.627E-03
 109 F= -.23409372E+04 E0= -.23409372E+04  d E =-.876253E-04  mag=     2.9999
       N       E                     dE             d eps       ncg     rms          rms(c)
DAV:   1    -0.231958327277E+04    0.55958E-03   -0.24249E-02  4512   0.152E-01    0.560E-02
RMM:   2    -0.231958372284E+04   -0.45008E-03   -0.47159E-03  6222   0.404E-02    0.320E-02
RMM:   3    -0.231958375312E+04   -0.30280E-04   -0.46704E-04  3080   0.147E-02    0.281E-02
[...]
       N       E                     dE             d eps       ncg     rms          rms(c)
DAV:   1    -0.231958149623E+04    0.44080E-05   -0.21659E-05  4176   0.516E-03    0.558E-03
RMM:   2    -0.231958149713E+04   -0.89832E-06   -0.61771E-06  2400   0.259E-03
 161 F= -.23409382E+04 E0= -.23409382E+04  d E =-.151217E-04  mag=     2.9999
       N       E                     dE             d eps       ncg     rms          rms(c)
DAV:   1    -0.231958146550E+04    0.30726E-04   -0.90479E-04  4272   0.299E-02    0.109E-02
RMM:   2    -0.231958148098E+04   -0.15475E-04   -0.16110E-04  3510   0.780E-03    0.827E-03
RMM:   3    -0.231958148333E+04   -0.23533E-05   -0.21103E-05  2327   0.466E-03
 162 F= -.23409382E+04 E0= -.23409382E+04  d E =-.116562E-04  mag=     2.9999
       N       E                     dE             d eps       ncg     rms          rms(c)
DAV:   1    -0.231958145194E+04    0.29035E-04   -0.61201E-04  4256   0.246E-02    0.101E-02
RMM:   2    -0.231958146344E+04   -0.11497E-04   -0.11618E-04  3359   0.674E-03    0.981E-03
RMM:   3    -0.231958146391E+04   -0.46796E-06   -0.14515E-05  2443   0.410E-03
 163 F= -.23409382E+04 E0= -.23409382E+04  d E =-.132898E-04  mag=     2.9999
       N       E                     dE             d eps       ncg     rms          rms(c)
DAV:   1    -0.231958144375E+04    0.19692E-04   -0.45127E-04  4276   0.213E-02    0.939E-03
RMM:   2    -0.231958145446E+04   -0.10710E-04   -0.85910E-05  3205   0.594E-03    0.169E-02
RMM:   3    -0.231958145224E+04    0.22155E-05   -0.11744E-05  2367   0.382E-03
 164 F= -.23409382E+04 E0= -.23409382E+04  d E =-.113222E-04  mag=     2.9999
       N       E                     dE             d eps       ncg     rms          rms(c)
DAV:   1    -0.231958142696E+04    0.27495E-04   -0.40603E-04  4320   0.202E-02    0.938E-03
RMM:   2    -0.231958143592E+04   -0.89568E-05   -0.77483E-05  3139   0.563E-03
 165 F= -.23409383E+04 E0= -.23409382E+04  d E =-.168251E-04  mag=     2.9999
       N       E                     dE             d eps       ncg     rms          rms(c)
DAV:   1    -0.231958141363E+04    0.13337E-04   -0.45350E-04  4304   0.228E-02    0.112E-02
RMM:   2    -0.231958142769E+04   -0.14069E-04   -0.84312E-05  3228   0.663E-03    0.274E-02
RMM:   3    -0.231958142088E+04    0.68125E-05   -0.11551E-05  2404   0.404E-03
 166 F= -.23409383E+04 E0= -.23409383E+04  d E =-.683619E-05  mag=     2.9999
       N       E                     dE             d eps       ncg     rms          rms(c)
DAV:   1    -0.231958138310E+04    0.44590E-04   -0.78479E-04  4416   0.296E-02    0.118E-02
RMM:   2    -0.231958139394E+04   -0.10831E-04   -0.11671E-04  3455   0.739E-03    0.744E-03
RMM:   3    -0.231958139494E+04   -0.10004E-05   -0.13788E-05  2662   0.435E-03
 167 F= -.23409383E+04 E0= -.23409383E+04  d E =-.102401E-04  mag=     2.9999
       N       E                     dE             d eps       ncg     rms          rms(c)
DAV:   1    -0.231958137345E+04    0.20485E-04   -0.39836E-04  4628   0.203E-02    0.881E-03
RMM:   2    -0.231958138326E+04   -0.98118E-05   -0.75812E-05  3190   0.573E-03
 168 F= -.23409383E+04 E0= -.23409383E+04  d E =-.864956E-05  mag=     2.9999
       N       E                     dE             d eps       ncg     rms          rms(c)
DAV:   1    -0.231958135634E+04    0.17108E-04   -0.38452E-04  4344   0.202E-02    0.936E-03
RMM:   2    -0.231958136680E+04   -0.10462E-04   -0.81386E-05  3268   0.619E-03    0.187E-02
RMM:   3    -0.231958136401E+04    0.27983E-05   -0.96043E-06  2336   0.361E-03
 169 F= -.23409383E+04 E0= -.23409383E+04  d E =-.888918E-05  mag=     2.9999
       N       E                     dE             d eps       ncg     rms          rms(c)
DAV:   1    -0.231958134498E+04    0.21828E-04   -0.48903E-04  4188   0.225E-02    0.812E-03
RMM:   2    -0.231958135355E+04   -0.85718E-05   -0.90296E-05  3166   0.620E-03
 170 F= -.23409383E+04 E0= -.23409383E+04  d E =-.971840E-05  mag=     2.9999
       N       E                     dE             d eps       ncg     rms          rms(c)
DAV:   1    -0.231958133652E+04    0.84550E-05   -0.26337E-04  4576   0.168E-02    0.793E-03
RMM:   2    -0.231958134428E+04   -0.77609E-05   -0.59579E-05  2920   0.526E-03
 171 F= -.23409383E+04 E0= -.23409383E+04  d E =-.149703E-04  mag=     2.9999
       N       E                     dE             d eps       ncg     rms          rms(c)
DAV:   1    -0.231958129162E+04    0.44900E-04   -0.10276E-03  4432   0.330E-02    0.135E-02
RMM:   2    -0.231958131255E+04   -0.20929E-04   -0.20012E-04  3802   0.973E-03    0.170E-02
RMM:   3    -0.231958131292E+04   -0.36546E-06   -0.24438E-05  2569   0.502E-03
 172 F= -.23409383E+04 E0= -.23409383E+04  d E =-.126436E-04  mag=     2.9999
       N       E                     dE             d eps       ncg     rms          rms(c)
DAV:   1    -0.231958132293E+04   -0.10380E-04   -0.23799E-04  4232   0.157E-02    0.614E-03
RMM:   2    -0.231958132635E+04   -0.34164E-05   -0.39105E-05  2640   0.416E-03
 173 F= -.23409383E+04 E0= -.23409383E+04  d E =-.123270E-04  mag=     2.9999
       N       E                     dE             d eps       ncg     rms          rms(c)
DAV:   1    -0.231958130506E+04    0.17869E-04   -0.43040E-04  4160   0.209E-02    0.785E-03
RMM:   2    -0.231958131384E+04   -0.87780E-05   -0.78003E-05  3025   0.568E-03
 174 F= -.23409383E+04 E0= -.23409383E+04  d E =-.886035E-05  mag=     2.9999
       N       E                     dE             d eps       ncg     rms          rms(c)
DAV:   1    -0.231958128357E+04    0.21489E-04   -0.54402E-04  4280   0.236E-02    0.111E-02
RMM:   2    -0.231958130114E+04   -0.17567E-04   -0.11797E-04  3400   0.706E-03    0.271E-02
RMM:   3    -0.231958129444E+04    0.66961E-05   -0.15041E-05  2452   0.414E-03
 175 F= -.23409383E+04 E0= -.23409383E+04  d E =-.128999E-04  mag=     2.9999
       N       E                     dE             d eps       ncg     rms          rms(c)
DAV:   1    -0.231958120881E+04    0.92325E-04   -0.20882E-03  4464   0.456E-02    0.173E-02
RMM:   2    -0.231958124702E+04   -0.38206E-04   -0.39872E-04  4398   0.120E-02    0.116E-02
RMM:   3    -0.231958124967E+04   -0.26454E-05   -0.41487E-05  2866   0.562E-03
 176 F= -.23409383E+04 E0= -.23409383E+04  d E =-.149873E-04  mag=     2.9999
       N       E                     dE             d eps       ncg     rms          rms(c)
DAV:   1    -0.231958121052E+04    0.36502E-04   -0.73758E-04  4488   0.255E-02    0.103E-02
RMM:   2    -0.231958122846E+04   -0.17941E-04   -0.16498E-04  3523   0.749E-03    0.155E-02
RMM:   3    -0.231958122783E+04    0.63355E-06   -0.20453E-05  2495   0.440E-03
 177 F= -.23409383E+04 E0= -.23409383E+04  d E =-.969684E-05  mag=     2.9999
       N       E                     dE             d eps       ncg     rms          rms(c)
DAV:   1    -0.231958109955E+04    0.12891E-03   -0.34291E-03  4432   0.546E-02    0.201E-02
RMM:   2    -0.231958116927E+04   -0.69723E-04   -0.71639E-04  4808   0.150E-02    0.151E-02
RMM:   3    -0.231958117377E+04   -0.45030E-05   -0.75197E-05  2843   0.638E-03
 178 F= -.23409383E+04 E0= -.23409383E+04  d E =-.236961E-04  mag=     2.9999
       N       E                     dE             d eps       ncg     rms          rms(c)
DAV:   1    -0.231958073954E+04    0.42973E-03   -0.13727E-02  4504   0.109E-01    0.401E-02
RMM:   2    -0.231958102148E+04   -0.28194E-03   -0.28743E-03  6048   0.299E-02    0.353E-02
RMM:   3    -0.231958104896E+04   -0.27474E-04   -0.30310E-04  2989   0.110E-02    0.463E-02
RMM:   4    -0.231958103322E+04    0.15739E-04   -0.37557E-05  2938   0.381E-03    0.162E-02
RMM:   5    -0.231958103135E+04    0.18726E-05   -0.77066E-06  2743   0.182E-03
 179 F= -.23409383E+04 E0= -.23409383E+04  d E =-.174558E-04  mag=     2.9999
       N       E                     dE             d eps       ncg     rms          rms(c)
DAV:   1    -0.231958103376E+04   -0.54271E-06   -0.35285E-03  4424   0.552E-02    0.210E-02
RMM:   2    -0.231958110378E+04   -0.70019E-04   -0.71090E-04  4863   0.150E-02    0.180E-02
RMM:   3    -0.231958110854E+04   -0.47632E-05   -0.81052E-05  2662   0.645E-03
 180 F= -.23409383E+04 E0= -.23409383E+04  d E =-.265964E-04  mag=     2.9999
       N       E                     dE             d eps       ncg     rms          rms(c)
DAV:   1    -0.231958106922E+04    0.34562E-04   -0.88309E-04  4176   0.272E-02    0.134E-02
RMM:   2    -0.231958109326E+04   -0.24046E-04   -0.17622E-04  3601   0.733E-03    0.304E-02
RMM:   3    -0.231958108603E+04    0.72310E-05   -0.22430E-05  2415   0.422E-03
 181 F= -.23409383E+04 E0= -.23409383E+04  d E =-.114640E-04  mag=     2.9999
       N       E                     dE             d eps       ncg     rms          rms(c)
DAV:   1    -0.231958088443E+04    0.20884E-03   -0.63198E-03  4504   0.726E-02    0.272E-02
RMM:   2    -0.231958101614E+04   -0.13172E-03   -0.13488E-03  5376   0.196E-02    0.217E-02
RMM:   3    -0.231958102707E+04   -0.10928E-04   -0.13641E-04  2921   0.760E-03    0.232E-02
RMM:   4    -0.231958102151E+04    0.55580E-05   -0.16456E-05  2814   0.281E-03
 182 F= -.23409384E+04 E0= -.23409384E+04  d E =-.382973E-04  mag=     2.9999
       N       E                     dE             d eps       ncg     rms          rms(c)
DAV:   1    -0.231958030273E+04    0.72434E-03   -0.25172E-02  4496   0.145E-01    0.534E-02
RMM:   2    -0.231958081650E+04   -0.51376E-03   -0.52929E-03  6267   0.388E-02    0.417E-02
RMM:   3    -0.231958087010E+04   -0.53609E-04   -0.54027E-04  3062   0.141E-02    0.568E-02
RMM:   4    -0.231958084286E+04    0.27247E-04   -0.62678E-05  2941   0.452E-03    0.200E-02
RMM:   5    -0.231958084068E+04    0.21745E-05   -0.12642E-05  2860   0.229E-03
 183 F= -.23409384E+04 E0= -.23409384E+04  d E =-.403681E-04  mag=     2.9999
       N       E                     dE             d eps       ncg     rms          rms(c)
DAV:   1    -0.231958073489E+04    0.10796E-03   -0.26177E-03  4624   0.457E-02    0.175E-02
RMM:   2    -0.231958079321E+04   -0.58317E-04   -0.57964E-04  4455   0.128E-02    0.176E-02
RMM:   3    -0.231958079546E+04   -0.22444E-05   -0.58767E-05  2860   0.542E-03
 184 F= -.23409384E+04 E0= -.23409384E+04  d E =-.170932E-04  mag=     2.9999
       N       E                     dE             d eps       ncg     rms          rms(c)
DAV:   1    -0.231958011196E+04    0.68125E-03   -0.24238E-02  4496   0.138E-01    0.507E-02
RMM:   2    -0.231958061743E+04   -0.50547E-03   -0.52221E-03  6148   0.377E-02    0.353E-02
RMM:   3    -0.231958066145E+04   -0.44023E-04   -0.53780E-04  3062   0.138E-02    0.433E-02
RMM:   4    -0.231958065081E+04    0.10643E-04   -0.62583E-05  2952   0.439E-03    0.226E-02
RMM:   5    -0.231958064782E+04    0.29927E-05   -0.10328E-05  2746   0.186E-03
 185 F= -.23409384E+04 E0= -.23409384E+04  d E =-.566108E-04  mag=     2.9999
       N       E                     dE             d eps       ncg     rms          rms(c)
DAV:   1    -0.231957817870E+04    0.24721E-02   -0.96499E-02  4496   0.275E-01    0.998E-02
RMM:   2    -0.231958017178E+04   -0.19931E-02   -0.20598E-02  6456   0.741E-02    0.691E-02
RMM:   3    -0.231958037282E+04   -0.20103E-03   -0.20332E-03  3741   0.253E-02    0.915E-02
RMM:   4    -0.231958029000E+04    0.82815E-04   -0.23198E-04  3011   0.778E-03    0.407E-02
RMM:   5    -0.231958028224E+04    0.77570E-05   -0.39490E-05  2902   0.349E-03
 186 F= -.23409384E+04 E0= -.23409384E+04  d E =-.660246E-04  mag=     2.9999
       N       E                     dE             d eps       ncg     rms          rms(c)
DAV:   1    -0.231958006301E+04    0.22699E-03   -0.67286E-03  4640   0.721E-02    0.279E-02
RMM:   2    -0.231958020659E+04   -0.14358E-03   -0.14501E-03  5186   0.199E-02    0.257E-02
RMM:   3    -0.231958021516E+04   -0.85702E-05   -0.14765E-04  2933   0.770E-03    0.209E-02
RMM:   4    -0.231958021172E+04    0.34397E-05   -0.16841E-05  2902   0.286E-03
 187 F= -.23409385E+04 E0= -.23409385E+04  d E =-.319873E-04  mag=     2.9999
       N       E                     dE             d eps       ncg     rms          rms(c)
DAV:   1    -0.231957863614E+04    0.15790E-02   -0.61872E-02  4496   0.217E-01    0.808E-02
RMM:   2    -0.231957994374E+04   -0.13076E-02   -0.13306E-02  6451   0.590E-02    0.747E-02
RMM:   3    -0.231958006914E+04   -0.12541E-03   -0.13641E-03  3359   0.203E-02    0.893E-02
RMM:   4    -0.231958000092E+04    0.68218E-04   -0.15191E-04  2968   0.650E-03    0.282E-02
RMM:   5    -0.231957999728E+04    0.36413E-05   -0.27128E-05  2882   0.315E-03
 188 F= -.23409386E+04 E0= -.23409386E+04  d E =-.125475E-03  mag=     2.9999
       N       E                     dE             d eps       ncg     rms          rms(c)
DAV:   1    -0.231957395068E+04    0.60502E-02   -0.24665E-01  4496   0.433E-01    0.159E-01
RMM:   2    -0.231957904303E+04   -0.50924E-02   -0.52991E-02  6542   0.118E-01    0.999E-02
RMM:   3    -0.231957955187E+04   -0.50884E-03   -0.52835E-03  4758   0.400E-02    0.130E-01
RMM:   4    -0.231957940512E+04    0.14675E-03   -0.58691E-04  3093   0.106E-02    0.644E-02
RMM:   5    -0.231957938509E+04    0.20031E-04   -0.88873E-05  3021   0.534E-03    0.475E-02
RMM:   6    -0.231957936074E+04    0.24347E-04   -0.57528E-05  2945   0.503E-03    0.248E-02
RMM:   7    -0.231957936132E+04   -0.58593E-06   -0.30116E-05  2918   0.435E-03
 189 F= -.23409385E+04 E0= -.23409385E+04  d E =-.107092E-03  mag=     2.9999
       N       E                     dE             d eps       ncg     rms          rms(c)
DAV:   1    -0.231957886547E+04    0.49527E-03   -0.16411E-02  4616   0.110E-01    0.420E-02
RMM:   2    -0.231957921262E+04   -0.34716E-03   -0.36401E-03  5689   0.312E-02    0.231E-02
RMM:   3    -0.231957924381E+04   -0.31191E-04   -0.35635E-04  3003   0.110E-02    0.248E-02
RMM:   4    -0.231957923899E+04    0.48213E-05   -0.41151E-05  2953   0.374E-03
 190 F= -.23409386E+04 E0= -.23409386E+04  d E =-.376401E-04  mag=     2.9999
       N       E                     dE             d eps       ncg     rms          rms(c)
DAV:   1    -0.231957821522E+04    0.10286E-02   -0.36781E-02  4496   0.165E-01    0.614E-02
RMM:   2    -0.231957901422E+04   -0.79900E-03   -0.80757E-03  6272   0.454E-02    0.620E-02
RMM:   3    -0.231957908670E+04   -0.72472E-04   -0.82905E-04  3179   0.157E-02    0.691E-02
RMM:   4    -0.231957904538E+04    0.41314E-04   -0.90657E-05  2947   0.518E-03    0.196E-02
RMM:   5    -0.231957904446E+04    0.92256E-06   -0.14818E-05  2805   0.242E-03
 191 F= -.23409386E+04 E0= -.23409386E+04  d E =-.820116E-04  mag=     2.9999
       N       E                     dE             d eps       ncg     rms          rms(c)
DAV:   1    -0.231957530276E+04    0.37426E-02   -0.14683E-01  4496   0.330E-01    0.122E-01
RMM:   2    -0.231957839620E+04   -0.30934E-02   -0.32221E-02  6546   0.908E-02    0.734E-02
RMM:   3    -0.231957867437E+04   -0.27817E-03   -0.32221E-03  3933   0.307E-02    0.856E-02
RMM:   4    -0.231957862475E+04    0.49619E-04   -0.34784E-04  3027   0.833E-03    0.511E-02
RMM:   5    -0.231957861126E+04    0.13492E-04   -0.50574E-05  2933   0.390E-03    0.342E-02
RMM:   6    -0.231957859745E+04    0.13814E-04   -0.31168E-05  2890   0.371E-03    0.156E-02
RMM:   7    -0.231957859856E+04   -0.11071E-05   -0.12574E-05  2872   0.292E-03
 192 F= -.23409387E+04 E0= -.23409387E+04  d E =-.114874E-03  mag=     2.9999
       N       E                     dE             d eps       ncg     rms          rms(c)
DAV:   1    -0.231957845702E+04    0.14043E-03   -0.89091E-03  4656   0.935E-02    0.356E-02
RMM:   2    -0.231957861602E+04   -0.15900E-03   -0.16920E-03  5968   0.247E-02    0.183E-02
RMM:   3    -0.231957862975E+04   -0.13732E-04   -0.16664E-04  2943   0.947E-03    0.227E-02
RMM:   4    -0.231957862556E+04    0.41872E-05   -0.20262E-05  2938   0.305E-03
 193 F= -.23409388E+04 E0= -.23409388E+04  d E =-.132285E-03  mag=     2.9999
       N       E                     dE             d eps       ncg     rms          rms(c)
DAV:   1    -0.231957788485E+04    0.74490E-03   -0.33381E-02  4496   0.181E-01    0.683E-02
RMM:   2    -0.231957848986E+04   -0.60502E-03   -0.63225E-03  6211   0.470E-02    0.491E-02
RMM:   3    -0.231957858710E+04   -0.97240E-04   -0.69660E-04  3279   0.181E-02    0.887E-02
RMM:   4    -0.231957851345E+04    0.73657E-04   -0.80912E-05  2925   0.603E-03    0.189E-02
RMM:   5    -0.231957851273E+04    0.71804E-06   -0.26335E-05  2951   0.352E-03
 194 F= -.23409389E+04 E0= -.23409389E+04  d E =-.223223E-03  mag=     2.9999
       N       E                     dE             d eps       ncg     rms          rms(c)
DAV:   1    -0.231957847263E+04    0.40816E-04   -0.14074E-03  5344   0.413E-02    0.163E-02
RMM:   2    -0.231957849659E+04   -0.23955E-04   -0.23042E-04  4270   0.108E-02    0.173E-02
RMM:   3    -0.231957849590E+04    0.68069E-06   -0.26202E-05  2766   0.544E-03
 195 F= -.23409389E+04 E0= -.23409389E+04  d E =-.241225E-04  mag=     2.9999
       N       E                     dE             d eps       ncg     rms          rms(c)
DAV:   1    -0.231957834040E+04    0.15619E-03   -0.60118E-03  4544   0.836E-02    0.322E-02
RMM:   2    -0.231957843100E+04   -0.90608E-04   -0.94008E-04  5814   0.204E-02    0.252E-02
RMM:   3    -0.231957844170E+04   -0.10697E-04   -0.10255E-04  2913   0.820E-03    0.344E-02
RMM:   4    -0.231957843144E+04    0.10264E-04   -0.15285E-05  2909   0.294E-03    0.132E-02
RMM:   5    -0.231957842973E+04    0.17086E-05   -0.49639E-06  2768   0.175E-03
 196 F= -.23409389E+04 E0= -.23409389E+04  d E =-.421264E-04  mag=     2.9999
       N       E                     dE             d eps       ncg     rms          rms(c)
DAV:   1    -0.231957836871E+04    0.62721E-04   -0.27254E-03  4712   0.576E-02    0.195E-02
RMM:   2    -0.231957840622E+04   -0.37509E-04   -0.39510E-04  4983   0.136E-02    0.120E-02
RMM:   3    -0.231957841191E+04   -0.56898E-05   -0.43965E-05  2893   0.605E-03
 197 F= -.23409390E+04 E0= -.23409389E+04  d E =-.306838E-04  mag=     2.9999
       N       E                     dE             d eps       ncg     rms          rms(c)
DAV:   1    -0.231957832371E+04    0.82515E-04   -0.28108E-03  4576   0.584E-02    0.214E-02
RMM:   2    -0.231957836414E+04   -0.40436E-04   -0.42597E-04  5019   0.140E-02    0.146E-02
RMM:   3    -0.231957836611E+04   -0.19694E-05   -0.44989E-05  2896   0.588E-03
 198 F= -.23409390E+04 E0= -.23409389E+04  d E =-.338608E-04  mag=     2.9999
       N       E                     dE             d eps       ncg     rms          rms(c)
DAV:   1    -0.231957829408E+04    0.70063E-04   -0.42611E-03  4512   0.733E-02    0.263E-02
RMM:   2    -0.231957836512E+04   -0.71035E-04   -0.56002E-04  5621   0.171E-02    0.461E-02
RMM:   3    -0.231957834917E+04    0.15947E-04   -0.61033E-05  2903   0.660E-03    0.199E-02
RMM:   4    -0.231957834560E+04    0.35706E-05   -0.90901E-06  2898   0.240E-03
 199 F= -.23409390E+04 E0= -.23409390E+04  d E =-.295550E-04  mag=     2.9999
       N       E                     dE             d eps       ncg     rms          rms(c)
DAV:   1    -0.231957830468E+04    0.44493E-04   -0.12151E-03  4848   0.392E-02    0.143E-02
RMM:   2    -0.231957831895E+04   -0.14271E-04   -0.15067E-04  3882   0.884E-03    0.116E-02
RMM:   3    -0.231957832001E+04   -0.10589E-05   -0.17282E-05  2836   0.464E-03
 200 F= -.23409390E+04 E0= -.23409390E+04  d E =-.309663E-04  mag=     2.9999
       N       E                     dE             d eps       ncg     rms          rms(c)
DAV:   1    -0.231957824671E+04    0.72236E-04   -0.38369E-03  4512   0.696E-02    0.236E-02
RMM:   2    -0.231957828711E+04   -0.40393E-04   -0.43097E-04  5478   0.154E-02    0.146E-02
RMM:   3    -0.231957829419E+04   -0.70844E-05   -0.49368E-05  2899   0.665E-03
 201 F= -.23409390E+04 E0= -.23409390E+04  d E =-.268494E-04  mag=     2.9999
