       N       E                     dE             d eps       ncg     rms          rms(c)
DAV:   1     0.128885622251E+05    0.12889E+05   -0.83731E+05  4504   0.144E+03
DAV:   2    -0.105417078169E+04   -0.13943E+05   -0.13335E+05  5120   0.329E+02
DAV:   3    -0.248236442814E+04   -0.14282E+04   -0.14128E+04  5424   0.112E+02
DAV:   4    -0.252826146207E+04   -0.45897E+02   -0.45659E+02  6832   0.300E+01
DAV:   5    -0.252901453433E+04   -0.75307E+00   -0.75188E+00  6032   0.337E+00    0.171E+02
RMM:   6    -0.149602253866E+04    0.10330E+04   -0.19578E+03  4450   0.385E+01    0.739E+01
RMM:   7    -0.168417553419E+04   -0.18815E+03   -0.30685E+02  5159   0.148E+01    0.598E+01
RMM:   8    -0.169701932868E+04   -0.12844E+02   -0.94760E+01  5326   0.845E+00    0.416E+01
RMM:   9    -0.178070281869E+04   -0.83683E+02   -0.53702E+01  4978   0.719E+00    0.329E+01
RMM:  10    -0.191678621096E+04   -0.13608E+03   -0.53872E+01  5271   0.686E+00    0.235E+01
RMM:  11    -0.202816897298E+04   -0.11138E+03   -0.47627E+01  5129   0.563E+00    0.173E+01
RMM:  12    -0.209726743802E+04   -0.69098E+02   -0.30000E+01  5030   0.437E+00    0.174E+01
RMM:  13    -0.219925123361E+04   -0.10198E+03   -0.61558E+01  4605   0.595E+00    0.107E+01
RMM:  14    -0.228583922156E+04   -0.86588E+02   -0.74613E+01  4574   0.630E+00    0.648E+00
RMM:  15    -0.231302167279E+04   -0.27182E+02   -0.25545E+01  4641   0.428E+00    0.521E+00
RMM:  16    -0.232196359672E+04   -0.89419E+01   -0.10605E+01  4839   0.212E+00    0.385E+00
RMM:  17    -0.232238142069E+04   -0.41782E+00   -0.81425E-01  5383   0.885E-01    0.318E+00
RMM:  18    -0.232565045666E+04   -0.32690E+01   -0.21937E+00  4442   0.853E-01    0.216E+00
RMM:  19    -0.232660602760E+04   -0.95557E+00   -0.91585E-01  4477   0.599E-01    0.925E-01
RMM:  20    -0.232701935480E+04   -0.41333E+00   -0.39744E-01  4761   0.366E-01    0.667E-01
RMM:  21    -0.232711586087E+04   -0.96506E-01   -0.12514E-01  4720   0.214E-01    0.329E-01
RMM:  22    -0.232715692447E+04   -0.41064E-01   -0.37929E-02  4683   0.130E-01    0.293E-01
RMM:  23    -0.232717903755E+04   -0.22113E-01   -0.87866E-03  4706   0.785E-02    0.142E-01
RMM:  24    -0.232720100118E+04   -0.21964E-01   -0.62451E-03  4500   0.590E-02    0.105E-01
RMM:  25    -0.232721365485E+04   -0.12654E-01   -0.34633E-03  4508   0.466E-02    0.675E-02
RMM:  26    -0.232721967199E+04   -0.60171E-02   -0.18841E-03  4828   0.336E-02    0.387E-02
RMM:  27    -0.232722334621E+04   -0.36742E-02   -0.92228E-04  4210   0.229E-02    0.258E-02
RMM:  28    -0.232722439918E+04   -0.10530E-02   -0.28172E-04  4076   0.141E-02    0.126E-02
RMM:  29    -0.232722490380E+04   -0.50462E-03   -0.13326E-04  3749   0.939E-03    0.783E-03
RMM:  30    -0.232722508405E+04   -0.18025E-03   -0.48986E-05  3462   0.717E-03    0.479E-03
RMM:  31    -0.232722514751E+04   -0.63459E-04   -0.19849E-05  3045   0.433E-03    0.307E-03
RMM:  32    -0.232722517457E+04   -0.27056E-04   -0.86828E-06  2852   0.358E-03    0.164E-03
RMM:  33    -0.232722518372E+04   -0.91566E-05   -0.41535E-06  2550   0.242E-03
   1 F= -.23482423E+04 E0= -.23482423E+04  d E =-.234824E+04  mag=     6.0000
       N       E                     dE             d eps       ncg     rms          rms(c)
DAV:   1    -0.232795150224E+04   -0.72633E+00   -0.23912E+01  4832   0.333E+00    0.123E+00
RMM:   2    -0.232803343904E+04   -0.81937E-01   -0.97565E-01  5771   0.583E-01    0.815E-01
RMM:   3    -0.232803953095E+04   -0.60919E-02   -0.10795E-01  5568   0.216E-01    0.959E-01
RMM:   4    -0.232803153278E+04    0.79982E-02   -0.18210E-02  5762   0.682E-02    0.415E-01
RMM:   5    -0.232802975956E+04    0.17732E-02   -0.72013E-03  4951   0.464E-02    0.136E-01
RMM:   6    -0.232802983999E+04   -0.80432E-04   -0.11723E-03  4675   0.269E-02    0.144E-01
RMM:   7    -0.232802970037E+04    0.13962E-03   -0.48582E-04  4103   0.105E-02    0.725E-02
RMM:   8    -0.232802964466E+04    0.55713E-04   -0.70913E-05  3156   0.617E-03    0.253E-02
RMM:   9    -0.232802963193E+04    0.12724E-04   -0.40519E-05  3079   0.511E-03    0.129E-02
RMM:  10    -0.232802962699E+04    0.49444E-05   -0.13017E-05  2897   0.452E-03
   2 F= -.23490473E+04 E0= -.23490473E+04  d E =-.804990E+00  mag=     6.0000
       N       E                     dE             d eps       ncg     rms          rms(c)
DAV:   1    -0.232832938756E+04   -0.29976E+00   -0.47437E+01  4576   0.467E+00    0.166E+00
RMM:   2    -0.232849840572E+04   -0.16902E+00   -0.19386E+00  5801   0.802E-01    0.104E+00
RMM:   3    -0.232850995540E+04   -0.11550E-01   -0.21658E-01  5385   0.302E-01    0.107E+00
RMM:   4    -0.232850231219E+04    0.76432E-02   -0.34688E-02  5710   0.944E-02    0.656E-01
RMM:   5    -0.232849784870E+04    0.44635E-02   -0.13261E-02  5049   0.667E-02    0.189E-01
RMM:   6    -0.232849784534E+04    0.33622E-05   -0.22827E-03  5035   0.366E-02    0.130E-01
RMM:   7    -0.232849788026E+04   -0.34917E-04   -0.87864E-04  4659   0.142E-02    0.137E-01
RMM:   8    -0.232849767464E+04    0.20561E-03   -0.19237E-04  3581   0.849E-03    0.410E-02
RMM:   9    -0.232849763504E+04    0.39598E-04   -0.95925E-05  3598   0.664E-03    0.182E-02
RMM:  10    -0.232849762300E+04    0.12049E-04   -0.22829E-05  2954   0.548E-03    0.969E-03
RMM:  11    -0.232849761941E+04    0.35810E-05   -0.14566E-05  2897   0.428E-03
   3 F= -.23495162E+04 E0= -.23495162E+04  d E =-.127397E+01  mag=     6.0000
       N       E                     dE             d eps       ncg     rms          rms(c)
DAV:   1    -0.232889046945E+04   -0.39285E+00   -0.75495E+00  4608   0.178E+00    0.748E-01
RMM:   2    -0.232891366468E+04   -0.23195E-01   -0.28398E-01  5748   0.307E-01    0.416E-01
RMM:   3    -0.232891526488E+04   -0.16002E-02   -0.29516E-02  5207   0.118E-01    0.407E-01
RMM:   4    -0.232891450247E+04    0.76242E-03   -0.57473E-03  5423   0.402E-02    0.290E-01
RMM:   5    -0.232891377218E+04    0.73028E-03   -0.18619E-03  4632   0.258E-02    0.818E-02
RMM:   6    -0.232891387165E+04   -0.99465E-04   -0.47719E-04  3980   0.148E-02    0.111E-01
RMM:   7    -0.232891375898E+04    0.11267E-03   -0.17631E-04  3086   0.767E-03    0.294E-02
RMM:   8    -0.232891375025E+04    0.87325E-05   -0.31944E-05  2982   0.408E-03
   4 F= -.23499328E+04 E0= -.23499328E+04  d E =-.416551E+00  mag=     6.0000
       N       E                     dE             d eps       ncg     rms          rms(c)
DAV:   1    -0.232923448633E+04   -0.32073E+00   -0.49097E+01  4476   0.458E+00    0.189E+00
RMM:   2    -0.232939260342E+04   -0.15812E+00   -0.18886E+00  5807   0.774E-01    0.100E+00
RMM:   3    -0.232940043259E+04   -0.78292E-02   -0.19136E-01  5059   0.298E-01    0.756E-01
RMM:   4    -0.232940280977E+04   -0.23772E-02   -0.36376E-02  5667   0.985E-02    0.845E-01
RMM:   5    -0.232939620588E+04    0.66039E-02   -0.12344E-02  5283   0.624E-02    0.219E-01
RMM:   6    -0.232939615718E+04    0.48706E-04   -0.20803E-03  4667   0.263E-02    0.848E-02
RMM:   7    -0.232939613999E+04    0.17187E-04   -0.39803E-04  4216   0.152E-02    0.752E-02
RMM:   8    -0.232939610566E+04    0.34333E-04   -0.19717E-04  3393   0.813E-03    0.567E-02
RMM:   9    -0.232939605810E+04    0.47557E-04   -0.52355E-05  3164   0.577E-03    0.134E-02
RMM:  10    -0.232939604844E+04    0.96563E-05   -0.23461E-05  2961   0.484E-03
   5 F= -.23504173E+04 E0= -.23504173E+04  d E =-.901090E+00  mag=     6.0000
       N       E                     dE             d eps       ncg     rms          rms(c)
DAV:   1    -0.232951920301E+04   -0.12314E+00   -0.15483E+00  4928   0.854E-01    0.388E-01
RMM:   2    -0.232953016887E+04   -0.10966E-01   -0.13240E-01  5973   0.188E-01    0.280E-01
RMM:   3    -0.232953079995E+04   -0.63108E-03   -0.12098E-02  5552   0.694E-02    0.274E-01
RMM:   4    -0.232953019893E+04    0.60102E-03   -0.17606E-03  4949   0.219E-02    0.121E-01
RMM:   5    -0.232953003337E+04    0.16556E-03   -0.95711E-04  5039   0.185E-02    0.390E-02
RMM:   6    -0.232953003174E+04    0.16294E-05   -0.92370E-05  3132   0.902E-03
   6 F= -.23505504E+04 E0= -.23505504E+04  d E =-.133050E+00  mag=     6.0000
       N       E                     dE             d eps       ncg     rms          rms(c)
DAV:   1    -0.232962794509E+04   -0.97912E-01   -0.13556E+01  4544   0.250E+00    0.116E+00
RMM:   2    -0.232972419019E+04   -0.96245E-01   -0.11753E+00  5883   0.566E-01    0.849E-01
RMM:   3    -0.232973017103E+04   -0.59808E-02   -0.10080E-01  5586   0.198E-01    0.917E-01
RMM:   4    -0.232972340733E+04    0.67637E-02   -0.15486E-02  5578   0.645E-02    0.377E-01
RMM:   5    -0.232972222859E+04    0.11787E-02   -0.10563E-02  5372   0.572E-02    0.244E-01
RMM:   6    -0.232972213157E+04    0.97022E-04   -0.23869E-03  5041   0.303E-02    0.209E-01
RMM:   7    -0.232972165987E+04    0.47171E-03   -0.51522E-04  4362   0.128E-02    0.498E-02
RMM:   8    -0.232972163318E+04    0.26689E-04   -0.20603E-04  3792   0.877E-03    0.208E-02
RMM:   9    -0.232972162932E+04    0.38564E-05   -0.29881E-05  2969   0.530E-03
   7 F= -.23507397E+04 E0= -.23507397E+04  d E =-.322365E+00  mag=     6.0000
       N       E                     dE             d eps       ncg     rms          rms(c)
DAV:   1    -0.232982244466E+04   -0.10081E+00   -0.24294E+00  4912   0.132E+00    0.561E-01
RMM:   2    -0.232983339466E+04   -0.10950E-01   -0.13180E-01  5665   0.235E-01    0.481E-01
RMM:   3    -0.232983324152E+04    0.15314E-03   -0.13740E-02  5466   0.933E-02    0.428E-01
RMM:   4    -0.232983153419E+04    0.17073E-02   -0.29023E-03  5031   0.314E-02    0.125E-01
RMM:   5    -0.232983156882E+04   -0.34628E-04   -0.11686E-03  5060   0.226E-02    0.135E-01
RMM:   6    -0.232983142924E+04    0.13958E-03   -0.41984E-04  4242   0.118E-02    0.634E-02
RMM:   7    -0.232983139648E+04    0.32765E-04   -0.45872E-05  2966   0.623E-03    0.162E-02
RMM:   8    -0.232983139505E+04    0.14322E-05   -0.18120E-05  2955   0.359E-03
   8 F= -.23508486E+04 E0= -.23508486E+04  d E =-.108928E+00  mag=     6.0000
       N       E                     dE             d eps       ncg     rms          rms(c)
DAV:   1    -0.232988473656E+04   -0.53340E-01   -0.80003E+00  4768   0.240E+00    0.101E+00
RMM:   2    -0.232992112478E+04   -0.36388E-01   -0.43355E-01  5639   0.432E-01    0.864E-01
RMM:   3    -0.232992079426E+04    0.33052E-03   -0.44923E-02  5442   0.170E-01    0.778E-01
RMM:   4    -0.232991516743E+04    0.56268E-02   -0.94189E-03  5089   0.570E-02    0.234E-01
RMM:   5    -0.232991552194E+04   -0.35451E-03   -0.42173E-03  5458   0.420E-02    0.299E-01
RMM:   6    -0.232991473768E+04    0.78426E-03   -0.15661E-03  5345   0.215E-02    0.941E-02
RMM:   7    -0.232991466717E+04    0.70510E-04   -0.17759E-04  3484   0.979E-03    0.301E-02
RMM:   8    -0.232991465793E+04    0.92430E-05   -0.60235E-05  3166   0.592E-03
   9 F= -.23509306E+04 E0= -.23509306E+04  d E =-.190928E+00  mag=     6.0000
       N       E                     dE             d eps       ncg     rms          rms(c)
DAV:   1    -0.232995988013E+04   -0.45213E-01   -0.39852E+00  4752   0.190E+00    0.764E-01
RMM:   2    -0.232998682804E+04   -0.26948E-01   -0.29256E-01  5729   0.349E-01    0.555E-01
RMM:   3    -0.232998789290E+04   -0.10649E-02   -0.30875E-02  5438   0.145E-01    0.538E-01
RMM:   4    -0.232998524397E+04    0.26489E-02   -0.42752E-03  5311   0.406E-02    0.166E-01
RMM:   5    -0.232998507531E+04    0.16867E-03   -0.18378E-03  5155   0.295E-02    0.139E-01
RMM:   6    -0.232998502902E+04    0.46290E-04   -0.78690E-04  5072   0.166E-02    0.119E-01
RMM:   7    -0.232998489978E+04    0.12924E-03   -0.11624E-04  3431   0.891E-03    0.233E-02
RMM:   8    -0.232998489170E+04    0.80785E-05   -0.32748E-05  2971   0.495E-03
  10 F= -.23510010E+04 E0= -.23510010E+04  d E =-.704057E-01  mag=     6.0000
       N       E                     dE             d eps       ncg     rms          rms(c)
DAV:   1    -0.232998750310E+04   -0.26033E-02   -0.17737E+00  4784   0.126E+00    0.508E-01
RMM:   2    -0.232999945303E+04   -0.11950E-01   -0.13002E-01  5719   0.232E-01    0.364E-01
RMM:   3    -0.232999995003E+04   -0.49700E-03   -0.13630E-02  5394   0.964E-02    0.356E-01
RMM:   4    -0.232999878303E+04    0.11670E-02   -0.18942E-03  5108   0.270E-02    0.112E-01
RMM:   5    -0.232999870515E+04    0.77878E-04   -0.82799E-04  5058   0.202E-02    0.958E-02
RMM:   6    -0.232999867497E+04    0.30182E-04   -0.36081E-04  4549   0.113E-02    0.772E-02
RMM:   7    -0.232999861834E+04    0.56633E-04   -0.51562E-05  3031   0.655E-03    0.156E-02
RMM:   8    -0.232999861414E+04    0.41942E-05   -0.16808E-05  2938   0.380E-03
  11 F= -.23510149E+04 E0= -.23510149E+04  d E =-.842647E-01  mag=     6.0000
       N       E                     dE             d eps       ncg     rms          rms(c)
DAV:   1    -0.233002186601E+04   -0.23248E-01   -0.46906E+00  4536   0.190E+00    0.656E-01
RMM:   2    -0.233005521252E+04   -0.33347E-01   -0.36335E-01  5799   0.352E-01    0.447E-01
RMM:   3    -0.233005750898E+04   -0.22965E-02   -0.37547E-02  5446   0.144E-01    0.410E-01
RMM:   4    -0.233005634180E+04    0.11672E-02   -0.45611E-03  5422   0.364E-02    0.212E-01
RMM:   5    -0.233005612160E+04    0.22020E-03   -0.19115E-03  5156   0.268E-02    0.183E-01
RMM:   6    -0.233005591107E+04    0.21053E-03   -0.85623E-04  4929   0.172E-02    0.104E-01
RMM:   7    -0.233005581842E+04    0.92646E-04   -0.16766E-04  3827   0.987E-03    0.429E-02
RMM:   8    -0.233005580257E+04    0.15847E-04   -0.44600E-05  3013   0.531E-03    0.147E-02
RMM:   9    -0.233005579917E+04    0.34038E-05   -0.16182E-05  2911   0.379E-03
  12 F= -.23510730E+04 E0= -.23510730E+04  d E =-.580956E-01  mag=     6.0000
       N       E                     dE             d eps       ncg     rms          rms(c)
DAV:   1    -0.233005237518E+04    0.34274E-02   -0.17225E+00  4680   0.116E+00    0.398E-01
RMM:   2    -0.233006456912E+04   -0.12194E-01   -0.13338E-01  5794   0.216E-01    0.267E-01
RMM:   3    -0.233006540451E+04   -0.83540E-03   -0.13570E-02  5382   0.866E-02    0.245E-01
RMM:   4    -0.233006498179E+04    0.42272E-03   -0.16857E-03  5206   0.223E-02    0.129E-01
RMM:   5    -0.233006488084E+04    0.10095E-03   -0.70757E-04  4770   0.168E-02    0.104E-01
RMM:   6    -0.233006481606E+04    0.64782E-04   -0.29864E-04  4108   0.110E-02    0.647E-02
RMM:   7    -0.233006477856E+04    0.37499E-04   -0.63262E-05  3058   0.667E-03    0.254E-02
RMM:   8    -0.233006477260E+04    0.59593E-05   -0.18551E-05  2928   0.407E-03
  13 F= -.23510825E+04 E0= -.23510825E+04  d E =-.676088E-01  mag=     6.0000
       N       E                     dE             d eps       ncg     rms          rms(c)
DAV:   1    -0.233006159517E+04    0.31834E-02   -0.41099E+00  4480   0.185E+00    0.605E-01
RMM:   2    -0.233009035127E+04   -0.28756E-01   -0.32425E-01  5659   0.341E-01    0.333E-01
RMM:   3    -0.233009225121E+04   -0.18999E-02   -0.34510E-02  5253   0.151E-01    0.275E-01
RMM:   4    -0.233009213096E+04    0.12024E-03   -0.39586E-03  5465   0.337E-02    0.255E-01
RMM:   5    -0.233009146254E+04    0.66843E-03   -0.16048E-03  5098   0.254E-02    0.897E-02
RMM:   6    -0.233009142619E+04    0.36345E-04   -0.40912E-04  4504   0.140E-02    0.467E-02
RMM:   7    -0.233009142214E+04    0.40518E-05   -0.83757E-05  3143   0.863E-03
  14 F= -.23511101E+04 E0= -.23511101E+04  d E =-.275748E-01  mag=     6.0000
       N       E                     dE             d eps       ncg     rms          rms(c)
DAV:   1    -0.233009115200E+04    0.27419E-03   -0.59286E-02  5136   0.225E-01    0.749E-02
RMM:   2    -0.233009158580E+04   -0.43380E-03   -0.48182E-03  5743   0.423E-02    0.442E-02
RMM:   3    -0.233009161607E+04   -0.30267E-04   -0.48870E-04  3333   0.170E-02    0.412E-02
RMM:   4    -0.233009160555E+04    0.10516E-04   -0.56209E-05  2982   0.508E-03    0.275E-02
RMM:   5    -0.233009159755E+04    0.80022E-05   -0.25712E-05  2976   0.401E-03
  15 F= -.23511104E+04 E0= -.23511104E+04  d E =-.278607E-01  mag=     6.0000
       N       E                     dE             d eps       ncg     rms          rms(c)
DAV:   1    -0.233009376914E+04   -0.21636E-02   -0.16594E+00  4528   0.127E+00    0.362E-01
RMM:   2    -0.233010899496E+04   -0.15226E-01   -0.16323E-01  5720   0.233E-01    0.197E-01
RMM:   3    -0.233011002859E+04   -0.10336E-02   -0.15710E-02  5270   0.102E-01    0.126E-01
RMM:   4    -0.233011006212E+04   -0.33534E-04   -0.17160E-03  4906   0.227E-02    0.135E-01
RMM:   5    -0.233010991703E+04    0.14510E-03   -0.46375E-04  4308   0.154E-02    0.771E-02
RMM:   6    -0.233010986718E+04    0.49843E-04   -0.13916E-04  4122   0.871E-03    0.203E-02
RMM:   7    -0.233010987113E+04   -0.39447E-05   -0.31598E-05  2919   0.650E-03
  16 F= -.23511289E+04 E0= -.23511289E+04  d E =-.185147E-01  mag=     6.0000
       N       E                     dE             d eps       ncg     rms          rms(c)
DAV:   1    -0.233008768307E+04    0.22184E-01   -0.31729E+00  4472   0.176E+00    0.501E-01
RMM:   2    -0.233011719765E+04   -0.29515E-01   -0.31616E-01  5625   0.322E-01    0.278E-01
RMM:   3    -0.233011936176E+04   -0.21641E-02   -0.31105E-02  5191   0.144E-01    0.205E-01
RMM:   4    -0.233011945099E+04   -0.89228E-04   -0.32685E-03  5377   0.296E-02    0.216E-01
RMM:   5    -0.233011897238E+04    0.47861E-03   -0.94550E-04  5044   0.208E-02    0.845E-02
RMM:   6    -0.233011891098E+04    0.61396E-04   -0.34387E-04  4593   0.131E-02    0.231E-02
RMM:   7    -0.233011891173E+04   -0.74922E-06   -0.47606E-05  3047   0.897E-03
  17 F= -.23511383E+04 E0= -.23511383E+04  d E =-.278927E-01  mag=     6.0000
       N       E                     dE             d eps       ncg     rms          rms(c)
DAV:   1    -0.233012471013E+04   -0.57991E-02   -0.81735E-01  4560   0.876E-01    0.235E-01
RMM:   2    -0.233013082094E+04   -0.61108E-02   -0.64984E-02  5668   0.148E-01    0.120E-01
RMM:   3    -0.233013120749E+04   -0.38655E-03   -0.55612E-03  5071   0.605E-02    0.819E-02
RMM:   4    -0.233013124307E+04   -0.35579E-04   -0.68028E-04  4211   0.135E-02    0.941E-02
RMM:   5    -0.233013115827E+04    0.84801E-04   -0.17830E-04  3686   0.962E-03    0.376E-02
RMM:   6    -0.233013115334E+04    0.49255E-05   -0.68330E-05  3535   0.693E-03
  18 F= -.23511505E+04 E0= -.23511505E+04  d E =-.122313E-01  mag=     6.0000
       N       E                     dE             d eps       ncg     rms          rms(c)
DAV:   1    -0.233009502034E+04    0.36138E-01   -0.73541E+00  4488   0.263E+00    0.702E-01
RMM:   2    -0.233015002337E+04   -0.55003E-01   -0.58274E-01  5680   0.444E-01    0.387E-01
RMM:   3    -0.233015410302E+04   -0.40797E-02   -0.53133E-02  5297   0.188E-01    0.344E-01
RMM:   4    -0.233015367746E+04    0.42556E-03   -0.60019E-03  5718   0.391E-02    0.255E-01
RMM:   5    -0.233015300033E+04    0.67713E-03   -0.16344E-03  5123   0.260E-02    0.109E-01
RMM:   6    -0.233015294155E+04    0.58781E-04   -0.67700E-04  4898   0.184E-02    0.569E-02
RMM:   7    -0.233015293622E+04    0.53311E-05   -0.13888E-04  3503   0.106E-02    0.491E-02
RMM:   8    -0.233015291333E+04    0.22885E-04   -0.29922E-05  2920   0.434E-03    0.131E-02
RMM:   9    -0.233015291213E+04    0.12033E-05   -0.10282E-05  2914   0.285E-03
  19 F= -.23511722E+04 E0= -.23511722E+04  d E =-.339554E-01  mag=     6.0000
       N       E                     dE             d eps       ncg     rms          rms(c)
DAV:   1    -0.233014301781E+04    0.98955E-02   -0.15933E+00  4576   0.123E+00    0.327E-01
RMM:   2    -0.233015496064E+04   -0.11943E-01   -0.12656E-01  5652   0.207E-01    0.179E-01
RMM:   3    -0.233015577474E+04   -0.81409E-03   -0.10934E-02  5150   0.888E-02    0.156E-01
RMM:   4    -0.233015569334E+04    0.81394E-04   -0.13041E-03  4854   0.185E-02    0.119E-01
RMM:   5    -0.233015553641E+04    0.15693E-03   -0.36759E-04  4552   0.135E-02    0.457E-02
RMM:   6    -0.233015552511E+04    0.11296E-04   -0.12419E-04  3974   0.911E-03    0.116E-02
RMM:   7    -0.233015552525E+04   -0.14143E-06   -0.14064E-05  2904   0.563E-03
  20 F= -.23511748E+04 E0= -.23511748E+04  d E =-.365504E-01  mag=     6.0000
       N       E                     dE             d eps       ncg     rms          rms(c)
DAV:   1    -0.233014998240E+04    0.55427E-02   -0.28425E+00  4472   0.160E+00    0.431E-01
RMM:   2    -0.233017117657E+04   -0.21194E-01   -0.22517E-01  5636   0.273E-01    0.249E-01
RMM:   3    -0.233017269405E+04   -0.15175E-02   -0.20124E-02  5159   0.118E-01    0.208E-01
RMM:   4    -0.233017254200E+04    0.15204E-03   -0.22909E-03  5282   0.246E-02    0.160E-01
RMM:   5    -0.233017226655E+04    0.27546E-03   -0.74003E-04  4890   0.181E-02    0.680E-02
RMM:   6    -0.233017224942E+04    0.17125E-04   -0.21444E-04  4242   0.114E-02    0.385E-02
RMM:   7    -0.233017224395E+04    0.54707E-05   -0.52786E-05  2991   0.671E-03
  21 F= -.23511916E+04 E0= -.23511916E+04  d E =-.168151E-01  mag=     6.0000
       N       E                     dE             d eps       ncg     rms          rms(c)
DAV:   1    -0.233013624201E+04    0.36007E-01   -0.56140E+00  4472   0.225E+00    0.607E-01
RMM:   2    -0.233017825364E+04   -0.42012E-01   -0.44636E-01  5613   0.383E-01    0.350E-01
RMM:   3    -0.233018128434E+04   -0.30307E-02   -0.40889E-02  5176   0.167E-01    0.289E-01
RMM:   4    -0.233018101442E+04    0.26992E-03   -0.45782E-03  5509   0.343E-02    0.225E-01
RMM:   5    -0.233018047741E+04    0.53700E-03   -0.14286E-03  5111   0.246E-02    0.994E-02
RMM:   6    -0.233018041865E+04    0.58763E-04   -0.43736E-04  4671   0.153E-02    0.420E-02
RMM:   7    -0.233018042412E+04   -0.54711E-05   -0.10042E-04  3249   0.900E-03    0.468E-02
RMM:   8    -0.233018040275E+04    0.21371E-04   -0.22237E-05  2908   0.408E-03    0.109E-02
RMM:   9    -0.233018040048E+04    0.22718E-05   -0.96864E-06  2907   0.271E-03
  22 F= -.23511999E+04 E0= -.23511999E+04  d E =-.251035E-01  mag=     6.0000
       N       E                     dE             d eps       ncg     rms          rms(c)
DAV:   1    -0.233016878984E+04    0.11613E-01   -0.29671E+00  4476   0.167E+00    0.439E-01
RMM:   2    -0.233019395755E+04   -0.25168E-01   -0.26623E-01  5651   0.287E-01    0.282E-01
RMM:   3    -0.233019616821E+04   -0.22107E-02   -0.26256E-02  5228   0.125E-01    0.249E-01
RMM:   4    -0.233019582602E+04    0.34219E-03   -0.27774E-03  5292   0.254E-02    0.151E-01
RMM:   5    -0.233019559514E+04    0.23088E-03   -0.62933E-04  4727   0.168E-02    0.805E-02
RMM:   6    -0.233019559498E+04    0.16617E-06   -0.36772E-04  4569   0.133E-02    0.785E-02
RMM:   7    -0.233019554268E+04    0.52298E-04   -0.96996E-05  3160   0.812E-03    0.230E-02
RMM:   8    -0.233019553754E+04    0.51408E-05   -0.12559E-05  2921   0.341E-03
  23 F= -.23512151E+04 E0= -.23512151E+04  d E =-.152168E-01  mag=     6.0000
       N       E                     dE             d eps       ncg     rms          rms(c)
DAV:   1    -0.233009965573E+04    0.95887E-01   -0.12042E+01  4488   0.338E+00    0.882E-01
RMM:   2    -0.233020122094E+04   -0.10157E+00   -0.10750E+00  5691   0.583E-01    0.574E-01
RMM:   3    -0.233021013324E+04   -0.89123E-02   -0.10826E-01  5336   0.246E-01    0.491E-01
RMM:   4    -0.233020886001E+04    0.12732E-02   -0.11388E-02  5703   0.511E-02    0.308E-01
RMM:   5    -0.233020796056E+04    0.89945E-03   -0.24971E-03  5098   0.320E-02    0.178E-01
RMM:   6    -0.233020789868E+04    0.61879E-04   -0.16407E-03  5094   0.259E-02    0.163E-01
RMM:   7    -0.233020767501E+04    0.22367E-03   -0.45765E-04  4580   0.164E-02    0.547E-02
RMM:   8    -0.233020764435E+04    0.30659E-04   -0.59776E-05  3020   0.502E-03    0.187E-02
RMM:   9    -0.233020763843E+04    0.59241E-05   -0.19816E-05  2941   0.403E-03
  24 F= -.23512274E+04 E0= -.23512274E+04  d E =-.274755E-01  mag=     6.0000
       N       E                     dE             d eps       ncg     rms          rms(c)
DAV:   1    -0.233020120131E+04    0.64430E-02   -0.20030E+00  4592   0.137E+00    0.371E-01
RMM:   2    -0.233022088331E+04   -0.19682E-01   -0.20563E-01  5795   0.241E-01    0.276E-01
RMM:   3    -0.233022263749E+04   -0.17542E-02   -0.21261E-02  5357   0.104E-01    0.226E-01
RMM:   4    -0.233022232516E+04    0.31234E-03   -0.22103E-03  5053   0.213E-02    0.120E-01
RMM:   5    -0.233022219040E+04    0.13476E-03   -0.39950E-04  4286   0.130E-02    0.737E-02
RMM:   6    -0.233022220352E+04   -0.13117E-04   -0.31850E-04  4345   0.115E-02    0.826E-02
RMM:   7    -0.233022214584E+04    0.57678E-04   -0.88659E-05  3094   0.768E-03    0.199E-02
RMM:   8    -0.233022214219E+04    0.36518E-05   -0.12991E-05  2918   0.358E-03
  25 F= -.23512417E+04 E0= -.23512417E+04  d E =-.143461E-01  mag=     6.0000
       N       E                     dE             d eps       ncg     rms          rms(c)
DAV:   1    -0.233005768983E+04    0.16446E+00   -0.18012E+01  4488   0.410E+00    0.112E+00
RMM:   2    -0.233023640525E+04   -0.17872E+00   -0.18685E+00  5803   0.731E-01    0.859E-01
RMM:   3    -0.233025232256E+04   -0.15917E-01   -0.20195E-01  5453   0.300E-01    0.691E-01
RMM:   4    -0.233024934092E+04    0.29816E-02   -0.19796E-02  5841   0.635E-02    0.372E-01
RMM:   5    -0.233024819899E+04    0.11419E-02   -0.36181E-03  5165   0.360E-02    0.247E-01
RMM:   6    -0.233024820333E+04   -0.43413E-05   -0.31515E-03  5288   0.322E-02    0.256E-01
RMM:   7    -0.233024764169E+04    0.56164E-03   -0.93412E-04  5085   0.209E-02    0.650E-02
RMM:   8    -0.233024759614E+04    0.45552E-04   -0.12657E-04  3306   0.699E-03    0.307E-02
RMM:   9    -0.233024758068E+04    0.15458E-04   -0.47786E-05  2953   0.570E-03    0.122E-02
RMM:  10    -0.233024757876E+04    0.19184E-05   -0.16679E-05  2943   0.378E-03
  26 F= -.23512667E+04 E0= -.23512667E+04  d E =-.392816E-01  mag=     6.0000
       N       E                     dE             d eps       ncg     rms          rms(c)
DAV:   1    -0.233021914108E+04    0.28440E-01   -0.29614E+00  4556   0.166E+00    0.449E-01
RMM:   2    -0.233024822040E+04   -0.29079E-01   -0.30426E-01  5755   0.292E-01    0.333E-01
RMM:   3    -0.233025077048E+04   -0.25501E-02   -0.31042E-02  5328   0.126E-01    0.273E-01
RMM:   4    -0.233025032139E+04    0.44910E-03   -0.32582E-03  5377   0.258E-02    0.148E-01
RMM:   5    -0.233025011426E+04    0.20713E-03   -0.59574E-04  4601   0.155E-02    0.895E-02
RMM:   6    -0.233025013071E+04   -0.16446E-04   -0.46589E-04  4663   0.137E-02    0.101E-01
RMM:   7    -0.233025004298E+04    0.87726E-04   -0.13405E-04  3360   0.894E-03    0.244E-02
RMM:   8    -0.233025003627E+04    0.67104E-05   -0.19222E-05  2939   0.384E-03
  27 F= -.23512689E+04 E0= -.23512689E+04  d E =-.415268E-01  mag=     6.0000
       N       E                     dE             d eps       ncg     rms          rms(c)
DAV:   1    -0.233019267925E+04    0.57364E-01   -0.59830E+00  4488   0.227E+00    0.687E-01
RMM:   2    -0.233026465163E+04   -0.71972E-01   -0.74463E-01  5927   0.428E-01    0.603E-01
RMM:   3    -0.233027044518E+04   -0.57935E-02   -0.79972E-02  5590   0.173E-01    0.428E-01
RMM:   4    -0.233026941132E+04    0.10339E-02   -0.80191E-03  5607   0.381E-02    0.220E-01
RMM:   5    -0.233026904212E+04    0.36920E-03   -0.13696E-03  4908   0.221E-02    0.155E-01
RMM:   6    -0.233026903215E+04    0.99743E-05   -0.11085E-03  5070   0.188E-02    0.156E-01
RMM:   7    -0.233026883188E+04    0.20027E-03   -0.33496E-04  4201   0.124E-02    0.392E-02
RMM:   8    -0.233026881815E+04    0.13728E-04   -0.49053E-05  2990   0.528E-03    0.198E-02
RMM:   9    -0.233026881470E+04    0.34510E-05   -0.18939E-05  2896   0.384E-03
  28 F= -.23512874E+04 E0= -.23512874E+04  d E =-.185355E-01  mag=     6.0000
       N       E                     dE             d eps       ncg     rms          rms(c)
DAV:   1    -0.233016975562E+04    0.99063E-01   -0.84488E+00  4488   0.269E+00    0.814E-01
RMM:   2    -0.233027132176E+04   -0.10157E+00   -0.10519E+00  5905   0.508E-01    0.713E-01
RMM:   3    -0.233027963284E+04   -0.83111E-02   -0.11458E-01  5605   0.205E-01    0.508E-01
RMM:   4    -0.233027818257E+04    0.14503E-02   -0.11326E-02  5651   0.451E-02    0.264E-01
RMM:   5    -0.233027765941E+04    0.52315E-03   -0.19571E-03  5024   0.262E-02    0.189E-01
RMM:   6    -0.233027763020E+04    0.29213E-04   -0.16307E-03  5218   0.223E-02    0.186E-01
RMM:   7    -0.233027734184E+04    0.28836E-03   -0.49166E-04  4558   0.148E-02    0.474E-02
RMM:   8    -0.233027732118E+04    0.20657E-04   -0.72170E-05  3056   0.586E-03    0.246E-02
RMM:   9    -0.233027731603E+04    0.51547E-05   -0.28677E-05  2912   0.456E-03
  29 F= -.23512956E+04 E0= -.23512956E+04  d E =-.267306E-01  mag=     6.0000
       N       E                     dE             d eps       ncg     rms          rms(c)
DAV:   1    -0.233020751418E+04    0.69807E-01   -0.48840E+00  4480   0.197E+00    0.714E-01
RMM:   2    -0.233029180559E+04   -0.84291E-01   -0.86449E-01  6104   0.419E-01    0.676E-01
RMM:   3    -0.233029868898E+04   -0.68834E-02   -0.97451E-02  5791   0.167E-01    0.434E-01
RMM:   4    -0.233029783390E+04    0.85508E-03   -0.92006E-03  5526   0.361E-02    0.210E-01
RMM:   5    -0.233029757742E+04    0.25648E-03   -0.10185E-03  4610   0.175E-02    0.169E-01
RMM:   6    -0.233029744191E+04    0.13551E-03   -0.91093E-04  4944   0.162E-02    0.132E-01
RMM:   7    -0.233029730363E+04    0.13828E-03   -0.32119E-04  4201   0.117E-02    0.397E-02
RMM:   8    -0.233029729359E+04    0.10041E-04   -0.55502E-05  2998   0.631E-03    0.214E-02
RMM:   9    -0.233029729326E+04    0.32822E-06   -0.21162E-05  2904   0.404E-03
  30 F= -.23513154E+04 E0= -.23513154E+04  d E =-.197255E-01  mag=     6.0000
       N       E                     dE             d eps       ncg     rms          rms(c)
DAV:   1    -0.232991244003E+04    0.38485E+00   -0.21698E+01  4472   0.417E+00    0.152E+00
RMM:   2    -0.233029451172E+04   -0.38207E+00   -0.39183E+00  6166   0.904E-01    0.147E+00
RMM:   3    -0.233032377167E+04   -0.29260E-01   -0.46083E-01  5859   0.351E-01    0.873E-01
RMM:   4    -0.233032076648E+04    0.30052E-02   -0.41234E-02  5772   0.757E-02    0.456E-01
RMM:   5    -0.233031983623E+04    0.93025E-03   -0.48187E-03  5327   0.355E-02    0.394E-01
RMM:   6    -0.233031868029E+04    0.11559E-02   -0.39993E-03  5507   0.327E-02    0.244E-01
RMM:   7    -0.233031826288E+04    0.41741E-03   -0.14018E-03  4925   0.228E-02    0.865E-02
RMM:   8    -0.233031821636E+04    0.46523E-04   -0.27801E-04  3832   0.118E-02    0.537E-02
RMM:   9    -0.233031819910E+04    0.17256E-04   -0.11401E-04  3083   0.742E-03    0.173E-02
RMM:  10    -0.233031820784E+04   -0.87373E-05   -0.19625E-05  2923   0.388E-03
  31 F= -.23513357E+04 E0= -.23513357E+04  d E =-.400942E-01  mag=     6.0000
       N       E                     dE             d eps       ncg     rms          rms(c)
DAV:   1    -0.233027711024E+04    0.41089E-01   -0.27121E+00  4608   0.139E+00    0.559E-01
RMM:   2    -0.233033343145E+04   -0.56321E-01   -0.57547E-01  6296   0.322E-01    0.549E-01
RMM:   3    -0.233033801743E+04   -0.45860E-02   -0.65420E-02  5850   0.128E-01    0.328E-01
RMM:   4    -0.233033759485E+04    0.42257E-03   -0.60165E-03  5154   0.271E-02    0.157E-01
RMM:   5    -0.233033744352E+04    0.15133E-03   -0.51380E-04  3793   0.120E-02    0.123E-01
RMM:   6    -0.233033737864E+04    0.64874E-04   -0.47308E-04  4236   0.119E-02    0.103E-01
RMM:   7    -0.233033729231E+04    0.86332E-04   -0.21400E-04  3743   0.929E-03    0.295E-02
RMM:   8    -0.233033728918E+04    0.31326E-05   -0.36667E-05  2974   0.568E-03
  32 F= -.23513545E+04 E0= -.23513545E+04  d E =-.187232E-01  mag=     6.0000
       N       E                     dE             d eps       ncg     rms          rms(c)
DAV:   1    -0.232983032580E+04    0.50697E+00   -0.24301E+01  4472   0.417E+00    0.171E+00
RMM:   2    -0.233035602296E+04   -0.52570E+00   -0.53622E+00  6362   0.100E+00    0.175E+00
RMM:   3    -0.233039138116E+04   -0.35358E-01   -0.62766E-01  5994   0.389E-01    0.943E-01
RMM:   4    -0.233038857840E+04    0.28028E-02   -0.55441E-02  5820   0.816E-02    0.503E-01
RMM:   5    -0.233038757375E+04    0.10047E-02   -0.53190E-03  5361   0.336E-02    0.440E-01
RMM:   6    -0.233038593927E+04    0.16345E-02   -0.39894E-03  5509   0.314E-02    0.250E-01
RMM:   7    -0.233038550850E+04    0.43077E-03   -0.19228E-03  4850   0.245E-02    0.831E-02
RMM:   8    -0.233038548558E+04    0.22920E-04   -0.33966E-04  3934   0.134E-02    0.587E-02
RMM:   9    -0.233038547794E+04    0.76305E-05   -0.14882E-04  3159   0.782E-03    0.218E-02
RMM:  10    -0.233038549337E+04   -0.15430E-04   -0.21603E-05  2941   0.420E-03    0.126E-02
RMM:  11    -0.233038551206E+04   -0.18687E-04   -0.11424E-05  2880   0.325E-03    0.619E-03
RMM:  12    -0.233038552436E+04   -0.12298E-04   -0.51761E-06  2860   0.267E-03    0.445E-03
RMM:  13    -0.233038553236E+04   -0.80021E-05   -0.38018E-06  2734   0.216E-03
  33 F= -.23514016E+04 E0= -.23514016E+04  d E =-.658339E-01  mag=     6.0000
       N       E                     dE             d eps       ncg     rms          rms(c)
DAV:   1    -0.232808368502E+04    0.23018E+01   -0.96691E+01  4472   0.836E+00    0.353E+00
RMM:   2    -0.233040502043E+04   -0.23213E+01   -0.23475E+01  6425   0.216E+00    0.398E+00
RMM:   3    -0.233044625540E+04   -0.41235E-01   -0.25251E+00  6012   0.787E-01    0.170E+00
RMM:   4    -0.233044200157E+04    0.42538E-02   -0.22141E-01  5811   0.160E-01    0.109E+00
RMM:   5    -0.233043842335E+04    0.35782E-02   -0.24609E-02  5670   0.700E-02    0.958E-01
RMM:   6    -0.233043002550E+04    0.83978E-02   -0.15619E-02  5421   0.613E-02    0.488E-01
RMM:   7    -0.233042857654E+04    0.14490E-02   -0.97100E-03  4955   0.540E-02    0.173E-01
RMM:   8    -0.233042840591E+04    0.17063E-03   -0.10241E-03  4798   0.263E-02    0.652E-02
RMM:   9    -0.233042845356E+04   -0.47651E-04   -0.28664E-04  4035   0.953E-03    0.449E-02
RMM:  10    -0.233042849969E+04   -0.46123E-04   -0.91618E-05  3086   0.770E-03    0.229E-02
RMM:  11    -0.233042854298E+04   -0.43291E-04   -0.26229E-05  2984   0.440E-03    0.116E-02
RMM:  12    -0.233042857907E+04   -0.36094E-04   -0.13871E-05  2892   0.399E-03    0.845E-03
RMM:  13    -0.233042860273E+04   -0.23661E-04   -0.10006E-05  2869   0.345E-03    0.488E-03
RMM:  14    -0.233042861570E+04   -0.12970E-04   -0.76802E-06  2841   0.311E-03    0.271E-03
RMM:  15    -0.233042862039E+04   -0.46844E-05   -0.43720E-06  2763   0.266E-03
  34 F= -.23514423E+04 E0= -.23514423E+04  d E =-.106542E+00  mag=     6.0000
       N       E                     dE             d eps       ncg     rms          rms(c)
DAV:   1    -0.233033269034E+04    0.95925E-01   -0.51541E+00  4560   0.186E+00    0.769E-01
RMM:   2    -0.233044361036E+04   -0.11092E+00   -0.11422E+00  6426   0.451E-01    0.709E-01
RMM:   3    -0.233045377246E+04   -0.10162E-01   -0.13391E-01  6017   0.180E-01    0.476E-01
RMM:   4    -0.233045261006E+04    0.11624E-02   -0.11605E-02  5510   0.372E-02    0.214E-01
RMM:   5    -0.233045228756E+04    0.32249E-03   -0.98973E-04  4228   0.152E-02    0.158E-01
RMM:   6    -0.233045226124E+04    0.26317E-04   -0.94859E-04  4840   0.159E-02    0.157E-01
RMM:   7    -0.233045204689E+04    0.21436E-03   -0.43033E-04  4257   0.119E-02    0.439E-02
RMM:   8    -0.233045203208E+04    0.14813E-04   -0.73519E-05  3067   0.655E-03    0.248E-02
RMM:   9    -0.233045202705E+04    0.50242E-05   -0.26064E-05  2898   0.423E-03
  35 F= -.23514648E+04 E0= -.23514648E+04  d E =-.225673E-01  mag=     6.0000
       N       E                     dE             d eps       ncg     rms          rms(c)
DAV:   1    -0.232936692715E+04    0.10851E+01   -0.46139E+01  4472   0.561E+00    0.238E+00
RMM:   2    -0.233043916519E+04   -0.10722E+01   -0.11001E+01  6483   0.144E+00    0.240E+00
RMM:   3    -0.233050980850E+04   -0.70643E-01   -0.12789E+00  6125   0.541E-01    0.139E+00
RMM:   4    -0.233050065843E+04    0.91501E-02   -0.10770E-01  5990   0.112E-01    0.716E-01
RMM:   5    -0.233049871413E+04    0.19443E-02   -0.10480E-02  5529   0.447E-02    0.631E-01
RMM:   6    -0.233049540748E+04    0.33067E-02   -0.75703E-03  5650   0.415E-02    0.362E-01
RMM:   7    -0.233049457795E+04    0.82953E-03   -0.42617E-03  4968   0.339E-02    0.123E-01
RMM:   8    -0.233049454211E+04    0.35845E-04   -0.76124E-04  4472   0.198E-02    0.954E-02
RMM:   9    -0.233049447404E+04    0.68063E-04   -0.29158E-04  3443   0.976E-03    0.291E-02
RMM:  10    -0.233049449581E+04   -0.21767E-04   -0.54787E-05  3025   0.505E-03    0.139E-02
RMM:  11    -0.233049452242E+04   -0.26603E-04   -0.14492E-05  2918   0.376E-03    0.780E-03
RMM:  12    -0.233049454266E+04   -0.20246E-04   -0.71510E-06  2873   0.300E-03    0.551E-03
RMM:  13    -0.233049455683E+04   -0.14171E-04   -0.42872E-06  2801   0.240E-03    0.384E-03
RMM:  14    -0.233049456547E+04   -0.86413E-05   -0.33450E-06  2685   0.208E-03
  36 F= -.23515048E+04 E0= -.23515048E+04  d E =-.625298E-01  mag=     6.0000
       N       E                     dE             d eps       ncg     rms          rms(c)
DAV:   1    -0.233034397275E+04    0.15058E+00   -0.66817E+00  4528   0.213E+00    0.869E-01
RMM:   2    -0.233048695719E+04   -0.14298E+00   -0.14820E+00  6436   0.516E-01    0.775E-01
RMM:   3    -0.233050085890E+04   -0.13902E-01   -0.17403E-01  6056   0.201E-01    0.567E-01
RMM:   4    -0.233049895395E+04    0.19050E-02   -0.14680E-02  5688   0.423E-02    0.243E-01
RMM:   5    -0.233049850159E+04    0.45236E-03   -0.11962E-03  4455   0.170E-02    0.173E-01
RMM:   6    -0.233049853668E+04   -0.35086E-04   -0.13229E-03  5048   0.184E-02    0.191E-01
RMM:   7    -0.233049822335E+04    0.31333E-03   -0.54931E-04  4513   0.131E-02    0.550E-02
RMM:   8    -0.233049819757E+04    0.25780E-04   -0.97367E-05  3144   0.658E-03    0.292E-02
RMM:   9    -0.233049818659E+04    0.10976E-04   -0.32513E-05  2894   0.479E-03    0.981E-03
RMM:  10    -0.233049818804E+04   -0.14488E-05   -0.10956E-05  2917   0.246E-03
  37 F= -.23515074E+04 E0= -.23515074E+04  d E =-.651676E-01  mag=     6.0000
       N       E                     dE             d eps       ncg     rms          rms(c)
DAV:   1    -0.233051264699E+04   -0.14460E-01   -0.75488E-01  4656   0.815E-01    0.339E-01
RMM:   2    -0.233052655642E+04   -0.13909E-01   -0.13891E-01  6058   0.187E-01    0.347E-01
RMM:   3    -0.233052692452E+04   -0.36810E-03   -0.14251E-02  5730   0.692E-02    0.207E-01
RMM:   4    -0.233052658113E+04    0.34339E-03   -0.14305E-03  4782   0.172E-02    0.781E-02
RMM:   5    -0.233052651504E+04    0.66092E-04   -0.19757E-04  4050   0.107E-02    0.566E-02
RMM:   6    -0.233052653484E+04   -0.19795E-04   -0.17028E-04  3659   0.898E-03    0.741E-02
RMM:   7    -0.233052648439E+04    0.50446E-04   -0.60675E-05  3018   0.707E-03    0.109E-02
RMM:   8    -0.233052648450E+04   -0.11522E-06   -0.10482E-05  2901   0.390E-03
  38 F= -.23515351E+04 E0= -.23515351E+04  d E =-.277044E-01  mag=     6.0000
       N       E                     dE             d eps       ncg     rms          rms(c)
DAV:   1    -0.233045858516E+04    0.67899E-01   -0.67830E+00  4472   0.244E+00    0.102E+00
RMM:   2    -0.233058433021E+04   -0.12575E+00   -0.12556E+00  6058   0.568E-01    0.105E+00
RMM:   3    -0.233058754305E+04   -0.32128E-02   -0.13330E-01  5859   0.211E-01    0.621E-01
RMM:   4    -0.233058458663E+04    0.29564E-02   -0.12993E-02  5369   0.513E-02    0.234E-01
RMM:   5    -0.233058395829E+04    0.62834E-03   -0.17818E-03  5118   0.307E-02    0.163E-01
RMM:   6    -0.233058414953E+04   -0.19124E-03   -0.14760E-03  5520   0.237E-02    0.221E-01
RMM:   7    -0.233058368907E+04    0.46046E-03   -0.52255E-04  4855   0.161E-02    0.375E-02
RMM:   8    -0.233058368033E+04    0.87408E-05   -0.71742E-05  3040   0.607E-03
  39 F= -.23515906E+04 E0= -.23515906E+04  d E =-.831435E-01  mag=     6.0000
       N       E                     dE             d eps       ncg     rms          rms(c)
DAV:   1    -0.233006345138E+04    0.52024E+00   -0.27022E+01  4472   0.488E+00    0.205E+00
RMM:   2    -0.233057726391E+04   -0.51381E+00   -0.51401E+00  6096   0.116E+00    0.211E+00
RMM:   3    -0.233058958092E+04   -0.12317E-01   -0.55359E-01  5840   0.423E-01    0.126E+00
RMM:   4    -0.233057765037E+04    0.11931E-01   -0.52053E-02  5439   0.104E-01    0.472E-01
RMM:   5    -0.233057518616E+04    0.24642E-02   -0.74052E-03  5190   0.609E-02    0.342E-01
RMM:   6    -0.233057572660E+04   -0.54044E-03   -0.59301E-03  5777   0.468E-02    0.430E-01
RMM:   7    -0.233057399688E+04    0.17297E-02   -0.21004E-03  5501   0.314E-02    0.849E-02
RMM:   8    -0.233057395477E+04    0.42106E-04   -0.30387E-04  4228   0.110E-02    0.446E-02
RMM:   9    -0.233057393906E+04    0.15714E-04   -0.10669E-04  3385   0.892E-03    0.210E-02
RMM:  10    -0.233057394445E+04   -0.53933E-05   -0.40809E-05  3221   0.536E-03
  40 F= -.23515774E+04 E0= -.23515774E+04  d E =-.699988E-01  mag=     6.0000
       N       E                     dE             d eps       ncg     rms          rms(c)
DAV:   1    -0.233042835452E+04    0.14558E+00   -0.90982E+00  4472   0.283E+00    0.119E+00
RMM:   2    -0.233060121462E+04   -0.17286E+00   -0.17344E+00  6086   0.670E-01    0.122E+00
RMM:   3    -0.233060613654E+04   -0.49219E-02   -0.18646E-01  5899   0.249E-01    0.753E-01
RMM:   4    -0.233060120992E+04    0.49266E-02   -0.18124E-02  5338   0.604E-02    0.287E-01
RMM:   5    -0.233060078707E+04    0.42285E-03   -0.27998E-03  5401   0.350E-02    0.282E-01
RMM:   6    -0.233060030606E+04    0.48101E-03   -0.21857E-03  5623   0.270E-02    0.209E-01
RMM:   7    -0.233059993228E+04    0.37378E-03   -0.79296E-04  4914   0.201E-02    0.380E-02
RMM:   8    -0.233059990900E+04    0.23283E-04   -0.89062E-05  3198   0.870E-03    0.212E-02
RMM:   9    -0.233059990146E+04    0.75420E-05   -0.45074E-05  3070   0.557E-03
  41 F= -.23516054E+04 E0= -.23516054E+04  d E =-.979171E-01  mag=     6.0000
       N       E                     dE             d eps       ncg     rms          rms(c)
DAV:   1    -0.233060993782E+04   -0.10029E-01   -0.76740E-01  4576   0.792E-01    0.344E-01
RMM:   2    -0.233062683895E+04   -0.16901E-01   -0.16751E-01  6215   0.194E-01    0.374E-01
RMM:   3    -0.233062716893E+04   -0.32997E-03   -0.16367E-02  5851   0.682E-02    0.197E-01
RMM:   4    -0.233062688172E+04    0.28720E-03   -0.16298E-03  4515   0.159E-02    0.774E-02
RMM:   5    -0.233062682218E+04    0.59542E-04   -0.15302E-04  3406   0.849E-03    0.622E-02
RMM:   6    -0.233062682514E+04   -0.29613E-05   -0.16063E-04  3418   0.847E-03    0.709E-02
RMM:   7    -0.233062678077E+04    0.44369E-04   -0.79508E-05  3066   0.729E-03    0.102E-02
RMM:   8    -0.233062677979E+04    0.98086E-06   -0.11620E-05  2900   0.437E-03
  42 F= -.23516315E+04 E0= -.23516315E+04  d E =-.261686E-01  mag=     6.0000
       N       E                     dE             d eps       ncg     rms          rms(c)
DAV:   1    -0.233054091483E+04    0.85866E-01   -0.68996E+00  4472   0.238E+00    0.104E+00
RMM:   2    -0.233069502211E+04   -0.15411E+00   -0.15241E+00  6240   0.589E-01    0.115E+00
RMM:   3    -0.233069721417E+04   -0.21921E-02   -0.15265E-01  5965   0.207E-01    0.595E-01
RMM:   4    -0.233069489553E+04    0.23186E-02   -0.15135E-02  5625   0.474E-02    0.239E-01
RMM:   5    -0.233069448824E+04    0.40729E-03   -0.15481E-03  5281   0.235E-02    0.221E-01
RMM:   6    -0.233069419705E+04    0.29119E-03   -0.13321E-03  5489   0.199E-02    0.180E-01
RMM:   7    -0.233069392817E+04    0.26888E-03   -0.66033E-04  4818   0.164E-02    0.339E-02
RMM:   8    -0.233069392050E+04    0.76756E-05   -0.71298E-05  3028   0.717E-03
  43 F= -.23516966E+04 E0= -.23516966E+04  d E =-.912235E-01  mag=     6.0000
       N       E                     dE             d eps       ncg     rms          rms(c)
DAV:   1    -0.233014182147E+04    0.55211E+00   -0.27485E+01  4472   0.476E+00    0.208E+00
RMM:   2    -0.233076850444E+04   -0.62668E+00   -0.62274E+00  6270   0.121E+00    0.227E+00
RMM:   3    -0.233078008618E+04   -0.11582E-01   -0.64311E-01  5925   0.420E-01    0.122E+00
RMM:   4    -0.233077055970E+04    0.95265E-02   -0.60449E-02  5836   0.967E-02    0.494E-01
RMM:   5    -0.233076914148E+04    0.14182E-02   -0.64811E-03  5663   0.459E-02    0.474E-01
RMM:   6    -0.233076730381E+04    0.18377E-02   -0.54013E-03  5788   0.392E-02    0.321E-01
RMM:   7    -0.233076647328E+04    0.83053E-03   -0.25786E-03  5177   0.317E-02    0.762E-02
RMM:   8    -0.233076644708E+04    0.26203E-04   -0.29091E-04  4188   0.137E-02    0.424E-02
RMM:   9    -0.233076643197E+04    0.15111E-04   -0.11791E-04  3437   0.763E-03    0.181E-02
RMM:  10    -0.233076644030E+04   -0.83296E-05   -0.27922E-05  2982   0.468E-03
  44 F= -.23517651E+04 E0= -.23517651E+04  d E =-.159714E+00  mag=     6.0000
       N       E                     dE             d eps       ncg     rms          rms(c)
DAV:   1    -0.233074620338E+04    0.20229E-01   -0.40697E+00  4512   0.184E+00    0.759E-01
RMM:   2    -0.233083207099E+04   -0.85868E-01   -0.87345E-01  6241   0.453E-01    0.707E-01
RMM:   3    -0.233083675783E+04   -0.46868E-02   -0.86469E-02  5993   0.159E-01    0.464E-01
RMM:   4    -0.233083505234E+04    0.17055E-02   -0.85405E-03  5615   0.373E-02    0.200E-01
RMM:   5    -0.233083475709E+04    0.29525E-03   -0.10469E-03  5080   0.197E-02    0.171E-01
RMM:   6    -0.233083459249E+04    0.16460E-03   -0.10160E-03  5293   0.175E-02    0.145E-01
RMM:   7    -0.233083442059E+04    0.17190E-03   -0.37489E-04  4488   0.128E-02    0.346E-02
RMM:   8    -0.233083440625E+04    0.14344E-04   -0.49357E-05  2988   0.591E-03    0.190E-02
RMM:   9    -0.233083440167E+04    0.45742E-05   -0.27291E-05  2905   0.439E-03
  45 F= -.23518310E+04 E0= -.23518310E+04  d E =-.659643E-01  mag=     6.0000
       N       E                     dE             d eps       ncg     rms          rms(c)
DAV:   1    -0.233012905333E+04    0.70535E+00   -0.36416E+01  4472   0.553E+00    0.227E+00
RMM:   2    -0.233090697911E+04   -0.77793E+00   -0.80128E+00  6287   0.138E+00    0.190E+00
RMM:   3    -0.233097365034E+04   -0.66671E-01   -0.90498E-01  5865   0.533E-01    0.155E+00
RMM:   4    -0.233095440460E+04    0.19246E-01   -0.80909E-02  6108   0.117E-01    0.642E-01
RMM:   5    -0.233095160938E+04    0.27952E-02   -0.99483E-03  5735   0.533E-02    0.532E-01
RMM:   6    -0.233094944268E+04    0.21667E-02   -0.92120E-03  5746   0.492E-02    0.417E-01
RMM:   7    -0.233094798402E+04    0.14587E-02   -0.38666E-03  5408   0.368E-02    0.166E-01
RMM:   8    -0.233094771465E+04    0.26937E-03   -0.68687E-04  4796   0.184E-02    0.675E-02
RMM:   9    -0.233094762624E+04    0.88412E-04   -0.21779E-04  3751   0.101E-02    0.244E-02
RMM:  10    -0.233094762183E+04    0.44112E-05   -0.84638E-05  3334   0.670E-03
  46 F= -.23519385E+04 E0= -.23519385E+04  d E =-.173387E+00  mag=     6.0000
       N       E                     dE             d eps       ncg     rms          rms(c)
DAV:   1    -0.233089881957E+04    0.48807E-01   -0.68424E+00  4512   0.246E+00    0.917E-01
RMM:   2    -0.233101739011E+04   -0.11857E+00   -0.12294E+00  6206   0.555E-01    0.701E-01
RMM:   3    -0.233102743402E+04   -0.10044E-01   -0.13092E-01  5952   0.205E-01    0.590E-01
RMM:   4    -0.233102448302E+04    0.29510E-02   -0.12635E-02  5838   0.467E-02    0.256E-01
RMM:   5    -0.233102409717E+04    0.38584E-03   -0.17003E-03  5333   0.234E-02    0.222E-01
RMM:   6    -0.233102368170E+04    0.41547E-03   -0.16433E-03  5466   0.218E-02    0.149E-01
RMM:   7    -0.233102351933E+04    0.16237E-03   -0.57641E-04  4816   0.152E-02    0.432E-02
RMM:   8    -0.233102349627E+04    0.23062E-04   -0.57576E-05  3072   0.692E-03    0.213E-02
RMM:   9    -0.233102348947E+04    0.67982E-05   -0.34439E-05  2918   0.460E-03
  47 F= -.23520118E+04 E0= -.23520118E+04  d E =-.733711E-01  mag=     6.0000
       N       E                     dE             d eps       ncg     rms          rms(c)
DAV:   1    -0.233035529840E+04    0.66820E+00   -0.40622E+01  4488   0.601E+00    0.223E+00
RMM:   2    -0.233107100358E+04   -0.71571E+00   -0.75141E+00  6234   0.138E+00    0.145E+00
RMM:   3    -0.233114740120E+04   -0.76398E-01   -0.83064E-01  5902   0.495E-01    0.157E+00
RMM:   4    -0.233112702822E+04    0.20373E-01   -0.76402E-02  6302   0.114E-01    0.638E-01
RMM:   5    -0.233112390397E+04    0.31242E-02   -0.10870E-02  5587   0.537E-02    0.479E-01
RMM:   6    -0.233112290520E+04    0.99877E-03   -0.10045E-02  5854   0.502E-02    0.461E-01
RMM:   7    -0.233112103903E+04    0.18662E-02   -0.43673E-03  5511   0.371E-02    0.149E-01
RMM:   8    -0.233112082784E+04    0.21119E-03   -0.50443E-04  4583   0.170E-02    0.583E-02
RMM:   9    -0.233112075992E+04    0.67923E-04   -0.18295E-04  3649   0.916E-03    0.238E-02
RMM:  10    -0.233112075427E+04    0.56460E-05   -0.68654E-05  3084   0.615E-03
  48 F= -.23521031E+04 E0= -.23521031E+04  d E =-.164660E+00  mag=     6.0000
       N       E                     dE             d eps       ncg     rms          rms(c)
DAV:   1    -0.233098502025E+04    0.13574E+00   -0.12683E+01  4520   0.333E+00    0.118E+00
RMM:   2    -0.233119664855E+04   -0.21163E+00   -0.22124E+00  6239   0.743E-01    0.875E-01
RMM:   3    -0.233121814390E+04   -0.21495E-01   -0.25016E-01  5912   0.277E-01    0.809E-01
RMM:   4    -0.233121317317E+04    0.49707E-02   -0.22905E-02  6090   0.614E-02    0.351E-01
RMM:   5    -0.233121254846E+04    0.62471E-03   -0.31551E-03  5528   0.288E-02    0.304E-01
RMM:   6    -0.233121177224E+04    0.77622E-03   -0.29999E-03  5618   0.281E-02    0.200E-01
RMM:   7    -0.233121147039E+04    0.30185E-03   -0.10733E-03  5176   0.197E-02    0.616E-02
RMM:   8    -0.233121142143E+04    0.48966E-04   -0.99519E-05  3359   0.892E-03    0.287E-02
RMM:   9    -0.233121140268E+04    0.18741E-04   -0.56685E-05  3000   0.543E-03    0.102E-02
RMM:  10    -0.233121140199E+04    0.69036E-06   -0.16939E-05  2927   0.374E-03
  49 F= -.23521904E+04 E0= -.23521904E+04  d E =-.872847E-01  mag=     6.0000
       N       E                     dE             d eps       ncg     rms          rms(c)
DAV:   1    -0.233044606093E+04    0.76534E+00   -0.45688E+01  4488   0.632E+00    0.223E+00
RMM:   2    -0.233122620009E+04   -0.78014E+00   -0.82374E+00  6260   0.142E+00    0.145E+00
RMM:   3    -0.233132012787E+04   -0.93928E-01   -0.98846E-01  5866   0.541E-01    0.164E+00
RMM:   4    -0.233129968674E+04    0.20441E-01   -0.85108E-02  6376   0.114E-01    0.673E-01
RMM:   5    -0.233129608433E+04    0.36024E-02   -0.11510E-02  5570   0.523E-02    0.494E-01
RMM:   6    -0.233129548825E+04    0.59608E-03   -0.11255E-02  5889   0.507E-02    0.513E-01
RMM:   7    -0.233129316638E+04    0.23219E-02   -0.52315E-03  5579   0.390E-02    0.158E-01
RMM:   8    -0.233129291095E+04    0.25543E-03   -0.54618E-04  4578   0.181E-02    0.612E-02
RMM:   9    -0.233129282868E+04    0.82271E-04   -0.21543E-04  3735   0.922E-03    0.270E-02
RMM:  10    -0.233129281442E+04    0.14261E-04   -0.82601E-05  3125   0.666E-03    0.114E-02
RMM:  11    -0.233129281365E+04    0.76997E-06   -0.21541E-05  2935   0.442E-03
  50 F= -.23522655E+04 E0= -.23522655E+04  d E =-.162424E+00  mag=     6.0000
       N       E                     dE             d eps       ncg     rms          rms(c)
DAV:   1    -0.233121043180E+04    0.82383E-01   -0.10767E+01  4524   0.308E+00    0.106E+00
RMM:   2    -0.233137547582E+04   -0.16504E+00   -0.16980E+00  6199   0.661E-01    0.100E+00
RMM:   3    -0.233138776779E+04   -0.12292E-01   -0.18877E-01  5950   0.240E-01    0.765E-01
RMM:   4    -0.233138404056E+04    0.37272E-02   -0.17865E-02  5811   0.553E-02    0.343E-01
RMM:   5    -0.233138367312E+04    0.36744E-03   -0.27359E-03  5551   0.270E-02    0.302E-01
RMM:   6    -0.233138271636E+04    0.95676E-03   -0.23754E-03  5153   0.277E-02    0.138E-01
RMM:   7    -0.233138263418E+04    0.82172E-04   -0.73762E-04  4795   0.191E-02    0.432E-02
RMM:   8    -0.233138260947E+04    0.24716E-04   -0.66179E-05  3286   0.731E-03    0.233E-02
RMM:   9    -0.233138259753E+04    0.11938E-04   -0.43782E-05  2986   0.544E-03    0.851E-03
RMM:  10    -0.233138259807E+04   -0.53455E-06   -0.13219E-05  2914   0.346E-03
  51 F= -.23523527E+04 E0= -.23523527E+04  d E =-.871609E-01  mag=     6.0000
       N       E                     dE             d eps       ncg     rms          rms(c)
DAV:   1    -0.233062065559E+04    0.76194E+00   -0.51203E+01  4472   0.678E+00    0.230E+00
RMM:   2    -0.233142350366E+04   -0.80285E+00   -0.83662E+00  6267   0.148E+00    0.198E+00
RMM:   3    -0.233150668470E+04   -0.83181E-01   -0.98731E-01  5946   0.540E-01    0.187E+00
RMM:   4    -0.233148196021E+04    0.24724E-01   -0.89345E-02  6102   0.124E-01    0.707E-01
RMM:   5    -0.233147965526E+04    0.23049E-02   -0.13776E-02  5683   0.589E-02    0.612E-01
RMM:   6    -0.233147686041E+04    0.27949E-02   -0.11818E-02  5753   0.557E-02    0.419E-01
RMM:   7    -0.233147557767E+04    0.12827E-02   -0.41963E-03  5291   0.395E-02    0.156E-01
RMM:   8    -0.233147536794E+04    0.20973E-03   -0.50993E-04  4538   0.191E-02    0.624E-02
RMM:   9    -0.233147529470E+04    0.73236E-04   -0.23174E-04  3892   0.948E-03    0.236E-02
RMM:  10    -0.233147529366E+04    0.10429E-05   -0.76970E-05  3155   0.660E-03
  52 F= -.23524396E+04 E0= -.23524396E+04  d E =-.174057E+00  mag=     6.0000
       N       E                     dE             d eps       ncg     rms          rms(c)
DAV:   1    -0.233148675550E+04   -0.11461E-01   -0.11558E+01  4480   0.327E+00    0.105E+00
RMM:   2    -0.233158921401E+04   -0.10246E+00   -0.10283E+00  5968   0.613E-01    0.118E+00
RMM:   3    -0.233158707735E+04    0.21367E-02   -0.10645E-01  5768   0.218E-01    0.714E-01
RMM:   4    -0.233158396847E+04    0.31089E-02   -0.12179E-02  5318   0.582E-02    0.338E-01
RMM:   5    -0.233158382060E+04    0.14787E-03   -0.40684E-03  5675   0.392E-02    0.344E-01
RMM:   6    -0.233158259025E+04    0.12303E-02   -0.22712E-03  5119   0.303E-02    0.107E-01
RMM:   7    -0.233158254821E+04    0.42042E-04   -0.41241E-04  4370   0.183E-02    0.319E-02
RMM:   8    -0.233158254887E+04   -0.65695E-06   -0.63469E-05  3424   0.647E-03
  53 F= -.23525447E+04 E0= -.23525447E+04  d E =-.105061E+00  mag=     6.0000
       N       E                     dE             d eps       ncg     rms          rms(c)
DAV:   1    -0.233144199711E+04    0.14055E+00   -0.24868E+01  4456   0.478E+00    0.155E+00
RMM:   2    -0.233166368813E+04   -0.22169E+00   -0.22285E+00  5953   0.896E-01    0.173E+00
RMM:   3    -0.233165840946E+04    0.52787E-02   -0.23141E-01  5750   0.318E-01    0.102E+00
RMM:   4    -0.233165205648E+04    0.63530E-02   -0.26287E-02  5317   0.853E-02    0.487E-01
RMM:   5    -0.233165187343E+04    0.18304E-03   -0.86819E-03  5779   0.571E-02    0.511E-01
RMM:   6    -0.233164914194E+04    0.27315E-02   -0.50187E-03  5182   0.439E-02    0.158E-01
RMM:   7    -0.233164902756E+04    0.11439E-03   -0.87388E-04  4637   0.261E-02    0.474E-02
RMM:   8    -0.233164902023E+04    0.73247E-05   -0.13442E-04  4047   0.902E-03    0.240E-02
RMM:   9    -0.233164901825E+04    0.19843E-05   -0.48279E-05  3306   0.702E-03
  54 F= -.23526078E+04 E0= -.23526078E+04  d E =-.168196E+00  mag=     6.0000
       N       E                     dE             d eps       ncg     rms          rms(c)
DAV:   1    -0.233164966329E+04   -0.64306E-03   -0.14969E+01  4512   0.374E+00    0.122E+00
RMM:   2    -0.233173558524E+04   -0.85922E-01   -0.92106E-01  5813   0.664E-01    0.875E-01
RMM:   3    -0.233173950576E+04   -0.39205E-02   -0.97780E-02  5574   0.248E-01    0.896E-01
RMM:   4    -0.233173307243E+04    0.64333E-02   -0.12117E-02  5473   0.688E-02    0.355E-01
RMM:   5    -0.233173323366E+04   -0.16123E-03   -0.62581E-03  5563   0.506E-02    0.417E-01
RMM:   6    -0.233173158963E+04    0.16440E-02   -0.33325E-03  5598   0.343E-02    0.106E-01
RMM:   7    -0.233173152360E+04    0.66022E-04   -0.43616E-04  4576   0.182E-02    0.512E-02
RMM:   8    -0.233173150493E+04    0.18670E-04   -0.80123E-05  3429   0.752E-03    0.210E-02
RMM:   9    -0.233173150062E+04    0.43114E-05   -0.36757E-05  3265   0.576E-03
  55 F= -.23526887E+04 E0= -.23526887E+04  d E =-.808876E-01  mag=     6.0000
       N       E                     dE             d eps       ncg     rms          rms(c)
DAV:   1    -0.233172718518E+04    0.43198E-02   -0.21239E+00  4680   0.141E+00    0.457E-01
RMM:   2    -0.233173926690E+04   -0.12082E-01   -0.13067E-01  5798   0.251E-01    0.311E-01
RMM:   3    -0.233173992377E+04   -0.65687E-03   -0.13873E-02  5475   0.954E-02    0.329E-01
RMM:   4    -0.233173902363E+04    0.90015E-03   -0.17493E-03  5201   0.261E-02    0.135E-01
RMM:   5    -0.233173904585E+04   -0.22224E-04   -0.91958E-04  5159   0.199E-02    0.159E-01
RMM:   6    -0.233173880768E+04    0.23817E-03   -0.48761E-04  4878   0.137E-02    0.393E-02
RMM:   7    -0.233173879615E+04    0.11532E-04   -0.60779E-05  3208   0.780E-03    0.171E-02
RMM:   8    -0.233173879369E+04    0.24600E-05   -0.13522E-05  2912   0.400E-03
  56 F= -.23526954E+04 E0= -.23526954E+04  d E =-.875769E-01  mag=     6.0000
       N       E                     dE             d eps       ncg     rms          rms(c)
DAV:   1    -0.233172914824E+04    0.96479E-02   -0.12368E+01  4496   0.346E+00    0.964E-01
RMM:   2    -0.233180469272E+04   -0.75544E-01   -0.81427E-01  5764   0.595E-01    0.547E-01
RMM:   3    -0.233180984621E+04   -0.51535E-02   -0.81608E-02  5390   0.242E-01    0.524E-01
RMM:   4    -0.233180866314E+04    0.11831E-02   -0.10358E-02  5780   0.556E-02    0.389E-01
RMM:   5    -0.233180754299E+04    0.11202E-02   -0.38214E-03  5130   0.420E-02    0.232E-01
RMM:   6    -0.233180731808E+04    0.22491E-03   -0.20763E-03  5227   0.287E-02    0.174E-01
RMM:   7    -0.233180697426E+04    0.34382E-03   -0.42607E-04  4711   0.163E-02    0.448E-02
RMM:   8    -0.233180693705E+04    0.37209E-04   -0.95021E-05  3499   0.665E-03    0.187E-02
RMM:   9    -0.233180691809E+04    0.18965E-04   -0.28777E-05  3106   0.535E-03    0.101E-02
RMM:  10    -0.233180690921E+04    0.88756E-05   -0.19547E-05  2974   0.476E-03
  57 F= -.23527624E+04 E0= -.23527624E+04  d E =-.670683E-01  mag=     6.0000
       N       E                     dE             d eps       ncg     rms          rms(c)
DAV:   1    -0.233178344759E+04    0.23471E-01   -0.61517E+00  4528   0.245E+00    0.681E-01
RMM:   2    -0.233182088820E+04   -0.37441E-01   -0.40365E-01  5799   0.415E-01    0.397E-01
RMM:   3    -0.233182359662E+04   -0.27084E-02   -0.39801E-02  5481   0.164E-01    0.416E-01
RMM:   4    -0.233182266225E+04    0.93437E-03   -0.50897E-03  5736   0.385E-02    0.256E-01
RMM:   5    -0.233182217314E+04    0.48911E-03   -0.19208E-03  5038   0.298E-02    0.165E-01
RMM:   6    -0.233182201509E+04    0.15805E-03   -0.10252E-03  5004   0.207E-02    0.114E-01
RMM:   7    -0.233182186152E+04    0.15357E-03   -0.19291E-04  4078   0.102E-02    0.324E-02
RMM:   8    -0.233182184025E+04    0.21268E-04   -0.44220E-05  3060   0.567E-03    0.128E-02
RMM:   9    -0.233182182958E+04    0.10667E-04   -0.19487E-05  2972   0.432E-03    0.701E-03
RMM:  10    -0.233182182561E+04    0.39723E-05   -0.10682E-05  2853   0.416E-03
  58 F= -.23527767E+04 E0= -.23527767E+04  d E =-.812804E-01  mag=     6.0000
       N       E                     dE             d eps       ncg     rms          rms(c)
DAV:   1    -0.233174949371E+04    0.72336E-01   -0.13462E+01  4476   0.359E+00    0.109E+00
RMM:   2    -0.233188230954E+04   -0.13282E+00   -0.13719E+00  5916   0.671E-01    0.890E-01
RMM:   3    -0.233189464549E+04   -0.12336E-01   -0.15752E-01  5585   0.277E-01    0.923E-01
RMM:   4    -0.233188947825E+04    0.51672E-02   -0.16431E-02  5546   0.615E-02    0.308E-01
RMM:   5    -0.233188848393E+04    0.99432E-03   -0.35345E-03  5376   0.399E-02    0.168E-01
RMM:   6    -0.233188846119E+04    0.22739E-04   -0.15760E-03  5206   0.271E-02    0.156E-01
RMM:   7    -0.233188826868E+04    0.19251E-03   -0.51610E-04  4560   0.157E-02    0.733E-02
RMM:   8    -0.233188821510E+04    0.53580E-04   -0.77988E-05  2982   0.572E-03    0.208E-02
RMM:   9    -0.233188820732E+04    0.77839E-05   -0.22290E-05  2916   0.430E-03
  59 F= -.23528425E+04 E0= -.23528425E+04  d E =-.658517E-01  mag=     6.0000
       N       E                     dE             d eps       ncg     rms          rms(c)
DAV:   1    -0.233182176991E+04    0.66445E-01   -0.82467E+00  4504   0.282E+00    0.855E-01
RMM:   2    -0.233190355728E+04   -0.81787E-01   -0.84058E-01  5908   0.528E-01    0.749E-01
RMM:   3    -0.233191039052E+04   -0.68332E-02   -0.94351E-02  5576   0.217E-01    0.733E-01
RMM:   4    -0.233190717867E+04    0.32119E-02   -0.10050E-02  5476   0.488E-02    0.236E-01
RMM:   5    -0.233190655300E+04    0.62567E-03   -0.21200E-03  5346   0.315E-02    0.126E-01
RMM:   6    -0.233190655972E+04   -0.67278E-05   -0.93094E-04  5127   0.212E-02    0.123E-01
RMM:   7    -0.233190643042E+04    0.12930E-03   -0.29637E-04  4021   0.119E-02    0.540E-02
RMM:   8    -0.233190640190E+04    0.28519E-04   -0.45233E-05  2935   0.497E-03    0.166E-02
RMM:   9    -0.233190639744E+04    0.44661E-05   -0.15522E-05  2896   0.372E-03
  60 F= -.23528603E+04 E0= -.23528603E+04  d E =-.836628E-01  mag=     6.0000
       N       E                     dE             d eps       ncg     rms          rms(c)
DAV:   1    -0.233176634783E+04    0.14005E+00   -0.15755E+01  4472   0.384E+00    0.130E+00
RMM:   2    -0.233196999351E+04   -0.20365E+00   -0.20338E+00  5998   0.771E-01    0.140E+00
RMM:   3    -0.233198123827E+04   -0.11245E-01   -0.23321E-01  5786   0.301E-01    0.107E+00
RMM:   4    -0.233197491490E+04    0.63234E-02   -0.23832E-02  5423   0.686E-02    0.335E-01
RMM:   5    -0.233197388614E+04    0.10288E-02   -0.41634E-03  5463   0.423E-02    0.245E-01
RMM:   6    -0.233197386680E+04    0.19347E-04   -0.30159E-03  5638   0.310E-02    0.240E-01
RMM:   7    -0.233197327498E+04    0.59182E-03   -0.81775E-04  5199   0.198E-02    0.496E-02
RMM:   8    -0.233197325800E+04    0.16979E-04   -0.10112E-04  3116   0.712E-03    0.211E-02
RMM:   9    -0.233197324923E+04    0.87683E-05   -0.25085E-05  2908   0.474E-03
  61 F= -.23529266E+04 E0= -.23529266E+04  d E =-.662633E-01  mag=     6.0000
       N       E                     dE             d eps       ncg     rms          rms(c)
DAV:   1    -0.233183843285E+04    0.13483E+00   -0.11801E+01  4476   0.332E+00    0.113E+00
RMM:   2    -0.233199281579E+04   -0.15438E+00   -0.15276E+00  5995   0.669E-01    0.132E+00
RMM:   3    -0.233199890202E+04   -0.60862E-02   -0.17232E-01  5793   0.262E-01    0.918E-01
RMM:   4    -0.233199445222E+04    0.44498E-02   -0.17744E-02  5388   0.593E-02    0.290E-01
RMM:   5    -0.233199371598E+04    0.73625E-03   -0.30112E-03  5462   0.365E-02    0.225E-01
RMM:   6    -0.233199359435E+04    0.12163E-03   -0.22795E-03  5618   0.267E-02    0.201E-01
RMM:   7    -0.233199318476E+04    0.40959E-03   -0.59241E-04  5010   0.173E-02    0.358E-02
RMM:   8    -0.233199317406E+04    0.10702E-04   -0.69392E-05  3017   0.666E-03    0.184E-02
RMM:   9    -0.233199316638E+04    0.76755E-05   -0.18425E-05  2923   0.408E-03
  62 F= -.23529460E+04 E0= -.23529460E+04  d E =-.856792E-01  mag=     6.0000
       N       E                     dE             d eps       ncg     rms          rms(c)
DAV:   1    -0.233189126176E+04    0.10191E+00   -0.11380E+01  4476   0.310E+00    0.109E+00
RMM:   2    -0.233205333301E+04   -0.16207E+00   -0.15972E+00  6087   0.653E-01    0.142E+00
RMM:   3    -0.233205730728E+04   -0.39743E-02   -0.17367E-01  5908   0.244E-01    0.850E-01
RMM:   4    -0.233205406851E+04    0.32388E-02   -0.18658E-02  5500   0.563E-02    0.304E-01
RMM:   5    -0.233205367668E+04    0.39182E-03   -0.30982E-03  5552   0.332E-02    0.290E-01
RMM:   6    -0.233205290027E+04    0.77641E-03   -0.22910E-03  5498   0.264E-02    0.166E-01
RMM:   7    -0.233205268786E+04    0.21241E-03   -0.60044E-04  4792   0.180E-02    0.343E-02
RMM:   8    -0.233205267765E+04    0.10209E-04   -0.69121E-05  3090   0.723E-03    0.239E-02
RMM:   9    -0.233205266812E+04    0.95342E-05   -0.23013E-05  2973   0.430E-03
  63 F= -.23530054E+04 E0= -.23530054E+04  d E =-.593831E-01  mag=     6.0000
       N       E                     dE             d eps       ncg     rms          rms(c)
DAV:   1    -0.233143904702E+04    0.61363E+00   -0.45593E+01  4472   0.623E+00    0.217E+00
RMM:   2    -0.233209706053E+04   -0.65801E+00   -0.65086E+00  6120   0.133E+00    0.279E+00
RMM:   3    -0.233212165322E+04   -0.24593E-01   -0.73730E-01  5935   0.492E-01    0.183E+00
RMM:   4    -0.233210582242E+04    0.15831E-01   -0.73422E-02  5592   0.113E-01    0.623E-01
RMM:   5    -0.233210386079E+04    0.19616E-02   -0.12790E-02  5624   0.661E-02    0.570E-01
RMM:   6    -0.233210083413E+04    0.30267E-02   -0.94884E-03  5596   0.527E-02    0.332E-01
RMM:   7    -0.233209994788E+04    0.88625E-03   -0.24769E-03  5121   0.359E-02    0.712E-02
RMM:   8    -0.233209990805E+04    0.39828E-04   -0.29500E-04  4245   0.140E-02    0.481E-02
RMM:   9    -0.233209986568E+04    0.42372E-04   -0.92772E-05  3648   0.763E-03    0.246E-02
RMM:  10    -0.233209984860E+04    0.17083E-04   -0.48802E-05  3110   0.615E-03    0.113E-02
RMM:  11    -0.233209984635E+04    0.22519E-05   -0.12452E-05  2890   0.425E-03
  64 F= -.23530524E+04 E0= -.23530524E+04  d E =-.106438E+00  mag=     6.0000
       N       E                     dE             d eps       ncg     rms          rms(c)
DAV:   1    -0.233190912135E+04    0.19073E+00   -0.16073E+01  4472   0.353E+00    0.130E+00
RMM:   2    -0.233215871957E+04   -0.24960E+00   -0.25000E+00  6203   0.770E-01    0.166E+00
RMM:   3    -0.233216990509E+04   -0.11186E-01   -0.27136E-01  5964   0.284E-01    0.113E+00
RMM:   4    -0.233216432562E+04    0.55795E-02   -0.29227E-02  5798   0.660E-02    0.387E-01
RMM:   5    -0.233216366165E+04    0.66397E-03   -0.45744E-03  5605   0.346E-02    0.353E-01
RMM:   6    -0.233216231233E+04    0.13493E-02   -0.34423E-03  5336   0.307E-02    0.173E-01
RMM:   7    -0.233216210770E+04    0.20463E-03   -0.86193E-04  4818   0.211E-02    0.532E-02
RMM:   8    -0.233216209246E+04    0.15237E-04   -0.10183E-04  3429   0.812E-03    0.257E-02
RMM:   9    -0.233216207791E+04    0.14550E-04   -0.32302E-05  2995   0.551E-03    0.108E-02
RMM:  10    -0.233216207532E+04    0.25957E-05   -0.15289E-05  2904   0.387E-03
  65 F= -.23531154E+04 E0= -.23531154E+04  d E =-.630113E-01  mag=     6.0000
       N       E                     dE             d eps       ncg     rms          rms(c)
DAV:   1    -0.233163672215E+04    0.52536E+00   -0.35333E+01  4472   0.523E+00    0.192E+00
RMM:   2    -0.233219205985E+04   -0.55534E+00   -0.55624E+00  6207   0.115E+00    0.248E+00
RMM:   3    -0.233221770060E+04   -0.25641E-01   -0.61623E-01  5970   0.424E-01    0.171E+00
RMM:   4    -0.233220491305E+04    0.12788E-01   -0.64491E-02  5877   0.987E-02    0.591E-01
RMM:   5    -0.233220324008E+04    0.16730E-02   -0.10083E-02  5756   0.504E-02    0.525E-01
RMM:   6    -0.233220014021E+04    0.30999E-02   -0.75714E-03  5252   0.456E-02    0.250E-01
RMM:   7    -0.233219973024E+04    0.40997E-03   -0.19669E-03  5018   0.323E-02    0.842E-02
RMM:   8    -0.233219969264E+04    0.37602E-04   -0.23950E-04  4155   0.118E-02    0.404E-02
RMM:   9    -0.233219965553E+04    0.37103E-04   -0.75999E-05  3393   0.788E-03    0.171E-02
RMM:  10    -0.233219964723E+04    0.83010E-05   -0.36080E-05  3020   0.531E-03
  66 F= -.23531543E+04 E0= -.23531543E+04  d E =-.101831E+00  mag=     6.0000
       N       E                     dE             d eps       ncg     rms          rms(c)
DAV:   1    -0.233185003293E+04    0.34962E+00   -0.24497E+01  4488   0.447E+00    0.168E+00
RMM:   2    -0.233225286119E+04   -0.40283E+00   -0.41182E+00  6177   0.979E-01    0.182E+00
RMM:   3    -0.233228736809E+04   -0.34507E-01   -0.46026E-01  5954   0.371E-01    0.167E+00
RMM:   4    -0.233227319207E+04    0.14176E-01   -0.47726E-02  5778   0.880E-02    0.472E-01
RMM:   5    -0.233227182795E+04    0.13641E-02   -0.79740E-03  5705   0.463E-02    0.394E-01
RMM:   6    -0.233227048040E+04    0.13475E-02   -0.57533E-03  5322   0.384E-02    0.239E-01
RMM:   7    -0.233226990467E+04    0.57573E-03   -0.14545E-03  5265   0.267E-02    0.972E-02
RMM:   8    -0.233226985729E+04    0.47384E-04   -0.21300E-04  4093   0.106E-02    0.326E-02
RMM:   9    -0.233226983795E+04    0.19337E-04   -0.53663E-05  3088   0.717E-03    0.199E-02
RMM:  10    -0.233226983250E+04    0.54468E-05   -0.31983E-05  2971   0.461E-03
  67 F= -.23532255E+04 E0= -.23532255E+04  d E =-.712110E-01  mag=     6.0000
       N       E                     dE             d eps       ncg     rms          rms(c)
DAV:   1    -0.233200646346E+04    0.26337E+00   -0.16463E+01  4512   0.366E+00    0.138E+00
RMM:   2    -0.233227723319E+04   -0.27077E+00   -0.27594E+00  6160   0.793E-01    0.155E+00
RMM:   3    -0.233229846125E+04   -0.21228E-01   -0.30626E-01  5953   0.302E-01    0.135E+00
RMM:   4    -0.233228936294E+04    0.90983E-02   -0.32039E-02  5751   0.718E-02    0.380E-01
RMM:   5    -0.233228846716E+04    0.89578E-03   -0.52940E-03  5587   0.381E-02    0.318E-01
RMM:   6    -0.233228760476E+04    0.86240E-03   -0.37968E-03  5323   0.314E-02    0.196E-01
RMM:   7    -0.233228720932E+04    0.39544E-03   -0.95227E-04  5098   0.216E-02    0.737E-02
RMM:   8    -0.233228718039E+04    0.28924E-04   -0.13264E-04  3725   0.886E-03    0.258E-02
RMM:   9    -0.233228716803E+04    0.12367E-04   -0.37552E-05  2971   0.610E-03    0.158E-02
RMM:  10    -0.233228716581E+04    0.22150E-05   -0.22292E-05  2939   0.406E-03
  68 F= -.23532437E+04 E0= -.23532437E+04  d E =-.894380E-01  mag=     6.0000
       N       E                     dE             d eps       ncg     rms          rms(c)
DAV:   1    -0.233190298635E+04    0.38418E+00   -0.22211E+01  4488   0.415E+00    0.163E+00
RMM:   2    -0.233230625129E+04   -0.40326E+00   -0.41727E+00  6236   0.936E-01    0.150E+00
RMM:   3    -0.233235118401E+04   -0.44933E-01   -0.46611E-01  5969   0.362E-01    0.172E+00
RMM:   4    -0.233233589643E+04    0.15288E-01   -0.47569E-02  6010   0.849E-02    0.446E-01
RMM:   5    -0.233233402223E+04    0.18742E-02   -0.68282E-03  5446   0.414E-02    0.286E-01
RMM:   6    -0.233233335268E+04    0.66955E-03   -0.39888E-03  4969   0.362E-02    0.186E-01
RMM:   7    -0.233233319842E+04    0.15426E-03   -0.13066E-03  4887   0.253E-02    0.134E-01
RMM:   8    -0.233233301803E+04    0.18039E-03   -0.26145E-04  3778   0.949E-03    0.335E-02
RMM:   9    -0.233233300139E+04    0.16641E-04   -0.61720E-05  2983   0.672E-03    0.201E-02
RMM:  10    -0.233233299347E+04    0.79118E-05   -0.31459E-05  2933   0.437E-03
  69 F= -.23532906E+04 E0= -.23532906E+04  d E =-.469349E-01  mag=     6.0000
       N       E                     dE             d eps       ncg     rms          rms(c)
DAV:   1    -0.233226851404E+04    0.64487E-01   -0.36100E+00  4608   0.166E+00    0.659E-01
RMM:   2    -0.233233377289E+04   -0.65259E-01   -0.66865E-01  6206   0.368E-01    0.686E-01
RMM:   3    -0.233233962963E+04   -0.58567E-02   -0.71382E-02  5915   0.143E-01    0.657E-01
RMM:   4    -0.233233750746E+04    0.21222E-02   -0.77205E-03  5487   0.342E-02    0.170E-01
RMM:   5    -0.233233721369E+04    0.29377E-03   -0.98345E-04  4779   0.177E-02    0.103E-01
RMM:   6    -0.233233713191E+04    0.81782E-04   -0.56426E-04  4782   0.149E-02    0.733E-02
RMM:   7    -0.233233710238E+04    0.29533E-04   -0.16630E-04  3248   0.102E-02    0.443E-02
RMM:   8    -0.233233708181E+04    0.20569E-04   -0.29534E-05  2919   0.449E-03    0.117E-02
RMM:   9    -0.233233707908E+04    0.27262E-05   -0.91097E-06  2900   0.292E-03
  70 F= -.23532952E+04 E0= -.23532952E+04  d E =-.514907E-01  mag=     6.0000
       N       E                     dE             d eps       ncg     rms          rms(c)
DAV:   1    -0.233202940966E+04    0.30767E+00   -0.15843E+01  4488   0.328E+00    0.141E+00
RMM:   2    -0.233235113134E+04   -0.32172E+00   -0.33375E+00  6317   0.788E-01    0.115E+00
RMM:   3    -0.233238894694E+04   -0.37816E-01   -0.37464E-01  6030   0.309E-01    0.143E+00
RMM:   4    -0.233237894229E+04    0.10005E-01   -0.39005E-02  6127   0.710E-02    0.401E-01
RMM:   5    -0.233237774872E+04    0.11936E-02   -0.46666E-03  5380   0.312E-02    0.293E-01
RMM:   6    -0.233237735574E+04    0.39298E-03   -0.35132E-03  5534   0.286E-02    0.252E-01
RMM:   7    -0.233237666888E+04    0.68686E-03   -0.12747E-03  5166   0.203E-02    0.953E-02
RMM:   8    -0.233237661734E+04    0.51540E-04   -0.22913E-04  4033   0.108E-02    0.286E-02
RMM:   9    -0.233237660486E+04    0.12482E-04   -0.41485E-05  2993   0.614E-03    0.180E-02
RMM:  10    -0.233237659720E+04    0.76567E-05   -0.22582E-05  2907   0.406E-03
  71 F= -.23533362E+04 E0= -.23533362E+04  d E =-.410495E-01  mag=     6.0000
       N       E                     dE             d eps       ncg     rms          rms(c)
DAV:   1    -0.233225441740E+04    0.12219E+00   -0.58872E+00  4512   0.199E+00    0.860E-01
RMM:   2    -0.233237358279E+04   -0.11917E+00   -0.12310E+00  6341   0.474E-01    0.747E-01
RMM:   3    -0.233238654726E+04   -0.12964E-01   -0.13630E-01  6017   0.188E-01    0.854E-01
RMM:   4    -0.233238307179E+04    0.34755E-02   -0.14596E-02  5802   0.436E-02    0.239E-01
RMM:   5    -0.233238268540E+04    0.38640E-03   -0.17440E-03  4855   0.198E-02    0.179E-01
RMM:   6    -0.233238250249E+04    0.18291E-03   -0.12394E-03  5068   0.178E-02    0.146E-01
RMM:   7    -0.233238226686E+04    0.23562E-03   -0.44096E-04  4673   0.130E-02    0.525E-02
RMM:   8    -0.233238225017E+04    0.16692E-04   -0.72919E-05  3062   0.744E-03    0.164E-02
RMM:   9    -0.233238224510E+04    0.50754E-05   -0.17088E-05  2918   0.459E-03
  72 F= -.23533429E+04 E0= -.23533429E+04  d E =-.476645E-01  mag=     6.0000
       N       E                     dE             d eps       ncg     rms          rms(c)
DAV:   1    -0.233195988836E+04    0.42236E+00   -0.19250E+01  4488   0.365E+00    0.163E+00
RMM:   2    -0.233238087125E+04   -0.42098E+00   -0.43672E+00  6338   0.906E-01    0.124E+00
RMM:   3    -0.233242877207E+04   -0.47901E-01   -0.49900E-01  6015   0.357E-01    0.148E+00
RMM:   4    -0.233241844481E+04    0.10327E-01   -0.50693E-02  6203   0.801E-02    0.469E-01
RMM:   5    -0.233241694050E+04    0.15043E-02   -0.58510E-03  5478   0.328E-02    0.351E-01
RMM:   6    -0.233241610478E+04    0.83572E-03   -0.39540E-03  5556   0.300E-02    0.257E-01
RMM:   7    -0.233241542018E+04    0.68460E-03   -0.15025E-03  5175   0.221E-02    0.113E-01
RMM:   8    -0.233241536281E+04    0.57369E-04   -0.32962E-04  4310   0.138E-02    0.331E-02
RMM:   9    -0.233241535442E+04    0.83912E-05   -0.55458E-05  3079   0.632E-03
  73 F= -.23533784E+04 E0= -.23533784E+04  d E =-.355068E-01  mag=     6.0000
       N       E                     dE             d eps       ncg     rms          rms(c)
DAV:   1    -0.233236982892E+04    0.45534E-01   -0.20215E+00  4624   0.118E+00    0.529E-01
RMM:   2    -0.233241361959E+04   -0.43791E-01   -0.45202E-01  6309   0.288E-01    0.435E-01
RMM:   3    -0.233241812673E+04   -0.45071E-02   -0.49129E-02  5906   0.113E-01    0.478E-01
RMM:   4    -0.233241708468E+04    0.10421E-02   -0.53792E-03  5179   0.264E-02    0.146E-01
RMM:   5    -0.233241696425E+04    0.12042E-03   -0.64288E-04  3618   0.121E-02    0.114E-01
RMM:   6    -0.233241685577E+04    0.10848E-03   -0.39179E-04  3978   0.111E-02    0.729E-02
RMM:   7    -0.233241680168E+04    0.54094E-04   -0.14658E-04  3838   0.862E-03    0.306E-02
RMM:   8    -0.233241679783E+04    0.38428E-05   -0.26897E-05  2912   0.600E-03
  74 F= -.23533806E+04 E0= -.23533806E+04  d E =-.377390E-01  mag=     6.0000
       N       E                     dE             d eps       ncg     rms          rms(c)
DAV:   1    -0.233204967337E+04    0.36713E+00   -0.16458E+01  4472   0.343E+00    0.149E+00
RMM:   2    -0.233241401242E+04   -0.36434E+00   -0.37829E+00  6316   0.864E-01    0.115E+00
RMM:   3    -0.233245377934E+04   -0.39767E-01   -0.43657E-01  5957   0.335E-01    0.128E+00
RMM:   4    -0.233244642567E+04    0.73537E-02   -0.42366E-02  6180   0.738E-02    0.422E-01
RMM:   5    -0.233244523089E+04    0.11948E-02   -0.48077E-03  5369   0.306E-02    0.326E-01
RMM:   6    -0.233244452968E+04    0.70121E-03   -0.32957E-03  5537   0.276E-02    0.232E-01
RMM:   7    -0.233244398187E+04    0.54781E-03   -0.12741E-03  5221   0.205E-02    0.108E-01
RMM:   8    -0.233244392107E+04    0.60798E-04   -0.28063E-04  4265   0.129E-02    0.309E-02
RMM:   9    -0.233244391202E+04    0.90493E-05   -0.52579E-05  3070   0.641E-03
  75 F= -.23534099E+04 E0= -.23534099E+04  d E =-.292612E-01  mag=     6.0000
       N       E                     dE             d eps       ncg     rms          rms(c)
DAV:   1    -0.233241406655E+04    0.29855E-01   -0.12960E+00  4624   0.963E-01    0.419E-01
RMM:   2    -0.233244251920E+04   -0.28453E-01   -0.29451E-01  6332   0.238E-01    0.332E-01
RMM:   3    -0.233244538740E+04   -0.28682E-02   -0.32288E-02  5849   0.914E-02    0.355E-01
RMM:   4    -0.233244483649E+04    0.55092E-03   -0.33923E-03  4564   0.211E-02    0.117E-01
RMM:   5    -0.233244475933E+04    0.77156E-04   -0.38091E-04  3168   0.101E-02    0.920E-02
RMM:   6    -0.233244468603E+04    0.73302E-04   -0.24664E-04  3626   0.946E-03    0.552E-02
RMM:   7    -0.233244465618E+04    0.29847E-04   -0.97323E-05  3461   0.744E-03    0.248E-02
RMM:   8    -0.233244465290E+04    0.32761E-05   -0.18798E-05  2900   0.554E-03
  76 F= -.23534112E+04 E0= -.23534112E+04  d E =-.306021E-01  mag=     6.0000
       N       E                     dE             d eps       ncg     rms          rms(c)
DAV:   1    -0.233205984441E+04    0.38481E+00   -0.18230E+01  4472   0.368E+00    0.150E+00
RMM:   2    -0.233244086537E+04   -0.38102E+00   -0.39595E+00  6342   0.904E-01    0.117E+00
RMM:   3    -0.233248132196E+04   -0.40457E-01   -0.45881E-01  5959   0.341E-01    0.123E+00
RMM:   4    -0.233247453550E+04    0.67865E-02   -0.42586E-02  6139   0.743E-02    0.431E-01
RMM:   5    -0.233247326112E+04    0.12744E-02   -0.50018E-03  5381   0.314E-02    0.327E-01
RMM:   6    -0.233247262605E+04    0.63507E-03   -0.35368E-03  5521   0.280E-02    0.244E-01
RMM:   7    -0.233247203777E+04    0.58828E-03   -0.14201E-03  5179   0.207E-02    0.108E-01
RMM:   8    -0.233247197144E+04    0.66329E-04   -0.29507E-04  4303   0.127E-02    0.326E-02
RMM:   9    -0.233247195861E+04    0.12837E-04   -0.55064E-05  3088   0.649E-03    0.205E-02
RMM:  10    -0.233247195108E+04    0.75293E-05   -0.22860E-05  2912   0.437E-03
  77 F= -.23534403E+04 E0= -.23534403E+04  d E =-.290663E-01  mag=     6.0000
       N       E                     dE             d eps       ncg     rms          rms(c)
DAV:   1    -0.233239662582E+04    0.75333E-01   -0.35113E+00  4480   0.161E+00    0.658E-01
RMM:   2    -0.233246859549E+04   -0.71970E-01   -0.74617E-01  6330   0.389E-01    0.516E-01
RMM:   3    -0.233247601239E+04   -0.74169E-02   -0.84321E-02  5926   0.148E-01    0.534E-01
RMM:   4    -0.233247479475E+04    0.12176E-02   -0.83808E-03  5510   0.326E-02    0.190E-01
RMM:   5    -0.233247457126E+04    0.22349E-03   -0.95829E-04  4090   0.147E-02    0.147E-01
RMM:   6    -0.233247439452E+04    0.17674E-03   -0.65609E-04  4531   0.136E-02    0.934E-02
RMM:   7    -0.233247431071E+04    0.83811E-04   -0.24714E-04  4274   0.102E-02    0.423E-02
RMM:   8    -0.233247430000E+04    0.10710E-04   -0.44312E-05  2949   0.666E-03    0.129E-02
[...]
RMM:   5    -0.233263295551E+04    0.44912E-04   -0.26580E-04  3599   0.100E-02    0.806E-02
RMM:   6    -0.233263289629E+04    0.59223E-04   -0.21561E-04  4045   0.954E-03    0.345E-02
RMM:   7    -0.233263289031E+04    0.59748E-05   -0.35417E-05  2977   0.616E-03
 122 F= -.23536118E+04 E0= -.23536118E+04  d E =-.172333E-02  mag=     6.0000
       N       E                     dE             d eps       ncg     rms          rms(c)
DAV:   1    -0.233263010769E+04    0.27886E-02   -0.22348E-01  4576   0.449E-01    0.154E-01
RMM:   2    -0.233263281741E+04   -0.27097E-02   -0.28502E-02  6086   0.870E-02    0.119E-01
RMM:   3    -0.233263303744E+04   -0.22003E-03   -0.29112E-03  4730   0.353E-02    0.109E-01
RMM:   4    -0.233263297250E+04    0.64940E-04   -0.32300E-04  3012   0.869E-03    0.522E-02
RMM:   5    -0.233263296106E+04    0.11438E-04   -0.80538E-05  2942   0.598E-03    0.443E-02
RMM:   6    -0.233263294214E+04    0.18921E-04   -0.63864E-05  2965   0.604E-03    0.176E-02
RMM:   7    -0.233263294105E+04    0.10872E-05   -0.13749E-05  2914   0.462E-03
 123 F= -.23536118E+04 E0= -.23536118E+04  d E =-.166483E-02  mag=     6.0000
       N       E                     dE             d eps       ncg     rms          rms(c)
DAV:   1    -0.233263237511E+04    0.56703E-03   -0.50560E-02  4640   0.214E-01    0.715E-02
RMM:   2    -0.233263297195E+04   -0.59684E-03   -0.63036E-03  6061   0.416E-02    0.508E-02
RMM:   3    -0.233263301991E+04   -0.47956E-04   -0.64207E-04  3146   0.162E-02    0.447E-02
RMM:   4    -0.233263300991E+04    0.99953E-05   -0.69154E-05  2935   0.464E-03
 124 F= -.23536119E+04 E0= -.23536119E+04  d E =-.178550E-02  mag=     6.0000
       N       E                     dE             d eps       ncg     rms          rms(c)
DAV:   1    -0.233262779906E+04    0.52208E-02   -0.48031E-01  4528   0.655E-01    0.234E-01
RMM:   2    -0.233263379009E+04   -0.59910E-02   -0.64004E-02  5992   0.130E-01    0.148E-01
RMM:   3    -0.233263424190E+04   -0.45182E-03   -0.65207E-03  5356   0.530E-02    0.112E-01
RMM:   4    -0.233263416295E+04    0.78949E-04   -0.66516E-04  3730   0.120E-02    0.659E-02
RMM:   5    -0.233263413231E+04    0.30646E-04   -0.18085E-04  3450   0.929E-03    0.631E-02
RMM:   6    -0.233263411403E+04    0.18274E-04   -0.98110E-05  3045   0.722E-03    0.476E-02
RMM:   7    -0.233263410209E+04    0.11942E-04   -0.30052E-05  2910   0.578E-03    0.194E-02
RMM:   8    -0.233263409843E+04    0.36612E-05   -0.97435E-06  2892   0.379E-03
 125 F= -.23536130E+04 E0= -.23536130E+04  d E =-.107484E-02  mag=     6.0000
       N       E                     dE             d eps       ncg     rms          rms(c)
DAV:   1    -0.233263395668E+04    0.14542E-03   -0.10279E-02  5104   0.962E-02    0.343E-02
RMM:   2    -0.233263408814E+04   -0.13147E-03   -0.13938E-03  5839   0.204E-02    0.230E-02
RMM:   3    -0.233263409909E+04   -0.10951E-04   -0.14751E-04  2902   0.839E-03    0.195E-02
RMM:   4    -0.233263409753E+04    0.15627E-05   -0.15830E-05  2914   0.241E-03
 126 F= -.23536130E+04 E0= -.23536130E+04  d E =-.107194E-02  mag=     6.0000
       N       E                     dE             d eps       ncg     rms          rms(c)
DAV:   1    -0.233263101550E+04    0.30836E-02   -0.32723E-01  4496   0.539E-01    0.187E-01
RMM:   2    -0.233263499934E+04   -0.39838E-02   -0.42171E-02  6058   0.106E-01    0.140E-01
RMM:   3    -0.233263532164E+04   -0.32230E-03   -0.44310E-03  5098   0.433E-02    0.128E-01
RMM:   4    -0.233263523404E+04    0.87593E-04   -0.46012E-04  3160   0.103E-02    0.688E-02
RMM:   5    -0.233263521400E+04    0.20041E-04   -0.13358E-04  3053   0.742E-03    0.558E-02
RMM:   6    -0.233263518599E+04    0.28012E-04   -0.10825E-04  3138   0.759E-03    0.218E-02
RMM:   7    -0.233263518265E+04    0.33406E-05   -0.17143E-05  2918   0.530E-03
 127 F= -.23536141E+04 E0= -.23536141E+04  d E =-.110131E-02  mag=     6.0000
       N       E                     dE             d eps       ncg     rms          rms(c)
DAV:   1    -0.233263379190E+04    0.13941E-02   -0.11524E-01  4528   0.320E-01    0.112E-01
RMM:   2    -0.233263520828E+04   -0.14164E-02   -0.15029E-02  6145   0.641E-02    0.830E-02
RMM:   3    -0.233263531870E+04   -0.11042E-03   -0.15829E-03  3909   0.274E-02    0.729E-02
RMM:   4    -0.233263528989E+04    0.28803E-04   -0.16407E-04  2960   0.699E-03    0.405E-02
RMM:   5    -0.233263528434E+04    0.55514E-05   -0.46850E-05  2909   0.466E-03
 128 F= -.23536142E+04 E0= -.23536142E+04  d E =-.121284E-02  mag=     6.0000
       N       E                     dE             d eps       ncg     rms          rms(c)
DAV:   1    -0.233263386692E+04    0.14230E-02   -0.22883E-01  4496   0.454E-01    0.151E-01
RMM:   2    -0.233263620537E+04   -0.23385E-02   -0.24763E-02  6153   0.865E-02    0.121E-01
RMM:   3    -0.233263635200E+04   -0.14663E-03   -0.25640E-03  4668   0.342E-02    0.995E-02
RMM:   4    -0.233263628569E+04    0.66312E-04   -0.26711E-04  3041   0.881E-03    0.520E-02
RMM:   5    -0.233263628803E+04   -0.23481E-05   -0.10460E-04  2953   0.657E-03    0.570E-02
RMM:   6    -0.233263625892E+04    0.29112E-04   -0.62867E-05  2984   0.616E-03    0.158E-02
RMM:   7    -0.233263625941E+04   -0.48762E-06   -0.10509E-05  2908   0.445E-03
 129 F= -.23536152E+04 E0= -.23536152E+04  d E =-.101272E-02  mag=     6.0000
       N       E                     dE             d eps       ncg     rms          rms(c)
DAV:   1    -0.233263191125E+04    0.43477E-02   -0.45006E-01  4488   0.635E-01    0.210E-01
RMM:   2    -0.233263650075E+04   -0.45895E-02   -0.48518E-02  6069   0.120E-01    0.162E-01
RMM:   3    -0.233263682048E+04   -0.31973E-03   -0.50103E-03  5265   0.489E-02    0.143E-01
RMM:   4    -0.233263670052E+04    0.11996E-03   -0.53650E-04  3461   0.115E-02    0.760E-02
RMM:   5    -0.233263668489E+04    0.15630E-04   -0.16779E-04  3055   0.824E-03    0.671E-02
RMM:   6    -0.233263664205E+04    0.42845E-04   -0.13442E-04  3529   0.819E-03    0.213E-02
RMM:   7    -0.233263664078E+04    0.12714E-05   -0.18289E-05  2928   0.534E-03
 130 F= -.23536156E+04 E0= -.23536156E+04  d E =-.144656E-02  mag=     6.0000
       N       E                     dE             d eps       ncg     rms          rms(c)
DAV:   1    -0.233263517941E+04    0.14626E-02   -0.30023E-01  4492   0.519E-01    0.169E-01
RMM:   2    -0.233263770594E+04   -0.25265E-02   -0.26580E-02  5990   0.964E-02    0.142E-01
RMM:   3    -0.233263783280E+04   -0.12686E-03   -0.26433E-03  4948   0.385E-02    0.124E-01
RMM:   4    -0.233263773593E+04    0.96865E-04   -0.31443E-04  3268   0.994E-03    0.613E-02
RMM:   5    -0.233263772747E+04    0.84667E-05   -0.12013E-04  3006   0.744E-03    0.559E-02
RMM:   6    -0.233263769626E+04    0.31207E-04   -0.91174E-05  3339   0.739E-03    0.149E-02
RMM:   7    -0.233263769633E+04   -0.74258E-07   -0.12305E-05  2918   0.503E-03
 131 F= -.23536167E+04 E0= -.23536167E+04  d E =-.105751E-02  mag=     6.0000
       N       E                     dE             d eps       ncg     rms          rms(c)
DAV:   1    -0.233263652593E+04    0.11703E-02   -0.15970E-01  4528   0.378E-01    0.123E-01
RMM:   2    -0.233263787546E+04   -0.13495E-02   -0.14182E-02  5995   0.706E-02    0.102E-01
RMM:   3    -0.233263794543E+04   -0.69974E-04   -0.14130E-03  4180   0.288E-02    0.904E-02
RMM:   4    -0.233263789449E+04    0.50943E-04   -0.16834E-04  2988   0.778E-03    0.449E-02
RMM:   5    -0.233263788979E+04    0.46995E-05   -0.65328E-05  2933   0.566E-03
 132 F= -.23536169E+04 E0= -.23536169E+04  d E =-.125213E-02  mag=     6.0000
       N       E                     dE             d eps       ncg     rms          rms(c)
DAV:   1    -0.233263742680E+04    0.46769E-03   -0.22059E-01  4480   0.450E-01    0.145E-01
RMM:   2    -0.233263893946E+04   -0.15127E-02   -0.16046E-02  6058   0.811E-02    0.119E-01
RMM:   3    -0.233263901027E+04   -0.70808E-04   -0.15817E-03  4569   0.322E-02    0.114E-01
RMM:   4    -0.233263892278E+04    0.87495E-04   -0.19539E-04  3184   0.894E-03    0.475E-02
RMM:   5    -0.233263892496E+04   -0.21850E-05   -0.10088E-04  3002   0.718E-03    0.521E-02
RMM:   6    -0.233263889701E+04    0.27953E-04   -0.55727E-05  2993   0.650E-03    0.135E-02
RMM:   7    -0.233263889735E+04   -0.33743E-06   -0.10268E-05  2899   0.460E-03
 133 F= -.23536178E+04 E0= -.23536178E+04  d E =-.919738E-03  mag=     6.0000
       N       E                     dE             d eps       ncg     rms          rms(c)
DAV:   1    -0.233263796979E+04    0.92721E-03   -0.18212E-01  4480   0.408E-01    0.130E-01
RMM:   2    -0.233263923586E+04   -0.12661E-02   -0.13278E-02  5978   0.731E-02    0.111E-01
RMM:   3    -0.233263929272E+04   -0.56862E-04   -0.12936E-03  4222   0.295E-02    0.106E-01
RMM:   4    -0.233263922026E+04    0.72459E-04   -0.16560E-04  3060   0.823E-03    0.444E-02
RMM:   5    -0.233263921565E+04    0.46165E-05   -0.75194E-05  2955   0.635E-03
 134 F= -.23536180E+04 E0= -.23536180E+04  d E =-.115813E-02  mag=     6.0000
       N       E                     dE             d eps       ncg     rms          rms(c)
DAV:   1    -0.233263895415E+04    0.26611E-03   -0.19431E-01  4488   0.423E-01    0.133E-01
RMM:   2    -0.233264015883E+04   -0.12047E-02   -0.12881E-02  6076   0.749E-02    0.104E-01
RMM:   3    -0.233264022568E+04   -0.66851E-04   -0.12761E-03  4423   0.293E-02    0.106E-01
RMM:   4    -0.233264014882E+04    0.76853E-04   -0.16229E-04  3088   0.843E-03    0.439E-02
RMM:   5    -0.233264015324E+04   -0.44122E-05   -0.86449E-05  2986   0.671E-03
 135 F= -.23536189E+04 E0= -.23536189E+04  d E =-.894673E-03  mag=     6.0000
       N       E                     dE             d eps       ncg     rms          rms(c)
DAV:   1    -0.233263887900E+04    0.12698E-02   -0.25704E-01  4488   0.486E-01    0.152E-01
RMM:   2    -0.233264048280E+04   -0.16038E-02   -0.17083E-02  6045   0.856E-02    0.123E-01
RMM:   3    -0.233264056554E+04   -0.82745E-04   -0.16748E-03  4700   0.346E-02    0.122E-01
RMM:   4    -0.233264046617E+04    0.99370E-04   -0.21566E-04  3256   0.946E-03    0.499E-02
RMM:   5    -0.233264047049E+04   -0.43165E-05   -0.11382E-04  3083   0.768E-03    0.551E-02
RMM:   6    -0.233264043987E+04    0.30621E-04   -0.60923E-05  2990   0.675E-03    0.148E-02
RMM:   7    -0.233264044031E+04   -0.44241E-06   -0.11089E-05  2902   0.458E-03
 136 F= -.23536192E+04 E0= -.23536192E+04  d E =-.113221E-02  mag=     6.0000
       N       E                     dE             d eps       ncg     rms          rms(c)
DAV:   1    -0.233263983382E+04    0.60605E-03   -0.22185E-01  4496   0.452E-01    0.143E-01
RMM:   2    -0.233264119503E+04   -0.13612E-02   -0.14797E-02  5911   0.792E-02    0.962E-02
RMM:   3    -0.233264128469E+04   -0.89660E-04   -0.14522E-03  4479   0.325E-02    0.102E-01
RMM:   4    -0.233264121435E+04    0.70337E-04   -0.19008E-04  3134   0.870E-03    0.523E-02
RMM:   5    -0.233264121133E+04    0.30213E-05   -0.89915E-05  3020   0.695E-03
 137 F= -.23536200E+04 E0= -.23536200E+04  d E =-.823483E-03  mag=     6.0000
       N       E                     dE             d eps       ncg     rms          rms(c)
DAV:   1    -0.233264055555E+04    0.65880E-03   -0.10765E-01  4576   0.316E-01    0.101E-01
RMM:   2    -0.233264123187E+04   -0.67632E-03   -0.73566E-03  6142   0.572E-02    0.721E-02
RMM:   3    -0.233264127261E+04   -0.40745E-04   -0.77121E-04  3772   0.220E-02    0.703E-02
RMM:   4    -0.233264123161E+04    0.40999E-04   -0.89763E-05  2964   0.697E-03    0.339E-02
RMM:   5    -0.233264123686E+04   -0.52497E-05   -0.55565E-05  2939   0.554E-03
 138 F= -.23536200E+04 E0= -.23536200E+04  d E =-.886069E-03  mag=     6.0000
       N       E                     dE             d eps       ncg     rms          rms(c)
DAV:   1    -0.233264010225E+04    0.11294E-02   -0.27892E-01  4472   0.502E-01    0.161E-01
RMM:   2    -0.233264192920E+04   -0.18270E-02   -0.20099E-02  5967   0.893E-02    0.896E-02
RMM:   3    -0.233264205013E+04   -0.12093E-03   -0.20526E-03  4689   0.380E-02    0.768E-02
RMM:   4    -0.233264200764E+04    0.42496E-04   -0.23994E-04  3267   0.946E-03    0.483E-02
RMM:   5    -0.233264198117E+04    0.26462E-04   -0.10433E-04  3495   0.806E-03    0.177E-02
RMM:   6    -0.233264198033E+04    0.84288E-06   -0.20909E-05  2938   0.556E-03
 139 F= -.23536208E+04 E0= -.23536208E+04  d E =-.761598E-03  mag=     6.0000
       N       E                     dE             d eps       ncg     rms          rms(c)
DAV:   1    -0.233264160412E+04    0.37705E-03   -0.60392E-02  4560   0.234E-01    0.766E-02
RMM:   2    -0.233264201485E+04   -0.41073E-03   -0.43955E-03  6117   0.422E-02    0.583E-02
RMM:   3    -0.233264204731E+04   -0.32455E-04   -0.45977E-04  3313   0.152E-02    0.636E-02
RMM:   4    -0.233264202044E+04    0.26868E-04   -0.55433E-05  2919   0.522E-03    0.251E-02
RMM:   5    -0.233264201813E+04    0.23124E-05   -0.26781E-05  2923   0.388E-03
 140 F= -.23536209E+04 E0= -.23536209E+04  d E =-.808066E-03  mag=     6.0000
       N       E                     dE             d eps       ncg     rms          rms(c)
DAV:   1    -0.233264055701E+04    0.14634E-02   -0.32447E-01  4488   0.532E-01    0.169E-01
RMM:   2    -0.233264279775E+04   -0.22407E-02   -0.24610E-02  5951   0.940E-02    0.956E-02
RMM:   3    -0.233264294249E+04   -0.14474E-03   -0.24419E-03  4781   0.380E-02    0.779E-02
RMM:   4    -0.233264290237E+04    0.40115E-04   -0.29307E-04  3309   0.990E-03    0.527E-02
RMM:   5    -0.233264287162E+04    0.30749E-04   -0.12672E-04  3599   0.848E-03    0.225E-02
RMM:   6    -0.233264287256E+04   -0.93282E-06   -0.31189E-05  2928   0.605E-03
 141 F= -.23536217E+04 E0= -.23536217E+04  d E =-.879625E-03  mag=     6.0000
       N       E                     dE             d eps       ncg     rms          rms(c)
DAV:   1    -0.233264231283E+04    0.55880E-03   -0.81781E-02  4480   0.267E-01    0.855E-02
RMM:   2    -0.233264289306E+04   -0.58023E-03   -0.63718E-03  5979   0.480E-02    0.461E-02
RMM:   3    -0.233264293984E+04   -0.46784E-04   -0.67158E-04  3463   0.194E-02    0.533E-02
RMM:   4    -0.233264292944E+04    0.10407E-04   -0.80694E-05  2932   0.540E-03    0.337E-02
RMM:   5    -0.233264292087E+04    0.85671E-05   -0.26633E-05  2960   0.383E-03
 142 F= -.23536218E+04 E0= -.23536218E+04  d E =-.940982E-03  mag=     6.0000
       N       E                     dE             d eps       ncg     rms          rms(c)
DAV:   1    -0.233264103439E+04    0.18951E-02   -0.36409E-01  4488   0.574E-01    0.182E-01
RMM:   2    -0.233264351187E+04   -0.24775E-02   -0.27087E-02  5908   0.100E-01    0.104E-01
RMM:   3    -0.233264368599E+04   -0.17413E-03   -0.27142E-03  4926   0.409E-02    0.944E-02
RMM:   4    -0.233264362408E+04    0.61913E-04   -0.32512E-04  3372   0.103E-02    0.628E-02
RMM:   5    -0.233264361254E+04    0.11541E-04   -0.14942E-04  3400   0.853E-03    0.604E-02
RMM:   6    -0.233264358858E+04    0.23956E-04   -0.64591E-05  2937   0.681E-03    0.240E-02
RMM:   7    -0.233264358477E+04    0.38136E-05   -0.13760E-05  2910   0.441E-03
 143 F= -.23536226E+04 E0= -.23536226E+04  d E =-.853447E-03  mag=     6.0000
       N       E                     dE             d eps       ncg     rms          rms(c)
DAV:   1    -0.233264303373E+04    0.55486E-03   -0.71398E-02  4576   0.254E-01    0.805E-02
RMM:   2    -0.233264352506E+04   -0.49133E-03   -0.53566E-03  5979   0.454E-02    0.431E-02
RMM:   3    -0.233264355746E+04   -0.32397E-04   -0.52050E-04  3588   0.188E-02    0.374E-02
RMM:   4    -0.233264355249E+04    0.49651E-05   -0.64313E-05  2934   0.502E-03
 144 F= -.23536227E+04 E0= -.23536227E+04  d E =-.905422E-03  mag=     6.0000
       N       E                     dE             d eps       ncg     rms          rms(c)
DAV:   1    -0.233264113614E+04    0.24213E-02   -0.41175E-01  4488   0.608E-01    0.190E-01
RMM:   2    -0.233264403954E+04   -0.29034E-02   -0.31100E-02  5791   0.105E-01    0.135E-01
RMM:   3    -0.233264429163E+04   -0.25210E-03   -0.31784E-03  4963   0.432E-02    0.155E-01
RMM:   4    -0.233264413808E+04    0.15356E-03   -0.39142E-04  3520   0.111E-02    0.633E-02
RMM:   5    -0.233264410276E+04    0.35319E-04   -0.16941E-04  3932   0.941E-03    0.290E-02
RMM:   6    -0.233264410561E+04   -0.28485E-05   -0.54168E-05  2934   0.686E-03
 145 F= -.23536236E+04 E0= -.23536236E+04  d E =-.858914E-03  mag=     6.0000
       N       E                     dE             d eps       ncg     rms          rms(c)
DAV:   1    -0.233264351736E+04    0.58540E-03   -0.63900E-02  4608   0.240E-01    0.752E-02
RMM:   2    -0.233264397407E+04   -0.45671E-03   -0.49514E-03  6041   0.432E-02    0.392E-02
RMM:   3    -0.233264400428E+04   -0.30213E-04   -0.48727E-04  3343   0.164E-02    0.301E-02
RMM:   4    -0.233264400473E+04   -0.44135E-06   -0.62757E-05  2937   0.481E-03
 146 F= -.23536236E+04 E0= -.23536236E+04  d E =-.879165E-03  mag=     6.0000
       N       E                     dE             d eps       ncg     rms          rms(c)
DAV:   1    -0.233264183391E+04    0.21704E-02   -0.35142E-01  4488   0.557E-01    0.175E-01
RMM:   2    -0.233264457378E+04   -0.27399E-02   -0.28670E-02  5839   0.968E-02    0.149E-01
RMM:   3    -0.233264479455E+04   -0.22077E-03   -0.30494E-03  4870   0.405E-02    0.148E-01
RMM:   4    -0.233264465213E+04    0.14242E-03   -0.36428E-04  3323   0.103E-02    0.541E-02
RMM:   5    -0.233264462545E+04    0.26681E-04   -0.12796E-04  3625   0.825E-03    0.293E-02
RMM:   6    -0.233264462724E+04   -0.17882E-05   -0.53745E-05  2939   0.661E-03
 147 F= -.23536244E+04 E0= -.23536244E+04  d E =-.855566E-03  mag=     6.0000
       N       E                     dE             d eps       ncg     rms          rms(c)
DAV:   1    -0.233264192066E+04    0.27048E-02   -0.32014E-01  4488   0.532E-01    0.166E-01
RMM:   2    -0.233264438925E+04   -0.24686E-02   -0.26302E-02  5827   0.930E-02    0.104E-01
RMM:   3    -0.233264460403E+04   -0.21479E-03   -0.26737E-03  4757   0.372E-02    0.115E-01
RMM:   4    -0.233264453831E+04    0.65722E-04   -0.33511E-04  3094   0.918E-03    0.578E-02
RMM:   5    -0.233264450799E+04    0.30326E-04   -0.93682E-05  3190   0.717E-03    0.277E-02
RMM:   6    -0.233264450622E+04    0.17618E-05   -0.40459E-05  2966   0.617E-03
 148 F= -.23536245E+04 E0= -.23536245E+04  d E =-.957812E-03  mag=     6.0000
       N       E                     dE             d eps       ncg     rms          rms(c)
DAV:   1    -0.233264296144E+04    0.15465E-02   -0.23747E-01  4492   0.447E-01    0.138E-01
RMM:   2    -0.233264499827E+04   -0.20368E-02   -0.21513E-02  6043   0.798E-02    0.921E-02
RMM:   3    -0.233264518825E+04   -0.18998E-03   -0.22447E-03  4315   0.310E-02    0.968E-02
RMM:   4    -0.233264514456E+04    0.43688E-04   -0.27158E-04  3008   0.813E-03    0.492E-02
RMM:   5    -0.233264512237E+04    0.22194E-04   -0.65785E-05  3022   0.586E-03    0.216E-02
RMM:   6    -0.233264512066E+04    0.17084E-05   -0.24462E-05  2972   0.494E-03
 149 F= -.23536253E+04 E0= -.23536253E+04  d E =-.771783E-03  mag=     6.0000
       N       E                     dE             d eps       ncg     rms          rms(c)
DAV:   1    -0.233263869112E+04    0.64312E-02   -0.73477E-01  4488   0.787E-01    0.243E-01
RMM:   2    -0.233264505112E+04   -0.63600E-02   -0.66455E-02  5797   0.138E-01    0.195E-01
RMM:   3    -0.233264560834E+04   -0.55721E-03   -0.69579E-03  5197   0.587E-02    0.196E-01
RMM:   4    -0.233264538899E+04    0.21934E-03   -0.83908E-04  3982   0.134E-02    0.774E-02
RMM:   5    -0.233264533143E+04    0.57564E-04   -0.20951E-04  3784   0.985E-03    0.421E-02
RMM:   6    -0.233264533621E+04   -0.47770E-05   -0.10910E-04  3156   0.794E-03    0.453E-02
RMM:   7    -0.233264531649E+04    0.19713E-04   -0.33876E-05  2921   0.563E-03    0.154E-02
RMM:   8    -0.233264531499E+04    0.15065E-05   -0.83362E-06  2892   0.297E-03
 150 F= -.23536258E+04 E0= -.23536258E+04  d E =-.124456E-02  mag=     6.0000
