       N       E                     dE             d eps       ncg     rms          rms(c)
DAV:   1     0.121359200638E+05    0.12136E+05   -0.82098E+05  4560   0.139E+03
DAV:   2    -0.123935555482E+04   -0.13375E+05   -0.12853E+05  5400   0.319E+02
DAV:   3    -0.249291619453E+04   -0.12536E+04   -0.12444E+04  5480   0.101E+02
DAV:   4    -0.251897842858E+04   -0.26062E+02   -0.25948E+02  5720   0.179E+01
DAV:   5    -0.251967132419E+04   -0.69290E+00   -0.69177E+00  5640   0.249E+00    0.171E+02
RMM:   6    -0.146971592446E+04    0.10500E+04   -0.18895E+03  4482   0.374E+01    0.721E+01
RMM:   7    -0.163897351450E+04   -0.16926E+03   -0.25629E+02  5010   0.131E+01    0.481E+01
RMM:   8    -0.170146316353E+04   -0.62490E+02   -0.37046E+01  5135   0.664E+00    0.352E+01
RMM:   9    -0.185043067989E+04   -0.14897E+03   -0.68191E+01  4705   0.812E+00    0.221E+01
RMM:  10    -0.201086696797E+04   -0.16044E+03   -0.73097E+01  4669   0.747E+00    0.154E+01
RMM:  11    -0.216933924044E+04   -0.15847E+03   -0.11721E+02  4508   0.769E+00    0.108E+01
RMM:  12    -0.229330260964E+04   -0.12396E+03   -0.12798E+02  4518   0.757E+00    0.805E+00
RMM:  13    -0.230258210646E+04   -0.92795E+01   -0.14089E+01  4527   0.464E+00    0.446E+00
RMM:  14    -0.231402485787E+04   -0.11443E+02   -0.12847E+01  4484   0.213E+00    0.259E+00
RMM:  15    -0.231759137991E+04   -0.35665E+01   -0.22776E+00  4639   0.151E+00    0.228E+00
RMM:  16    -0.231851197899E+04   -0.92060E+00   -0.80914E-01  5182   0.572E-01    0.187E+00
RMM:  17    -0.231920217751E+04   -0.69020E+00   -0.24301E-01  4755   0.354E-01    0.131E+00
RMM:  18    -0.231944140636E+04   -0.23923E+00   -0.84426E-02  4796   0.248E-01    0.776E-01
RMM:  19    -0.231950342540E+04   -0.62019E-01   -0.37067E-02  4906   0.149E-01    0.496E-01
RMM:  20    -0.231952118712E+04   -0.17762E-01   -0.80452E-03  4731   0.788E-02    0.360E-01
RMM:  21    -0.231954137505E+04   -0.20188E-01   -0.74827E-03  4519   0.539E-02    0.301E-01
RMM:  22    -0.231954916060E+04   -0.77856E-02   -0.29396E-03  4566   0.424E-02    0.206E-01
RMM:  23    -0.231955515634E+04   -0.59957E-02   -0.26656E-03  4661   0.310E-02    0.138E-01
RMM:  24    -0.231956084173E+04   -0.56854E-02   -0.26231E-03  4601   0.340E-02    0.917E-02
RMM:  25    -0.231956555234E+04   -0.47106E-02   -0.38674E-03  4629   0.357E-02    0.423E-02
RMM:  26    -0.231956596556E+04   -0.41322E-03   -0.67320E-04  4234   0.295E-02    0.198E-02
RMM:  27    -0.231956608401E+04   -0.11845E-03   -0.14173E-04  3809   0.777E-03    0.964E-03
RMM:  28    -0.231956613602E+04   -0.52006E-04   -0.21137E-05  3113   0.694E-03    0.734E-03
RMM:  29    -0.231956621634E+04   -0.80323E-04   -0.17499E-05  3088   0.328E-03    0.536E-03
RMM:  30    -0.231956625108E+04   -0.34743E-04   -0.81691E-06  2941   0.323E-03    0.331E-03
RMM:  31    -0.231956626179E+04   -0.10703E-04   -0.35458E-06  2802   0.222E-03    0.174E-03
RMM:  32    -0.231956626703E+04   -0.52429E-05   -0.23137E-06  2537   0.168E-03
   1 F= -.23397243E+04 E0= -.23397243E+04  d E =-.738497E-14  mag=     2.0001
       N       E                     dE             d eps       ncg     rms          rms(c)
DAV:   1    -0.231954306153E+04    0.23200E-01   -0.21713E+00  4400   0.696E-01    0.299E-01
RMM:   2    -0.231954271323E+04    0.34829E-03   -0.13996E-02  3823   0.474E-02    0.181E-01
RMM:   3    -0.231954222492E+04    0.48831E-03   -0.38501E-03  4429   0.218E-02    0.338E-02
RMM:   4    -0.231954216327E+04    0.61649E-04   -0.23231E-04  3433   0.137E-02    0.182E-02
RMM:   5    -0.231954215749E+04    0.57841E-05   -0.51424E-05  3109   0.313E-03
   2 F= -.23397004E+04 E0= -.23397004E+04  d E =-.578254E-12  mag=     2.0000
       N       E                     dE             d eps       ncg     rms          rms(c)
DAV:   1    -0.231955126149E+04   -0.90982E-02   -0.86281E+00  4480   0.142E+00    0.604E-01
RMM:   2    -0.231954814147E+04    0.31200E-02   -0.43111E-02  4000   0.906E-02    0.356E-01
RMM:   3    -0.231954628862E+04    0.18528E-02   -0.13761E-02  4637   0.407E-02    0.716E-02
RMM:   4    -0.231954608873E+04    0.19989E-03   -0.86635E-04  4028   0.258E-02    0.366E-02
RMM:   5    -0.231954605885E+04    0.29874E-04   -0.16713E-04  3525   0.507E-03    0.212E-02
RMM:   6    -0.231954605787E+04    0.97835E-06   -0.16318E-05  2839   0.387E-03
   3 F= -.23397039E+04 E0= -.23397039E+04  d E =-.146884E-10  mag=     2.0000
       N       E                     dE             d eps       ncg     rms          rms(c)
DAV:   1    -0.231954354200E+04    0.25169E-02   -0.43575E+00  4640   0.982E-01    0.436E-01
RMM:   2    -0.231954227628E+04    0.12657E-02   -0.23754E-02  3938   0.619E-02    0.261E-01
RMM:   3    -0.231954122500E+04    0.10513E-02   -0.73027E-03  4459   0.294E-02    0.459E-02
RMM:   4    -0.231954116904E+04    0.55966E-04   -0.58842E-04  3755   0.195E-02    0.288E-02
RMM:   5    -0.231954115450E+04    0.14536E-04   -0.76294E-05  3099   0.367E-03    0.177E-02
RMM:   6    -0.231954115331E+04    0.11952E-05   -0.11833E-05  2728   0.286E-03
   4 F= -.23396991E+04 E0= -.23396991E+04  d E =-.133110E-11  mag=     2.0000
       N       E                     dE             d eps       ncg     rms          rms(c)
DAV:   1    -0.231955051720E+04   -0.93627E-02   -0.87095E+00  4480   0.135E+00    0.610E-01
RMM:   2    -0.231954737675E+04    0.31404E-02   -0.40130E-02  3980   0.911E-02    0.368E-01
RMM:   3    -0.231954562075E+04    0.17560E-02   -0.18673E-02  4521   0.471E-02    0.655E-02
RMM:   4    -0.231954516832E+04    0.45243E-03   -0.87196E-04  4115   0.258E-02    0.405E-02
RMM:   5    -0.231954514674E+04    0.21572E-04   -0.10603E-04  3557   0.525E-03    0.247E-02
RMM:   6    -0.231954514482E+04    0.19251E-05   -0.19746E-05  2912   0.355E-03
   5 F= -.23397033E+04 E0= -.23397033E+04  d E =-.939758E-13  mag=     2.0000
       N       E                     dE             d eps       ncg     rms          rms(c)
DAV:   1    -0.231954907834E+04   -0.39316E-02   -0.42996E+00  4640   0.101E+00    0.420E-01
RMM:   2    -0.231954784692E+04    0.12314E-02   -0.24161E-02  3886   0.648E-02    0.253E-01
RMM:   3    -0.231954678463E+04    0.10623E-02   -0.78265E-03  4620   0.309E-02    0.488E-02
RMM:   4    -0.231954664011E+04    0.14452E-03   -0.53867E-04  3554   0.181E-02    0.307E-02
RMM:   5    -0.231954662859E+04    0.11518E-04   -0.83611E-05  3183   0.405E-03    0.193E-02
RMM:   6    -0.231954662919E+04   -0.59490E-06   -0.10931E-05  2699   0.296E-03
   6 F= -.23397044E+04 E0= -.23397044E+04  d E =-.767930E-11  mag=     2.0000
       N       E                     dE             d eps       ncg     rms          rms(c)
DAV:   1    -0.231955072059E+04   -0.40920E-02   -0.85090E+00  4520   0.139E+00    0.584E-01
RMM:   2    -0.231954880785E+04    0.19127E-02   -0.52780E-02  3963   0.953E-02    0.351E-01
RMM:   3    -0.231954691647E+04    0.18914E-02   -0.16280E-02  5076   0.499E-02    0.739E-02
RMM:   4    -0.231954653489E+04    0.38158E-03   -0.73174E-04  4111   0.144E-02    0.433E-02
RMM:   5    -0.231954652296E+04    0.11930E-04   -0.21067E-04  3479   0.635E-03    0.266E-02
RMM:   6    -0.231954652065E+04    0.23097E-05   -0.21034E-05  2837   0.386E-03
   7 F= -.23397048E+04 E0= -.23397048E+04  d E =-.972839E-11  mag=     2.0000
       N       E                     dE             d eps       ncg     rms          rms(c)
DAV:   1    -0.231955239204E+04   -0.58691E-02   -0.46205E+00  4600   0.100E+00    0.443E-01
RMM:   2    -0.231955135708E+04    0.10350E-02   -0.28634E-02  4003   0.682E-02    0.280E-01
RMM:   3    -0.231955031472E+04    0.10424E-02   -0.85402E-03  4838   0.349E-02    0.112E-01
RMM:   4    -0.231955018813E+04    0.12659E-03   -0.71655E-04  3967   0.169E-02    0.718E-02
RMM:   5    -0.231955017755E+04    0.10578E-04   -0.15218E-04  3377   0.612E-03    0.379E-02
RMM:   6    -0.231955018207E+04   -0.45184E-05   -0.38164E-05  2955   0.471E-03
   8 F= -.23397081E+04 E0= -.23397081E+04  d E =-.107723E-11  mag=     2.0000
       N       E                     dE             d eps       ncg     rms          rms(c)
DAV:   1    -0.231955024751E+04   -0.69959E-04   -0.84263E+00  4480   0.132E+00    0.598E-01
RMM:   2    -0.231955112399E+04   -0.87648E-03   -0.49927E-02  4166   0.927E-02    0.398E-01
RMM:   3    -0.231954961473E+04    0.15093E-02   -0.81148E-03  5003   0.450E-02    0.249E-01
RMM:   4    -0.231954972309E+04   -0.10836E-03   -0.27079E-03  4714   0.214E-02    0.171E-01
RMM:   5    -0.231954972408E+04   -0.98898E-06   -0.74775E-04  4006   0.146E-02    0.972E-02
RMM:   6    -0.231954971500E+04    0.90801E-05   -0.26088E-04  3599   0.924E-03    0.420E-02
RMM:   7    -0.231954974162E+04   -0.26621E-04   -0.67368E-05  3081   0.572E-03    0.260E-02
RMM:   8    -0.231954974248E+04   -0.85284E-06   -0.22384E-05  2931   0.340E-03
   9 F= -.23397078E+04 E0= -.23397078E+04  d E =-.897908E-11  mag=     2.0000
       N       E                     dE             d eps       ncg     rms          rms(c)
DAV:   1    -0.231955134032E+04   -0.15987E-02   -0.41557E+00  4480   0.947E-01    0.457E-01
RMM:   2    -0.231955139969E+04   -0.59375E-04   -0.27781E-02  4236   0.679E-02    0.295E-01
RMM:   3    -0.231955018242E+04    0.12173E-02   -0.37112E-03  5034   0.313E-02    0.184E-01
RMM:   4    -0.231955019706E+04   -0.14634E-04   -0.15398E-03  4543   0.155E-02    0.119E-01
RMM:   5    -0.231955015590E+04    0.41162E-04   -0.30923E-04  3613   0.120E-02    0.620E-02
RMM:   6    -0.231955016368E+04   -0.77859E-05   -0.12734E-04  3305   0.633E-03    0.277E-02
RMM:   7    -0.231955017237E+04   -0.86908E-05   -0.32273E-05  3013   0.441E-03
  10 F= -.23397082E+04 E0= -.23397082E+04  d E =-.366923E-13  mag=     2.0000
       N       E                     dE             d eps       ncg     rms          rms(c)
DAV:   1    -0.231955488868E+04   -0.47250E-02   -0.83817E+00  4480   0.139E+00    0.661E-01
RMM:   2    -0.231955264336E+04    0.22453E-02   -0.52725E-02  4324   0.921E-02    0.369E-01
RMM:   3    -0.231955010969E+04    0.25337E-02   -0.79823E-03  5390   0.411E-02    0.159E-01
RMM:   4    -0.231955008939E+04    0.20306E-04   -0.21559E-03  4549   0.167E-02    0.715E-02
RMM:   5    -0.231955001992E+04    0.69467E-04   -0.20301E-04  3496   0.106E-02    0.399E-02
RMM:   6    -0.231955002125E+04   -0.13269E-05   -0.67219E-05  3192   0.470E-03
  11 F= -.23397080E+04 E0= -.23397080E+04  d E =-.147172E-11  mag=     2.0000
       N       E                     dE             d eps       ncg     rms          rms(c)
DAV:   1    -0.231955246239E+04   -0.24425E-02   -0.41192E+00  4480   0.896E-01    0.385E-01
RMM:   2    -0.231955297489E+04   -0.51249E-03   -0.27758E-02  4035   0.626E-02    0.237E-01
RMM:   3    -0.231955201107E+04    0.96382E-03   -0.36068E-03  5048   0.259E-02    0.107E-01
RMM:   4    -0.231955203809E+04   -0.27024E-04   -0.58595E-04  4089   0.107E-02    0.608E-02
RMM:   5    -0.231955202602E+04    0.12072E-04   -0.96291E-05  3199   0.653E-03    0.284E-02
RMM:   6    -0.231955203226E+04   -0.62405E-05   -0.23110E-05  2928   0.355E-03
  12 F= -.23397105E+04 E0= -.23397105E+04  d E =-.393314E-11  mag=     2.0000
       N       E                     dE             d eps       ncg     rms          rms(c)
DAV:   1    -0.231955320473E+04   -0.11787E-02   -0.82664E+00  4480   0.129E+00    0.500E-01
RMM:   2    -0.231955303947E+04    0.16526E-03   -0.48893E-02  4064   0.888E-02    0.302E-01
RMM:   3    -0.231955133134E+04    0.17081E-02   -0.82863E-03  5235   0.396E-02    0.115E-01
RMM:   4    -0.231955135515E+04   -0.23807E-04   -0.68078E-04  4027   0.134E-02    0.649E-02
RMM:   5    -0.231955132620E+04    0.28947E-04   -0.20314E-04  3608   0.763E-03    0.294E-02
RMM:   6    -0.231955132587E+04    0.33851E-06   -0.23815E-05  2986   0.436E-03
  13 F= -.23397088E+04 E0= -.23397088E+04  d E =-.948079E-12  mag=     2.0000
       N       E                     dE             d eps       ncg     rms          rms(c)
DAV:   1    -0.231955803402E+04   -0.67078E-02   -0.24019E+00  4480   0.706E-01    0.370E-01
RMM:   2    -0.231955721015E+04    0.82387E-03   -0.23040E-02  3932   0.569E-02    0.211E-01
RMM:   3    -0.231955666205E+04    0.54810E-03   -0.59173E-03  5056   0.289E-02    0.715E-02
RMM:   4    -0.231955653449E+04    0.12755E-03   -0.24779E-04  3499   0.807E-03    0.405E-02
RMM:   5    -0.231955653558E+04   -0.10856E-05   -0.26657E-04  3478   0.606E-03    0.195E-02
RMM:   6    -0.231955652462E+04    0.10959E-04   -0.21584E-05  2850   0.398E-03    0.743E-03
RMM:   7    -0.231955652535E+04   -0.72869E-06   -0.22454E-05  2561   0.200E-03
  14 F= -.23397147E+04 E0= -.23397147E+04  d E =-.150440E-11  mag=     2.0000
       N       E                     dE             d eps       ncg     rms          rms(c)
DAV:   1    -0.231956055281E+04   -0.40282E-02   -0.13014E+00  4960   0.494E-01    0.555E-01
RMM:   2    -0.231955637933E+04    0.41735E-02   -0.19437E-02  3884   0.538E-02    0.292E-01
RMM:   3    -0.231955574767E+04    0.63166E-03   -0.75674E-03  4540   0.284E-02    0.841E-02
RMM:   4    -0.231955548552E+04    0.26215E-03   -0.53211E-04  4329   0.127E-02    0.284E-02
RMM:   5    -0.231955548671E+04   -0.11932E-05   -0.68746E-05  3041   0.491E-03
  15 F= -.23397133E+04 E0= -.23397133E+04  d E =-.897386E-12  mag=     2.0000
       N       E                     dE             d eps       ncg     rms          rms(c)
DAV:   1    -0.231956113177E+04   -0.56462E-02   -0.63389E-01  4520   0.351E-01    0.261E-01
RMM:   2    -0.231956106162E+04    0.70141E-04   -0.38522E-03  3690   0.239E-02    0.154E-01
RMM:   3    -0.231956100446E+04    0.57167E-04   -0.10239E-03  3781   0.110E-02    0.225E-02
RMM:   4    -0.231956098243E+04    0.22024E-04   -0.61733E-05  2913   0.708E-03    0.100E-02
RMM:   5    -0.231956098250E+04   -0.69165E-07   -0.23489E-05  2556   0.215E-03
  16 F= -.23397189E+04 E0= -.23397189E+04  d E =-.940918E-12  mag=     2.0000
       N       E                     dE             d eps       ncg     rms          rms(c)
DAV:   1    -0.231956267842E+04   -0.16960E-02   -0.12754E+00  4880   0.499E-01    0.437E-01
RMM:   2    -0.231956106052E+04    0.16179E-02   -0.11393E-02  3860   0.408E-02    0.243E-01
RMM:   3    -0.231956078166E+04    0.27886E-03   -0.42612E-03  4351   0.211E-02    0.607E-02
RMM:   4    -0.231956063812E+04    0.14354E-03   -0.29054E-04  4011   0.929E-03    0.202E-02
RMM:   5    -0.231956064049E+04   -0.23748E-05   -0.43360E-05  2904   0.402E-03
  17 F= -.23397187E+04 E0= -.23397187E+04  d E =-.898941E-12  mag=     2.0000
       N       E                     dE             d eps       ncg     rms          rms(c)
DAV:   1    -0.231956359332E+04   -0.29552E-02   -0.62396E-01  4600   0.334E-01    0.246E-01
RMM:   2    -0.231956350718E+04    0.86148E-04   -0.35353E-03  3667   0.232E-02    0.145E-01
RMM:   3    -0.231956344928E+04    0.57899E-04   -0.96991E-04  3987   0.111E-02    0.253E-02
RMM:   4    -0.231956342933E+04    0.19947E-04   -0.58514E-05  2876   0.669E-03    0.128E-02
RMM:   5    -0.231956342766E+04    0.16705E-05   -0.31545E-05  2638   0.231E-03
  18 F= -.23397218E+04 E0= -.23397218E+04  d E =-.967095E-12  mag=     2.0000
       N       E                     dE             d eps       ncg     rms          rms(c)
DAV:   1    -0.231956414792E+04   -0.71860E-03   -0.12653E+00  4520   0.479E-01    0.348E-01
RMM:   2    -0.231956410011E+04    0.47813E-04   -0.63578E-03  3757   0.332E-02    0.206E-01
RMM:   3    -0.231956400656E+04    0.93555E-04   -0.15923E-03  4013   0.154E-02    0.314E-02
RMM:   4    -0.231956398409E+04    0.22463E-04   -0.11480E-04  3091   0.937E-03    0.168E-02
RMM:   5    -0.231956398202E+04    0.20762E-05   -0.46822E-05  2851   0.290E-03
  19 F= -.23397215E+04 E0= -.23397215E+04  d E =-.874435E-12  mag=     2.0000
       N       E                     dE             d eps       ncg     rms          rms(c)
DAV:   1    -0.231956204713E+04    0.19370E-02   -0.63127E-01  4760   0.367E-01    0.276E-01
RMM:   2    -0.231956198383E+04    0.63300E-04   -0.37415E-03  3661   0.273E-02    0.166E-01
RMM:   3    -0.231956186761E+04    0.11622E-03   -0.83041E-04  4190   0.111E-02    0.236E-02
RMM:   4    -0.231956184573E+04    0.21876E-04   -0.46780E-05  2751   0.497E-03    0.118E-02
RMM:   5    -0.231956184492E+04    0.80962E-06   -0.43391E-05  2586   0.251E-03
  20 F= -.23397196E+04 E0= -.23397196E+04  d E =-.946993E-12  mag=     2.0000
       N       E                     dE             d eps       ncg     rms          rms(c)
DAV:   1    -0.231956250887E+04   -0.66314E-03   -0.12600E+00  4760   0.506E-01    0.425E-01
RMM:   2    -0.231956095079E+04    0.15581E-02   -0.10522E-02  3761   0.407E-02    0.235E-01
RMM:   3    -0.231956071120E+04    0.23959E-03   -0.36690E-03  4559   0.198E-02    0.610E-02
RMM:   4    -0.231956059110E+04    0.12010E-03   -0.24682E-04  3789   0.953E-03    0.207E-02
RMM:   5    -0.231956059358E+04   -0.24798E-05   -0.51724E-05  2871   0.399E-03
  21 F= -.23397188E+04 E0= -.23397188E+04  d E =-.733638E-12  mag=     2.0000
       N       E                     dE             d eps       ncg     rms          rms(c)
DAV:   1    -0.231956414018E+04   -0.35491E-02   -0.64580E-01  4760   0.364E-01    0.346E-01
RMM:   2    -0.231956276827E+04    0.13719E-02   -0.77299E-03  3741   0.347E-02    0.187E-01
RMM:   3    -0.231956253269E+04    0.23559E-03   -0.27772E-03  4317   0.176E-02    0.520E-02
RMM:   4    -0.231956244158E+04    0.91108E-04   -0.19394E-04  3585   0.861E-03    0.189E-02
RMM:   5    -0.231956244396E+04   -0.23844E-05   -0.36918E-05  2779   0.358E-03
  22 F= -.23397202E+04 E0= -.23397202E+04  d E =-.751945E-12  mag=     2.0000
       N       E                     dE             d eps       ncg     rms          rms(c)
DAV:   1    -0.231956277678E+04   -0.33520E-03   -0.12535E+00  4840   0.518E-01    0.412E-01
RMM:   2    -0.231956149192E+04    0.12849E-02   -0.96122E-03  3778   0.402E-02    0.230E-01
RMM:   3    -0.231956126314E+04    0.22878E-03   -0.31869E-03  4318   0.188E-02    0.552E-02
RMM:   4    -0.231956116579E+04    0.97353E-04   -0.25129E-04  3739   0.105E-02    0.169E-02
RMM:   5    -0.231956116972E+04   -0.39309E-05   -0.45805E-05  2802   0.350E-03
  23 F= -.23397194E+04 E0= -.23397194E+04  d E =-.101401E-11  mag=     2.0000
       N       E                     dE             d eps       ncg     rms          rms(c)
DAV:   1    -0.231956121017E+04   -0.44380E-04   -0.66171E-01  4880   0.367E-01    0.398E-01
RMM:   2    -0.231955905133E+04    0.21588E-02   -0.10557E-02  3765   0.401E-02    0.210E-01
RMM:   3    -0.231955868173E+04    0.36960E-03   -0.39012E-03  4314   0.211E-02    0.604E-02
RMM:   4    -0.231955854323E+04    0.13850E-03   -0.24705E-04  3875   0.868E-03    0.212E-02
RMM:   5    -0.231955854444E+04   -0.12109E-05   -0.32149E-05  2753   0.401E-03
  24 F= -.23397167E+04 E0= -.23397167E+04  d E =-.457801E-12  mag=     2.0000
       N       E                     dE             d eps       ncg     rms          rms(c)
DAV:   1    -0.231956171724E+04   -0.31740E-02   -0.12946E+00  5000   0.518E-01    0.507E-01
RMM:   2    -0.231955878400E+04    0.29332E-02   -0.18017E-02  3833   0.524E-02    0.273E-01
RMM:   3    -0.231955816041E+04    0.62359E-03   -0.61354E-03  4670   0.282E-02    0.779E-02
RMM:   4    -0.231955795830E+04    0.20211E-03   -0.40224E-04  4192   0.918E-03    0.297E-02
RMM:   5    -0.231955795646E+04    0.18401E-05   -0.59192E-05  2956   0.522E-03
  25 F= -.23397158E+04 E0= -.23397158E+04  d E =-.159045E-11  mag=     2.0000
       N       E                     dE             d eps       ncg     rms          rms(c)
DAV:   1    -0.231956416303E+04   -0.62047E-02   -0.62755E-01  4840   0.361E-01    0.289E-01
RMM:   2    -0.231956397203E+04    0.19100E-03   -0.59499E-03  3708   0.316E-02    0.173E-01
RMM:   3    -0.231956378118E+04    0.19086E-03   -0.14003E-03  3958   0.134E-02    0.289E-02
RMM:   4    -0.231956374802E+04    0.33158E-04   -0.89299E-05  2952   0.848E-03    0.158E-02
RMM:   5    -0.231956374822E+04   -0.20432E-06   -0.54175E-05  2737   0.282E-03
  26 F= -.23397219E+04 E0= -.23397219E+04  d E =-.145173E-11  mag=     2.0000
       N       E                     dE             d eps       ncg     rms          rms(c)
DAV:   1    -0.231956361547E+04    0.13255E-03   -0.12575E+00  4640   0.446E-01    0.366E-01
RMM:   2    -0.231956320915E+04    0.40632E-03   -0.68076E-03  3762   0.320E-02    0.212E-01
RMM:   3    -0.231956311806E+04    0.91084E-04   -0.20882E-03  4192   0.162E-02    0.369E-02
RMM:   4    -0.231956306324E+04    0.54823E-04   -0.14106E-04  3349   0.886E-03    0.140E-02
RMM:   5    -0.231956306605E+04   -0.28119E-05   -0.44984E-05  2771   0.313E-03
  27 F= -.23397209E+04 E0= -.23397209E+04  d E =-.502335E-12  mag=     2.0000
       N       E                     dE             d eps       ncg     rms          rms(c)
DAV:   1    -0.231955836866E+04    0.46946E-02   -0.64492E-01  5120   0.320E-01    0.385E-01
RMM:   2    -0.231955635399E+04    0.20147E-02   -0.10182E-02  3773   0.350E-02    0.202E-01
RMM:   3    -0.231955597572E+04    0.37827E-03   -0.34173E-03  4425   0.213E-02    0.600E-02
RMM:   4    -0.231955586482E+04    0.11090E-03   -0.20505E-04  3766   0.694E-03    0.204E-02
RMM:   5    -0.231955586277E+04    0.20498E-05   -0.32946E-05  2727   0.413E-03
  28 F= -.23397142E+04 E0= -.23397142E+04  d E =-.903067E-12  mag=     2.0000
       N       E                     dE             d eps       ncg     rms          rms(c)
DAV:   1    -0.231955927087E+04   -0.34060E-02   -0.13237E+00  5120   0.459E-01    0.578E-01
RMM:   2    -0.231955447218E+04    0.47987E-02   -0.21446E-02  3898   0.525E-02    0.305E-01
RMM:   3    -0.231955373445E+04    0.73773E-03   -0.88385E-03  4546   0.307E-02    0.889E-02
RMM:   4    -0.231955341667E+04    0.31778E-03   -0.60176E-04  4476   0.129E-02    0.312E-02
RMM:   5    -0.231955341836E+04   -0.16898E-05   -0.70063E-05  3005   0.544E-03
  29 F= -.23397111E+04 E0= -.23397111E+04  d E =-.801420E-12  mag=     2.0000
       N       E                     dE             d eps       ncg     rms          rms(c)
DAV:   1    -0.231956292916E+04   -0.95125E-02   -0.64550E-01  4680   0.313E-01    0.288E-01
RMM:   2    -0.231956245191E+04    0.47724E-03   -0.46677E-03  3710   0.242E-02    0.165E-01
RMM:   3    -0.231956232907E+04    0.12284E-03   -0.14476E-03  3962   0.123E-02    0.355E-02
RMM:   4    -0.231956229077E+04    0.38306E-04   -0.10133E-04  3199   0.730E-03    0.120E-02
RMM:   5    -0.231956229293E+04   -0.21606E-05   -0.24308E-05  2594   0.250E-03
  30 F= -.23397206E+04 E0= -.23397206E+04  d E =-.460128E-12  mag=     2.0000
       N       E                     dE             d eps       ncg     rms          rms(c)
DAV:   1    -0.231956417746E+04   -0.18867E-02   -0.12552E+00  4720   0.434E-01    0.386E-01
RMM:   2    -0.231956347824E+04    0.69922E-03   -0.85249E-03  3770   0.343E-02    0.220E-01
RMM:   3    -0.231956329896E+04    0.17928E-03   -0.25875E-03  4306   0.192E-02    0.484E-02
RMM:   4    -0.231956323320E+04    0.65758E-04   -0.14759E-04  3559   0.759E-03    0.186E-02
RMM:   5    -0.231956323604E+04   -0.28385E-05   -0.42990E-05  2815   0.367E-03
  31 F= -.23397209E+04 E0= -.23397209E+04  d E =-.137058E-11  mag=     2.0000
       N       E                     dE             d eps       ncg     rms          rms(c)
DAV:   1    -0.231955905207E+04    0.41811E-02   -0.64845E-01  4600   0.360E-01    0.337E-01
RMM:   2    -0.231955801303E+04    0.10390E-02   -0.76778E-03  3801   0.346E-02    0.191E-01
RMM:   3    -0.231955772030E+04    0.29273E-03   -0.17653E-03  4664   0.175E-02    0.715E-02
RMM:   4    -0.231955767517E+04    0.45136E-04   -0.20273E-04  3546   0.730E-03    0.348E-02
RMM:   5    -0.231955766943E+04    0.57420E-05   -0.66544E-05  3098   0.398E-03
  32 F= -.23397153E+04 E0= -.23397153E+04  d E =-.667374E-12  mag=     2.0000
       N       E                     dE             d eps       ncg     rms          rms(c)
DAV:   1    -0.231956220733E+04   -0.45322E-02   -0.13020E+00  5040   0.494E-01    0.552E-01
RMM:   2    -0.231955821993E+04    0.39874E-02   -0.20113E-02  4011   0.518E-02    0.295E-01
RMM:   3    -0.231955737016E+04    0.84978E-03   -0.42652E-03  4911   0.272E-02    0.121E-01
RMM:   4    -0.231955724586E+04    0.12430E-03   -0.57745E-04  4305   0.109E-02    0.567E-02
RMM:   5    -0.231955722794E+04    0.17919E-04   -0.15303E-04  3366   0.571E-03    0.255E-02
RMM:   6    -0.231955722267E+04    0.52704E-05   -0.22222E-05  2825   0.351E-03
  33 F= -.23397156E+04 E0= -.23397156E+04  d E =-.127355E-11  mag=     2.0000
       N       E                     dE             d eps       ncg     rms          rms(c)
DAV:   1    -0.231955992399E+04   -0.26961E-02   -0.61745E-01  4400   0.326E-01    0.241E-01
RMM:   2    -0.231955998857E+04   -0.64585E-04   -0.25831E-03  3695   0.218E-02    0.155E-01
RMM:   3    -0.231955993128E+04    0.57294E-04   -0.76087E-04  3883   0.121E-02    0.642E-02
RMM:   4    -0.231955993888E+04   -0.75976E-05   -0.13040E-04  3149   0.649E-03    0.393E-02
RMM:   5    -0.231955993319E+04    0.56920E-05   -0.29953E-05  2749   0.322E-03
  34 F= -.23397184E+04 E0= -.23397184E+04  d E =-.994446E-12  mag=     2.0000
       N       E                     dE             d eps       ncg     rms          rms(c)
DAV:   1    -0.231956323331E+04   -0.32944E-02   -0.12907E+00  4880   0.469E-01    0.463E-01
RMM:   2    -0.231956125704E+04    0.19763E-02   -0.12192E-02  3958   0.448E-02    0.263E-01
RMM:   3    -0.231956078826E+04    0.46878E-03   -0.30295E-03  4928   0.246E-02    0.112E-01
RMM:   4    -0.231956072014E+04    0.68121E-04   -0.36067E-04  3937   0.913E-03    0.565E-02
RMM:   5    -0.231956071305E+04    0.70943E-05   -0.12178E-04  3300   0.543E-03    0.304E-02
RMM:   6    -0.231956070656E+04    0.64848E-05   -0.20620E-05  2890   0.348E-03
  35 F= -.23397183E+04 E0= -.23397183E+04  d E =-.607332E-12  mag=     2.0000
       N       E                     dE             d eps       ncg     rms          rms(c)
DAV:   1    -0.231956463241E+04   -0.39194E-02   -0.63297E-01  4520   0.345E-01    0.271E-01
RMM:   2    -0.231956451821E+04    0.11420E-03   -0.42531E-03  3803   0.262E-02    0.164E-01
RMM:   3    -0.231956440788E+04    0.11032E-03   -0.88914E-04  4528   0.132E-02    0.597E-02
RMM:   4    -0.231956439983E+04    0.80505E-05   -0.11990E-04  3174   0.559E-03    0.267E-02
RMM:   5    -0.231956439895E+04    0.88243E-06   -0.28258E-05  2782   0.302E-03
  36 F= -.23397222E+04 E0= -.23397222E+04  d E =-.624288E-12  mag=     2.0000
       N       E                     dE             d eps       ncg     rms          rms(c)
DAV:   1    -0.231956329837E+04    0.11015E-02   -0.12530E+00  4640   0.476E-01    0.357E-01
RMM:   2    -0.231956314337E+04    0.15500E-03   -0.61967E-03  3773   0.329E-02    0.210E-01
RMM:   3    -0.231956301407E+04    0.12930E-03   -0.14153E-03  4508   0.152E-02    0.401E-02
RMM:   4    -0.231956300840E+04    0.56702E-05   -0.97869E-05  3017   0.665E-03
  37 F= -.23397213E+04 E0= -.23397213E+04  d E =-.133996E-11  mag=     2.0000
       N       E                     dE             d eps       ncg     rms          rms(c)
DAV:   1    -0.231956397121E+04   -0.95714E-03   -0.61818E-01  4480   0.346E-01    0.253E-01
RMM:   2    -0.231956379055E+04    0.18066E-03   -0.43630E-03  3734   0.266E-02    0.146E-01
RMM:   3    -0.231956372211E+04    0.68441E-04   -0.89771E-04  4309   0.120E-02    0.411E-02
RMM:   4    -0.231956370996E+04    0.12146E-04   -0.80038E-05  2996   0.505E-03    0.257E-02
RMM:   5    -0.231956371094E+04   -0.97348E-06   -0.25654E-05  2749   0.280E-03
  38 F= -.23397217E+04 E0= -.23397217E+04  d E =-.707892E-12  mag=     2.0000
       N       E                     dE             d eps       ncg     rms          rms(c)
DAV:   1    -0.231956368394E+04    0.26025E-04   -0.11984E+00  4640   0.428E-01    0.348E-01
RMM:   2    -0.231956337389E+04    0.31005E-03   -0.92825E-03  3846   0.342E-02    0.199E-01
RMM:   3    -0.231956315817E+04    0.21572E-03   -0.15215E-03  4783   0.167E-02    0.643E-02
RMM:   4    -0.231956315121E+04    0.69584E-05   -0.16481E-04  3183   0.608E-03    0.405E-02
RMM:   5    -0.231956314995E+04    0.12619E-05   -0.61278E-05  2989   0.386E-03
  39 F= -.23397212E+04 E0= -.23397212E+04  d E =-.875733E-12  mag=     2.0000
       N       E                     dE             d eps       ncg     rms          rms(c)
DAV:   1    -0.231955948276E+04    0.36685E-02   -0.62454E-01  5040   0.335E-01    0.391E-01
RMM:   2    -0.231955748579E+04    0.19970E-02   -0.12408E-02  4002   0.376E-02    0.207E-01
RMM:   3    -0.231955699770E+04    0.48809E-03   -0.23361E-03  4766   0.196E-02    0.757E-02
RMM:   4    -0.231955692724E+04    0.70451E-04   -0.19949E-04  3502   0.702E-03    0.312E-02
RMM:   5    -0.231955692547E+04    0.17772E-05   -0.64750E-05  3071   0.410E-03
  40 F= -.23397144E+04 E0= -.23397144E+04  d E =-.148065E-11  mag=     2.0000
       N       E                     dE             d eps       ncg     rms          rms(c)
DAV:   1    -0.231956243851E+04   -0.55113E-02   -0.12372E+00  5040   0.448E-01    0.554E-01
RMM:   2    -0.231955820971E+04    0.42288E-02   -0.23709E-02  4227   0.528E-02    0.293E-01
RMM:   3    -0.231955719473E+04    0.10150E-02   -0.40650E-03  4946   0.310E-02    0.131E-01
RMM:   4    -0.231955707015E+04    0.12458E-03   -0.59494E-04  4274   0.107E-02    0.578E-02
RMM:   5    -0.231955705744E+04    0.12710E-04   -0.17547E-04  3470   0.646E-03    0.206E-02
RMM:   6    -0.231955705308E+04    0.43545E-05   -0.17643E-05  2838   0.352E-03
  41 F= -.23397155E+04 E0= -.23397155E+04  d E =-.440430E-12  mag=     2.0000
       N       E                     dE             d eps       ncg     rms          rms(c)
DAV:   1    -0.231956471597E+04   -0.76585E-02   -0.59427E-01  4480   0.314E-01    0.238E-01
RMM:   2    -0.231956477289E+04   -0.56926E-04   -0.42682E-03  3781   0.239E-02    0.139E-01
RMM:   3    -0.231956463160E+04    0.14130E-03   -0.65401E-04  4183   0.114E-02    0.416E-02
RMM:   4    -0.231956463425E+04   -0.26514E-05   -0.80610E-05  2939   0.482E-03
  42 F= -.23397228E+04 E0= -.23397228E+04  d E =-.183810E-12  mag=     2.0000
       N       E                     dE             d eps       ncg     rms          rms(c)
DAV:   1    -0.231956553991E+04   -0.90831E-03   -0.12089E+00  4520   0.441E-01    0.420E-01
RMM:   2    -0.231956457526E+04    0.96465E-03   -0.10452E-02  4578   0.372E-02    0.244E-01
RMM:   3    -0.231956418390E+04    0.39136E-03   -0.17092E-03  4345   0.230E-02    0.137E-01
RMM:   4    -0.231956417153E+04    0.12373E-04   -0.71993E-04  4340   0.110E-02    0.757E-02
RMM:   5    -0.231956415360E+04    0.17929E-04   -0.15594E-04  3376   0.771E-03    0.337E-02
RMM:   6    -0.231956415207E+04    0.15292E-05   -0.31828E-05  2959   0.390E-03
  43 F= -.23397220E+04 E0= -.23397220E+04  d E =-.272460E-11  mag=     2.0000
       N       E                     dE             d eps       ncg     rms          rms(c)
DAV:   1    -0.231956554424E+04   -0.13906E-02   -0.57344E-01  4480   0.331E-01    0.249E-01
RMM:   2    -0.231956561986E+04   -0.75620E-04   -0.46888E-03  3973   0.268E-02    0.163E-01
RMM:   3    -0.231956543007E+04    0.18979E-03   -0.88071E-04  3869   0.174E-02    0.918E-02
RMM:   4    -0.231956542713E+04    0.29372E-05   -0.27199E-04  3695   0.721E-03    0.525E-02
RMM:   5    -0.231956542461E+04    0.25235E-05   -0.44898E-05  2920   0.518E-03
  44 F= -.23397235E+04 E0= -.23397235E+04  d E =-.254217E-11  mag=     2.0000
       N       E                     dE             d eps       ncg     rms          rms(c)
DAV:   1    -0.231956612475E+04   -0.69762E-03   -0.10976E+00  4480   0.447E-01    0.266E-01
RMM:   2    -0.231956632618E+04   -0.20143E-03   -0.60890E-03  4239   0.332E-02    0.175E-01
RMM:   3    -0.231956610915E+04    0.21704E-03   -0.93266E-04  4215   0.169E-02    0.987E-02
RMM:   4    -0.231956610756E+04    0.15840E-05   -0.37972E-04  3784   0.795E-03    0.511E-02
RMM:   5    -0.231956611329E+04   -0.57317E-05   -0.46371E-05  2959   0.517E-03
  45 F= -.23397240E+04 E0= -.23397240E+04  d E =-.211010E-12  mag=     2.0000
       N       E                     dE             d eps       ncg     rms          rms(c)
DAV:   1    -0.231956234987E+04    0.37577E-02   -0.54476E-01  4480   0.320E-01    0.215E-01
RMM:   2    -0.231956231997E+04    0.29897E-04   -0.54353E-03  4386   0.313E-02    0.131E-01
RMM:   3    -0.231956214728E+04    0.17268E-03   -0.54795E-04  3745   0.154E-02    0.765E-02
RMM:   4    -0.231956212184E+04    0.25448E-04   -0.28390E-04  3746   0.701E-03    0.346E-02
RMM:   5    -0.231956211497E+04    0.68613E-05   -0.37174E-05  2906   0.492E-03
  46 F= -.23397205E+04 E0= -.23397205E+04  d E =-.801766E-12  mag=     2.0000
       N       E                     dE             d eps       ncg     rms          rms(c)
DAV:   1    -0.231956384857E+04   -0.17267E-02   -0.11146E+00  4480   0.451E-01    0.295E-01
RMM:   2    -0.231956433012E+04   -0.48155E-03   -0.96236E-03  4447   0.412E-02    0.198E-01
RMM:   3    -0.231956399149E+04    0.33863E-03   -0.86102E-04  4150   0.181E-02    0.121E-01
RMM:   4    -0.231956391978E+04    0.71715E-04   -0.58060E-04  4144   0.972E-03    0.432E-02
RMM:   5    -0.231956392932E+04   -0.95379E-05   -0.58378E-05  3024   0.604E-03
  47 F= -.23397215E+04 E0= -.23397215E+04  d E =-.790498E-12  mag=     2.0000
       N       E                     dE             d eps       ncg     rms          rms(c)
DAV:   1    -0.231956323043E+04    0.68935E-03   -0.55135E-01  4480   0.321E-01    0.227E-01
RMM:   2    -0.231956300671E+04    0.22373E-03   -0.59161E-03  4752   0.304E-02    0.135E-01
RMM:   3    -0.231956278309E+04    0.22361E-03   -0.68258E-04  4024   0.163E-02    0.811E-02
RMM:   4    -0.231956275983E+04    0.23259E-04   -0.29835E-04  3887   0.709E-03    0.400E-02
RMM:   5    -0.231956276544E+04   -0.56032E-05   -0.35761E-05  2958   0.498E-03
  48 F= -.23397212E+04 E0= -.23397212E+04  d E =-.771703E-11  mag=     2.0000
       N       E                     dE             d eps       ncg     rms          rms(c)
DAV:   1    -0.231956541044E+04   -0.26506E-02   -0.11205E+00  4480   0.456E-01    0.320E-01
RMM:   2    -0.231956515837E+04    0.25207E-03   -0.11861E-02  4348   0.399E-02    0.186E-01
RMM:   3    -0.231956460401E+04    0.55436E-03   -0.15641E-03  4581   0.229E-02    0.102E-01
RMM:   4    -0.231956460611E+04   -0.20996E-05   -0.45591E-04  4226   0.886E-03    0.568E-02
RMM:   5    -0.231956460510E+04    0.10137E-05   -0.84434E-05  3063   0.567E-03
  49 F= -.23397222E+04 E0= -.23397222E+04  d E =-.720307E-13  mag=     2.0000
