       N       E                     dE             d eps       ncg     rms          rms(c)
DAV:   1     0.123965272104E+05    0.12397E+05   -0.82834E+05  4560   0.140E+03
DAV:   2    -0.120881824820E+04   -0.13605E+05   -0.13057E+05  5280   0.322E+02
DAV:   3    -0.249146434016E+04   -0.12826E+04   -0.12721E+04  5480   0.104E+02
DAV:   4    -0.252154377714E+04   -0.30079E+02   -0.29925E+02  5800   0.208E+01
DAV:   5    -0.252243908864E+04   -0.89531E+00   -0.89364E+00  5680   0.289E+00    0.171E+02
RMM:   6    -0.147829757853E+04    0.10441E+04   -0.19140E+03  4493   0.378E+01    0.735E+01
RMM:   7    -0.164032052594E+04   -0.16202E+03   -0.27326E+02  5169   0.138E+01    0.520E+01
RMM:   8    -0.168972484012E+04   -0.49404E+02   -0.55621E+01  5132   0.740E+00    0.373E+01
RMM:   9    -0.182408419994E+04   -0.13436E+03   -0.64553E+01  4867   0.816E+00    0.273E+01
RMM:  10    -0.195038176045E+04   -0.12630E+03   -0.49607E+01  4935   0.674E+00    0.246E+01
RMM:  11    -0.201707150467E+04   -0.66690E+02   -0.25535E+01  5203   0.423E+00    0.171E+01
RMM:  12    -0.212099151175E+04   -0.10392E+03   -0.51848E+01  4657   0.545E+00    0.121E+01
RMM:  13    -0.226417826700E+04   -0.14319E+03   -0.13680E+02  4506   0.800E+00    0.637E+00
RMM:  14    -0.230173617970E+04   -0.37558E+02   -0.38934E+01  4560   0.487E+00    0.369E+00
RMM:  15    -0.231123770169E+04   -0.95015E+01   -0.12823E+01  4847   0.256E+00    0.381E+00
RMM:  16    -0.231183472531E+04   -0.59702E+00   -0.16115E+00  5343   0.103E+00    0.450E+00
RMM:  17    -0.231178875198E+04    0.45973E-01   -0.15745E-01  5908   0.232E-01    0.455E+00
RMM:  18    -0.231202520327E+04   -0.23645E+00   -0.37077E-01  4739   0.253E-01    0.471E+00
RMM:  19    -0.231213374292E+04   -0.10854E+00   -0.20064E-01  4702   0.209E-01    0.464E+00
RMM:  20    -0.231230751317E+04   -0.17377E+00   -0.35627E-01  4632   0.276E-01    0.415E+00
RMM:  21    -0.231370427383E+04   -0.13968E+01   -0.20647E+00  4518   0.756E-01    0.423E+00
RMM:  22    -0.231475423806E+04   -0.10500E+01   -0.63948E-01  4564   0.555E-01    0.310E+00
RMM:  23    -0.231522733940E+04   -0.47310E+00   -0.49055E-01  4803   0.499E-01    0.192E+00
RMM:  24    -0.231531725693E+04   -0.89918E-01   -0.13421E-01  4872   0.339E-01    0.132E+00
RMM:  25    -0.231537413731E+04   -0.56880E-01   -0.38254E-02  4845   0.153E-01    0.896E-01
RMM:  26    -0.231542828898E+04   -0.54152E-01   -0.43953E-02  4545   0.135E-01    0.402E-01
RMM:  27    -0.231544707114E+04   -0.18782E-01   -0.18761E-02  4694   0.838E-02    0.290E-01
RMM:  28    -0.231545905383E+04   -0.11983E-01   -0.48505E-03  4683   0.553E-02    0.256E-01
RMM:  29    -0.231546629817E+04   -0.72443E-02   -0.40059E-03  4628   0.471E-02    0.115E-01
RMM:  30    -0.231547215001E+04   -0.58518E-02   -0.20542E-03  4570   0.364E-02    0.615E-02
RMM:  31    -0.231547680989E+04   -0.46599E-02   -0.16655E-03  4559   0.287E-02    0.675E-02
RMM:  32    -0.231547855218E+04   -0.17423E-02   -0.60791E-04  4373   0.218E-02    0.479E-02
RMM:  33    -0.231547961451E+04   -0.10623E-02   -0.36760E-04  4109   0.127E-02    0.170E-02
RMM:  34    -0.231548001856E+04   -0.40405E-03   -0.10603E-04  3764   0.104E-02    0.946E-03
RMM:  35    -0.231548019018E+04   -0.17162E-03   -0.50996E-05  3597   0.520E-03    0.580E-03
RMM:  36    -0.231548026092E+04   -0.70743E-04   -0.17440E-05  3100   0.489E-03    0.270E-03
RMM:  37    -0.231548028889E+04   -0.27970E-04   -0.95907E-06  2937   0.304E-03    0.198E-03
RMM:  38    -0.231548030069E+04   -0.11798E-04   -0.46921E-06  2717   0.252E-03    0.180E-03
RMM:  39    -0.231548030412E+04   -0.34325E-05   -0.24304E-06  2457   0.180E-03
   1 F= -.23360606E+04 E0= -.23360606E+04  d E =-.192248E-04  mag=     3.9999
       N       E                     dE             d eps       ncg     rms          rms(c)
DAV:   1    -0.231549804881E+04   -0.17748E-01   -0.21408E+00  4560   0.622E-01    0.377E-01
RMM:   2    -0.231550035516E+04   -0.23064E-02   -0.18002E-02  4342   0.575E-02    0.679E-01
RMM:   3    -0.231549772010E+04    0.26351E-02   -0.38854E-03  4931   0.267E-02    0.269E-01
RMM:   4    -0.231549706589E+04    0.65421E-03   -0.11447E-03  4357   0.138E-02    0.852E-02
RMM:   5    -0.231549705626E+04    0.96323E-05   -0.28251E-04  3609   0.938E-03    0.479E-02
RMM:   6    -0.231549704908E+04    0.71795E-05   -0.37300E-05  2949   0.415E-03
   2 F= -.23360783E+04 E0= -.23360783E+04  d E =-.246963E-05  mag=     3.9999
       N       E                     dE             d eps       ncg     rms          rms(c)
DAV:   1    -0.231543014647E+04    0.66910E-01   -0.85124E+00  4480   0.123E+00    0.755E-01
RMM:   2    -0.231543932823E+04   -0.91818E-02   -0.69439E-02  4488   0.112E-01    0.135E+00
RMM:   3    -0.231542858072E+04    0.10748E-01   -0.14891E-02  5450   0.534E-02    0.533E-01
RMM:   4    -0.231542590853E+04    0.26722E-02   -0.46938E-03  5026   0.278E-02    0.165E-01
RMM:   5    -0.231542594452E+04   -0.35985E-04   -0.96094E-04  4136   0.160E-02    0.943E-02
RMM:   6    -0.231542591782E+04    0.26697E-04   -0.12718E-04  3235   0.730E-03    0.268E-02
RMM:   7    -0.231542592491E+04   -0.70895E-05   -0.37839E-05  3029   0.375E-03
   3 F= -.23360052E+04 E0= -.23360051E+04  d E =-.128548E-03  mag=     3.9992
       N       E                     dE             d eps       ncg     rms          rms(c)
DAV:   1    -0.231547070181E+04   -0.44784E-01   -0.42962E+00  4480   0.963E-01    0.517E-01
RMM:   2    -0.231547251381E+04   -0.18120E-02   -0.26041E-02  4202   0.725E-02    0.771E-01
RMM:   3    -0.231546946331E+04    0.30505E-02   -0.63318E-03  4971   0.343E-02    0.405E-01
RMM:   4    -0.231546802287E+04    0.14404E-02   -0.31452E-03  4519   0.221E-02    0.119E-01
RMM:   5    -0.231546801822E+04    0.46546E-05   -0.42186E-04  3608   0.154E-02    0.405E-02
RMM:   6    -0.231546801598E+04    0.22399E-05   -0.43878E-05  3123   0.425E-03
   4 F= -.23360483E+04 E0= -.23360483E+04  d E =-.135246E-04  mag=     3.9996
       N       E                     dE             d eps       ncg     rms          rms(c)
DAV:   1    -0.231546120869E+04    0.68095E-02   -0.84927E+00  4480   0.139E+00    0.634E-01
RMM:   2    -0.231545766363E+04    0.35451E-02   -0.34317E-02  4088   0.866E-02    0.351E-01
RMM:   3    -0.231545571987E+04    0.19438E-02   -0.10518E-02  4741   0.490E-02    0.123E-01
RMM:   4    -0.231545599127E+04   -0.27140E-03   -0.18248E-03  4821   0.173E-02    0.156E-01
RMM:   5    -0.231545583944E+04    0.15184E-03   -0.27103E-04  3219   0.866E-03    0.532E-02
RMM:   6    -0.231545580290E+04    0.36537E-04   -0.80850E-05  3158   0.442E-03    0.196E-02
RMM:   7    -0.231545580083E+04    0.20697E-05   -0.27460E-05  3012   0.380E-03
   5 F= -.23360362E+04 E0= -.23360362E+04  d E =-.272442E-04  mag=     3.9998
       N       E                     dE             d eps       ncg     rms          rms(c)
DAV:   1    -0.231542646466E+04    0.29338E-01   -0.40259E+00  4640   0.804E-01    0.384E-01
RMM:   2    -0.231542579059E+04    0.67407E-03   -0.13855E-02  4000   0.486E-02    0.204E-01
RMM:   3    -0.231542541679E+04    0.37380E-03   -0.29735E-03  4489   0.275E-02    0.214E-01
RMM:   4    -0.231542539151E+04    0.25282E-04   -0.10397E-03  4539   0.124E-02    0.181E-01
RMM:   5    -0.231542524495E+04    0.14655E-03   -0.27802E-04  3408   0.821E-03    0.261E-02
RMM:   6    -0.231542524579E+04   -0.83774E-06   -0.35715E-05  2892   0.398E-03
   6 F= -.23360082E+04 E0= -.23360081E+04  d E =-.244000E-03  mag=     3.9986
       N       E                     dE             d eps       ncg     rms          rms(c)
DAV:   1    -0.231553481313E+04   -0.10957E+00   -0.79257E+00  4480   0.114E+00    0.550E-01
RMM:   2    -0.231553375900E+04    0.10541E-02   -0.28666E-02  4163   0.718E-02    0.322E-01
RMM:   3    -0.231553459536E+04   -0.83636E-03   -0.74406E-03  4470   0.446E-02    0.591E-01
RMM:   4    -0.231553234791E+04    0.22475E-02   -0.30589E-03  5036   0.216E-02    0.160E-01
RMM:   5    -0.231553238368E+04   -0.35770E-04   -0.57067E-04  3701   0.124E-02    0.384E-02
RMM:   6    -0.231553239570E+04   -0.12020E-04   -0.63637E-05  3157   0.590E-03    0.298E-02
RMM:   7    -0.231553240020E+04   -0.44955E-05   -0.24999E-05  2922   0.366E-03
   7 F= -.23361094E+04 E0= -.23361094E+04  d E =-.990814E-06  mag=     3.9996
       N       E                     dE             d eps       ncg     rms          rms(c)
DAV:   1    -0.231550866180E+04    0.23734E-01   -0.40761E+00  4640   0.850E-01    0.399E-01
RMM:   2    -0.231550947221E+04   -0.81041E-03   -0.20154E-02  4163   0.623E-02    0.498E-01
RMM:   3    -0.231550852559E+04    0.94662E-03   -0.38891E-03  4388   0.285E-02    0.331E-01
RMM:   4    -0.231550757893E+04    0.94666E-03   -0.20403E-03  4185   0.180E-02    0.111E-01
RMM:   5    -0.231550756825E+04    0.10685E-04   -0.33986E-04  3471   0.129E-02    0.269E-02
RMM:   6    -0.231550756511E+04    0.31351E-05   -0.40505E-05  2995   0.391E-03
   8 F= -.23360876E+04 E0= -.23360876E+04  d E =-.153790E-05  mag=     3.9998
       N       E                     dE             d eps       ncg     rms          rms(c)
DAV:   1    -0.231542436570E+04    0.83203E-01   -0.84868E+00  4480   0.117E+00    0.629E-01
RMM:   2    -0.231542655286E+04   -0.21872E-02   -0.48686E-02  4204   0.916E-02    0.801E-01
RMM:   3    -0.231542367525E+04    0.28776E-02   -0.90414E-03  5124   0.425E-02    0.531E-01
RMM:   4    -0.231542116211E+04    0.25131E-02   -0.46918E-03  4593   0.260E-02    0.171E-01
RMM:   5    -0.231542107266E+04    0.89453E-04   -0.81040E-04  3876   0.185E-02    0.449E-02
RMM:   6    -0.231542107003E+04    0.26265E-05   -0.91187E-05  3175   0.604E-03
   9 F= -.23360016E+04 E0= -.23360016E+04  d E =-.189657E-03  mag=     3.9989
       N       E                     dE             d eps       ncg     rms          rms(c)
DAV:   1    -0.231543789671E+04   -0.16824E-01   -0.42612E+00  4480   0.919E-01    0.480E-01
RMM:   2    -0.231543763904E+04    0.25767E-03   -0.20749E-02  4053   0.651E-02    0.540E-01
RMM:   3    -0.231543694797E+04    0.69107E-03   -0.49969E-03  4948   0.311E-02    0.457E-01
RMM:   4    -0.231543531702E+04    0.16310E-02   -0.31572E-03  4361   0.207E-02    0.115E-01
RMM:   5    -0.231543530547E+04    0.11552E-04   -0.46121E-04  3573   0.139E-02    0.361E-02
RMM:   6    -0.231543529447E+04    0.10995E-04   -0.48529E-05  3006   0.422E-03    0.142E-02
RMM:   7    -0.231543529159E+04    0.28845E-05   -0.13388E-05  2738   0.272E-03
  10 F= -.23360156E+04 E0= -.23360155E+04  d E =-.738093E-04  mag=     3.9993
       N       E                     dE             d eps       ncg     rms          rms(c)
DAV:   1    -0.231548876696E+04   -0.53472E-01   -0.86079E+00  4480   0.140E+00    0.667E-01
RMM:   2    -0.231548552970E+04    0.32373E-02   -0.36792E-02  4108   0.867E-02    0.376E-01
RMM:   3    -0.231548373232E+04    0.17974E-02   -0.12273E-02  4819   0.508E-02    0.301E-01
RMM:   4    -0.231548389131E+04   -0.15899E-03   -0.29581E-03  5028   0.213E-02    0.328E-01
RMM:   5    -0.231548327399E+04    0.61733E-03   -0.51523E-04  3824   0.109E-02    0.372E-02
RMM:   6    -0.231548325320E+04    0.20790E-04   -0.93815E-05  3072   0.485E-03    0.239E-02
RMM:   7    -0.231548325023E+04    0.29698E-05   -0.30369E-05  2989   0.339E-03
  11 F= -.23360636E+04 E0= -.23360636E+04  d E =-.442221E-05  mag=     3.9998
       N       E                     dE             d eps       ncg     rms          rms(c)
DAV:   1    -0.231552288873E+04   -0.39636E-01   -0.40844E+00  4480   0.897E-01    0.449E-01
RMM:   2    -0.231552252293E+04    0.36579E-03   -0.16895E-02  4055   0.579E-02    0.405E-01
RMM:   3    -0.231552278708E+04   -0.26415E-03   -0.40377E-03  5050   0.267E-02    0.499E-01
RMM:   4    -0.231552112095E+04    0.16661E-02   -0.32512E-03  4623   0.212E-02    0.138E-01
RMM:   5    -0.231552104627E+04    0.74673E-04   -0.39237E-04  3516   0.113E-02    0.318E-02
RMM:   6    -0.231552104334E+04    0.29333E-05   -0.44767E-05  2991   0.434E-03
  12 F= -.23360988E+04 E0= -.23360988E+04  d E =-.176274E-05  mag=     3.9999
       N       E                     dE             d eps       ncg     rms          rms(c)
DAV:   1    -0.231543922455E+04    0.81822E-01   -0.77461E+00  4480   0.111E+00    0.660E-01
RMM:   2    -0.231544159108E+04   -0.23665E-02   -0.36952E-02  4449   0.800E-02    0.849E-01
RMM:   3    -0.231543913677E+04    0.24543E-02   -0.10072E-02  5365   0.414E-02    0.632E-01
RMM:   4    -0.231543642145E+04    0.27153E-02   -0.40531E-03  4521   0.250E-02    0.154E-01
RMM:   5    -0.231543645188E+04   -0.30425E-04   -0.79910E-04  3674   0.134E-02    0.753E-02
RMM:   6    -0.231543644131E+04    0.10568E-04   -0.97812E-05  3158   0.639E-03    0.233E-02
RMM:   7    -0.231543644470E+04   -0.33881E-05   -0.23198E-05  2878   0.336E-03
  13 F= -.23360186E+04 E0= -.23360186E+04  d E =-.141570E-03  mag=     3.9992
       N       E                     dE             d eps       ncg     rms          rms(c)
DAV:   1    -0.231547425937E+04   -0.37818E-01   -0.22631E+00  4480   0.640E-01    0.384E-01
RMM:   2    -0.231547467696E+04   -0.41759E-03   -0.12672E-02  4131   0.509E-02    0.417E-01
RMM:   3    -0.231547437452E+04    0.30244E-03   -0.31761E-03  4629   0.257E-02    0.400E-01
RMM:   4    -0.231547328143E+04    0.10931E-02   -0.16198E-03  4186   0.161E-02    0.909E-02
RMM:   5    -0.231547328927E+04   -0.78349E-05   -0.40478E-04  3569   0.876E-03    0.436E-02
RMM:   6    -0.231547327559E+04    0.13682E-04   -0.51544E-05  2959   0.492E-03    0.145E-02
RMM:   7    -0.231547327468E+04    0.90979E-06   -0.11372E-05  2681   0.233E-03
  14 F= -.23360541E+04 E0= -.23360541E+04  d E =-.204552E-04  mag=     3.9997
       N       E                     dE             d eps       ncg     rms          rms(c)
DAV:   1    -0.231547928838E+04   -0.60128E-02   -0.12706E+00  4680   0.537E-01    0.458E-01
RMM:   2    -0.231547733842E+04    0.19500E-02   -0.11696E-02  4166   0.486E-02    0.251E-01
RMM:   3    -0.231547679961E+04    0.53882E-03   -0.15029E-03  4226   0.247E-02    0.126E-01
RMM:   4    -0.231547705993E+04   -0.26033E-03   -0.10387E-03  4103   0.129E-02    0.205E-01
RMM:   5    -0.231547678680E+04    0.27313E-03   -0.28921E-04  3291   0.912E-03    0.374E-02
RMM:   6    -0.231547677890E+04    0.79032E-05   -0.37956E-05  2872   0.333E-03
  15 F= -.23360565E+04 E0= -.23360564E+04  d E =-.180214E-04  mag=     3.9998
       N       E                     dE             d eps       ncg     rms          rms(c)
DAV:   1    -0.231547793055E+04   -0.11437E-02   -0.65852E-01  5000   0.398E-01    0.458E-01
RMM:   2    -0.231547451056E+04    0.34200E-02   -0.13621E-02  4194   0.480E-02    0.241E-01
RMM:   3    -0.231547385636E+04    0.65420E-03   -0.14387E-03  3775   0.242E-02    0.139E-01
RMM:   4    -0.231547413696E+04   -0.28059E-03   -0.10979E-03  4162   0.126E-02    0.245E-01
RMM:   5    -0.231547374095E+04    0.39601E-03   -0.47244E-04  3491   0.104E-02    0.582E-02
RMM:   6    -0.231547371986E+04    0.21088E-04   -0.49981E-05  2857   0.377E-03    0.145E-02
RMM:   7    -0.231547371748E+04    0.23737E-05   -0.12502E-05  2652   0.257E-03
  16 F= -.23360546E+04 E0= -.23360546E+04  d E =-.157337E-04  mag=     3.9999
       N       E                     dE             d eps       ncg     rms          rms(c)
DAV:   1    -0.231547343343E+04    0.28643E-03   -0.12936E+00  4960   0.545E-01    0.587E-01
RMM:   2    -0.231546832210E+04    0.51113E-02   -0.22269E-02  4307   0.625E-02    0.334E-01
RMM:   3    -0.231546793770E+04    0.38441E-03   -0.31025E-03  3977   0.324E-02    0.347E-01
RMM:   4    -0.231546797885E+04   -0.41153E-04   -0.24198E-03  4756   0.182E-02    0.351E-01
RMM:   5    -0.231546715341E+04    0.82544E-03   -0.78459E-04  4073   0.131E-02    0.445E-02
RMM:   6    -0.231546714956E+04    0.38573E-05   -0.91417E-05  3120   0.532E-03
  17 F= -.23360469E+04 E0= -.23360468E+04  d E =-.239011E-04  mag=     3.9998
       N       E                     dE             d eps       ncg     rms          rms(c)
DAV:   1    -0.231548913744E+04   -0.21984E-01   -0.62119E-01  4560   0.378E-01    0.318E-01
RMM:   2    -0.231548844249E+04    0.69496E-03   -0.58781E-03  4008   0.319E-02    0.208E-01
RMM:   3    -0.231548881248E+04   -0.36999E-03   -0.14743E-03  4352   0.170E-02    0.329E-01
RMM:   4    -0.231548821533E+04    0.59714E-03   -0.84738E-04  3965   0.114E-02    0.129E-01
RMM:   5    -0.231548812190E+04    0.93431E-04   -0.13347E-04  3255   0.634E-03    0.168E-02
RMM:   6    -0.231548812297E+04   -0.10677E-05   -0.18593E-05  2749   0.328E-03
  18 F= -.23360688E+04 E0= -.23360688E+04  d E =-.108832E-04  mag=     3.9999
       N       E                     dE             d eps       ncg     rms          rms(c)
DAV:   1    -0.231546938322E+04    0.18739E-01   -0.12152E+00  4600   0.525E-01    0.357E-01
RMM:   2    -0.231546937329E+04    0.99304E-05   -0.61105E-03  3841   0.361E-02    0.219E-01
RMM:   3    -0.231547004368E+04   -0.67039E-03   -0.16721E-03  4238   0.211E-02    0.371E-01
RMM:   4    -0.231546923018E+04    0.81350E-03   -0.11518E-03  3973   0.130E-02    0.102E-01
RMM:   5    -0.231546920510E+04    0.25079E-04   -0.12977E-04  3260   0.592E-03    0.228E-02
RMM:   6    -0.231546920243E+04    0.26755E-05   -0.15445E-05  2771   0.321E-03
  19 F= -.23360490E+04 E0= -.23360490E+04  d E =-.337183E-04  mag=     3.9998
       N       E                     dE             d eps       ncg     rms          rms(c)
DAV:   1    -0.231547335672E+04   -0.41516E-02   -0.61085E-01  4600   0.372E-01    0.266E-01
RMM:   2    -0.231547324063E+04    0.11608E-03   -0.39439E-03  3801   0.296E-02    0.156E-01
RMM:   3    -0.231547308314E+04    0.15749E-03   -0.68983E-04  4039   0.152E-02    0.708E-02
RMM:   4    -0.231547316918E+04   -0.86036E-04   -0.29319E-04  3460   0.748E-03    0.110E-01
RMM:   5    -0.231547308335E+04    0.85821E-04   -0.68378E-05  2898   0.523E-03    0.202E-02
RMM:   6    -0.231547307953E+04    0.38284E-05   -0.90274E-06  2615   0.197E-03
  20 F= -.23360536E+04 E0= -.23360536E+04  d E =-.217615E-04  mag=     3.9998
       N       E                     dE             d eps       ncg     rms          rms(c)
DAV:   1    -0.231547973106E+04   -0.66477E-02   -0.12588E+00  4760   0.497E-01    0.435E-01
RMM:   2    -0.231547821920E+04    0.15119E-02   -0.10732E-02  4148   0.454E-02    0.239E-01
RMM:   3    -0.231547778347E+04    0.43573E-03   -0.14214E-03  4165   0.243E-02    0.153E-01
RMM:   4    -0.231547834247E+04   -0.55899E-03   -0.14494E-03  4443   0.144E-02    0.323E-01
RMM:   5    -0.231547767894E+04    0.66353E-03   -0.42723E-04  3883   0.989E-03    0.284E-02
RMM:   6    -0.231547767401E+04    0.49302E-05   -0.65408E-05  2945   0.394E-03
  21 F= -.23360577E+04 E0= -.23360577E+04  d E =-.168285E-04  mag=     3.9999
       N       E                     dE             d eps       ncg     rms          rms(c)
DAV:   1    -0.231547141207E+04    0.62669E-02   -0.61462E-01  4760   0.347E-01    0.258E-01
RMM:   2    -0.231547130263E+04    0.10944E-03   -0.38806E-03  4005   0.271E-02    0.184E-01
RMM:   3    -0.231547168380E+04   -0.38117E-03   -0.11779E-03  4360   0.148E-02    0.308E-01
RMM:   4    -0.231547112463E+04    0.55917E-03   -0.66419E-04  3868   0.105E-02    0.839E-02
RMM:   5    -0.231547109675E+04    0.27883E-04   -0.80946E-05  3137   0.551E-03    0.134E-02
RMM:   6    -0.231547109634E+04    0.40971E-06   -0.12054E-05  2714   0.284E-03
  22 F= -.23360510E+04 E0= -.23360510E+04  d E =-.204260E-04  mag=     3.9999
       N       E                     dE             d eps       ncg     rms          rms(c)
DAV:   1    -0.231547838791E+04   -0.72912E-02   -0.12435E+00  5080   0.503E-01    0.569E-01
RMM:   2    -0.231547338375E+04    0.50042E-02   -0.20313E-02  4384   0.562E-02    0.319E-01
RMM:   3    -0.231547290938E+04    0.47437E-03   -0.26741E-03  3917   0.317E-02    0.306E-01
RMM:   4    -0.231547316074E+04   -0.25137E-03   -0.22183E-03  4780   0.170E-02    0.361E-01
RMM:   5    -0.231547229280E+04    0.86794E-03   -0.80466E-04  4175   0.130E-02    0.423E-02
RMM:   6    -0.231547228866E+04    0.41397E-05   -0.86731E-05  3053   0.483E-03
  23 F= -.23360530E+04 E0= -.23360530E+04  d E =-.181286E-04  mag=     3.9999
       N       E                     dE             d eps       ncg     rms          rms(c)
DAV:   1    -0.231547887888E+04   -0.65861E-02   -0.59134E-01  4600   0.343E-01    0.263E-01
RMM:   2    -0.231547860502E+04    0.27386E-03   -0.36475E-03  3995   0.257E-02    0.171E-01
RMM:   3    -0.231547888875E+04   -0.28373E-03   -0.96372E-04  4315   0.129E-02    0.274E-01
RMM:   4    -0.231547849324E+04    0.39551E-03   -0.61280E-04  3712   0.961E-03    0.107E-01
RMM:   5    -0.231547842679E+04    0.66450E-04   -0.84199E-05  3093   0.543E-03    0.134E-02
RMM:   6    -0.231547842697E+04   -0.17231E-06   -0.96974E-06  2679   0.263E-03
  24 F= -.23360590E+04 E0= -.23360589E+04  d E =-.189217E-04  mag=     3.9999
       N       E                     dE             d eps       ncg     rms          rms(c)
DAV:   1    -0.231547942585E+04   -0.99906E-03   -0.12151E+00  4640   0.483E-01    0.409E-01
RMM:   2    -0.231547833853E+04    0.10873E-02   -0.71109E-03  4135   0.374E-02    0.236E-01
RMM:   3    -0.231547815867E+04    0.17986E-03   -0.13562E-03  4001   0.206E-02    0.210E-01
RMM:   4    -0.231547835510E+04   -0.19643E-03   -0.12458E-03  4155   0.134E-02    0.257E-01
RMM:   5    -0.231547793972E+04    0.41537E-03   -0.30767E-04  3699   0.859E-03    0.237E-02
RMM:   6    -0.231547793923E+04    0.49209E-06   -0.42774E-05  2866   0.351E-03
  25 F= -.23360579E+04 E0= -.23360579E+04  d E =-.196528E-04  mag=     3.9999
       N       E                     dE             d eps       ncg     rms          rms(c)
DAV:   1    -0.231546993908E+04    0.80006E-02   -0.61786E-01  4960   0.366E-01    0.309E-01
RMM:   2    -0.231546925247E+04    0.68661E-03   -0.56738E-03  4022   0.340E-02    0.187E-01
RMM:   3    -0.231546939102E+04   -0.13855E-03   -0.13484E-03  4015   0.193E-02    0.267E-01
RMM:   4    -0.231546911123E+04    0.27979E-03   -0.93773E-04  4055   0.118E-02    0.158E-01
RMM:   5    -0.231546894489E+04    0.16634E-03   -0.16313E-04  3391   0.660E-03    0.188E-02
RMM:   6    -0.231546894490E+04   -0.13970E-07   -0.26639E-05  2700   0.344E-03
  26 F= -.23360495E+04 E0= -.23360495E+04  d E =-.258618E-04  mag=     3.9998
       N       E                     dE             d eps       ncg     rms          rms(c)
DAV:   1    -0.231548215214E+04   -0.13207E-01   -0.12752E+00  5000   0.476E-01    0.476E-01
RMM:   2    -0.231547993405E+04    0.22181E-02   -0.12577E-02  4098   0.485E-02    0.267E-01
RMM:   3    -0.231547957096E+04    0.36309E-03   -0.17820E-03  4164   0.244E-02    0.222E-01
RMM:   4    -0.231548005012E+04   -0.47915E-03   -0.16987E-03  4671   0.154E-02    0.329E-01
RMM:   5    -0.231547930967E+04    0.74045E-03   -0.60301E-04  3938   0.111E-02    0.357E-02
RMM:   6    -0.231547930540E+04    0.42721E-05   -0.52692E-05  2856   0.379E-03
  27 F= -.23360594E+04 E0= -.23360594E+04  d E =-.139733E-04  mag=     3.9999
       N       E                     dE             d eps       ncg     rms          rms(c)
DAV:   1    -0.231547780439E+04    0.15053E-02   -0.65086E-01  5040   0.360E-01    0.451E-01
RMM:   2    -0.231547462437E+04    0.31800E-02   -0.13104E-02  4176   0.449E-02    0.279E-01
RMM:   3    -0.231547475132E+04   -0.12695E-03   -0.25469E-03  4222   0.244E-02    0.360E-01
RMM:   4    -0.231547417052E+04    0.58081E-03   -0.15270E-03  4431   0.146E-02    0.228E-01
RMM:   5    -0.231547380382E+04    0.36669E-03   -0.39283E-04  3741   0.925E-03    0.299E-02
RMM:   6    -0.231547380415E+04   -0.32436E-06   -0.49901E-05  2840   0.430E-03
  28 F= -.23360545E+04 E0= -.23360545E+04  d E =-.180365E-04  mag=     3.9999
       N       E                     dE             d eps       ncg     rms          rms(c)
DAV:   1    -0.231547655983E+04   -0.27560E-02   -0.12676E+00  5000   0.486E-01    0.538E-01
RMM:   2    -0.231547253207E+04    0.40278E-02   -0.18635E-02  4307   0.539E-02    0.353E-01
RMM:   3    -0.231547282344E+04   -0.29137E-03   -0.38666E-03  4453   0.308E-02    0.446E-01
RMM:   4    -0.231547195900E+04    0.86444E-03   -0.22517E-03  4682   0.177E-02    0.280E-01
RMM:   5    -0.231547144746E+04    0.51154E-03   -0.58453E-04  3871   0.112E-02    0.407E-02
RMM:   6    -0.231547144851E+04   -0.10505E-05   -0.72956E-05  2999   0.530E-03
  29 F= -.23360513E+04 E0= -.23360513E+04  d E =-.203395E-04  mag=     3.9999
       N       E                     dE             d eps       ncg     rms          rms(c)
DAV:   1    -0.231547065708E+04    0.79037E-03   -0.60647E-01  4600   0.338E-01    0.279E-01
RMM:   2    -0.231547037256E+04    0.28453E-03   -0.41462E-03  3966   0.272E-02    0.201E-01
RMM:   3    -0.231547074655E+04   -0.37399E-03   -0.13324E-03  4285   0.154E-02    0.307E-01
RMM:   4    -0.231547022266E+04    0.52389E-03   -0.73749E-04  3732   0.106E-02    0.116E-01
RMM:   5    -0.231547014412E+04    0.78540E-04   -0.11271E-04  3143   0.591E-03    0.150E-02
RMM:   6    -0.231547014500E+04   -0.87140E-06   -0.13721E-05  2623   0.279E-03
  30 F= -.23360504E+04 E0= -.23360504E+04  d E =-.299919E-04  mag=     3.9998
       N       E                     dE             d eps       ncg     rms          rms(c)
DAV:   1    -0.231548727110E+04   -0.17127E-01   -0.12032E+00  4640   0.477E-01    0.401E-01
RMM:   2    -0.231548641179E+04    0.85931E-03   -0.70777E-03  3951   0.358E-02    0.233E-01
RMM:   3    -0.231548636139E+04    0.50403E-04   -0.14079E-03  3941   0.196E-02    0.227E-01
RMM:   4    -0.231548636210E+04   -0.71476E-06   -0.11280E-03  4091   0.123E-02    0.223E-01
RMM:   5    -0.231548607352E+04    0.28858E-03   -0.25022E-04  3522   0.770E-03    0.217E-02
RMM:   6    -0.231548607396E+04   -0.43740E-06   -0.41756E-05  2725   0.327E-03
  31 F= -.23360663E+04 E0= -.23360663E+04  d E =-.122190E-04  mag=     3.9999
       N       E                     dE             d eps       ncg     rms          rms(c)
DAV:   1    -0.231547736024E+04    0.87133E-02   -0.61273E-01  4600   0.363E-01    0.263E-01
RMM:   2    -0.231547716171E+04    0.19853E-03   -0.29009E-03  3657   0.241E-02    0.157E-01
RMM:   3    -0.231547732747E+04   -0.16576E-03   -0.10886E-03  4541   0.136E-02    0.217E-01
RMM:   4    -0.231547703611E+04    0.29136E-03   -0.38303E-04  3303   0.778E-03    0.541E-02
RMM:   5    -0.231547701894E+04    0.17172E-04   -0.35957E-05  2734   0.358E-03    0.159E-02
RMM:   6    -0.231547701574E+04    0.31992E-05   -0.10973E-05  2487   0.192E-03
  32 F= -.23360575E+04 E0= -.23360575E+04  d E =-.192487E-04  mag=     3.9999
       N       E                     dE             d eps       ncg     rms          rms(c)
DAV:   1    -0.231547892972E+04   -0.19108E-02   -0.12393E+00  4600   0.518E-01    0.368E-01
RMM:   2    -0.231547862435E+04    0.30536E-03   -0.69973E-03  3896   0.376E-02    0.213E-01
RMM:   3    -0.231547837668E+04    0.24768E-03   -0.11042E-03  4294   0.202E-02    0.763E-02
RMM:   4    -0.231547852118E+04   -0.14450E-03   -0.41887E-04  3682   0.868E-03    0.138E-01
RMM:   5    -0.231547839404E+04    0.12714E-03   -0.11661E-04  2979   0.627E-03    0.216E-02
RMM:   6    -0.231547839075E+04    0.32960E-05   -0.19458E-05  2710   0.243E-03
  33 F= -.23360585E+04 E0= -.23360585E+04  d E =-.194399E-04  mag=     3.9999
       N       E                     dE             d eps       ncg     rms          rms(c)
DAV:   1    -0.231547111926E+04    0.72748E-02   -0.64039E-01  4920   0.370E-01    0.318E-01
RMM:   2    -0.231547029303E+04    0.82623E-03   -0.63403E-03  4010   0.330E-02    0.214E-01
RMM:   3    -0.231547051290E+04   -0.21988E-03   -0.13837E-03  4134   0.172E-02    0.295E-01
RMM:   4    -0.231547010775E+04    0.40515E-03   -0.87493E-04  3893   0.115E-02    0.155E-01
RMM:   5    -0.231546996540E+04    0.14235E-03   -0.17954E-04  3319   0.709E-03    0.223E-02
RMM:   6    -0.231546996630E+04   -0.89964E-06   -0.22208E-05  2768   0.359E-03
  34 F= -.23360496E+04 E0= -.23360496E+04  d E =-.162955E-04  mag=     3.9999
       N       E                     dE             d eps       ncg     rms          rms(c)
DAV:   1    -0.231547287795E+04   -0.29125E-02   -0.13536E+00  5120   0.553E-01    0.639E-01
RMM:   2    -0.231546643085E+04    0.64471E-02   -0.28166E-02  4276   0.679E-02    0.388E-01
RMM:   3    -0.231546627432E+04    0.15654E-03   -0.46389E-03  4292   0.382E-02    0.460E-01
RMM:   4    -0.231546560154E+04    0.67278E-03   -0.30948E-03  4860   0.205E-02    0.348E-01
RMM:   5    -0.231546476754E+04    0.83401E-03   -0.86590E-04  4124   0.133E-02    0.502E-02
RMM:   6    -0.231546476450E+04    0.30392E-05   -0.11365E-04  3164   0.582E-03    0.232E-02
RMM:   7    -0.231546475984E+04    0.46551E-05   -0.21012E-05  2766   0.301E-03
  35 F= -.23360457E+04 E0= -.23360457E+04  d E =-.226168E-04  mag=     3.9999
       N       E                     dE             d eps       ncg     rms          rms(c)
DAV:   1    -0.231547995824E+04   -0.15194E-01   -0.64101E-01  4880   0.377E-01    0.381E-01
RMM:   2    -0.231547821312E+04    0.17451E-02   -0.94204E-03  4092   0.393E-02    0.250E-01
RMM:   3    -0.231547850156E+04   -0.28844E-03   -0.20404E-03  4360   0.200E-02    0.351E-01
RMM:   4    -0.231547785798E+04    0.64357E-03   -0.12082E-03  4189   0.132E-02    0.175E-01
RMM:   5    -0.231547765593E+04    0.20206E-03   -0.24867E-04  3462   0.768E-03    0.240E-02
RMM:   6    -0.231547765761E+04   -0.16838E-05   -0.36904E-05  2783   0.403E-03
  36 F= -.23360580E+04 E0= -.23360579E+04  d E =-.211635E-04  mag=     3.9999
       N       E                     dE             d eps       ncg     rms          rms(c)
DAV:   1    -0.231548090517E+04   -0.32492E-02   -0.11991E+00  4520   0.512E-01    0.358E-01
RMM:   2    -0.231548098841E+04   -0.83233E-04   -0.50759E-03  3752   0.337E-02    0.236E-01
RMM:   3    -0.231548214474E+04   -0.11563E-02   -0.23488E-03  4620   0.200E-02    0.467E-01
RMM:   4    -0.231548083456E+04    0.13102E-02   -0.15567E-03  4255   0.155E-02    0.894E-02
RMM:   5    -0.231548079341E+04    0.41158E-04   -0.11906E-04  3071   0.586E-03    0.201E-02
RMM:   6    -0.231548079018E+04    0.32264E-05   -0.12824E-05  2673   0.258E-03
  37 F= -.23360610E+04 E0= -.23360610E+04  d E =-.179153E-04  mag=     3.9999
