       N       E                     dE             d eps       ncg     rms          rms(c)
DAV:   1     0.131370898506E+05    0.13137E+05   -0.84080E+05  4520   0.145E+03
DAV:   2    -0.994478116871E+03   -0.14132E+05   -0.13502E+05  4896   0.332E+02
DAV:   3    -0.247516170554E+04   -0.14807E+04   -0.14624E+04  5552   0.116E+02
DAV:   4    -0.252110987466E+04   -0.45948E+02   -0.45703E+02  6656   0.293E+01
DAV:   5    -0.252197863167E+04   -0.86876E+00   -0.86653E+00  6248   0.345E+00    0.170E+02
RMM:   6    -0.148524072281E+04    0.10367E+04   -0.19613E+03  4452   0.384E+01    0.725E+01
RMM:   7    -0.165692652220E+04   -0.17169E+03   -0.28822E+02  5208   0.146E+01    0.531E+01
RMM:   8    -0.171726970274E+04   -0.60343E+02   -0.72669E+01  5336   0.804E+00    0.468E+01
RMM:   9    -0.177409097001E+04   -0.56821E+02   -0.56084E+01  5101   0.743E+00    0.328E+01
RMM:  10    -0.191727213695E+04   -0.14318E+03   -0.68054E+01  5455   0.807E+00    0.276E+01
RMM:  11    -0.197977137028E+04   -0.62499E+02   -0.26729E+01  5484   0.455E+00    0.223E+01
RMM:  12    -0.205610199355E+04   -0.76331E+02   -0.29350E+01  5071   0.433E+00    0.182E+01
RMM:  13    -0.212077565367E+04   -0.64674E+02   -0.28838E+01  5209   0.426E+00    0.145E+01
RMM:  14    -0.221696506681E+04   -0.96189E+02   -0.64500E+01  4473   0.595E+00    0.101E+01
RMM:  15    -0.229243347647E+04   -0.75468E+02   -0.73667E+01  4645   0.595E+00    0.694E+00
RMM:  16    -0.230673624376E+04   -0.14303E+02   -0.16783E+01  4754   0.360E+00    0.469E+00
RMM:  17    -0.231005636490E+04   -0.33201E+01   -0.47075E+00  5343   0.128E+00    0.315E+00
RMM:  18    -0.231335217855E+04   -0.32958E+01   -0.20425E+00  4648   0.101E+00    0.196E+00
RMM:  19    -0.231456066643E+04   -0.12085E+01   -0.93840E-01  4951   0.622E-01    0.197E+00
RMM:  20    -0.231476514422E+04   -0.20448E+00   -0.13936E-01  5014   0.264E-01    0.256E+00
RMM:  21    -0.231492151577E+04   -0.15637E+00   -0.90219E-02  4712   0.176E-01    0.271E+00
RMM:  22    -0.231496418828E+04   -0.42673E-01   -0.26826E-02  4916   0.104E-01    0.274E+00
RMM:  23    -0.231495878620E+04    0.54021E-02   -0.16243E-02  5206   0.646E-02    0.270E+00
RMM:  24    -0.231494988979E+04    0.88964E-02   -0.22201E-02  5003   0.655E-02    0.265E+00
RMM:  25    -0.231468659554E+04    0.26329E+00   -0.63651E-01  4909   0.247E-01    0.326E+00
RMM:  26    -0.231498189787E+04   -0.29530E+00   -0.29852E-01  4825   0.153E-01    0.287E+00
RMM:  27    -0.231513636314E+04   -0.15447E+00   -0.25005E-01  4922   0.180E-01    0.312E+00
RMM:  28    -0.231538709839E+04   -0.25074E+00   -0.79211E-01  5275   0.338E-01    0.352E+00
RMM:  29    -0.231538751449E+04   -0.41610E-03   -0.11024E-01  5265   0.163E-01    0.354E+00
RMM:  30    -0.231536895217E+04    0.18562E-01   -0.28752E-02  4835   0.867E-02    0.265E+00
RMM:  31    -0.231538229806E+04   -0.13346E-01   -0.15089E-01  5159   0.162E-01    0.208E+00
RMM:  32    -0.231540547402E+04   -0.23176E-01   -0.91648E-02  5140   0.146E-01    0.728E-01
RMM:  33    -0.231544565627E+04   -0.40182E-01   -0.42744E-02  5252   0.102E-01    0.105E+00
RMM:  34    -0.231547686893E+04   -0.31213E-01   -0.12477E-02  4575   0.643E-02    0.665E-01
RMM:  35    -0.231550933809E+04   -0.32469E-01   -0.13874E-02  4493   0.725E-02    0.242E-01
RMM:  36    -0.231551588959E+04   -0.65515E-02   -0.85911E-03  4917   0.576E-02    0.394E-01
RMM:  37    -0.231552239230E+04   -0.65027E-02   -0.71434E-03  4847   0.361E-02    0.202E-01
RMM:  38    -0.231552637731E+04   -0.39850E-02   -0.13729E-03  4402   0.251E-02    0.491E-02
RMM:  39    -0.231552911047E+04   -0.27332E-02   -0.12086E-03  4273   0.208E-02    0.102E-01
RMM:  40    -0.231552991035E+04   -0.79988E-03   -0.27707E-04  4055   0.145E-02    0.940E-02
RMM:  41    -0.231553021196E+04   -0.30161E-03   -0.13365E-04  3716   0.702E-03    0.599E-02
RMM:  42    -0.231553041538E+04   -0.20341E-03   -0.81543E-05  3330   0.685E-03    0.911E-02
RMM:  43    -0.231553048190E+04   -0.66527E-04   -0.25249E-05  3009   0.395E-03    0.870E-02
RMM:  44    -0.231553053962E+04   -0.57722E-04   -0.24465E-05  2932   0.361E-03    0.992E-02
RMM:  45    -0.231553058010E+04   -0.40478E-04   -0.26609E-05  2758   0.341E-03    0.895E-02
RMM:  46    -0.231553061934E+04   -0.39237E-04   -0.16430E-04  3121   0.561E-03    0.322E-02
RMM:  47    -0.231553063045E+04   -0.11109E-04   -0.61772E-05  2898   0.456E-03    0.114E-02
RMM:  48    -0.231553063776E+04   -0.73112E-05   -0.18974E-05  2741   0.283E-03
   1 F= -.23368069E+04 E0= -.23368068E+04  d E =-.233681E+04  mag=     0.0020
       N       E                     dE             d eps       ncg     rms          rms(c)
DAV:   1    -0.231548954808E+04    0.41082E-01   -0.65372E+00  4896   0.180E+00    0.747E-01
RMM:   2    -0.231564548431E+04   -0.15594E+00   -0.16310E+00  6664   0.525E-01    0.756E-01
RMM:   3    -0.231565955380E+04   -0.14069E-01   -0.16694E-01  6459   0.187E-01    0.765E-01
RMM:   4    -0.231565282074E+04    0.67331E-02   -0.14844E-02  6265   0.463E-02    0.302E-01
RMM:   5    -0.231565468302E+04   -0.18623E-02   -0.35407E-03  5711   0.260E-02    0.553E-01
RMM:   6    -0.231565141048E+04    0.32725E-02   -0.30350E-03  5964   0.265E-02    0.116E-01
RMM:   7    -0.231565122431E+04    0.18617E-03   -0.62886E-04  5178   0.134E-02    0.634E-02
RMM:   8    -0.231565119600E+04    0.28309E-04   -0.19501E-04  3052   0.773E-03    0.579E-02
RMM:   9    -0.231565112594E+04    0.70062E-04   -0.67974E-05  2918   0.599E-03    0.155E-02
RMM:  10    -0.231565111461E+04    0.11329E-04   -0.44933E-05  3010   0.446E-03    0.664E-03
RMM:  11    -0.231565111404E+04    0.56684E-06   -0.78901E-06  2897   0.376E-03
   2 F= -.23369020E+04 E0= -.23369018E+04  d E =-.950846E-01  mag=     0.0005
       N       E                     dE             d eps       ncg     rms          rms(c)
DAV:   1    -0.231563907419E+04    0.12040E-01   -0.22211E+00  4704   0.105E+00    0.449E-01
RMM:   2    -0.231569257723E+04   -0.53503E-01   -0.54653E-01  6651   0.304E-01    0.537E-01
RMM:   3    -0.231569527849E+04   -0.27013E-02   -0.55127E-02  6352   0.110E-01    0.406E-01
RMM:   4    -0.231569340570E+04    0.18728E-02   -0.50391E-03  5459   0.265E-02    0.189E-01
RMM:   5    -0.231569382959E+04   -0.42389E-03   -0.10650E-03  4683   0.147E-02    0.293E-01
RMM:   6    -0.231569307315E+04    0.75644E-03   -0.12181E-03  5529   0.169E-02    0.136E-01
RMM:   7    -0.231569281627E+04    0.25688E-03   -0.40264E-04  3488   0.110E-02    0.430E-02
RMM:   8    -0.231569278121E+04    0.35065E-04   -0.60235E-05  2938   0.591E-03    0.138E-02
RMM:   9    -0.231569277183E+04    0.93774E-05   -0.22267E-05  2932   0.384E-03
   3 F= -.23369242E+04 E0= -.23369240E+04  d E =-.117293E+00  mag=     0.0002
       N       E                     dE             d eps       ncg     rms          rms(c)
DAV:   1    -0.231567897129E+04    0.13810E-01   -0.13747E+00  4624   0.957E-01    0.320E-01
RMM:   2    -0.231570682142E+04   -0.27850E-01   -0.29632E-01  6633   0.248E-01    0.252E-01
RMM:   3    -0.231570980869E+04   -0.29873E-02   -0.33052E-02  6160   0.926E-02    0.321E-01
RMM:   4    -0.231570901784E+04    0.79085E-03   -0.28460E-03  4782   0.208E-02    0.171E-01
RMM:   5    -0.231570898683E+04    0.31010E-04   -0.55157E-04  4423   0.114E-02    0.173E-01
RMM:   6    -0.231570868027E+04    0.30656E-03   -0.53024E-04  4264   0.132E-02    0.766E-02
RMM:   7    -0.231570867050E+04    0.97761E-05   -0.32228E-04  3769   0.990E-03    0.668E-02
RMM:   8    -0.231570860880E+04    0.61697E-04   -0.77685E-05  2980   0.653E-03    0.183E-02
RMM:   9    -0.231570860509E+04    0.37123E-05   -0.11010E-05  2867   0.353E-03
   4 F= -.23369722E+04 E0= -.23369720E+04  d E =-.479816E-01  mag=     0.0002
       N       E                     dE             d eps       ncg     rms          rms(c)
DAV:   1    -0.231570428128E+04    0.43275E-02   -0.38581E-01  4656   0.509E-01    0.170E-01
RMM:   2    -0.231571210009E+04   -0.78188E-02   -0.83621E-02  6608   0.132E-01    0.126E-01
RMM:   3    -0.231571299159E+04   -0.89150E-03   -0.91969E-03  5342   0.481E-02    0.176E-01
RMM:   4    -0.231571275283E+04    0.23876E-03   -0.79730E-04  3281   0.113E-02    0.855E-02
RMM:   5    -0.231571276484E+04   -0.12013E-04   -0.16275E-04  3191   0.720E-03    0.957E-02
RMM:   6    -0.231571266455E+04    0.10029E-03   -0.15725E-04  3104   0.802E-03    0.343E-02
RMM:   7    -0.231571266749E+04   -0.29364E-05   -0.78727E-05  2984   0.600E-03
   5 F= -.23369836E+04 E0= -.23369834E+04  d E =-.594238E-01  mag=     0.0001
       N       E                     dE             d eps       ncg     rms          rms(c)
DAV:   1    -0.231567768885E+04    0.34976E-01   -0.15369E+00  4560   0.102E+00    0.343E-01
RMM:   2    -0.231570911845E+04   -0.31430E-01   -0.33669E-01  6629   0.265E-01    0.258E-01
RMM:   3    -0.231571264069E+04   -0.35222E-02   -0.37601E-02  6102   0.978E-02    0.341E-01
RMM:   4    -0.231571176706E+04    0.87363E-03   -0.32225E-03  4934   0.219E-02    0.179E-01
RMM:   5    -0.231571180488E+04   -0.37822E-04   -0.65584E-04  4787   0.123E-02    0.196E-01
RMM:   6    -0.231571140186E+04    0.40302E-03   -0.58822E-04  4348   0.136E-02    0.742E-02
RMM:   7    -0.231571140552E+04   -0.36605E-05   -0.34002E-04  4111   0.102E-02    0.632E-02
RMM:   8    -0.231571136249E+04    0.43031E-04   -0.80920E-05  2930   0.639E-03    0.237E-02
RMM:   9    -0.231571136840E+04   -0.59179E-05   -0.21202E-05  2885   0.364E-03
   6 F= -.23369861E+04 E0= -.23369859E+04  d E =-.618876E-01  mag=    -0.0002
       N       E                     dE             d eps       ncg     rms          rms(c)
DAV:   1    -0.231570965641E+04    0.17061E-02   -0.16125E-01  4592   0.332E-01    0.111E-01
RMM:   2    -0.231571295569E+04   -0.32993E-02   -0.35507E-02  6557   0.850E-02    0.756E-02
RMM:   3    -0.231571335497E+04   -0.39928E-03   -0.41310E-03  4207   0.315E-02    0.110E-01
RMM:   4    -0.231571327304E+04    0.81925E-04   -0.33345E-04  3001   0.773E-03    0.525E-02
RMM:   5    -0.231571328475E+04   -0.11706E-04   -0.81250E-05  2970   0.512E-03    0.578E-02
RMM:   6    -0.231571325603E+04    0.28722E-04   -0.57902E-05  2840   0.511E-03    0.246E-02
RMM:   7    -0.231571326432E+04   -0.82953E-05   -0.34743E-05  2886   0.381E-03
   7 F= -.23369875E+04 E0= -.23369873E+04  d E =-.633076E-01  mag=    -0.0004
       N       E                     dE             d eps       ncg     rms          rms(c)
DAV:   1    -0.231571328253E+04   -0.26504E-04   -0.10337E-02  4620   0.840E-02    0.322E-02
RMM:   2    -0.231571350724E+04   -0.22471E-03   -0.23553E-03  5722   0.227E-02    0.285E-02
RMM:   3    -0.231571353300E+04   -0.25764E-04   -0.27761E-04  2892   0.874E-03    0.316E-02
RMM:   4    -0.231571352693E+04    0.60716E-05   -0.24919E-05  2794   0.320E-03
   8 F= -.23369876E+04 E0= -.23369874E+04  d E =-.633795E-01  mag=    -0.0005
       N       E                     dE             d eps       ncg     rms          rms(c)
DAV:   1    -0.231571772797E+04   -0.41950E-02   -0.66525E-02  4560   0.266E-01    0.104E-01
RMM:   2    -0.231571883725E+04   -0.11093E-02   -0.10824E-02  6339   0.641E-02    0.128E-01
RMM:   3    -0.231571889787E+04   -0.60620E-04   -0.11838E-03  3993   0.256E-02    0.127E-01
RMM:   4    -0.231571871646E+04    0.18141E-03   -0.13557E-04  3145   0.890E-03    0.317E-02
RMM:   5    -0.231571872039E+04   -0.39261E-05   -0.57875E-05  2937   0.647E-03
   9 F= -.23369927E+04 E0= -.23369926E+04  d E =-.513936E-02  mag=    -0.0006
       N       E                     dE             d eps       ncg     rms          rms(c)
DAV:   1    -0.231571937436E+04   -0.65789E-03   -0.59384E-01  4528   0.798E-01    0.304E-01
RMM:   2    -0.231572835898E+04   -0.89846E-02   -0.96199E-02  6364   0.193E-01    0.251E-01
RMM:   3    -0.231573002538E+04   -0.16664E-02   -0.10689E-02  6000   0.779E-02    0.390E-01
RMM:   4    -0.231572831811E+04    0.17073E-02   -0.13261E-03  5592   0.228E-02    0.121E-01
RMM:   5    -0.231572831438E+04    0.37295E-05   -0.49056E-04  4805   0.145E-02    0.137E-01
RMM:   6    -0.231572806536E+04    0.24902E-03   -0.35107E-04  5188   0.125E-02    0.496E-02
RMM:   7    -0.231572804643E+04    0.18930E-04   -0.13190E-04  3082   0.907E-03    0.420E-02
RMM:   8    -0.231572801159E+04    0.34847E-04   -0.35096E-05  2941   0.524E-03    0.104E-02
RMM:   9    -0.231572800572E+04    0.58687E-05   -0.16359E-05  2909   0.398E-03
  10 F= -.23370018E+04 E0= -.23370017E+04  d E =-.142804E-01  mag=    -0.0006
       N       E                     dE             d eps       ncg     rms          rms(c)
DAV:   1    -0.231572710817E+04    0.90342E-03   -0.13960E-01  4816   0.387E-01    0.146E-01
RMM:   2    -0.231572921256E+04   -0.21044E-02   -0.22639E-02  6330   0.938E-02    0.117E-01
RMM:   3    -0.231572961845E+04   -0.40589E-03   -0.24810E-03  5184   0.367E-02    0.192E-01
RMM:   4    -0.231572921126E+04    0.40719E-03   -0.31278E-04  3803   0.113E-02    0.547E-02
RMM:   5    -0.231572920287E+04    0.83930E-05   -0.11505E-04  3097   0.816E-03    0.595E-02
RMM:   6    -0.231572916021E+04    0.42660E-04   -0.88143E-05  3690   0.773E-03    0.310E-02
RMM:   7    -0.231572915195E+04    0.82618E-05   -0.38888E-05  2905   0.596E-03
  11 F= -.23370029E+04 E0= -.23370028E+04  d E =-.153629E-01  mag=    -0.0006
       N       E                     dE             d eps       ncg     rms          rms(c)
DAV:   1    -0.231573203087E+04   -0.28707E-02   -0.18753E-01  4544   0.407E-01    0.156E-01
RMM:   2    -0.231573620589E+04   -0.41750E-02   -0.41801E-02  6520   0.107E-01    0.201E-01
RMM:   3    -0.231573644286E+04   -0.23697E-03   -0.46361E-03  5116   0.416E-02    0.183E-01
RMM:   4    -0.231573610550E+04    0.33736E-03   -0.52965E-04  3479   0.119E-02    0.660E-02
RMM:   5    -0.231573607352E+04    0.31979E-04   -0.12039E-04  2988   0.745E-03    0.563E-02
RMM:   6    -0.231573605897E+04    0.14552E-04   -0.89458E-05  3187   0.704E-03    0.427E-02
RMM:   7    -0.231573603968E+04    0.19289E-04   -0.54418E-05  2921   0.637E-03    0.180E-02
RMM:   8    -0.231573603867E+04    0.10082E-05   -0.13683E-05  2916   0.391E-03
  12 F= -.23370090E+04 E0= -.23370089E+04  d E =-.611841E-02  mag=    -0.0005
       N       E                     dE             d eps       ncg     rms          rms(c)
DAV:   1    -0.231571276865E+04    0.23271E-01   -0.16848E+00  4496   0.122E+00    0.467E-01
RMM:   2    -0.231575026111E+04   -0.37492E-01   -0.37647E-01  6492   0.321E-01    0.588E-01
RMM:   3    -0.231575237683E+04   -0.21157E-02   -0.41999E-02  6254   0.124E-01    0.535E-01
RMM:   4    -0.231574944370E+04    0.29331E-02   -0.48184E-03  5946   0.335E-02    0.199E-01
RMM:   5    -0.231574913967E+04    0.30403E-03   -0.10688E-03  5319   0.174E-02    0.168E-01
RMM:   6    -0.231574895153E+04    0.18814E-03   -0.71203E-04  5288   0.154E-02    0.119E-01
RMM:   7    -0.231574878933E+04    0.16220E-03   -0.44756E-04  4627   0.130E-02    0.559E-02
RMM:   8    -0.231574875137E+04    0.37958E-04   -0.86204E-05  3264   0.649E-03    0.205E-02
RMM:   9    -0.231574875686E+04   -0.54834E-05   -0.38901E-05  2919   0.580E-03
  13 F= -.23370175E+04 E0= -.23370174E+04  d E =-.145290E-01  mag=    -0.0002
       N       E                     dE             d eps       ncg     rms          rms(c)
DAV:   1    -0.231574356565E+04    0.51857E-02   -0.41722E-01  4528   0.566E-01    0.209E-01
RMM:   2    -0.231575313478E+04   -0.95691E-02   -0.10157E-01  6636   0.153E-01    0.199E-01
RMM:   3    -0.231575427187E+04   -0.11371E-02   -0.11469E-02  5790   0.609E-02    0.252E-01
RMM:   4    -0.231575363335E+04    0.63852E-03   -0.11241E-03  3598   0.150E-02    0.956E-02
RMM:   5    -0.231575357871E+04    0.54635E-04   -0.18031E-04  2982   0.714E-03    0.648E-02
RMM:   6    -0.231575353745E+04    0.41264E-04   -0.10465E-04  3304   0.627E-03    0.380E-02
RMM:   7    -0.231575354547E+04   -0.80233E-05   -0.82197E-05  2892   0.627E-03
  14 F= -.23370235E+04 E0= -.23370234E+04  d E =-.599823E-02  mag=    -0.0001
       N       E                     dE             d eps       ncg     rms          rms(c)
DAV:   1    -0.231570364810E+04    0.49889E-01   -0.22925E+00  4492   0.133E+00    0.493E-01
RMM:   2    -0.231575633129E+04   -0.52683E-01   -0.56130E-01  6671   0.361E-01    0.470E-01
RMM:   3    -0.231576276396E+04   -0.64327E-02   -0.63701E-02  6398   0.143E-01    0.601E-01
RMM:   4    -0.231575901883E+04    0.37451E-02   -0.61516E-03  5802   0.348E-02    0.214E-01
RMM:   5    -0.231575876573E+04    0.25310E-03   -0.10680E-03  4053   0.141E-02    0.154E-01
RMM:   6    -0.231575846726E+04    0.29848E-03   -0.51959E-04  4971   0.127E-02    0.826E-02
RMM:   7    -0.231575847352E+04   -0.62613E-05   -0.37566E-04  3668   0.115E-02    0.734E-02
RMM:   8    -0.231575839301E+04    0.80510E-04   -0.10052E-04  3132   0.709E-03    0.171E-02
RMM:   9    -0.231575838976E+04    0.32436E-05   -0.15141E-05  2908   0.448E-03
  15 F= -.23370293E+04 E0= -.23370293E+04  d E =-.118886E-01  mag=    -0.0000
       N       E                     dE             d eps       ncg     rms          rms(c)
DAV:   1    -0.231575508670E+04    0.33063E-02   -0.50624E-01  4512   0.692E-01    0.253E-01
RMM:   2    -0.231576341869E+04   -0.83320E-02   -0.89741E-02  6467   0.169E-01    0.202E-01
RMM:   3    -0.231576449001E+04   -0.10713E-02   -0.94837E-03  6087   0.639E-02    0.263E-01
RMM:   4    -0.231576367152E+04    0.81849E-03   -0.10869E-03  5168   0.178E-02    0.116E-01
RMM:   5    -0.231576360153E+04    0.69996E-04   -0.28592E-04  3270   0.102E-02    0.926E-02
RMM:   6    -0.231576350832E+04    0.93208E-04   -0.23488E-04  4475   0.104E-02    0.487E-02
RMM:   7    -0.231576348002E+04    0.28295E-04   -0.94425E-05  2973   0.789E-03    0.266E-02
RMM:   8    -0.231576346698E+04    0.13040E-04   -0.16860E-05  2892   0.440E-03    0.758E-03
RMM:   9    -0.231576346487E+04    0.21151E-05   -0.88189E-06  2883   0.302E-03
  16 F= -.23370337E+04 E0= -.23370337E+04  d E =-.436969E-02  mag=    -0.0000
       N       E                     dE             d eps       ncg     rms          rms(c)
DAV:   1    -0.231576182992E+04    0.16371E-02   -0.16977E-01  4560   0.401E-01    0.146E-01
RMM:   2    -0.231576462294E+04   -0.27930E-02   -0.30089E-02  6459   0.982E-02    0.117E-01
RMM:   3    -0.231576497575E+04   -0.35281E-03   -0.32413E-03  5149   0.378E-02    0.150E-01
RMM:   4    -0.231576470647E+04    0.26928E-03   -0.36139E-04  3494   0.110E-02    0.664E-02
RMM:   5    -0.231576468376E+04    0.22715E-04   -0.97892E-05  2946   0.694E-03    0.541E-02
RMM:   6    -0.231576465052E+04    0.33239E-04   -0.85051E-05  3450   0.660E-03    0.283E-02
RMM:   7    -0.231576464037E+04    0.10152E-04   -0.33096E-05  2892   0.582E-03    0.148E-02
RMM:   8    -0.231576463609E+04    0.42775E-05   -0.66806E-06  2831   0.269E-03
  17 F= -.23370344E+04 E0= -.23370344E+04  d E =-.504516E-02  mag=    -0.0000
       N       E                     dE             d eps       ncg     rms          rms(c)
DAV:   1    -0.231576493124E+04   -0.29088E-03   -0.15485E-01  4528   0.386E-01    0.134E-01
RMM:   2    -0.231576742761E+04   -0.24964E-02   -0.23568E-02  6468   0.933E-02    0.177E-01
RMM:   3    -0.231576722735E+04    0.20026E-03   -0.24508E-03  5241   0.335E-02    0.975E-02
RMM:   4    -0.231576711453E+04    0.11282E-03   -0.27661E-04  3340   0.956E-03    0.651E-02
RMM:   5    -0.231576708573E+04    0.28806E-04   -0.83017E-05  2936   0.661E-03    0.490E-02
RMM:   6    -0.231576708888E+04   -0.31532E-05   -0.84139E-05  3149   0.594E-03
  18 F= -.23370361E+04 E0= -.23370361E+04  d E =-.169652E-02  mag=    -0.0000
       N       E                     dE             d eps       ncg     rms          rms(c)
DAV:   1    -0.231576694003E+04    0.14569E-03   -0.75175E-02  4560   0.270E-01    0.932E-02
RMM:   2    -0.231576810792E+04   -0.11679E-02   -0.11383E-02  6510   0.651E-02    0.113E-01
RMM:   3    -0.231576805993E+04    0.47987E-04   -0.12368E-03  4002   0.227E-02    0.718E-02
RMM:   4    -0.231576799956E+04    0.60369E-04   -0.12949E-04  2997   0.766E-03    0.467E-02
RMM:   5    -0.231576798758E+04    0.11988E-04   -0.42983E-05  2895   0.488E-03    0.376E-02
RMM:   6    -0.231576798185E+04    0.57207E-05   -0.48049E-05  2998   0.488E-03
  19 F= -.23370363E+04 E0= -.23370363E+04  d E =-.192694E-02  mag=    -0.0000
       N       E                     dE             d eps       ncg     rms          rms(c)
DAV:   1    -0.231576679409E+04    0.11935E-02   -0.13440E-01  4528   0.356E-01    0.102E-01
RMM:   2    -0.231576834345E+04   -0.15494E-02   -0.16459E-02  6495   0.804E-02    0.842E-02
RMM:   3    -0.231576855558E+04   -0.21213E-03   -0.16640E-03  4212   0.280E-02    0.124E-01
RMM:   4    -0.231576838218E+04    0.17340E-03   -0.18154E-04  3082   0.883E-03    0.429E-02
RMM:   5    -0.231576837663E+04    0.55516E-05   -0.68541E-05  2932   0.566E-03
  20 F= -.23370377E+04 E0= -.23370377E+04  d E =-.133994E-02  mag=    -0.0000
       N       E                     dE             d eps       ncg     rms          rms(c)
DAV:   1    -0.231576574773E+04    0.26344E-02   -0.20821E-01  4528   0.443E-01    0.128E-01
RMM:   2    -0.231576815654E+04   -0.24088E-02   -0.25699E-02  6480   0.101E-01    0.102E-01
RMM:   3    -0.231576846136E+04   -0.30481E-03   -0.26262E-03  4987   0.354E-02    0.144E-01
RMM:   4    -0.231576823392E+04    0.22744E-03   -0.28973E-04  3288   0.102E-02    0.600E-02
RMM:   5    -0.231576822945E+04    0.44739E-05   -0.10446E-04  2948   0.679E-03    0.550E-02
RMM:   6    -0.231576819892E+04    0.30522E-04   -0.76959E-05  3110   0.643E-03    0.302E-02
RMM:   7    -0.231576818968E+04    0.92412E-05   -0.31623E-05  2885   0.535E-03
  21 F= -.23370382E+04 E0= -.23370382E+04  d E =-.191565E-02  mag=    -0.0000
       N       E                     dE             d eps       ncg     rms          rms(c)
DAV:   1    -0.231576845243E+04   -0.25350E-03   -0.13759E-01  4528   0.383E-01    0.127E-01
RMM:   2    -0.231577047599E+04   -0.20236E-02   -0.16584E-02  6376   0.870E-02    0.225E-01
RMM:   3    -0.231577005425E+04    0.42174E-03   -0.15600E-03  4545   0.300E-02    0.101E-01
RMM:   4    -0.231576993998E+04    0.11427E-03   -0.22624E-04  3304   0.937E-03    0.502E-02
RMM:   5    -0.231576991500E+04    0.24980E-04   -0.75771E-05  2905   0.677E-03    0.353E-02
RMM:   6    -0.231576991381E+04    0.11911E-05   -0.62140E-05  3295   0.637E-03
  22 F= -.23370399E+04 E0= -.23370399E+04  d E =-.163146E-02  mag=    -0.0000
       N       E                     dE             d eps       ncg     rms          rms(c)
DAV:   1    -0.231576669034E+04    0.32247E-02   -0.41666E-01  4512   0.667E-01    0.219E-01
RMM:   2    -0.231577260603E+04   -0.59157E-02   -0.49922E-02  6308   0.151E-01    0.366E-01
RMM:   3    -0.231577156383E+04    0.10422E-02   -0.46163E-03  5650   0.495E-02    0.181E-01
RMM:   4    -0.231577118576E+04    0.37807E-03   -0.68482E-04  4986   0.148E-02    0.860E-02
RMM:   5    -0.231577111238E+04    0.73382E-04   -0.22026E-04  3293   0.983E-03    0.630E-02
RMM:   6    -0.231577109690E+04    0.15477E-04   -0.18561E-04  4311   0.991E-03    0.608E-02
RMM:   7    -0.231577104545E+04    0.51454E-04   -0.60838E-05  3000   0.757E-03    0.136E-02
RMM:   8    -0.231577104014E+04    0.53122E-05   -0.10173E-05  2902   0.325E-03
  23 F= -.23370408E+04 E0= -.23370408E+04  d E =-.258163E-02  mag=    -0.0000
       N       E                     dE             d eps       ncg     rms          rms(c)
DAV:   1    -0.231577110149E+04   -0.56041E-04   -0.13620E-01  4592   0.377E-01    0.120E-01
RMM:   2    -0.231577369710E+04   -0.25956E-02   -0.18161E-02  6456   0.862E-02    0.303E-01
RMM:   3    -0.231577270523E+04    0.99188E-03   -0.14904E-03  4465   0.272E-02    0.653E-02
RMM:   4    -0.231577265972E+04    0.45502E-04   -0.21803E-04  3058   0.852E-03    0.508E-02
RMM:   5    -0.231577264050E+04    0.19228E-04   -0.64705E-05  2913   0.620E-03    0.368E-02
RMM:   6    -0.231577264041E+04    0.83077E-07   -0.51519E-05  3010   0.577E-03
  24 F= -.23370421E+04 E0= -.23370421E+04  d E =-.128099E-02  mag=    -0.0000
       N       E                     dE             d eps       ncg     rms          rms(c)
DAV:   1    -0.231576864986E+04    0.39906E-02   -0.48658E-01  4512   0.712E-01    0.227E-01
RMM:   2    -0.231577777192E+04   -0.91221E-02   -0.64124E-02  6438   0.162E-01    0.560E-01
RMM:   3    -0.231577436482E+04    0.34071E-02   -0.53931E-03  5712   0.508E-02    0.127E-01
RMM:   4    -0.231577420886E+04    0.15597E-03   -0.84038E-04  4700   0.148E-02    0.987E-02
RMM:   5    -0.231577412646E+04    0.82397E-04   -0.23096E-04  3434   0.937E-03    0.688E-02
RMM:   6    -0.231577412991E+04   -0.34472E-05   -0.17927E-04  4165   0.932E-03    0.698E-02
RMM:   7    -0.231577405767E+04    0.72235E-04   -0.78961E-05  3026   0.733E-03    0.125E-02
RMM:   8    -0.231577405396E+04    0.37100E-05   -0.12259E-05  2914   0.376E-03
  25 F= -.23370429E+04 E0= -.23370429E+04  d E =-.206236E-02  mag=    -0.0000
       N       E                     dE             d eps       ncg     rms          rms(c)
DAV:   1    -0.231577377209E+04    0.28558E-03   -0.14580E-01  4528   0.407E-01    0.136E-01
RMM:   2    -0.231577568607E+04   -0.19140E-02   -0.14897E-02  6442   0.878E-02    0.236E-01
RMM:   3    -0.231577517019E+04    0.51588E-03   -0.13218E-03  4944   0.284E-02    0.103E-01
RMM:   4    -0.231577507258E+04    0.97608E-04   -0.20376E-04  3648   0.965E-03    0.737E-02
RMM:   5    -0.231577501164E+04    0.60945E-04   -0.70863E-05  2916   0.690E-03    0.305E-02
RMM:   6    -0.231577500431E+04    0.73269E-05   -0.69432E-05  3683   0.645E-03
  26 F= -.23370440E+04 E0= -.23370440E+04  d E =-.112510E-02  mag=     0.0000
       N       E                     dE             d eps       ncg     rms          rms(c)
DAV:   1    -0.231577420990E+04    0.80174E-03   -0.11038E-01  4624   0.354E-01    0.118E-01
RMM:   2    -0.231577556640E+04   -0.13565E-02   -0.11063E-02  6430   0.767E-02    0.185E-01
RMM:   3    -0.231577528930E+04    0.27710E-03   -0.10309E-03  4634   0.249E-02    0.972E-02
RMM:   4    -0.231577519856E+04    0.90744E-04   -0.15299E-04  3255   0.867E-03    0.632E-02
RMM:   5    -0.231577515396E+04    0.44595E-04   -0.54610E-05  2906   0.624E-03    0.271E-02
RMM:   6    -0.231577514725E+04    0.67114E-05   -0.55034E-05  3400   0.584E-03
  27 F= -.23370443E+04 E0= -.23370443E+04  d E =-.139003E-02  mag=     0.0000
       N       E                     dE             d eps       ncg     rms          rms(c)
DAV:   1    -0.231577494458E+04    0.20939E-03   -0.13728E-01  4528   0.396E-01    0.117E-01
RMM:   2    -0.231577616691E+04   -0.12223E-02   -0.12637E-02  6449   0.831E-02    0.104E-01
RMM:   3    -0.231577629637E+04   -0.12947E-03   -0.11675E-03  4940   0.277E-02    0.132E-01
RMM:   4    -0.231577609645E+04    0.19992E-03   -0.18172E-04  3342   0.956E-03    0.572E-02
RMM:   5    -0.231577606627E+04    0.30185E-04   -0.65678E-05  2898   0.658E-03    0.339E-02
RMM:   6    -0.231577605877E+04    0.74928E-05   -0.62908E-05  3423   0.634E-03
  28 F= -.23370452E+04 E0= -.23370452E+04  d E =-.966050E-03  mag=     0.0000
       N       E                     dE             d eps       ncg     rms          rms(c)
DAV:   1    -0.231577568264E+04    0.38362E-03   -0.56624E-02  4592   0.255E-01    0.763E-02
RMM:   2    -0.231577619042E+04   -0.50778E-03   -0.52790E-03  6452   0.543E-02    0.672E-02
RMM:   3    -0.231577624739E+04   -0.56964E-04   -0.51146E-04  3573   0.179E-02    0.873E-02
RMM:   4    -0.231577616014E+04    0.87248E-04   -0.77540E-05  2956   0.734E-03    0.374E-02
RMM:   5    -0.231577614522E+04    0.14924E-04   -0.30512E-05  2890   0.459E-03    0.213E-02
RMM:   6    -0.231577613451E+04    0.10709E-04   -0.25584E-05  2942   0.461E-03    0.100E-02
RMM:   7    -0.231577613478E+04   -0.26959E-06   -0.82909E-06  2849   0.404E-03
  29 F= -.23370453E+04 E0= -.23370453E+04  d E =-.107378E-02  mag=     0.0000
       N       E                     dE             d eps       ncg     rms          rms(c)
DAV:   1    -0.231577572822E+04    0.40629E-03   -0.14132E-01  4528   0.402E-01    0.117E-01
RMM:   2    -0.231577719611E+04   -0.14679E-02   -0.14940E-02  6457   0.839E-02    0.110E-01
RMM:   3    -0.231577731229E+04   -0.11618E-03   -0.14548E-03  4577   0.298E-02    0.122E-01
RMM:   4    -0.231577714602E+04    0.16627E-03   -0.19329E-04  3232   0.950E-03    0.609E-02
RMM:   5    -0.231577711449E+04    0.31524E-04   -0.60262E-05  2906   0.621E-03    0.371E-02
RMM:   6    -0.231577711014E+04    0.43543E-05   -0.55618E-05  3056   0.566E-03
  30 F= -.23370460E+04 E0= -.23370460E+04  d E =-.694917E-03  mag=     0.0000
       N       E                     dE             d eps       ncg     rms          rms(c)
DAV:   1    -0.231577697342E+04    0.14108E-03   -0.33668E-02  4688   0.197E-01    0.585E-02
RMM:   2    -0.231577731717E+04   -0.34376E-03   -0.35820E-03  6442   0.419E-02    0.483E-02
RMM:   3    -0.231577735608E+04   -0.38910E-04   -0.38487E-04  3127   0.145E-02    0.605E-02
RMM:   4    -0.231577731777E+04    0.38308E-04   -0.47954E-05  2924   0.566E-03    0.319E-02
RMM:   5    -0.231577730867E+04    0.91005E-05   -0.16551E-05  2844   0.310E-03
  31 F= -.23370461E+04 E0= -.23370461E+04  d E =-.743045E-03  mag=     0.0000
       N       E                     dE             d eps       ncg     rms          rms(c)
DAV:   1    -0.231577618118E+04    0.11366E-02   -0.13271E-01  4528   0.390E-01    0.116E-01
RMM:   2    -0.231577824040E+04   -0.20592E-02   -0.20592E-02  6584   0.887E-02    0.134E-01
RMM:   3    -0.231577834753E+04   -0.10713E-03   -0.21959E-03  4716   0.316E-02    0.120E-01
RMM:   4    -0.231577818407E+04    0.16346E-03   -0.23213E-04  3092   0.944E-03    0.565E-02
RMM:   5    -0.231577816478E+04    0.19290E-04   -0.73765E-05  2928   0.652E-03    0.440E-02
RMM:   6    -0.231577814948E+04    0.15303E-04   -0.62728E-05  3244   0.608E-03    0.335E-02
RMM:   7    -0.231577813498E+04    0.14491E-04   -0.35853E-05  2890   0.584E-03    0.119E-02
RMM:   8    -0.231577813249E+04    0.24957E-05   -0.53802E-06  2832   0.271E-03
  32 F= -.23370468E+04 E0= -.23370468E+04  d E =-.721713E-03  mag=     0.0000
       N       E                     dE             d eps       ncg     rms          rms(c)
DAV:   1    -0.231577771159E+04    0.42340E-03   -0.37994E-02  4592   0.209E-01    0.620E-02
RMM:   2    -0.231577830938E+04   -0.59779E-03   -0.59482E-03  6488   0.477E-02    0.739E-02
RMM:   3    -0.231577833635E+04   -0.26969E-04   -0.60918E-04  3189   0.167E-02    0.658E-02
RMM:   4    -0.231577828654E+04    0.49805E-04   -0.70929E-05  2914   0.611E-03    0.284E-02
RMM:   5    -0.231577827948E+04    0.70627E-05   -0.21428E-05  2900   0.356E-03
  33 F= -.23370469E+04 E0= -.23370469E+04  d E =-.814633E-03  mag=     0.0000
       N       E                     dE             d eps       ncg     rms          rms(c)
DAV:   1    -0.231577582484E+04    0.24617E-02   -0.17863E-01  4512   0.454E-01    0.141E-01
RMM:   2    -0.231577891360E+04   -0.30888E-02   -0.29716E-02  6588   0.105E-01    0.188E-01
RMM:   3    -0.231577894428E+04   -0.30680E-04   -0.31316E-03  5138   0.368E-02    0.142E-01
RMM:   4    -0.231577870115E+04    0.24312E-03   -0.31957E-04  3274   0.106E-02    0.554E-02
RMM:   5    -0.231577868194E+04    0.19215E-04   -0.97440E-05  3011   0.737E-03    0.494E-02
RMM:   6    -0.231577865413E+04    0.27808E-04   -0.10846E-04  3703   0.790E-03    0.302E-02
RMM:   7    -0.231577864664E+04    0.74899E-05   -0.31796E-05  2904   0.560E-03
  34 F= -.23370474E+04 E0= -.23370474E+04  d E =-.546333E-03  mag=     0.0000
       N       E                     dE             d eps       ncg     rms          rms(c)
DAV:   1    -0.231577851353E+04    0.14060E-03   -0.58056E-03  5272   0.824E-02    0.283E-02
RMM:   2    -0.231577863078E+04   -0.11725E-03   -0.10390E-03  6181   0.204E-02    0.468E-02
RMM:   3    -0.231577861752E+04    0.13253E-04   -0.11283E-04  2894   0.769E-03    0.250E-02
RMM:   4    -0.231577861129E+04    0.62334E-05   -0.13866E-05  2909   0.289E-03
  35 F= -.23370474E+04 E0= -.23370474E+04  d E =-.535818E-03  mag=     0.0000
       N       E                     dE             d eps       ncg     rms          rms(c)
DAV:   1    -0.231577690031E+04    0.17172E-02   -0.14430E-01  4528   0.411E-01    0.129E-01
RMM:   2    -0.231577945069E+04   -0.25504E-02   -0.22673E-02  6502   0.921E-02    0.212E-01
RMM:   3    -0.231577920319E+04    0.24750E-03   -0.23173E-03  4705   0.323E-02    0.108E-01
RMM:   4    -0.231577905863E+04    0.14456E-03   -0.24188E-04  3099   0.937E-03    0.502E-02
RMM:   5    -0.231577904911E+04    0.95234E-05   -0.74534E-05  2956   0.660E-03
  36 F= -.23370478E+04 E0= -.23370478E+04  d E =-.406274E-03  mag=     0.0000
       N       E                     dE             d eps       ncg     rms          rms(c)
DAV:   1    -0.231577887030E+04    0.18834E-03   -0.10494E-02  5216   0.112E-01    0.455E-02
RMM:   2    -0.231577912702E+04   -0.25672E-03   -0.18206E-03  6305   0.269E-02    0.871E-02
RMM:   3    -0.231577903022E+04    0.96798E-04   -0.21829E-04  2958   0.102E-02    0.267E-02
RMM:   4    -0.231577902883E+04    0.13931E-05   -0.38253E-05  2952   0.422E-03
  37 F= -.23370478E+04 E0= -.23370478E+04  d E =-.375812E-03  mag=     0.0000
       N       E                     dE             d eps       ncg     rms          rms(c)
DAV:   1    -0.231577787224E+04    0.11580E-02   -0.11650E-01  4512   0.366E-01    0.115E-01
RMM:   2    -0.231577991199E+04   -0.20398E-02   -0.18251E-02  6499   0.823E-02    0.190E-01
RMM:   3    -0.231577973143E+04    0.18056E-03   -0.18704E-03  4477   0.289E-02    0.990E-02
RMM:   4    -0.231577960059E+04    0.13084E-03   -0.18031E-04  3031   0.852E-03    0.350E-02
RMM:   5    -0.231577959128E+04    0.93095E-05   -0.79016E-05  3617   0.716E-03
  38 F= -.23370482E+04 E0= -.23370482E+04  d E =-.417378E-03  mag=     0.0000
       N       E                     dE             d eps       ncg     rms          rms(c)
DAV:   1    -0.231577938821E+04    0.21237E-03   -0.17236E-02  4784   0.142E-01    0.472E-02
RMM:   2    -0.231577969434E+04   -0.30613E-03   -0.27837E-03  6453   0.336E-02    0.701E-02
RMM:   3    -0.231577966793E+04    0.26408E-04   -0.29566E-04  3010   0.124E-02    0.394E-02
RMM:   4    -0.231577965393E+04    0.14003E-04   -0.33229E-05  2912   0.476E-03    0.269E-02
RMM:   5    -0.231577964754E+04    0.63883E-05   -0.10027E-05  2856   0.237E-03
  39 F= -.23370482E+04 E0= -.23370482E+04  d E =-.417150E-03  mag=     0.0000
       N       E                     dE             d eps       ncg     rms          rms(c)
DAV:   1    -0.231577865997E+04    0.99396E-03   -0.10527E-01  4512   0.350E-01    0.112E-01
RMM:   2    -0.231578016484E+04   -0.15049E-02   -0.15550E-02  6464   0.781E-02    0.103E-01
RMM:   3    -0.231578039206E+04   -0.22722E-03   -0.16391E-03  4329   0.287E-02    0.140E-01
RMM:   4    -0.231578015539E+04    0.23667E-03   -0.18127E-04  3076   0.941E-03    0.364E-02
RMM:   5    -0.231578015107E+04    0.43106E-05   -0.71193E-05  2968   0.653E-03
  40 F= -.23370486E+04 E0= -.23370486E+04  d E =-.369883E-03  mag=     0.0000
       N       E                     dE             d eps       ncg     rms          rms(c)
DAV:   1    -0.231578007074E+04    0.84641E-04   -0.62559E-03  5248   0.864E-02    0.324E-02
RMM:   2    -0.231578018781E+04   -0.11706E-03   -0.10027E-03  6041   0.210E-02    0.476E-02
RMM:   3    -0.231578016855E+04    0.19253E-04   -0.12023E-04  2898   0.835E-03    0.220E-02
RMM:   4    -0.231578016220E+04    0.63546E-05   -0.12688E-05  2920   0.336E-03
  41 F= -.23370486E+04 E0= -.23370486E+04  d E =-.347628E-03  mag=     0.0000
       N       E                     dE             d eps       ncg     rms          rms(c)
DAV:   1    -0.231577938044E+04    0.78811E-03   -0.93847E-02  4512   0.327E-01    0.105E-01
RMM:   2    -0.231578071783E+04   -0.13374E-02   -0.12615E-02  6391   0.707E-02    0.139E-01
RMM:   3    -0.231578071582E+04    0.20049E-05   -0.12898E-03  4085   0.256E-02    0.108E-01
RMM:   4    -0.231578056512E+04    0.15070E-03   -0.13370E-04  3042   0.841E-03    0.301E-02
RMM:   5    -0.231578056275E+04    0.23680E-05   -0.68313E-05  3341   0.659E-03
  42 F= -.23370489E+04 E0= -.23370489E+04  d E =-.296164E-03  mag=     0.0000
       N       E                     dE             d eps       ncg     rms          rms(c)
DAV:   1    -0.231578048277E+04    0.82348E-04   -0.69889E-03  5184   0.899E-02    0.306E-02
RMM:   2    -0.231578058352E+04   -0.10075E-03   -0.99317E-04  5980   0.210E-02    0.340E-02
RMM:   3    -0.231578058396E+04   -0.44618E-06   -0.10777E-04  2896   0.827E-03    0.275E-02
RMM:   4    -0.231578057495E+04    0.90129E-05   -0.11771E-05  2892   0.342E-03
  43 F= -.23370489E+04 E0= -.23370488E+04  d E =-.279607E-03  mag=     0.0000
       N       E                     dE             d eps       ncg     rms          rms(c)
DAV:   1    -0.231577996552E+04    0.61844E-03   -0.77562E-02  4496   0.291E-01    0.881E-02
RMM:   2    -0.231578111142E+04   -0.11459E-02   -0.11020E-02  6435   0.637E-02    0.120E-01
RMM:   3    -0.231578112282E+04   -0.11401E-04   -0.11162E-03  3729   0.229E-02    0.921E-02
RMM:   4    -0.231578101761E+04    0.10521E-03   -0.11338E-04  2980   0.758E-03    0.273E-02
RMM:   5    -0.231578101199E+04    0.56264E-05   -0.51973E-05  3139   0.578E-03
  44 F= -.23370492E+04 E0= -.23370492E+04  d E =-.300021E-03  mag=     0.0000
       N       E                     dE             d eps       ncg     rms          rms(c)
DAV:   1    -0.231578078281E+04    0.23480E-03   -0.23553E-02  4560   0.161E-01    0.508E-02
RMM:   2    -0.231578114177E+04   -0.35896E-03   -0.34620E-03  6423   0.373E-02    0.649E-02
RMM:   3    -0.231578113513E+04    0.66437E-05   -0.35359E-04  3067   0.132E-02    0.478E-02
RMM:   4    -0.231578111309E+04    0.22044E-04   -0.40176E-05  2910   0.532E-03    0.275E-02
RMM:   5    -0.231578110723E+04    0.58548E-05   -0.12062E-05  2873   0.260E-03
  45 F= -.23370492E+04 E0= -.23370492E+04  d E =-.319757E-03  mag=     0.0000
       N       E                     dE             d eps       ncg     rms          rms(c)
DAV:   1    -0.231578027267E+04    0.84041E-03   -0.90528E-02  4496   0.317E-01    0.988E-02
RMM:   2    -0.231578165042E+04   -0.13777E-02   -0.13282E-02  6404   0.709E-02    0.130E-01
RMM:   3    -0.231578166571E+04   -0.15294E-04   -0.13423E-03  3984   0.256E-02    0.104E-01
RMM:   4    -0.231578153264E+04    0.13307E-03   -0.13700E-04  2966   0.826E-03    0.319E-02
RMM:   5    -0.231578153622E+04   -0.35770E-05   -0.49847E-05  2919   0.544E-03
  46 F= -.23370495E+04 E0= -.23370495E+04  d E =-.299668E-03  mag=     0.0000
       N       E                     dE             d eps       ncg     rms          rms(c)
DAV:   1    -0.231578142345E+04    0.10919E-03   -0.90325E-03  5032   0.101E-01    0.345E-02
RMM:   2    -0.231578157590E+04   -0.15246E-03   -0.14077E-03  6101   0.240E-02    0.490E-02
RMM:   3    -0.231578156142E+04    0.14488E-04   -0.15471E-04  2898   0.915E-03    0.299E-02
RMM:   4    -0.231578155490E+04    0.65155E-05   -0.21733E-05  2927   0.364E-03
  47 F= -.23370494E+04 E0= -.23370494E+04  d E =-.276694E-03  mag=     0.0000
       N       E                     dE             d eps       ncg     rms          rms(c)
DAV:   1    -0.231578044426E+04    0.11172E-02   -0.99485E-02  4496   0.332E-01    0.104E-01
RMM:   2    -0.231578214005E+04   -0.16958E-02   -0.14866E-02  6480   0.744E-02    0.178E-01
RMM:   3    -0.231578194421E+04    0.19584E-03   -0.14668E-03  4112   0.262E-02    0.877E-02
RMM:   4    -0.231578184509E+04    0.99121E-04   -0.14554E-04  2990   0.793E-03    0.304E-02
RMM:   5    -0.231578185885E+04   -0.13765E-04   -0.58995E-05  2956   0.605E-03    0.468E-02
RMM:   6    -0.231578182910E+04    0.29752E-04   -0.37219E-05  2936   0.597E-03    0.976E-03
RMM:   7    -0.231578182902E+04    0.80705E-07   -0.10051E-05  2890   0.390E-03
  48 F= -.23370497E+04 E0= -.23370497E+04  d E =-.207568E-03  mag=     0.0000
       N       E                     dE             d eps       ncg     rms          rms(c)
DAV:   1    -0.231578181538E+04    0.13716E-04   -0.11110E-03  5104   0.354E-02    0.128E-02
RMM:   2    -0.231578183791E+04   -0.22525E-04   -0.17895E-04  3608   0.896E-03    0.243E-02
RMM:   3    -0.231578183309E+04    0.48192E-05   -0.22219E-05  2719   0.531E-03
  49 F= -.23370497E+04 E0= -.23370497E+04  d E =-.204409E-03  mag=     0.0000
       N       E                     dE             d eps       ncg     rms          rms(c)
DAV:   1    -0.231578112443E+04    0.71348E-03   -0.75535E-02  4496   0.295E-01    0.963E-02
RMM:   2    -0.231578229199E+04   -0.11676E-02   -0.10589E-02  6428   0.661E-02    0.142E-01
RMM:   3    -0.231578220918E+04    0.82808E-04   -0.10190E-03  3900   0.237E-02    0.916E-02
RMM:   4    -0.231578209760E+04    0.11158E-03   -0.10654E-04  2942   0.781E-03    0.246E-02
RMM:   5    -0.231578209483E+04    0.27654E-05   -0.52284E-05  3122   0.607E-03
  50 F= -.23370498E+04 E0= -.23370498E+04  d E =-.178021E-03  mag=     0.0000
       N       E                     dE             d eps       ncg     rms          rms(c)
DAV:   1    -0.231578208434E+04    0.13255E-04   -0.36629E-05  3856   0.103E-02    0.118E-02
RMM:   2    -0.231578210140E+04   -0.17053E-04   -0.27804E-05  2868   0.444E-03    0.370E-02
RMM:   3    -0.231578208311E+04    0.18282E-04   -0.10117E-05  2546   0.287E-03    0.390E-03
RMM:   4    -0.231578208308E+04    0.32800E-07   -0.16604E-06  2078   0.129E-03
  51 F= -.23370498E+04 E0= -.23370498E+04  d E =-.164911E-03  mag=     0.0000
       N       E                     dE             d eps       ncg     rms          rms(c)
DAV:   1    -0.231578167605E+04    0.40706E-03   -0.47262E-02  4496   0.232E-01    0.754E-02
RMM:   2    -0.231578239647E+04   -0.72042E-03   -0.67620E-03  6448   0.522E-02    0.103E-01
RMM:   3    -0.231578237581E+04    0.20664E-04   -0.64207E-04  3463   0.183E-02    0.749E-02
RMM:   4    -0.231578230539E+04    0.70418E-04   -0.74290E-05  2920   0.666E-03    0.261E-02
RMM:   5    -0.231578230442E+04    0.97099E-06   -0.24632E-05  2904   0.409E-03
  52 F= -.23370499E+04 E0= -.23370499E+04  d E =-.115736E-03  mag=     0.0000
       N       E                     dE             d eps       ncg     rms          rms(c)
DAV:   1    -0.231578229449E+04    0.10901E-04   -0.10593E-04  5312   0.127E-02    0.773E-03
RMM:   2    -0.231578229905E+04   -0.45644E-05   -0.26923E-05  2802   0.355E-03
  53 F= -.23370499E+04 E0= -.23370499E+04  d E =-.104726E-03  mag=     0.0000
       N       E                     dE             d eps       ncg     rms          rms(c)
DAV:   1    -0.231578197424E+04    0.32025E-03   -0.37159E-02  4496   0.205E-01    0.652E-02
RMM:   2    -0.231578248827E+04   -0.51404E-03   -0.52938E-03  6388   0.457E-02    0.636E-02
RMM:   3    -0.231578254636E+04   -0.58090E-04   -0.52701E-04  3274   0.171E-02    0.761E-02
RMM:   4    -0.231578247517E+04    0.71188E-04   -0.63947E-05  2914   0.630E-03    0.246E-02
RMM:   5    -0.231578247305E+04    0.21203E-05   -0.22635E-05  2902   0.372E-03
  54 F= -.23370500E+04 E0= -.23370500E+04  d E =-.994720E-04  mag=     0.0000
       N       E                     dE             d eps       ncg     rms          rms(c)
DAV:   1    -0.231578246391E+04    0.11263E-04   -0.71483E-04  5280   0.295E-02    0.157E-02
RMM:   2    -0.231578249129E+04   -0.27382E-04   -0.13472E-04  3274   0.748E-03    0.372E-02
RMM:   3    -0.231578247292E+04    0.18367E-04   -0.22176E-05  2668   0.469E-03    0.788E-03
RMM:   4    -0.231578247265E+04    0.27694E-06   -0.39648E-06  2432   0.154E-03
  55 F= -.23370500E+04 E0= -.23370500E+04  d E =-.879852E-04  mag=     0.0000
       N       E                     dE             d eps       ncg     rms          rms(c)
DAV:   1    -0.231578209602E+04    0.37690E-03   -0.37486E-02  4496   0.206E-01    0.617E-02
RMM:   2    -0.231578259792E+04   -0.50190E-03   -0.52774E-03  6316   0.450E-02    0.537E-02
RMM:   3    -0.231578266901E+04   -0.71085E-04   -0.51247E-04  3217   0.168E-02    0.746E-02
RMM:   4    -0.231578259967E+04    0.69337E-04   -0.60627E-05  2912   0.607E-03    0.219E-02
RMM:   5    -0.231578259298E+04    0.66957E-05   -0.22784E-05  2904   0.390E-03
  56 F= -.23370501E+04 E0= -.23370501E+04  d E =-.764217E-04  mag=     0.0000
       N       E                     dE             d eps       ncg     rms          rms(c)
DAV:   1    -0.231578259004E+04    0.96362E-05   -0.32156E-04  5232   0.201E-02    0.131E-02
RMM:   2    -0.231578260497E+04   -0.14939E-04   -0.78386E-05  2982   0.560E-03    0.277E-02
RMM:   3    -0.231578259307E+04    0.11904E-04   -0.15548E-05  2535   0.393E-03    0.564E-03
RMM:   4    -0.231578259311E+04   -0.41939E-07   -0.22023E-06  2024   0.115E-03
  57 F= -.23370501E+04 E0= -.23370501E+04  d E =-.722940E-04  mag=     0.0000
       N       E                     dE             d eps       ncg     rms          rms(c)
DAV:   1    -0.231578232693E+04    0.26614E-03   -0.29882E-02  4496   0.185E-01    0.547E-02
RMM:   2    -0.231578276276E+04   -0.43583E-03   -0.42089E-03  6334   0.404E-02    0.734E-02
RMM:   3    -0.231578276438E+04   -0.16172E-05   -0.40737E-04  3110   0.149E-02    0.551E-02
RMM:   4    -0.231578272447E+04    0.39906E-04   -0.44161E-05  2934   0.526E-03    0.181E-02
RMM:   5    -0.231578272288E+04    0.15917E-05   -0.17844E-05  2903   0.348E-03
  58 F= -.23370502E+04 E0= -.23370502E+04  d E =-.759142E-04  mag=     0.0000
       N       E                     dE             d eps       ncg     rms          rms(c)
DAV:   1    -0.231578270432E+04    0.20150E-04   -0.16212E-03  4992   0.436E-02    0.151E-02
RMM:   2    -0.231578273211E+04   -0.27786E-04   -0.24423E-04  4032   0.106E-02    0.229E-02
RMM:   3    -0.231578272820E+04    0.39096E-05   -0.30524E-05  2848   0.577E-03
  59 F= -.23370501E+04 E0= -.23370501E+04  d E =-.683300E-04  mag=     0.0000
       N       E                     dE             d eps       ncg     rms          rms(c)
DAV:   1    -0.231578254160E+04    0.19051E-03   -0.23463E-02  4496   0.165E-01    0.503E-02
RMM:   2    -0.231578290204E+04   -0.36044E-03   -0.33683E-03  6392   0.380E-02    0.702E-02
RMM:   3    -0.231578288891E+04    0.13129E-04   -0.32179E-04  3031   0.134E-02    0.454E-02
RMM:   4    -0.231578286171E+04    0.27201E-04   -0.37140E-05  2932   0.487E-03    0.194E-02
RMM:   5    -0.231578286091E+04    0.79257E-06   -0.11609E-05  2876   0.285E-03
  60 F= -.23370502E+04 E0= -.23370502E+04  d E =-.631152E-04  mag=     0.0000
       N       E                     dE             d eps       ncg     rms          rms(c)
DAV:   1    -0.231578285184E+04    0.98632E-05   -0.10850E-03  5200   0.360E-02    0.138E-02
RMM:   2    -0.231578287379E+04   -0.21945E-04   -0.17002E-04  3692   0.884E-03    0.239E-02
RMM:   3    -0.231578286731E+04    0.64735E-05   -0.22705E-05  2744   0.519E-03
  61 F= -.23370502E+04 E0= -.23370502E+04  d E =-.539289E-04  mag=     0.0000
       N       E                     dE             d eps       ncg     rms          rms(c)
DAV:   1    -0.231578261718E+04    0.25660E-03   -0.23033E-02  4496   0.162E-01    0.509E-02
RMM:   2    -0.231578307860E+04   -0.46142E-03   -0.37877E-03  6434   0.392E-02    0.102E-01
RMM:   3    -0.231578298719E+04    0.91414E-04   -0.35422E-04  3006   0.136E-02    0.331E-02
RMM:   4    -0.231578297199E+04    0.15198E-04   -0.41882E-05  2956   0.473E-03    0.196E-02
RMM:   5    -0.231578297066E+04    0.13306E-05   -0.11818E-05  2856   0.285E-03
  62 F= -.23370503E+04 E0= -.23370503E+04  d E =-.626120E-04  mag=     0.0000
       N       E                     dE             d eps       ncg     rms          rms(c)
DAV:   1    -0.231578295975E+04    0.12240E-04   -0.74982E-04  5136   0.299E-02    0.147E-02
RMM:   2    -0.231578298637E+04   -0.26616E-04   -0.14804E-04  3628   0.786E-03    0.330E-02
RMM:   3    -0.231578297093E+04    0.15437E-04   -0.22242E-05  2674   0.476E-03    0.812E-03
RMM:   4    -0.231578297045E+04    0.47745E-06   -0.38123E-06  2392   0.159E-03
  63 F= -.23370503E+04 E0= -.23370503E+04  d E =-.546968E-04  mag=     0.0000
       N       E                     dE             d eps       ncg     rms          rms(c)
DAV:   1    -0.231578276483E+04    0.20610E-03   -0.21440E-02  4496   0.159E-01    0.539E-02
RMM:   2    -0.231578322326E+04   -0.45842E-03   -0.31898E-03  6351   0.368E-02    0.125E-01
RMM:   3    -0.231578306209E+04    0.16117E-03   -0.28587E-04  3051   0.126E-02    0.292E-02
RMM:   4    -0.231578304644E+04    0.15650E-04   -0.33772E-05  2960   0.440E-03    0.135E-02
RMM:   5    -0.231578304289E+04    0.35509E-05   -0.13809E-05  2898   0.356E-03
  64 F= -.23370503E+04 E0= -.23370503E+04  d E =-.503121E-04  mag=     0.0000
       N       E                     dE             d eps       ncg     rms          rms(c)
DAV:   1    -0.231578304309E+04    0.33448E-05   -0.76636E-06  3800   0.467E-03    0.684E-03
RMM:   2    -0.231578304886E+04   -0.57631E-05   -0.10068E-05  2390   0.248E-03
  65 F= -.23370503E+04 E0= -.23370503E+04  d E =-.558978E-04  mag=     0.0000
       N       E                     dE             d eps       ncg     rms          rms(c)
DAV:   1    -0.231578304252E+04    0.57695E-06   -0.96497E-06  2752   0.482E-03    0.210E-03
RMM:   2    -0.231578304298E+04   -0.46566E-06   -0.24685E-06  1978   0.171E-03
  66 F= -.23370503E+04 E0= -.23370503E+04  d E =-.503731E-04  mag=     0.0000
       N       E                     dE             d eps       ncg     rms          rms(c)
DAV:   1    -0.231578294839E+04    0.94132E-04   -0.14327E-02  4496   0.131E-01    0.393E-02
RMM:   2    -0.231578316791E+04   -0.21952E-03   -0.18032E-03  6278   0.290E-02    0.723E-02
RMM:   3    -0.231578312537E+04    0.42534E-04   -0.16590E-04  2936   0.993E-03    0.283E-02
RMM:   4    -0.231578311348E+04    0.11892E-04   -0.18791E-05  2944   0.364E-03    0.115E-02
RMM:   5    -0.231578311486E+04   -0.13793E-05   -0.92390E-06  2834   0.273E-03
  67 F= -.23370504E+04 E0= -.23370503E+04  d E =-.411932E-04  mag=     0.0000
       N       E                     dE             d eps       ncg     rms          rms(c)
DAV:   1    -0.231578311135E+04    0.21308E-05   -0.15700E-04  5264   0.145E-02    0.517E-03
RMM:   2    -0.231578311372E+04   -0.23734E-05   -0.21937E-05  2620   0.365E-03
  68 F= -.23370503E+04 E0= -.23370503E+04  d E =-.367141E-04  mag=     0.0000
       N       E                     dE             d eps       ncg     rms          rms(c)
DAV:   1    -0.231578304565E+04    0.65700E-04   -0.14149E-02  4496   0.131E-01    0.396E-02
RMM:   2    -0.231578323327E+04   -0.18762E-03   -0.16487E-03  6313   0.285E-02    0.602E-02
RMM:   3    -0.231578321364E+04    0.19624E-04   -0.16004E-04  2954   0.101E-02    0.337E-02
RMM:   4    -0.231578319849E+04    0.15148E-04   -0.18296E-05  2924   0.387E-03    0.141E-02
RMM:   5    -0.231578319918E+04   -0.68081E-06   -0.75310E-06  2832   0.241E-03
  69 F= -.23370504E+04 E0= -.23370504E+04  d E =-.356064E-04  mag=     0.0000
       N       E                     dE             d eps       ncg     rms          rms(c)
DAV:   1    -0.231578319786E+04    0.63103E-06   -0.15235E-04  5248   0.142E-02    0.515E-03
RMM:   2    -0.231578319994E+04   -0.20763E-05   -0.20554E-05  2624   0.351E-03
  70 F= -.23370504E+04 E0= -.23370504E+04  d E =-.307638E-04  mag=     0.0000
       N       E                     dE             d eps       ncg     rms          rms(c)
DAV:   1    -0.231578313345E+04    0.64413E-04   -0.12881E-02  4496   0.123E-01    0.355E-02
RMM:   2    -0.231578330546E+04   -0.17201E-03   -0.15149E-03  6330   0.273E-02    0.568E-02
RMM:   3    -0.231578328664E+04    0.18823E-04   -0.14522E-04  2940   0.971E-03    0.289E-02
RMM:   4    -0.231578327555E+04    0.11092E-04   -0.16514E-05  2930   0.362E-03    0.130E-02
RMM:   5    -0.231578327683E+04   -0.12848E-05   -0.75886E-06  2840   0.239E-03
  71 F= -.23370504E+04 E0= -.23370504E+04  d E =-.290647E-04  mag=     0.0000
       N       E                     dE             d eps       ncg     rms          rms(c)
DAV:   1    -0.231578327506E+04    0.48929E-06   -0.11270E-04  5280   0.123E-02    0.489E-03
RMM:   2    -0.231578327693E+04   -0.18669E-05   -0.16542E-05  2539   0.311E-03
  72 F= -.23370504E+04 E0= -.23370504E+04  d E =-.243305E-04  mag=     0.0000
       N       E                     dE             d eps       ncg     rms          rms(c)
DAV:   1    -0.231578323207E+04    0.42987E-04   -0.11209E-02  4496   0.116E-01    0.354E-02
RMM:   2    -0.231578339324E+04   -0.16116E-03   -0.12771E-03  6270   0.256E-02    0.652E-02
RMM:   3    -0.231578335675E+04    0.36487E-04   -0.11569E-04  2930   0.885E-03    0.248E-02
RMM:   4    -0.231578334787E+04    0.88803E-05   -0.14239E-05  2940   0.338E-03
  73 F= -.23370504E+04 E0= -.23370504E+04  d E =-.286206E-04  mag=     0.0000
       N       E                     dE             d eps       ncg     rms          rms(c)
DAV:   1    -0.231578335201E+04    0.47445E-05   -0.25998E-04  5232   0.183E-02    0.174E-02
RMM:   2    -0.231578339008E+04   -0.38079E-04   -0.72847E-05  3074   0.536E-03    0.531E-02
RMM:   3    -0.231578335184E+04    0.38246E-04   -0.23438E-05  2544   0.427E-03    0.508E-03
RMM:   4    -0.231578335171E+04    0.12695E-06   -0.33487E-06  2191   0.138E-03
  74 F= -.23370504E+04 E0= -.23370504E+04  d E =-.257582E-04  mag=     0.0000
       N       E                     dE             d eps       ncg     rms          rms(c)
DAV:   1    -0.231578332641E+04    0.25433E-04   -0.83480E-03  4496   0.101E-01    0.308E-02
RMM:   2    -0.231578344148E+04   -0.11507E-03   -0.85799E-04  6162   0.214E-02    0.597E-02
RMM:   3    -0.231578340827E+04    0.33211E-04   -0.75394E-05  2906   0.746E-03    0.209E-02
RMM:   4    -0.231578340193E+04    0.63408E-05   -0.99665E-06  2914   0.281E-03
  75 F= -.23370505E+04 E0= -.23370505E+04  d E =-.289122E-04  mag=     0.0000
       N       E                     dE             d eps       ncg     rms          rms(c)
DAV:   1    -0.231578340151E+04    0.67608E-05   -0.47186E-04  5024   0.243E-02    0.135E-02
RMM:   2    -0.231578341908E+04   -0.17573E-04   -0.67600E-05  3080   0.573E-03    0.328E-02
RMM:   3    -0.231578340462E+04    0.14462E-04   -0.13730E-05  2539   0.379E-03    0.686E-03
RMM:   4    -0.231578340472E+04   -0.98298E-07   -0.30484E-06  2182   0.136E-03
  76 F= -.23370505E+04 E0= -.23370505E+04  d E =-.265195E-04  mag=     0.0000
       N       E                     dE             d eps       ncg     rms          rms(c)
DAV:   1    -0.231578336285E+04    0.41774E-04   -0.76029E-03  4496   0.963E-02    0.302E-02
RMM:   2    -0.231578347555E+04   -0.11271E-03   -0.73480E-04  6118   0.204E-02    0.668E-02
RMM:   3    -0.231578342911E+04    0.46447E-04   -0.65471E-05  2908   0.719E-03    0.179E-02
RMM:   4    -0.231578342507E+04    0.40411E-05   -0.93104E-06  2902   0.274E-03
  77 F= -.23370505E+04 E0= -.23370505E+04  d E =-.218221E-04  mag=     0.0000
       N       E                     dE             d eps       ncg     rms          rms(c)
DAV:   1    -0.231578342347E+04    0.56379E-05   -0.15342E-05  4160   0.566E-03    0.974E-03
RMM:   2    -0.231578343247E+04   -0.90026E-05   -0.14672E-05  2456   0.353E-03
  78 F= -.23370505E+04 E0= -.23370505E+04  d E =-.292911E-04  mag=     0.0000
       N       E                     dE             d eps       ncg     rms          rms(c)
DAV:   1    -0.231578338243E+04    0.41038E-04   -0.65967E-03  4496   0.903E-02    0.299E-02
RMM:   2    -0.231578348093E+04   -0.98497E-04   -0.69468E-04  6122   0.200E-02    0.597E-02
RMM:   3    -0.231578344472E+04    0.36207E-04   -0.63254E-05  2902   0.702E-03    0.197E-02
RMM:   4    -0.231578344180E+04    0.29166E-05   -0.10350E-05  2891   0.278E-03
  79 F= -.23370505E+04 E0= -.23370505E+04  d E =-.554364E-05  mag=     0.0000
       N       E                     dE             d eps       ncg     rms          rms(c)
DAV:   1    -0.231578343855E+04    0.61693E-05   -0.44081E-06  3624   0.406E-03    0.787E-03
RMM:   2    -0.231578344187E+04   -0.33208E-05   -0.59125E-06  2185   0.203E-03
  80 F= -.23370505E+04 E0= -.23370505E+04  d E =-.561336E-05  mag=     0.0000
       N       E                     dE             d eps       ncg     rms          rms(c)
DAV:   1    -0.231578345210E+04   -0.13544E-04   -0.40550E-03  4496   0.712E-02    0.223E-02
RMM:   2    -0.231578350510E+04   -0.53007E-04   -0.37430E-04  5711   0.157E-02    0.440E-02
RMM:   3    -0.231578348619E+04    0.18916E-04   -0.34563E-05  2882   0.571E-03    0.150E-02
RMM:   4    -0.231578348337E+04    0.28166E-05   -0.47721E-06  2716   0.223E-03
  81 F= -.23370505E+04 E0= -.23370505E+04  d E =-.970024E-05  mag=     0.0000
       N       E                     dE             d eps       ncg     rms          rms(c)
DAV:   1    -0.231578348173E+04    0.44579E-05   -0.16800E-05  3760   0.551E-03    0.889E-03
RMM:   2    -0.231578349004E+04   -0.83126E-05   -0.14814E-05  2418   0.354E-03
  82 F= -.23370505E+04 E0= -.23370505E+04  d E =-.181009E-04  mag=     0.0000
       N       E                     dE             d eps       ncg     rms          rms(c)
DAV:   1    -0.231578349811E+04   -0.16377E-04   -0.44972E-03  4496   0.756E-02    0.238E-02
RMM:   2    -0.231578354452E+04   -0.46411E-04   -0.36644E-04  5690   0.159E-02    0.376E-02
RMM:   3    -0.231578353379E+04    0.10722E-04   -0.36567E-05  2888   0.630E-03    0.204E-02
RMM:   4    -0.231578352902E+04    0.47780E-05   -0.59859E-06  2832   0.239E-03
  83 F= -.23370505E+04 E0= -.23370505E+04  d E =0.274839E-05  mag=     0.0000
       N       E                     dE             d eps       ncg     rms          rms(c)
DAV:   1    -0.231578352233E+04    0.11469E-04   -0.13470E-04  5008   0.134E-02    0.728E-03
RMM:   2    -0.231578352663E+04   -0.43041E-05   -0.16780E-05  2494   0.344E-03
  84 F= -.23370505E+04 E0= -.23370505E+04  d E =-.169658E-05  mag=     0.0000
       N       E                     dE             d eps       ncg     rms          rms(c)
DAV:   1    -0.231578353519E+04   -0.12864E-04   -0.41170E-03  4496   0.720E-02    0.212E-02
RMM:   2    -0.231578357489E+04   -0.39705E-04   -0.34475E-04  5499   0.156E-02    0.286E-02
RMM:   3    -0.231578357061E+04    0.42830E-05   -0.36051E-05  2886   0.616E-03
  85 F= -.23370505E+04 E0= -.23370505E+04  d E =-.778758E-05  mag=     0.0000
       N       E                     dE             d eps       ncg     rms          rms(c)
DAV:   1    -0.231578356347E+04    0.11420E-04   -0.68005E-05  5248   0.101E-02    0.115E-02
RMM:   2    -0.231578357885E+04   -0.15378E-04   -0.24962E-05  2564   0.324E-03    0.358E-02
RMM:   3    -0.231578356322E+04    0.15630E-04   -0.82508E-06  2228   0.269E-03    0.860E-03
RMM:   4    -0.231578356224E+04    0.98412E-06   -0.13651E-06  1211   0.916E-04
  86 F= -.23370505E+04 E0= -.23370505E+04  d E =-.340090E-05  mag=     0.0000
       N       E                     dE             d eps       ncg     rms          rms(c)
DAV:   1    -0.231578356151E+04    0.17123E-05   -0.37074E-03  4480   0.678E-02    0.200E-02
RMM:   2    -0.231578359834E+04   -0.36827E-04   -0.32242E-04  5759   0.139E-02    0.277E-02
RMM:   3    -0.231578359377E+04    0.45636E-05   -0.27172E-05  2832   0.518E-03
  87 F= -.23370505E+04 E0= -.23370505E+04  d E =-.114460E-04  mag=     0.0000
       N       E                     dE             d eps       ncg     rms          rms(c)
DAV:   1    -0.231578358868E+04    0.96559E-05   -0.52327E-05  5024   0.879E-03    0.103E-02
RMM:   2    -0.231578360116E+04   -0.12480E-04   -0.18739E-05  2536   0.285E-03    0.324E-02
RMM:   3    -0.231578358835E+04    0.12812E-04   -0.66901E-06  2183   0.241E-03    0.741E-03
RMM:   4    -0.231578358763E+04    0.72362E-06   -0.94081E-07  1028   0.828E-04
  88 F= -.23370505E+04 E0= -.23370505E+04  d E =-.726546E-05  mag=     0.0000
       N       E                     dE             d eps       ncg     rms          rms(c)
DAV:   1    -0.231578358346E+04    0.48872E-05   -0.24460E-03  4480   0.548E-02    0.165E-02
RMM:   2    -0.231578360526E+04   -0.21796E-04   -0.21556E-04  5092   0.112E-02    0.167E-02
RMM:   3    -0.231578360635E+04   -0.10972E-05   -0.20246E-05  2774   0.484E-03
  89 F= -.23370505E+04 E0= -.23370505E+04  d E =-.827528E-05  mag=     0.0000
       N       E                     dE             d eps       ncg     rms          rms(c)
DAV:   1    -0.231578360228E+04    0.29779E-05   -0.65508E-05  5008   0.962E-03    0.851E-03
RMM:   2    -0.231578361201E+04   -0.97270E-05   -0.14764E-05  2482   0.269E-03
  90 F= -.23370505E+04 E0= -.23370505E+04  d E =-.154315E-04  mag=     0.0000
       N       E                     dE             d eps       ncg     rms          rms(c)
DAV:   1    -0.231578359066E+04    0.11616E-04   -0.16592E-03  4432   0.453E-02    0.129E-02
RMM:   2    -0.231578361073E+04   -0.20066E-04   -0.19327E-04  4338   0.105E-02    0.154E-02
RMM:   3    -0.231578361103E+04   -0.29783E-06   -0.21596E-05  2496   0.533E-03
  91 F= -.23370505E+04 E0= -.23370505E+04  d E =0.361406E-05  mag=     0.0000
       N       E                     dE             d eps       ncg     rms          rms(c)
DAV:   1    -0.231578360929E+04    0.14385E-05   -0.16832E-05  3488   0.505E-03    0.735E-03
RMM:   2    -0.231578361425E+04   -0.49565E-05   -0.10259E-05  2372   0.312E-03
  92 F= -.23370505E+04 E0= -.23370505E+04  d E =0.618431E-06  mag=     0.0000
       N       E                     dE             d eps       ncg     rms          rms(c)
DAV:   1    -0.231578361327E+04   -0.39818E-05   -0.78202E-04  4416   0.314E-02    0.105E-02
RMM:   2    -0.231578362293E+04   -0.96547E-05   -0.10092E-04  3482   0.752E-03    0.788E-03
RMM:   3    -0.231578362348E+04   -0.55575E-06   -0.12511E-05  2332   0.476E-03
  93 F= -.23370505E+04 E0= -.23370505E+04  d E =-.495431E-05  mag=     0.0000
       N       E                     dE             d eps       ncg     rms          rms(c)
DAV:   1    -0.231578362357E+04   -0.64207E-06   -0.12772E-04  5104   0.128E-02    0.584E-03
RMM:   2    -0.231578362611E+04   -0.25430E-05   -0.18118E-05  2453   0.341E-03
  94 F= -.23370505E+04 E0= -.23370505E+04  d E =-.579317E-05  mag=     0.0000
       N       E                     dE             d eps       ncg     rms          rms(c)
DAV:   1    -0.231578361636E+04    0.72073E-05   -0.46192E-04  4368   0.242E-02    0.834E-03
RMM:   2    -0.231578362196E+04   -0.55926E-05   -0.57784E-05  2896   0.632E-03
  95 F= -.23370505E+04 E0= -.23370505E+04  d E =-.319482E-05  mag=     0.0000
       N       E                     dE             d eps       ncg     rms          rms(c)
DAV:   1    -0.231578362333E+04   -0.69651E-05   -0.12162E-05  2864   0.559E-03    0.120E-02
RMM:   2    -0.231578365091E+04   -0.27584E-04   -0.28220E-05  2524   0.304E-03    0.499E-02
RMM:   3    -0.231578362255E+04    0.28366E-04   -0.93475E-06  2153   0.233E-03    0.334E-03
RMM:   4    -0.231578362205E+04    0.49833E-06   -0.68640E-07  1061   0.759E-04
  96 F= -.23370505E+04 E0= -.23370505E+04  d E =-.320825E-05  mag=     0.0000
       N       E                     dE             d eps       ncg     rms          rms(c)
DAV:   1    -0.231578361859E+04    0.39600E-05   -0.19030E-04  4176   0.153E-02    0.481E-03
RMM:   2    -0.231578362087E+04   -0.22885E-05   -0.22224E-05  2394   0.355E-03
  97 F= -.23370505E+04 E0= -.23370505E+04  d E =-.256633E-05  mag=     0.0000
       N       E                     dE             d eps       ncg     rms          rms(c)
DAV:   1    -0.231578362014E+04   -0.15537E-05   -0.10816E-05  2464   0.453E-03    0.564E-03
RMM:   2    -0.231578362723E+04   -0.70861E-05   -0.91070E-06  2314   0.296E-03
  98 F= -.23370506E+04 E0= -.23370506E+04  d E =-.965397E-05  mag=     0.0000
       N       E                     dE             d eps       ncg     rms          rms(c)
DAV:   1    -0.231578361994E+04    0.20207E-06   -0.13867E-04  4912   0.130E-02    0.453E-03
RMM:   2    -0.231578362227E+04   -0.23325E-05   -0.21181E-05  2374   0.315E-03
  99 F= -.23370505E+04 E0= -.23370505E+04  d E =0.355400E-05  mag=     0.0000
       N       E                     dE             d eps       ncg     rms          rms(c)
DAV:   1    -0.231578362144E+04   -0.15027E-05   -0.10719E-05  2464   0.431E-03    0.478E-03
RMM:   2    -0.231578362535E+04   -0.39141E-05   -0.68083E-06  2300   0.288E-03
 100 F= -.23370506E+04 E0= -.23370506E+04  d E =0.106175E-06  mag=     0.0000
       N       E                     dE             d eps       ncg     rms          rms(c)
DAV:   1    -0.231578363105E+04   -0.96105E-05   -0.77713E-05  4304   0.979E-03    0.356E-03
RMM:   2    -0.231578363195E+04   -0.90050E-06   -0.10718E-05  2336   0.251E-03
 101 F= -.23370505E+04 E0= -.23370505E+04  d E =0.191266E-05  mag=     0.0000
       N       E                     dE             d eps       ncg     rms          rms(c)
DAV:   1    -0.231578363805E+04   -0.69989E-05   -0.34921E-05  3280   0.670E-03    0.401E-03
RMM:   2    -0.231578364004E+04   -0.19906E-05   -0.89011E-06  2342   0.306E-03
 102 F= -.23370506E+04 E0= -.23370506E+04  d E =-.698087E-07  mag=     0.0000
       N       E                     dE             d eps       ncg     rms          rms(c)
DAV:   1    -0.231578364300E+04   -0.49540E-05   -0.49955E-05  4160   0.812E-03    0.280E-03
RMM:   2    -0.231578364369E+04   -0.68924E-06   -0.74443E-06  2322   0.234E-03
 103 F= -.23370506E+04 E0= -.23370506E+04  d E =-.715786E-06  mag=     0.0000
       N       E                     dE             d eps       ncg     rms          rms(c)
DAV:   1    -0.231578364487E+04   -0.18661E-05   -0.82306E-06  2448   0.373E-03    0.309E-03
RMM:   2    -0.231578364660E+04   -0.17258E-05   -0.37894E-06  2276   0.250E-03
 104 F= -.23370506E+04 E0= -.23370506E+04  d E =-.240768E-05  mag=     0.0000
       N       E                     dE             d eps       ncg     rms          rms(c)
DAV:   1    -0.231578364682E+04   -0.19474E-05   -0.31097E-05  3168   0.644E-03    0.258E-03
RMM:   2    -0.231578364756E+04   -0.74417E-06   -0.49629E-06  2306   0.221E-03
 105 F= -.23370506E+04 E0= -.23370506E+04  d E =0.815207E-07  mag=     0.0000
       N       E                     dE             d eps       ncg     rms          rms(c)
DAV:   1    -0.231578364805E+04   -0.12376E-05   -0.15953E-05  2576   0.466E-03    0.246E-03
RMM:   2    -0.231578364890E+04   -0.84251E-06   -0.34356E-06  2294   0.251E-03
 106 F= -.23370506E+04 E0= -.23370506E+04  d E =-.481626E-06  mag=     0.0000
       N       E                     dE             d eps       ncg     rms          rms(c)
DAV:   1    -0.231578364868E+04   -0.62068E-06   -0.63053E-05  4208   0.870E-03    0.334E-03
RMM:   2    -0.231578364951E+04   -0.83885E-06   -0.81334E-06  2330   0.233E-03
 107 F= -.23370506E+04 E0= -.23370506E+04  d E =0.463134E-06  mag=     0.0000
       N       E                     dE             d eps       ncg     rms          rms(c)
DAV:   1    -0.231578364886E+04   -0.18066E-06   -0.18808E-05  2592   0.495E-03    0.319E-03
RMM:   2    -0.231578365068E+04   -0.18227E-05   -0.39287E-06  2186   0.242E-03
 108 F= -.23370506E+04 E0= -.23370506E+04  d E =-.158310E-05  mag=     0.0000
       N       E                     dE             d eps       ncg     rms          rms(c)
DAV:   1    -0.231578364919E+04   -0.33058E-06   -0.63181E-06  2432   0.301E-03    0.912E-04
RMM:   2    -0.231578364931E+04   -0.12548E-06   -0.97656E-07  1810   0.127E-03
 109 F= -.23370506E+04 E0= -.23370506E+04  d E =0.243069E-06  mag=     0.0000
       N       E                     dE             d eps       ncg     rms          rms(c)
DAV:   1    -0.231578364915E+04    0.36016E-07   -0.90512E-07  2272   0.115E-03    0.709E-04
RMM:   2    -0.231578364920E+04   -0.52401E-07   -0.27244E-07   880   0.617E-04
 110 F= -.23370506E+04 E0= -.23370506E+04  d E =0.122415E-06  mag=     0.0000
       N       E                     dE             d eps       ncg     rms          rms(c)
DAV:   1    -0.231578365136E+04   -0.22115E-05   -0.29869E-05  3168   0.598E-03    0.178E-03
RMM:   2    -0.231578365184E+04   -0.47685E-06   -0.39785E-06  2248   0.169E-03
 111 F= -.23370506E+04 E0= -.23370506E+04  d E =-.102070E-05  mag=     0.0000
       N       E                     dE             d eps       ncg     rms          rms(c)
DAV:   1    -0.231578365305E+04   -0.16836E-05   -0.20474E-05  2576   0.516E-03    0.223E-03
RMM:   2    -0.231578365403E+04   -0.98730E-06   -0.41976E-06  2241   0.237E-03
 112 F= -.23370506E+04 E0= -.23370506E+04  d E =-.195915E-05  mag=     0.0000
       N       E                     dE             d eps       ncg     rms          rms(c)
DAV:   1    -0.231578365599E+04   -0.29453E-05   -0.19898E-05  2592   0.524E-03    0.165E-03
RMM:   2    -0.231578365633E+04   -0.34255E-06   -0.31325E-06  2263   0.225E-03
 113 F= -.23370506E+04 E0= -.23370506E+04  d E =-.105642E-05  mag=     0.0000
