       N       E                     dE             d eps       ncg     rms          rms(c)
DAV:   1     0.128793045995E+05    0.12879E+05   -0.83373E+05  4480   0.144E+03
DAV:   2    -0.105335690668E+04   -0.13933E+05   -0.13324E+05  5120   0.330E+02
DAV:   3    -0.247165700683E+04   -0.14183E+04   -0.14034E+04  5400   0.112E+02
DAV:   4    -0.251670424153E+04   -0.45047E+02   -0.44814E+02  6728   0.298E+01
DAV:   5    -0.251749562335E+04   -0.79138E+00   -0.78998E+00  5968   0.341E+00    0.170E+02
RMM:   6    -0.148831175545E+04    0.10292E+04   -0.19314E+03  4426   0.383E+01    0.723E+01
RMM:   7    -0.166497406204E+04   -0.17666E+03   -0.29448E+02  5016   0.141E+01    0.513E+01
RMM:   8    -0.171247781878E+04   -0.47504E+02   -0.56568E+01  5258   0.732E+00    0.458E+01
RMM:   9    -0.177454151941E+04   -0.62064E+02   -0.72143E+01  4894   0.722E+00    0.351E+01
RMM:  10    -0.190913940770E+04   -0.13460E+03   -0.65989E+01  5282   0.802E+00    0.272E+01
RMM:  11    -0.197923194486E+04   -0.70093E+02   -0.27114E+01  5382   0.442E+00    0.237E+01
RMM:  12    -0.203912611955E+04   -0.59894E+02   -0.21184E+01  4878   0.358E+00    0.172E+01
RMM:  13    -0.209582907723E+04   -0.56703E+02   -0.20861E+01  4902   0.350E+00    0.128E+01
RMM:  14    -0.222201525795E+04   -0.12619E+03   -0.10184E+02  4435   0.704E+00    0.104E+01
RMM:  15    -0.227404910793E+04   -0.52034E+02   -0.43847E+01  4556   0.498E+00    0.640E+00
RMM:  16    -0.230050752638E+04   -0.26458E+02   -0.25240E+01  4644   0.368E+00    0.450E+00
RMM:  17    -0.230742236754E+04   -0.69148E+01   -0.73296E+00  4695   0.207E+00    0.295E+00
RMM:  18    -0.231112441388E+04   -0.37020E+01   -0.30858E+00  4691   0.112E+00    0.126E+00
RMM:  19    -0.231184307998E+04   -0.71867E+00   -0.57987E-01  4844   0.704E-01    0.978E-01
RMM:  20    -0.231214696618E+04   -0.30389E+00   -0.19467E-01  4719   0.264E-01    0.388E-01
RMM:  21    -0.231221482017E+04   -0.67854E-01   -0.38363E-02  4744   0.180E-01    0.217E-01
RMM:  22    -0.231224901319E+04   -0.34193E-01   -0.12315E-02  4611   0.817E-02    0.165E-01
RMM:  23    -0.231227244898E+04   -0.23436E-01   -0.82788E-03  4465   0.763E-02    0.967E-02
RMM:  24    -0.231228365634E+04   -0.11207E-01   -0.32880E-03  4596   0.476E-02    0.761E-02
RMM:  25    -0.231229520665E+04   -0.11550E-01   -0.36488E-03  4420   0.419E-02    0.379E-02
RMM:  26    -0.231230010116E+04   -0.48945E-02   -0.16760E-03  4484   0.332E-02    0.255E-02
RMM:  27    -0.231230223242E+04   -0.21313E-02   -0.84181E-04  4163   0.202E-02    0.137E-02
RMM:  28    -0.231230271124E+04   -0.47882E-03   -0.20242E-04  3819   0.156E-02    0.951E-03
RMM:  29    -0.231230300599E+04   -0.29475E-03   -0.10775E-04  3623   0.773E-03    0.550E-03
RMM:  30    -0.231230309048E+04   -0.84491E-04   -0.26648E-05  3132   0.618E-03    0.389E-03
RMM:  31    -0.231230314282E+04   -0.52339E-04   -0.18195E-05  3014   0.397E-03    0.227E-03
RMM:  32    -0.231230316610E+04   -0.23278E-04   -0.97298E-06  2870   0.350E-03    0.130E-03
RMM:  33    -0.231230317146E+04   -0.53603E-05   -0.43700E-06  2442   0.237E-03
   1 F= -.23331114E+04 E0= -.23331102E+04  d E =-.233311E+04  mag=     6.9734
       N       E                     dE             d eps       ncg     rms          rms(c)
DAV:   1    -0.231231023540E+04   -0.70693E-02   -0.15334E+00  5148   0.898E-01    0.365E-01
RMM:   2    -0.231232631926E+04   -0.16084E-01   -0.16610E-01  5926   0.179E-01    0.350E-01
RMM:   3    -0.231232670701E+04   -0.38775E-03   -0.15378E-02  5596   0.626E-02    0.222E-01
RMM:   4    -0.231232631896E+04    0.38805E-03   -0.20070E-03  4615   0.177E-02    0.107E-01
RMM:   5    -0.231232624053E+04    0.78425E-04   -0.60029E-04  4177   0.129E-02    0.112E-01
RMM:   6    -0.231232614799E+04    0.92540E-04   -0.34017E-04  3550   0.109E-02    0.503E-02
RMM:   7    -0.231232612563E+04    0.22364E-04   -0.51035E-05  3107   0.575E-03    0.119E-02
RMM:   8    -0.231232612519E+04    0.44312E-06   -0.99439E-06  2881   0.363E-03
   2 F= -.23331345E+04 E0= -.23331338E+04  d E =-.231414E-01  mag=     6.9828
       N       E                     dE             d eps       ncg     rms          rms(c)
DAV:   1    -0.231232329819E+04    0.28274E-02   -0.67037E-01  4744   0.593E-01    0.239E-01
RMM:   2    -0.231233035759E+04   -0.70594E-02   -0.73076E-02  5978   0.118E-01    0.220E-01
RMM:   3    -0.231233056636E+04   -0.20877E-03   -0.66262E-03  5017   0.400E-02    0.144E-01
RMM:   4    -0.231233040489E+04    0.16148E-03   -0.87702E-04  3807   0.120E-02    0.711E-02
RMM:   5    -0.231233036314E+04    0.41747E-04   -0.26223E-04  3657   0.877E-03    0.697E-02
RMM:   6    -0.231233033086E+04    0.32277E-04   -0.14520E-04  3143   0.815E-03    0.355E-02
RMM:   7    -0.231233031988E+04    0.10984E-04   -0.26703E-05  2980   0.438E-03    0.845E-03
RMM:   8    -0.231233031975E+04    0.12413E-06   -0.55282E-06  2825   0.314E-03
   3 F= -.23331388E+04 E0= -.23331384E+04  d E =-.274621E-01  mag=     6.9891
       N       E                     dE             d eps       ncg     rms          rms(c)
DAV:   1    -0.231233356267E+04   -0.32428E-02   -0.68685E-01  4640   0.627E-01    0.312E-01
RMM:   2    -0.231234808973E+04   -0.14527E-01   -0.14233E-01  6118   0.150E-01    0.347E-01
RMM:   3    -0.231234826700E+04   -0.17727E-03   -0.12810E-02  5412   0.547E-02    0.159E-01
RMM:   4    -0.231234814929E+04    0.11771E-03   -0.14790E-03  3616   0.129E-02    0.739E-02
RMM:   5    -0.231234811998E+04    0.29308E-04   -0.16342E-04  3347   0.686E-03    0.790E-02
RMM:   6    -0.231234806921E+04    0.50779E-04   -0.13079E-04  3085   0.683E-03    0.380E-02
RMM:   7    -0.231234805908E+04    0.10121E-04   -0.63473E-05  3142   0.570E-03    0.112E-02
RMM:   8    -0.231234805923E+04   -0.14424E-06   -0.80246E-06  2834   0.379E-03
   4 F= -.23331566E+04 E0= -.23331563E+04  d E =-.177689E-01  mag=     6.9932
       N       E                     dE             d eps       ncg     rms          rms(c)
DAV:   1    -0.231225792932E+04    0.90130E-01   -0.61590E+00  4544   0.188E+00    0.944E-01
RMM:   2    -0.231238990823E+04   -0.13198E+00   -0.12955E+00  6071   0.450E-01    0.105E+00
RMM:   3    -0.231239130025E+04   -0.13920E-02   -0.12121E-01  5793   0.167E-01    0.465E-01
RMM:   4    -0.231239051277E+04    0.78747E-03   -0.13506E-02  5303   0.380E-02    0.232E-01
RMM:   5    -0.231239025994E+04    0.25283E-03   -0.15068E-03  4810   0.183E-02    0.243E-01
RMM:   6    -0.231238970940E+04    0.55054E-03   -0.11368E-03  4802   0.167E-02    0.106E-01
RMM:   7    -0.231238964146E+04    0.67941E-04   -0.59312E-04  4331   0.136E-02    0.365E-02
RMM:   8    -0.231238963940E+04    0.20611E-05   -0.54523E-05  2939   0.594E-03
   5 F= -.23331982E+04 E0= -.23331981E+04  d E =-.593621E-01  mag=     6.9972
       N       E                     dE             d eps       ncg     rms          rms(c)
DAV:   1    -0.231188936972E+04    0.50027E+00   -0.24554E+01  4488   0.373E+00    0.191E+00
RMM:   2    -0.231242319917E+04   -0.53383E+00   -0.52667E+00  6116   0.899E-01    0.207E+00
RMM:   3    -0.231242715778E+04   -0.39586E-02   -0.50783E-01  5859   0.333E-01    0.879E-01
RMM:   4    -0.231242521753E+04    0.19403E-02   -0.55397E-02  5671   0.751E-02    0.484E-01
RMM:   5    -0.231242401798E+04    0.11995E-02   -0.60993E-03  5356   0.343E-02    0.466E-01
RMM:   6    -0.231242190173E+04    0.21163E-02   -0.41831E-03  5263   0.309E-02    0.213E-01
RMM:   7    -0.231242170986E+04    0.19186E-03   -0.26234E-03  4992   0.268E-02    0.974E-02
RMM:   8    -0.231242166208E+04    0.47782E-04   -0.25645E-04  3640   0.999E-03    0.325E-02
RMM:   9    -0.231242169001E+04   -0.27924E-04   -0.83661E-05  3188   0.580E-03    0.279E-02
RMM:  10    -0.231242171635E+04   -0.26341E-04   -0.55735E-05  2968   0.553E-03    0.936E-03
RMM:  11    -0.231242172783E+04   -0.11488E-04   -0.11368E-05  2875   0.368E-03    0.551E-03
RMM:  12    -0.231242173885E+04   -0.11014E-04   -0.76160E-06  2847   0.267E-03    0.405E-03
RMM:  13    -0.231242174399E+04   -0.51444E-05   -0.41074E-06  2792   0.266E-03
   6 F= -.23332300E+04 E0= -.23332300E+04  d E =-.911853E-01  mag=     6.9998
       N       E                     dE             d eps       ncg     rms          rms(c)
DAV:   1    -0.231242152669E+04    0.21216E-03   -0.82516E-01  4640   0.758E-01    0.374E-01
RMM:   2    -0.231243866364E+04   -0.17137E-01   -0.16965E-01  6033   0.178E-01    0.380E-01
RMM:   3    -0.231243879343E+04   -0.12979E-03   -0.15077E-02  5674   0.671E-02    0.189E-01
RMM:   4    -0.231243857922E+04    0.21420E-03   -0.18200E-03  4530   0.162E-02    0.772E-02
RMM:   5    -0.231243851357E+04    0.65657E-04   -0.20646E-04  3982   0.100E-02    0.743E-02
RMM:   6    -0.231243847566E+04    0.37913E-04   -0.17794E-04  3473   0.846E-03    0.517E-02
RMM:   7    -0.231243844510E+04    0.30555E-04   -0.64732E-05  3225   0.707E-03    0.111E-02
RMM:   8    -0.231243844341E+04    0.16937E-05   -0.10925E-05  2861   0.461E-03
   7 F= -.23332463E+04 E0= -.23332463E+04  d E =-.162947E-01  mag=     6.9999
       N       E                     dE             d eps       ncg     rms          rms(c)
DAV:   1    -0.231231005449E+04    0.12839E+00   -0.74003E+00  4496   0.227E+00    0.113E+00
RMM:   2    -0.231246621112E+04   -0.15616E+00   -0.15513E+00  6023   0.530E-01    0.114E+00
RMM:   3    -0.231246780001E+04   -0.15889E-02   -0.14425E-01  5761   0.202E-01    0.576E-01
RMM:   4    -0.231246579017E+04    0.20098E-02   -0.16603E-02  5463   0.483E-02    0.237E-01
RMM:   5    -0.231246524474E+04    0.54543E-03   -0.20018E-03  5116   0.272E-02    0.236E-01
RMM:   6    -0.231246479962E+04    0.44512E-03   -0.15957E-03  5106   0.213E-02    0.148E-01
RMM:   7    -0.231246454154E+04    0.25808E-03   -0.59008E-04  4744   0.166E-02    0.344E-02
RMM:   8    -0.231246452267E+04    0.18872E-04   -0.70694E-05  3186   0.786E-03    0.190E-02
RMM:   9    -0.231246451174E+04    0.10928E-04   -0.37898E-05  3178   0.491E-03    0.145E-02
RMM:  10    -0.231246450732E+04    0.44204E-05   -0.21864E-05  2883   0.475E-03
   8 F= -.23332711E+04 E0= -.23332711E+04  d E =-.410741E-01  mag=     7.0000
       N       E                     dE             d eps       ncg     rms          rms(c)
DAV:   1    -0.231246027625E+04    0.42355E-02   -0.24367E-01  4928   0.408E-01    0.205E-01
RMM:   2    -0.231246541899E+04   -0.51427E-02   -0.51017E-02  6133   0.973E-02    0.209E-01
RMM:   3    -0.231246544863E+04   -0.29637E-04   -0.46166E-03  4918   0.372E-02    0.101E-01
RMM:   4    -0.231246538301E+04    0.65616E-04   -0.54265E-04  3223   0.935E-03    0.419E-02
RMM:   5    -0.231246535789E+04    0.25118E-04   -0.60137E-05  3092   0.599E-03    0.373E-02
RMM:   6    -0.231246534993E+04    0.79647E-05   -0.55956E-05  2906   0.597E-03
   9 F= -.23332717E+04 E0= -.23332717E+04  d E =-.416738E-01  mag=     7.0000
       N       E                     dE             d eps       ncg     rms          rms(c)
DAV:   1    -0.231246582872E+04   -0.47082E-03   -0.48983E-01  4512   0.500E-01    0.279E-01
RMM:   2    -0.231247734208E+04   -0.11513E-01   -0.11269E-01  6406   0.128E-01    0.323E-01
RMM:   3    -0.231247734423E+04   -0.21493E-05   -0.11181E-02  5050   0.492E-02    0.125E-01
RMM:   4    -0.231247731879E+04    0.25437E-04   -0.12080E-03  3367   0.115E-02    0.607E-02
RMM:   5    -0.231247728365E+04    0.35146E-04   -0.10148E-04  3165   0.634E-03    0.560E-02
RMM:   6    -0.231247727234E+04    0.11305E-04   -0.10205E-04  2941   0.651E-03    0.465E-02
RMM:   7    -0.231247725577E+04    0.16573E-04   -0.58971E-05  2956   0.541E-03    0.167E-02
RMM:   8    -0.231247725359E+04    0.21759E-05   -0.67919E-06  2843   0.365E-03
  10 F= -.23332828E+04 E0= -.23332828E+04  d E =-.111021E-01  mag=     7.0000
       N       E                     dE             d eps       ncg     rms          rms(c)
DAV:   1    -0.231239753839E+04    0.79717E-01   -0.44227E+00  4456   0.149E+00    0.835E-01
RMM:   2    -0.231250089921E+04   -0.10336E+00   -0.10121E+00  6242   0.386E-01    0.976E-01
RMM:   3    -0.231250108964E+04   -0.19043E-03   -0.10191E-01  5883   0.142E-01    0.390E-01
RMM:   4    -0.231250072003E+04    0.36961E-03   -0.10924E-02  5079   0.333E-02    0.182E-01
RMM:   5    -0.231250028929E+04    0.43074E-03   -0.89069E-04  4720   0.175E-02    0.138E-01
RMM:   6    -0.231250015594E+04    0.13335E-03   -0.12994E-03  4728   0.198E-02    0.767E-02
RMM:   7    -0.231250009927E+04    0.56667E-04   -0.11225E-04  3159   0.906E-03    0.318E-02
RMM:   8    -0.231250009633E+04    0.29422E-05   -0.30741E-05  2873   0.391E-03
  11 F= -.23333032E+04 E0= -.23333032E+04  d E =-.315210E-01  mag=     7.0000
       N       E                     dE             d eps       ncg     rms          rms(c)
DAV:   1    -0.231206703198E+04    0.43307E+00   -0.17606E+01  4448   0.298E+00    0.169E+00
RMM:   2    -0.231249195475E+04   -0.42492E+00   -0.41734E+00  6306   0.789E-01    0.201E+00
RMM:   3    -0.231249305376E+04   -0.10990E-02   -0.43783E-01  5973   0.286E-01    0.832E-01
RMM:   4    -0.231249097990E+04    0.20739E-02   -0.43944E-02  5514   0.674E-02    0.382E-01
RMM:   5    -0.231248958502E+04    0.13949E-02   -0.42298E-03  5224   0.343E-02    0.343E-01
RMM:   6    -0.231248906597E+04    0.51905E-03   -0.40748E-03  5488   0.301E-02    0.298E-01
RMM:   7    -0.231248841525E+04    0.65072E-03   -0.21518E-03  4867   0.239E-02    0.988E-02
RMM:   8    -0.231248831788E+04    0.97366E-04   -0.20594E-04  3268   0.957E-03    0.347E-02
RMM:   9    -0.231248832484E+04   -0.69599E-05   -0.91885E-05  3240   0.636E-03
  12 F= -.23332865E+04 E0= -.23332865E+04  d E =-.148534E-01  mag=     7.0000
       N       E                     dE             d eps       ncg     rms          rms(c)
DAV:   1    -0.231229041521E+04    0.19790E+00   -0.89978E+00  4448   0.211E+00    0.120E+00
RMM:   2    -0.231250438746E+04   -0.21397E+00   -0.21008E+00  6286   0.548E-01    0.136E+00
RMM:   3    -0.231250637380E+04   -0.19863E-02   -0.22073E-01  5946   0.213E-01    0.546E-01
RMM:   4    -0.231250580486E+04    0.56894E-03   -0.21982E-02  5209   0.462E-02    0.260E-01
RMM:   5    -0.231250505311E+04    0.75174E-03   -0.17363E-03  5056   0.238E-02    0.221E-01
RMM:   6    -0.231250500831E+04    0.44805E-04   -0.21716E-03  4911   0.232E-02    0.216E-01
RMM:   7    -0.231250463641E+04    0.37190E-03   -0.82506E-04  4588   0.150E-02    0.824E-02
RMM:   8    -0.231250456788E+04    0.68531E-04   -0.89706E-05  2912   0.695E-03    0.229E-02
RMM:   9    -0.231250456681E+04    0.10738E-05   -0.32846E-05  2931   0.393E-03
  13 F= -.23333063E+04 E0= -.23333063E+04  d E =-.345985E-01  mag=     7.0000
       N       E                     dE             d eps       ncg     rms          rms(c)
DAV:   1    -0.231249526348E+04    0.93044E-02   -0.11858E+00  4512   0.916E-01    0.431E-01
RMM:   2    -0.231251630216E+04   -0.21039E-01   -0.20980E-01  5889   0.202E-01    0.418E-01
RMM:   3    -0.231251649680E+04   -0.19464E-03   -0.19643E-02  5450   0.842E-02    0.220E-01
RMM:   4    -0.231251617593E+04    0.32088E-03   -0.22763E-03  4741   0.195E-02    0.874E-02
RMM:   5    -0.231251604605E+04    0.12988E-03   -0.30681E-04  4354   0.128E-02    0.519E-02
RMM:   6    -0.231251602951E+04    0.16539E-04   -0.20991E-04  4174   0.105E-02    0.429E-02
RMM:   7    -0.231251601271E+04    0.16799E-04   -0.44479E-05  2953   0.731E-03    0.166E-02
RMM:   8    -0.231251600821E+04    0.44976E-05   -0.98001E-06  2867   0.288E-03
  14 F= -.23333170E+04 E0= -.23333170E+04  d E =-.106946E-01  mag=     7.0000
       N       E                     dE             d eps       ncg     rms          rms(c)
DAV:   1    -0.231250423398E+04    0.11779E-01   -0.86301E-01  4544   0.781E-01    0.370E-01
RMM:   2    -0.231251984710E+04   -0.15613E-01   -0.15555E-01  5874   0.172E-01    0.368E-01
RMM:   3    -0.231251990164E+04   -0.54535E-04   -0.14415E-02  5361   0.699E-02    0.188E-01
RMM:   4    -0.231251968381E+04    0.21783E-03   -0.16936E-03  4560   0.166E-02    0.752E-02
RMM:   5    -0.231251958598E+04    0.97829E-04   -0.21371E-04  4133   0.109E-02    0.454E-02
RMM:   6    -0.231251956301E+04    0.22969E-04   -0.15216E-04  3969   0.948E-03    0.171E-02
RMM:   7    -0.231251956083E+04    0.21844E-05   -0.22674E-05  2935   0.658E-03
  15 F= -.23333199E+04 E0= -.23333199E+04  d E =-.136013E-01  mag=     7.0000
       N       E                     dE             d eps       ncg     rms          rms(c)
DAV:   1    -0.231251090337E+04    0.86596E-02   -0.84506E-01  4576   0.777E-01    0.355E-01
RMM:   2    -0.231252687528E+04   -0.15972E-01   -0.16530E-01  5799   0.172E-01    0.269E-01
RMM:   3    -0.231252802904E+04   -0.11538E-02   -0.18267E-02  5166   0.785E-02    0.182E-01
RMM:   4    -0.231252784036E+04    0.18868E-03   -0.17872E-03  4398   0.168E-02    0.839E-02
RMM:   5    -0.231252774822E+04    0.92146E-04   -0.25182E-04  4033   0.111E-02    0.551E-02
RMM:   6    -0.231252775162E+04   -0.34078E-05   -0.19286E-04  3879   0.909E-03    0.621E-02
RMM:   7    -0.231252771552E+04    0.36104E-04   -0.55391E-05  2965   0.695E-03    0.132E-02
RMM:   8    -0.231252771311E+04    0.24110E-05   -0.11830E-05  2882   0.356E-03
  16 F= -.23333280E+04 E0= -.23333280E+04  d E =-.810647E-02  mag=     7.0000
       N       E                     dE             d eps       ncg     rms          rms(c)
DAV:   1    -0.231252122527E+04    0.64902E-02   -0.41542E-01  4600   0.545E-01    0.248E-01
RMM:   2    -0.231252898058E+04   -0.77553E-02   -0.80203E-02  5864   0.121E-01    0.186E-01
RMM:   3    -0.231252951047E+04   -0.52989E-03   -0.85040E-03  4904   0.534E-02    0.126E-01
RMM:   4    -0.231252941494E+04    0.95528E-04   -0.85661E-04  3600   0.118E-02    0.586E-02
RMM:   5    -0.231252936527E+04    0.49672E-04   -0.12491E-04  3458   0.828E-03    0.369E-02
RMM:   6    -0.231252936535E+04   -0.76790E-07   -0.96141E-05  3253   0.738E-03
  17 F= -.23333296E+04 E0= -.23333296E+04  d E =-.972541E-02  mag=     7.0000
       N       E                     dE             d eps       ncg     rms          rms(c)
DAV:   1    -0.231252263510E+04    0.67302E-02   -0.49613E-01  4528   0.612E-01    0.263E-01
RMM:   2    -0.231253228196E+04   -0.96469E-02   -0.10055E-01  5962   0.136E-01    0.163E-01
RMM:   3    -0.231253312878E+04   -0.84682E-03   -0.11123E-02  5244   0.616E-02    0.127E-01
RMM:   4    -0.231253306395E+04    0.64838E-04   -0.10708E-03  3508   0.127E-02    0.681E-02
RMM:   5    -0.231253301296E+04    0.50987E-04   -0.15190E-04  3341   0.816E-03    0.564E-02
RMM:   6    -0.231253299011E+04    0.22851E-04   -0.12713E-04  3234   0.794E-03    0.386E-02
RMM:   7    -0.231253297998E+04    0.10126E-04   -0.37142E-05  2949   0.593E-03    0.134E-02
RMM:   8    -0.231253297831E+04    0.16755E-05   -0.85847E-06  2868   0.393E-03
  18 F= -.23333335E+04 E0= -.23333335E+04  d E =-.385285E-02  mag=     7.0000
       N       E                     dE             d eps       ncg     rms          rms(c)
DAV:   1    -0.231253106178E+04    0.19182E-02   -0.10523E-01  4744   0.282E-01    0.121E-01
RMM:   2    -0.231253312775E+04   -0.20660E-02   -0.21446E-02  5907   0.631E-02    0.789E-02
RMM:   3    -0.231253329098E+04   -0.16323E-03   -0.22925E-03  3643   0.280E-02    0.580E-02
RMM:   4    -0.231253327792E+04    0.13058E-04   -0.22259E-04  2963   0.655E-03    0.304E-02
RMM:   5    -0.231253326591E+04    0.12015E-04   -0.33625E-05  2912   0.431E-03    0.242E-02
RMM:   6    -0.231253326183E+04    0.40764E-05   -0.26978E-05  2884   0.426E-03
  19 F= -.23333339E+04 E0= -.23333339E+04  d E =-.424764E-02  mag=     7.0000
       N       E                     dE             d eps       ncg     rms          rms(c)
DAV:   1    -0.231253031694E+04    0.29490E-02   -0.26635E-01  4512   0.455E-01    0.182E-01
RMM:   2    -0.231253434598E+04   -0.40290E-02   -0.42380E-02  5791   0.942E-02    0.113E-01
RMM:   3    -0.231253464214E+04   -0.29616E-03   -0.44981E-03  4494   0.442E-02    0.869E-02
RMM:   4    -0.231253459804E+04    0.44101E-04   -0.45438E-04  3175   0.953E-03    0.454E-02
RMM:   5    -0.231253456427E+04    0.33770E-04   -0.89568E-05  3111   0.701E-03    0.266E-02
RMM:   6    -0.231253456057E+04    0.37017E-05   -0.53468E-05  3004   0.627E-03
  20 F= -.23333353E+04 E0= -.23333353E+04  d E =-.140044E-02  mag=     7.0000
       N       E                     dE             d eps       ncg     rms          rms(c)
DAV:   1    -0.231253443439E+04    0.12988E-03   -0.63397E-03  5344   0.705E-02    0.296E-02
RMM:   2    -0.231253453214E+04   -0.97755E-04   -0.10614E-03  4777   0.167E-02    0.196E-02
RMM:   3    -0.231253454384E+04   -0.11701E-04   -0.14143E-04  2877   0.836E-03    0.203E-02
RMM:   4    -0.231253454093E+04    0.29163E-05   -0.12977E-05  2883   0.243E-03
  21 F= -.23333353E+04 E0= -.23333353E+04  d E =-.139682E-02  mag=     7.0000
       N       E                     dE             d eps       ncg     rms          rms(c)
DAV:   1    -0.231253387574E+04    0.66810E-03   -0.10655E-01  4480   0.306E-01    0.114E-01
RMM:   2    -0.231253547448E+04   -0.15987E-02   -0.16299E-02  5863   0.623E-02    0.983E-02
RMM:   3    -0.231253554265E+04   -0.68170E-04   -0.15980E-03  3619   0.260E-02    0.615E-02
RMM:   4    -0.231253551887E+04    0.23780E-04   -0.17311E-04  2970   0.672E-03    0.273E-02
RMM:   5    -0.231253550758E+04    0.11294E-04   -0.28166E-05  2904   0.470E-03    0.165E-02
RMM:   6    -0.231253550830E+04   -0.72137E-06   -0.19323E-05  2876   0.449E-03
  22 F= -.23333362E+04 E0= -.23333362E+04  d E =-.895819E-03  mag=     7.0000
       N       E                     dE             d eps       ncg     rms          rms(c)
DAV:   1    -0.231253336395E+04    0.21436E-02   -0.16871E-01  4464   0.384E-01    0.146E-01
RMM:   2    -0.231253587700E+04   -0.25130E-02   -0.25716E-02  5634   0.774E-02    0.123E-01
RMM:   3    -0.231253599939E+04   -0.12239E-03   -0.26331E-03  4086   0.358E-02    0.789E-02
RMM:   4    -0.231253596012E+04    0.39271E-04   -0.28017E-04  3052   0.796E-03    0.350E-02
RMM:   5    -0.231253594806E+04    0.12060E-04   -0.44232E-05  2916   0.535E-03    0.317E-02
RMM:   6    -0.231253594045E+04    0.76063E-05   -0.32627E-05  2880   0.515E-03
  23 F= -.23333365E+04 E0= -.23333365E+04  d E =-.123784E-02  mag=     7.0000
       N       E                     dE             d eps       ncg     rms          rms(c)
DAV:   1    -0.231253606023E+04   -0.11217E-03   -0.32441E-02  4672   0.165E-01    0.647E-02
RMM:   2    -0.231253660041E+04   -0.54018E-03   -0.54979E-03  5951   0.352E-02    0.544E-02
RMM:   3    -0.231253663236E+04   -0.31943E-04   -0.57595E-04  2938   0.142E-02    0.342E-02
RMM:   4    -0.231253662754E+04    0.48150E-05   -0.60305E-05  2926   0.405E-03
  24 F= -.23333371E+04 E0= -.23333371E+04  d E =-.623143E-03  mag=     7.0000
       N       E                     dE             d eps       ncg     rms          rms(c)
DAV:   1    -0.231253304082E+04    0.35915E-02   -0.29428E-01  4464   0.494E-01    0.192E-01
RMM:   2    -0.231253797471E+04   -0.49339E-02   -0.49606E-02  5846   0.101E-01    0.180E-01
RMM:   3    -0.231253817381E+04   -0.19910E-03   -0.50268E-03  4347   0.429E-02    0.100E-01
RMM:   4    -0.231253812710E+04    0.46702E-04   -0.52796E-04  3134   0.959E-03    0.496E-02
RMM:   5    -0.231253811606E+04    0.11039E-04   -0.76271E-05  2938   0.612E-03    0.500E-02
RMM:   6    -0.231253809570E+04    0.20365E-04   -0.58842E-05  2909   0.597E-03    0.238E-02
RMM:   7    -0.231253809244E+04    0.32629E-05   -0.20861E-05  2900   0.482E-03
  25 F= -.23333384E+04 E0= -.23333384E+04  d E =-.189571E-02  mag=     7.0000
       N       E                     dE             d eps       ncg     rms          rms(c)
DAV:   1    -0.231251811150E+04    0.19984E-01   -0.11787E+00  4456   0.990E-01    0.389E-01
RMM:   2    -0.231253802270E+04   -0.19911E-01   -0.20044E-01  5876   0.205E-01    0.366E-01
RMM:   3    -0.231253871085E+04   -0.68816E-03   -0.20234E-02  5341   0.862E-02    0.193E-01
RMM:   4    -0.231253857155E+04    0.13930E-03   -0.21296E-03  4563   0.179E-02    0.907E-02
RMM:   5    -0.231253850901E+04    0.62535E-04   -0.24680E-04  3782   0.109E-02    0.820E-02
RMM:   6    -0.231253846859E+04    0.40426E-04   -0.19035E-04  3727   0.879E-03    0.575E-02
RMM:   7    -0.231253844194E+04    0.26641E-04   -0.77778E-05  3036   0.749E-03    0.111E-02
RMM:   8    -0.231253844128E+04    0.66357E-06   -0.11452E-05  2876   0.447E-03
  26 F= -.23333384E+04 E0= -.23333384E+04  d E =-.185800E-02  mag=     7.0000
       N       E                     dE             d eps       ncg     rms          rms(c)
DAV:   1    -0.231253418135E+04    0.42606E-02   -0.26425E-01  4464   0.469E-01    0.180E-01
RMM:   2    -0.231253853270E+04   -0.43514E-02   -0.44125E-02  5835   0.952E-02    0.154E-01
RMM:   3    -0.231253878617E+04   -0.25347E-03   -0.45346E-03  4289   0.402E-02    0.974E-02
RMM:   4    -0.231253872974E+04    0.56433E-04   -0.46084E-04  3049   0.917E-03    0.425E-02
RMM:   5    -0.231253871144E+04    0.18291E-04   -0.53787E-05  2925   0.570E-03    0.314E-02
RMM:   6    -0.231253871052E+04    0.92879E-06   -0.44000E-05  2897   0.547E-03
  27 F= -.23333388E+04 E0= -.23333388E+04  d E =-.231038E-02  mag=     7.0000
       N       E                     dE             d eps       ncg     rms          rms(c)
DAV:   1    -0.231253807764E+04    0.63380E-03   -0.89149E-02  4496   0.257E-01    0.106E-01
RMM:   2    -0.231253962433E+04   -0.15467E-02   -0.15472E-02  6138   0.570E-02    0.102E-01
RMM:   3    -0.231253967925E+04   -0.54917E-04   -0.15452E-03  3321   0.224E-02    0.538E-02
RMM:   4    -0.231253966486E+04    0.14387E-04   -0.15844E-04  2966   0.596E-03    0.251E-02
RMM:   5    -0.231253965607E+04    0.87977E-05   -0.20443E-05  2896   0.379E-03
  28 F= -.23333396E+04 E0= -.23333396E+04  d E =-.837352E-03  mag=     7.0000
       N       E                     dE             d eps       ncg     rms          rms(c)
DAV:   1    -0.231252686790E+04    0.12797E-01   -0.79418E-01  4456   0.768E-01    0.323E-01
RMM:   2    -0.231254070393E+04   -0.13836E-01   -0.13909E-01  5895   0.166E-01    0.306E-01
RMM:   3    -0.231254117095E+04   -0.46701E-03   -0.13815E-02  5218   0.675E-02    0.163E-01
RMM:   4    -0.231254105683E+04    0.11412E-03   -0.14790E-03  4224   0.150E-02    0.789E-02
RMM:   5    -0.231254102366E+04    0.33171E-04   -0.19537E-04  3368   0.948E-03    0.767E-02
RMM:   6    -0.231254098091E+04    0.42745E-04   -0.15228E-04  3362   0.837E-03    0.429E-02
RMM:   7    -0.231254096786E+04    0.13056E-04   -0.46905E-05  2953   0.654E-03    0.910E-03
RMM:   8    -0.231254096724E+04    0.61737E-06   -0.87050E-06  2864   0.413E-03
  29 F= -.23333406E+04 E0= -.23333406E+04  d E =-.182231E-02  mag=     7.0000
       N       E                     dE             d eps       ncg     rms          rms(c)
DAV:   1    -0.231253973685E+04    0.12310E-02   -0.14999E-01  4480   0.334E-01    0.139E-01
RMM:   2    -0.231254208850E+04   -0.23516E-02   -0.23660E-02  5901   0.699E-02    0.131E-01
RMM:   3    -0.231254215089E+04   -0.62391E-04   -0.22440E-03  3610   0.282E-02    0.716E-02
RMM:   4    -0.231254211988E+04    0.31011E-04   -0.24454E-04  2983   0.731E-03    0.332E-02
RMM:   5    -0.231254210958E+04    0.10304E-04   -0.42016E-05  2920   0.500E-03    0.254E-02
RMM:   6    -0.231254210942E+04    0.15728E-06   -0.29449E-05  2884   0.474E-03
  30 F= -.23333416E+04 E0= -.23333416E+04  d E =-.985071E-03  mag=     7.0000
       N       E                     dE             d eps       ncg     rms          rms(c)
DAV:   1    -0.231253651228E+04    0.55973E-02   -0.40323E-01  4456   0.547E-01    0.228E-01
RMM:   2    -0.231254277912E+04   -0.62668E-02   -0.63201E-02  5768   0.113E-01    0.211E-01
RMM:   3    -0.231254296765E+04   -0.18853E-03   -0.60082E-03  4564   0.472E-02    0.119E-01
RMM:   4    -0.231254288310E+04    0.84556E-04   -0.66652E-04  3436   0.109E-02    0.564E-02
RMM:   5    -0.231254286522E+04    0.17873E-04   -0.11748E-04  3079   0.752E-03    0.551E-02
RMM:   6    -0.231254284467E+04    0.20552E-04   -0.84330E-05  2980   0.692E-03    0.301E-02
RMM:   7    -0.231254283806E+04    0.66103E-05   -0.22415E-05  2902   0.516E-03
  31 F= -.23333421E+04 E0= -.23333421E+04  d E =-.145702E-02  mag=     7.0000
       N       E                     dE             d eps       ncg     rms          rms(c)
DAV:   1    -0.231254101573E+04    0.18289E-02   -0.19532E-01  4480   0.381E-01    0.157E-01
RMM:   2    -0.231254403445E+04   -0.30187E-02   -0.30389E-02  5978   0.781E-02    0.143E-01
RMM:   3    -0.231254413009E+04   -0.95639E-04   -0.28006E-03  3867   0.316E-02    0.830E-02
RMM:   4    -0.231254408526E+04    0.44829E-04   -0.30966E-04  2992   0.803E-03    0.407E-02
RMM:   5    -0.231254407652E+04    0.87473E-05   -0.64002E-05  2926   0.550E-03
  32 F= -.23333432E+04 E0= -.23333432E+04  d E =-.109380E-02  mag=     7.0000
       N       E                     dE             d eps       ncg     rms          rms(c)
DAV:   1    -0.231253792118E+04    0.61641E-02   -0.44236E-01  4456   0.573E-01    0.236E-01
RMM:   2    -0.231254470251E+04   -0.67813E-02   -0.68510E-02  5936   0.116E-01    0.213E-01
RMM:   3    -0.231254496232E+04   -0.25982E-03   -0.65768E-03  4790   0.486E-02    0.126E-01
RMM:   4    -0.231254485321E+04    0.10911E-03   -0.68767E-04  3255   0.113E-02    0.618E-02
RMM:   5    -0.231254481272E+04    0.40494E-04   -0.13410E-04  3502   0.826E-03    0.310E-02
RMM:   6    -0.231254481914E+04   -0.64194E-05   -0.68653E-05  2942   0.688E-03
  33 F= -.23333437E+04 E0= -.23333437E+04  d E =-.162179E-02  mag=     7.0000
       N       E                     dE             d eps       ncg     rms          rms(c)
DAV:   1    -0.231254316898E+04    0.16437E-02   -0.22624E-01  4528   0.433E-01    0.177E-01
RMM:   2    -0.231254603980E+04   -0.28708E-02   -0.29100E-02  5863   0.852E-02    0.147E-01
RMM:   3    -0.231254613092E+04   -0.91126E-04   -0.27217E-03  4291   0.350E-02    0.966E-02
RMM:   4    -0.231254605572E+04    0.75204E-04   -0.30896E-04  3190   0.912E-03    0.436E-02
RMM:   5    -0.231254603397E+04    0.21746E-04   -0.76595E-05  3361   0.725E-03    0.188E-02
RMM:   6    -0.231254603497E+04   -0.99670E-06   -0.25688E-05  2915   0.570E-03
  34 F= -.23333449E+04 E0= -.23333449E+04  d E =-.117954E-02  mag=     7.0000
       N       E                     dE             d eps       ncg     rms          rms(c)
DAV:   1    -0.231254484251E+04    0.11915E-02   -0.11324E-01  4560   0.306E-01    0.125E-01
RMM:   2    -0.231254628148E+04   -0.14390E-02   -0.14576E-02  5924   0.609E-02    0.103E-01
RMM:   3    -0.231254632879E+04   -0.47317E-04   -0.13671E-03  3725   0.248E-02    0.678E-02
RMM:   4    -0.231254629137E+04    0.37420E-04   -0.15363E-04  2959   0.684E-03    0.312E-02
RMM:   5    -0.231254627992E+04    0.11453E-04   -0.40857E-05  2978   0.541E-03    0.141E-02
RMM:   6    -0.231254628091E+04   -0.99406E-06   -0.16127E-05  2893   0.478E-03
  35 F= -.23333451E+04 E0= -.23333451E+04  d E =-.140064E-02  mag=     7.0000
       N       E                     dE             d eps       ncg     rms          rms(c)
DAV:   1    -0.231254528149E+04    0.99843E-03   -0.17910E-01  4480   0.367E-01    0.150E-01
RMM:   2    -0.231254751113E+04   -0.22296E-02   -0.22512E-02  5873   0.719E-02    0.129E-01
RMM:   3    -0.231254757991E+04   -0.68778E-04   -0.21081E-03  3890   0.291E-02    0.793E-02
RMM:   4    -0.231254753180E+04    0.48107E-04   -0.24366E-04  3006   0.765E-03    0.367E-02
RMM:   5    -0.231254751674E+04    0.15058E-04   -0.51569E-05  3028   0.580E-03    0.158E-02
RMM:   6    -0.231254751721E+04   -0.46460E-06   -0.17735E-05  2901   0.486E-03
  36 F= -.23333463E+04 E0= -.23333463E+04  d E =-.122040E-02  mag=     7.0000
       N       E                     dE             d eps       ncg     rms          rms(c)
DAV:   1    -0.231254136195E+04    0.61548E-02   -0.55735E-01  4472   0.647E-01    0.264E-01
RMM:   2    -0.231254831500E+04   -0.69531E-02   -0.69998E-02  5682   0.126E-01    0.233E-01
RMM:   3    -0.231254849227E+04   -0.17727E-03   -0.64833E-03  4809   0.530E-02    0.141E-01
RMM:   4    -0.231254834330E+04    0.14897E-03   -0.77031E-04  4084   0.124E-02    0.660E-02
RMM:   5    -0.231254832049E+04    0.22808E-04   -0.17897E-04  3422   0.939E-03    0.611E-02
RMM:   6    -0.231254830103E+04    0.19459E-04   -0.10946E-04  3058   0.741E-03    0.378E-02
RMM:   7    -0.231254829071E+04    0.10321E-04   -0.22108E-05  2897   0.532E-03    0.717E-03
RMM:   8    -0.231254829044E+04    0.27209E-06   -0.58483E-06  2858   0.293E-03
  37 F= -.23333471E+04 E0= -.23333471E+04  d E =-.196809E-02  mag=     7.0000
       N       E                     dE             d eps       ncg     rms          rms(c)
DAV:   1    -0.231254749040E+04    0.80031E-03   -0.15645E-01  4496   0.333E-01    0.138E-01
RMM:   2    -0.231254952174E+04   -0.20313E-02   -0.20252E-02  5897   0.666E-02    0.134E-01
RMM:   3    -0.231254954724E+04   -0.25502E-04   -0.18543E-03  3653   0.261E-02    0.707E-02
RMM:   4    -0.231254951547E+04    0.31776E-04   -0.21186E-04  2981   0.691E-03    0.339E-02
RMM:   5    -0.231254950608E+04    0.93907E-05   -0.42512E-05  2934   0.496E-03
  38 F= -.23333482E+04 E0= -.23333482E+04  d E =-.114599E-02  mag=     7.0000
       N       E                     dE             d eps       ncg     rms          rms(c)
DAV:   1    -0.231253313165E+04    0.16384E-01   -0.14030E+00  4448   0.995E-01    0.413E-01
RMM:   2    -0.231255128974E+04   -0.18158E-01   -0.18208E-01  5909   0.200E-01    0.392E-01
RMM:   3    -0.231255161416E+04   -0.32442E-03   -0.16849E-02  5449   0.780E-02    0.213E-01
RMM:   4    -0.231255133210E+04    0.28206E-03   -0.19218E-03  4573   0.183E-02    0.101E-01
RMM:   5    -0.231255121564E+04    0.11646E-03   -0.32668E-04  4258   0.131E-02    0.494E-02
RMM:   6    -0.231255120906E+04    0.65813E-05   -0.14342E-04  3619   0.913E-03    0.147E-02
RMM:   7    -0.231255120959E+04   -0.52938E-06   -0.18668E-05  2901   0.529E-03
  39 F= -.23333497E+04 E0= -.23333497E+04  d E =-.264602E-02  mag=     7.0000
       N       E                     dE             d eps       ncg     rms          rms(c)
DAV:   1    -0.231254814692E+04    0.30621E-02   -0.37814E-01  4472   0.506E-01    0.226E-01
RMM:   2    -0.231255331739E+04   -0.51705E-02   -0.51817E-02  5868   0.105E-01    0.225E-01
RMM:   3    -0.231255332063E+04   -0.32425E-05   -0.48107E-03  4813   0.424E-02    0.114E-01
RMM:   4    -0.231255324115E+04    0.79478E-04   -0.55463E-04  3487   0.105E-02    0.544E-02
RMM:   5    -0.231255321262E+04    0.28532E-04   -0.10649E-04  3385   0.794E-03    0.379E-02
RMM:   6    -0.231255321722E+04   -0.46001E-05   -0.68940E-05  2903   0.660E-03
  40 F= -.23333514E+04 E0= -.23333514E+04  d E =-.169753E-02  mag=     7.0000
       N       E                     dE             d eps       ncg     rms          rms(c)
DAV:   1    -0.231254973605E+04    0.34766E-02   -0.31095E-01  4488   0.459E-01    0.207E-01
RMM:   2    -0.231255399887E+04   -0.42628E-02   -0.42587E-02  5960   0.963E-02    0.210E-01
RMM:   3    -0.231255398456E+04    0.14307E-04   -0.40040E-03  4650   0.361E-02    0.104E-01
RMM:   4    -0.231255392156E+04    0.62996E-04   -0.46194E-04  3202   0.962E-03    0.522E-02
RMM:   5    -0.231255392101E+04    0.54852E-06   -0.11254E-04  3025   0.690E-03    0.606E-02
RMM:   6    -0.231255389258E+04    0.28429E-04   -0.66981E-05  2902   0.640E-03    0.238E-02
RMM:   7    -0.231255388943E+04    0.31525E-05   -0.18325E-05  2887   0.450E-03
  41 F= -.23333518E+04 E0= -.23333518E+04  d E =-.208954E-02  mag=     7.0000
       N       E                     dE             d eps       ncg     rms          rms(c)
DAV:   1    -0.231255025088E+04    0.36417E-02   -0.35619E-01  4456   0.478E-01    0.214E-01
RMM:   2    -0.231255545575E+04   -0.52049E-02   -0.52503E-02  5948   0.102E-01    0.213E-01
RMM:   3    -0.231255554545E+04   -0.89698E-04   -0.51919E-03  4583   0.416E-02    0.108E-01
RMM:   4    -0.231255548187E+04    0.63578E-04   -0.56198E-04  3189   0.101E-02    0.564E-02
RMM:   5    -0.231255546861E+04    0.13258E-04   -0.12901E-04  3106   0.740E-03    0.593E-02
RMM:   6    -0.231255544293E+04    0.25681E-04   -0.79626E-05  2925   0.675E-03    0.284E-02
RMM:   7    -0.231255543712E+04    0.58131E-05   -0.20466E-05  2892   0.469E-03
  42 F= -.23333530E+04 E0= -.23333530E+04  d E =-.118196E-02  mag=     7.0000
       N       E                     dE             d eps       ncg     rms          rms(c)
DAV:   1    -0.231255371365E+04    0.17293E-02   -0.14628E-01  4512   0.306E-01    0.137E-01
RMM:   2    -0.231255584480E+04   -0.21312E-02   -0.21576E-02  6049   0.663E-02    0.132E-01
RMM:   3    -0.231255589524E+04   -0.50437E-04   -0.21480E-03  3625   0.276E-02    0.699E-02
RMM:   4    -0.231255586901E+04    0.26228E-04   -0.23226E-04  2974   0.710E-03    0.366E-02
RMM:   5    -0.231255586331E+04    0.57000E-05   -0.54765E-05  2907   0.508E-03
  43 F= -.23333532E+04 E0= -.23333532E+04  d E =-.137469E-02  mag=     7.0000
       N       E                     dE             d eps       ncg     rms          rms(c)
DAV:   1    -0.231255330551E+04    0.25635E-02   -0.26383E-01  4472   0.436E-01    0.186E-01
RMM:   2    -0.231255689485E+04   -0.35893E-02   -0.36957E-02  5941   0.915E-02    0.153E-01
RMM:   3    -0.231255707209E+04   -0.17724E-03   -0.37824E-03  4246   0.391E-02    0.100E-01
RMM:   4    -0.231255699748E+04    0.74605E-04   -0.40357E-04  3137   0.978E-03    0.493E-02
RMM:   5    -0.231255697476E+04    0.22720E-04   -0.10980E-04  3449   0.754E-03    0.347E-02
RMM:   6    -0.231255697485E+04   -0.87108E-07   -0.57712E-05  2901   0.649E-03
  44 F= -.23333541E+04 E0= -.23333541E+04  d E =-.960661E-03  mag=     7.0000
       N       E                     dE             d eps       ncg     rms          rms(c)
DAV:   1    -0.231255637414E+04    0.60062E-03   -0.51291E-02  4624   0.193E-01    0.842E-02
RMM:   2    -0.231255708661E+04   -0.71247E-03   -0.73306E-03  6042   0.414E-02    0.703E-02
RMM:   3    -0.231255712101E+04   -0.34400E-04   -0.76012E-04  3079   0.169E-02    0.447E-02
RMM:   4    -0.231255710768E+04    0.13324E-04   -0.81079E-05  2939   0.487E-03    0.216E-02
RMM:   5    -0.231255710278E+04    0.49007E-05   -0.20170E-05  2897   0.349E-03
  45 F= -.23333542E+04 E0= -.23333542E+04  d E =-.102213E-02  mag=     7.0000
       N       E                     dE             d eps       ncg     rms          rms(c)
DAV:   1    -0.231255386699E+04    0.32407E-02   -0.28744E-01  4472   0.474E-01    0.195E-01
RMM:   2    -0.231255795211E+04   -0.40851E-02   -0.41208E-02  5950   0.972E-02    0.186E-01
RMM:   3    -0.231255804193E+04   -0.89824E-04   -0.41024E-03  4464   0.401E-02    0.100E-01
RMM:   4    -0.231255796813E+04    0.73797E-04   -0.46246E-04  3256   0.980E-03    0.495E-02
RMM:   5    -0.231255795013E+04    0.18006E-04   -0.10727E-04  3236   0.739E-03    0.445E-02
RMM:   6    -0.231255793962E+04    0.10509E-04   -0.71165E-05  2932   0.666E-03    0.298E-02
RMM:   7    -0.231255793412E+04    0.54964E-05   -0.13847E-05  2888   0.433E-03
  46 F= -.23333550E+04 E0= -.23333550E+04  d E =-.799753E-03  mag=     7.0000
       N       E                     dE             d eps       ncg     rms          rms(c)
DAV:   1    -0.231255767800E+04    0.26161E-03   -0.19691E-02  4784   0.124E-01    0.510E-02
RMM:   2    -0.231255796019E+04   -0.28219E-03   -0.28710E-03  5827   0.272E-02    0.456E-02
RMM:   3    -0.231255797108E+04   -0.10887E-04   -0.29199E-04  2925   0.113E-02    0.266E-02
RMM:   4    -0.231255796683E+04    0.42453E-05   -0.33340E-05  2921   0.319E-03
  47 F= -.23333550E+04 E0= -.23333550E+04  d E =-.824379E-03  mag=     7.0000
       N       E                     dE             d eps       ncg     rms          rms(c)
DAV:   1    -0.231255555249E+04    0.24186E-02   -0.26650E-01  4472   0.492E-01    0.190E-01
RMM:   2    -0.231255879410E+04   -0.32416E-02   -0.32583E-02  5704   0.946E-02    0.174E-01
RMM:   3    -0.231255881106E+04   -0.16954E-04   -0.31160E-03  4466   0.421E-02    0.103E-01
RMM:   4    -0.231255871824E+04    0.92816E-04   -0.37915E-04  3674   0.988E-03    0.444E-02
RMM:   5    -0.231255869107E+04    0.27168E-04   -0.89621E-05  3434   0.778E-03    0.279E-02
RMM:   6    -0.231255869381E+04   -0.27340E-05   -0.54048E-05  2909   0.630E-03
  48 F= -.23333558E+04 E0= -.23333558E+04  d E =-.731948E-03  mag=     7.0000
       N       E                     dE             d eps       ncg     rms          rms(c)
DAV:   1    -0.231255857265E+04    0.11842E-03   -0.89099E-03  5264   0.904E-02    0.368E-02
RMM:   2    -0.231255868750E+04   -0.11486E-03   -0.11741E-03  5380   0.203E-02    0.335E-02
RMM:   3    -0.231255868787E+04   -0.36784E-06   -0.11005E-04  2883   0.799E-03    0.202E-02
RMM:   4    -0.231255868516E+04    0.27056E-05   -0.13701E-05  2906   0.264E-03
  49 F= -.23333558E+04 E0= -.23333558E+04  d E =-.724342E-03  mag=     7.0000
       N       E                     dE             d eps       ncg     rms          rms(c)
DAV:   1    -0.231255608453E+04    0.26033E-02   -0.28854E-01  4472   0.486E-01    0.184E-01
RMM:   2    -0.231255956355E+04   -0.34790E-02   -0.34277E-02  5771   0.938E-02    0.196E-01
RMM:   3    -0.231255946515E+04    0.98400E-04   -0.30275E-03  4503   0.381E-02    0.970E-02
RMM:   4    -0.231255939608E+04    0.69072E-04   -0.38880E-04  3472   0.951E-03    0.440E-02
RMM:   5    -0.231255936987E+04    0.26205E-04   -0.80866E-05  3334   0.730E-03    0.291E-02
RMM:   6    -0.231255937104E+04   -0.11680E-05   -0.49181E-05  2908   0.625E-03
  50 F= -.23333564E+04 E0= -.23333564E+04  d E =-.679389E-03  mag=     7.0000
       N       E                     dE             d eps       ncg     rms          rms(c)
DAV:   1    -0.231255707988E+04    0.22900E-02   -0.18754E-01  4472   0.391E-01    0.150E-01
RMM:   2    -0.231255936128E+04   -0.22814E-02   -0.22393E-02  5894   0.775E-02    0.163E-01
RMM:   3    -0.231255927915E+04    0.82131E-04   -0.19757E-03  4169   0.280E-02    0.785E-02
RMM:   4    -0.231255923674E+04    0.42414E-04   -0.25362E-04  3024   0.788E-03    0.358E-02
RMM:   5    -0.231255922527E+04    0.11467E-04   -0.57282E-05  3021   0.586E-03    0.333E-02
RMM:   6    -0.231255921985E+04    0.54211E-05   -0.38081E-05  2895   0.551E-03
  51 F= -.23333563E+04 E0= -.23333563E+04  d E =-.523683E-03  mag=     7.0000
       N       E                     dE             d eps       ncg     rms          rms(c)
DAV:   1    -0.231255850695E+04    0.71832E-03   -0.77667E-02  4472   0.251E-01    0.934E-02
RMM:   2    -0.231255942356E+04   -0.91660E-03   -0.90702E-03  6051   0.504E-02    0.958E-02
RMM:   3    -0.231255940860E+04    0.14959E-04   -0.82614E-04  3394   0.189E-02    0.493E-02
RMM:   4    -0.231255939086E+04    0.17741E-04   -0.10084E-04  2943   0.553E-03    0.224E-02
RMM:   5    -0.231255938366E+04    0.71948E-05   -0.23291E-05  2918   0.415E-03
  52 F= -.23333564E+04 E0= -.23333564E+04  d E =-.690299E-03  mag=     7.0000
       N       E                     dE             d eps       ncg     rms          rms(c)
DAV:   1    -0.231255661630E+04    0.27746E-02   -0.31181E-01  4464   0.498E-01    0.194E-01
RMM:   2    -0.231256020822E+04   -0.35919E-02   -0.35265E-02  5876   0.968E-02    0.205E-01
RMM:   3    -0.231256009494E+04    0.11328E-03   -0.32282E-03  4677   0.389E-02    0.101E-01
RMM:   4    -0.231256000721E+04    0.87727E-04   -0.40239E-04  3544   0.990E-03    0.431E-02
RMM:   5    -0.231255997963E+04    0.27579E-04   -0.76343E-05  3452   0.746E-03    0.294E-02
RMM:   6    -0.231255998018E+04   -0.54581E-06   -0.51077E-05  2912   0.636E-03
  53 F= -.23333570E+04 E0= -.23333570E+04  d E =-.578200E-03  mag=     7.0000
       N       E                     dE             d eps       ncg     rms          rms(c)
DAV:   1    -0.231255994552E+04    0.34113E-04   -0.20854E-03  5240   0.415E-02    0.187E-02
RMM:   2    -0.231255997306E+04   -0.27540E-04   -0.26321E-04  3564   0.983E-03    0.216E-02
RMM:   3    -0.231255997094E+04    0.21196E-05   -0.28633E-05  2801   0.527E-03
  54 F= -.23333570E+04 E0= -.23333570E+04  d E =-.567424E-03  mag=     7.0000
       N       E                     dE             d eps       ncg     rms          rms(c)
DAV:   1    -0.231255814980E+04    0.18233E-02   -0.21640E-01  4472   0.421E-01    0.164E-01
RMM:   2    -0.231256077740E+04   -0.26276E-02   -0.26163E-02  5828   0.821E-02    0.163E-01
RMM:   3    -0.231256075042E+04    0.26976E-04   -0.23604E-03  4295   0.323E-02    0.884E-02
RMM:   4    -0.231256068931E+04    0.61109E-04   -0.30314E-04  3124   0.869E-03    0.395E-02
RMM:   5    -0.231256067078E+04    0.18535E-04   -0.58856E-05  3138   0.659E-03    0.280E-02
RMM:   6    -0.231256067124E+04   -0.46652E-06   -0.40671E-05  2912   0.572E-03
  55 F= -.23333576E+04 E0= -.23333576E+04  d E =-.624402E-03  mag=     7.0000
       N       E                     dE             d eps       ncg     rms          rms(c)
DAV:   1    -0.231256017515E+04    0.49563E-03   -0.46706E-02  4512   0.196E-01    0.774E-02
RMM:   2    -0.231256075061E+04   -0.57546E-03   -0.57293E-03  5994   0.398E-02    0.772E-02
RMM:   3    -0.231256074359E+04    0.70187E-05   -0.51225E-04  3069   0.146E-02    0.422E-02
RMM:   4    -0.231256073166E+04    0.11931E-04   -0.67957E-05  2930   0.458E-03    0.191E-02
RMM:   5    -0.231256073005E+04    0.16157E-05   -0.14749E-05  2880   0.314E-03
  56 F= -.23333577E+04 E0= -.23333577E+04  d E =-.647624E-03  mag=     7.0000
       N       E                     dE             d eps       ncg     rms          rms(c)
DAV:   1    -0.231255954270E+04    0.11890E-02   -0.15453E-01  4472   0.351E-01    0.134E-01
RMM:   2    -0.231256139314E+04   -0.18504E-02   -0.18808E-02  5975   0.687E-02    0.117E-01
RMM:   3    -0.231256144520E+04   -0.52066E-04   -0.17494E-03  3781   0.268E-02    0.752E-02
RMM:   4    -0.231256140128E+04    0.43922E-04   -0.21649E-04  2963   0.744E-03    0.340E-02
RMM:   5    -0.231256138794E+04    0.13339E-04   -0.42618E-05  2974   0.530E-03    0.224E-02
RMM:   6    -0.231256138986E+04   -0.19184E-05   -0.32416E-05  2887   0.505E-03
  57 F= -.23333582E+04 E0= -.23333582E+04  d E =-.535205E-03  mag=     7.0000
       N       E                     dE             d eps       ncg     rms          rms(c)
DAV:   1    -0.231256013730E+04    0.12506E-02   -0.12255E-01  4472   0.313E-01    0.122E-01
RMM:   2    -0.231256163118E+04   -0.14939E-02   -0.15086E-02  5910   0.609E-02    0.110E-01
RMM:   3    -0.231256165745E+04   -0.26263E-04   -0.13923E-03  3672   0.242E-02    0.666E-02
RMM:   4    -0.231256162477E+04    0.32672E-04   -0.17344E-04  2954   0.656E-03    0.295E-02
RMM:   5    -0.231256161408E+04    0.10690E-04   -0.29427E-05  2930   0.457E-03    0.184E-02
RMM:   6    -0.231256161582E+04   -0.17374E-05   -0.23508E-05  2887   0.437E-03
  58 F= -.23333583E+04 E0= -.23333583E+04  d E =-.649831E-03  mag=     7.0000
       N       E                     dE             d eps       ncg     rms          rms(c)
DAV:   1    -0.231256060348E+04    0.10106E-02   -0.17455E-01  4472   0.382E-01    0.142E-01
RMM:   2    -0.231256232679E+04   -0.17233E-02   -0.17709E-02  5748   0.714E-02    0.119E-01
RMM:   3    -0.231256237561E+04   -0.48826E-04   -0.16978E-03  4117   0.323E-02    0.825E-02
RMM:   4    -0.231256231889E+04    0.56719E-04   -0.22235E-04  3021   0.791E-03    0.340E-02
RMM:   5    -0.231256230454E+04    0.14351E-04   -0.50492E-05  3025   0.599E-03    0.214E-02
RMM:   6    -0.231256230626E+04   -0.17179E-05   -0.29453E-05  2898   0.538E-03
  59 F= -.23333589E+04 E0= -.23333589E+04  d E =-.555677E-03  mag=     7.0000
       N       E                     dE             d eps       ncg     rms          rms(c)
DAV:   1    -0.231256173898E+04    0.56556E-03   -0.72390E-02  4496   0.246E-01    0.913E-02
RMM:   2    -0.231256245785E+04   -0.71887E-03   -0.73995E-03  5920   0.470E-02    0.743E-02
RMM:   3    -0.231256248331E+04   -0.25462E-04   -0.71051E-04  3429   0.190E-02    0.536E-02
RMM:   4    -0.231256246007E+04    0.23239E-04   -0.93621E-05  2922   0.541E-03    0.226E-02
RMM:   5    -0.231256245455E+04    0.55255E-05   -0.22095E-05  2918   0.395E-03
  60 F= -.23333589E+04 E0= -.23333589E+04  d E =-.616900E-03  mag=     7.0000
       N       E                     dE             d eps       ncg     rms          rms(c)
DAV:   1    -0.231256152634E+04    0.93373E-03   -0.14906E-01  4472   0.338E-01    0.123E-01
RMM:   2    -0.231256305132E+04   -0.15250E-02   -0.15647E-02  6076   0.643E-02    0.109E-01
RMM:   3    -0.231256310433E+04   -0.53006E-04   -0.15512E-03  3850   0.251E-02    0.728E-02
RMM:   4    -0.231256306404E+04    0.40284E-04   -0.19341E-04  2969   0.700E-03    0.319E-02
RMM:   5    -0.231256305168E+04    0.12367E-04   -0.43422E-05  2981   0.517E-03    0.181E-02
RMM:   6    -0.231256305351E+04   -0.18327E-05   -0.23488E-05  2897   0.473E-03
  61 F= -.23333595E+04 E0= -.23333595E+04  d E =-.538157E-03  mag=     7.0000
       N       E                     dE             d eps       ncg     rms          rms(c)
DAV:   1    -0.231256034004E+04    0.27116E-02   -0.29183E-01  4464   0.472E-01    0.171E-01
RMM:   2    -0.231256330952E+04   -0.29695E-02   -0.30536E-02  5802   0.878E-02    0.144E-01
RMM:   3    -0.231256343406E+04   -0.12454E-03   -0.29987E-03  4434   0.373E-02    0.101E-01
RMM:   4    -0.231256335660E+04    0.77458E-04   -0.37633E-04  3108   0.891E-03    0.443E-02
RMM:   5    -0.231256332978E+04    0.26824E-04   -0.77955E-05  3168   0.673E-03    0.194E-02
RMM:   6    -0.231256333021E+04   -0.42502E-06   -0.29846E-05  2914   0.553E-03
  62 F= -.23333597E+04 E0= -.23333597E+04  d E =-.730390E-03  mag=     7.0000
       N       E                     dE             d eps       ncg     rms          rms(c)
DAV:   1    -0.231256270384E+04    0.62594E-03   -0.92320E-02  4472   0.263E-01    0.968E-02
RMM:   2    -0.231256375120E+04   -0.10474E-02   -0.10764E-02  6080   0.508E-02    0.763E-02
RMM:   3    -0.231256381695E+04   -0.65753E-04   -0.10833E-03  3335   0.204E-02    0.576E-02
RMM:   4    -0.231256379453E+04    0.22423E-04   -0.13167E-04  2941   0.561E-03    0.256E-02
RMM:   5    -0.231256378704E+04    0.74878E-05   -0.24187E-05  2910   0.368E-03
  63 F= -.23333601E+04 E0= -.23333601E+04  d E =-.469654E-03  mag=     7.0000
       N       E                     dE             d eps       ncg     rms          rms(c)
DAV:   1    -0.231255603156E+04    0.77630E-02   -0.71204E-01  4464   0.729E-01    0.268E-01
RMM:   2    -0.231256411346E+04   -0.80819E-02   -0.82598E-02  5958   0.138E-01    0.223E-01
RMM:   3    -0.231256455551E+04   -0.44205E-03   -0.83578E-03  5224   0.579E-02    0.157E-01
RMM:   4    -0.231256438528E+04    0.17023E-03   -0.10003E-03  3758   0.130E-02    0.710E-02
RMM:   5    -0.231256433249E+04    0.52783E-04   -0.18905E-04  3556   0.918E-03    0.490E-02
RMM:   6    -0.231256433235E+04    0.13872E-06   -0.11589E-04  2968   0.766E-03    0.435E-02
RMM:   7    -0.231256431657E+04    0.15782E-04   -0.28043E-05  2905   0.507E-03    0.970E-03
RMM:   8    -0.231256431590E+04    0.67499E-06   -0.59576E-06  2874   0.298E-03
  64 F= -.23333607E+04 E0= -.23333607E+04  d E =-.103566E-02  mag=     7.0000
       N       E                     dE             d eps       ncg     rms          rms(c)
DAV:   1    -0.231256341273E+04    0.90384E-03   -0.12098E-01  4480   0.313E-01    0.120E-01
RMM:   2    -0.231256481742E+04   -0.14047E-02   -0.14617E-02  5852   0.607E-02    0.829E-02
RMM:   3    -0.231256491462E+04   -0.97201E-04   -0.14564E-03  3719   0.262E-02    0.688E-02
RMM:   4    -0.231256488183E+04    0.32788E-04   -0.18144E-04  2959   0.693E-03    0.303E-02
RMM:   5    -0.231256487070E+04    0.11138E-04   -0.35836E-05  2916   0.501E-03    0.149E-02
RMM:   6    -0.231256487201E+04   -0.13120E-05   -0.18201E-05  2900   0.442E-03
  65 F= -.23333614E+04 E0= -.23333614E+04  d E =-.660227E-03  mag=     7.0000
       N       E                     dE             d eps       ncg     rms          rms(c)
DAV:   1    -0.231256284818E+04    0.20225E-02   -0.17422E-01  4472   0.375E-01    0.145E-01
RMM:   2    -0.231256486212E+04   -0.20139E-02   -0.21039E-02  5714   0.726E-02    0.940E-02
RMM:   3    -0.231256502127E+04   -0.15915E-03   -0.21923E-03  4293   0.353E-02    0.807E-02
RMM:   4    -0.231256497697E+04    0.44294E-04   -0.26402E-04  3002   0.779E-03    0.381E-02
RMM:   5    -0.231256496198E+04    0.14990E-04   -0.51786E-05  2929   0.567E-03    0.235E-02
RMM:   6    -0.231256496182E+04    0.16652E-06   -0.31362E-05  2890   0.516E-03
  66 F= -.23333616E+04 E0= -.23333616E+04  d E =-.875868E-03  mag=     7.0000
       N       E                     dE             d eps       ncg     rms          rms(c)
DAV:   1    -0.231256345503E+04    0.15070E-02   -0.14882E-01  4472   0.343E-01    0.130E-01
RMM:   2    -0.231256520903E+04   -0.17540E-02   -0.18395E-02  5981   0.667E-02    0.758E-02
RMM:   3    -0.231256535257E+04   -0.14354E-03   -0.18422E-03  3981   0.288E-02    0.641E-02
RMM:   4    -0.231256533294E+04    0.19637E-04   -0.22588E-04  2953   0.703E-03    0.346E-02
RMM:   5    -0.231256532150E+04    0.11432E-04   -0.38429E-05  2907   0.490E-03    0.198E-02
RMM:   6    -0.231256532177E+04   -0.26159E-06   -0.24178E-05  2901   0.440E-03
  67 F= -.23333621E+04 E0= -.23333621E+04  d E =-.486797E-03  mag=     7.0000
       N       E                     dE             d eps       ncg     rms          rms(c)
DAV:   1    -0.231256380498E+04    0.15165E-02   -0.12023E-01  4472   0.308E-01    0.117E-01
RMM:   2    -0.231256522047E+04   -0.14155E-02   -0.14855E-02  6027   0.600E-02    0.666E-02
RMM:   3    -0.231256533795E+04   -0.11748E-03   -0.14822E-03  3745   0.262E-02    0.565E-02
RMM:   4    -0.231256532265E+04    0.15300E-04   -0.18335E-04  2944   0.641E-03    0.321E-02
RMM:   5    -0.231256531287E+04    0.97824E-05   -0.31576E-05  2897   0.436E-03
  68 F= -.23333622E+04 E0= -.23333622E+04  d E =-.592384E-03  mag=     7.0000
       N       E                     dE             d eps       ncg     rms          rms(c)
DAV:   1    -0.231256369397E+04    0.16287E-02   -0.17477E-01  4472   0.379E-01    0.148E-01
RMM:   2    -0.231256570484E+04   -0.20109E-02   -0.20998E-02  5991   0.747E-02    0.992E-02
RMM:   3    -0.231256584972E+04   -0.14488E-03   -0.21098E-03  4214   0.314E-02    0.850E-02
RMM:   4    -0.231256579826E+04    0.51461E-04   -0.25786E-04  3004   0.825E-03    0.357E-02
RMM:   5    -0.231256578531E+04    0.12953E-04   -0.54896E-05  3026   0.593E-03    0.214E-02
RMM:   6    -0.231256578748E+04   -0.21699E-05   -0.30607E-05  2888   0.546E-03
  69 F= -.23333627E+04 E0= -.23333627E+04  d E =-.523117E-03  mag=     7.0000
       N       E                     dE             d eps       ncg     rms          rms(c)
DAV:   1    -0.231256548852E+04    0.29679E-03   -0.24130E-02  4728   0.141E-01    0.552E-02
RMM:   2    -0.231256576886E+04   -0.28034E-03   -0.29448E-03  5923   0.290E-02    0.297E-02
RMM:   3    -0.231256579159E+04   -0.22732E-04   -0.29553E-04  2921   0.118E-02    0.247E-02
RMM:   4    -0.231256578952E+04    0.20650E-05   -0.35967E-05  2913   0.337E-03
  70 F= -.23333627E+04 E0= -.23333627E+04  d E =-.543275E-03  mag=     7.0000
       N       E                     dE             d eps       ncg     rms          rms(c)
DAV:   1    -0.231256438275E+04    0.14088E-02   -0.14419E-01  4472   0.343E-01    0.135E-01
RMM:   2    -0.231256620301E+04   -0.18203E-02   -0.18929E-02  5838   0.666E-02    0.935E-02
RMM:   3    -0.231256633277E+04   -0.12976E-03   -0.19109E-03  3919   0.284E-02    0.761E-02
RMM:   4    -0.231256629330E+04    0.39472E-04   -0.22841E-04  2962   0.754E-03    0.339E-02
RMM:   5    -0.231256627921E+04    0.14087E-04   -0.42231E-05  2946   0.539E-03    0.140E-02
RMM:   6    -0.231256627825E+04    0.96706E-06   -0.16595E-05  2920   0.466E-03
  71 F= -.23333632E+04 E0= -.23333632E+04  d E =-.479738E-03  mag=     7.0000
       N       E                     dE             d eps       ncg     rms          rms(c)
DAV:   1    -0.231256583803E+04    0.44118E-03   -0.36096E-02  4544   0.171E-01    0.678E-02
RMM:   2    -0.231256629560E+04   -0.45757E-03   -0.47676E-03  5943   0.345E-02    0.442E-02
RMM:   3    -0.231256632936E+04   -0.33755E-04   -0.46520E-04  3018   0.142E-02    0.378E-02
RMM:   4    -0.231256631980E+04    0.95615E-05   -0.57606E-05  2910   0.422E-03
  72 F= -.23333632E+04 E0= -.23333632E+04  d E =-.516725E-03  mag=     7.0000
       N       E                     dE             d eps       ncg     rms          rms(c)
DAV:   1    -0.231256443716E+04    0.18922E-02   -0.17548E-01  4472   0.388E-01    0.149E-01
RMM:   2    -0.231256664401E+04   -0.22069E-02   -0.22994E-02  5833   0.747E-02    0.996E-02
RMM:   3    -0.231256680177E+04   -0.15775E-03   -0.23063E-03  4177   0.316E-02    0.826E-02
RMM:   4    -0.231256675584E+04    0.45925E-04   -0.27833E-04  3011   0.820E-03    0.379E-02
RMM:   5    -0.231256673930E+04    0.16548E-04   -0.52777E-05  2988   0.601E-03    0.187E-02
RMM:   6    -0.231256674154E+04   -0.22425E-05   -0.28926E-05  2918   0.538E-03
  73 F= -.23333637E+04 E0= -.23333637E+04  d E =-.465009E-03  mag=     7.0000
       N       E                     dE             d eps       ncg     rms          rms(c)
DAV:   1    -0.231256649408E+04    0.24522E-03   -0.17772E-02  4760   0.124E-01    0.482E-02
RMM:   2    -0.231256671939E+04   -0.22531E-03   -0.23732E-03  5684   0.257E-02    0.269E-02
RMM:   3    -0.231256673795E+04   -0.18560E-04   -0.24512E-04  2903   0.108E-02    0.223E-02
RMM:   4    -0.231256673597E+04    0.19774E-05   -0.29484E-05  2910   0.313E-03
  74 F= -.23333637E+04 E0= -.23333637E+04  d E =-.473241E-03  mag=     7.0000
       N       E                     dE             d eps       ncg     rms          rms(c)
DAV:   1    -0.231256476079E+04    0.19772E-02   -0.17922E-01  4464   0.381E-01    0.148E-01
RMM:   2    -0.231256710826E+04   -0.23475E-02   -0.24126E-02  5813   0.745E-02    0.119E-01
RMM:   3    -0.231256722435E+04   -0.11610E-03   -0.23077E-03  4125   0.303E-02    0.820E-02
RMM:   4    -0.231256717580E+04    0.48554E-04   -0.28128E-04  2999   0.810E-03    0.363E-02
RMM:   5    -0.231256715835E+04    0.17449E-04   -0.52357E-05  3039   0.594E-03    0.169E-02
RMM:   6    -0.231256715972E+04   -0.13716E-05   -0.25357E-05  2927   0.528E-03
  75 F= -.23333642E+04 E0= -.23333642E+04  d E =-.491142E-03  mag=     7.0000
       N       E                     dE             d eps       ncg     rms          rms(c)
DAV:   1    -0.231256680415E+04    0.35420E-03   -0.25308E-02  4632   0.143E-01    0.562E-02
RMM:   2    -0.231256713832E+04   -0.33417E-03   -0.34646E-03  5897   0.299E-02    0.404E-02
RMM:   3    -0.231256715967E+04   -0.21353E-04   -0.33648E-04  2933   0.118E-02    0.307E-02
RMM:   4    -0.231256715390E+04    0.57695E-05   -0.41187E-05  2910   0.361E-03
  76 F= -.23333642E+04 E0= -.23333642E+04  d E =-.510696E-03  mag=     7.0000
       N       E                     dE             d eps       ncg     rms          rms(c)
DAV:   1    -0.231256499740E+04    0.21623E-02   -0.18737E-01  4472   0.383E-01    0.152E-01
RMM:   2    -0.231256757545E+04   -0.25781E-02   -0.26299E-02  5860   0.771E-02    0.130E-01
RMM:   3    -0.231256766809E+04   -0.92640E-04   -0.23667E-03  4211   0.311E-02    0.828E-02
RMM:   4    -0.231256761919E+04    0.48903E-04   -0.29568E-04  3027   0.821E-03    0.368E-02
RMM:   5    -0.231256760280E+04    0.16389E-04   -0.51862E-05  2998   0.587E-03    0.224E-02
RMM:   6    -0.231256760580E+04   -0.30043E-05   -0.34934E-05  2898   0.549E-03
  77 F= -.23333647E+04 E0= -.23333647E+04  d E =-.504611E-03  mag=     7.0000
       N       E                     dE             d eps       ncg     rms          rms(c)
DAV:   1    -0.231256713536E+04    0.46744E-03   -0.32068E-02  4560   0.159E-01    0.640E-02
RMM:   2    -0.231256758440E+04   -0.44905E-03   -0.46090E-03  5987   0.337E-02    0.515E-02
RMM:   3    -0.231256760447E+04   -0.20066E-04   -0.41774E-04  2956   0.128E-02    0.351E-02
RMM:   4    -0.231256759695E+04    0.75226E-05   -0.52211E-05  2921   0.391E-03
  78 F= -.23333647E+04 E0= -.23333647E+04  d E =-.517690E-03  mag=     7.0000
       N       E                     dE             d eps       ncg     rms          rms(c)
DAV:   1    -0.231256472120E+04    0.28833E-02   -0.20736E-01  4464   0.395E-01    0.166E-01
RMM:   2    -0.231256800729E+04   -0.32861E-02   -0.33139E-02  5944   0.828E-02    0.155E-01
RMM:   3    -0.231256808447E+04   -0.77180E-04   -0.29165E-03  4331   0.329E-02    0.877E-02
RMM:   4    -0.231256803515E+04    0.49315E-04   -0.36175E-04  3079   0.867E-03    0.391E-02
RMM:   5    -0.231256801704E+04    0.18113E-04   -0.53517E-05  3046   0.607E-03    0.272E-02
RMM:   6    -0.231256801939E+04   -0.23526E-05   -0.44280E-05  2910   0.581E-03
  79 F= -.23333652E+04 E0= -.23333652E+04  d E =-.498423E-03  mag=     7.0000
       N       E                     dE             d eps       ncg     rms          rms(c)
DAV:   1    -0.231256755626E+04    0.46078E-03   -0.27194E-02  4672   0.143E-01    0.619E-02
RMM:   2    -0.231256799396E+04   -0.43770E-03   -0.44233E-03  5991   0.320E-02    0.569E-02
RMM:   3    -0.231256800498E+04   -0.11026E-04   -0.39938E-04  2921   0.120E-02    0.327E-02
RMM:   4    -0.231256799946E+04    0.55216E-05   -0.49769E-05  2928   0.373E-03
  80 F= -.23333652E+04 E0= -.23333652E+04  d E =-.506134E-03  mag=     7.0000
       N       E                     dE             d eps       ncg     rms          rms(c)
DAV:   1    -0.231256538097E+04    0.26240E-02   -0.17877E-01  4472   0.356E-01    0.157E-01
RMM:   2    -0.231256844254E+04   -0.30616E-02   -0.30712E-02  5953   0.770E-02    0.150E-01
RMM:   3    -0.231256851182E+04   -0.69278E-04   -0.27191E-03  4098   0.303E-02    0.818E-02
RMM:   4    -0.231256847180E+04    0.40015E-04   -0.32895E-04  3004   0.805E-03    0.370E-02
RMM:   5    -0.231256845737E+04    0.14433E-04   -0.45382E-05  2950   0.545E-03    0.289E-02
RMM:   6    -0.231256845684E+04    0.53024E-06   -0.40822E-05  2900   0.537E-03
  81 F= -.23333658E+04 E0= -.23333658E+04  d E =-.552915E-03  mag=     7.0000
       N       E                     dE             d eps       ncg     rms          rms(c)
DAV:   1    -0.231256699446E+04    0.14629E-02   -0.83887E-02  4472   0.244E-01    0.110E-01
RMM:   2    -0.231256844491E+04   -0.14504E-02   -0.14539E-02  6045   0.536E-02    0.107E-01
RMM:   3    -0.231256846944E+04   -0.24534E-04   -0.12966E-03  3353   0.205E-02    0.560E-02
RMM:   4    -0.231256845218E+04    0.17260E-04   -0.15713E-04  2943   0.594E-03    0.244E-02
RMM:   5    -0.231256844529E+04    0.68973E-05   -0.20081E-05  2906   0.381E-03
  82 F= -.23333658E+04 E0= -.23333658E+04  d E =-.606482E-03  mag=     7.0000
       N       E                     dE             d eps       ncg     rms          rms(c)
DAV:   1    -0.231256578009E+04    0.26721E-02   -0.18011E-01  4464   0.349E-01    0.155E-01
RMM:   2    -0.231256883179E+04   -0.30517E-02   -0.30684E-02  6100   0.763E-02    0.145E-01
RMM:   3    -0.231256892587E+04   -0.94075E-04   -0.28206E-03  3867   0.292E-02    0.807E-02
RMM:   4    -0.231256888910E+04    0.36769E-04   -0.32485E-04  2977   0.793E-03    0.386E-02
RMM:   5    -0.231256888448E+04    0.46186E-05   -0.52018E-05  2931   0.500E-03
  83 F= -.23333664E+04 E0= -.23333664E+04  d E =-.541404E-03  mag=     7.0000
       N       E                     dE             d eps       ncg     rms          rms(c)
DAV:   1    -0.231256685060E+04    0.20385E-02   -0.11881E-01  4472   0.283E-01    0.125E-01
RMM:   2    -0.231256885821E+04   -0.20076E-02   -0.20275E-02  6176   0.626E-02    0.116E-01
RMM:   3    -0.231256892737E+04   -0.69167E-04   -0.18597E-03  3527   0.236E-02    0.677E-02
RMM:   4    -0.231256889865E+04    0.28720E-04   -0.21829E-04  2966   0.688E-03    0.329E-02
RMM:   5    -0.231256889504E+04    0.36188E-05   -0.38863E-05  2917   0.451E-03
  84 F= -.23333665E+04 E0= -.23333665E+04  d E =-.634430E-03  mag=     7.0000
       N       E                     dE             d eps       ncg     rms          rms(c)
DAV:   1    -0.231256592725E+04    0.29714E-02   -0.22684E-01  4464   0.415E-01    0.174E-01
RMM:   2    -0.231256932678E+04   -0.33995E-02   -0.34651E-02  6001   0.871E-02    0.151E-01
RMM:   3    -0.231256945155E+04   -0.12477E-03   -0.32173E-03  4281   0.349E-02    0.931E-02
RMM:   4    -0.231256938955E+04    0.62001E-04   -0.37519E-04  3068   0.916E-03    0.427E-02
RMM:   5    -0.231256937949E+04    0.10058E-04   -0.74430E-05  3033   0.645E-03    0.454E-02
RMM:   6    -0.231256936279E+04    0.16705E-04   -0.53410E-05  2904   0.612E-03    0.184E-02
RMM:   7    -0.231256936006E+04    0.27301E-05   -0.14326E-05  2906   0.439E-03
  85 F= -.23333670E+04 E0= -.23333670E+04  d E =-.535051E-03  mag=     7.0000
       N       E                     dE             d eps       ncg     rms          rms(c)
DAV:   1    -0.231256921329E+04    0.14949E-03   -0.89832E-03  4960   0.828E-02    0.354E-02
RMM:   2    -0.231256935156E+04   -0.13826E-03   -0.14070E-03  5216   0.196E-02    0.307E-02
RMM:   3    -0.231256935645E+04   -0.48938E-05   -0.12929E-04  2875   0.805E-03    0.189E-02
RMM:   4    -0.231256935417E+04    0.22754E-05   -0.15866E-05  2901   0.255E-03
  86 F= -.23333670E+04 E0= -.23333670E+04  d E =-.543137E-03  mag=     7.0000
       N       E                     dE             d eps       ncg     rms          rms(c)
DAV:   1    -0.231256800177E+04    0.13547E-02   -0.12142E-01  4472   0.311E-01    0.127E-01
RMM:   2    -0.231256975564E+04   -0.17539E-02   -0.17985E-02  5822   0.627E-02    0.104E-01
RMM:   3    -0.231256982763E+04   -0.71987E-04   -0.16672E-03  3666   0.256E-02    0.674E-02
RMM:   4    -0.231256979287E+04    0.34756E-04   -0.19696E-04  2958   0.698E-03    0.304E-02
RMM:   5    -0.231256978177E+04    0.11104E-04   -0.39839E-05  2946   0.512E-03    0.208E-02
RMM:   6    -0.231256978262E+04   -0.84861E-06   -0.25530E-05  2886   0.475E-03
  87 F= -.23333675E+04 E0= -.23333675E+04  d E =-.444116E-03  mag=     7.0000
       N       E                     dE             d eps       ncg     rms          rms(c)
DAV:   1    -0.231256933792E+04    0.44385E-03   -0.30571E-02  4544   0.156E-01    0.650E-02
RMM:   2    -0.231256978345E+04   -0.44553E-03   -0.45944E-03  5879   0.325E-02    0.507E-02
RMM:   3    -0.231256980588E+04   -0.22424E-04   -0.44281E-04  2953   0.135E-02    0.346E-02
RMM:   4    -0.231256979846E+04    0.74184E-05   -0.51424E-05  2915   0.383E-03
  88 F= -.23333675E+04 E0= -.23333675E+04  d E =-.467953E-03  mag=     7.0000
       N       E                     dE             d eps       ncg     rms          rms(c)
DAV:   1    -0.231256841960E+04    0.13863E-02   -0.12010E-01  4472   0.312E-01    0.127E-01
RMM:   2    -0.231257016725E+04   -0.17476E-02   -0.17788E-02  5842   0.620E-02    0.109E-01
RMM:   3    -0.231257023104E+04   -0.63792E-04   -0.17001E-03  3625   0.254E-02    0.676E-02
RMM:   4    -0.231257019521E+04    0.35828E-04   -0.19223E-04  2947   0.693E-03    0.315E-02
RMM:   5    -0.231257018867E+04    0.65484E-05   -0.43965E-05  2936   0.506E-03
  89 F= -.23333679E+04 E0= -.23333679E+04  d E =-.371748E-03  mag=     7.0000
       N       E                     dE             d eps       ncg     rms          rms(c)
DAV:   1    -0.231256990000E+04    0.29521E-03   -0.20472E-02  4712   0.129E-01    0.545E-02
RMM:   2    -0.231257020334E+04   -0.30334E-03   -0.30833E-03  5666   0.287E-02    0.533E-02
RMM:   3    -0.231257021576E+04   -0.12416E-04   -0.36295E-04  2928   0.116E-02    0.300E-02
RMM:   4    -0.231257020985E+04    0.59107E-05   -0.35808E-05  2906   0.378E-03
  90 F= -.23333679E+04 E0= -.23333679E+04  d E =-.385242E-03  mag=     7.0000
       N       E                     dE             d eps       ncg     rms          rms(c)
DAV:   1    -0.231256936525E+04    0.85050E-03   -0.94288E-02  4472   0.286E-01    0.115E-01
RMM:   2    -0.231257058709E+04   -0.12218E-02   -0.12683E-02  5814   0.562E-02    0.756E-02
RMM:   3    -0.231257065137E+04   -0.64278E-04   -0.11252E-03  3641   0.234E-02    0.605E-02
RMM:   4    -0.231257062268E+04    0.28684E-04   -0.14134E-04  2931   0.645E-03    0.293E-02
RMM:   5    -0.231257061375E+04    0.89354E-05   -0.36608E-05  2921   0.500E-03
  91 F= -.23333682E+04 E0= -.23333682E+04  d E =-.348129E-03  mag=     7.0000
       N       E                     dE             d eps       ncg     rms          rms(c)
DAV:   1    -0.231257048456E+04    0.13812E-03   -0.11401E-02  4824   0.997E-02    0.450E-02
RMM:   2    -0.231257064972E+04   -0.16516E-03   -0.15901E-03  5299   0.225E-02    0.539E-02
RMM:   3    -0.231257064091E+04    0.88093E-05   -0.18801E-04  2892   0.948E-03    0.220E-02
RMM:   4    -0.231257063769E+04    0.32180E-05   -0.20227E-05  2907   0.312E-03
  92 F= -.23333682E+04 E0= -.23333682E+04  d E =-.352383E-03  mag=     7.0000
       N       E                     dE             d eps       ncg     rms          rms(c)
DAV:   1    -0.231256961175E+04    0.10292E-02   -0.99910E-02  4472   0.280E-01    0.114E-01
RMM:   2    -0.231257099328E+04   -0.13815E-02   -0.14111E-02  5833   0.559E-02    0.902E-02
RMM:   3    -0.231257104301E+04   -0.49727E-04   -0.11899E-03  3487   0.223E-02    0.622E-02
RMM:   4    -0.231257101326E+04    0.29746E-04   -0.15237E-04  2942   0.630E-03    0.292E-02
RMM:   5    -0.231257100635E+04    0.69166E-05   -0.37067E-05  2926   0.472E-03
  93 F= -.23333685E+04 E0= -.23333685E+04  d E =-.320721E-03  mag=     7.0000
       N       E                     dE             d eps       ncg     rms          rms(c)
DAV:   1    -0.231257080503E+04    0.20823E-03   -0.16119E-02  4624   0.113E-01    0.485E-02
RMM:   2    -0.231257103737E+04   -0.23234E-03   -0.23402E-03  5463   0.252E-02    0.503E-02
RMM:   3    -0.231257104000E+04   -0.26246E-05   -0.25326E-04  2909   0.102E-02    0.260E-02
RMM:   4    -0.231257103519E+04    0.48094E-05   -0.26886E-05  2907   0.341E-03
  94 F= -.23333686E+04 E0= -.23333686E+04  d E =-.330053E-03  mag=     7.0000
       N       E                     dE             d eps       ncg     rms          rms(c)
DAV:   1    -0.231256991612E+04    0.11239E-02   -0.10874E-01  4464   0.302E-01    0.123E-01
RMM:   2    -0.231257133256E+04   -0.14164E-02   -0.14496E-02  5840   0.596E-02    0.952E-02
RMM:   3    -0.231257137479E+04   -0.42230E-04   -0.11946E-03  3612   0.236E-02    0.678E-02
RMM:   4    -0.231257133479E+04    0.39994E-04   -0.15632E-04  2943   0.673E-03    0.286E-02
RMM:   5    -0.231257132328E+04    0.11512E-04   -0.40920E-05  2967   0.526E-03    0.193E-02
RMM:   6    -0.231257132363E+04   -0.35189E-06   -0.24560E-05  2884   0.494E-03
  95 F= -.23333689E+04 E0= -.23333689E+04  d E =-.351720E-03  mag=     7.0000
       N       E                     dE             d eps       ncg     rms          rms(c)
DAV:   1    -0.231257115014E+04    0.17314E-03   -0.11503E-02  4752   0.983E-02    0.412E-02
RMM:   2    -0.231257130490E+04   -0.15475E-03   -0.15779E-03  5265   0.210E-02    0.333E-02
RMM:   3    -0.231257130934E+04   -0.44386E-05   -0.14078E-04  2892   0.889E-03    0.224E-02
RMM:   4    -0.231257130522E+04    0.41163E-05   -0.17743E-05  2899   0.276E-03
  96 F= -.23333689E+04 E0= -.23333689E+04  d E =-.353962E-03  mag=     7.0000
       N       E                     dE             d eps       ncg     rms          rms(c)
DAV:   1    -0.231256992614E+04    0.13832E-02   -0.11214E-01  4456   0.292E-01    0.123E-01
RMM:   2    -0.231257158326E+04   -0.16571E-02   -0.16510E-02  5766   0.597E-02    0.124E-01
RMM:   3    -0.231257157342E+04    0.98395E-05   -0.13783E-03  3558   0.235E-02    0.616E-02
RMM:   4    -0.231257154232E+04    0.31102E-04   -0.16743E-04  2964   0.650E-03    0.282E-02
RMM:   5    -0.231257153061E+04    0.11710E-04   -0.35619E-05  2951   0.501E-03    0.176E-02
RMM:   6    -0.231257153127E+04   -0.66428E-06   -0.20703E-05  2889   0.462E-03
  97 F= -.23333693E+04 E0= -.23333693E+04  d E =-.355635E-03  mag=     7.0000
       N       E                     dE             d eps       ncg     rms          rms(c)
DAV:   1    -0.231257120588E+04    0.32472E-03   -0.19654E-02  4528   0.122E-01    0.532E-02
RMM:   2    -0.231257150112E+04   -0.29523E-03   -0.29165E-03  5730   0.261E-02    0.557E-02
RMM:   3    -0.231257149656E+04    0.45625E-05   -0.25943E-04  2900   0.107E-02    0.261E-02
RMM:   4    -0.231257149240E+04    0.41556E-05   -0.30802E-05  2928   0.305E-03
  98 F= -.23333693E+04 E0= -.23333693E+04  d E =-.370968E-03  mag=     7.0000
       N       E                     dE             d eps       ncg     rms          rms(c)
DAV:   1    -0.231257029715E+04    0.11994E-02   -0.10960E-01  4456   0.289E-01    0.124E-01
RMM:   2    -0.231257185917E+04   -0.15620E-02   -0.15563E-02  5875   0.586E-02    0.121E-01
RMM:   3    -0.231257185590E+04    0.32648E-05   -0.13587E-03  3500   0.232E-02    0.643E-02
RMM:   4    -0.231257182085E+04    0.35047E-04   -0.16282E-04  2959   0.646E-03    0.313E-02
RMM:   5    -0.231257181774E+04    0.31136E-05   -0.42271E-05  2915   0.475E-03
  99 F= -.23333697E+04 E0= -.23333697E+04  d E =-.386707E-03  mag=     7.0000
       N       E                     dE             d eps       ncg     rms          rms(c)
DAV:   1    -0.231257151685E+04    0.30400E-03   -0.19721E-02  4576   0.123E-01    0.520E-02
RMM:   2    -0.231257179439E+04   -0.27754E-03   -0.28627E-03  5635   0.275E-02    0.436E-02
RMM:   3    -0.231257180429E+04   -0.99063E-05   -0.26466E-04  2917   0.105E-02    0.292E-02
RMM:   4    -0.231257179677E+04    0.75211E-05   -0.30185E-05  2905   0.346E-03
 100 F= -.23333697E+04 E0= -.23333697E+04  d E =-.391932E-03  mag=     7.0000
       N       E                     dE             d eps       ncg     rms          rms(c)
DAV:   1    -0.231257060979E+04    0.11945E-02   -0.11474E-01  4464   0.289E-01    0.120E-01
RMM:   2    -0.231257220994E+04   -0.16002E-02   -0.16084E-02  5858   0.587E-02    0.110E-01
RMM:   3    -0.231257223279E+04   -0.22847E-04   -0.13465E-03  3516   0.230E-02    0.625E-02
RMM:   4    -0.231257219986E+04    0.32931E-04   -0.16714E-04  2956   0.646E-03    0.293E-02
RMM:   5    -0.231257218908E+04    0.10775E-04   -0.38854E-05  2962   0.501E-03    0.209E-02
RMM:   6    -0.231257218915E+04   -0.65251E-07   -0.25601E-05  2887   0.470E-03
 101 F= -.23333701E+04 E0= -.23333701E+04  d E =-.396101E-03  mag=     7.0000
