       N       E                     dE             d eps       ncg     rms          rms(c)
DAV:   1     0.131248445129E+05    0.13125E+05   -0.84459E+05  4536   0.144E+03
DAV:   2    -0.101398419217E+04   -0.14139E+05   -0.13512E+05  4952   0.330E+02
DAV:   3    -0.248856816382E+04   -0.14746E+04   -0.14560E+04  5560   0.115E+02
DAV:   4    -0.253430564554E+04   -0.45737E+02   -0.45493E+02  6792   0.292E+01
DAV:   5    -0.253510738988E+04   -0.80174E+00   -0.79985E+00  6248   0.338E+00    0.170E+02
RMM:   6    -0.150085835690E+04    0.10342E+04   -0.19656E+03  4493   0.383E+01    0.731E+01
RMM:   7    -0.168071509226E+04   -0.17986E+03   -0.30380E+02  5177   0.146E+01    0.594E+01
RMM:   8    -0.171423255182E+04   -0.33517E+02   -0.88866E+01  5317   0.845E+00    0.476E+01
RMM:   9    -0.176707208685E+04   -0.52840E+02   -0.57921E+01  5050   0.735E+00    0.332E+01
RMM:  10    -0.191291850238E+04   -0.14585E+03   -0.62149E+01  5097   0.762E+00    0.203E+01
RMM:  11    -0.203532523536E+04   -0.12241E+03   -0.51709E+01  4892   0.611E+00    0.214E+01
RMM:  12    -0.208067642325E+04   -0.45351E+02   -0.17682E+01  5142   0.346E+00    0.167E+01
RMM:  13    -0.217981930095E+04   -0.99143E+02   -0.55469E+01  4513   0.571E+00    0.115E+01
RMM:  14    -0.228999625316E+04   -0.11018E+03   -0.10297E+02  4555   0.692E+00    0.699E+00
RMM:  15    -0.231762430253E+04   -0.27628E+02   -0.28052E+01  4707   0.442E+00    0.394E+00
RMM:  16    -0.232714734522E+04   -0.95230E+01   -0.12419E+01  4817   0.229E+00    0.259E+00
RMM:  17    -0.232964784744E+04   -0.25005E+01   -0.23568E+00  5053   0.126E+00    0.328E+00
RMM:  18    -0.233074862143E+04   -0.11008E+01   -0.92227E-01  4821   0.598E-01    0.160E+00
RMM:  19    -0.233147246159E+04   -0.72384E+00   -0.50585E-01  4592   0.509E-01    0.721E-01
RMM:  20    -0.233177907798E+04   -0.30662E+00   -0.26250E-01  4604   0.303E-01    0.519E-01
RMM:  21    -0.233186254123E+04   -0.83463E-01   -0.95232E-02  4901   0.192E-01    0.236E-01
RMM:  22    -0.233189523826E+04   -0.32697E-01   -0.28173E-02  4902   0.105E-01    0.166E-01
RMM:  23    -0.233191296582E+04   -0.17728E-01   -0.80160E-03  4633   0.668E-02    0.946E-02
RMM:  24    -0.233192457534E+04   -0.11610E-01   -0.41992E-03  4563   0.493E-02    0.681E-02
RMM:  25    -0.233193039559E+04   -0.58203E-02   -0.19184E-03  4638   0.360E-02    0.466E-02
RMM:  26    -0.233193372833E+04   -0.33327E-02   -0.12244E-03  4590   0.254E-02    0.234E-02
RMM:  27    -0.233193506122E+04   -0.13329E-02   -0.46170E-04  4214   0.188E-02    0.198E-02
RMM:  28    -0.233193551524E+04   -0.45402E-03   -0.15157E-04  3977   0.967E-03    0.965E-03
RMM:  29    -0.233193577822E+04   -0.26297E-03   -0.65042E-05  3608   0.764E-03    0.535E-03
RMM:  30    -0.233193588368E+04   -0.10547E-03   -0.25860E-05  3149   0.474E-03    0.440E-03
RMM:  31    -0.233193593407E+04   -0.50390E-04   -0.12783E-05  2921   0.372E-03    0.178E-03
RMM:  32    -0.233193595224E+04   -0.18169E-04   -0.74182E-06  2857   0.303E-03    0.119E-03
RMM:  33    -0.233193595718E+04   -0.49387E-05   -0.36278E-06  2453   0.227E-03
   1 F= -.23533821E+04 E0= -.23533821E+04  d E =-.235338E+04  mag=     5.0001
       N       E                     dE             d eps       ncg     rms          rms(c)
DAV:   1    -0.233233002401E+04   -0.39407E+00   -0.32232E+01  4912   0.408E+00    0.168E+00
RMM:   2    -0.233280117020E+04   -0.47115E+00   -0.48588E+00  6644   0.111E+00    0.185E+00
RMM:   3    -0.233278820606E+04    0.12964E-01   -0.50545E-01  6449   0.390E-01    0.119E+00
RMM:   4    -0.233277601815E+04    0.12188E-01   -0.51808E-02  6165   0.907E-02    0.730E-01
RMM:   5    -0.233277248033E+04    0.35378E-02   -0.12723E-02  6169   0.476E-02    0.619E-01
RMM:   6    -0.233276723416E+04    0.52462E-02   -0.10086E-02  5937   0.460E-02    0.251E-01
RMM:   7    -0.233276678823E+04    0.44593E-03   -0.36838E-03  5602   0.304E-02    0.191E-01
RMM:   8    -0.233276650353E+04    0.28470E-03   -0.94597E-04  4224   0.153E-02    0.974E-02
RMM:   9    -0.233276637767E+04    0.12586E-03   -0.17582E-04  3445   0.837E-03    0.351E-02
RMM:  10    -0.233276635107E+04    0.26598E-04   -0.71933E-05  3144   0.633E-03    0.154E-02
RMM:  11    -0.233276634166E+04    0.94112E-05   -0.22196E-05  2993   0.487E-03
   2 F= -.23542123E+04 E0= -.23542123E+04  d E =-.830223E+00  mag=     5.0000
       N       E                     dE             d eps       ncg     rms          rms(c)
DAV:   1    -0.233224583805E+04    0.52051E+00   -0.70910E+01  4608   0.611E+00    0.242E+00
RMM:   2    -0.233337724084E+04   -0.11314E+01   -0.11675E+01  6643   0.173E+00    0.271E+00
RMM:   3    -0.233333847945E+04    0.38761E-01   -0.11368E+00  6249   0.593E-01    0.169E+00
RMM:   4    -0.233331651774E+04    0.21962E-01   -0.11282E-01  6191   0.136E-01    0.108E+00
RMM:   5    -0.233330812862E+04    0.83891E-02   -0.23965E-02  6280   0.665E-02    0.866E-01
RMM:   6    -0.233329793644E+04    0.10192E-01   -0.22887E-02  5841   0.692E-02    0.403E-01
RMM:   7    -0.233329647897E+04    0.14575E-02   -0.95204E-03  5630   0.504E-02    0.241E-01
RMM:   8    -0.233329604399E+04    0.43497E-03   -0.21898E-03  5205   0.248E-02    0.156E-01
RMM:   9    -0.233329568583E+04    0.35816E-03   -0.50534E-04  4357   0.128E-02    0.557E-02
RMM:  10    -0.233329561286E+04    0.72975E-04   -0.19964E-04  3908   0.895E-03    0.235E-02
RMM:  11    -0.233329559274E+04    0.20117E-04   -0.44624E-05  3255   0.586E-03    0.132E-02
RMM:  12    -0.233329558033E+04    0.12411E-04   -0.24552E-05  3055   0.497E-03    0.702E-03
RMM:  13    -0.233329557635E+04    0.39725E-05   -0.14593E-05  2916   0.446E-03
   3 F= -.23547422E+04 E0= -.23547422E+04  d E =-.136012E+01  mag=     4.9995
       N       E                     dE             d eps       ncg     rms          rms(c)
DAV:   1    -0.233357687399E+04   -0.28129E+00   -0.12037E+01  4704   0.304E+00    0.129E+00
RMM:   2    -0.233375366285E+04   -0.17679E+00   -0.19154E+00  6323   0.769E-01    0.104E+00
RMM:   3    -0.233376144988E+04   -0.77870E-02   -0.20587E-01  6146   0.284E-01    0.100E+00
RMM:   4    -0.233375267375E+04    0.87761E-02   -0.22187E-02  6073   0.734E-02    0.524E-01
RMM:   5    -0.233375228227E+04    0.39149E-03   -0.86114E-03  5983   0.467E-02    0.516E-01
RMM:   6    -0.233374917678E+04    0.31055E-02   -0.51281E-03  5745   0.401E-02    0.152E-01
RMM:   7    -0.233374927959E+04   -0.10281E-03   -0.14259E-03  5103   0.229E-02    0.163E-01
RMM:   8    -0.233374894926E+04    0.33033E-03   -0.42146E-04  4040   0.104E-02    0.387E-02
RMM:   9    -0.233374891833E+04    0.30930E-04   -0.73765E-05  3224   0.574E-03    0.162E-02
RMM:  10    -0.233374890781E+04    0.10513E-04   -0.27697E-05  3067   0.475E-03    0.806E-03
RMM:  11    -0.233374890393E+04    0.38858E-05   -0.11041E-05  2928   0.427E-03
   4 F= -.23551965E+04 E0= -.23551962E+04  d E =-.454317E+00  mag=     4.9955
       N       E                     dE             d eps       ncg     rms          rms(c)
DAV:   1    -0.233368183936E+04    0.67068E-01   -0.16310E+01  4608   0.357E+00    0.148E+00
RMM:   2    -0.233393035174E+04   -0.24851E+00   -0.26793E+00  6337   0.915E-01    0.123E+00
RMM:   3    -0.233393897019E+04   -0.86185E-02   -0.28971E-01  6146   0.332E-01    0.112E+00
RMM:   4    -0.233392799356E+04    0.10977E-01   -0.29999E-02  6115   0.848E-02    0.605E-01
RMM:   5    -0.233392734848E+04    0.64508E-03   -0.10530E-02  5990   0.520E-02    0.597E-01
RMM:   6    -0.233392360231E+04    0.37462E-02   -0.71718E-03  5633   0.466E-02    0.237E-01
RMM:   7    -0.233392347742E+04    0.12489E-03   -0.24896E-03  5234   0.306E-02    0.193E-01
RMM:   8    -0.233392300904E+04    0.46838E-03   -0.55964E-04  4689   0.126E-02    0.430E-02
RMM:   9    -0.233392296920E+04    0.39843E-04   -0.10708E-04  3415   0.682E-03    0.238E-02
RMM:  10    -0.233392296244E+04    0.67560E-05   -0.47036E-05  3248   0.575E-03
   5 F= -.23553720E+04 E0= -.23553684E+04  d E =-.629848E+00  mag=     4.9219
       N       E                     dE             d eps       ncg     rms          rms(c)
DAV:   1    -0.233395448943E+04   -0.31520E-01   -0.10391E+01  4624   0.269E+00    0.104E+00
RMM:   2    -0.233414578176E+04   -0.19129E+00   -0.20380E+00  6430   0.700E-01    0.795E-01
RMM:   3    -0.233416135547E+04   -0.15574E-01   -0.25198E-01  6199   0.286E-01    0.704E-01
RMM:   4    -0.233415619980E+04    0.51557E-02   -0.19947E-02  6128   0.622E-02    0.348E-01
RMM:   5    -0.233415524749E+04    0.95231E-03   -0.54904E-03  5714   0.347E-02    0.310E-01
RMM:   6    -0.233415495681E+04    0.29067E-03   -0.36389E-03  5648   0.295E-02    0.306E-01
RMM:   7    -0.233415406274E+04    0.89407E-03   -0.13891E-03  5214   0.193E-02    0.932E-02
RMM:   8    -0.233415400332E+04    0.59418E-04   -0.30267E-04  3334   0.920E-03    0.654E-02
RMM:   9    -0.233415393592E+04    0.67405E-04   -0.99979E-05  3115   0.641E-03    0.286E-02
RMM:  10    -0.233415391424E+04    0.21676E-04   -0.71315E-05  3115   0.554E-03    0.112E-02
RMM:  11    -0.233415391176E+04    0.24803E-05   -0.16603E-05  2982   0.409E-03
   6 F= -.23556048E+04 E0= -.23556038E+04  d E =-.232801E+00  mag=     4.9680
       N       E                     dE             d eps       ncg     rms          rms(c)
DAV:   1    -0.233405050094E+04    0.10341E+00   -0.90741E+00  4600   0.251E+00    0.954E-01
RMM:   2    -0.233421675381E+04   -0.16625E+00   -0.17630E+00  6435   0.644E-01    0.750E-01
RMM:   3    -0.233423092639E+04   -0.14173E-01   -0.21756E-01  6196   0.265E-01    0.693E-01
RMM:   4    -0.233422585435E+04    0.50720E-02   -0.17688E-02  6009   0.582E-02    0.344E-01
RMM:   5    -0.233422550579E+04    0.34856E-03   -0.48446E-03  5493   0.310E-02    0.378E-01
RMM:   6    -0.233422432022E+04    0.11856E-02   -0.36515E-03  5701   0.283E-02    0.230E-01
RMM:   7    -0.233422379181E+04    0.52841E-03   -0.11944E-03  5354   0.189E-02    0.729E-02
RMM:   8    -0.233422375276E+04    0.39042E-04   -0.24460E-04  3345   0.912E-03    0.603E-02
RMM:   9    -0.233422369644E+04    0.56329E-04   -0.86106E-05  3115   0.630E-03    0.269E-02
RMM:  10    -0.233422367689E+04    0.19548E-04   -0.68195E-05  3094   0.533E-03    0.969E-03
RMM:  11    -0.233422367504E+04    0.18447E-05   -0.15393E-05  2978   0.395E-03
   7 F= -.23556766E+04 E0= -.23556761E+04  d E =-.304533E+00  mag=     4.9876
       N       E                     dE             d eps       ncg     rms          rms(c)
DAV:   1    -0.233420471278E+04    0.18964E-01   -0.51953E+00  4600   0.189E+00    0.712E-01
RMM:   2    -0.233430593147E+04   -0.10122E+00   -0.10445E+00  6461   0.488E-01    0.681E-01
RMM:   3    -0.233431207797E+04   -0.61465E-02   -0.11331E-01  6235   0.188E-01    0.564E-01
RMM:   4    -0.233430860619E+04    0.34718E-02   -0.10188E-02  5717   0.441E-02    0.270E-01
RMM:   5    -0.233430833330E+04    0.27289E-03   -0.20818E-03  5145   0.205E-02    0.265E-01
RMM:   6    -0.233430743458E+04    0.89872E-03   -0.18780E-03  5476   0.228E-02    0.848E-02
RMM:   7    -0.233430737982E+04    0.54763E-04   -0.41080E-04  4649   0.137E-02    0.302E-02
RMM:   8    -0.233430736266E+04    0.17161E-04   -0.48504E-05  3183   0.550E-03    0.186E-02
RMM:   9    -0.233430735563E+04    0.70280E-05   -0.31804E-05  2972   0.457E-03
   8 F= -.23557616E+04 E0= -.23557613E+04  d E =-.850308E-01  mag=     4.9922
       N       E                     dE             d eps       ncg     rms          rms(c)
DAV:   1    -0.233424688750E+04    0.60475E-01   -0.43140E+00  4648   0.173E+00    0.650E-01
RMM:   2    -0.233433125015E+04   -0.84363E-01   -0.86487E-01  6450   0.436E-01    0.654E-01
RMM:   3    -0.233433588937E+04   -0.46392E-02   -0.93581E-02  6229   0.171E-01    0.523E-01
RMM:   4    -0.233433296864E+04    0.29207E-02   -0.86123E-03  5675   0.399E-02    0.251E-01
RMM:   5    -0.233433269806E+04    0.27058E-03   -0.17333E-03  5002   0.189E-02    0.239E-01
RMM:   6    -0.233433193862E+04    0.75944E-03   -0.15656E-03  5407   0.209E-02    0.769E-02
RMM:   7    -0.233433189612E+04    0.42498E-04   -0.33823E-04  4448   0.130E-02    0.299E-02
RMM:   8    -0.233433188835E+04    0.77696E-05   -0.54422E-05  3197   0.567E-03
   9 F= -.23557875E+04 E0= -.23557871E+04  d E =-.110894E+00  mag=     4.9935
       N       E                     dE             d eps       ncg     rms          rms(c)
DAV:   1    -0.233428674690E+04    0.45149E-01   -0.62615E+00  4560   0.211E+00    0.830E-01
RMM:   2    -0.233440486477E+04   -0.11812E+00   -0.12206E+00  6518   0.542E-01    0.656E-01
RMM:   3    -0.233441422355E+04   -0.93588E-02   -0.12384E-01  6341   0.197E-01    0.619E-01
RMM:   4    -0.233441022134E+04    0.40022E-02   -0.13538E-02  6046   0.492E-02    0.266E-01
RMM:   5    -0.233440995495E+04    0.26639E-03   -0.21126E-03  5173   0.199E-02    0.241E-01
RMM:   6    -0.233440940994E+04    0.54502E-03   -0.97748E-04  4997   0.169E-02    0.117E-01
RMM:   7    -0.233440931818E+04    0.91752E-04   -0.58285E-04  5074   0.158E-02    0.532E-02
RMM:   8    -0.233440930199E+04    0.16192E-04   -0.12845E-04  3146   0.789E-03    0.454E-02
RMM:   9    -0.233440927520E+04    0.26794E-04   -0.35505E-05  2947   0.459E-03    0.147E-02
RMM:  10    -0.233440927261E+04    0.25905E-05   -0.15104E-05  2930   0.312E-03
  10 F= -.23558660E+04 E0= -.23558655E+04  d E =-.785418E-01  mag=     4.9903
       N       E                     dE             d eps       ncg     rms          rms(c)
DAV:   1    -0.233350313182E+04    0.90614E+00   -0.49020E+01  4520   0.594E+00    0.236E+00
RMM:   2    -0.233445615362E+04   -0.95302E+00   -0.98754E+00  6506   0.156E+00    0.179E+00
RMM:   3    -0.233454071944E+04   -0.84566E-01   -0.10578E+00  6335   0.590E-01    0.184E+00
RMM:   4    -0.233450470268E+04    0.36017E-01   -0.10819E-01  6403   0.140E-01    0.773E-01
RMM:   5    -0.233450172392E+04    0.29788E-02   -0.17107E-02  5989   0.527E-02    0.655E-01
RMM:   6    -0.233449788448E+04    0.38394E-02   -0.74820E-03  5654   0.428E-02    0.367E-01
RMM:   7    -0.233449673814E+04    0.11463E-02   -0.58649E-03  5649   0.454E-02    0.179E-01
RMM:   8    -0.233449660647E+04    0.13167E-03   -0.14112E-03  5275   0.235E-02    0.163E-01
RMM:   9    -0.233449625730E+04    0.34917E-03   -0.38749E-04  4233   0.101E-02    0.501E-02
RMM:  10    -0.233449621661E+04    0.40698E-04   -0.14555E-04  3194   0.788E-03    0.200E-02
RMM:  11    -0.233449621247E+04    0.41322E-05   -0.42468E-05  3118   0.535E-03
  11 F= -.23559567E+04 E0= -.23559540E+04  d E =-.169218E+00  mag=     4.9441
       N       E                     dE             d eps       ncg     rms          rms(c)
DAV:   1    -0.233449526829E+04    0.94832E-03   -0.19519E+00  4720   0.112E+00    0.460E-01
RMM:   2    -0.233453457467E+04   -0.39306E-01   -0.41043E-01  6607   0.293E-01    0.312E-01
RMM:   3    -0.233453788585E+04   -0.33112E-02   -0.41074E-02  6224   0.112E-01    0.285E-01
RMM:   4    -0.233453720006E+04    0.68578E-03   -0.44590E-03  5187   0.260E-02    0.142E-01
RMM:   5    -0.233453710623E+04    0.93830E-04   -0.46040E-04  3240   0.107E-02    0.121E-01
RMM:   6    -0.233453701167E+04    0.94568E-04   -0.25831E-04  3399   0.907E-03    0.832E-02
RMM:   7    -0.233453696215E+04    0.49513E-04   -0.20410E-04  3964   0.937E-03    0.284E-02
RMM:   8    -0.233453695912E+04    0.30330E-05   -0.28172E-05  2974   0.523E-03
  12 F= -.23559982E+04 E0= -.23559943E+04  d E =-.415610E-01  mag=     4.9128
       N       E                     dE             d eps       ncg     rms          rms(c)
DAV:   1    -0.233425247395E+04    0.28449E+00   -0.17510E+01  4520   0.335E+00    0.142E+00
RMM:   2    -0.233461341594E+04   -0.36094E+00   -0.37477E+00  6604   0.900E-01    0.104E+00
RMM:   3    -0.233464272681E+04   -0.29311E-01   -0.38481E-01  6376   0.332E-01    0.100E+00
RMM:   4    -0.233463516800E+04    0.75588E-02   -0.41083E-02  6303   0.788E-02    0.566E-01
RMM:   5    -0.233463534878E+04   -0.18078E-03   -0.47603E-03  5313   0.292E-02    0.817E-01
RMM:   6    -0.233463584115E+04   -0.49237E-03   -0.11657E-03  3357   0.120E-02    0.763E-01
RMM:   7    -0.233463302943E+04    0.28117E-02   -0.25399E-03  4668   0.213E-02    0.351E-01
RMM:   8    -0.233463175900E+04    0.12704E-02   -0.50939E-03  5216   0.363E-02    0.362E-01
RMM:   9    -0.233463121519E+04    0.54382E-03   -0.16137E-03  4815   0.228E-02    0.296E-01
RMM:  10    -0.233463052165E+04    0.69354E-03   -0.83806E-04  4736   0.143E-02    0.287E-01
RMM:  11    -0.233462987426E+04    0.64739E-03   -0.41697E-04  3936   0.113E-02    0.289E-01
RMM:  12    -0.233462970050E+04    0.17375E-03   -0.65384E-05  3047   0.539E-03    0.305E-01
RMM:  13    -0.233463115764E+04   -0.14571E-02   -0.14608E-03  4495   0.171E-02    0.310E-01
RMM:  14    -0.233463191095E+04   -0.75330E-03   -0.10749E-03  4289   0.158E-02    0.339E-01
RMM:  15    -0.233463125847E+04    0.65248E-03   -0.26478E-04  3548   0.818E-03    0.246E-01
RMM:  16    -0.233463013549E+04    0.11230E-02   -0.13980E-03  4801   0.168E-02    0.275E-01
RMM:  17    -0.233462882049E+04    0.13150E-02   -0.12201E-03  4402   0.165E-02    0.370E-01
RMM:  18    -0.233462850243E+04    0.31807E-03   -0.19538E-04  3229   0.676E-03    0.400E-01
RMM:  19    -0.233462944749E+04   -0.94506E-03   -0.29399E-04  3381   0.844E-03    0.339E-01
RMM:  20    -0.233463180885E+04   -0.23614E-02   -0.37008E-03  4928   0.261E-02    0.352E-01
RMM:  21    -0.233463285057E+04   -0.10417E-02   -0.14681E-03  4323   0.185E-02    0.424E-01
RMM:  22    -0.233463224746E+04    0.60311E-03   -0.11926E-04  3063   0.616E-03    0.313E-01
RMM:  23    -0.233463045397E+04    0.17935E-02   -0.26624E-03  4961   0.216E-02    0.241E-01
RMM:  24    -0.233462913168E+04    0.13223E-02   -0.13660E-03  4348   0.180E-02    0.342E-01
RMM:  25    -0.233462814405E+04    0.98762E-03   -0.76697E-04  4471   0.115E-02    0.428E-01
RMM:  26    -0.233462575596E+04    0.23881E-02   -0.11975E-03  4653   0.158E-02    0.623E-01
RMM:  27    -0.233462626674E+04   -0.51077E-03   -0.51286E-05  2983   0.562E-03    0.584E-01
RMM:  28    -0.233462645787E+04   -0.19113E-03   -0.13030E-05  2745   0.254E-03    0.566E-01
RMM:  29    -0.233462721745E+04   -0.75958E-03   -0.10925E-04  3043   0.474E-03    0.500E-01
RMM:  30    -0.233462813273E+04   -0.91528E-03   -0.26232E-04  3528   0.697E-03    0.415E-01
RMM:  31    -0.233462908312E+04   -0.95039E-03   -0.44018E-04  3777   0.901E-03    0.327E-01
RMM:  32    -0.233463035784E+04   -0.12747E-02   -0.11540E-03  4667   0.145E-02    0.251E-01
RMM:  33    -0.233463112113E+04   -0.76329E-03   -0.77143E-04  4165   0.127E-02    0.247E-01
RMM:  34    -0.233463160227E+04   -0.48115E-03   -0.35173E-04  3666   0.846E-03    0.265E-01
RMM:  35    -0.233463192637E+04   -0.32410E-03   -0.12949E-04  3145   0.627E-03    0.283E-01
RMM:  36    -0.233463205092E+04   -0.12454E-03   -0.32582E-05  2957   0.417E-03    0.286E-01
RMM:  37    -0.233463203064E+04    0.20274E-04   -0.41917E-06  2684   0.241E-03    0.281E-01
RMM:  38    -0.233463204316E+04   -0.12519E-04   -0.14539E-06  2441   0.145E-03    0.284E-01
RMM:  39    -0.233463193565E+04    0.10752E-03   -0.58621E-06  2433   0.162E-03    0.272E-01
RMM:  40    -0.233463194028E+04   -0.46315E-05   -0.48638E-07  1832   0.864E-04
  13 F= -.23560958E+04 E0= -.23560869E+04  d E =-.139126E+00  mag=     4.8433
       N       E                     dE             d eps       ncg     rms          rms(c)
DAV:   1    -0.233313676924E+04    0.14952E+01   -0.69570E+01  4520   0.671E+00    0.324E+00
RMM:   2    -0.233472551608E+04   -0.15887E+01   -0.15673E+01  6626   0.189E+00    0.340E+00
RMM:   3    -0.233478878404E+04   -0.63268E-01   -0.16425E+00  6275   0.710E-01    0.336E+00
RMM:   4    -0.233475692987E+04    0.31854E-01   -0.17333E-01  5816   0.156E-01    0.239E+00
RMM:   5    -0.233477410984E+04   -0.17180E-01   -0.37195E-02  5356   0.853E-02    0.224E+00
RMM:   6    -0.233476929962E+04    0.48102E-02   -0.81710E-02  5239   0.136E-01    0.158E+00
RMM:   7    -0.233478028995E+04   -0.10990E-01   -0.44852E-02  5533   0.108E-01    0.142E+00
RMM:   8    -0.233476849782E+04    0.11792E-01   -0.23343E-02  6087   0.699E-02    0.645E-01
RMM:   9    -0.233477714468E+04   -0.86469E-02   -0.11369E-02  4812   0.566E-02    0.395E-01
RMM:  10    -0.233479648730E+04   -0.19343E-01   -0.96614E-03  4607   0.538E-02    0.245E-01
RMM:  11    -0.233480584955E+04   -0.93623E-02   -0.41685E-03  4791   0.398E-02    0.140E-01
RMM:  12    -0.233481215605E+04   -0.63065E-02   -0.13607E-03  4563   0.253E-02    0.103E-01
RMM:  13    -0.233481726899E+04   -0.51129E-02   -0.11234E-03  4394   0.235E-02    0.627E-02
RMM:  14    -0.233481987058E+04   -0.26016E-02   -0.54186E-04  4300   0.179E-02    0.406E-02
RMM:  15    -0.233482136257E+04   -0.14920E-02   -0.28280E-04  4132   0.123E-02    0.219E-02
RMM:  16    -0.233482216789E+04   -0.80532E-03   -0.15432E-04  3866   0.951E-03    0.125E-02
RMM:  17    -0.233482234212E+04   -0.17423E-03   -0.36024E-05  3342   0.571E-03    0.572E-03
RMM:  18    -0.233482240818E+04   -0.66056E-04   -0.12969E-05  2953   0.368E-03    0.274E-03
RMM:  19    -0.233482242953E+04   -0.21355E-04   -0.57265E-06  2824   0.302E-03    0.140E-03
RMM:  20    -0.233482243496E+04   -0.54267E-05   -0.27343E-06  2521   0.205E-03
  14 F= -.23562919E+04 E0= -.23562919E+04  d E =-.335264E+00  mag=     3.0006
       N       E                     dE             d eps       ncg     rms          rms(c)
DAV:   1    -0.233456036961E+04    0.26206E+00   -0.14865E+01  4520   0.305E+00    0.130E+00
RMM:   2    -0.233489896620E+04   -0.33860E+00   -0.34303E+00  6601   0.845E-01    0.124E+00
RMM:   3    -0.233491550226E+04   -0.16536E-01   -0.35451E-01  6393   0.315E-01    0.959E-01
RMM:   4    -0.233490609941E+04    0.94028E-02   -0.35063E-02  6214   0.730E-02    0.419E-01
RMM:   5    -0.233490571305E+04    0.38636E-03   -0.51980E-03  5588   0.299E-02    0.369E-01
RMM:   6    -0.233490437252E+04    0.13405E-02   -0.27700E-03  5459   0.268E-02    0.188E-01
RMM:   7    -0.233490441173E+04   -0.39209E-04   -0.16445E-03  5276   0.219E-02    0.169E-01
RMM:   8    -0.233490411140E+04    0.30033E-03   -0.40059E-04  3615   0.117E-02    0.537E-02
RMM:   9    -0.233490406618E+04    0.45226E-04   -0.86939E-05  3138   0.613E-03    0.294E-02
RMM:  10    -0.233490405797E+04    0.82027E-05   -0.38819E-05  2926   0.506E-03
  15 F= -.23563758E+04 E0= -.23563758E+04  d E =-.839058E-01  mag=     3.0001
       N       E                     dE             d eps       ncg     rms          rms(c)
DAV:   1    -0.233422917035E+04    0.67490E+00   -0.30625E+01  4520   0.443E+00    0.190E+00
RMM:   2    -0.233495691421E+04   -0.72774E+00   -0.72695E+00  6603   0.126E+00    0.204E+00
RMM:   3    -0.233497004393E+04   -0.13130E-01   -0.75191E-01  6372   0.463E-01    0.132E+00
RMM:   4    -0.233495399207E+04    0.16052E-01   -0.73735E-02  6229   0.105E-01    0.618E-01
RMM:   5    -0.233495310242E+04    0.88965E-03   -0.11304E-02  5876   0.445E-02    0.531E-01
RMM:   6    -0.233495020531E+04    0.28971E-02   -0.53806E-03  5608   0.380E-02    0.272E-01
RMM:   7    -0.233495068572E+04   -0.48040E-03   -0.39304E-03  5577   0.334E-02    0.303E-01
RMM:   8    -0.233494961828E+04    0.10674E-02   -0.10498E-03  4961   0.173E-02    0.649E-02
RMM:   9    -0.233494954727E+04    0.71012E-04   -0.18241E-04  3254   0.796E-03    0.355E-02
RMM:  10    -0.233494953798E+04    0.92852E-05   -0.77830E-05  3035   0.637E-03
  16 F= -.23564247E+04 E0= -.23564247E+04  d E =-.132765E+00  mag=     3.0000
       N       E                     dE             d eps       ncg     rms          rms(c)
DAV:   1    -0.233491246832E+04    0.37079E-01   -0.47071E+00  4592   0.173E+00    0.780E-01
RMM:   2    -0.233503158749E+04   -0.11912E+00   -0.11399E+00  6564   0.468E-01    0.105E+00
RMM:   3    -0.233502854716E+04    0.30403E-02   -0.12114E-01  6308   0.175E-01    0.473E-01
RMM:   4    -0.233502649906E+04    0.20481E-02   -0.11518E-02  5822   0.394E-02    0.211E-01
RMM:   5    -0.233502649157E+04    0.74909E-05   -0.14854E-03  5244   0.195E-02    0.225E-01
RMM:   6    -0.233502596449E+04    0.52708E-03   -0.12731E-03  5359   0.180E-02    0.965E-02
RMM:   7    -0.233502589107E+04    0.73415E-04   -0.27224E-04  3696   0.102E-02    0.249E-02
RMM:   8    -0.233502589030E+04    0.77784E-06   -0.31468E-05  2966   0.525E-03
  17 F= -.23565017E+04 E0= -.23565017E+04  d E =-.770204E-01  mag=     3.0000
       N       E                     dE             d eps       ncg     rms          rms(c)
DAV:   1    -0.233407606912E+04    0.94982E+00   -0.42245E+01  4512   0.520E+00    0.243E+00
RMM:   2    -0.233525861275E+04   -0.11825E+01   -0.10871E+01  6563   0.142E+00    0.390E+00
RMM:   3    -0.233513471358E+04    0.12390E+00   -0.11624E+00  6259   0.562E-01    0.116E+00
RMM:   4    -0.233512937690E+04    0.53367E-02   -0.11305E-01  6155   0.120E-01    0.722E-01
RMM:   5    -0.233512862046E+04    0.75644E-03   -0.14739E-02  6016   0.548E-02    0.711E-01
RMM:   6    -0.233512367581E+04    0.49446E-02   -0.98323E-03  5786   0.508E-02    0.395E-01
RMM:   7    -0.233512394045E+04   -0.26464E-03   -0.57867E-03  5714   0.390E-02    0.353E-01
RMM:   8    -0.233512239853E+04    0.15419E-02   -0.19493E-03  5463   0.215E-02    0.100E-01
RMM:   9    -0.233512228928E+04    0.10925E-03   -0.21112E-04  3128   0.877E-03    0.432E-02
RMM:  10    -0.233512229753E+04   -0.82566E-05   -0.11710E-04  3251   0.677E-03    0.169E-02
RMM:  11    -0.233512231047E+04   -0.12934E-04   -0.34524E-05  2974   0.516E-03    0.783E-03
RMM:  12    -0.233512232019E+04   -0.97229E-05   -0.11418E-05  2931   0.370E-03
  18 F= -.23566005E+04 E0= -.23566005E+04  d E =-.175804E+00  mag=     3.0000
       N       E                     dE             d eps       ncg     rms          rms(c)
DAV:   1    -0.233506535524E+04    0.56955E-01   -0.55459E+00  4528   0.202E+00    0.839E-01
RMM:   2    -0.233519155308E+04   -0.12620E+00   -0.12207E+00  6454   0.515E-01    0.103E+00
RMM:   3    -0.233519028408E+04    0.12690E-02   -0.12733E-01  6261   0.196E-01    0.536E-01
RMM:   4    -0.233518760046E+04    0.26836E-02   -0.12711E-02  5971   0.448E-02    0.233E-01
RMM:   5    -0.233518750606E+04    0.94398E-04   -0.18252E-03  5376   0.214E-02    0.236E-01
RMM:   6    -0.233518681842E+04    0.68765E-03   -0.13493E-03  5439   0.202E-02    0.930E-02
RMM:   7    -0.233518687729E+04   -0.58873E-04   -0.48493E-04  4531   0.137E-02    0.950E-02
RMM:   8    -0.233518676082E+04    0.11648E-03   -0.13883E-04  3118   0.710E-03    0.302E-02
RMM:   9    -0.233518674736E+04    0.13454E-04   -0.23033E-05  2936   0.445E-03    0.130E-02
RMM:  10    -0.233518674428E+04    0.30800E-05   -0.17693E-05  2932   0.316E-03
  19 F= -.23566660E+04 E0= -.23566660E+04  d E =-.654709E-01  mag=     3.0000
       N       E                     dE             d eps       ncg     rms          rms(c)
DAV:   1    -0.233478004736E+04    0.40670E+00   -0.20657E+01  4520   0.391E+00    0.164E+00
RMM:   2    -0.233526585346E+04   -0.48581E+00   -0.46311E+00  6454   0.101E+00    0.217E+00
RMM:   3    -0.233524661752E+04    0.19236E-01   -0.49542E-01  6267   0.391E-01    0.955E-01
RMM:   4    -0.233523923599E+04    0.73815E-02   -0.48643E-02  6138   0.865E-02    0.465E-01
RMM:   5    -0.233523867459E+04    0.56140E-03   -0.68777E-03  5962   0.398E-02    0.459E-01
RMM:   6    -0.233523622003E+04    0.24546E-02   -0.47886E-03  5564   0.375E-02    0.210E-01
RMM:   7    -0.233523652271E+04   -0.30268E-03   -0.23544E-03  5390   0.280E-02    0.224E-01
RMM:   8    -0.233523585402E+04    0.66869E-03   -0.71742E-04  4788   0.139E-02    0.593E-02
RMM:   9    -0.233523579802E+04    0.55993E-04   -0.92109E-05  2986   0.712E-03    0.268E-02
RMM:  10    -0.233523578014E+04    0.17884E-04   -0.66142E-05  3219   0.560E-03    0.116E-02
RMM:  11    -0.233523577742E+04    0.27190E-05   -0.16506E-05  2948   0.451E-03
  20 F= -.23567172E+04 E0= -.23567172E+04  d E =-.116665E+00  mag=     3.0000
       N       E                     dE             d eps       ncg     rms          rms(c)
DAV:   1    -0.233523857359E+04   -0.27935E-02   -0.24466E+00  4624   0.146E+00    0.554E-01
RMM:   2    -0.233527386828E+04   -0.35295E-01   -0.38001E-01  6200   0.333E-01    0.331E-01
RMM:   3    -0.233527756734E+04   -0.36991E-02   -0.43173E-02  5961   0.139E-01    0.414E-01
RMM:   4    -0.233527585652E+04    0.17108E-02   -0.44672E-03  5879   0.327E-02    0.168E-01
RMM:   5    -0.233527581517E+04    0.41350E-04   -0.13182E-03  5336   0.212E-02    0.160E-01
RMM:   6    -0.233527551048E+04    0.30468E-03   -0.77540E-04  5203   0.159E-02    0.762E-02
RMM:   7    -0.233527542802E+04    0.82461E-04   -0.11330E-04  3580   0.860E-03    0.201E-02
RMM:   8    -0.233527542870E+04   -0.67400E-06   -0.32442E-05  2976   0.530E-03
  21 F= -.23567568E+04 E0= -.23567568E+04  d E =-.396033E-01  mag=     3.0000
       N       E                     dE             d eps       ncg     rms          rms(c)
DAV:   1    -0.233523666947E+04    0.38759E-01   -0.37071E+00  4524   0.180E+00    0.684E-01
RMM:   2    -0.233529024620E+04   -0.53577E-01   -0.57689E-01  6214   0.411E-01    0.416E-01
RMM:   3    -0.233529601597E+04   -0.57698E-02   -0.66060E-02  5973   0.171E-01    0.534E-01
RMM:   4    -0.233529312348E+04    0.28925E-02   -0.68474E-03  6086   0.406E-02    0.206E-01
RMM:   5    -0.233529299456E+04    0.12892E-03   -0.20205E-03  5469   0.259E-02    0.190E-01
RMM:   6    -0.233529259443E+04    0.40013E-03   -0.11867E-03  5460   0.191E-02    0.102E-01
RMM:   7    -0.233529244195E+04    0.15248E-03   -0.18678E-04  4139   0.101E-02    0.267E-02
RMM:   8    -0.233529244456E+04   -0.26101E-05   -0.59095E-05  3018   0.631E-03
  22 F= -.23567737E+04 E0= -.23567737E+04  d E =-.565659E-01  mag=     3.0000
       N       E                     dE             d eps       ncg     rms          rms(c)
DAV:   1    -0.233527251450E+04    0.19927E-01   -0.33781E+00  4528   0.159E+00    0.556E-01
RMM:   2    -0.233532537943E+04   -0.52865E-01   -0.57130E-01  6393   0.367E-01    0.327E-01
RMM:   3    -0.233533136256E+04   -0.59831E-02   -0.70949E-02  6089   0.155E-01    0.365E-01
RMM:   4    -0.233533035552E+04    0.10070E-02   -0.62830E-03  5842   0.340E-02    0.205E-01
RMM:   5    -0.233532990153E+04    0.45399E-03   -0.14559E-03  5151   0.202E-02    0.140E-01
RMM:   6    -0.233532990075E+04    0.78291E-06   -0.85041E-04  4544   0.163E-02    0.134E-01
RMM:   7    -0.233532969370E+04    0.20705E-03   -0.22847E-04  3822   0.871E-03    0.347E-02
RMM:   8    -0.233532968902E+04    0.46791E-05   -0.62964E-05  3011   0.638E-03
  23 F= -.23568107E+04 E0= -.23568107E+04  d E =-.369702E-01  mag=     3.0000
       N       E                     dE             d eps       ncg     rms          rms(c)
DAV:   1    -0.233523887754E+04    0.90816E-01   -0.64987E+00  4524   0.221E+00    0.772E-01
RMM:   2    -0.233534001794E+04   -0.10114E+00   -0.10957E+00  6414   0.512E-01    0.445E-01
RMM:   3    -0.233535146542E+04   -0.11447E-01   -0.13710E-01  6088   0.214E-01    0.495E-01
RMM:   4    -0.233534988599E+04    0.15794E-02   -0.12202E-02  6190   0.469E-02    0.297E-01
RMM:   5    -0.233534877687E+04    0.11091E-02   -0.27608E-03  5357   0.274E-02    0.169E-01
RMM:   6    -0.233534891632E+04   -0.13945E-03   -0.15794E-03  5097   0.223E-02    0.202E-01
RMM:   7    -0.233534842286E+04    0.49346E-03   -0.52775E-04  4621   0.119E-02    0.494E-02
RMM:   8    -0.233534837083E+04    0.52023E-04   -0.70853E-05  3214   0.659E-03    0.258E-02
RMM:   9    -0.233534835682E+04    0.14015E-04   -0.51298E-05  3085   0.573E-03    0.108E-02
RMM:  10    -0.233534835985E+04   -0.30336E-05   -0.17295E-05  2990   0.458E-03
  24 F= -.23568290E+04 E0= -.23568290E+04  d E =-.552649E-01  mag=     3.0000
       N       E                     dE             d eps       ncg     rms          rms(c)
DAV:   1    -0.233530471073E+04    0.43646E-01   -0.43929E+00  4524   0.185E+00    0.662E-01
RMM:   2    -0.233537834814E+04   -0.73637E-01   -0.75595E-01  6377   0.424E-01    0.634E-01
RMM:   3    -0.233538447125E+04   -0.61231E-02   -0.90057E-02  6250   0.175E-01    0.542E-01
RMM:   4    -0.233538116696E+04    0.33043E-02   -0.87730E-03  6012   0.419E-02    0.213E-01
RMM:   5    -0.233538117139E+04   -0.44272E-05   -0.17642E-03  5531   0.218E-02    0.230E-01
RMM:   6    -0.233538062272E+04    0.54867E-03   -0.12622E-03  5114   0.185E-02    0.118E-01
RMM:   7    -0.233538049222E+04    0.13050E-03   -0.35909E-04  4484   0.120E-02    0.508E-02
RMM:   8    -0.233538048126E+04    0.10954E-04   -0.11332E-04  3009   0.771E-03    0.446E-02
RMM:   9    -0.233538045694E+04    0.24321E-04   -0.28689E-05  2951   0.465E-03    0.154E-02
RMM:  10    -0.233538045488E+04    0.20605E-05   -0.15629E-05  2927   0.339E-03
  25 F= -.23568614E+04 E0= -.23568614E+04  d E =-.323986E-01  mag=     3.0000
       N       E                     dE             d eps       ncg     rms          rms(c)
DAV:   1    -0.233533386772E+04    0.46589E-01   -0.32394E+00  4584   0.159E+00    0.566E-01
RMM:   2    -0.233538781028E+04   -0.53943E-01   -0.55522E-01  6370   0.364E-01    0.536E-01
RMM:   3    -0.233539245329E+04   -0.46430E-02   -0.65735E-02  6238   0.150E-01    0.469E-01
RMM:   4    -0.233538997650E+04    0.24768E-02   -0.64279E-03  5928   0.359E-02    0.183E-01
RMM:   5    -0.233538994840E+04    0.28103E-04   -0.13114E-03  5347   0.191E-02    0.192E-01
RMM:   6    -0.233538957080E+04    0.37760E-03   -0.91710E-04  4879   0.161E-02    0.104E-01
RMM:   7    -0.233538946568E+04    0.10512E-03   -0.27029E-04  4225   0.106E-02    0.472E-02
RMM:   8    -0.233538944980E+04    0.15884E-04   -0.88414E-05  2980   0.719E-03    0.368E-02
RMM:   9    -0.233538943115E+04    0.18647E-04   -0.20538E-05  2936   0.422E-03    0.130E-02
RMM:  10    -0.233538942752E+04    0.36267E-05   -0.13211E-05  2926   0.320E-03
  26 F= -.23568706E+04 E0= -.23568706E+04  d E =-.416168E-01  mag=     2.9999
       N       E                     dE             d eps       ncg     rms          rms(c)
DAV:   1    -0.233535337148E+04    0.36060E-01   -0.33908E+00  4540   0.157E+00    0.568E-01
RMM:   2    -0.233541804822E+04   -0.64677E-01   -0.67388E-01  6583   0.384E-01    0.478E-01
RMM:   3    -0.233542467228E+04   -0.66241E-02   -0.76082E-02  6339   0.149E-01    0.466E-01
RMM:   4    -0.233542234580E+04    0.23265E-02   -0.74867E-03  5908   0.353E-02    0.203E-01
RMM:   5    -0.233542214457E+04    0.20122E-03   -0.12209E-03  5094   0.174E-02    0.171E-01
RMM:   6    -0.233542190454E+04    0.24003E-03   -0.88539E-04  4669   0.150E-02    0.118E-01
RMM:   7    -0.233542178299E+04    0.12155E-03   -0.30275E-04  4067   0.979E-03    0.569E-02
RMM:   8    -0.233542175645E+04    0.26545E-04   -0.10022E-04  2957   0.728E-03    0.378E-02
RMM:   9    -0.233542173987E+04    0.16578E-04   -0.19450E-05  2945   0.382E-03    0.151E-02
RMM:  10    -0.233542173656E+04    0.33099E-05   -0.12413E-05  2922   0.295E-03
  27 F= -.23569031E+04 E0= -.23569031E+04  d E =-.325208E-01  mag=     2.9999
       N       E                     dE             d eps       ncg     rms          rms(c)
DAV:   1    -0.233507454701E+04    0.34719E+00   -0.18834E+01  4520   0.369E+00    0.134E+00
RMM:   2    -0.233543552189E+04   -0.36097E+00   -0.37788E+00  6576   0.904E-01    0.109E+00
RMM:   3    -0.233547546100E+04   -0.39939E-01   -0.45164E-01  6420   0.364E-01    0.111E+00
RMM:   4    -0.233546280210E+04    0.12659E-01   -0.43025E-02  6426   0.850E-02    0.520E-01
RMM:   5    -0.233546162473E+04    0.11774E-02   -0.66848E-03  5973   0.372E-02    0.436E-01
RMM:   6    -0.233545989032E+04    0.17344E-02   -0.50757E-03  5728   0.316E-02    0.287E-01
RMM:   7    -0.233545921412E+04    0.67620E-03   -0.20745E-03  5468   0.227E-02    0.156E-01
RMM:   8    -0.233545903202E+04    0.18210E-03   -0.79128E-04  4437   0.149E-02    0.105E-01
RMM:   9    -0.233545890639E+04    0.12563E-03   -0.16273E-04  3436   0.762E-03    0.419E-02
RMM:  10    -0.233545887923E+04    0.27161E-04   -0.80799E-05  2973   0.641E-03    0.168E-02
RMM:  11    -0.233545887589E+04    0.33332E-05   -0.23742E-05  2973   0.435E-03
  28 F= -.23569408E+04 E0= -.23569407E+04  d E =-.701383E-01  mag=     2.9999
       N       E                     dE             d eps       ncg     rms          rms(c)
DAV:   1    -0.233534651507E+04    0.11236E+00   -0.74672E+00  4520   0.235E+00    0.871E-01
RMM:   2    -0.233548838010E+04   -0.14187E+00   -0.15159E+00  6475   0.586E-01    0.474E-01
RMM:   3    -0.233550180038E+04   -0.13420E-01   -0.18356E-01  5967   0.247E-01    0.399E-01
RMM:   4    -0.233550271520E+04   -0.91482E-03   -0.16044E-02  6151   0.487E-02    0.410E-01
RMM:   5    -0.233550070679E+04    0.20084E-02   -0.32059E-03  5359   0.258E-02    0.176E-01
RMM:   6    -0.233550081829E+04   -0.11150E-03   -0.17835E-03  5424   0.223E-02    0.200E-01
RMM:   7    -0.233550041405E+04    0.40424E-03   -0.57259E-04  4702   0.131E-02    0.703E-02
RMM:   8    -0.233550036286E+04    0.51189E-04   -0.11711E-04  3149   0.641E-03    0.407E-02
RMM:   9    -0.233550035424E+04    0.86233E-05   -0.57949E-05  2981   0.530E-03
  29 F= -.23569821E+04 E0= -.23569821E+04  d E =-.413781E-01  mag=     2.9999
       N       E                     dE             d eps       ncg     rms          rms(c)
DAV:   1    -0.233546474259E+04    0.35620E-01   -0.20037E+00  4664   0.122E+00    0.449E-01
RMM:   2    -0.233550268355E+04   -0.37941E-01   -0.40529E-01  6461   0.301E-01    0.250E-01
RMM:   3    -0.233550641976E+04   -0.37362E-02   -0.48144E-02  5937   0.127E-01    0.222E-01
RMM:   4    -0.233550647105E+04   -0.51285E-04   -0.43463E-03  5227   0.260E-02    0.201E-01
RMM:   5    -0.233550593831E+04    0.53274E-03   -0.81824E-04  4755   0.155E-02    0.747E-02
RMM:   6    -0.233550600008E+04   -0.61773E-04   -0.39194E-04  4339   0.119E-02    0.103E-01
RMM:   7    -0.233550588880E+04    0.11128E-03   -0.14319E-04  3010   0.741E-03    0.279E-02
RMM:   8    -0.233550588212E+04    0.66796E-05   -0.21685E-05  2976   0.443E-03
  30 F= -.23569876E+04 E0= -.23569876E+04  d E =-.468507E-01  mag=     2.9999
       N       E                     dE             d eps       ncg     rms          rms(c)
DAV:   1    -0.233546351711E+04    0.42372E-01   -0.35595E+00  4544   0.167E+00    0.618E-01
RMM:   2    -0.233552438118E+04   -0.60864E-01   -0.65026E-01  6423   0.391E-01    0.380E-01
RMM:   3    -0.233553165486E+04   -0.72737E-02   -0.75930E-02  6222   0.162E-01    0.464E-01
RMM:   4    -0.233552967474E+04    0.19801E-02   -0.70598E-03  6010   0.369E-02    0.235E-01
RMM:   5    -0.233552927296E+04    0.40178E-03   -0.15608E-03  5494   0.202E-02    0.172E-01
RMM:   6    -0.233552914165E+04    0.13131E-03   -0.11866E-03  5076   0.175E-02    0.141E-01
RMM:   7    -0.233552896400E+04    0.17765E-03   -0.35019E-04  4437   0.112E-02    0.593E-02
RMM:   8    -0.233552892780E+04    0.36200E-04   -0.10471E-04  2987   0.700E-03    0.360E-02
RMM:   9    -0.233552890417E+04    0.23625E-04   -0.26447E-05  2983   0.422E-03    0.146E-02
RMM:  10    -0.233552889821E+04    0.59626E-05   -0.17434E-05  2947   0.338E-03
  31 F= -.23570109E+04 E0= -.23570109E+04  d E =-.232621E-01  mag=     2.9999
       N       E                     dE             d eps       ncg     rms          rms(c)
DAV:   1    -0.233548633644E+04    0.42568E-01   -0.26634E+00  4560   0.145E+00    0.534E-01
RMM:   2    -0.233553193144E+04   -0.45595E-01   -0.48608E-01  6443   0.339E-01    0.339E-01
RMM:   3    -0.233553738993E+04   -0.54585E-02   -0.56804E-02  6237   0.140E-01    0.412E-01
RMM:   4    -0.233553574840E+04    0.16415E-02   -0.52844E-03  5895   0.322E-02    0.204E-01
RMM:   5    -0.233553550525E+04    0.24316E-03   -0.12135E-03  5319   0.176E-02    0.163E-01
RMM:   6    -0.233553528676E+04    0.21848E-03   -0.93434E-04  5024   0.160E-02    0.105E-01
RMM:   7    -0.233553520954E+04    0.77220E-04   -0.27085E-04  4154   0.103E-02    0.606E-02
RMM:   8    -0.233553516345E+04    0.46094E-04   -0.85667E-05  2948   0.651E-03    0.284E-02
RMM:   9    -0.233553514699E+04    0.16461E-04   -0.18802E-05  2992   0.391E-03    0.121E-02
RMM:  10    -0.233553514191E+04    0.50840E-05   -0.13401E-05  2942   0.318E-03
  32 F= -.23570173E+04 E0= -.23570173E+04  d E =-.297192E-01  mag=     2.9999
       N       E                     dE             d eps       ncg     rms          rms(c)
DAV:   1    -0.233550974218E+04    0.25405E-01   -0.24416E+00  4528   0.137E+00    0.503E-01
RMM:   2    -0.233555422974E+04   -0.44488E-01   -0.45794E-01  6503   0.331E-01    0.480E-01
RMM:   3    -0.233555822099E+04   -0.39913E-02   -0.52050E-02  6316   0.133E-01    0.471E-01
RMM:   4    -0.233555597473E+04    0.22463E-02   -0.51347E-03  5780   0.316E-02    0.196E-01
RMM:   5    -0.233555579864E+04    0.17609E-03   -0.11403E-03  5136   0.160E-02    0.167E-01
RMM:   6    -0.233555549399E+04    0.30465E-03   -0.98912E-04  4954   0.168E-02    0.750E-02
RMM:   7    -0.233555549124E+04    0.27505E-05   -0.27189E-04  4023   0.106E-02    0.645E-02
RMM:   8    -0.233555543956E+04    0.51679E-04   -0.84278E-05  2959   0.608E-03    0.263E-02
RMM:   9    -0.233555542616E+04    0.13395E-04   -0.16379E-05  2964   0.372E-03    0.116E-02
RMM:  10    -0.233555542312E+04    0.30455E-05   -0.12652E-05  2935   0.279E-03
  33 F= -.23570382E+04 E0= -.23570382E+04  d E =-.208978E-01  mag=     2.9999
       N       E                     dE             d eps       ncg     rms          rms(c)
DAV:   1    -0.233549920434E+04    0.56222E-01   -0.34603E+00  4524   0.163E+00    0.600E-01
RMM:   2    -0.233556219844E+04   -0.62994E-01   -0.64890E-01  6495   0.395E-01    0.576E-01
RMM:   3    -0.233556802244E+04   -0.58240E-02   -0.74353E-02  6337   0.158E-01    0.574E-01
RMM:   4    -0.233556471946E+04    0.33030E-02   -0.73500E-03  5931   0.377E-02    0.235E-01
RMM:   5    -0.233556444286E+04    0.27660E-03   -0.16083E-03  5399   0.188E-02    0.197E-01
RMM:   6    -0.233556401781E+04    0.42505E-03   -0.13888E-03  5197   0.198E-02    0.916E-02
RMM:   7    -0.233556402409E+04   -0.62859E-05   -0.41722E-04  4530   0.123E-02    0.842E-02
RMM:   8    -0.233556393220E+04    0.91896E-04   -0.12773E-04  3004   0.686E-03    0.302E-02
RMM:   9    -0.233556391308E+04    0.19116E-04   -0.24560E-05  2984   0.419E-03    0.138E-02
RMM:  10    -0.233556390900E+04    0.40805E-05   -0.17893E-05  2942   0.328E-03
  34 F= -.23570475E+04 E0= -.23570475E+04  d E =-.301411E-01  mag=     2.9999
       N       E                     dE             d eps       ncg     rms          rms(c)
DAV:   1    -0.233555694512E+04    0.69680E-02   -0.96774E-01  4592   0.935E-01    0.338E-01
RMM:   2    -0.233557361253E+04   -0.16667E-01   -0.17244E-01  6362   0.221E-01    0.314E-01
RMM:   3    -0.233557509313E+04   -0.14806E-02   -0.20870E-02  6071   0.910E-02    0.302E-01
RMM:   4    -0.233557409376E+04    0.99937E-03   -0.18268E-03  5286   0.217E-02    0.123E-01
RMM:   5    -0.233557413703E+04   -0.43275E-04   -0.60602E-04  4481   0.132E-02    0.127E-01
RMM:   6    -0.233557394582E+04    0.19122E-03   -0.41130E-04  4685   0.115E-02    0.594E-02
RMM:   7    -0.233557395123E+04   -0.54150E-05   -0.15105E-04  3139   0.854E-03    0.566E-02
RMM:   8    -0.233557390839E+04    0.42846E-04   -0.41797E-05  2937   0.550E-03    0.117E-02
RMM:   9    -0.233557390516E+04    0.32207E-05   -0.10302E-05  2941   0.306E-03
  35 F= -.23570578E+04 E0= -.23570578E+04  d E =-.103305E-01  mag=     2.9999
       N       E                     dE             d eps       ncg     rms          rms(c)
DAV:   1    -0.233556101631E+04    0.12892E-01   -0.89577E-01  4576   0.901E-01    0.325E-01
RMM:   2    -0.233557647630E+04   -0.15460E-01   -0.15989E-01  6342   0.214E-01    0.304E-01
RMM:   3    -0.233557782495E+04   -0.13486E-02   -0.19279E-02  6078   0.874E-02    0.292E-01
RMM:   4    -0.233557690500E+04    0.91994E-03   -0.17016E-03  5218   0.210E-02    0.121E-01
RMM:   5    -0.233557694035E+04   -0.35346E-04   -0.56179E-04  4351   0.128E-02    0.124E-01
RMM:   6    -0.233557675919E+04    0.18116E-03   -0.39268E-04  4635   0.113E-02    0.592E-02
RMM:   7    -0.233557676196E+04   -0.27693E-05   -0.15098E-04  3129   0.858E-03    0.551E-02
RMM:   8    -0.233557672093E+04    0.41033E-04   -0.41378E-05  2933   0.551E-03    0.119E-02
RMM:   9    -0.233557671749E+04    0.34374E-05   -0.10874E-05  2942   0.318E-03
  36 F= -.23570609E+04 E0= -.23570609E+04  d E =-.134690E-01  mag=     2.9999
       N       E                     dE             d eps       ncg     rms          rms(c)
DAV:   1    -0.233556186285E+04    0.14858E-01   -0.13674E+00  4524   0.112E+00    0.402E-01
RMM:   2    -0.233558477465E+04   -0.22912E-01   -0.23887E-01  6400   0.256E-01    0.345E-01
RMM:   3    -0.233558692830E+04   -0.21537E-02   -0.29470E-02  6086   0.106E-01    0.326E-01
RMM:   4    -0.233558569625E+04    0.12321E-02   -0.24632E-03  5450   0.243E-02    0.138E-01
RMM:   5    -0.233558577005E+04   -0.73800E-04   -0.77986E-04  4763   0.148E-02    0.154E-01
RMM:   6    -0.233558552353E+04    0.24652E-03   -0.44746E-04  4704   0.115E-02    0.728E-02
RMM:   7    -0.233558548666E+04    0.36875E-04   -0.11223E-04  3587   0.803E-03    0.227E-02
RMM:   8    -0.233558548068E+04    0.59801E-05   -0.19655E-05  2954   0.513E-03
  37 F= -.23570702E+04 E0= -.23570702E+04  d E =-.924345E-02  mag=     2.9999
       N       E                     dE             d eps       ncg     rms          rms(c)
DAV:   1    -0.233556647505E+04    0.19012E-01   -0.12327E+00  4592   0.106E+00    0.383E-01
RMM:   2    -0.233558729348E+04   -0.20818E-01   -0.21599E-01  6400   0.245E-01    0.339E-01
RMM:   3    -0.233558912757E+04   -0.18341E-02   -0.26586E-02  6056   0.101E-01    0.313E-01
RMM:   4    -0.233558799024E+04    0.11373E-02   -0.22469E-03  5346   0.233E-02    0.137E-01
RMM:   5    -0.233558806920E+04   -0.78956E-04   -0.69776E-04  4520   0.138E-02    0.151E-01
RMM:   6    -0.233558781670E+04    0.25250E-03   -0.43865E-04  4743   0.115E-02    0.659E-02
RMM:   7    -0.233558780120E+04    0.15493E-04   -0.13063E-04  3546   0.846E-03    0.387E-02
RMM:   8    -0.233558778600E+04    0.15207E-04   -0.39337E-05  2932   0.550E-03    0.195E-02
RMM:   9    -0.233558777980E+04    0.61998E-05   -0.11216E-05  2952   0.311E-03
  38 F= -.23570729E+04 E0= -.23570729E+04  d E =-.119986E-01  mag=     2.9999
       N       E                     dE             d eps       ncg     rms          rms(c)
DAV:   1    -0.233556743864E+04    0.20347E-01   -0.14877E+00  4528   0.110E+00    0.387E-01
RMM:   2    -0.233559526774E+04   -0.27829E-01   -0.28783E-01  6490   0.253E-01    0.355E-01
RMM:   3    -0.233559752113E+04   -0.22534E-02   -0.33313E-02  6094   0.103E-01    0.291E-01
RMM:   4    -0.233559666913E+04    0.85200E-03   -0.30553E-03  5251   0.233E-02    0.140E-01
RMM:   5    -0.233559663744E+04    0.31688E-04   -0.56468E-04  3846   0.127E-02    0.128E-01
RMM:   6    -0.233559648367E+04    0.15377E-03   -0.44736E-04  4614   0.118E-02    0.949E-02
RMM:   7    -0.233559646166E+04    0.22015E-04   -0.25613E-04  3353   0.942E-03    0.612E-02
RMM:   8    -0.233559640562E+04    0.56033E-04   -0.63298E-05  2963   0.641E-03    0.176E-02
RMM:   9    -0.233559639973E+04    0.58912E-05   -0.95220E-06  2939   0.345E-03
  39 F= -.23570826E+04 E0= -.23570826E+04  d E =-.965738E-02  mag=     2.9999
       N       E                     dE             d eps       ncg     rms          rms(c)
DAV:   1    -0.233552146441E+04    0.74941E-01   -0.40159E+00  4520   0.181E+00    0.637E-01
RMM:   2    -0.233559702249E+04   -0.75558E-01   -0.77914E-01  6488   0.417E-01    0.612E-01
RMM:   3    -0.233560278229E+04   -0.57598E-02   -0.90102E-02  6213   0.169E-01    0.488E-01
RMM:   4    -0.233560043162E+04    0.23507E-02   -0.82238E-03  5812   0.383E-02    0.238E-01
RMM:   5    -0.233560029152E+04    0.14011E-03   -0.15532E-03  5026   0.198E-02    0.207E-01
RMM:   6    -0.233559989606E+04    0.39546E-03   -0.11993E-03  5341   0.180E-02    0.156E-01
RMM:   7    -0.233559982335E+04    0.72707E-04   -0.72832E-04  4563   0.146E-02    0.101E-01
RMM:   8    -0.233559967178E+04    0.15157E-03   -0.16816E-04  3292   0.808E-03    0.284E-02
RMM:   9    -0.233559965610E+04    0.15688E-04   -0.22794E-05  2987   0.480E-03    0.162E-02
RMM:  10    -0.233559965114E+04    0.49609E-05   -0.25454E-05  2914   0.363E-03
  40 F= -.23570875E+04 E0= -.23570875E+04  d E =-.145889E-01  mag=     2.9999
       N       E                     dE             d eps       ncg     rms          rms(c)
DAV:   1    -0.233559031879E+04    0.93373E-02   -0.73651E-01  4624   0.742E-01    0.262E-01
RMM:   2    -0.233560466928E+04   -0.14350E-01   -0.14786E-01  6572   0.174E-01    0.255E-01
RMM:   3    -0.233560575737E+04   -0.10881E-02   -0.17138E-02  5744   0.687E-02    0.193E-01
RMM:   4    -0.233560542372E+04    0.33365E-03   -0.16079E-03  3647   0.154E-02    0.100E-01
RMM:   5    -0.233560538264E+04    0.41081E-04   -0.21077E-04  3067   0.823E-03    0.834E-02
RMM:   6    -0.233560532007E+04    0.62570E-04   -0.20179E-04  3415   0.818E-03    0.648E-02
RMM:   7    -0.233560530661E+04    0.13463E-04   -0.13898E-04  3070   0.731E-03    0.416E-02
RMM:   8    -0.233560528251E+04    0.24095E-04   -0.35210E-05  2951   0.508E-03    0.113E-02
RMM:   9    -0.233560527997E+04    0.25470E-05   -0.52071E-06  2895   0.286E-03
  41 F= -.23570939E+04 E0= -.23570939E+04  d E =-.637471E-02  mag=     2.9999
       N       E                     dE             d eps       ncg     rms          rms(c)
DAV:   1    -0.233547787485E+04    0.12741E+00   -0.66231E+00  4520   0.222E+00    0.793E-01
RMM:   2    -0.233560896087E+04   -0.13109E+00   -0.13439E+00  6581   0.523E-01    0.832E-01
RMM:   3    -0.233561757109E+04   -0.86102E-02   -0.15643E-01  6318   0.207E-01    0.590E-01
RMM:   4    -0.233561459799E+04    0.29731E-02   -0.14670E-02  5928   0.462E-02    0.318E-01
RMM:   5    -0.233561402078E+04    0.57721E-03   -0.19084E-03  5111   0.203E-02    0.240E-01
RMM:   6    -0.233561356830E+04    0.45248E-03   -0.17956E-03  5318   0.211E-02    0.203E-01
RMM:   7    -0.233561337036E+04    0.19794E-03   -0.12754E-03  4974   0.180E-02    0.125E-01
RMM:   8    -0.233561315891E+04    0.21145E-03   -0.27815E-04  4018   0.957E-03    0.313E-02
RMM:   9    -0.233561313532E+04    0.23593E-04   -0.33487E-05  2999   0.536E-03    0.208E-02
RMM:  10    -0.233561312572E+04    0.96033E-05   -0.37229E-05  2929   0.401E-03
  42 F= -.23571039E+04 E0= -.23571039E+04  d E =-.164076E-01  mag=     2.9999
       N       E                     dE             d eps       ncg     rms          rms(c)
DAV:   1    -0.233560712631E+04    0.60090E-02   -0.29293E-01  4752   0.467E-01    0.164E-01
RMM:   2    -0.233561282255E+04   -0.56962E-02   -0.58590E-02  6559   0.110E-01    0.160E-01
RMM:   3    -0.233561325273E+04   -0.43018E-03   -0.67201E-03  4861   0.429E-02    0.122E-01
RMM:   4    -0.233561311724E+04    0.13549E-03   -0.63683E-04  3122   0.102E-02    0.624E-02
RMM:   5    -0.233561310341E+04    0.13828E-04   -0.82644E-05  2952   0.555E-03    0.537E-02
RMM:   6    -0.233561307703E+04    0.26383E-04   -0.81356E-05  3000   0.536E-03    0.406E-02
RMM:   7    -0.233561307230E+04    0.47259E-05   -0.55489E-05  2959   0.505E-03
  43 F= -.23571043E+04 E0= -.23571043E+04  d E =-.168037E-01  mag=     2.9999
       N       E                     dE             d eps       ncg     rms          rms(c)
DAV:   1    -0.233560762900E+04    0.54480E-02   -0.60546E-01  4528   0.712E-01    0.255E-01
RMM:   2    -0.233561892901E+04   -0.11300E-01   -0.11840E-01  6416   0.173E-01    0.224E-01
RMM:   3    -0.233561994417E+04   -0.10152E-02   -0.13570E-02  5903   0.697E-02    0.227E-01
RMM:   4    -0.233561949151E+04    0.45266E-03   -0.13022E-03  4350   0.166E-02    0.962E-02
RMM:   5    -0.233561948088E+04    0.10624E-04   -0.28739E-04  3418   0.962E-03    0.102E-01
RMM:   6    -0.233561937281E+04    0.10808E-03   -0.22941E-04  3901   0.994E-03    0.458E-02
RMM:   7    -0.233561937072E+04    0.20878E-05   -0.11223E-04  3034   0.756E-03    0.397E-02
RMM:   8    -0.233561934560E+04    0.25123E-04   -0.29120E-05  2936   0.534E-03    0.100E-02
RMM:   9    -0.233561934316E+04    0.24331E-05   -0.55846E-06  2913   0.294E-03
  44 F= -.23571112E+04 E0= -.23571112E+04  d E =-.682834E-02  mag=     2.9999
       N       E                     dE             d eps       ncg     rms          rms(c)
DAV:   1    -0.233559329558E+04    0.26050E-01   -0.15198E+00  4520   0.113E+00    0.404E-01
RMM:   2    -0.233562186334E+04   -0.28568E-01   -0.29679E-01  6356   0.273E-01    0.379E-01
RMM:   3    -0.233562414249E+04   -0.22792E-02   -0.34073E-02  6065   0.112E-01    0.355E-01
RMM:   4    -0.233562302173E+04    0.11208E-02   -0.32894E-03  5615   0.262E-02    0.154E-01
RMM:   5    -0.233562297125E+04    0.50488E-04   -0.71039E-04  4610   0.141E-02    0.159E-01
RMM:   6    -0.233562270085E+04    0.27040E-03   -0.57465E-04  4808   0.139E-02    0.722E-02
RMM:   7    -0.233562269573E+04    0.51212E-05   -0.28123E-04  3504   0.109E-02    0.639E-02
RMM:   8    -0.233562262852E+04    0.67213E-04   -0.68881E-05  2991   0.654E-03    0.151E-02
RMM:   9    -0.233562262215E+04    0.63654E-05   -0.11160E-05  2935   0.424E-03
  45 F= -.23571153E+04 E0= -.23571153E+04  d E =-.109814E-01  mag=     2.9999
       N       E                     dE             d eps       ncg     rms          rms(c)
DAV:   1    -0.233560827410E+04    0.14354E-01   -0.10622E+00  4524   0.930E-01    0.336E-01
RMM:   2    -0.233562805303E+04   -0.19779E-01   -0.20682E-01  6406   0.226E-01    0.282E-01
RMM:   3    -0.233563013005E+04   -0.20770E-02   -0.24404E-02  6017   0.919E-02    0.328E-01
RMM:   4    -0.233562912320E+04    0.10069E-02   -0.22099E-03  5039   0.212E-02    0.111E-01
RMM:   5    -0.233562916742E+04   -0.44214E-04   -0.48179E-04  4016   0.111E-02    0.141E-01
RMM:   6    -0.233562893399E+04    0.23343E-03   -0.38757E-04  4462   0.111E-02    0.402E-02
RMM:   7    -0.233562892531E+04    0.86724E-05   -0.98371E-05  3274   0.738E-03
  46 F= -.23571224E+04 E0= -.23571224E+04  d E =-.713019E-02  mag=     2.9999
       N       E                     dE             d eps       ncg     rms          rms(c)
DAV:   1    -0.233555894994E+04    0.69984E-01   -0.36644E+00  4520   0.173E+00    0.628E-01
RMM:   2    -0.233562755684E+04   -0.68607E-01   -0.71624E-01  6402   0.421E-01    0.541E-01
RMM:   3    -0.233563431527E+04   -0.67584E-02   -0.85212E-02  6138   0.174E-01    0.591E-01
RMM:   4    -0.233563092129E+04    0.33940E-02   -0.75530E-03  5972   0.395E-02    0.207E-01
RMM:   5    -0.233563109731E+04   -0.17601E-03   -0.16844E-03  5389   0.193E-02    0.262E-01
RMM:   6    -0.233563028199E+04    0.81532E-03   -0.12594E-03  5420   0.185E-02    0.746E-02
RMM:   7    -0.233563023064E+04    0.51351E-04   -0.30975E-04  4496   0.111E-02    0.253E-02
RMM:   8    -0.233563021946E+04    0.11176E-04   -0.26517E-05  2988   0.572E-03    0.158E-02
RMM:   9    -0.233563021416E+04    0.53044E-05   -0.25544E-05  2956   0.411E-03
  47 F= -.23571253E+04 E0= -.23571252E+04  d E =-.994418E-02  mag=     2.9999
       N       E                     dE             d eps       ncg     rms          rms(c)
DAV:   1    -0.233562546937E+04    0.47501E-02   -0.29558E-01  4592   0.491E-01    0.175E-01
RMM:   2    -0.233563087838E+04   -0.54090E-02   -0.57273E-02  6415   0.120E-01    0.127E-01
RMM:   3    -0.233563151266E+04   -0.63428E-03   -0.68353E-03  5402   0.480E-02    0.165E-01
RMM:   4    -0.233563125833E+04    0.25433E-03   -0.59926E-04  3106   0.112E-02    0.583E-02
RMM:   5    -0.233563126824E+04   -0.99077E-05   -0.13745E-04  3068   0.687E-03    0.729E-02
RMM:   6    -0.233563120970E+04    0.58543E-04   -0.11068E-04  3008   0.697E-03    0.236E-02
RMM:   7    -0.233563120564E+04    0.40549E-05   -0.30057E-05  2994   0.522E-03
  48 F= -.23571258E+04 E0= -.23571258E+04  d E =-.105040E-01  mag=     2.9999
       N       E                     dE             d eps       ncg     rms          rms(c)
DAV:   1    -0.233562000538E+04    0.11204E-01   -0.91406E-01  4524   0.818E-01    0.285E-01
RMM:   2    -0.233563600944E+04   -0.16004E-01   -0.16945E-01  6451   0.200E-01    0.183E-01
RMM:   3    -0.233563753056E+04   -0.15211E-02   -0.18663E-02  5917   0.779E-02    0.182E-01
RMM:   4    -0.233563723222E+04    0.29834E-03   -0.17577E-03  3857   0.177E-02    0.103E-01
RMM:   5    -0.233563709382E+04    0.13841E-03   -0.32460E-04  4028   0.113E-02    0.421E-02
RMM:   6    -0.233563709149E+04    0.23262E-05   -0.12695E-04  3399   0.832E-03    0.251E-02
RMM:   7    -0.233563708681E+04    0.46830E-05   -0.30821E-05  2952   0.558E-03
  49 F= -.23571325E+04 E0= -.23571325E+04  d E =-.672998E-02  mag=     2.9999
       N       E                     dE             d eps       ncg     rms          rms(c)
DAV:   1    -0.233553858107E+04    0.98510E-01   -0.54835E+00  4520   0.200E+00    0.705E-01
RMM:   2    -0.233563566794E+04   -0.97087E-01   -0.10258E+00  6518   0.491E-01    0.480E-01
RMM:   3    -0.233564478954E+04   -0.91216E-02   -0.11168E-01  6138   0.189E-01    0.484E-01
RMM:   4    -0.233564242860E+04    0.23609E-02   -0.10404E-02  5976   0.434E-02    0.250E-01
RMM:   5    -0.233564198024E+04    0.44836E-03   -0.20733E-03  5230   0.233E-02    0.199E-01
RMM:   6    -0.233564199634E+04   -0.16106E-04   -0.13293E-03  4895   0.190E-02    0.197E-01
RMM:   7    -0.233564164380E+04    0.35254E-03   -0.44056E-04  4661   0.119E-02    0.556E-02
RMM:   8    -0.233564161359E+04    0.30208E-04   -0.11662E-04  2993   0.770E-03    0.362E-02
RMM:   9    -0.233564159091E+04    0.22684E-04   -0.23775E-05  2948   0.384E-03    0.164E-02
RMM:  10    -0.233564158588E+04    0.50265E-05   -0.24415E-05  2966   0.347E-03
  50 F= -.23571391E+04 E0= -.23571391E+04  d E =-.132927E-01  mag=     2.9999
       N       E                     dE             d eps       ncg     rms          rms(c)
DAV:   1    -0.233562451693E+04    0.17074E-01   -0.13875E+00  4528   0.989E-01    0.358E-01
RMM:   2    -0.233564858920E+04   -0.24072E-01   -0.23981E-01  6487   0.237E-01    0.417E-01
RMM:   3    -0.233564966566E+04   -0.10765E-02   -0.25398E-02  6154   0.915E-02    0.334E-01
RMM:   4    -0.233564863034E+04    0.10353E-02   -0.26689E-03  5097   0.221E-02    0.126E-01
RMM:   5    -0.233564863914E+04   -0.88047E-05   -0.52936E-04  3602   0.112E-02    0.146E-01
RMM:   6    -0.233564837000E+04    0.26915E-03   -0.44975E-04  4460   0.124E-02    0.375E-02
RMM:   7    -0.233564837004E+04   -0.40105E-07   -0.92764E-05  3138   0.753E-03
  51 F= -.23571468E+04 E0= -.23571467E+04  d E =-.764800E-02  mag=     2.9999
       N       E                     dE             d eps       ncg     rms          rms(c)
DAV:   1    -0.233543361780E+04    0.21475E+00   -0.12468E+01  4520   0.297E+00    0.106E+00
RMM:   2    -0.233564541557E+04   -0.21180E+00   -0.21562E+00  6478   0.708E-01    0.107E+00
RMM:   3    -0.233566422403E+04   -0.18808E-01   -0.24076E-01  6322   0.280E-01    0.112E+00
RMM:   4    -0.233565245421E+04    0.11770E-01   -0.24153E-02  6225   0.668E-02    0.378E-01
RMM:   5    -0.233565251885E+04   -0.64635E-04   -0.49461E-03  5581   0.296E-02    0.441E-01
RMM:   6    -0.233565022993E+04    0.22889E-02   -0.41342E-03  5657   0.330E-02    0.138E-01
RMM:   7    -0.233565015612E+04    0.73801E-04   -0.93529E-04  4930   0.181E-02    0.709E-02
RMM:   8    -0.233565012249E+04    0.33633E-04   -0.21760E-04  3215   0.911E-03    0.568E-02
RMM:   9    -0.233565006503E+04    0.57458E-04   -0.74449E-05  3037   0.617E-03    0.211E-02
RMM:  10    -0.233565005384E+04    0.11197E-04   -0.44140E-05  3001   0.472E-03    0.779E-03
RMM:  11    -0.233565005226E+04    0.15750E-05   -0.71182E-06  2897   0.359E-03
  52 F= -.23571510E+04 E0= -.23571510E+04  d E =-.119110E-01  mag=     2.9999
       N       E                     dE             d eps       ncg     rms          rms(c)
DAV:   1    -0.233562770819E+04    0.22346E-01   -0.14531E+00  4528   0.101E+00    0.374E-01
RMM:   2    -0.233565376945E+04   -0.26061E-01   -0.25367E-01  6466   0.245E-01    0.497E-01
RMM:   3    -0.233565374111E+04    0.28333E-04   -0.26675E-02  6176   0.928E-02    0.309E-01
RMM:   4    -0.233565290534E+04    0.83578E-03   -0.28316E-03  5134   0.223E-02    0.135E-01
RMM:   5    -0.233565287891E+04    0.26423E-04   -0.53965E-04  3595   0.116E-02    0.144E-01
RMM:   6    -0.233565261458E+04    0.26434E-03   -0.45309E-04  4416   0.124E-02    0.409E-02
RMM:   7    -0.233565262502E+04   -0.10441E-04   -0.12694E-04  3191   0.838E-03    0.326E-02
RMM:   8    -0.233565261148E+04    0.13537E-04   -0.35663E-05  2954   0.489E-03    0.158E-02
RMM:   9    -0.233565260684E+04    0.46432E-05   -0.83489E-06  2906   0.283E-03
  53 F= -.23571527E+04 E0= -.23571527E+04  d E =-.135868E-01  mag=     2.9999
       N       E                     dE             d eps       ncg     rms          rms(c)
DAV:   1    -0.233561808713E+04    0.34524E-01   -0.24726E+00  4520   0.130E+00    0.506E-01
RMM:   2    -0.233566318491E+04   -0.45098E-01   -0.43324E-01  6462   0.316E-01    0.700E-01
RMM:   3    -0.233566309725E+04    0.87663E-04   -0.47547E-02  6221   0.125E-01    0.448E-01
RMM:   4    -0.233566129153E+04    0.18057E-02   -0.47141E-03  5462   0.292E-02    0.169E-01
RMM:   5    -0.233566136828E+04   -0.76752E-04   -0.99546E-04  4576   0.153E-02    0.208E-01
RMM:   6    -0.233566082902E+04    0.53927E-03   -0.86961E-04  4973   0.159E-02    0.544E-02
RMM:   7    -0.233566081779E+04    0.11226E-04   -0.15029E-04  3219   0.950E-03    0.225E-02
RMM:   8    -0.233566081604E+04    0.17489E-05   -0.28376E-05  2961   0.458E-03
  54 F= -.23571619E+04 E0= -.23571619E+04  d E =-.918621E-02  mag=     3.0000
       N       E                     dE             d eps       ncg     rms          rms(c)
DAV:   1    -0.233562127333E+04    0.39544E-01   -0.24005E+00  4520   0.128E+00    0.502E-01
RMM:   2    -0.233566549064E+04   -0.44217E-01   -0.42173E-01  6460   0.311E-01    0.718E-01
RMM:   3    -0.233566498081E+04    0.50983E-03   -0.46298E-02  6218   0.121E-01    0.440E-01
RMM:   4    -0.233566327643E+04    0.17044E-02   -0.46045E-03  5399   0.287E-02    0.170E-01
RMM:   5    -0.233566334204E+04   -0.65613E-04   -0.96552E-04  4512   0.151E-02    0.205E-01
RMM:   6    -0.233566282498E+04    0.51706E-03   -0.84951E-04  4937   0.158E-02    0.537E-02
RMM:   7    -0.233566281605E+04    0.89369E-05   -0.14959E-04  3231   0.961E-03    0.260E-02
RMM:   8    -0.233566281422E+04    0.18232E-05   -0.36233E-05  2972   0.468E-03
  55 F= -.23571648E+04 E0= -.23571648E+04  d E =-.121529E-01  mag=     3.0000
       N       E                     dE             d eps       ncg     rms          rms(c)
DAV:   1    -0.233563415329E+04    0.28663E-01   -0.21509E+00  4520   0.128E+00    0.487E-01
RMM:   2    -0.233567029721E+04   -0.36144E-01   -0.36093E-01  6437   0.304E-01    0.545E-01
RMM:   3    -0.233567224615E+04   -0.19489E-02   -0.39125E-02  6218   0.117E-01    0.482E-01
RMM:   4    -0.233567004061E+04    0.22055E-02   -0.38815E-03  5553   0.297E-02    0.154E-01
RMM:   5    -0.233567020908E+04   -0.16847E-03   -0.10099E-03  4813   0.161E-02    0.201E-01
RMM:   6    -0.233566973623E+04    0.47285E-03   -0.72840E-04  4881   0.152E-02    0.527E-02
RMM:   7    -0.233566973506E+04    0.11691E-05   -0.13084E-04  3145   0.886E-03    0.334E-02
RMM:   8    -0.233566972582E+04    0.92462E-05   -0.42294E-05  2945   0.498E-03
  56 F= -.23571726E+04 E0= -.23571726E+04  d E =-.779818E-02  mag=     3.0000
       N       E                     dE             d eps       ncg     rms          rms(c)
DAV:   1    -0.233564403511E+04    0.25700E-01   -0.16330E+00  4520   0.112E+00    0.424E-01
RMM:   2    -0.233567152372E+04   -0.27489E-01   -0.27406E-01  6443   0.265E-01    0.480E-01
RMM:   3    -0.233567295780E+04   -0.14341E-02   -0.29795E-02  6187   0.102E-01    0.420E-01
RMM:   4    -0.233567129534E+04    0.16625E-02   -0.29437E-03  5367   0.258E-02    0.134E-01
RMM:   5    -0.233567142301E+04   -0.12767E-03   -0.76755E-04  4475   0.143E-02    0.175E-01
RMM:   6    -0.233567106001E+04    0.36300E-03   -0.56149E-04  4700   0.136E-02    0.449E-02
RMM:   7    -0.233567105743E+04    0.25843E-05   -0.97016E-05  3085   0.810E-03
  57 F= -.23571748E+04 E0= -.23571748E+04  d E =-.991105E-02  mag=     3.0000
       N       E                     dE             d eps       ncg     rms          rms(c)
DAV:   1    -0.233563221652E+04    0.38843E-01   -0.28819E+00  4520   0.142E+00    0.508E-01
RMM:   2    -0.233567737181E+04   -0.45155E-01   -0.46845E-01  6558   0.338E-01    0.453E-01
RMM:   3    -0.233568157722E+04   -0.42054E-02   -0.50075E-02  6279   0.128E-01    0.496E-01
RMM:   4    -0.233567929843E+04    0.22788E-02   -0.51837E-03  5640   0.317E-02    0.195E-01
RMM:   5    -0.233567931582E+04   -0.17390E-04   -0.11595E-03  4795   0.159E-02    0.203E-01
RMM:   6    -0.233567891168E+04    0.40414E-03   -0.88186E-04  4744   0.163E-02    0.787E-02
RMM:   7    -0.233567893822E+04   -0.26542E-04   -0.33040E-04  3434   0.109E-02    0.743E-02
RMM:   8    -0.233567885281E+04    0.85414E-04   -0.85898E-05  2997   0.632E-03    0.176E-02
RMM:   9    -0.233567884781E+04    0.49975E-05   -0.14173E-05  2955   0.335E-03
  58 F= -.23571835E+04 E0= -.23571835E+04  d E =-.874702E-02  mag=     3.0000
       N       E                     dE             d eps       ncg     rms          rms(c)
DAV:   1    -0.233561486419E+04    0.63989E-01   -0.40764E+00  4520   0.169E+00    0.600E-01
RMM:   2    -0.233567881715E+04   -0.63953E-01   -0.66201E-01  6550   0.402E-01    0.544E-01
RMM:   3    -0.233568457691E+04   -0.57598E-02   -0.70958E-02  6316   0.152E-01    0.586E-01
RMM:   4    -0.233568139332E+04    0.31836E-02   -0.73721E-03  5832   0.375E-02    0.235E-01
RMM:   5    -0.233568132395E+04    0.69377E-04   -0.16182E-03  5075   0.185E-02    0.230E-01
RMM:   6    -0.233568081342E+04    0.51053E-03   -0.12644E-03  4994   0.194E-02    0.980E-02
RMM:   7    -0.233568084033E+04   -0.26915E-04   -0.48240E-04  3900   0.124E-02    0.899E-02
RMM:   8    -0.233568071331E+04    0.12702E-03   -0.12196E-04  3046   0.676E-03    0.214E-02
RMM:   9    -0.233568070520E+04    0.81035E-05   -0.19601E-05  2977   0.397E-03
  59 F= -.23571865E+04 E0= -.23571865E+04  d E =-.117610E-01  mag=     3.0000
       N       E                     dE             d eps       ncg     rms          rms(c)
DAV:   1    -0.233566304537E+04    0.17668E-01   -0.14730E+00  4528   0.100E+00    0.356E-01
RMM:   2    -0.233568590680E+04   -0.22861E-01   -0.23343E-01  6569   0.241E-01    0.360E-01
RMM:   3    -0.233568748276E+04   -0.15760E-02   -0.24484E-02  6213   0.892E-02    0.339E-01
RMM:   4    -0.233568647447E+04    0.10083E-02   -0.26919E-03  5027   0.222E-02    0.155E-01
RMM:   5    -0.233568636062E+04    0.11386E-03   -0.55884E-04  3716   0.116E-02    0.126E-01
RMM:   6    -0.233568624452E+04    0.11610E-03   -0.47713E-04  4226   0.128E-02    0.696E-02
RMM:   7    -0.233568622156E+04    0.22955E-04   -0.18686E-04  3077   0.861E-03    0.485E-02
RMM:   8    -0.233568618577E+04    0.35792E-04   -0.33300E-05  2959   0.486E-03    0.123E-02
RMM:   9    -0.233568618308E+04    0.26887E-05   -0.69981E-06  2898   0.251E-03
  60 F= -.23571928E+04 E0= -.23571928E+04  d E =-.627601E-02  mag=     3.0000
       N       E                     dE             d eps       ncg     rms          rms(c)
DAV:   1    -0.233557711069E+04    0.10908E+00   -0.71521E+00  4520   0.221E+00    0.790E-01
RMM:   2    -0.233568922279E+04   -0.11211E+00   -0.11418E+00  6576   0.533E-01    0.815E-01
RMM:   3    -0.233569603455E+04   -0.68118E-02   -0.11974E-01  6376   0.197E-01    0.731E-01
RMM:   4    -0.233569144938E+04    0.45852E-02   -0.13286E-02  5977   0.489E-02    0.354E-01
RMM:   5    -0.233569077123E+04    0.67815E-03   -0.26918E-03  5345   0.239E-02    0.275E-01
RMM:   6    -0.233569021368E+04    0.55755E-03   -0.22464E-03  5257   0.257E-02    0.154E-01
RMM:   7    -0.233569010311E+04    0.11057E-03   -0.94872E-04  4602   0.170E-02    0.108E-01
RMM:   8    -0.233568992345E+04    0.17966E-03   -0.16294E-04  3154   0.719E-03    0.277E-02
RMM:   9    -0.233568990952E+04    0.13922E-04   -0.29903E-05  2970   0.452E-03    0.165E-02
RMM:  10    -0.233568990539E+04    0.41321E-05   -0.22089E-05  2945   0.343E-03
  61 F= -.23571983E+04 E0= -.23571983E+04  d E =-.117761E-01  mag=     3.0000
       N       E                     dE             d eps       ncg     rms          rms(c)
DAV:   1    -0.233568574753E+04    0.41620E-02   -0.72002E-01  4560   0.765E-01    0.266E-01
RMM:   2    -0.233569516318E+04   -0.94157E-02   -0.92806E-02  6325   0.172E-01    0.317E-01
RMM:   3    -0.233569531207E+04   -0.14888E-03   -0.98413E-03  5998   0.660E-02    0.244E-01
RMM:   4    -0.233569476407E+04    0.54799E-03   -0.11554E-03  4859   0.174E-02    0.109E-01
RMM:   5    -0.233569472523E+04    0.38839E-04   -0.35597E-04  3386   0.113E-02    0.100E-01
RMM:   6    -0.233569462923E+04    0.96003E-04   -0.28584E-04  4351   0.114E-02    0.492E-02
RMM:   7    -0.233569460906E+04    0.20171E-04   -0.94303E-05  2988   0.827E-03    0.311E-02
RMM:   8    -0.233569459322E+04    0.15837E-04   -0.16020E-05  2930   0.359E-03    0.872E-03
RMM:   9    -0.233569459129E+04    0.19344E-05   -0.54041E-06  2906   0.238E-03
  62 F= -.23572035E+04 E0= -.23572035E+04  d E =-.521577E-02  mag=     3.0000
       N       E                     dE             d eps       ncg     rms          rms(c)
DAV:   1    -0.233568874974E+04    0.58435E-02   -0.55558E-01  4528   0.672E-01    0.234E-01
RMM:   2    -0.233569601099E+04   -0.72613E-02   -0.71636E-02  6315   0.151E-01    0.279E-01
RMM:   3    -0.233569612527E+04   -0.11428E-03   -0.75863E-03  5924   0.591E-02    0.215E-01
RMM:   4    -0.233569569703E+04    0.42823E-03   -0.89475E-04  4656   0.155E-02    0.958E-02
RMM:   5    -0.233569566595E+04    0.31081E-04   -0.27518E-04  3209   0.101E-02    0.885E-02
RMM:   6    -0.233569558816E+04    0.77792E-04   -0.22555E-04  4211   0.104E-02    0.433E-02
RMM:   7    -0.233569557229E+04    0.15872E-04   -0.74549E-05  2969   0.747E-03    0.277E-02
RMM:   8    -0.233569555937E+04    0.12919E-04   -0.13116E-05  2915   0.336E-03    0.787E-03
RMM:   9    -0.233569555751E+04    0.18603E-05   -0.47530E-06  2896   0.226E-03
  63 F= -.23572049E+04 E0= -.23572049E+04  d E =-.664939E-02  mag=     3.0000
       N       E                     dE             d eps       ncg     rms          rms(c)
DAV:   1    -0.233569193269E+04    0.36267E-02   -0.81871E-01  4520   0.863E-01    0.276E-01
RMM:   2    -0.233570067289E+04   -0.87402E-02   -0.86542E-02  6195   0.174E-01    0.307E-01
RMM:   3    -0.233570104679E+04   -0.37390E-03   -0.95739E-03  5938   0.697E-02    0.272E-01
RMM:   4    -0.233570031824E+04    0.72855E-03   -0.10518E-03  4985   0.181E-02    0.916E-02
RMM:   5    -0.233570036128E+04   -0.43041E-04   -0.35576E-04  3556   0.117E-02    0.111E-01
RMM:   6    -0.233570020964E+04    0.15164E-03   -0.26164E-04  4308   0.108E-02    0.285E-02
RMM:   7    -0.233570020922E+04    0.42142E-06   -0.42395E-05  3007   0.689E-03
  64 F= -.23572100E+04 E0= -.23572100E+04  d E =-.506051E-02  mag=     3.0000
       N       E                     dE             d eps       ncg     rms          rms(c)
DAV:   1    -0.233567068241E+04    0.29527E-01   -0.31955E+00  4520   0.170E+00    0.547E-01
RMM:   2    -0.233570468330E+04   -0.34001E-01   -0.33787E-01  6212   0.343E-01    0.595E-01
RMM:   3    -0.233570643323E+04   -0.17499E-02   -0.37558E-02  6080   0.137E-01    0.546E-01
RMM:   4    -0.233570351257E+04    0.29207E-02   -0.40342E-03  5568   0.354E-02    0.183E-01
RMM:   5    -0.233570368602E+04   -0.17345E-03   -0.14645E-03  5016   0.216E-02    0.219E-01
RMM:   6    -0.233570310403E+04    0.58199E-03   -0.97682E-04  5095   0.187E-02    0.610E-02
RMM:   7    -0.233570310169E+04    0.23372E-05   -0.17609E-04  3431   0.113E-02    0.468E-02
RMM:   8    -0.233570307448E+04    0.27212E-04   -0.56497E-05  2968   0.505E-03    0.189E-02
RMM:   9    -0.233570306801E+04    0.64737E-05   -0.11880E-05  2944   0.333E-03
  65 F= -.23572137E+04 E0= -.23572137E+04  d E =-.872574E-02  mag=     3.0000
       N       E                     dE             d eps       ncg     rms          rms(c)
DAV:   1    -0.233570093909E+04    0.21354E-02   -0.52766E-01  4576   0.656E-01    0.199E-01
RMM:   2    -0.233570689574E+04   -0.59567E-02   -0.60600E-02  6314   0.135E-01    0.204E-01
RMM:   3    -0.233570734223E+04   -0.44648E-03   -0.63629E-03  5727   0.506E-02    0.203E-01
RMM:   4    -0.233570696409E+04    0.37813E-03   -0.68618E-04  3585   0.132E-02    0.718E-02
RMM:   5    -0.233570700312E+04   -0.39026E-04   -0.21237E-04  3151   0.864E-03    0.895E-02
RMM:   6    -0.233570690363E+04    0.99490E-04   -0.15502E-04  3405   0.834E-03    0.232E-02
RMM:   7    -0.233570690523E+04   -0.16015E-05   -0.28843E-05  2987   0.538E-03
  66 F= -.23572177E+04 E0= -.23572177E+04  d E =-.407562E-02  mag=     3.0000
       N       E                     dE             d eps       ncg     rms          rms(c)
DAV:   1    -0.233565987421E+04    0.47029E-01   -0.47379E+00  4520   0.197E+00    0.596E-01
RMM:   2    -0.233571330723E+04   -0.53433E-01   -0.54421E-01  6419   0.405E-01    0.604E-01
RMM:   3    -0.233571761333E+04   -0.43061E-02   -0.59010E-02  6219   0.154E-01    0.608E-01
RMM:   4    -0.233571419345E+04    0.34199E-02   -0.61530E-03  5829   0.389E-02    0.210E-01
RMM:   5    -0.233571459313E+04   -0.39968E-03   -0.19219E-03  5289   0.219E-02    0.272E-01
RMM:   6    -0.233571367331E+04    0.91982E-03   -0.12977E-03  5182   0.197E-02    0.683E-02
RMM:   7    -0.233571365748E+04    0.15826E-04   -0.17310E-04  3478   0.101E-02    0.272E-02
RMM:   8    -0.233571365473E+04    0.27528E-05   -0.40307E-05  2955   0.490E-03
  67 F= -.23572252E+04 E0= -.23572252E+04  d E =-.115363E-01  mag=     3.0000
       N       E                     dE             d eps       ncg     rms          rms(c)
DAV:   1    -0.233548922468E+04    0.22443E+00   -0.18938E+01  4520   0.394E+00    0.119E+00
RMM:   2    -0.233570526762E+04   -0.21604E+00   -0.21966E+00  6393   0.816E-01    0.123E+00
RMM:   3    -0.233572177900E+04   -0.16511E-01   -0.24092E-01  6242   0.309E-01    0.119E+00
RMM:   4    -0.233570837704E+04    0.13402E-01   -0.24151E-02  5978   0.772E-02    0.401E-01
RMM:   5    -0.233571002715E+04   -0.16501E-02   -0.75685E-03  5678   0.435E-02    0.530E-01
RMM:   6    -0.233570658124E+04    0.34459E-02   -0.49098E-03  5735   0.369E-02    0.161E-01
RMM:   7    -0.233570641949E+04    0.16175E-03   -0.71117E-04  4952   0.175E-02    0.545E-02
RMM:   8    -0.233570639648E+04    0.23013E-04   -0.13137E-04  3215   0.805E-03    0.471E-02
RMM:   9    -0.233570636879E+04    0.27688E-04   -0.67285E-05  3019   0.579E-03    0.286E-02
RMM:  10    -0.233570635636E+04    0.12432E-04   -0.31705E-05  2975   0.448E-03    0.940E-03
RMM:  11    -0.233570635593E+04    0.42605E-06   -0.83780E-06  2920   0.345E-03
  68 F= -.23572193E+04 E0= -.23572193E+04  d E =-.564658E-02  mag=     3.0000
       N       E                     dE             d eps       ncg     rms          rms(c)
DAV:   1    -0.233560561650E+04    0.10074E+00   -0.95418E+00  4520   0.280E+00    0.849E-01
RMM:   2    -0.233571383982E+04   -0.10822E+00   -0.11082E+00  6386   0.581E-01    0.836E-01
RMM:   3    -0.233572244523E+04   -0.86054E-02   -0.12023E-01  6246   0.217E-01    0.860E-01
RMM:   4    -0.233571587107E+04    0.65742E-02   -0.12953E-02  6075   0.555E-02    0.346E-01
RMM:   5    -0.233571593545E+04   -0.64380E-04   -0.37359E-03  5591   0.297E-02    0.356E-01
RMM:   6    -0.233571441957E+04    0.15159E-02   -0.28456E-03  5008   0.291E-02    0.105E-01
RMM:   7    -0.233571443079E+04   -0.11223E-04   -0.54554E-04  4355   0.171E-02    0.696E-02
RMM:   8    -0.233571437078E+04    0.60009E-04   -0.17388E-04  3170   0.709E-03    0.404E-02
RMM:   9    -0.233571434418E+04    0.26601E-04   -0.37835E-05  3033   0.496E-03    0.162E-02
RMM:  10    -0.233571433947E+04    0.47045E-05   -0.22445E-05  2946   0.354E-03
  69 F= -.23572263E+04 E0= -.23572263E+04  d E =-.126318E-01  mag=     3.0000
       N       E                     dE             d eps       ncg     rms          rms(c)
DAV:   1    -0.233570672636E+04    0.76178E-02   -0.10774E+00  4520   0.935E-01    0.289E-01
RMM:   2    -0.233571964105E+04   -0.12915E-01   -0.13508E-01  6387   0.198E-01    0.218E-01
RMM:   3    -0.233572107681E+04   -0.14358E-02   -0.14371E-02  6006   0.748E-02    0.278E-01
RMM:   4    -0.233572035976E+04    0.71705E-03   -0.15025E-03  4538   0.188E-02    0.112E-01
RMM:   5    -0.233572043896E+04   -0.79198E-04   -0.45523E-04  3886   0.113E-02    0.134E-01
RMM:   6    -0.233572022679E+04    0.21218E-03   -0.31787E-04  3931   0.106E-02    0.361E-02
RMM:   7    -0.233572022123E+04    0.55523E-05   -0.44354E-05  3019   0.595E-03
  70 F= -.23572325E+04 E0= -.23572325E+04  d E =-.624287E-02  mag=     3.0000
       N       E                     dE             d eps       ncg     rms          rms(c)
DAV:   1    -0.233560550886E+04    0.11472E+00   -0.96982E+00  4520   0.281E+00    0.871E-01
RMM:   2    -0.233572252831E+04   -0.11702E+00   -0.12210E+00  6391   0.598E-01    0.676E-01
RMM:   3    -0.233573580303E+04   -0.13275E-01   -0.13384E-01  6215   0.231E-01    0.846E-01
RMM:   4    -0.233572913143E+04    0.66716E-02   -0.13557E-02  6322   0.561E-02    0.326E-01
RMM:   5    -0.233572977240E+04   -0.64097E-03   -0.40728E-03  5525   0.301E-02    0.385E-01
RMM:   6    -0.233572805904E+04    0.17134E-02   -0.25785E-03  5551   0.266E-02    0.124E-01
RMM:   7    -0.233572794608E+04    0.11296E-03   -0.36437E-04  4635   0.124E-02    0.349E-02
RMM:   8    -0.233572792688E+04    0.19200E-04   -0.39852E-05  3024   0.593E-03    0.199E-02
RMM:   9    -0.233572792509E+04    0.17856E-05   -0.28330E-05  2975   0.404E-03
  71 F= -.23572413E+04 E0= -.23572413E+04  d E =-.150162E-01  mag=     3.0000
       N       E                     dE             d eps       ncg     rms          rms(c)
DAV:   1    -0.233571330850E+04    0.14618E-01   -0.17747E+00  4520   0.123E+00    0.391E-01
RMM:   2    -0.233573377880E+04   -0.20470E-01   -0.21647E-01  6258   0.254E-01    0.250E-01
RMM:   3    -0.233573604067E+04   -0.22619E-02   -0.23444E-02  6024   0.101E-01    0.303E-01
RMM:   4    -0.233573517935E+04    0.86132E-03   -0.25075E-03  5598   0.248E-02    0.159E-01
RMM:   5    -0.233573529021E+04   -0.11085E-03   -0.78334E-04  4576   0.148E-02    0.182E-01
RMM:   6    -0.233573493772E+04    0.35249E-03   -0.49638E-04  4454   0.129E-02    0.519E-02
RMM:   7    -0.233573492172E+04    0.16002E-04   -0.68115E-05  3068   0.677E-03    0.234E-02
RMM:   8    -0.233573491740E+04    0.43215E-05   -0.23642E-05  2946   0.449E-03
  72 F= -.23572490E+04 E0= -.23572490E+04  d E =-.765715E-02  mag=     3.0000
       N       E                     dE             d eps       ncg     rms          rms(c)
DAV:   1    -0.233567884813E+04    0.56074E-01   -0.48995E+00  4520   0.204E+00    0.650E-01
RMM:   2    -0.233573537627E+04   -0.56528E-01   -0.59870E-01  6242   0.421E-01    0.410E-01
RMM:   3    -0.233574154373E+04   -0.61675E-02   -0.65189E-02  6056   0.168E-01    0.486E-01
RMM:   4    -0.233573929243E+04    0.22513E-02   -0.68618E-03  6213   0.408E-02    0.259E-01
RMM:   5    -0.233573960054E+04   -0.30810E-03   -0.21746E-03  5144   0.240E-02    0.304E-01
RMM:   6    -0.233573864753E+04    0.95300E-03   -0.12934E-03  5190   0.198E-02    0.918E-02
RMM:   7    -0.233573858327E+04    0.64264E-04   -0.18912E-04  3847   0.948E-03    0.316E-02
RMM:   8    -0.233573858100E+04    0.22746E-05   -0.55774E-05  2984   0.629E-03
  73 F= -.23572537E+04 E0= -.23572537E+04  d E =-.124230E-01  mag=     3.0000
       N       E                     dE             d eps       ncg     rms          rms(c)
DAV:   1    -0.233571246015E+04    0.26123E-01   -0.27801E+00  4520   0.155E+00    0.500E-01
RMM:   2    -0.233574348056E+04   -0.31020E-01   -0.32605E-01  6255   0.314E-01    0.356E-01
[...]
 126 F= -.23573372E+04 E0= -.23573372E+04  d E =-.198505E-02  mag=     2.9999
       N       E                     dE             d eps       ncg     rms          rms(c)
DAV:   1    -0.233580100985E+04    0.48017E-02   -0.13120E+00  4520   0.970E-01    0.317E-01
RMM:   2    -0.233580679260E+04   -0.57827E-02   -0.61263E-02  5980   0.170E-01    0.276E-01
RMM:   3    -0.233580744168E+04   -0.64908E-03   -0.61158E-03  5697   0.630E-02    0.339E-01
RMM:   4    -0.233580636554E+04    0.10761E-02   -0.10796E-03  5110   0.207E-02    0.119E-01
RMM:   5    -0.233580657844E+04   -0.21290E-03   -0.70708E-04  4642   0.159E-02    0.164E-01
RMM:   6    -0.233580625177E+04    0.32667E-03   -0.36639E-04  4578   0.114E-02    0.328E-02
RMM:   7    -0.233580624338E+04    0.83928E-05   -0.68522E-05  3007   0.716E-03
 127 F= -.23573381E+04 E0= -.23573381E+04  d E =-.292875E-02  mag=     2.9999
       N       E                     dE             d eps       ncg     rms          rms(c)
DAV:   1    -0.233580473023E+04    0.15215E-02   -0.82402E-01  4528   0.751E-01    0.242E-01
RMM:   2    -0.233580821237E+04   -0.34821E-02   -0.38035E-02  6021   0.130E-01    0.189E-01
RMM:   3    -0.233580877824E+04   -0.56587E-03   -0.38167E-03  5584   0.481E-02    0.271E-01
RMM:   4    -0.233580810549E+04    0.67275E-03   -0.67735E-04  4830   0.159E-02    0.850E-02
RMM:   5    -0.233580820755E+04   -0.10205E-03   -0.41747E-04  4267   0.122E-02    0.108E-01
RMM:   6    -0.233580805978E+04    0.14777E-03   -0.19973E-04  3258   0.869E-03    0.291E-02
RMM:   7    -0.233580805532E+04    0.44593E-05   -0.41422E-05  2954   0.513E-03
 128 F= -.23573403E+04 E0= -.23573403E+04  d E =-.220614E-02  mag=     2.9999
       N       E                     dE             d eps       ncg     rms          rms(c)
DAV:   1    -0.233580319674E+04    0.48630E-02   -0.13398E+00  4520   0.957E-01    0.308E-01
RMM:   2    -0.233580882083E+04   -0.56241E-02   -0.61742E-02  5996   0.165E-01    0.239E-01
RMM:   3    -0.233580973035E+04   -0.90952E-03   -0.62020E-03  5649   0.624E-02    0.343E-01
RMM:   4    -0.233580864999E+04    0.10804E-02   -0.11030E-03  5198   0.202E-02    0.109E-01
RMM:   5    -0.233580881762E+04   -0.16763E-03   -0.68948E-04  4773   0.153E-02    0.138E-01
RMM:   6    -0.233580857144E+04    0.24618E-03   -0.31723E-04  3612   0.103E-02    0.364E-02
RMM:   7    -0.233580856441E+04    0.70347E-05   -0.64705E-05  2979   0.591E-03
 129 F= -.23573414E+04 E0= -.23573413E+04  d E =-.322638E-02  mag=     2.9998
       N       E                     dE             d eps       ncg     rms          rms(c)
DAV:   1    -0.233580630651E+04    0.22649E-02   -0.10991E+00  4520   0.887E-01    0.308E-01
RMM:   2    -0.233581091647E+04   -0.46100E-02   -0.52968E-02  5988   0.156E-01    0.175E-01
RMM:   3    -0.233581137297E+04   -0.45650E-03   -0.53334E-03  5423   0.632E-02    0.224E-01
RMM:   4    -0.233581107666E+04    0.29632E-03   -0.90039E-04  5008   0.182E-02    0.143E-01
RMM:   5    -0.233581108310E+04   -0.64458E-05   -0.56908E-04  4617   0.147E-02    0.112E-01
RMM:   6    -0.233581090563E+04    0.17747E-03   -0.24659E-04  3445   0.100E-02    0.236E-02
RMM:   7    -0.233581089687E+04    0.87616E-05   -0.25706E-05  2988   0.480E-03
 130 F= -.23573440E+04 E0= -.23573440E+04  d E =-.267967E-02  mag=     2.9998
       N       E                     dE             d eps       ncg     rms          rms(c)
DAV:   1    -0.233581006532E+04    0.84031E-03   -0.22424E-01  4592   0.400E-01    0.140E-01
RMM:   2    -0.233581102622E+04   -0.96090E-03   -0.10842E-02  5964   0.705E-02    0.843E-02
RMM:   3    -0.233581118587E+04   -0.15965E-03   -0.12391E-03  4719   0.304E-02    0.119E-01
RMM:   4    -0.233581102364E+04    0.16223E-03   -0.19354E-04  3113   0.938E-03    0.420E-02
RMM:   5    -0.233581103388E+04   -0.10243E-04   -0.11058E-04  3354   0.744E-03    0.448E-02
RMM:   6    -0.233581101047E+04    0.23405E-04   -0.47520E-05  2985   0.599E-03    0.216E-02
RMM:   7    -0.233581100816E+04    0.23193E-05   -0.12864E-05  2914   0.284E-03
 131 F= -.23573443E+04 E0= -.23573443E+04  d E =-.295005E-02  mag=     2.9998
       N       E                     dE             d eps       ncg     rms          rms(c)
DAV:   1    -0.233580945869E+04    0.15518E-02   -0.84469E-01  4520   0.762E-01    0.258E-01
RMM:   2    -0.233581284865E+04   -0.33900E-02   -0.39343E-02  5997   0.131E-01    0.147E-01
RMM:   3    -0.233581299544E+04   -0.14679E-03   -0.38512E-03  5291   0.534E-02    0.116E-01
RMM:   4    -0.233581298973E+04    0.57120E-05   -0.73172E-04  4763   0.164E-02    0.106E-01
RMM:   5    -0.233581292047E+04    0.69262E-04   -0.33701E-04  4371   0.124E-02    0.907E-02
RMM:   6    -0.233581285627E+04    0.64195E-04   -0.11411E-04  3022   0.711E-03    0.360E-02
RMM:   7    -0.233581284462E+04    0.11647E-04   -0.17529E-05  2942   0.377E-03    0.153E-02
RMM:   8    -0.233581284293E+04    0.16940E-05   -0.84146E-06  2913   0.232E-03
 132 F= -.23573466E+04 E0= -.23573466E+04  d E =-.226755E-02  mag=     2.9998
       N       E                     dE             d eps       ncg     rms          rms(c)
DAV:   1    -0.233581149835E+04    0.13463E-02   -0.37260E-01  4528   0.506E-01    0.172E-01
RMM:   2    -0.233581299761E+04   -0.14993E-02   -0.17401E-02  6002   0.875E-02    0.974E-02
RMM:   3    -0.233581306227E+04   -0.64667E-04   -0.16947E-03  4811   0.334E-02    0.802E-02
RMM:   4    -0.233581307422E+04   -0.11949E-04   -0.32642E-04  3597   0.111E-02    0.843E-02
RMM:   5    -0.233581305647E+04    0.17755E-04   -0.17591E-04  3289   0.884E-03    0.858E-02
RMM:   6    -0.233581299047E+04    0.65997E-04   -0.84349E-05  2981   0.668E-03    0.163E-02
RMM:   7    -0.233581298774E+04    0.27271E-05   -0.10171E-05  2931   0.350E-03
 133 F= -.23573470E+04 E0= -.23573470E+04  d E =-.270323E-02  mag=     2.9998
       N       E                     dE             d eps       ncg     rms          rms(c)
DAV:   1    -0.233581187586E+04    0.11146E-02   -0.95033E-01  4520   0.808E-01    0.267E-01
RMM:   2    -0.233581504974E+04   -0.31739E-02   -0.36993E-02  5895   0.133E-01    0.160E-01
RMM:   3    -0.233581539494E+04   -0.34521E-03   -0.38165E-03  5293   0.552E-02    0.187E-01
RMM:   4    -0.233581505958E+04    0.33537E-03   -0.70722E-04  4725   0.167E-02    0.102E-01
RMM:   5    -0.233581507996E+04   -0.20383E-04   -0.41540E-04  4398   0.134E-02    0.984E-02
RMM:   6    -0.233581497000E+04    0.10996E-03   -0.13699E-04  3102   0.814E-03    0.359E-02
RMM:   7    -0.233581496378E+04    0.62179E-05   -0.38250E-05  2962   0.433E-03
 134 F= -.23573494E+04 E0= -.23573494E+04  d E =-.242604E-02  mag=     2.9998
       N       E                     dE             d eps       ncg     rms          rms(c)
DAV:   1    -0.233581375434E+04    0.12157E-02   -0.40698E-01  4528   0.530E-01    0.175E-01
RMM:   2    -0.233581512485E+04   -0.13705E-02   -0.15926E-02  5931   0.885E-02    0.102E-01
RMM:   3    -0.233581521505E+04   -0.90199E-04   -0.15729E-03  4901   0.371E-02    0.973E-02
RMM:   4    -0.233581516909E+04    0.45965E-04   -0.30179E-04  3597   0.112E-02    0.760E-02
RMM:   5    -0.233581512524E+04    0.43850E-04   -0.16051E-04  3519   0.934E-03    0.422E-02
RMM:   6    -0.233581510657E+04    0.18666E-04   -0.52003E-05  2991   0.626E-03    0.198E-02
RMM:   7    -0.233581510433E+04    0.22478E-05   -0.10393E-05  2911   0.302E-03
 135 F= -.23573499E+04 E0= -.23573499E+04  d E =-.286451E-02  mag=     2.9998
       N       E                     dE             d eps       ncg     rms          rms(c)
DAV:   1    -0.233581400519E+04    0.11014E-02   -0.10564E+00  4520   0.844E-01    0.264E-01
RMM:   2    -0.233581740497E+04   -0.33998E-02   -0.39351E-02  5961   0.137E-01    0.168E-01
RMM:   3    -0.233581790896E+04   -0.50399E-03   -0.39605E-03  5358   0.534E-02    0.236E-01
RMM:   4    -0.233581739291E+04    0.51606E-03   -0.75040E-04  4751   0.168E-02    0.108E-01
RMM:   5    -0.233581755809E+04   -0.16519E-03   -0.50561E-04  4486   0.135E-02    0.148E-01
RMM:   6    -0.233581730746E+04    0.25063E-03   -0.21078E-04  3321   0.911E-03    0.223E-02
RMM:   7    -0.233581730178E+04    0.56850E-05   -0.34644E-05  2983   0.480E-03
 136 F= -.23573524E+04 E0= -.23573524E+04  d E =-.254080E-02  mag=     2.9998
       N       E                     dE             d eps       ncg     rms          rms(c)
DAV:   1    -0.233581499869E+04    0.23088E-02   -0.86996E-01  4520   0.765E-01    0.240E-01
RMM:   2    -0.233581781289E+04   -0.28142E-02   -0.32484E-02  5976   0.125E-01    0.151E-01
RMM:   3    -0.233581817940E+04   -0.36650E-03   -0.31924E-03  5317   0.486E-02    0.195E-01
RMM:   4    -0.233581781921E+04    0.36019E-03   -0.60641E-04  4425   0.152E-02    0.976E-02
RMM:   5    -0.233581792736E+04   -0.10815E-03   -0.39768E-04  4189   0.124E-02    0.132E-01
RMM:   6    -0.233581774298E+04    0.18437E-03   -0.15322E-04  3155   0.825E-03    0.211E-02
RMM:   7    -0.233581773754E+04    0.54406E-05   -0.24857E-05  2983   0.433E-03
 137 F= -.23573532E+04 E0= -.23573532E+04  d E =-.329373E-02  mag=     2.9998
       N       E                     dE             d eps       ncg     rms          rms(c)
DAV:   1    -0.233581600034E+04    0.17426E-02   -0.12750E+00  4520   0.933E-01    0.300E-01
RMM:   2    -0.233582005843E+04   -0.40581E-02   -0.47483E-02  5948   0.154E-01    0.174E-01
RMM:   3    -0.233582037277E+04   -0.31434E-03   -0.45101E-03  5164   0.611E-02    0.197E-01
RMM:   4    -0.233582016084E+04    0.21193E-03   -0.86672E-04  4773   0.187E-02    0.144E-01
RMM:   5    -0.233582013893E+04    0.21912E-04   -0.54476E-04  4483   0.148E-02    0.122E-01
RMM:   6    -0.233581997912E+04    0.15981E-03   -0.17819E-04  3176   0.944E-03    0.284E-02
RMM:   7    -0.233581996624E+04    0.12880E-04   -0.24906E-05  2999   0.425E-03    0.103E-02
RMM:   8    -0.233581996516E+04    0.10738E-05   -0.10067E-05  2930   0.283E-03
 138 F= -.23573558E+04 E0= -.23573558E+04  d E =-.262103E-02  mag=     2.9998
       N       E                     dE             d eps       ncg     rms          rms(c)
DAV:   1    -0.233581893515E+04    0.10311E-02   -0.39081E-01  4560   0.517E-01    0.166E-01
RMM:   2    -0.233582017949E+04   -0.12443E-02   -0.14601E-02  5935   0.851E-02    0.971E-02
RMM:   3    -0.233582025941E+04   -0.79922E-04   -0.13997E-03  4766   0.310E-02    0.107E-01
RMM:   4    -0.233582020274E+04    0.56670E-04   -0.27016E-04  3365   0.105E-02    0.808E-02
RMM:   5    -0.233582020722E+04   -0.44862E-05   -0.17509E-04  3506   0.894E-03    0.715E-02
RMM:   6    -0.233582014605E+04    0.61177E-04   -0.64540E-05  3034   0.655E-03    0.163E-02
RMM:   7    -0.233582014444E+04    0.16077E-05   -0.14354E-05  2945   0.317E-03
 139 F= -.23573562E+04 E0= -.23573562E+04  d E =-.302156E-02  mag=     2.9998
       N       E                     dE             d eps       ncg     rms          rms(c)
DAV:   1    -0.233581775923E+04    0.23868E-02   -0.14953E+00  4520   0.978E-01    0.316E-01
RMM:   2    -0.233582251283E+04   -0.47536E-02   -0.55888E-02  5914   0.162E-01    0.185E-01
RMM:   3    -0.233582255765E+04   -0.44826E-04   -0.52131E-03  5063   0.641E-02    0.117E-01
RMM:   4    -0.233582283557E+04   -0.27792E-03   -0.12803E-03  5236   0.217E-02    0.158E-01
RMM:   5    -0.233582251521E+04    0.32035E-03   -0.51198E-04  4506   0.149E-02    0.756E-02
RMM:   6    -0.233582247583E+04    0.39390E-04   -0.12388E-04  3028   0.617E-03    0.433E-02
RMM:   7    -0.233582245817E+04    0.17654E-04   -0.22974E-05  2954   0.394E-03    0.150E-02
RMM:   8    -0.233582245817E+04   -0.87311E-10   -0.12720E-05  2935   0.286E-03
 140 F= -.23573588E+04 E0= -.23573588E+04  d E =-.265385E-02  mag=     2.9998
       N       E                     dE             d eps       ncg     rms          rms(c)
DAV:   1    -0.233582158752E+04    0.87065E-03   -0.32873E-01  4560   0.458E-01    0.148E-01
RMM:   2    -0.233582263384E+04   -0.10463E-02   -0.12299E-02  5956   0.762E-02    0.872E-02
RMM:   3    -0.233582264799E+04   -0.14147E-04   -0.11701E-03  4640   0.295E-02    0.591E-02
RMM:   4    -0.233582273517E+04   -0.87176E-04   -0.28562E-04  3486   0.104E-02    0.964E-02
RMM:   5    -0.233582264523E+04    0.89938E-04   -0.13029E-04  3122   0.809E-03    0.512E-02
RMM:   6    -0.233582262047E+04    0.24764E-04   -0.43266E-05  2963   0.514E-03    0.135E-02
RMM:   7    -0.233582261911E+04    0.13573E-05   -0.69613E-06  2911   0.251E-03
 141 F= -.23573592E+04 E0= -.23573591E+04  d E =-.297735E-02  mag=     2.9998
       N       E                     dE             d eps       ncg     rms          rms(c)
DAV:   1    -0.233582086552E+04    0.17549E-02   -0.13885E+00  4520   0.936E-01    0.309E-01
RMM:   2    -0.233582486164E+04   -0.39961E-02   -0.47275E-02  5834   0.152E-01    0.189E-01
RMM:   3    -0.233582557583E+04   -0.71419E-03   -0.47160E-03  5356   0.612E-02    0.292E-01
RMM:   4    -0.233582477631E+04    0.79952E-03   -0.97309E-04  5109   0.190E-02    0.124E-01
RMM:   5    -0.233582488219E+04   -0.10587E-03   -0.69283E-04  4678   0.158E-02    0.129E-01
RMM:   6    -0.233582466800E+04    0.21418E-03   -0.26803E-04  3459   0.970E-03    0.314E-02
RMM:   7    -0.233582466367E+04    0.43338E-05   -0.52547E-05  2995   0.546E-03
 142 F= -.23573616E+04 E0= -.23573616E+04  d E =-.244665E-02  mag=     2.9998
       N       E                     dE             d eps       ncg     rms          rms(c)
DAV:   1    -0.233582412214E+04    0.54586E-03   -0.19539E-01  4592   0.351E-01    0.117E-01
RMM:   2    -0.233582470543E+04   -0.58329E-03   -0.67555E-03  5882   0.587E-02    0.716E-02
RMM:   3    -0.233582480460E+04   -0.99168E-04   -0.69043E-04  4127   0.240E-02    0.107E-01
RMM:   4    -0.233582470282E+04    0.10178E-03   -0.13770E-04  3020   0.811E-03    0.490E-02
RMM:   5    -0.233582470995E+04   -0.71305E-05   -0.92758E-05  3128   0.658E-03
 143 F= -.23573618E+04 E0= -.23573618E+04  d E =-.264570E-02  mag=     2.9998
       N       E                     dE             d eps       ncg     rms          rms(c)
DAV:   1    -0.233582334229E+04    0.13605E-02   -0.12617E+00  4520   0.872E-01    0.284E-01
RMM:   2    -0.233582665814E+04   -0.33158E-02   -0.39059E-02  5969   0.140E-01    0.190E-01
RMM:   3    -0.233582748740E+04   -0.82926E-03   -0.42015E-03  5648   0.556E-02    0.317E-01
RMM:   4    -0.233582650697E+04    0.98042E-03   -0.91356E-04  5110   0.183E-02    0.107E-01
RMM:   5    -0.233582661181E+04   -0.10484E-03   -0.65843E-04  4534   0.150E-02    0.118E-01
RMM:   6    -0.233582641703E+04    0.19478E-03   -0.24788E-04  3563   0.917E-03    0.171E-02
RMM:   7    -0.233582641425E+04    0.27844E-05   -0.31401E-05  3008   0.485E-03
 144 F= -.23573642E+04 E0= -.23573642E+04  d E =-.237848E-02  mag=     2.9997
       N       E                     dE             d eps       ncg     rms          rms(c)
DAV:   1    -0.233582524040E+04    0.11766E-02   -0.49744E-01  4528   0.548E-01    0.179E-01
RMM:   2    -0.233582657652E+04   -0.13361E-02   -0.15543E-02  5844   0.876E-02    0.122E-01
RMM:   3    -0.233582690026E+04   -0.32374E-03   -0.16672E-03  5063   0.346E-02    0.201E-01
RMM:   4    -0.233582650977E+04    0.39048E-03   -0.36337E-04  3927   0.117E-02    0.695E-02
RMM:   5    -0.233582654498E+04   -0.35210E-04   -0.25773E-04  3479   0.101E-02    0.731E-02
RMM:   6    -0.233582646992E+04    0.75060E-04   -0.10670E-04  3117   0.726E-03    0.120E-02
RMM:   7    -0.233582646855E+04    0.13719E-05   -0.14523E-05  2960   0.401E-03
 145 F= -.23573647E+04 E0= -.23573646E+04  d E =-.285977E-02  mag=     2.9997
       N       E                     dE             d eps       ncg     rms          rms(c)
DAV:   1    -0.233582485701E+04    0.16129E-02   -0.14851E+00  4520   0.957E-01    0.323E-01
RMM:   2    -0.233582866384E+04   -0.38068E-02   -0.44617E-02  5830   0.154E-01    0.215E-01
RMM:   3    -0.233582948586E+04   -0.82201E-03   -0.45847E-03  5491   0.588E-02    0.323E-01
RMM:   4    -0.233582846304E+04    0.10228E-02   -0.11649E-03  5337   0.207E-02    0.149E-01
RMM:   5    -0.233582851690E+04   -0.53864E-04   -0.76512E-04  4608   0.158E-02    0.148E-01
RMM:   6    -0.233582829457E+04    0.22233E-03   -0.33760E-04  4158   0.107E-02    0.474E-02
RMM:   7    -0.233582826950E+04    0.25074E-04   -0.65574E-05  2968   0.655E-03    0.242E-02
RMM:   8    -0.233582825881E+04    0.10684E-04   -0.12921E-05  2942   0.282E-03    0.751E-03
RMM:   9    -0.233582825780E+04    0.10176E-05   -0.57437E-06  2924   0.210E-03
 146 F= -.23573672E+04 E0= -.23573672E+04  d E =-.254500E-02  mag=     2.9997
       N       E                     dE             d eps       ncg     rms          rms(c)
DAV:   1    -0.233582756051E+04    0.69830E-03   -0.24015E-01  4576   0.384E-01    0.130E-01
RMM:   2    -0.233582817959E+04   -0.61908E-03   -0.72344E-03  5870   0.623E-02    0.897E-02
RMM:   3    -0.233582831674E+04   -0.13716E-03   -0.76032E-04  4306   0.236E-02    0.134E-01
RMM:   4    -0.233582813657E+04    0.18017E-03   -0.19086E-04  3354   0.925E-03    0.586E-02
RMM:   5    -0.233582814727E+04   -0.10692E-04   -0.12682E-04  3059   0.729E-03    0.611E-02
RMM:   6    -0.233582811089E+04    0.36372E-04   -0.58368E-05  3048   0.582E-03    0.208E-02
RMM:   7    -0.233582810569E+04    0.52011E-05   -0.13270E-05  2916   0.390E-03
 147 F= -.23573674E+04 E0= -.23573673E+04  d E =-.269944E-02  mag=     2.9997
       N       E                     dE             d eps       ncg     rms          rms(c)
DAV:   1    -0.233582691682E+04    0.11941E-02   -0.11782E+00  4520   0.840E-01    0.276E-01
RMM:   2    -0.233582998704E+04   -0.30702E-02   -0.35594E-02  5908   0.134E-01    0.188E-01
RMM:   3    -0.233583040262E+04   -0.41558E-03   -0.35900E-03  5445   0.508E-02    0.227E-01
RMM:   4    -0.233582985691E+04    0.54572E-03   -0.88060E-04  5204   0.181E-02    0.127E-01
RMM:   5    -0.233582993257E+04   -0.75662E-04   -0.56478E-04  3934   0.132E-02    0.152E-01
RMM:   6    -0.233582974382E+04    0.18875E-03   -0.25593E-04  3414   0.929E-03    0.520E-02
RMM:   7    -0.233582971111E+04    0.32707E-04   -0.58631E-05  2966   0.603E-03    0.188E-02
RMM:   8    -0.233582970438E+04    0.67319E-05   -0.95229E-06  2926   0.255E-03
 148 F= -.23573695E+04 E0= -.23573695E+04  d E =-.215336E-02  mag=     2.9997
       N       E                     dE             d eps       ncg     rms          rms(c)
DAV:   1    -0.233582801300E+04    0.16981E-02   -0.75099E-01  4520   0.670E-01    0.220E-01
RMM:   2    -0.233582997708E+04   -0.19641E-02   -0.22776E-02  5866   0.107E-01    0.151E-01
RMM:   3    -0.233583026293E+04   -0.28585E-03   -0.23061E-03  5223   0.410E-02    0.188E-01
RMM:   4    -0.233582990106E+04    0.36187E-03   -0.57591E-04  4929   0.146E-02    0.109E-01
RMM:   5    -0.233582993171E+04   -0.30647E-04   -0.36457E-04  3374   0.109E-02    0.117E-01
RMM:   6    -0.233582981597E+04    0.11574E-03   -0.16528E-04  3226   0.811E-03    0.399E-02
RMM:   7    -0.233582979611E+04    0.19858E-04   -0.37609E-05  2946   0.526E-03    0.148E-02
RMM:   8    -0.233582979179E+04    0.43217E-05   -0.62773E-06  2894   0.222E-03
 149 F= -.23573701E+04 E0= -.23573700E+04  d E =-.268953E-02  mag=     2.9997
       N       E                     dE             d eps       ncg     rms          rms(c)
DAV:   1    -0.233582862192E+04    0.11742E-02   -0.10876E+00  4520   0.836E-01    0.284E-01
RMM:   2    -0.233583166886E+04   -0.30469E-02   -0.36275E-02  5872   0.136E-01    0.169E-01
RMM:   3    -0.233583189713E+04   -0.22827E-03   -0.35166E-03  5369   0.540E-02    0.181E-01
RMM:   4    -0.233583156344E+04    0.33369E-03   -0.80295E-04  5101   0.176E-02    0.108E-01
RMM:   5    -0.233583159383E+04   -0.30390E-04   -0.48280E-04  4468   0.141E-02    0.115E-01
RMM:   6    -0.233583144501E+04    0.14882E-03   -0.17149E-04  3121   0.843E-03    0.314E-02
RMM:   7    -0.233583144432E+04    0.68659E-06   -0.40489E-05  2974   0.482E-03
 150 F= -.23573724E+04 E0= -.23573723E+04  d E =-.230131E-02  mag=     2.9997
