       N       E                     dE             d eps       ncg     rms          rms(c)
DAV:   1     0.131465473447E+05    0.13147E+05   -0.84282E+05  4520   0.145E+03
DAV:   2    -0.100485366498E+04   -0.14151E+05   -0.13510E+05  4952   0.332E+02
DAV:   3    -0.247961120841E+04   -0.14748E+04   -0.14567E+04  5536   0.115E+02
DAV:   4    -0.252710813427E+04   -0.47497E+02   -0.47253E+02  6664   0.301E+01
DAV:   5    -0.252798718223E+04   -0.87905E+00   -0.87686E+00  6072   0.348E+00    0.170E+02
RMM:   6    -0.150087347128E+04    0.10271E+04   -0.19580E+03  4462   0.385E+01    0.733E+01
RMM:   7    -0.166387692580E+04   -0.16300E+03   -0.30468E+02  5319   0.152E+01    0.505E+01
RMM:   8    -0.171176265287E+04   -0.47886E+02   -0.49883E+01  5262   0.743E+00    0.402E+01
RMM:   9    -0.181045254058E+04   -0.98690E+02   -0.70652E+01  5123   0.787E+00    0.384E+01
RMM:  10    -0.192954820837E+04   -0.11910E+03   -0.63243E+01  5237   0.782E+00    0.282E+01
RMM:  11    -0.197404520936E+04   -0.44497E+02   -0.20559E+01  5381   0.408E+00    0.199E+01
RMM:  12    -0.206189020450E+04   -0.87845E+02   -0.34279E+01  5022   0.458E+00    0.166E+01
RMM:  13    -0.211864523388E+04   -0.56755E+02   -0.22493E+01  5246   0.387E+00    0.138E+01
RMM:  14    -0.222665970871E+04   -0.10801E+03   -0.78774E+01  4589   0.658E+00    0.920E+00
RMM:  15    -0.228310823275E+04   -0.56449E+02   -0.46423E+01  4745   0.494E+00    0.648E+00
RMM:  16    -0.230742446191E+04   -0.24316E+02   -0.25171E+01  4821   0.367E+00    0.311E+00
RMM:  17    -0.231376056846E+04   -0.63361E+01   -0.70941E+00  5156   0.187E+00    0.218E+00
RMM:  18    -0.231603729176E+04   -0.22767E+01   -0.23226E+00  5073   0.918E-01    0.145E+00
RMM:  19    -0.231693728065E+04   -0.89999E+00   -0.84241E-01  4735   0.580E-01    0.137E+00
RMM:  20    -0.231708669021E+04   -0.14941E+00   -0.15057E-01  5223   0.236E-01    0.197E+00
RMM:  21    -0.231716819240E+04   -0.81502E-01   -0.63803E-02  4925   0.146E-01    0.126E+00
RMM:  22    -0.231728570833E+04   -0.11752E+00   -0.78046E-02  4476   0.161E-01    0.830E-01
RMM:  23    -0.231734175855E+04   -0.56050E-01   -0.54722E-02  4500   0.148E-01    0.999E-01
RMM:  24    -0.231733712688E+04    0.46317E-02   -0.28209E-02  4900   0.108E-01    0.160E+00
RMM:  25    -0.231735274174E+04   -0.15615E-01   -0.51097E-03  5234   0.432E-02    0.116E+00
RMM:  26    -0.231737711779E+04   -0.24376E-01   -0.17641E-02  4696   0.771E-02    0.622E-01
RMM:  27    -0.231739683467E+04   -0.19717E-01   -0.13484E-02  4638   0.749E-02    0.671E-01
RMM:  28    -0.231741182707E+04   -0.14992E-01   -0.94277E-03  5089   0.608E-02    0.112E+00
RMM:  29    -0.231742259733E+04   -0.10770E-01   -0.66390E-03  5183   0.447E-02    0.162E+00
RMM:  30    -0.231741526155E+04    0.73358E-02   -0.80977E-03  4741   0.476E-02    0.102E+00
RMM:  31    -0.231741790782E+04   -0.26463E-02   -0.45402E-03  4645   0.415E-02    0.838E-01
RMM:  32    -0.231741587973E+04    0.20281E-02   -0.12013E-02  4917   0.590E-02    0.708E-01
RMM:  33    -0.231740992185E+04    0.59579E-02   -0.61811E-03  4920   0.468E-02    0.917E-01
RMM:  34    -0.231739855115E+04    0.11371E-01   -0.78840E-03  5341   0.436E-02    0.135E+00
RMM:  35    -0.231739415209E+04    0.43991E-02   -0.13274E-03  4679   0.234E-02    0.150E+00
RMM:  36    -0.231740307311E+04   -0.89210E-02   -0.15581E-03  4554   0.191E-02    0.121E+00
RMM:  37    -0.231742107911E+04   -0.18006E-01   -0.18569E-02  5087   0.657E-02    0.634E-01
RMM:  38    -0.231743012419E+04   -0.90451E-02   -0.98446E-03  4872   0.547E-02    0.780E-01
RMM:  39    -0.231744036929E+04   -0.10245E-01   -0.75416E-03  5357   0.441E-02    0.125E+00
RMM:  40    -0.231745247470E+04   -0.12105E-01   -0.49229E-03  5107   0.363E-02    0.172E+00
RMM:  41    -0.231744991638E+04    0.25583E-02   -0.41549E-04  3631   0.148E-02    0.168E+00
RMM:  42    -0.231745002323E+04   -0.10685E-03   -0.86458E-05  2963   0.449E-03    0.169E+00
RMM:  43    -0.231745058801E+04   -0.56477E-03   -0.95538E-06  2920   0.265E-03    0.171E+00
RMM:  44    -0.231744968472E+04    0.90329E-03   -0.12406E-05  2779   0.255E-03    0.167E+00
RMM:  45    -0.231744605728E+04    0.36274E-02   -0.38161E-04  4250   0.103E-02    0.148E+00
RMM:  46    -0.231745104752E+04   -0.49902E-02   -0.91490E-04  4917   0.157E-02    0.160E+00
RMM:  47    -0.231745658345E+04   -0.55359E-02   -0.10602E-03  4828   0.164E-02    0.174E+00
RMM:  48    -0.231745118709E+04    0.53964E-02   -0.45669E-04  4183   0.112E-02    0.161E+00
RMM:  49    -0.231744383965E+04    0.73474E-02   -0.16939E-03  4881   0.193E-02    0.136E+00
RMM:  50    -0.231743139617E+04    0.12443E-01   -0.95941E-03  5327   0.469E-02    0.828E-01
RMM:  51    -0.231742902156E+04    0.23746E-02   -0.27026E-03  5030   0.305E-02    0.714E-01
RMM:  52    -0.231742991846E+04   -0.89689E-03   -0.18656E-04  3405   0.876E-03    0.717E-01
RMM:  53    -0.231743072046E+04   -0.80200E-03   -0.11611E-04  3152   0.655E-03    0.735E-01
RMM:  54    -0.231743400786E+04   -0.32874E-02   -0.13019E-03  4828   0.176E-02    0.861E-01
RMM:  55    -0.231743622261E+04   -0.22147E-02   -0.59179E-04  4347   0.141E-02    0.976E-01
RMM:  56    -0.231743499369E+04    0.12289E-02   -0.78379E-05  2951   0.599E-03    0.920E-01
RMM:  57    -0.231743237846E+04    0.26152E-02   -0.62192E-04  4188   0.116E-02    0.789E-01
RMM:  58    -0.231743008222E+04    0.22962E-02   -0.79660E-04  4420   0.150E-02    0.677E-01
RMM:  59    -0.231742855838E+04    0.15238E-02   -0.62066E-04  4357   0.134E-02    0.619E-01
RMM:  60    -0.231742797625E+04    0.58212E-03   -0.13837E-04  3261   0.767E-03    0.596E-01
RMM:  61    -0.231742777087E+04    0.20538E-03   -0.75359E-05  3017   0.564E-03    0.600E-01
RMM:  62    -0.231742652669E+04    0.12442E-02   -0.38610E-04  4211   0.981E-03    0.602E-01
RMM:  63    -0.231742414087E+04    0.23858E-02   -0.10134E-03  4554   0.159E-02    0.622E-01
RMM:  64    -0.231741851752E+04    0.56234E-02   -0.39774E-03  5161   0.305E-02    0.800E-01
RMM:  65    -0.231741149507E+04    0.70224E-02   -0.41411E-03  5195   0.331E-02    0.110E+00
RMM:  66    -0.231740754561E+04    0.39495E-02   -0.14698E-03  4751   0.198E-02    0.127E+00
RMM:  67    -0.231740708963E+04    0.45598E-03   -0.14109E-04  3272   0.713E-03    0.128E+00
RMM:  68    -0.231740705972E+04    0.29906E-04   -0.11633E-05  2911   0.334E-03    0.128E+00
RMM:  69    -0.231740729528E+04   -0.23556E-03   -0.29642E-06  2807   0.199E-03    0.128E+00
RMM:  70    -0.231740866288E+04   -0.13676E-02   -0.58680E-05  2835   0.389E-03    0.122E+00
RMM:  71    -0.231741555374E+04   -0.68909E-02   -0.21493E-03  4736   0.217E-02    0.953E-01
RMM:  72    -0.231742373618E+04   -0.81824E-02   -0.66529E-03  5111   0.409E-02    0.655E-01
RMM:  73    -0.231742701352E+04   -0.32773E-02   -0.24192E-03  4831   0.266E-02    0.655E-01
RMM:  74    -0.231742912432E+04   -0.21108E-02   -0.99721E-04  4758   0.156E-02    0.710E-01
RMM:  75    -0.231742963421E+04   -0.50989E-03   -0.12504E-04  3227   0.779E-03    0.735E-01
RMM:  76    -0.231742902545E+04    0.60876E-03   -0.35783E-05  2897   0.419E-03    0.719E-01
RMM:  77    -0.231742917480E+04   -0.14935E-03   -0.34238E-06  2704   0.195E-03    0.724E-01
RMM:  78    -0.231742948158E+04   -0.30678E-03   -0.11190E-05  2703   0.179E-03    0.734E-01
RMM:  79    -0.231742918701E+04    0.29457E-03   -0.80308E-06  2526   0.178E-03    0.726E-01
RMM:  80    -0.231742782400E+04    0.13630E-02   -0.21503E-04  3399   0.683E-03    0.693E-01
RMM:  81    -0.231742491212E+04    0.29119E-02   -0.11325E-03  4434   0.157E-02    0.673E-01
RMM:  82    -0.231742285573E+04    0.20564E-02   -0.77982E-04  4213   0.146E-02    0.705E-01
RMM:  83    -0.231742380974E+04   -0.95402E-03   -0.76344E-05  2968   0.552E-03    0.681E-01
RMM:  84    -0.231742436795E+04   -0.55820E-03   -0.54677E-05  2910   0.422E-03    0.669E-01
RMM:  85    -0.231742712112E+04   -0.27532E-02   -0.10987E-03  4578   0.156E-02    0.656E-01
RMM:  86    -0.231743185962E+04   -0.47385E-02   -0.29984E-03  4955   0.269E-02    0.786E-01
RMM:  87    -0.231743838895E+04   -0.65293E-02   -0.35807E-03  5229   0.295E-02    0.110E+00
RMM:  88    -0.231744854158E+04   -0.10153E-01   -0.42134E-03  5077   0.316E-02    0.154E+00
RMM:  89    -0.231746850274E+04   -0.19961E-01   -0.76286E-03  5257   0.421E-02    0.203E+00
RMM:  90    -0.231748182697E+04   -0.13324E-01   -0.34139E-03  4984   0.307E-02    0.213E+00
RMM:  91    -0.231748180156E+04    0.25413E-04   -0.40727E-04  3880   0.105E-02    0.213E+00
RMM:  92    -0.231748185313E+04   -0.51572E-04   -0.26390E-05  2958   0.442E-03    0.213E+00
RMM:  93    -0.231748187875E+04   -0.25615E-04   -0.30112E-06  2836   0.226E-03    0.213E+00
RMM:  94    -0.231747887291E+04    0.30058E-02   -0.11016E-04  3006   0.498E-03    0.214E+00
RMM:  95    -0.231748003327E+04   -0.11604E-02   -0.10474E-05  2622   0.272E-03    0.214E+00
RMM:  96    -0.231750801319E+04   -0.27980E-01   -0.10572E-02  5120   0.460E-02    0.185E+00
RMM:  97    -0.231749435192E+04    0.13661E-01   -0.18993E-03  4946   0.225E-02    0.206E+00
RMM:  98    -0.231749509616E+04   -0.74423E-03   -0.50945E-05  2962   0.650E-03    0.205E+00
RMM:  99    -0.231749983753E+04   -0.47414E-02   -0.26987E-04  3479   0.738E-03    0.199E+00
RMM: 100    -0.231749964436E+04    0.19317E-03   -0.14584E-05  2729   0.312E-03    0.199E+00
RMM: 101    -0.231749640693E+04    0.32374E-02   -0.12108E-04  3041   0.494E-03    0.203E+00
RMM: 102    -0.231749850459E+04   -0.20977E-02   -0.38989E-05  2805   0.369E-03    0.201E+00
RMM: 103    -0.231750502512E+04   -0.65205E-02   -0.62461E-04  4312   0.111E-02    0.191E+00
RMM: 104    -0.231750783069E+04   -0.28056E-02   -0.21002E-04  3323   0.852E-03    0.186E+00
RMM: 105    -0.231750791734E+04   -0.86646E-04   -0.23638E-05  2774   0.316E-03    0.186E+00
RMM: 106    -0.231750317379E+04    0.47435E-02   -0.31502E-04  3518   0.785E-03    0.195E+00
RMM: 107    -0.231749887704E+04    0.42968E-02   -0.33421E-04  3749   0.889E-03    0.201E+00
RMM: 108    -0.231749750176E+04    0.13753E-02   -0.77663E-05  2992   0.503E-03    0.202E+00
RMM: 109    -0.231749927832E+04   -0.17766E-02   -0.34893E-05  2790   0.372E-03    0.200E+00
RMM: 110    -0.231750043466E+04   -0.11563E-02   -0.28291E-05  2759   0.278E-03    0.198E+00
RMM: 111    -0.231746699025E+04    0.33444E-01   -0.13627E-02  5060   0.518E-02    0.208E+00
RMM: 112    -0.231746797177E+04   -0.98153E-03   -0.68462E-04  3846   0.216E-02    0.207E+00
RMM: 113    -0.231746932725E+04   -0.13555E-02   -0.96668E-05  3040   0.482E-03    0.207E+00
RMM: 114    -0.231748003298E+04   -0.10706E-01   -0.15048E-03  4601   0.175E-02    0.210E+00
RMM: 115    -0.231748292859E+04   -0.28956E-02   -0.29121E-04  3471   0.111E-02    0.210E+00
RMM: 116    -0.231746416814E+04    0.18760E-01   -0.40021E-03  5036   0.292E-02    0.202E+00
RMM: 117    -0.231745962746E+04    0.45407E-02   -0.82888E-04  4419   0.172E-02    0.193E+00
RMM: 118    -0.231745493699E+04    0.46905E-02   -0.65687E-04  4794   0.116E-02    0.181E+00
RMM: 119    -0.231744066708E+04    0.14270E-01   -0.49087E-03  5199   0.328E-02    0.131E+00
RMM: 120    -0.231743366502E+04    0.70021E-02   -0.36839E-03  5105   0.316E-02    0.939E-01
RMM: 121    -0.231743168825E+04    0.19768E-02   -0.12293E-03  4862   0.177E-02    0.817E-01
RMM: 122    -0.231742551321E+04    0.61750E-02   -0.49302E-03  5225   0.328E-02    0.675E-01
RMM: 123    -0.231742207917E+04    0.34340E-02   -0.24715E-03  4852   0.277E-02    0.730E-01
RMM: 124    -0.231741839869E+04    0.36805E-02   -0.21340E-03  5105   0.225E-02    0.861E-01
RMM: 125    -0.231741801272E+04    0.38597E-03   -0.14420E-04  3320   0.906E-03    0.875E-01
RMM: 126    -0.231741895772E+04   -0.94500E-03   -0.60885E-05  2965   0.475E-03    0.837E-01
RMM: 127    -0.231741834498E+04    0.61274E-03   -0.25944E-05  2907   0.318E-03    0.862E-01
RMM: 128    -0.231742070305E+04   -0.23581E-02   -0.45787E-04  3914   0.104E-02    0.770E-01
RMM: 129    -0.231742476614E+04   -0.40631E-02   -0.21645E-03  4858   0.226E-02    0.661E-01
RMM: 130    -0.231742941752E+04   -0.46514E-02   -0.34536E-03  5039   0.288E-02    0.703E-01
RMM: 131    -0.231743494297E+04   -0.55254E-02   -0.34613E-03  5063   0.295E-02    0.940E-01
RMM: 132    -0.231743757338E+04   -0.26304E-02   -0.89587E-04  4536   0.170E-02    0.109E+00
RMM: 133    -0.231743756727E+04    0.61122E-05   -0.98648E-05  3081   0.612E-03
   1 F= -.23387427E+04 E0= -.23387293E+04  d E =-.233874E+04  mag=     4.7245
       N       E                     dE             d eps       ncg     rms          rms(c)
DAV:   1    -0.231740274867E+04    0.34825E-01   -0.14378E+01  4608   0.332E+00    0.145E+00
RMM:   2    -0.231768840295E+04   -0.28565E+00   -0.26202E+00  6582   0.950E-01    0.199E+00
RMM:   3    -0.231766026865E+04    0.28134E-01   -0.26864E-01  6209   0.327E-01    0.144E+00
RMM:   4    -0.231765939814E+04    0.87051E-03   -0.31261E-02  5594   0.793E-02    0.166E+00
RMM:   5    -0.231766118492E+04   -0.17868E-02   -0.87137E-03  5495   0.475E-02    0.176E+00
RMM:   6    -0.231764547691E+04    0.15708E-01   -0.15750E-02  5583   0.558E-02    0.101E+00
RMM:   7    -0.231763635526E+04    0.91217E-02   -0.12307E-02  5290   0.514E-02    0.655E-01
RMM:   8    -0.231762602259E+04    0.10333E-01   -0.16177E-02  5298   0.691E-02    0.697E-01
RMM:   9    -0.231761436699E+04    0.11656E-01   -0.92569E-03  4994   0.551E-02    0.963E-01
RMM:  10    -0.231761088740E+04    0.34796E-02   -0.13589E-03  5059   0.233E-02    0.106E+00
RMM:  11    -0.231763544303E+04   -0.24556E-01   -0.33486E-02  4754   0.873E-02    0.641E-01
RMM:  12    -0.231763943991E+04   -0.39969E-02   -0.68749E-03  4738   0.547E-02    0.790E-01
RMM:  13    -0.231765294490E+04   -0.13505E-01   -0.13339E-02  5384   0.548E-02    0.147E+00
RMM:  14    -0.231764359847E+04    0.93464E-02   -0.31661E-03  4835   0.341E-02    0.109E+00
RMM:  15    -0.231764041497E+04    0.31835E-02   -0.16395E-03  4661   0.193E-02    0.930E-01
RMM:  16    -0.231763417930E+04    0.62357E-02   -0.56600E-03  5065   0.362E-02    0.644E-01
RMM:  17    -0.231763155220E+04    0.26271E-02   -0.25923E-03  4796   0.281E-02    0.592E-01
RMM:  18    -0.231762900511E+04    0.25471E-02   -0.18121E-03  5085   0.214E-02    0.628E-01
RMM:  19    -0.231762694374E+04    0.20614E-02   -0.92321E-04  4461   0.171E-02    0.707E-01
RMM:  20    -0.231762958811E+04   -0.26444E-02   -0.86942E-04  4421   0.144E-02    0.595E-01
RMM:  21    -0.231763372802E+04   -0.41399E-02   -0.46038E-03  5049   0.332E-02    0.520E-01
RMM:  22    -0.231764142796E+04   -0.76999E-02   -0.95761E-03  5258   0.492E-02    0.873E-01
RMM:  23    -0.231764228770E+04   -0.85973E-03   -0.74445E-04  4309   0.198E-02    0.943E-01
RMM:  24    -0.231764362191E+04   -0.13342E-02   -0.29870E-04  3891   0.775E-03    0.104E+00
RMM:  25    -0.231764295502E+04    0.66689E-03   -0.21333E-05  2889   0.503E-03    0.100E+00
RMM:  26    -0.231764019607E+04    0.27590E-02   -0.40165E-04  3777   0.936E-03    0.820E-01
RMM:  27    -0.231763567697E+04    0.45191E-02   -0.21129E-03  4661   0.220E-02    0.539E-01
RMM:  28    -0.231763390523E+04    0.17717E-02   -0.99810E-04  4342   0.173E-02    0.444E-01
RMM:  29    -0.231763257414E+04    0.13311E-02   -0.64505E-04  4465   0.125E-02    0.404E-01
RMM:  30    -0.231763087409E+04    0.17000E-02   -0.76911E-04  4421   0.148E-02    0.414E-01
RMM:  31    -0.231762922642E+04    0.16477E-02   -0.76451E-04  4577   0.147E-02    0.462E-01
RMM:  32    -0.231762824699E+04    0.97942E-03   -0.30475E-04  3825   0.976E-03    0.500E-01
RMM:  33    -0.231762799941E+04    0.24759E-03   -0.42596E-05  2976   0.491E-03    0.509E-01
RMM:  34    -0.231762814645E+04   -0.14705E-03   -0.52866E-06  2790   0.282E-03    0.503E-01
RMM:  35    -0.231762830383E+04   -0.15737E-03   -0.41629E-06  2570   0.168E-03    0.496E-01
RMM:  36    -0.231762838103E+04   -0.77206E-04   -0.15387E-06  2358   0.120E-03    0.493E-01
RMM:  37    -0.231762839000E+04   -0.89649E-05   -0.27799E-07  1674   0.746E-04
   2 F= -.23389347E+04 E0= -.23389314E+04  d E =-.191962E+00  mag=     5.1187
       N       E                     dE             d eps       ncg     rms          rms(c)
DAV:   1    -0.231720663016E+04    0.42175E+00   -0.29814E+01  4504   0.488E+00    0.185E+00
RMM:   2    -0.231778405682E+04   -0.57743E+00   -0.55712E+00  6576   0.144E+00    0.240E+00
RMM:   3    -0.231773563652E+04    0.48420E-01   -0.50829E-01  6091   0.472E-01    0.127E+00
RMM:   4    -0.231772585314E+04    0.97834E-02   -0.62590E-02  6088   0.124E-01    0.924E-01
RMM:   5    -0.231772020847E+04    0.56447E-02   -0.12274E-02  6029   0.578E-02    0.634E-01
RMM:   6    -0.231771729633E+04    0.29121E-02   -0.10143E-02  5758   0.545E-02    0.664E-01
RMM:   7    -0.231771690317E+04    0.39316E-03   -0.34910E-03  5072   0.357E-02    0.953E-01
RMM:   8    -0.231771759681E+04   -0.69364E-03   -0.70674E-03  5065   0.447E-02    0.764E-01
RMM:   9    -0.231771544681E+04    0.21500E-02   -0.67287E-03  5217   0.408E-02    0.466E-01
RMM:  10    -0.231771446673E+04    0.98008E-03   -0.44166E-03  5010   0.356E-02    0.522E-01
RMM:  11    -0.231771296396E+04    0.15028E-02   -0.15315E-03  4683   0.225E-02    0.593E-01
RMM:  12    -0.231771552628E+04   -0.25623E-02   -0.26642E-03  4593   0.262E-02    0.465E-01
RMM:  13    -0.231771684080E+04   -0.13145E-02   -0.31079E-03  4781   0.310E-02    0.452E-01
RMM:  14    -0.231772013810E+04   -0.32973E-02   -0.58901E-03  5121   0.404E-02    0.754E-01
RMM:  15    -0.231771565408E+04    0.44840E-02   -0.89280E-03  4826   0.465E-02    0.433E-01
RMM:  16    -0.231771302900E+04    0.26251E-02   -0.55372E-03  4897   0.404E-02    0.548E-01
RMM:  17    -0.231770666186E+04    0.63671E-02   -0.72133E-03  5374   0.452E-02    0.913E-01
RMM:  18    -0.231770716292E+04   -0.50106E-03   -0.34241E-04  3796   0.136E-02    0.886E-01
RMM:  19    -0.231770874758E+04   -0.15847E-02   -0.25929E-04  3682   0.893E-03    0.780E-01
RMM:  20    -0.231771224095E+04   -0.34934E-02   -0.24479E-03  4963   0.258E-02    0.520E-01
RMM:  21    -0.231771528161E+04   -0.30407E-02   -0.36806E-03  5089   0.326E-02    0.327E-01
RMM:  22    -0.231771785855E+04   -0.25769E-02   -0.31843E-03  5194   0.298E-02    0.309E-01
RMM:  23    -0.231771968004E+04   -0.18215E-02   -0.12943E-03  4772   0.202E-02    0.390E-01
RMM:  24    -0.231772105286E+04   -0.13728E-02   -0.58752E-04  4605   0.135E-02    0.473E-01
RMM:  25    -0.231772137109E+04   -0.31823E-03   -0.89009E-05  3173   0.662E-03    0.500E-01
RMM:  26    -0.231772159629E+04   -0.22520E-03   -0.20604E-05  2955   0.371E-03    0.518E-01
RMM:  27    -0.231772032718E+04    0.12691E-02   -0.25905E-04  3571   0.835E-03    0.455E-01
RMM:  28    -0.231771617797E+04    0.41492E-02   -0.48301E-03  5065   0.349E-02    0.351E-01
RMM:  29    -0.231771408677E+04    0.20912E-02   -0.25024E-03  4815   0.281E-02    0.409E-01
RMM:  30    -0.231771176237E+04    0.23244E-02   -0.17667E-03  5210   0.218E-02    0.533E-01
RMM:  31    -0.231770855910E+04    0.32033E-02   -0.15684E-03  4772   0.218E-02    0.714E-01
RMM:  32    -0.231770703625E+04    0.15229E-02   -0.46759E-04  4240   0.127E-02    0.797E-01
RMM:  33    -0.231770772227E+04   -0.68602E-03   -0.36509E-05  2979   0.490E-03    0.758E-01
RMM:  34    -0.231770900556E+04   -0.12833E-02   -0.15725E-04  3300   0.659E-03    0.684E-01
RMM:  35    -0.231771136662E+04   -0.23611E-02   -0.75785E-04  4407   0.141E-02    0.545E-01
RMM:  36    -0.231771240479E+04   -0.10382E-02   -0.27401E-04  3599   0.925E-03    0.494E-01
RMM:  37    -0.231771306304E+04   -0.65826E-03   -0.10544E-04  3193   0.579E-03    0.472E-01
RMM:  38    -0.231771363856E+04   -0.57551E-03   -0.76711E-05  3065   0.545E-03    0.454E-01
RMM:  39    -0.231771427765E+04   -0.63909E-03   -0.10820E-04  3206   0.598E-03    0.433E-01
RMM:  40    -0.231771545386E+04   -0.11762E-02   -0.39701E-04  3986   0.105E-02    0.400E-01
RMM:  41    -0.231771650423E+04   -0.10504E-02   -0.42500E-04  4091   0.112E-02    0.393E-01
RMM:  42    -0.231771678341E+04   -0.27918E-03   -0.82022E-05  3117   0.587E-03    0.399E-01
RMM:  43    -0.231771674921E+04    0.34195E-04   -0.66274E-06  2772   0.269E-03    0.400E-01
RMM:  44    -0.231771668174E+04    0.67474E-04   -0.19366E-06  2477   0.163E-03    0.398E-01
RMM:  45    -0.231771670153E+04   -0.19789E-04   -0.90633E-07  2298   0.115E-03    0.397E-01
RMM:  46    -0.231771750934E+04   -0.80781E-03   -0.20730E-04  3652   0.729E-03    0.404E-01
RMM:  47    -0.231771820813E+04   -0.69879E-03   -0.19112E-04  3515   0.769E-03    0.426E-01
RMM:  48    -0.231771819148E+04    0.16650E-04   -0.15936E-05  2823   0.359E-03    0.429E-01
RMM:  49    -0.231771817749E+04    0.13990E-04   -0.23323E-06  2438   0.149E-03    0.430E-01
RMM:  50    -0.231771833607E+04   -0.15858E-03   -0.69931E-06  2608   0.191E-03    0.436E-01
RMM:  51    -0.231771862124E+04   -0.28517E-03   -0.25912E-05  2887   0.279E-03    0.445E-01
RMM:  52    -0.231771901914E+04   -0.39790E-03   -0.45674E-05  2966   0.365E-03    0.463E-01
RMM:  53    -0.231771897902E+04    0.40122E-04   -0.32166E-06  2533   0.236E-03    0.464E-01
RMM:  54    -0.231771886890E+04    0.11012E-03   -0.28690E-06  2014   0.116E-03    0.461E-01
RMM:  55    -0.231771871398E+04    0.15492E-03   -0.84149E-06  2423   0.166E-03    0.457E-01
RMM:  56    -0.231771841010E+04    0.30388E-03   -0.34921E-05  2839   0.302E-03    0.450E-01
RMM:  57    -0.231771834510E+04    0.65001E-04   -0.11872E-05  2625   0.217E-03    0.455E-01
RMM:  58    -0.231771956198E+04   -0.12169E-02   -0.35668E-04  3952   0.941E-03    0.496E-01
RMM:  59    -0.231771956028E+04    0.17056E-05   -0.27683E-05  2814   0.453E-03
   3 F= -.23390279E+04 E0= -.23390175E+04  d E =-.285210E+00  mag=     4.7836
       N       E                     dE             d eps       ncg     rms          rms(c)
DAV:   1    -0.231771523292E+04    0.43291E-02   -0.95679E+00  4512   0.285E+00    0.103E+00
RMM:   2    -0.231782414912E+04   -0.10892E+00   -0.11080E+00  6479   0.713E-01    0.979E-01
RMM:   3    -0.231782860216E+04   -0.44530E-02   -0.10724E-01  6287   0.230E-01    0.131E+00
RMM:   4    -0.231782210808E+04    0.64941E-02   -0.12800E-02  6018   0.591E-02    0.918E-01
RMM:   5    -0.231782201993E+04    0.88149E-04   -0.80802E-04  3964   0.152E-02    0.918E-01
RMM:   6    -0.231782163744E+04    0.38249E-03   -0.58645E-05  3033   0.535E-03    0.879E-01
RMM:   7    -0.231782045822E+04    0.11792E-02   -0.19443E-03  4834   0.211E-02    0.754E-01
RMM:   8    -0.231781502895E+04    0.54293E-02   -0.80827E-03  5321   0.516E-02    0.477E-01
RMM:   9    -0.231781132572E+04    0.37032E-02   -0.69556E-03  5006   0.469E-02    0.525E-01
RMM:  10    -0.231780834080E+04    0.29849E-02   -0.24563E-03  5085   0.293E-02    0.650E-01
RMM:  11    -0.231781242674E+04   -0.40859E-02   -0.20551E-03  4495   0.238E-02    0.463E-01
RMM:  12    -0.231781528932E+04   -0.28626E-02   -0.48271E-03  4811   0.380E-02    0.333E-01
RMM:  13    -0.231781880519E+04   -0.35159E-02   -0.64405E-03  5197   0.430E-02    0.568E-01
RMM:  14    -0.231781962583E+04   -0.82064E-03   -0.59095E-04  4446   0.171E-02    0.655E-01
RMM:  15    -0.231781923601E+04    0.38982E-03   -0.10710E-04  3228   0.598E-03    0.616E-01
RMM:  16    -0.231781692319E+04    0.23128E-02   -0.12039E-03  4338   0.176E-02    0.400E-01
RMM:  17    -0.231781514418E+04    0.17790E-02   -0.16286E-03  4580   0.223E-02    0.278E-01
RMM:  18    -0.231781442653E+04    0.71764E-03   -0.69382E-04  4444   0.149E-02    0.262E-01
RMM:  19    -0.231781355056E+04    0.87597E-03   -0.61899E-04  4603   0.131E-02    0.278E-01
RMM:  20    -0.231781266534E+04    0.88522E-03   -0.47642E-04  4156   0.125E-02    0.316E-01
RMM:  21    -0.231781228018E+04    0.38515E-03   -0.13777E-04  3299   0.733E-03    0.335E-01
RMM:  22    -0.231781277279E+04   -0.49261E-03   -0.62502E-05  2987   0.558E-03    0.310E-01
RMM:  23    -0.231781484799E+04   -0.20752E-02   -0.21276E-03  4565   0.229E-02    0.272E-01
RMM:  24    -0.231781684022E+04   -0.19922E-02   -0.20981E-03  4481   0.256E-02    0.391E-01
RMM:  25    -0.231781594314E+04    0.89708E-03   -0.21157E-04  3304   0.911E-03    0.344E-01
RMM:  26    -0.231781589505E+04    0.48087E-04   -0.17080E-05  2798   0.356E-03    0.341E-01
RMM:  27    -0.231781569665E+04    0.19840E-03   -0.26761E-05  2847   0.302E-03    0.335E-01
RMM:  28    -0.231781392149E+04    0.17752E-02   -0.16830E-03  4767   0.204E-02    0.315E-01
RMM:  29    -0.231780875110E+04    0.51704E-02   -0.84520E-03  5170   0.483E-02    0.642E-01
RMM:  30    -0.231780979522E+04   -0.10441E-02   -0.31001E-04  3617   0.140E-02    0.568E-01
RMM:  31    -0.231780850848E+04    0.12867E-02   -0.29766E-04  3878   0.836E-03    0.650E-01
RMM:  32    -0.231780830175E+04    0.20673E-03   -0.34809E-05  2976   0.453E-03    0.669E-01
RMM:  33    -0.231780935342E+04   -0.10517E-02   -0.19005E-04  3292   0.782E-03    0.579E-01
RMM:  34    -0.231781104482E+04   -0.16914E-02   -0.78704E-04  4516   0.145E-02    0.439E-01
RMM:  35    -0.231781215003E+04   -0.11052E-02   -0.56202E-04  4145   0.132E-02    0.355E-01
RMM:  36    -0.231781333982E+04   -0.11898E-02   -0.73409E-04  4682   0.142E-02    0.287E-01
RMM:  37    -0.231781461782E+04   -0.12780E-02   -0.11007E-03  4658   0.181E-02    0.257E-01
RMM:  38    -0.231781576829E+04   -0.11505E-02   -0.99035E-04  4699   0.168E-02    0.292E-01
RMM:  39    -0.231781617279E+04   -0.40450E-03   -0.20257E-04  3480   0.863E-03    0.320E-01
RMM:  40    -0.231781598124E+04    0.19155E-03   -0.18452E-05  2902   0.411E-03    0.314E-01
RMM:  41    -0.231781603108E+04   -0.49840E-04   -0.31991E-06  2669   0.193E-03    0.316E-01
RMM:  42    -0.231781601812E+04    0.12960E-04   -0.89281E-07  2423   0.143E-03    0.316E-01
RMM:  43    -0.231781574289E+04    0.27523E-03   -0.29454E-05  2752   0.281E-03    0.302E-01
RMM:  44    -0.231781515809E+04    0.58480E-03   -0.18053E-04  3501   0.667E-03    0.282E-01
RMM:  45    -0.231781372358E+04    0.14345E-02   -0.12429E-03  4650   0.178E-02    0.292E-01
RMM:  46    -0.231781210821E+04    0.16154E-02   -0.15408E-03  4655   0.212E-02    0.382E-01
RMM:  47    -0.231781020253E+04    0.19057E-02   -0.13087E-03  4950   0.191E-02    0.518E-01
RMM:  48    -0.231780899796E+04    0.12046E-02   -0.44488E-04  4135   0.116E-02    0.600E-01
RMM:  49    -0.231780898956E+04    0.84042E-05   -0.39458E-05  2965   0.444E-03
   4 F= -.23391183E+04 E0= -.23391166E+04  d E =-.903682E-01  mag=     5.2193
       N       E                     dE             d eps       ncg     rms          rms(c)
DAV:   1    -0.231775236034E+04    0.56638E-01   -0.76227E+00  4496   0.255E+00    0.108E+00
RMM:   2    -0.231784601108E+04   -0.93651E-01   -0.91225E-01  6466   0.647E-01    0.105E+00
RMM:   3    -0.231784615525E+04   -0.14417E-03   -0.86182E-02  6217   0.209E-01    0.111E+00
RMM:   4    -0.231783800276E+04    0.81525E-02   -0.12066E-02  5850   0.603E-02    0.566E-01
RMM:   5    -0.231783682838E+04    0.11744E-02   -0.48652E-03  5580   0.413E-02    0.642E-01
RMM:   6    -0.231783422269E+04    0.26057E-02   -0.47511E-03  5357   0.371E-02    0.783E-01
RMM:   7    -0.231783516517E+04   -0.94248E-03   -0.54566E-04  4202   0.184E-02    0.682E-01
RMM:   8    -0.231783586143E+04   -0.69626E-03   -0.66696E-03  5194   0.429E-02    0.551E-01
RMM:   9    -0.231783564807E+04    0.21336E-03   -0.33111E-03  5038   0.290E-02    0.424E-01
RMM:  10    -0.231783598259E+04   -0.33452E-03   -0.35971E-03  4879   0.312E-02    0.542E-01
RMM:  11    -0.231783505647E+04    0.92613E-03   -0.14943E-03  4517   0.228E-02    0.650E-01
RMM:  12    -0.231783631625E+04   -0.12598E-02   -0.12656E-03  4377   0.188E-02    0.486E-01
RMM:  13    -0.231783696770E+04   -0.65145E-03   -0.76756E-04  4250   0.164E-02    0.399E-01
RMM:  14    -0.231783815227E+04   -0.11846E-02   -0.24404E-03  5088   0.264E-02    0.377E-01
RMM:  15    -0.231783862250E+04   -0.47023E-03   -0.43527E-04  4241   0.133E-02    0.417E-01
RMM:  16    -0.231783773545E+04    0.88705E-03   -0.20863E-03  4369   0.235E-02    0.330E-01
RMM:  17    -0.231783449781E+04    0.32376E-02   -0.54642E-03  4825   0.400E-02    0.541E-01
RMM:  18    -0.231783305467E+04    0.14431E-02   -0.10367E-03  4447   0.202E-02    0.635E-01
RMM:  19    -0.231783474452E+04   -0.16899E-02   -0.25263E-04  3650   0.863E-03    0.535E-01
RMM:  20    -0.231783864056E+04   -0.38960E-02   -0.43991E-03  4867   0.340E-02    0.348E-01
RMM:  21    -0.231784123774E+04   -0.25972E-02   -0.35699E-03  4761   0.338E-02    0.451E-01
RMM:  22    -0.231784530815E+04   -0.40704E-02   -0.35699E-03  5318   0.313E-02    0.773E-01
RMM:  23    -0.231784497220E+04    0.33595E-03   -0.20996E-04  3338   0.122E-02    0.761E-01
RMM:  24    -0.231784630751E+04   -0.13353E-02   -0.22039E-04  3647   0.746E-03    0.872E-01
RMM:  25    -0.231784600439E+04    0.30313E-03   -0.18123E-05  2875   0.452E-03    0.860E-01
RMM:  26    -0.231784572531E+04    0.27908E-03   -0.92749E-06  2631   0.220E-03    0.835E-01
RMM:  27    -0.231784580209E+04   -0.76780E-04   -0.23949E-05  2800   0.297E-03    0.811E-01
RMM:  28    -0.231784383679E+04    0.19653E-02   -0.37687E-04  3747   0.960E-03    0.600E-01
RMM:  29    -0.231784379131E+04    0.45481E-04   -0.25016E-04  3728   0.929E-03    0.519E-01
RMM:  30    -0.231784544239E+04   -0.16511E-02   -0.51595E-04  4486   0.121E-02    0.599E-01
RMM:  31    -0.231784664000E+04   -0.11976E-02   -0.24526E-04  3701   0.917E-03    0.673E-01
RMM:  32    -0.231784651285E+04    0.12715E-03   -0.18935E-05  2854   0.413E-03    0.673E-01
RMM:  33    -0.231784641699E+04    0.95858E-04   -0.86331E-06  2643   0.233E-03    0.661E-01
RMM:  34    -0.231784667223E+04   -0.25524E-03   -0.98966E-06  2714   0.252E-03    0.673E-01
RMM:  35    -0.231784638933E+04    0.28290E-03   -0.69778E-06  2507   0.225E-03    0.661E-01
RMM:  36    -0.231784464694E+04    0.17424E-02   -0.47793E-04  4344   0.115E-02    0.581E-01
RMM:  37    -0.231784063233E+04    0.40146E-02   -0.42576E-03  5179   0.345E-02    0.385E-01
RMM:  38    -0.231783882245E+04    0.18099E-02   -0.26635E-03  5027   0.283E-02    0.357E-01
RMM:  39    -0.231783799984E+04    0.82261E-03   -0.87676E-04  4751   0.153E-02    0.380E-01
RMM:  40    -0.231783702356E+04    0.97628E-03   -0.50626E-04  4253   0.123E-02    0.420E-01
RMM:  41    -0.231783451882E+04    0.25047E-02   -0.15424E-03  4815   0.210E-02    0.573E-01
RMM:  42    -0.231783077530E+04    0.37435E-02   -0.20212E-03  4862   0.246E-02    0.819E-01
RMM:  43    -0.231782825597E+04    0.25193E-02   -0.91264E-04  4543   0.163E-02    0.971E-01
RMM:  44    -0.231782881273E+04   -0.55676E-03   -0.48561E-05  2993   0.502E-03    0.937E-01
RMM:  45    -0.231782938087E+04   -0.56814E-03   -0.25003E-05  2819   0.341E-03    0.901E-01
RMM:  46    -0.231783048522E+04   -0.11043E-02   -0.10232E-04  3110   0.538E-03    0.834E-01
RMM:  47    -0.231783221069E+04   -0.17255E-02   -0.35892E-04  4052   0.972E-03    0.706E-01
RMM:  48    -0.231783326578E+04   -0.10551E-02   -0.23122E-04  3527   0.870E-03    0.623E-01
RMM:  49    -0.231783507207E+04   -0.18063E-02   -0.61698E-04  4372   0.131E-02    0.491E-01
RMM:  50    -0.231783637083E+04   -0.12988E-02   -0.49323E-04  4167   0.124E-02    0.407E-01
RMM:  51    -0.231783761126E+04   -0.12404E-02   -0.59104E-04  4374   0.133E-02    0.344E-01
RMM:  52    -0.231783853085E+04   -0.91960E-03   -0.43500E-04  4018   0.116E-02    0.332E-01
RMM:  53    -0.231783964296E+04   -0.11121E-02   -0.67468E-04  4487   0.143E-02    0.331E-01
RMM:  54    -0.231784028439E+04   -0.64143E-03   -0.29975E-04  3738   0.101E-02    0.359E-01
RMM:  55    -0.231784058954E+04   -0.30515E-03   -0.88864E-05  3130   0.592E-03    0.378E-01
RMM:  56    -0.231784076865E+04   -0.17910E-03   -0.24789E-05  2963   0.411E-03    0.391E-01
RMM:  57    -0.231784080024E+04   -0.31596E-04   -0.47759E-06  2769   0.265E-03    0.393E-01
RMM:  58    -0.231784071664E+04    0.83600E-04   -0.33663E-06  2499   0.186E-03    0.394E-01
RMM:  59    -0.231784086713E+04   -0.15048E-03   -0.62664E-06  2514   0.164E-03    0.408E-01
RMM:  60    -0.231784125248E+04   -0.38536E-03   -0.43873E-05  2994   0.347E-03    0.441E-01
RMM:  61    -0.231784138359E+04   -0.13111E-03   -0.10704E-05  2710   0.237E-03    0.448E-01
RMM:  62    -0.231784148045E+04   -0.96861E-04   -0.14490E-05  2809   0.231E-03    0.443E-01
RMM:  63    -0.231784163577E+04   -0.15532E-03   -0.87506E-06  2690   0.208E-03    0.457E-01
RMM:  64    -0.231784187657E+04   -0.24080E-03   -0.16326E-05  2844   0.253E-03    0.481E-01
RMM:  65    -0.231784196971E+04   -0.93138E-04   -0.47446E-06  2496   0.185E-03    0.490E-01
RMM:  66    -0.231784195956E+04    0.10150E-04   -0.79451E-07  2087   0.113E-03    0.490E-01
RMM:  67    -0.231784335710E+04   -0.13975E-02   -0.38041E-04  4123   0.100E-02    0.583E-01
RMM:  68    -0.231784340480E+04   -0.47704E-04   -0.30185E-05  2901   0.491E-03    0.591E-01
RMM:  69    -0.231784349439E+04   -0.89581E-04   -0.10850E-05  2729   0.199E-03    0.602E-01
RMM:  70    -0.231784330341E+04    0.19098E-03   -0.45925E-06  2490   0.193E-03    0.589E-01
RMM:  71    -0.231784295548E+04    0.34792E-03   -0.21238E-05  2589   0.254E-03    0.563E-01
RMM:  72    -0.231784245376E+04    0.50173E-03   -0.50361E-05  2949   0.366E-03    0.523E-01
RMM:  73    -0.231784162849E+04    0.82527E-03   -0.16452E-04  3373   0.644E-03    0.463E-01
RMM:  74    -0.231784099244E+04    0.63605E-03   -0.15004E-04  3344   0.648E-03    0.418E-01
RMM:  75    -0.231784074196E+04    0.25048E-03   -0.50233E-05  2967   0.441E-03    0.399E-01
RMM:  76    -0.231784057039E+04    0.17157E-03   -0.22254E-05  2824   0.300E-03    0.387E-01
RMM:  77    -0.231783966452E+04    0.90587E-03   -0.31169E-04  3820   0.937E-03    0.346E-01
RMM:  78    -0.231783957000E+04    0.94528E-04   -0.34022E-05  2911   0.480E-03    0.341E-01
RMM:  79    -0.231783939431E+04    0.17569E-03   -0.30352E-05  2927   0.330E-03    0.338E-01
RMM:  80    -0.231783928050E+04    0.11381E-03   -0.11068E-05  2784   0.286E-03    0.338E-01
RMM:  81    -0.231783916274E+04    0.11777E-03   -0.11172E-05  2807   0.246E-03    0.337E-01
RMM:  82    -0.231783870167E+04    0.46106E-03   -0.99141E-05  3199   0.536E-03    0.337E-01
RMM:  83    -0.231783829920E+04    0.40247E-03   -0.92869E-05  3226   0.537E-03    0.345E-01
RMM:  84    -0.231783827896E+04    0.20238E-04   -0.99058E-06  2700   0.296E-03    0.344E-01
RMM:  85    -0.231783840700E+04   -0.12803E-03   -0.55246E-06  2294   0.170E-03    0.340E-01
RMM:  86    -0.231783851186E+04   -0.10486E-03   -0.60543E-06  2321   0.155E-03    0.338E-01
RMM:  87    -0.231783662271E+04    0.18891E-02   -0.12176E-03  4618   0.176E-02    0.425E-01
RMM:  88    -0.231783640393E+04    0.21878E-03   -0.11046E-04  3105   0.787E-03    0.436E-01
RMM:  89    -0.231783644759E+04   -0.43658E-04   -0.16074E-05  2829   0.262E-03    0.432E-01
RMM:  90    -0.231783643628E+04    0.11312E-04   -0.17084E-06  2548   0.174E-03    0.433E-01
RMM:  91    -0.231783654248E+04   -0.10621E-03   -0.26522E-06  2205   0.136E-03    0.426E-01
RMM:  92    -0.231783651257E+04    0.29917E-04   -0.76088E-07  2030   0.991E-04    0.431E-01
RMM:  93    -0.231783636908E+04    0.14348E-03   -0.46129E-06  2172   0.127E-03    0.437E-01
RMM:  94    -0.231783699545E+04   -0.62636E-03   -0.99647E-05  3026   0.508E-03    0.401E-01
RMM:  95    -0.231783812525E+04   -0.11298E-02   -0.49721E-04  4148   0.112E-02    0.352E-01
RMM:  96    -0.231783868089E+04   -0.55564E-03   -0.21041E-04  3418   0.841E-03    0.340E-01
RMM:  97    -0.231783891380E+04   -0.23291E-03   -0.61481E-05  3027   0.450E-03    0.340E-01
RMM:  98    -0.231783889382E+04    0.19983E-04   -0.48937E-06  2614   0.268E-03    0.342E-01
RMM:  99    -0.231783888887E+04    0.49513E-05   -0.11022E-06  2118   0.112E-03
   5 F= -.23391490E+04 E0= -.23391427E+04  d E =-.121102E+00  mag=     4.9404
       N       E                     dE             d eps       ncg     rms          rms(c)
DAV:   1    -0.231773529562E+04    0.10360E+00   -0.83016E+00  4496   0.260E+00    0.100E+00
RMM:   2    -0.231797780084E+04   -0.24251E+00   -0.22946E+00  6647   0.808E-01    0.168E+00
RMM:   3    -0.231796525477E+04    0.12546E-01   -0.22404E-01  6469   0.270E-01    0.814E-01
RMM:   4    -0.231795941790E+04    0.58369E-02   -0.21019E-02  5964   0.644E-02    0.338E-01
RMM:   5    -0.231795853589E+04    0.88201E-03   -0.27783E-03  5572   0.275E-02    0.294E-01
RMM:   6    -0.231795764875E+04    0.88714E-03   -0.26828E-03  5917   0.276E-02    0.239E-01
RMM:   7    -0.231795726032E+04    0.38843E-03   -0.14983E-03  5357   0.237E-02    0.147E-01
RMM:   8    -0.231795703146E+04    0.22886E-03   -0.34941E-04  4372   0.111E-02    0.298E-02
RMM:   9    -0.231795703339E+04   -0.19328E-05   -0.36275E-05  2968   0.575E-03
   6 F= -.23392680E+04 E0= -.23392646E+04  d E =-.119008E+00  mag=     4.9166
       N       E                     dE             d eps       ncg     rms          rms(c)
DAV:   1    -0.231771320140E+04    0.24383E+00   -0.11251E+01  4496   0.295E+00    0.116E+00
RMM:   2    -0.231803436843E+04   -0.32117E+00   -0.29711E+00  6648   0.901E-01    0.214E+00
RMM:   3    -0.231801702388E+04    0.17345E-01   -0.33973E-01  6476   0.325E-01    0.919E-01
RMM:   4    -0.231800987611E+04    0.71478E-02   -0.29010E-02  6007   0.742E-02    0.380E-01
RMM:   5    -0.231800898395E+04    0.89216E-03   -0.34359E-03  5729   0.313E-02    0.365E-01
RMM:   6    -0.231800781617E+04    0.11678E-02   -0.31153E-03  5953   0.297E-02    0.273E-01
RMM:   7    -0.231800754077E+04    0.27540E-03   -0.23590E-03  5626   0.278E-02    0.207E-01
RMM:   8    -0.231800704299E+04    0.49779E-03   -0.56826E-04  4524   0.138E-02    0.429E-02
RMM:   9    -0.231800704812E+04   -0.51345E-05   -0.88849E-05  3134   0.691E-03
   7 F= -.23393192E+04 E0= -.23393183E+04  d E =-.170129E+00  mag=     4.9607
       N       E                     dE             d eps       ncg     rms          rms(c)
DAV:   1    -0.231799703051E+04    0.10012E-01   -0.25544E+00  4512   0.159E+00    0.609E-01
RMM:   2    -0.231804502792E+04   -0.47997E-01   -0.43745E-01  6320   0.401E-01    0.915E-01
RMM:   3    -0.231804051939E+04    0.45085E-02   -0.46228E-02  6083   0.151E-01    0.427E-01
RMM:   4    -0.231803865506E+04    0.18643E-02   -0.51827E-03  5406   0.405E-02    0.238E-01
RMM:   5    -0.231803845607E+04    0.19899E-03   -0.14507E-03  5218   0.255E-02    0.224E-01
RMM:   6    -0.231803790512E+04    0.55095E-03   -0.10815E-03  5122   0.207E-02    0.103E-01
RMM:   7    -0.231803780915E+04    0.95971E-04   -0.37937E-04  4653   0.163E-02    0.397E-02
RMM:   8    -0.231803781645E+04   -0.73000E-05   -0.58786E-05  3391   0.596E-03
   8 F= -.23393503E+04 E0= -.23393498E+04  d E =-.311752E-01  mag=     4.9799
       N       E                     dE             d eps       ncg     rms          rms(c)
DAV:   1    -0.231802582199E+04    0.11987E-01   -0.10851E+00  4544   0.104E+00    0.397E-01
RMM:   2    -0.231804620568E+04   -0.20384E-01   -0.18620E-01  6332   0.263E-01    0.592E-01
RMM:   3    -0.231804430183E+04    0.19039E-02   -0.19423E-02  6050   0.956E-02    0.276E-01
RMM:   4    -0.231804351348E+04    0.78835E-03   -0.21888E-03  5216   0.262E-02    0.151E-01
RMM:   5    -0.231804343964E+04    0.73837E-04   -0.61584E-04  4766   0.172E-02    0.146E-01
RMM:   6    -0.231804320286E+04    0.23679E-03   -0.49674E-04  4867   0.142E-02    0.685E-02
RMM:   7    -0.231804316822E+04    0.34634E-04   -0.16457E-04  3983   0.110E-02    0.314E-02
RMM:   8    -0.231804317385E+04   -0.56329E-05   -0.41156E-05  2998   0.531E-03
   9 F= -.23393559E+04 E0= -.23393556E+04  d E =-.367975E-01  mag=     4.9880
       N       E                     dE             d eps       ncg     rms          rms(c)
DAV:   1    -0.231799999871E+04    0.43170E-01   -0.31020E+00  4496   0.163E+00    0.591E-01
RMM:   2    -0.231806405816E+04   -0.64059E-01   -0.65996E-01  6569   0.439E-01    0.544E-01
RMM:   3    -0.231807036001E+04   -0.63018E-02   -0.74093E-02  6311   0.159E-01    0.583E-01
RMM:   4    -0.231806707867E+04    0.32813E-02   -0.72057E-03  5966   0.411E-02    0.254E-01
RMM:   5    -0.231806678802E+04    0.29065E-03   -0.15794E-03  5337   0.205E-02    0.218E-01
RMM:   6    -0.231806642443E+04    0.36359E-03   -0.10185E-03  5369   0.168E-02    0.147E-01
RMM:   7    -0.231806626221E+04    0.16222E-03   -0.48656E-04  5047   0.140E-02    0.380E-02
RMM:   8    -0.231806628059E+04   -0.18376E-04   -0.61972E-05  3016   0.680E-03    0.271E-02
RMM:   9    -0.231806629422E+04   -0.13635E-04   -0.31236E-05  2946   0.494E-03    0.173E-02
RMM:  10    -0.231806630840E+04   -0.14172E-04   -0.12552E-05  2926   0.335E-03    0.827E-03
RMM:  11    -0.231806632361E+04   -0.15208E-04   -0.60639E-06  2876   0.288E-03    0.585E-03
RMM:  12    -0.231806633338E+04   -0.97776E-05   -0.32091E-06  2774   0.219E-03
  10 F= -.23393797E+04 E0= -.23393795E+04  d E =-.237783E-01  mag=     4.9948
       N       E                     dE             d eps       ncg     rms          rms(c)
DAV:   1    -0.231799967734E+04    0.66646E-01   -0.35526E+00  4496   0.174E+00    0.631E-01
RMM:   2    -0.231807267137E+04   -0.72994E-01   -0.75581E-01  6558   0.471E-01    0.540E-01
RMM:   3    -0.231808002408E+04   -0.73527E-02   -0.83894E-02  6295   0.168E-01    0.615E-01
RMM:   4    -0.231807629562E+04    0.37285E-02   -0.80341E-03  6060   0.432E-02    0.255E-01
RMM:   5    -0.231807595175E+04    0.34386E-03   -0.17271E-03  5416   0.218E-02    0.219E-01
RMM:   6    -0.231807558055E+04    0.37120E-03   -0.11098E-03  5424   0.176E-02    0.154E-01
RMM:   7    -0.231807537599E+04    0.20456E-03   -0.52529E-04  5147   0.144E-02    0.410E-02
RMM:   8    -0.231807538734E+04   -0.11346E-04   -0.81049E-05  3086   0.757E-03    0.338E-02
RMM:   9    -0.231807538747E+04   -0.13704E-06   -0.36292E-05  2959   0.529E-03
  11 F= -.23393894E+04 E0= -.23393893E+04  d E =-.335006E-01  mag=     4.9965
       N       E                     dE             d eps       ncg     rms          rms(c)
DAV:   1    -0.231803403632E+04    0.41351E-01   -0.25589E+00  4512   0.145E+00    0.544E-01
RMM:   2    -0.231809500052E+04   -0.60964E-01   -0.64171E-01  6642   0.415E-01    0.339E-01
RMM:   3    -0.231810048850E+04   -0.54880E-02   -0.67301E-02  6131   0.144E-01    0.315E-01
RMM:   4    -0.231810038826E+04    0.10024E-03   -0.65798E-03  5383   0.310E-02    0.229E-01
RMM:   5    -0.231810015018E+04    0.23809E-03   -0.11240E-03  5143   0.169E-02    0.219E-01
RMM:   6    -0.231809981000E+04    0.34018E-03   -0.92323E-04  4682   0.170E-02    0.127E-01
RMM:   7    -0.231809974364E+04    0.66355E-04   -0.37867E-04  4042   0.108E-02    0.681E-02
RMM:   8    -0.231809970641E+04    0.37232E-04   -0.10334E-04  3087   0.730E-03    0.276E-02
RMM:   9    -0.231809971026E+04   -0.38506E-05   -0.24554E-05  2984   0.406E-03
  12 F= -.23394147E+04 E0= -.23394146E+04  d E =-.252247E-01  mag=     4.9979
       N       E                     dE             d eps       ncg     rms          rms(c)
DAV:   1    -0.231756133140E+04    0.53838E+00   -0.22945E+01  4496   0.435E+00    0.163E+00
RMM:   2    -0.231811753197E+04   -0.55620E+00   -0.58825E+00  6664   0.126E+00    0.998E-01
RMM:   3    -0.231817098916E+04   -0.53457E-01   -0.65133E-01  6256   0.443E-01    0.105E+00
RMM:   4    -0.231816579336E+04    0.51958E-02   -0.58825E-02  6402   0.935E-02    0.610E-01
RMM:   5    -0.231816260717E+04    0.31862E-02   -0.80689E-03  5827   0.437E-02    0.464E-01
RMM:   6    -0.231816130099E+04    0.13062E-02   -0.66744E-03  5851   0.443E-02    0.335E-01
RMM:   7    -0.231816041489E+04    0.88610E-03   -0.28736E-03  6002   0.286E-02    0.203E-01
RMM:   8    -0.231816015756E+04    0.25733E-03   -0.80679E-04  4708   0.162E-02    0.102E-01
RMM:   9    -0.231816010504E+04    0.52519E-04   -0.29696E-04  3689   0.107E-02    0.683E-02
RMM:  10    -0.231816007289E+04    0.32153E-04   -0.10834E-04  2998   0.797E-03    0.246E-02
RMM:  11    -0.231816010487E+04   -0.31980E-04   -0.46991E-05  3057   0.460E-03    0.129E-02
RMM:  12    -0.231816013589E+04   -0.31015E-04   -0.12585E-05  2934   0.391E-03    0.704E-03
RMM:  13    -0.231816015720E+04   -0.21309E-04   -0.62899E-06  2848   0.282E-03    0.469E-03
RMM:  14    -0.231816017063E+04   -0.13432E-04   -0.35721E-06  2758   0.243E-03    0.326E-03
RMM:  15    -0.231816017979E+04   -0.91654E-05   -0.29181E-06  2644   0.192E-03
  13 F= -.23394778E+04 E0= -.23394778E+04  d E =-.883340E-01  mag=     4.9998
       N       E                     dE             d eps       ncg     rms          rms(c)
DAV:   1    -0.231565059538E+04    0.25096E+01   -0.91261E+01  4496   0.872E+00    0.314E+00
RMM:   2    -0.231815913948E+04   -0.25085E+01   -0.25211E+01  6680   0.267E+00    0.493E+00
RMM:   3    -0.231821735296E+04   -0.58213E-01   -0.26842E+00  6195   0.917E-01    0.285E+00
RMM:   4    -0.231817972520E+04    0.37628E-01   -0.28618E-01  6448   0.250E-01    0.167E+00
RMM:   5    -0.231817470742E+04    0.50178E-02   -0.47912E-02  5891   0.104E-01    0.114E+00
RMM:   6    -0.231816636399E+04    0.83434E-02   -0.32710E-02  5334   0.910E-02    0.621E-01
RMM:   7    -0.231816656739E+04   -0.20340E-03   -0.16989E-02  5386   0.795E-02    0.543E-01
RMM:   8    -0.231816399558E+04    0.25718E-02   -0.66041E-03  5812   0.453E-02    0.282E-01
RMM:   9    -0.231816369644E+04    0.29914E-03   -0.17496E-03  5255   0.272E-02    0.179E-01
RMM:  10    -0.231816358864E+04    0.10780E-03   -0.50000E-04  4510   0.138E-02    0.969E-02
RMM:  11    -0.231816369132E+04   -0.10268E-03   -0.21248E-04  4205   0.926E-03    0.457E-02
RMM:  12    -0.231816382921E+04   -0.13790E-03   -0.68561E-05  3463   0.635E-03    0.238E-02
RMM:  13    -0.231816391407E+04   -0.84852E-04   -0.25128E-05  3005   0.478E-03    0.132E-02
RMM:  14    -0.231816396154E+04   -0.47477E-04   -0.18460E-05  2934   0.421E-03    0.559E-03
RMM:  15    -0.231816398351E+04   -0.21966E-04   -0.83978E-06  2865   0.358E-03    0.381E-03
RMM:  16    -0.231816400307E+04   -0.19560E-04   -0.50236E-06  2784   0.267E-03    0.300E-03
RMM:  17    -0.231816401248E+04   -0.94129E-05   -0.25275E-06  2579   0.218E-03
  14 F= -.23394866E+04 E0= -.23394864E+04  d E =-.971698E-01  mag=     4.9962
       N       E                     dE             d eps       ncg     rms          rms(c)
DAV:   1    -0.231757936048E+04    0.58464E+00   -0.23221E+01  4496   0.439E+00    0.162E+00
RMM:   2    -0.231818861595E+04   -0.60926E+00   -0.61993E+00  6668   0.133E+00    0.199E+00
RMM:   3    -0.231819717846E+04   -0.85625E-02   -0.65072E-01  6381   0.450E-01    0.895E-01
RMM:   4    -0.231819312948E+04    0.40490E-02   -0.58579E-02  6136   0.972E-02    0.605E-01
RMM:   5    -0.231819146928E+04    0.16602E-02   -0.67006E-03  5702   0.399E-02    0.514E-01
RMM:   6    -0.231818820409E+04    0.32652E-02   -0.48855E-03  5713   0.367E-02    0.295E-01
RMM:   7    -0.231818753586E+04    0.66823E-03   -0.39779E-03  5622   0.354E-02    0.157E-01
RMM:   8    -0.231818738402E+04    0.15184E-03   -0.83186E-04  5120   0.177E-02    0.951E-02
RMM:   9    -0.231818727921E+04    0.10482E-03   -0.20339E-04  3474   0.978E-03    0.496E-02
RMM:  10    -0.231818726571E+04    0.13495E-04   -0.89659E-05  3070   0.713E-03    0.191E-02
RMM:  11    -0.231818727593E+04   -0.10216E-04   -0.36209E-05  2958   0.483E-03    0.731E-03
RMM:  12    -0.231818728525E+04   -0.93196E-05   -0.84493E-06  2891   0.347E-03
  15 F= -.23395074E+04 E0= -.23395074E+04  d E =-.117962E+00  mag=     4.9993
       N       E                     dE             d eps       ncg     rms          rms(c)
DAV:   1    -0.231816165727E+04    0.25619E-01   -0.17610E+00  4544   0.119E+00    0.430E-01
RMM:   2    -0.231820604843E+04   -0.44391E-01   -0.46188E-01  6650   0.350E-01    0.382E-01
RMM:   3    -0.231820884532E+04   -0.27969E-02   -0.44913E-02  6199   0.119E-01    0.264E-01
RMM:   4    -0.231820838567E+04    0.45965E-03   -0.44814E-03  5333   0.262E-02    0.137E-01
RMM:   5    -0.231820819327E+04    0.19240E-03   -0.49187E-04  4696   0.121E-02    0.110E-01
RMM:   6    -0.231820804343E+04    0.14983E-03   -0.47162E-04  4330   0.132E-02    0.635E-02
RMM:   7    -0.231820802864E+04    0.14794E-04   -0.15449E-04  3766   0.788E-03    0.459E-02
RMM:   8    -0.231820800655E+04    0.22093E-04   -0.40561E-05  2953   0.581E-03    0.227E-02
RMM:   9    -0.231820800000E+04    0.65427E-05   -0.89586E-06  2882   0.277E-03
  16 F= -.23395288E+04 E0= -.23395288E+04  d E =-.214251E-01  mag=     4.9995
       N       E                     dE             d eps       ncg     rms          rms(c)
DAV:   1    -0.231782416836E+04    0.38384E+00   -0.15819E+01  4496   0.357E+00    0.128E+00
RMM:   2    -0.231822480982E+04   -0.40064E+00   -0.42061E+00  6674   0.106E+00    0.102E+00
RMM:   3    -0.231825825051E+04   -0.33441E-01   -0.44224E-01  6414   0.360E-01    0.901E-01
RMM:   4    -0.231825207172E+04    0.61788E-02   -0.41403E-02  6391   0.794E-02    0.414E-01
RMM:   5    -0.231825057067E+04    0.15011E-02   -0.42639E-03  5735   0.317E-02    0.349E-01
RMM:   6    -0.231824890888E+04    0.16618E-02   -0.40911E-03  5642   0.362E-02    0.193E-01
RMM:   7    -0.231824853215E+04    0.37673E-03   -0.16270E-03  5607   0.222E-02    0.900E-02
RMM:   8    -0.231824856174E+04   -0.29594E-04   -0.30659E-04  3666   0.123E-02    0.108E-01
RMM:   9    -0.231824843282E+04    0.12892E-03   -0.10418E-04  3172   0.710E-03    0.317E-02
RMM:  10    -0.231824841994E+04    0.12883E-04   -0.56442E-05  2962   0.561E-03    0.131E-02
RMM:  11    -0.231824841933E+04    0.60197E-06   -0.15102E-05  2951   0.356E-03
  17 F= -.23395713E+04 E0= -.23395710E+04  d E =-.638841E-01  mag=     4.9964
       N       E                     dE             d eps       ncg     rms          rms(c)
DAV:   1    -0.231643070234E+04    0.18177E+01   -0.62864E+01  4488   0.715E+00    0.260E+00
RMM:   2    -0.231821061848E+04   -0.17799E+01   -0.17785E+01  6697   0.219E+00    0.444E+00
RMM:   3    -0.231825884947E+04   -0.48231E-01   -0.18896E+00  6243   0.754E-01    0.228E+00
RMM:   4    -0.231826126390E+04   -0.24144E-02   -0.24002E-01  6550   0.219E-01    0.204E+00
RMM:   5    -0.231823058334E+04    0.30681E-01   -0.38378E-02  6240   0.925E-02    0.853E-01
RMM:   6    -0.231822468614E+04    0.58972E-02   -0.17757E-02  5587   0.656E-02    0.552E-01
RMM:   7    -0.231822367924E+04    0.10069E-02   -0.10516E-02  5637   0.593E-02    0.513E-01
RMM:   8    -0.231822142834E+04    0.22509E-02   -0.64146E-03  5917   0.422E-02    0.262E-01
RMM:   9    -0.231822121506E+04    0.21328E-03   -0.17169E-03  5418   0.257E-02    0.195E-01
RMM:  10    -0.231822113197E+04    0.83092E-04   -0.43471E-04  4484   0.122E-02    0.125E-01
RMM:  11    -0.231822115283E+04   -0.20856E-04   -0.14334E-04  3777   0.794E-03    0.778E-02
RMM:  12    -0.231822119476E+04   -0.41930E-04   -0.68007E-05  3178   0.599E-03    0.539E-02
RMM:  13    -0.231822122257E+04   -0.27811E-04   -0.22631E-05  2983   0.459E-03    0.442E-02
RMM:  14    -0.231822123975E+04   -0.17184E-04   -0.21697E-05  2965   0.411E-03    0.322E-02
RMM:  15    -0.231822124935E+04   -0.95954E-05   -0.21620E-05  2964   0.413E-03
  18 F= -.23395479E+04 E0= -.23395424E+04  d E =-.405022E-01  mag=     4.8460
       N       E                     dE             d eps       ncg     rms          rms(c)
DAV:   1    -0.231753227380E+04    0.68897E+00   -0.27071E+01  4496   0.465E+00    0.192E+00
RMM:   2    -0.231834026820E+04   -0.80799E+00   -0.77385E+00  6691   0.145E+00    0.386E+00
RMM:   3    -0.231826103229E+04    0.79236E-01   -0.74602E-01  6228   0.494E-01    0.939E-01
RMM:   4    -0.231826402683E+04   -0.29945E-02   -0.81316E-02  5955   0.104E-01    0.743E-01
RMM:   5    -0.231826113246E+04    0.28944E-02   -0.81969E-03  5744   0.437E-02    0.579E-01
RMM:   6    -0.231825725434E+04    0.38781E-02   -0.54123E-03  5332   0.361E-02    0.354E-01
RMM:   7    -0.231825539242E+04    0.18619E-02   -0.55258E-03  5407   0.459E-02    0.148E-01
RMM:   8    -0.231825543707E+04   -0.44648E-04   -0.90397E-04  5550   0.185E-02    0.905E-02
RMM:   9    -0.231825549234E+04   -0.55268E-04   -0.32119E-04  3864   0.114E-02    0.738E-02
RMM:  10    -0.231825548675E+04    0.55833E-05   -0.11225E-04  3537   0.765E-03    0.346E-02
RMM:  11    -0.231825559384E+04   -0.10709E-03   -0.72757E-05  3289   0.628E-03    0.192E-02
RMM:  12    -0.231825564608E+04   -0.52242E-04   -0.17067E-05  2917   0.434E-03    0.115E-02
RMM:  13    -0.231825570807E+04   -0.61985E-04   -0.13556E-05  2887   0.351E-03    0.850E-03
RMM:  14    -0.231825575427E+04   -0.46200E-04   -0.99152E-06  2853   0.341E-03    0.550E-03
RMM:  15    -0.231825577402E+04   -0.19751E-04   -0.62850E-06  2799   0.290E-03    0.328E-03
RMM:  16    -0.231825578321E+04   -0.91891E-05   -0.38805E-06  2624   0.237E-03
  19 F= -.23395800E+04 E0= -.23395792E+04  d E =-.725868E-01  mag=     4.9811
       N       E                     dE             d eps       ncg     rms          rms(c)
DAV:   1    -0.231826160620E+04   -0.58322E-02   -0.66830E-01  4560   0.759E-01    0.281E-01
RMM:   2    -0.231827792926E+04   -0.16323E-01   -0.17596E-01  6505   0.213E-01    0.197E-01
RMM:   3    -0.231827922004E+04   -0.12908E-02   -0.17773E-02  5919   0.800E-02    0.164E-01
RMM:   4    -0.231827909200E+04    0.12803E-03   -0.18255E-03  4497   0.184E-02    0.107E-01
RMM:   5    -0.231827900641E+04    0.85591E-04   -0.30272E-04  3933   0.108E-02    0.937E-02
RMM:   6    -0.231827892043E+04    0.85989E-04   -0.22810E-04  3961   0.992E-03    0.644E-02
RMM:   7    -0.231827887655E+04    0.43879E-04   -0.94970E-05  3241   0.742E-03    0.251E-02
RMM:   8    -0.231827887217E+04    0.43749E-05   -0.26269E-05  2929   0.567E-03
  20 F= -.23396033E+04 E0= -.23396023E+04  d E =-.233068E-01  mag=     4.9798
       N       E                     dE             d eps       ncg     rms          rms(c)
DAV:   1    -0.231816030891E+04    0.11857E+00   -0.60101E+00  4496   0.228E+00    0.844E-01
RMM:   2    -0.231830662881E+04   -0.14632E+00   -0.15835E+00  6502   0.624E-01    0.571E-01
RMM:   3    -0.231832047138E+04   -0.13843E-01   -0.17139E-01  6198   0.241E-01    0.554E-01
RMM:   4    -0.231831869608E+04    0.17753E-02   -0.16766E-02  6417   0.532E-02    0.325E-01
RMM:   5    -0.231831786918E+04    0.82690E-03   -0.26763E-03  5563   0.278E-02    0.268E-01
RMM:   6    -0.231831722679E+04    0.64239E-03   -0.19761E-03  5839   0.247E-02    0.222E-01
RMM:   7    -0.231831676978E+04    0.45701E-03   -0.96250E-04  5408   0.180E-02    0.879E-02
RMM:   8    -0.231831671119E+04    0.58591E-04   -0.26075E-04  3907   0.114E-02    0.506E-02
RMM:   9    -0.231831667232E+04    0.38869E-04   -0.66520E-05  3098   0.706E-03    0.221E-02
RMM:  10    -0.231831666155E+04    0.10764E-04   -0.30280E-05  2957   0.529E-03    0.951E-03
RMM:  11    -0.231831666212E+04   -0.56869E-06   -0.14808E-05  2948   0.379E-03
  21 F= -.23396417E+04 E0= -.23396400E+04  d E =-.617438E-01  mag=     4.9639
       N       E                     dE             d eps       ncg     rms          rms(c)
DAV:   1    -0.231830163698E+04    0.15025E-01   -0.68600E-01  4720   0.761E-01    0.285E-01
RMM:   2    -0.231831834392E+04   -0.16707E-01   -0.17880E-01  6486   0.209E-01    0.227E-01
RMM:   3    -0.231831965645E+04   -0.13125E-02   -0.18186E-02  5983   0.798E-02    0.200E-01
RMM:   4    -0.231831938807E+04    0.26838E-03   -0.18911E-03  4668   0.189E-02    0.109E-01
RMM:   5    -0.231831933146E+04    0.56617E-04   -0.32008E-04  3664   0.106E-02    0.109E-01
RMM:   6    -0.231831920385E+04    0.12761E-03   -0.24443E-04  4120   0.102E-02    0.614E-02
RMM:   7    -0.231831916368E+04    0.40167E-04   -0.11055E-04  3395   0.771E-03    0.264E-02
RMM:   8    -0.231831915854E+04    0.51378E-05   -0.30134E-05  2940   0.595E-03
  22 F= -.23396445E+04 E0= -.23396424E+04  d E =-.644583E-01  mag=     4.9560
       N       E                     dE             d eps       ncg     rms          rms(c)
DAV:   1    -0.231829661710E+04    0.22547E-01   -0.19405E+00  4496   0.125E+00    0.464E-01
RMM:   2    -0.231834345018E+04   -0.46833E-01   -0.50059E-01  6565   0.336E-01    0.318E-01
RMM:   3    -0.231834827595E+04   -0.48258E-02   -0.53360E-02  6125   0.132E-01    0.377E-01
RMM:   4    -0.231834723574E+04    0.10402E-02   -0.52426E-03  5360   0.286E-02    0.156E-01
RMM:   5    -0.231834706049E+04    0.17524E-03   -0.69722E-04  4705   0.138E-02    0.157E-01
RMM:   6    -0.231834682886E+04    0.23163E-03   -0.54014E-04  4765   0.124E-02    0.106E-01
RMM:   7    -0.231834672522E+04    0.10364E-03   -0.30427E-04  4167   0.108E-02    0.440E-02
RMM:   8    -0.231834671242E+04    0.12795E-04   -0.69281E-05  3045   0.672E-03    0.251E-02
RMM:   9    -0.231834670623E+04    0.61926E-05   -0.18162E-05  2934   0.454E-03
  23 F= -.23396719E+04 E0= -.23396687E+04  d E =-.274617E-01  mag=     4.9293
       N       E                     dE             d eps       ncg     rms          rms(c)
DAV:   1    -0.231793364900E+04    0.41306E+00   -0.17467E+01  4496   0.374E+00    0.140E+00
RMM:   2    -0.231835917131E+04   -0.42552E+00   -0.45448E+00  6586   0.101E+00    0.954E-01
RMM:   3    -0.231841022967E+04   -0.51058E-01   -0.51682E-01  6326   0.401E-01    0.138E+00
RMM:   4    -0.231839653838E+04    0.13691E-01   -0.47573E-02  6593   0.837E-02    0.492E-01
RMM:   5    -0.231839491267E+04    0.16257E-02   -0.60777E-03  5700   0.399E-02    0.514E-01
RMM:   6    -0.231839304881E+04    0.18639E-02   -0.57954E-03  5857   0.393E-02    0.343E-01
RMM:   7    -0.231839232467E+04    0.72414E-03   -0.28655E-03  5931   0.276E-02    0.399E-01
RMM:   8    -0.231839165877E+04    0.66590E-03   -0.10268E-03  5134   0.171E-02    0.218E-01
RMM:   9    -0.231839154830E+04    0.11047E-03   -0.57454E-04  4601   0.135E-02    0.244E-01
RMM:  10    -0.231839115826E+04    0.39004E-03   -0.94318E-04  4753   0.160E-02    0.132E-01
RMM:  11    -0.231839124564E+04   -0.87380E-04   -0.58678E-04  4451   0.138E-02    0.724E-02
RMM:  12    -0.231839168659E+04   -0.44095E-03   -0.22722E-04  3905   0.974E-03    0.377E-02
RMM:  13    -0.231839219475E+04   -0.50816E-03   -0.16792E-04  3740   0.848E-03    0.376E-02
RMM:  14    -0.231839249267E+04   -0.29792E-03   -0.13891E-04  3638   0.792E-03    0.468E-02
RMM:  15    -0.231839271802E+04   -0.22534E-03   -0.26522E-04  4018   0.910E-03    0.329E-02
RMM:  16    -0.231839289375E+04   -0.17573E-03   -0.27616E-04  3892   0.945E-03    0.696E-03
RMM:  17    -0.231839296810E+04   -0.74354E-04   -0.52567E-05  3050   0.556E-03    0.618E-03
RMM:  18    -0.231839299107E+04   -0.22971E-04   -0.88888E-06  2878   0.333E-03    0.295E-03
RMM:  19    -0.231839300263E+04   -0.11556E-04   -0.64577E-06  2759   0.262E-03    0.562E-03
RMM:  20    -0.231839300532E+04   -0.26883E-05   -0.69124E-06  2706   0.240E-03
  24 F= -.23397180E+04 E0= -.23397057E+04  d E =-.735898E-01  mag=     4.3960
       N       E                     dE             d eps       ncg     rms          rms(c)
DAV:   1    -0.231830717364E+04    0.85829E-01   -0.34667E+00  4512   0.166E+00    0.647E-01
RMM:   2    -0.231839430925E+04   -0.87136E-01   -0.90787E-01  6563   0.445E-01    0.796E-01
RMM:   3    -0.231840180804E+04   -0.74988E-02   -0.98995E-02  6276   0.178E-01    0.961E-01
RMM:   4    -0.231839906309E+04    0.27450E-02   -0.98272E-03  5895   0.401E-02    0.448E-01
RMM:   5    -0.231839897272E+04    0.90370E-04   -0.10828E-03  5032   0.173E-02    0.514E-01
RMM:   6    -0.231839876603E+04    0.20668E-03   -0.45956E-04  4336   0.117E-02    0.482E-01
RMM:   7    -0.231839875244E+04    0.13595E-04   -0.61624E-04  4376   0.130E-02    0.506E-01
RMM:   8    -0.231839856997E+04    0.18247E-03   -0.59987E-04  4560   0.124E-02    0.469E-01
RMM:   9    -0.231839853903E+04    0.30936E-04   -0.93764E-04  4572   0.152E-02    0.477E-01
RMM:  10    -0.231839706987E+04    0.14692E-02   -0.93593E-03  4832   0.427E-02    0.292E-01
RMM:  11    -0.231839608029E+04    0.98958E-03   -0.83089E-03  4928   0.469E-02    0.193E-01
RMM:  12    -0.231839724589E+04   -0.11656E-02   -0.47057E-03  5013   0.324E-02    0.181E-01
RMM:  13    -0.231839795569E+04   -0.70980E-03   -0.61486E-03  5073   0.365E-02    0.114E-01
RMM:  14    -0.231839990058E+04   -0.19449E-02   -0.36997E-03  4575   0.324E-02    0.854E-02
RMM:  15    -0.231840134831E+04   -0.14477E-02   -0.15755E-03  4436   0.206E-02    0.402E-02
RMM:  16    -0.231840243452E+04   -0.10862E-02   -0.84195E-04  4193   0.162E-02    0.341E-02
RMM:  17    -0.231840292331E+04   -0.48879E-03   -0.64214E-04  4163   0.145E-02    0.380E-02
RMM:  18    -0.231840309431E+04   -0.17100E-03   -0.16723E-04  3855   0.814E-03    0.410E-02
RMM:  19    -0.231840312408E+04   -0.29766E-04   -0.27862E-04  3740   0.860E-03    0.271E-02
RMM:  20    -0.231840313163E+04   -0.75534E-05   -0.41258E-05  2925   0.473E-03
  25 F= -.23397281E+04 E0= -.23397229E+04  d E =-.836929E-01  mag=     3.1538
       N       E                     dE             d eps       ncg     rms          rms(c)
DAV:   1    -0.231840376224E+04   -0.63816E-03   -0.56996E-01  4952   0.626E-01    0.270E-01
RMM:   2    -0.231842022304E+04   -0.16461E-01   -0.16307E-01  6658   0.180E-01    0.403E-01
RMM:   3    -0.231842036416E+04   -0.14112E-03   -0.17118E-02  5901   0.689E-02    0.219E-01
RMM:   4    -0.231842011261E+04    0.25156E-03   -0.18834E-03  3863   0.163E-02    0.105E-01
RMM:   5    -0.231842004978E+04    0.62821E-04   -0.18936E-04  3097   0.767E-03    0.919E-02
RMM:   6    -0.231841997940E+04    0.70383E-04   -0.20799E-04  3649   0.808E-03    0.694E-02
RMM:   7    -0.231841995737E+04    0.22036E-04   -0.14662E-04  3082   0.741E-03    0.526E-02
RMM:   8    -0.231841993159E+04    0.25772E-04   -0.55262E-05  3008   0.539E-03    0.161E-02
RMM:   9    -0.231841993583E+04   -0.42407E-05   -0.12075E-05  2904   0.364E-03
  26 F= -.23397448E+04 E0= -.23397415E+04  d E =-.166213E-01  mag=     3.1104
       N       E                     dE             d eps       ncg     rms          rms(c)
DAV:   1    -0.231831549085E+04    0.10444E+00   -0.51257E+00  4496   0.188E+00    0.759E-01
RMM:   2    -0.231845709118E+04   -0.14160E+00   -0.14641E+00  6673   0.543E-01    0.843E-01
RMM:   3    -0.231846622509E+04   -0.91339E-02   -0.15581E-01  6411   0.206E-01    0.596E-01
RMM:   4    -0.231846337452E+04    0.28506E-02   -0.16468E-02  6039   0.482E-02    0.287E-01
RMM:   5    -0.231846281698E+04    0.55755E-03   -0.16618E-03  4972   0.190E-02    0.244E-01
RMM:   6    -0.231846212185E+04    0.69512E-03   -0.14305E-03  5218   0.190E-02    0.175E-01
RMM:   7    -0.231846201881E+04    0.10304E-03   -0.11712E-03  4673   0.174E-02    0.157E-01
RMM:   8    -0.231846175349E+04    0.26532E-03   -0.35343E-04  4398   0.103E-02    0.384E-02
RMM:   9    -0.231846175867E+04   -0.51820E-05   -0.42821E-05  3023   0.596E-03
  27 F= -.23397861E+04 E0= -.23397850E+04  d E =-.579268E-01  mag=     3.0505
       N       E                     dE             d eps       ncg     rms          rms(c)
DAV:   1    -0.231790435012E+04    0.55740E+00   -0.20452E+01  4496   0.378E+00    0.151E+00
RMM:   2    -0.231846547556E+04   -0.56113E+00   -0.59327E+00  6678   0.112E+00    0.126E+00
RMM:   3    -0.231851683815E+04   -0.51363E-01   -0.64540E-01  6409   0.420E-01    0.114E+00
RMM:   4    -0.231850674838E+04    0.10090E-01   -0.66547E-02  6463   0.952E-02    0.590E-01
RMM:   5    -0.231850450431E+04    0.22441E-02   -0.71545E-03  5746   0.392E-02    0.488E-01
RMM:   6    -0.231850184946E+04    0.26549E-02   -0.54865E-03  5796   0.363E-02    0.330E-01
RMM:   7    -0.231850143501E+04    0.41445E-03   -0.43514E-03  5690   0.317E-02    0.294E-01
RMM:   8    -0.231850043870E+04    0.99631E-03   -0.12753E-03  5434   0.190E-02    0.800E-02
RMM:   9    -0.231850044387E+04   -0.51731E-05   -0.29235E-04  3905   0.100E-02    0.611E-02
RMM:  10    -0.231850040768E+04    0.36192E-04   -0.77424E-05  2984   0.693E-03    0.308E-02
RMM:  11    -0.231850039787E+04    0.98123E-05   -0.44946E-05  2989   0.448E-03
  28 F= -.23398239E+04 E0= -.23398237E+04  d E =-.957063E-01  mag=     3.0129
       N       E                     dE             d eps       ncg     rms          rms(c)
DAV:   1    -0.231852343764E+04   -0.23030E-01   -0.80494E-01  4592   0.892E-01    0.372E-01
RMM:   2    -0.231854219086E+04   -0.18753E-01   -0.18595E-01  6439   0.246E-01    0.426E-01
RMM:   3    -0.231854186795E+04    0.32291E-03   -0.18232E-02  6140   0.880E-02    0.244E-01
RMM:   4    -0.231854129467E+04    0.57328E-03   -0.22349E-03  5511   0.231E-02    0.120E-01
RMM:   5    -0.231854124971E+04    0.44955E-04   -0.52215E-04  4162   0.138E-02    0.120E-01
RMM:   6    -0.231854111587E+04    0.13384E-03   -0.37238E-04  4759   0.120E-02    0.841E-02
RMM:   7    -0.231854102655E+04    0.89322E-04   -0.17763E-04  3364   0.105E-02    0.357E-02
RMM:   8    -0.231854101149E+04    0.15058E-04   -0.36254E-05  2966   0.566E-03    0.124E-02
RMM:   9    -0.231854100981E+04    0.16746E-05   -0.87366E-06  2887   0.413E-03
  29 F= -.23398641E+04 E0= -.23398640E+04  d E =-.402643E-01  mag=     3.0047
       N       E                     dE             d eps       ncg     rms          rms(c)
DAV:   1    -0.231845510150E+04    0.85910E-01   -0.72315E+00  4496   0.268E+00    0.110E+00
RMM:   2    -0.231862210980E+04   -0.16701E+00   -0.16840E+00  6389   0.752E-01    0.118E+00
RMM:   3    -0.231862321154E+04   -0.11017E-02   -0.16645E-01  6215   0.270E-01    0.758E-01
RMM:   4    -0.231861706557E+04    0.61460E-02   -0.20248E-02  6160   0.696E-02    0.339E-01
RMM:   5    -0.231861673223E+04    0.33334E-03   -0.46131E-03  5819   0.382E-02    0.349E-01
RMM:   6    -0.231861551012E+04    0.12221E-02   -0.30956E-03  5529   0.324E-02    0.242E-01
RMM:   7    -0.231861482992E+04    0.68019E-03   -0.16244E-03  5240   0.271E-02    0.125E-01
RMM:   8    -0.231861462260E+04    0.20733E-03   -0.33406E-04  4766   0.122E-02    0.387E-02
RMM:   9    -0.231861459764E+04    0.24960E-04   -0.59405E-05  3066   0.778E-03    0.222E-02
RMM:  10    -0.231861458954E+04    0.81002E-05   -0.36652E-05  3127   0.515E-03
  30 F= -.23399366E+04 E0= -.23399366E+04  d E =-.112791E+00  mag=     3.0011
       N       E                     dE             d eps       ncg     rms          rms(c)
DAV:   1    -0.231858475273E+04    0.29845E-01   -0.17681E+00  4704   0.133E+00    0.545E-01
RMM:   2    -0.231862552113E+04   -0.40768E-01   -0.41393E-01  6408   0.373E-01    0.560E-01
RMM:   3    -0.231862592535E+04   -0.40423E-03   -0.40144E-02  6196   0.131E-01    0.366E-01
RMM:   4    -0.231862451220E+04    0.14132E-02   -0.49304E-03  5864   0.342E-02    0.167E-01
RMM:   5    -0.231862444534E+04    0.66864E-04   -0.11112E-03  5051   0.195E-02    0.174E-01
RMM:   6    -0.231862411493E+04    0.33041E-03   -0.77236E-04  5273   0.169E-02    0.112E-01
RMM:   7    -0.231862396677E+04    0.14815E-03   -0.38203E-04  4429   0.140E-02    0.586E-02
RMM:   8    -0.231862391955E+04    0.47223E-04   -0.78909E-05  3341   0.673E-03    0.185E-02
RMM:   9    -0.231862391414E+04    0.54165E-05   -0.15327E-05  2922   0.482E-03
  31 F= -.23399454E+04 E0= -.23399454E+04  d E =-.121589E+00  mag=     3.0003
       N       E                     dE             d eps       ncg     rms          rms(c)
DAV:   1    -0.231858415688E+04    0.39763E-01   -0.29907E+00  4504   0.158E+00    0.648E-01
RMM:   2    -0.231867071346E+04   -0.86557E-01   -0.90094E-01  6608   0.488E-01    0.639E-01
RMM:   3    -0.231867570478E+04   -0.49913E-02   -0.98611E-02  6375   0.179E-01    0.437E-01
RMM:   4    -0.231867375884E+04    0.19459E-02   -0.95372E-03  5972   0.404E-02    0.193E-01
RMM:   5    -0.231867353863E+04    0.22021E-03   -0.14432E-03  5346   0.193E-02    0.193E-01
RMM:   6    -0.231867304630E+04    0.49233E-03   -0.11791E-03  5267   0.183E-02    0.106E-01
RMM:   7    -0.231867306049E+04   -0.14194E-04   -0.54350E-04  4237   0.133E-02    0.106E-01
RMM:   8    -0.231867290842E+04    0.15207E-03   -0.13751E-04  3262   0.781E-03    0.218E-02
RMM:   9    -0.231867290810E+04    0.31649E-06   -0.24254E-05  2964   0.456E-03
  32 F= -.23399945E+04 E0= -.23399944E+04  d E =-.490074E-01  mag=     3.0001
       N       E                     dE             d eps       ncg     rms          rms(c)
DAV:   1    -0.231820793405E+04    0.46497E+00   -0.16867E+01  4496   0.379E+00    0.153E+00
RMM:   2    -0.231870878127E+04   -0.50085E+00   -0.52366E+00  6618   0.122E+00    0.169E+00
RMM:   3    -0.231874030851E+04   -0.31527E-01   -0.54625E-01  6423   0.419E-01    0.121E+00
RMM:   4    -0.231872422590E+04    0.16083E-01   -0.55186E-02  6400   0.101E-01    0.469E-01
RMM:   5    -0.231872290396E+04    0.13219E-02   -0.83140E-03  6068   0.445E-02    0.454E-01
RMM:   6    -0.231871995635E+04    0.29476E-02   -0.63265E-03  5941   0.421E-02    0.235E-01
RMM:   7    -0.231872027421E+04   -0.31787E-03   -0.30729E-03  5713   0.279E-02    0.270E-01
RMM:   8    -0.231871939845E+04    0.87576E-03   -0.10836E-03  4815   0.187E-02    0.988E-02
RMM:   9    -0.231871930863E+04    0.89824E-04   -0.17768E-04  3858   0.852E-03    0.420E-02
RMM:  10    -0.231871930773E+04    0.90629E-06   -0.83166E-05  3131   0.721E-03
  33 F= -.23400409E+04 E0= -.23400406E+04  d E =-.954188E-01  mag=     3.0000
       N       E                     dE             d eps       ncg     rms          rms(c)
DAV:   1    -0.231870269781E+04    0.16611E-01   -0.16038E+00  4560   0.128E+00    0.460E-01
RMM:   2    -0.231873773622E+04   -0.35038E-01   -0.38538E-01  6457   0.337E-01    0.229E-01
RMM:   3    -0.231874003664E+04   -0.23004E-02   -0.36446E-02  5992   0.131E-01    0.175E-01
RMM:   4    -0.231874010358E+04   -0.66942E-04   -0.36774E-03  5570   0.278E-02    0.165E-01
RMM:   5    -0.231873981060E+04    0.29298E-03   -0.85299E-04  5402   0.169E-02    0.108E-01
RMM:   6    -0.231873964168E+04    0.16892E-03   -0.40011E-04  4991   0.124E-02    0.385E-02
RMM:   7    -0.231873965966E+04   -0.17981E-04   -0.94428E-05  3093   0.846E-03    0.534E-02
RMM:   8    -0.231873962670E+04    0.32961E-04   -0.30724E-05  2941   0.516E-03    0.122E-02
RMM:   9    -0.231873962882E+04   -0.21260E-05   -0.10844E-05  2917   0.304E-03
  34 F= -.23400619E+04 E0= -.23400617E+04  d E =-.210813E-01  mag=     3.0000
       N       E                     dE             d eps       ncg     rms          rms(c)
DAV:   1    -0.231869872070E+04    0.40906E-01   -0.21129E+00  4496   0.147E+00    0.529E-01
RMM:   2    -0.231874470664E+04   -0.45986E-01   -0.50563E-01  6448   0.382E-01    0.271E-01
RMM:   3    -0.231874803948E+04   -0.33328E-02   -0.49312E-02  6048   0.151E-01    0.255E-01
RMM:   4    -0.231874785490E+04    0.18458E-03   -0.48545E-03  5844   0.314E-02    0.178E-01
RMM:   5    -0.231874745224E+04    0.40266E-03   -0.10171E-03  5527   0.185E-02    0.117E-01
RMM:   6    -0.231874723761E+04    0.21464E-03   -0.60800E-04  5246   0.152E-02    0.398E-02
RMM:   7    -0.231874723891E+04   -0.13092E-05   -0.91685E-05  3237   0.878E-03
  35 F= -.23400704E+04 E0= -.23400700E+04  d E =-.295756E-01  mag=     3.0000
       N       E                     dE             d eps       ncg     rms          rms(c)
DAV:   1    -0.231873036171E+04    0.16876E-01   -0.14432E+00  4512   0.117E+00    0.427E-01
RMM:   2    -0.231875996665E+04   -0.29605E-01   -0.31638E-01  6430   0.292E-01    0.347E-01
RMM:   3    -0.231876242840E+04   -0.24618E-02   -0.32563E-02  6169   0.115E-01    0.414E-01
RMM:   4    -0.231876104094E+04    0.13875E-02   -0.32856E-03  5678   0.267E-02    0.124E-01
RMM:   5    -0.231876092066E+04    0.12028E-03   -0.66942E-04  4784   0.140E-02    0.127E-01
RMM:   6    -0.231876075000E+04    0.17066E-03   -0.58933E-04  4888   0.154E-02    0.647E-02
RMM:   7    -0.231876071518E+04    0.34825E-04   -0.15249E-04  3538   0.903E-03    0.397E-02
RMM:   8    -0.231876070552E+04    0.96540E-05   -0.47172E-05  2963   0.579E-03
  36 F= -.23400846E+04 E0= -.23400840E+04  d E =-.141282E-01  mag=     3.0000
       N       E                     dE             d eps       ncg     rms          rms(c)
DAV:   1    -0.231861949910E+04    0.14122E+00   -0.68892E+00  4496   0.255E+00    0.970E-01
RMM:   2    -0.231876311611E+04   -0.14362E+00   -0.14991E+00  6457   0.632E-01    0.965E-01
RMM:   3    -0.231877531851E+04   -0.12202E-01   -0.17331E-01  6284   0.257E-01    0.124E+00
RMM:   4    -0.231876676480E+04    0.85537E-02   -0.16231E-02  6272   0.585E-02    0.348E-01
RMM:   5    -0.231876664559E+04    0.11922E-03   -0.39176E-03  5528   0.298E-02    0.407E-01
RMM:   6    -0.231876507126E+04    0.15743E-02   -0.29107E-03  5714   0.291E-02    0.204E-01
RMM:   7    -0.231876470794E+04    0.36332E-03   -0.14686E-03  5413   0.209E-02    0.123E-01
RMM:   8    -0.231876455026E+04    0.15768E-03   -0.40101E-04  3994   0.131E-02    0.567E-02
RMM:   9    -0.231876451914E+04    0.31122E-04   -0.73933E-05  3087   0.694E-03    0.258E-02
RMM:  10    -0.231876451007E+04    0.90734E-05   -0.31685E-05  2938   0.521E-03
  37 F= -.23400899E+04 E0= -.23400889E+04  d E =-.194196E-01  mag=     3.0000
       N       E                     dE             d eps       ncg     rms          rms(c)
DAV:   1    -0.231875125060E+04    0.13269E-01   -0.74901E-01  4528   0.838E-01    0.333E-01
RMM:   2    -0.231876754379E+04   -0.16293E-01   -0.16521E-01  6462   0.211E-01    0.412E-01
RMM:   3    -0.231876799707E+04   -0.45329E-03   -0.17476E-02  6117   0.826E-02    0.332E-01
RMM:   4    -0.231876718706E+04    0.81001E-03   -0.17534E-03  5084   0.195E-02    0.119E-01
RMM:   5    -0.231876715117E+04    0.35888E-04   -0.39246E-04  4091   0.111E-02    0.121E-01
RMM:   6    -0.231876702218E+04    0.12899E-03   -0.31622E-04  4415   0.110E-02    0.665E-02
RMM:   7    -0.231876700335E+04    0.18826E-04   -0.16806E-04  3306   0.865E-03    0.511E-02
RMM:   8    -0.231876697421E+04    0.29145E-04   -0.48892E-05  2962   0.617E-03    0.197E-02
RMM:   9    -0.231876697031E+04    0.39021E-05   -0.87934E-06  2898   0.324E-03
  38 F= -.23400918E+04 E0= -.23400910E+04  d E =-.213829E-01  mag=     3.0000
       N       E                     dE             d eps       ncg     rms          rms(c)
DAV:   1    -0.231874278139E+04    0.24193E-01   -0.16609E+00  4496   0.119E+00    0.474E-01
RMM:   2    -0.231877861985E+04   -0.35838E-01   -0.36656E-01  6559   0.297E-01    0.561E-01
RMM:   3    -0.231878094928E+04   -0.23294E-02   -0.40342E-02  6313   0.118E-01    0.611E-01
RMM:   4    -0.231877902143E+04    0.19278E-02   -0.40402E-03  5217   0.281E-02    0.220E-01
RMM:   5    -0.231877890305E+04    0.11839E-03   -0.89965E-04  5095   0.156E-02    0.200E-01
RMM:   6    -0.231877851115E+04    0.39189E-03   -0.81146E-04  4750   0.158E-02    0.891E-02
RMM:   7    -0.231877849678E+04    0.14372E-04   -0.33352E-04  3861   0.107E-02    0.727E-02
RMM:   8    -0.231877842923E+04    0.67546E-04   -0.79083E-05  3000   0.656E-03    0.199E-02
RMM:   9    -0.231877842564E+04    0.35929E-05   -0.16545E-05  2921   0.390E-03
  39 F= -.23401037E+04 E0= -.23401027E+04  d E =-.118805E-01  mag=     3.0000
       N       E                     dE             d eps       ncg     rms          rms(c)
DAV:   1    -0.231855878254E+04    0.21965E+00   -0.10678E+01  4496   0.303E+00    0.132E+00
RMM:   2    -0.231880157914E+04   -0.24280E+00   -0.23820E+00  6574   0.761E-01    0.189E+00
RMM:   3    -0.231880945033E+04   -0.78712E-02   -0.29139E-01  6404   0.316E-01    0.185E+00
RMM:   4    -0.231879535190E+04    0.14098E-01   -0.28056E-02  5913   0.727E-02    0.759E-01
RMM:   5    -0.231879552906E+04   -0.17717E-03   -0.70465E-03  5908   0.388E-02    0.664E-01
RMM:   6    -0.231879053248E+04    0.49966E-02   -0.48167E-03  5784   0.353E-02    0.190E-01
RMM:   7    -0.231879043912E+04    0.93362E-04   -0.23128E-03  5358   0.253E-02    0.138E-01
RMM:   8    -0.231879029889E+04    0.14023E-03   -0.57885E-04  4568   0.142E-02    0.791E-02
RMM:   9    -0.231879029112E+04    0.77677E-05   -0.16582E-04  3561   0.871E-03    0.396E-02
RMM:  10    -0.231879030377E+04   -0.12653E-04   -0.41083E-05  3013   0.585E-03    0.185E-02
RMM:  11    -0.231879032303E+04   -0.19252E-04   -0.23133E-05  2943   0.447E-03    0.981E-03
RMM:  12    -0.231879034012E+04   -0.17091E-04   -0.15590E-05  2947   0.397E-03    0.884E-03
RMM:  13    -0.231879034692E+04   -0.67999E-05   -0.50367E-06  2837   0.312E-03
  40 F= -.23401167E+04 E0= -.23401158E+04  d E =-.249141E-01  mag=     3.0000
       N       E                     dE             d eps       ncg     rms          rms(c)
DAV:   1    -0.231876987098E+04    0.20469E-01   -0.12848E+00  4544   0.104E+00    0.486E-01
RMM:   2    -0.231880074877E+04   -0.30878E-01   -0.30794E-01  6586   0.270E-01    0.670E-01
RMM:   3    -0.231880266279E+04   -0.19140E-02   -0.35240E-02  6288   0.110E-01    0.703E-01
RMM:   4    -0.231880046529E+04    0.21975E-02   -0.34430E-03  4907   0.264E-02    0.279E-01
RMM:   5    -0.231880027404E+04    0.19125E-03   -0.93250E-04  4975   0.148E-02    0.192E-01
RMM:   6    -0.231879989484E+04    0.37920E-03   -0.63503E-04  3836   0.138E-02    0.763E-02
RMM:   7    -0.231879984913E+04    0.45704E-04   -0.18678E-04  3345   0.825E-03    0.450E-02
RMM:   8    -0.231879983923E+04    0.99004E-05   -0.52770E-05  2982   0.613E-03
  41 F= -.23401267E+04 E0= -.23401259E+04  d E =-.997913E-02  mag=     3.0000
       N       E                     dE             d eps       ncg     rms          rms(c)
DAV:   1    -0.231854358372E+04    0.25627E+00   -0.11520E+01  4496   0.313E+00    0.138E+00
RMM:   2    -0.231881218402E+04   -0.26860E+00   -0.27728E+00  6602   0.820E-01    0.157E+00
RMM:   3    -0.231883998936E+04   -0.27805E-01   -0.33913E-01  6409   0.332E-01    0.181E+00
RMM:   4    -0.231882185037E+04    0.18139E-01   -0.32769E-02  6183   0.782E-02    0.672E-01
RMM:   5    -0.231882214420E+04   -0.29383E-03   -0.66781E-03  5762   0.372E-02    0.693E-01
RMM:   6    -0.231881718470E+04    0.49595E-02   -0.58230E-03  5867   0.376E-02    0.204E-01
RMM:   7    -0.231881709165E+04    0.93052E-04   -0.22376E-03  5232   0.233E-02    0.157E-01
RMM:   8    -0.231881697562E+04    0.11603E-03   -0.66289E-04  4325   0.143E-02    0.104E-01
RMM:   9    -0.231881688866E+04    0.86964E-04   -0.17635E-04  3342   0.925E-03    0.323E-02
RMM:  10    -0.231881691361E+04   -0.24955E-04   -0.43544E-05  3054   0.548E-03    0.187E-02
RMM:  11    -0.231881692989E+04   -0.16277E-04   -0.13691E-05  2903   0.425E-03    0.102E-02
RMM:  12    -0.231881694059E+04   -0.10697E-04   -0.91529E-06  2908   0.329E-03    0.629E-03
RMM:  13    -0.231881694905E+04   -0.84606E-05   -0.68847E-06  2904   0.291E-03
  42 F= -.23401453E+04 E0= -.23401450E+04  d E =-.285786E-01  mag=     3.0000
       N       E                     dE             d eps       ncg     rms          rms(c)
DAV:   1    -0.231765702963E+04    0.11599E+01   -0.45698E+01  4496   0.628E+00    0.232E+00
RMM:   2    -0.231871737451E+04   -0.10603E+01   -0.11375E+01  6618   0.170E+00    0.155E+00
RMM:   3    -0.231881090869E+04   -0.93534E-01   -0.12425E+00  6299   0.627E-01    0.146E+00
RMM:   4    -0.231879287206E+04    0.18037E-01   -0.12794E-01  6639   0.145E-01    0.852E-01
RMM:   5    -0.231878358695E+04    0.92851E-02   -0.17012E-02  5761   0.641E-02    0.460E-01
RMM:   6    -0.231878181100E+04    0.17760E-02   -0.14410E-02  5813   0.597E-02    0.308E-01
RMM:   7    -0.231878116592E+04    0.64507E-03   -0.32264E-03  5679   0.354E-02    0.210E-01
RMM:   8    -0.231878090865E+04    0.25728E-03   -0.11603E-03  5317   0.182E-02    0.184E-01
RMM:   9    -0.231878062273E+04    0.28592E-03   -0.46415E-04  3636   0.124E-02    0.923E-02
RMM:  10    -0.231878051470E+04    0.10803E-03   -0.25824E-04  3248   0.100E-02    0.397E-02
RMM:  11    -0.231878051464E+04    0.62879E-07   -0.10803E-04  3099   0.641E-03    0.130E-02
RMM:  12    -0.231878052829E+04   -0.13646E-04   -0.21599E-05  2963   0.480E-03    0.915E-03
RMM:  13    -0.231878053679E+04   -0.85059E-05   -0.92099E-06  2859   0.383E-03
  43 F= -.23401120E+04 E0= -.23401120E+04  d E =0.476197E-02  mag=     3.0000
       N       E                     dE             d eps       ncg     rms          rms(c)
[...]
       N       E                     dE             d eps       ncg     rms          rms(c)
DAV:   1    -0.231928204232E+04    0.11828E-01   -0.13928E+00  4504   0.129E+00    0.327E-01
RMM:   2    -0.231929841978E+04   -0.16377E-01   -0.16567E-01  6229   0.254E-01    0.303E-01
RMM:   3    -0.231929882904E+04   -0.40925E-03   -0.14703E-02  5943   0.893E-02    0.215E-01
RMM:   4    -0.231929823790E+04    0.59113E-03   -0.16972E-03  5148   0.216E-02    0.891E-02
RMM:   5    -0.231929821063E+04    0.27274E-04   -0.32754E-04  4254   0.131E-02    0.964E-02
RMM:   6    -0.231929810995E+04    0.10068E-03   -0.20511E-04  4204   0.990E-03    0.412E-02
RMM:   7    -0.231929809636E+04    0.13586E-04   -0.60549E-05  3086   0.791E-03    0.128E-02
RMM:   8    -0.231929809598E+04    0.38117E-06   -0.13296E-05  2913   0.480E-03
 127 F= -.23405884E+04 E0= -.23405884E+04  d E =-.414649E-02  mag=     3.0000
       N       E                     dE             d eps       ncg     rms          rms(c)
DAV:   1    -0.231928203865E+04    0.16058E-01   -0.15159E+00  4496   0.134E+00    0.341E-01
RMM:   2    -0.231929983662E+04   -0.17798E-01   -0.18029E-01  6226   0.266E-01    0.312E-01
RMM:   3    -0.231930032108E+04   -0.48446E-03   -0.15975E-02  5956   0.932E-02    0.224E-01
RMM:   4    -0.231929967771E+04    0.64337E-03   -0.18461E-03  5230   0.226E-02    0.929E-02
RMM:   5    -0.231929964087E+04    0.36843E-04   -0.35971E-04  4387   0.138E-02    0.981E-02
RMM:   6    -0.231929953893E+04    0.10193E-03   -0.22109E-04  4264   0.102E-02    0.451E-02
RMM:   7    -0.231929952198E+04    0.16953E-04   -0.67147E-05  3151   0.809E-03    0.148E-02
RMM:   8    -0.231929952077E+04    0.12082E-05   -0.15924E-05  2916   0.501E-03
 128 F= -.23405897E+04 E0= -.23405897E+04  d E =-.548778E-02  mag=     3.0000
       N       E                     dE             d eps       ncg     rms          rms(c)
DAV:   1    -0.231928130383E+04    0.18218E-01   -0.17922E+00  4496   0.147E+00    0.390E-01
RMM:   2    -0.231930360379E+04   -0.22300E-01   -0.22585E-01  6264   0.293E-01    0.346E-01
RMM:   3    -0.231930435285E+04   -0.74906E-03   -0.20575E-02  5979   0.105E-01    0.260E-01
RMM:   4    -0.231930346424E+04    0.88861E-03   -0.23777E-03  5383   0.255E-02    0.103E-01
RMM:   5    -0.231930341205E+04    0.52188E-04   -0.40789E-04  4473   0.144E-02    0.106E-01
RMM:   6    -0.231930329518E+04    0.11687E-03   -0.26774E-04  4423   0.109E-02    0.539E-02
RMM:   7    -0.231930327283E+04    0.22355E-04   -0.11157E-04  3447   0.948E-03    0.229E-02
RMM:   8    -0.231930326613E+04    0.66950E-05   -0.23991E-05  2931   0.554E-03
 129 F= -.23405934E+04 E0= -.23405934E+04  d E =-.363274E-02  mag=     3.0000
       N       E                     dE             d eps       ncg     rms          rms(c)
DAV:   1    -0.231929568768E+04    0.75851E-02   -0.66382E-01  4576   0.894E-01    0.238E-01
RMM:   2    -0.231930396651E+04   -0.82788E-02   -0.83826E-02  6232   0.178E-01    0.212E-01
RMM:   3    -0.231930424379E+04   -0.27728E-03   -0.77181E-03  5852   0.653E-02    0.160E-01
RMM:   4    -0.231930391023E+04    0.33356E-03   -0.88860E-04  4511   0.158E-02    0.627E-02
RMM:   5    -0.231930389405E+04    0.16186E-04   -0.15109E-04  3260   0.950E-03    0.667E-02
RMM:   6    -0.231930384615E+04    0.47898E-04   -0.10261E-04  3338   0.817E-03    0.317E-02
RMM:   7    -0.231930383900E+04    0.71458E-05   -0.46522E-05  2985   0.695E-03
 130 F= -.23405939E+04 E0= -.23405939E+04  d E =-.413864E-02  mag=     3.0000
       N       E                     dE             d eps       ncg     rms          rms(c)
DAV:   1    -0.231928673226E+04    0.17114E-01   -0.15331E+00  4496   0.135E+00    0.344E-01
RMM:   2    -0.231930692248E+04   -0.20190E-01   -0.20815E-01  6316   0.275E-01    0.282E-01
RMM:   3    -0.231930794630E+04   -0.10238E-02   -0.18661E-02  5990   0.955E-02    0.232E-01
RMM:   4    -0.231930726585E+04    0.68045E-03   -0.21792E-03  5200   0.231E-02    0.100E-01
RMM:   5    -0.231930719417E+04    0.71676E-04   -0.31267E-04  3955   0.117E-02    0.866E-02
RMM:   6    -0.231930713217E+04    0.61997E-04   -0.22748E-04  3962   0.101E-02    0.630E-02
RMM:   7    -0.231930709614E+04    0.36039E-04   -0.13072E-04  3718   0.952E-03    0.236E-02
RMM:   8    -0.231930708860E+04    0.75398E-05   -0.25999E-05  2951   0.556E-03
 131 F= -.23405971E+04 E0= -.23405971E+04  d E =-.324503E-02  mag=     3.0000
       N       E                     dE             d eps       ncg     rms          rms(c)
DAV:   1    -0.231928758454E+04    0.19512E-01   -0.15413E+00  4496   0.135E+00    0.345E-01
RMM:   2    -0.231930793522E+04   -0.20351E-01   -0.20955E-01  6301   0.275E-01    0.285E-01
RMM:   3    -0.231930894822E+04   -0.10130E-02   -0.18756E-02  6000   0.945E-02    0.234E-01
RMM:   4    -0.231930825628E+04    0.69193E-03   -0.21937E-03  5200   0.231E-02    0.100E-01
RMM:   5    -0.231930818663E+04    0.69658E-04   -0.31783E-04  3942   0.117E-02    0.892E-02
RMM:   6    -0.231930811791E+04    0.68712E-04   -0.23205E-04  3974   0.101E-02    0.613E-02
RMM:   7    -0.231930808263E+04    0.35284E-04   -0.13044E-04  3760   0.953E-03    0.223E-02
RMM:   8    -0.231930807594E+04    0.66951E-05   -0.24503E-05  2948   0.545E-03
 132 F= -.23405981E+04 E0= -.23405981E+04  d E =-.423140E-02  mag=     3.0000
       N       E                     dE             d eps       ncg     rms          rms(c)
DAV:   1    -0.231929291348E+04    0.15169E-01   -0.14089E+00  4496   0.129E+00    0.332E-01
RMM:   2    -0.231931116958E+04   -0.18256E-01   -0.18679E-01  6238   0.261E-01    0.281E-01
RMM:   3    -0.231931198753E+04   -0.81796E-03   -0.16666E-02  5950   0.911E-02    0.224E-01
RMM:   4    -0.231931132845E+04    0.65909E-03   -0.19330E-03  5107   0.220E-02    0.938E-02
RMM:   5    -0.231931128992E+04    0.38528E-04   -0.31973E-04  3931   0.118E-02    0.967E-02
RMM:   6    -0.231931118854E+04    0.10138E-03   -0.22279E-04  4126   0.102E-02    0.423E-02
RMM:   7    -0.231931117577E+04    0.12766E-04   -0.82966E-05  3338   0.839E-03    0.159E-02
RMM:   8    -0.231931117368E+04    0.20962E-05   -0.15429E-05  2906   0.523E-03
 133 F= -.23406010E+04 E0= -.23406010E+04  d E =-.291551E-02  mag=     3.0000
       N       E                     dE             d eps       ncg     rms          rms(c)
DAV:   1    -0.231929281471E+04    0.18361E-01   -0.14934E+00  4512   0.133E+00    0.342E-01
RMM:   2    -0.231931217969E+04   -0.19365E-01   -0.19810E-01  6244   0.269E-01    0.288E-01
RMM:   3    -0.231931305559E+04   -0.87591E-03   -0.17763E-02  5956   0.940E-02    0.230E-01
RMM:   4    -0.231931236000E+04    0.69559E-03   -0.20439E-03  5146   0.227E-02    0.969E-02
RMM:   5    -0.231931231852E+04    0.41481E-04   -0.34275E-04  4009   0.121E-02    0.997E-02
RMM:   6    -0.231931220958E+04    0.10893E-03   -0.24075E-04  4199   0.104E-02    0.434E-02
RMM:   7    -0.231931219538E+04    0.14201E-04   -0.85931E-05  3364   0.857E-03    0.164E-02
RMM:   8    -0.231931219297E+04    0.24183E-05   -0.16359E-05  2911   0.525E-03
 134 F= -.23406019E+04 E0= -.23406019E+04  d E =-.374980E-02  mag=     3.0000
       N       E                     dE             d eps       ncg     rms          rms(c)
DAV:   1    -0.231929130707E+04    0.20888E-01   -0.18663E+00  4496   0.148E+00    0.372E-01
RMM:   2    -0.231931495807E+04   -0.23651E-01   -0.24105E-01  6189   0.294E-01    0.319E-01
RMM:   3    -0.231931601217E+04   -0.10541E-02   -0.21806E-02  5925   0.104E-01    0.249E-01
RMM:   4    -0.231931519299E+04    0.81918E-03   -0.24916E-03  5322   0.249E-02    0.108E-01
RMM:   5    -0.231931513962E+04    0.53370E-04   -0.41836E-04  4247   0.133E-02    0.109E-01
RMM:   6    -0.231931501184E+04    0.12778E-03   -0.30162E-04  4482   0.114E-02    0.494E-02
RMM:   7    -0.231931499592E+04    0.15922E-04   -0.10928E-04  3485   0.930E-03    0.183E-02
RMM:   8    -0.231931499307E+04    0.28467E-05   -0.19094E-05  2917   0.528E-03
 135 F= -.23406047E+04 E0= -.23406047E+04  d E =-.278278E-02  mag=     3.0000
       N       E                     dE             d eps       ncg     rms          rms(c)
DAV:   1    -0.231930702443E+04    0.79715E-02   -0.65465E-01  4544   0.880E-01    0.222E-01
RMM:   2    -0.231931532756E+04   -0.83031E-02   -0.84756E-02  6223   0.175E-01    0.188E-01
RMM:   3    -0.231931572114E+04   -0.39358E-03   -0.76755E-03  5739   0.613E-02    0.150E-01
RMM:   4    -0.231931542494E+04    0.29620E-03   -0.87715E-04  4009   0.150E-02    0.641E-02
RMM:   5    -0.231931540846E+04    0.16477E-04   -0.14622E-04  3082   0.876E-03    0.658E-02
RMM:   6    -0.231931536154E+04    0.46928E-04   -0.11055E-04  3413   0.825E-03    0.286E-02
RMM:   7    -0.231931535743E+04    0.41072E-05   -0.43932E-05  3014   0.668E-03
 136 F= -.23406050E+04 E0= -.23406050E+04  d E =-.313971E-02  mag=     3.0000
       N       E                     dE             d eps       ncg     rms          rms(c)
DAV:   1    -0.231930316656E+04    0.12195E-01   -0.11580E+00  4496   0.118E+00    0.302E-01
RMM:   2    -0.231931736953E+04   -0.14203E-01   -0.14572E-01  6148   0.233E-01    0.242E-01
RMM:   3    -0.231931813741E+04   -0.76788E-03   -0.13214E-02  5789   0.878E-02    0.206E-01
RMM:   4    -0.231931757912E+04    0.55829E-03   -0.15444E-03  5046   0.205E-02    0.860E-02
RMM:   5    -0.231931754169E+04    0.37433E-04   -0.25846E-04  3854   0.115E-02    0.820E-02
RMM:   6    -0.231931747346E+04    0.68232E-04   -0.19648E-04  4140   0.988E-03    0.465E-02
RMM:   7    -0.231931746281E+04    0.10649E-04   -0.90388E-05  3093   0.851E-03    0.265E-02
RMM:   8    -0.231931745291E+04    0.98981E-05   -0.20263E-05  2913   0.549E-03
 137 F= -.23406072E+04 E0= -.23406072E+04  d E =-.218185E-02  mag=     3.0000
       N       E                     dE             d eps       ncg     rms          rms(c)
DAV:   1    -0.231931230863E+04    0.51542E-02   -0.43385E-01  4544   0.723E-01    0.186E-01
RMM:   2    -0.231931765704E+04   -0.53484E-02   -0.54776E-02  6225   0.143E-01    0.150E-01
RMM:   3    -0.231931793157E+04   -0.27453E-03   -0.49311E-03  5615   0.499E-02    0.126E-01
RMM:   4    -0.231931772065E+04    0.21092E-03   -0.57769E-04  3551   0.126E-02    0.536E-02
RMM:   5    -0.231931770740E+04    0.13253E-04   -0.97938E-05  3018   0.784E-03    0.514E-02
RMM:   6    -0.231931767961E+04    0.27786E-04   -0.78224E-05  3154   0.727E-03    0.281E-02
RMM:   7    -0.231931767680E+04    0.28125E-05   -0.39893E-05  2939   0.637E-03
 138 F= -.23406075E+04 E0= -.23406075E+04  d E =-.246032E-02  mag=     3.0000
       N       E                     dE             d eps       ncg     rms          rms(c)
DAV:   1    -0.231930389026E+04    0.13789E-01   -0.13440E+00  4496   0.128E+00    0.331E-01
RMM:   2    -0.231931929878E+04   -0.15409E-01   -0.15990E-01  6166   0.253E-01    0.235E-01
RMM:   3    -0.231932030925E+04   -0.10105E-02   -0.14405E-02  5822   0.941E-02    0.228E-01
RMM:   4    -0.231931961480E+04    0.69445E-03   -0.17393E-03  5277   0.223E-02    0.914E-02
RMM:   5    -0.231931955135E+04    0.63452E-04   -0.30050E-04  4265   0.124E-02    0.812E-02
RMM:   6    -0.231931949279E+04    0.58557E-04   -0.21126E-04  4168   0.995E-03    0.552E-02
RMM:   7    -0.231931946531E+04    0.27484E-04   -0.93615E-05  3341   0.857E-03    0.218E-02
RMM:   8    -0.231931945844E+04    0.68686E-05   -0.19301E-05  2923   0.557E-03
 139 F= -.23406091E+04 E0= -.23406091E+04  d E =-.164635E-02  mag=     3.0000
       N       E                     dE             d eps       ncg     rms          rms(c)
DAV:   1    -0.231931918029E+04    0.28502E-03   -0.25239E-02  5000   0.176E-01    0.471E-02
RMM:   2    -0.231931947927E+04   -0.29898E-03   -0.30818E-03  6295   0.362E-02    0.367E-02
RMM:   3    -0.231931949515E+04   -0.15885E-04   -0.28122E-04  3069   0.126E-02    0.330E-02
RMM:   4    -0.231931948061E+04    0.14538E-04   -0.35145E-05  2946   0.451E-03    0.133E-02
RMM:   5    -0.231931947971E+04    0.90849E-06   -0.75459E-06  2866   0.236E-03
 140 F= -.23406091E+04 E0= -.23406091E+04  d E =-.164918E-02  mag=     3.0000
       N       E                     dE             d eps       ncg     rms          rms(c)
DAV:   1    -0.231931045001E+04    0.90306E-02   -0.99695E-01  4512   0.110E+00    0.279E-01
RMM:   2    -0.231932133067E+04   -0.10881E-01   -0.11332E-01  6172   0.219E-01    0.191E-01
RMM:   3    -0.231932196381E+04   -0.63314E-03   -0.99807E-03  5854   0.746E-02    0.183E-01
RMM:   4    -0.231932153660E+04    0.42721E-03   -0.12139E-03  4910   0.185E-02    0.829E-02
RMM:   5    -0.231932148851E+04    0.48090E-04   -0.22741E-04  3832   0.110E-02    0.662E-02
RMM:   6    -0.231932145293E+04    0.35578E-04   -0.17419E-04  3986   0.935E-03    0.518E-02
RMM:   7    -0.231932143180E+04    0.21133E-04   -0.71556E-05  3022   0.793E-03    0.261E-02
RMM:   8    -0.231932142270E+04    0.90947E-05   -0.19557E-05  2920   0.510E-03
 141 F= -.23406107E+04 E0= -.23406107E+04  d E =-.162674E-02  mag=     3.0000
       N       E                     dE             d eps       ncg     rms          rms(c)
DAV:   1    -0.231932000616E+04    0.14256E-02   -0.14457E-01  4560   0.418E-01    0.108E-01
RMM:   2    -0.231932160113E+04   -0.15950E-02   -0.16559E-02  6234   0.842E-02    0.757E-02
RMM:   3    -0.231932169764E+04   -0.96507E-04   -0.14826E-03  4362   0.281E-02    0.737E-02
RMM:   4    -0.231932162715E+04    0.70484E-04   -0.17966E-04  3023   0.821E-03    0.316E-02
RMM:   5    -0.231932162133E+04    0.58202E-05   -0.35479E-05  2940   0.515E-03
 142 F= -.23406108E+04 E0= -.23406108E+04  d E =-.170532E-02  mag=     3.0000
       N       E                     dE             d eps       ncg     rms          rms(c)
DAV:   1    -0.231931109268E+04    0.10534E-01   -0.11510E+00  4496   0.118E+00    0.303E-01
RMM:   2    -0.231932316250E+04   -0.12070E-01   -0.12525E-01  6181   0.237E-01    0.206E-01
RMM:   3    -0.231932388659E+04   -0.72409E-03   -0.10998E-02  5886   0.822E-02    0.204E-01
RMM:   4    -0.231932333698E+04    0.54962E-03   -0.13071E-03  5080   0.203E-02    0.845E-02
RMM:   5    -0.231932329552E+04    0.41452E-04   -0.31515E-04  4294   0.131E-02    0.735E-02
RMM:   6    -0.231932324718E+04    0.48346E-04   -0.18310E-04  4033   0.965E-03    0.504E-02
RMM:   7    -0.231932322912E+04    0.18055E-04   -0.61676E-05  2990   0.765E-03    0.244E-02
RMM:   8    -0.231932322111E+04    0.80078E-05   -0.17079E-05  2905   0.486E-03
 143 F= -.23406120E+04 E0= -.23406120E+04  d E =-.119744E-02  mag=     3.0000
       N       E                     dE             d eps       ncg     rms          rms(c)
DAV:   1    -0.231932321482E+04    0.14306E-04   -0.11885E-03  5352   0.385E-02    0.120E-02
RMM:   2    -0.231932322937E+04   -0.14556E-04   -0.14406E-04  3650   0.912E-03    0.113E-02
RMM:   3    -0.231932322968E+04   -0.30803E-06   -0.16327E-05  2815   0.500E-03
 144 F= -.23406120E+04 E0= -.23406120E+04  d E =-.119300E-02  mag=     3.0000
       N       E                     dE             d eps       ncg     rms          rms(c)
DAV:   1    -0.231931452520E+04    0.87042E-02   -0.10309E+00  4512   0.111E+00    0.270E-01
RMM:   2    -0.231932478656E+04   -0.10261E-01   -0.10607E-01  6070   0.214E-01    0.187E-01
RMM:   3    -0.231932544234E+04   -0.65578E-03   -0.92895E-03  5676   0.763E-02    0.188E-01
RMM:   4    -0.231932497006E+04    0.47228E-03   -0.11227E-03  4869   0.187E-02    0.796E-02
RMM:   5    -0.231932493479E+04    0.35267E-04   -0.25517E-04  4058   0.117E-02    0.731E-02
RMM:   6    -0.231932488675E+04    0.48039E-04   -0.17666E-04  3834   0.939E-03    0.436E-02
RMM:   7    -0.231932487258E+04    0.14168E-04   -0.47800E-05  2998   0.733E-03    0.179E-02
RMM:   8    -0.231932486855E+04    0.40307E-05   -0.13700E-05  2911   0.465E-03
 145 F= -.23406134E+04 E0= -.23406134E+04  d E =-.140079E-02  mag=     3.0000
       N       E                     dE             d eps       ncg     rms          rms(c)
DAV:   1    -0.231931897983E+04    0.58928E-02   -0.58572E-01  4496   0.834E-01    0.205E-01
RMM:   2    -0.231932483637E+04   -0.58565E-02   -0.60471E-02  6112   0.162E-01    0.143E-01
RMM:   3    -0.231932521276E+04   -0.37639E-03   -0.52932E-03  5573   0.555E-02    0.146E-01
RMM:   4    -0.231932492546E+04    0.28730E-03   -0.63651E-04  4037   0.142E-02    0.592E-02
RMM:   5    -0.231932490960E+04    0.15863E-04   -0.14460E-04  3372   0.925E-03    0.575E-02
RMM:   6    -0.231932487809E+04    0.31510E-04   -0.10404E-04  3329   0.805E-03    0.305E-02
RMM:   7    -0.231932487186E+04    0.62332E-05   -0.29066E-05  2961   0.626E-03
 146 F= -.23406132E+04 E0= -.23406132E+04  d E =-.122658E-02  mag=     3.0000
       N       E                     dE             d eps       ncg     rms          rms(c)
DAV:   1    -0.231932338746E+04    0.14906E-02   -0.16307E-01  4512   0.440E-01    0.106E-01
RMM:   2    -0.231932498507E+04   -0.15976E-02   -0.16607E-02  6149   0.857E-02    0.706E-02
RMM:   3    -0.231932509643E+04   -0.11136E-03   -0.14848E-03  4415   0.297E-02    0.755E-02
RMM:   4    -0.231932501985E+04    0.76576E-04   -0.17164E-04  3016   0.831E-03    0.314E-02
RMM:   5    -0.231932501485E+04    0.49995E-05   -0.43644E-05  2941   0.552E-03
 147 F= -.23406135E+04 E0= -.23406135E+04  d E =-.146269E-02  mag=     3.0000
       N       E                     dE             d eps       ncg     rms          rms(c)
DAV:   1    -0.231932003978E+04    0.49801E-02   -0.58544E-01  4504   0.825E-01    0.205E-01
RMM:   2    -0.231932618491E+04   -0.61451E-02   -0.63883E-02  6115   0.161E-01    0.130E-01
RMM:   3    -0.231932666082E+04   -0.47591E-03   -0.57485E-03  5567   0.582E-02    0.144E-01
RMM:   4    -0.231932639411E+04    0.26671E-03   -0.67251E-04  3666   0.140E-02    0.590E-02
RMM:   5    -0.231932636396E+04    0.30144E-04   -0.12085E-04  3392   0.873E-03    0.475E-02
RMM:   6    -0.231932635159E+04    0.12373E-04   -0.99390E-05  3077   0.785E-03    0.364E-02
RMM:   7    -0.231932633877E+04    0.12818E-04   -0.28141E-05  2945   0.618E-03    0.929E-03
RMM:   8    -0.231932633830E+04    0.47566E-06   -0.76707E-06  2884   0.408E-03
 148 F= -.23406146E+04 E0= -.23406146E+04  d E =-.116122E-02  mag=     3.0000
       N       E                     dE             d eps       ncg     rms          rms(c)
DAV:   1    -0.231932027874E+04    0.60600E-02   -0.59770E-01  4496   0.833E-01    0.208E-01
RMM:   2    -0.231932659249E+04   -0.63138E-02   -0.65535E-02  6128   0.163E-01    0.136E-01
RMM:   3    -0.231932705179E+04   -0.45930E-03   -0.58126E-03  5568   0.563E-02    0.144E-01
RMM:   4    -0.231932678454E+04    0.26725E-03   -0.69802E-04  3761   0.140E-02    0.607E-02
RMM:   5    -0.231932676044E+04    0.24096E-04   -0.13618E-04  3393   0.912E-03    0.529E-02
RMM:   6    -0.231932674076E+04    0.19682E-04   -0.97204E-05  3108   0.773E-03    0.359E-02
RMM:   7    -0.231932672959E+04    0.11172E-04   -0.29803E-05  2943   0.626E-03    0.910E-03
RMM:   8    -0.231932672924E+04    0.34863E-06   -0.80693E-06  2896   0.410E-03
 149 F= -.23406149E+04 E0= -.23406149E+04  d E =-.138934E-02  mag=     3.0000
       N       E                     dE             d eps       ncg     rms          rms(c)
DAV:   1    -0.231931930251E+04    0.74271E-02   -0.71677E-01  4496   0.920E-01    0.236E-01
RMM:   2    -0.231932791124E+04   -0.86087E-02   -0.89935E-02  6248   0.190E-01    0.148E-01
RMM:   3    -0.231932856630E+04   -0.65506E-03   -0.81056E-03  5774   0.655E-02    0.156E-01
RMM:   4    -0.231932826560E+04    0.30070E-03   -0.93613E-04  4021   0.159E-02    0.696E-02
RMM:   5    -0.231932822917E+04    0.36433E-04   -0.16885E-04  3711   0.100E-02    0.573E-02
RMM:   6    -0.231932820804E+04    0.21127E-04   -0.11471E-04  3132   0.809E-03    0.421E-02
RMM:   7    -0.231932819164E+04    0.16397E-04   -0.37410E-05  2931   0.648E-03    0.112E-02
RMM:   8    -0.231932819070E+04    0.94187E-06   -0.92510E-06  2889   0.434E-03
 150 F= -.23406161E+04 E0= -.23406161E+04  d E =-.118418E-02  mag=     3.0000
