       N       E                     dE             d eps       ncg     rms          rms(c)
DAV:   1     0.121054004542E+05    0.12105E+05   -0.83206E+05  4640   0.140E+03
DAV:   2    -0.130112509050E+04   -0.13407E+05   -0.12901E+05  5120   0.318E+02
DAV:   3    -0.249784781290E+04   -0.11967E+04   -0.11873E+04  5520   0.101E+02
DAV:   4    -0.252295585770E+04   -0.25108E+02   -0.24995E+02  5760   0.175E+01
DAV:   5    -0.252358015070E+04   -0.62429E+00   -0.62329E+00  5840   0.245E+00    0.171E+02
RMM:   6    -0.147193997693E+04    0.10516E+04   -0.19217E+03  4492   0.377E+01    0.726E+01
RMM:   7    -0.164730326836E+04   -0.17536E+03   -0.26631E+02  5026   0.133E+01    0.480E+01
RMM:   8    -0.170597415489E+04   -0.58671E+02   -0.39155E+01  5144   0.694E+00    0.396E+01
RMM:   9    -0.181566602732E+04   -0.10969E+03   -0.64378E+01  5085   0.735E+00    0.362E+01
RMM:  10    -0.193755574380E+04   -0.12189E+03   -0.57098E+01  5376   0.699E+00    0.203E+01
RMM:  11    -0.205364255149E+04   -0.11609E+03   -0.52730E+01  4833   0.562E+00    0.175E+01
RMM:  12    -0.216068200604E+04   -0.10704E+03   -0.62425E+01  4643   0.591E+00    0.116E+01
RMM:  13    -0.226384507360E+04   -0.10316E+03   -0.86057E+01  4580   0.658E+00    0.903E+00
RMM:  14    -0.230451934551E+04   -0.40674E+02   -0.39772E+01  4800   0.484E+00    0.443E+00
RMM:  15    -0.231488112864E+04   -0.10362E+02   -0.12624E+01  5016   0.254E+00    0.552E+00
RMM:  16    -0.231571254516E+04   -0.83142E+00   -0.14030E+00  5605   0.871E-01    0.482E+00
RMM:  17    -0.231694640733E+04   -0.12339E+01   -0.78408E-01  4583   0.531E-01    0.370E+00
RMM:  18    -0.231886798872E+04   -0.19216E+01   -0.15424E+00  4619   0.683E-01    0.191E+00
RMM:  19    -0.231966416067E+04   -0.79617E+00   -0.78664E-01  4812   0.441E-01    0.158E+00
RMM:  20    -0.232001050357E+04   -0.34634E+00   -0.38362E-01  4808   0.288E-01    0.107E+00
RMM:  21    -0.232014966323E+04   -0.13916E+00   -0.15277E-01  4802   0.179E-01    0.911E-01
RMM:  22    -0.232028499858E+04   -0.13534E+00   -0.10036E-01  4606   0.150E-01    0.454E-01
RMM:  23    -0.232033505056E+04   -0.50052E-01   -0.30920E-02  4784   0.104E-01    0.234E-01
RMM:  24    -0.232035516940E+04   -0.20119E-01   -0.68441E-03  5035   0.532E-02    0.142E-01
RMM:  25    -0.232037347332E+04   -0.18304E-01   -0.32261E-03  4533   0.385E-02    0.925E-02
RMM:  26    -0.232038837859E+04   -0.14905E-01   -0.27534E-03  4545   0.348E-02    0.651E-02
RMM:  27    -0.232039649833E+04   -0.81197E-02   -0.16559E-03  4469   0.287E-02    0.430E-02
RMM:  28    -0.232039981037E+04   -0.33120E-02   -0.77118E-04  4461   0.184E-02    0.325E-02
RMM:  29    -0.232040176915E+04   -0.19588E-02   -0.46612E-04  4112   0.137E-02    0.195E-02
RMM:  30    -0.232040222278E+04   -0.45363E-03   -0.13769E-04  3959   0.974E-03    0.846E-03
RMM:  31    -0.232040234471E+04   -0.12193E-03   -0.38453E-05  3395   0.501E-03    0.420E-03
RMM:  32    -0.232040239197E+04   -0.47263E-04   -0.12691E-05  3013   0.404E-03    0.289E-03
RMM:  33    -0.232040241117E+04   -0.19197E-04   -0.55618E-06  2887   0.263E-03    0.142E-03
RMM:  34    -0.232040242080E+04   -0.96265E-05   -0.29664E-06  2615   0.203E-03
   1 F= -.23409637E+04 E0= -.23409637E+04  d E =-.313493E-06  mag=     3.0001
       N       E                     dE             d eps       ncg     rms          rms(c)
DAV:   1    -0.232039275327E+04    0.96579E-02   -0.20885E+00  4480   0.767E-01    0.294E-01
RMM:   2    -0.232039203481E+04    0.71845E-03   -0.86603E-03  3703   0.415E-02    0.176E-01
RMM:   3    -0.232039250949E+04   -0.47468E-03   -0.25467E-03  4953   0.214E-02    0.365E-01
RMM:   4    -0.232039156750E+04    0.94199E-03   -0.12626E-03  4558   0.137E-02    0.896E-02
RMM:   5    -0.232039152253E+04    0.44971E-04   -0.97394E-05  2895   0.478E-03    0.321E-02
RMM:   6    -0.232039151493E+04    0.75996E-05   -0.16420E-05  2505   0.244E-03
   2 F= -.23409527E+04 E0= -.23409527E+04  d E =-.215513E-06  mag=     3.0000
       N       E                     dE             d eps       ncg     rms          rms(c)
DAV:   1    -0.232038874736E+04    0.27752E-02   -0.82750E+00  4480   0.152E+00    0.586E-01
RMM:   2    -0.232038512811E+04    0.36193E-02   -0.29102E-02  3921   0.820E-02    0.368E-01
RMM:   3    -0.232038767142E+04   -0.25433E-02   -0.10095E-02  5287   0.458E-02    0.791E-01
RMM:   4    -0.232038316999E+04    0.45014E-02   -0.55876E-03  5031   0.283E-02    0.180E-01
RMM:   5    -0.232038299304E+04    0.17695E-03   -0.40161E-04  3429   0.103E-02    0.762E-02
RMM:   6    -0.232038295862E+04    0.34423E-04   -0.72477E-05  3072   0.432E-03    0.408E-02
RMM:   7    -0.232038295118E+04    0.74346E-05   -0.38870E-05  2919   0.378E-03
   3 F= -.23409445E+04 E0= -.23409445E+04  d E =-.452247E-06  mag=     3.0000
       N       E                     dE             d eps       ncg     rms          rms(c)
DAV:   1    -0.232039263591E+04   -0.96773E-02   -0.42304E+00  4480   0.113E+00    0.417E-01
RMM:   2    -0.232039058307E+04    0.20528E-02   -0.12361E-02  3804   0.548E-02    0.243E-01
RMM:   3    -0.232039158522E+04   -0.10021E-02   -0.53157E-03  4983   0.293E-02    0.521E-01
RMM:   4    -0.232038959791E+04    0.19873E-02   -0.19746E-03  4617   0.191E-02    0.594E-02
RMM:   5    -0.232038957858E+04    0.19333E-04   -0.18855E-04  3043   0.501E-03    0.258E-02
RMM:   6    -0.232038957149E+04    0.70819E-05   -0.24913E-05  2741   0.333E-03
   4 F= -.23409508E+04 E0= -.23409508E+04  d E =-.961242E-06  mag=     3.0000
       N       E                     dE             d eps       ncg     rms          rms(c)
DAV:   1    -0.232037699895E+04    0.12580E-01   -0.85758E+00  4480   0.159E+00    0.618E-01
RMM:   2    -0.232037346378E+04    0.35352E-02   -0.24974E-02  3935   0.769E-02    0.458E-01
RMM:   3    -0.232037729021E+04   -0.38264E-02   -0.10505E-02  5468   0.381E-02    0.895E-01
RMM:   4    -0.232037108643E+04    0.62038E-02   -0.65445E-03  4702   0.329E-02    0.653E-02
RMM:   5    -0.232037102688E+04    0.59553E-04   -0.56417E-04  3496   0.149E-02    0.475E-02
RMM:   6    -0.232037099921E+04    0.27664E-04   -0.63055E-05  3188   0.421E-03    0.260E-02
RMM:   7    -0.232037099750E+04    0.17132E-05   -0.14187E-05  2850   0.301E-03
   5 F= -.23409324E+04 E0= -.23409324E+04  d E =-.949917E-07  mag=     3.0000
       N       E                     dE             d eps       ncg     rms          rms(c)
DAV:   1    -0.232037532431E+04   -0.43251E-02   -0.41345E+00  4480   0.105E+00    0.413E-01
RMM:   2    -0.232037495535E+04    0.36896E-03   -0.13047E-02  3822   0.546E-02    0.319E-01
RMM:   3    -0.232037568241E+04   -0.72706E-03   -0.39725E-03  5013   0.272E-02    0.484E-01
RMM:   4    -0.232037394732E+04    0.17351E-02   -0.23969E-03  4803   0.194E-02    0.180E-01
RMM:   5    -0.232037379937E+04    0.14795E-03   -0.41283E-04  3657   0.900E-03    0.542E-02
RMM:   6    -0.232037382870E+04   -0.29336E-04   -0.69615E-05  2980   0.521E-03    0.585E-02
RMM:   7    -0.232037380680E+04    0.21906E-04   -0.43192E-05  2824   0.350E-03    0.117E-02
RMM:   8    -0.232037380701E+04   -0.20982E-06   -0.80348E-06  2593   0.245E-03
   6 F= -.23409352E+04 E0= -.23409352E+04  d E =-.156936E-06  mag=     3.0000
       N       E                     dE             d eps       ncg     rms          rms(c)
DAV:   1    -0.232041972854E+04   -0.45922E-01   -0.79165E+00  4480   0.148E+00    0.649E-01
RMM:   2    -0.232041934491E+04    0.38363E-03   -0.31832E-02  4005   0.791E-02    0.476E-01
RMM:   3    -0.232041825680E+04    0.10881E-02   -0.70905E-03  4942   0.439E-02    0.530E-01
RMM:   4    -0.232041744168E+04    0.81512E-03   -0.36326E-03  4956   0.225E-02    0.388E-01
RMM:   5    -0.232041658430E+04    0.85738E-03   -0.14538E-03  4462   0.173E-02    0.109E-01
RMM:   6    -0.232041670137E+04   -0.11707E-03   -0.22718E-04  3382   0.830E-03    0.992E-02
RMM:   7    -0.232041663868E+04    0.62686E-04   -0.14511E-04  3207   0.595E-03    0.234E-02
RMM:   8    -0.232041664222E+04   -0.35372E-05   -0.27586E-05  2822   0.387E-03
   7 F= -.23409779E+04 E0= -.23409779E+04  d E =-.543852E-06  mag=     3.0000
       N       E                     dE             d eps       ncg     rms          rms(c)
DAV:   1    -0.232040061723E+04    0.16021E-01   -0.41781E+00  4640   0.106E+00    0.547E-01
RMM:   2    -0.232040287111E+04   -0.22539E-02   -0.21438E-02  4002   0.675E-02    0.509E-01
RMM:   3    -0.232040320811E+04   -0.33700E-03   -0.47450E-03  4519   0.340E-02    0.615E-01
RMM:   4    -0.232040111324E+04    0.20949E-02   -0.24445E-03  4653   0.189E-02    0.316E-01
RMM:   5    -0.232040057001E+04    0.54323E-03   -0.20244E-03  4319   0.182E-02    0.110E-01
RMM:   6    -0.232040057782E+04   -0.78065E-05   -0.23170E-04  3429   0.886E-03    0.592E-02
RMM:   7    -0.232040055506E+04    0.22760E-04   -0.10167E-04  3260   0.542E-03    0.177E-02
RMM:   8    -0.232040055753E+04   -0.24726E-05   -0.11623E-05  2793   0.347E-03
   8 F= -.23409619E+04 E0= -.23409619E+04  d E =-.202562E-06  mag=     3.0000
       N       E                     dE             d eps       ncg     rms          rms(c)
DAV:   1    -0.232037457486E+04    0.25980E-01   -0.84845E+00  4480   0.137E+00    0.686E-01
RMM:   2    -0.232037825211E+04   -0.36772E-02   -0.39069E-02  4099   0.894E-02    0.657E-01
RMM:   3    -0.232037907308E+04   -0.82097E-03   -0.87330E-03  4399   0.495E-02    0.864E-01
RMM:   4    -0.232037517846E+04    0.38946E-02   -0.41471E-03  4802   0.254E-02    0.411E-01
RMM:   5    -0.232037434159E+04    0.83688E-03   -0.29688E-03  4524   0.218E-02    0.164E-01
RMM:   6    -0.232037435844E+04   -0.16849E-04   -0.37814E-04  3667   0.107E-02    0.997E-02
RMM:   7    -0.232037429774E+04    0.60695E-04   -0.16644E-04  3475   0.730E-03    0.229E-02
RMM:   8    -0.232037430178E+04   -0.40384E-05   -0.25446E-05  2928   0.415E-03
   9 F= -.23409356E+04 E0= -.23409356E+04  d E =-.430846E-06  mag=     3.0000
       N       E                     dE             d eps       ncg     rms          rms(c)
DAV:   1    -0.232042772112E+04   -0.53423E-01   -0.42529E+00  4480   0.102E+00    0.462E-01
RMM:   2    -0.232042791687E+04   -0.19575E-03   -0.14322E-02  3974   0.544E-02    0.358E-01
RMM:   3    -0.232042891872E+04   -0.10018E-02   -0.38492E-03  4441   0.320E-02    0.552E-01
RMM:   4    -0.232042704740E+04    0.18713E-02   -0.22970E-03  4865   0.186E-02    0.205E-01
RMM:   5    -0.232042689200E+04    0.15541E-03   -0.83768E-04  4004   0.126E-02    0.801E-02
RMM:   6    -0.232042691026E+04   -0.18259E-04   -0.10838E-04  3148   0.668E-03    0.578E-02
RMM:   7    -0.232042688613E+04    0.24128E-04   -0.60431E-05  3001   0.454E-03    0.125E-02
RMM:   8    -0.232042688694E+04   -0.81427E-06   -0.73165E-06  2681   0.279E-03
  10 F= -.23409883E+04 E0= -.23409883E+04  d E =-.861248E-07  mag=     3.0000
       N       E                     dE             d eps       ncg     rms          rms(c)
DAV:   1    -0.232034632912E+04    0.80557E-01   -0.84904E+00  4480   0.146E+00    0.632E-01
RMM:   2    -0.232034276814E+04    0.35610E-02   -0.28976E-02  4136   0.745E-02    0.436E-01
RMM:   3    -0.232034737358E+04   -0.46054E-02   -0.12174E-02  5394   0.455E-02    0.928E-01
RMM:   4    -0.232034079816E+04    0.65754E-02   -0.59072E-03  5187   0.305E-02    0.126E-01
RMM:   5    -0.232034076888E+04    0.29272E-04   -0.66594E-04  3585   0.110E-02    0.101E-01
RMM:   6    -0.232034071263E+04    0.56251E-04   -0.16118E-04  3376   0.653E-03    0.502E-02
RMM:   7    -0.232034071609E+04   -0.34528E-05   -0.30782E-05  2984   0.405E-03
  11 F= -.23409019E+04 E0= -.23409019E+04  d E =-.107341E-05  mag=     3.0000
       N       E                     dE             d eps       ncg     rms          rms(c)
DAV:   1    -0.232037447495E+04   -0.33762E-01   -0.39425E+00  4480   0.933E-01    0.433E-01
RMM:   2    -0.232037354492E+04    0.93002E-03   -0.15092E-02  3953   0.496E-02    0.232E-01
RMM:   3    -0.232037282670E+04    0.71823E-03   -0.30352E-03  4742   0.276E-02    0.127E-01
RMM:   4    -0.232037326154E+04   -0.43485E-03   -0.92242E-04  4314   0.131E-02    0.268E-01
RMM:   5    -0.232037279985E+04    0.46169E-03   -0.33869E-04  3712   0.782E-03    0.433E-02
RMM:   6    -0.232037280072E+04   -0.86764E-06   -0.75302E-05  2909   0.394E-03
  12 F= -.23409348E+04 E0= -.23409348E+04  d E =-.738333E-06  mag=     3.0000
       N       E                     dE             d eps       ncg     rms          rms(c)
DAV:   1    -0.232043290445E+04   -0.60105E-01   -0.78011E+00  4480   0.136E+00    0.695E-01
RMM:   2    -0.232043086264E+04    0.20418E-02   -0.36041E-02  4132   0.761E-02    0.424E-01
RMM:   3    -0.232043388685E+04   -0.30242E-02   -0.99915E-03  5142   0.452E-02    0.858E-01
RMM:   4    -0.232042873596E+04    0.51509E-02   -0.72511E-03  5313   0.313E-02    0.233E-01
RMM:   5    -0.232042841561E+04    0.32035E-03   -0.67279E-04  3808   0.118E-02    0.509E-02
RMM:   6    -0.232042843808E+04   -0.22470E-04   -0.88793E-05  3083   0.556E-03    0.430E-02
RMM:   7    -0.232042844261E+04   -0.45298E-05   -0.29102E-05  2937   0.344E-03
  13 F= -.23409891E+04 E0= -.23409891E+04  d E =-.110282E-06  mag=     3.0000
       N       E                     dE             d eps       ncg     rms          rms(c)
DAV:   1    -0.232042133419E+04    0.71039E-02   -0.22468E+00  4480   0.761E-01    0.410E-01
RMM:   2    -0.232042047744E+04    0.85675E-03   -0.14240E-02  3930   0.470E-02    0.243E-01
RMM:   3    -0.232042088545E+04   -0.40802E-03   -0.32376E-03  4709   0.284E-02    0.429E-01
RMM:   4    -0.232041974498E+04    0.11405E-02   -0.19325E-03  4911   0.165E-02    0.156E-01
RMM:   5    -0.232041961173E+04    0.13325E-03   -0.19192E-04  3265   0.714E-03    0.449E-02
RMM:   6    -0.232041962403E+04   -0.12296E-04   -0.45367E-05  2871   0.376E-03    0.386E-02
RMM:   7    -0.232041962008E+04    0.39442E-05   -0.16527E-05  2658   0.255E-03
  14 F= -.23409805E+04 E0= -.23409805E+04  d E =-.377985E-06  mag=     3.0000
       N       E                     dE             d eps       ncg     rms          rms(c)
DAV:   1    -0.232037894337E+04    0.40681E-01   -0.11401E+00  4800   0.490E-01    0.440E-01
RMM:   2    -0.232037674288E+04    0.22005E-02   -0.12302E-02  4053   0.430E-02    0.238E-01
RMM:   3    -0.232037692394E+04   -0.18106E-03   -0.23172E-03  4183   0.275E-02    0.344E-01
RMM:   4    -0.232037629000E+04    0.63394E-03   -0.14352E-03  4491   0.152E-02    0.174E-01
RMM:   5    -0.232037610787E+04    0.18213E-03   -0.17949E-04  3633   0.715E-03    0.457E-02
RMM:   6    -0.232037610428E+04    0.35865E-05   -0.30601E-05  2755   0.374E-03
  15 F= -.23409378E+04 E0= -.23409378E+04  d E =-.259399E-06  mag=     3.0000
       N       E                     dE             d eps       ncg     rms          rms(c)
DAV:   1    -0.232038294254E+04   -0.68347E-02   -0.56644E-01  4720   0.342E-01    0.190E-01
RMM:   2    -0.232038294763E+04   -0.50890E-05   -0.18569E-03  3567   0.191E-02    0.118E-01
RMM:   3    -0.232038348560E+04   -0.53797E-03   -0.81355E-04  4366   0.118E-02    0.279E-01
RMM:   4    -0.232038292180E+04    0.56380E-03   -0.31717E-04  3484   0.754E-03    0.295E-02
RMM:   5    -0.232038292089E+04    0.91360E-06   -0.48015E-05  2696   0.324E-03
  16 F= -.23409444E+04 E0= -.23409444E+04  d E =-.292121E-06  mag=     3.0000
       N       E                     dE             d eps       ncg     rms          rms(c)
DAV:   1    -0.232041735246E+04   -0.34431E-01   -0.11443E+00  4800   0.493E-01    0.327E-01
RMM:   2    -0.232041687113E+04    0.48132E-03   -0.52255E-03  3839   0.311E-02    0.216E-01
RMM:   3    -0.232041823567E+04   -0.13645E-02   -0.24405E-03  4867   0.192E-02    0.479E-01
RMM:   4    -0.232041662089E+04    0.16148E-02   -0.12061E-03  4437   0.143E-02    0.607E-02
RMM:   5    -0.232041662980E+04   -0.89132E-05   -0.16721E-04  3156   0.549E-03    0.397E-02
RMM:   6    -0.232041662330E+04    0.64957E-05   -0.15994E-05  2649   0.310E-03
  17 F= -.23409778E+04 E0= -.23409778E+04  d E =-.333542E-06  mag=     3.0000
       N       E                     dE             d eps       ncg     rms          rms(c)
DAV:   1    -0.232042816255E+04   -0.11533E-01   -0.57323E-01  4480   0.339E-01    0.223E-01
RMM:   2    -0.232042815392E+04    0.86310E-05   -0.18373E-03  3548   0.201E-02    0.143E-01
RMM:   3    -0.232042819335E+04   -0.39428E-04   -0.64295E-04  4056   0.114E-02    0.140E-01
RMM:   4    -0.232042810419E+04    0.89156E-04   -0.24695E-04  3091   0.733E-03    0.853E-02
RMM:   5    -0.232042807000E+04    0.34193E-04   -0.52026E-05  2822   0.423E-03    0.296E-02
RMM:   6    -0.232042807484E+04   -0.48420E-05   -0.12184E-05  2463   0.246E-03
  18 F= -.23409893E+04 E0= -.23409893E+04  d E =-.251659E-06  mag=     3.0000
       N       E                     dE             d eps       ncg     rms          rms(c)
DAV:   1    -0.232036840030E+04    0.59670E-01   -0.11430E+00  5040   0.488E-01    0.437E-01
RMM:   2    -0.232036643791E+04    0.19624E-02   -0.10957E-02  3790   0.434E-02    0.269E-01
RMM:   3    -0.232036767833E+04   -0.12404E-02   -0.34703E-03  4956   0.264E-02    0.498E-01
RMM:   4    -0.232036599199E+04    0.16863E-02   -0.19489E-03  4686   0.171E-02    0.171E-01
RMM:   5    -0.232036577522E+04    0.21677E-03   -0.33333E-04  3712   0.790E-03    0.404E-02
RMM:   6    -0.232036580622E+04   -0.30996E-04   -0.49961E-05  2884   0.476E-03    0.518E-02
RMM:   7    -0.232036580064E+04    0.55809E-05   -0.18835E-05  2601   0.248E-03
  19 F= -.23409272E+04 E0= -.23409272E+04  d E =-.389935E-06  mag=     3.0000
       N       E                     dE             d eps       ncg     rms          rms(c)
DAV:   1    -0.232036288593E+04    0.29203E-02   -0.57970E-01  5040   0.392E-01    0.310E-01
RMM:   2    -0.232036239000E+04    0.49593E-03   -0.40888E-03  3594   0.331E-02    0.186E-01
RMM:   3    -0.232036259411E+04   -0.20411E-03   -0.14846E-03  4380   0.165E-02    0.274E-01
RMM:   4    -0.232036204601E+04    0.54811E-03   -0.53795E-04  3632   0.106E-02    0.587E-02
RMM:   5    -0.232036203448E+04    0.11524E-04   -0.49062E-05  2767   0.368E-03    0.329E-02
RMM:   6    -0.232036203058E+04    0.39021E-05   -0.78260E-06  2376   0.214E-03
  20 F= -.23409236E+04 E0= -.23409236E+04  d E =-.319320E-06  mag=     3.0000
       N       E                     dE             d eps       ncg     rms          rms(c)
DAV:   1    -0.232043054019E+04   -0.68506E-01   -0.12256E+00  4960   0.556E-01    0.530E-01
RMM:   2    -0.232042659011E+04    0.39501E-02   -0.15530E-02  3918   0.548E-02    0.308E-01
RMM:   3    -0.232042887161E+04   -0.22815E-02   -0.56932E-03  4975   0.326E-02    0.650E-01
RMM:   4    -0.232042581099E+04    0.30606E-02   -0.24801E-03  4957   0.210E-02    0.153E-01
RMM:   5    -0.232042565822E+04    0.15277E-03   -0.24867E-04  3489   0.736E-03    0.602E-02
RMM:   6    -0.232042563503E+04    0.23198E-04   -0.49588E-05  2893   0.500E-03    0.213E-02
RMM:   7    -0.232042563988E+04   -0.48575E-05   -0.13767E-05  2678   0.250E-03
  21 F= -.23409868E+04 E0= -.23409868E+04  d E =-.309456E-06  mag=     3.0000
       N       E                     dE             d eps       ncg     rms          rms(c)
DAV:   1    -0.232038684991E+04    0.38785E-01   -0.62008E-01  4960   0.386E-01    0.410E-01
RMM:   2    -0.232038420114E+04    0.26488E-02   -0.94019E-03  3861   0.438E-02    0.239E-01
RMM:   3    -0.232038560947E+04   -0.14083E-02   -0.35195E-03  4848   0.252E-02    0.504E-01
RMM:   4    -0.232038373979E+04    0.18697E-02   -0.15267E-03  4635   0.163E-02    0.119E-01
RMM:   5    -0.232038364141E+04    0.98385E-04   -0.18695E-04  3334   0.605E-03    0.485E-02
RMM:   6    -0.232038362596E+04    0.15450E-04   -0.35315E-05  2739   0.428E-03    0.219E-02
RMM:   7    -0.232038362841E+04   -0.24529E-05   -0.76893E-06  2530   0.202E-03
  22 F= -.23409451E+04 E0= -.23409451E+04  d E =-.304295E-06  mag=     3.0000
       N       E                     dE             d eps       ncg     rms          rms(c)
DAV:   1    -0.232041417952E+04   -0.30554E-01   -0.11855E+00  4640   0.535E-01    0.384E-01
RMM:   2    -0.232041299333E+04    0.11862E-02   -0.69718E-03  3896   0.360E-02    0.247E-01
RMM:   3    -0.232041467563E+04   -0.16823E-02   -0.33459E-03  4972   0.237E-02    0.524E-01
RMM:   4    -0.232041270464E+04    0.19710E-02   -0.14968E-03  4591   0.164E-02    0.103E-01
RMM:   5    -0.232041265485E+04    0.49791E-04   -0.14893E-04  3287   0.578E-03    0.424E-02
RMM:   6    -0.232041264690E+04    0.79472E-05   -0.27832E-05  2791   0.387E-03
  23 F= -.23409738E+04 E0= -.23409738E+04  d E =-.322346E-06  mag=     3.0000
       N       E                     dE             d eps       ncg     rms          rms(c)
DAV:   1    -0.232041116358E+04    0.14913E-02   -0.59251E-01  4400   0.368E-01    0.235E-01
RMM:   2    -0.232041115234E+04    0.11245E-04   -0.28724E-03  3622   0.230E-02    0.170E-01
RMM:   3    -0.232041179873E+04   -0.64639E-03   -0.12874E-03  4684   0.130E-02    0.333E-01
RMM:   4    -0.232041100707E+04    0.79166E-03   -0.53837E-04  3696   0.107E-02    0.489E-02
RMM:   5    -0.232041100017E+04    0.68970E-05   -0.51168E-05  2860   0.427E-03
  24 F= -.23409725E+04 E0= -.23409725E+04  d E =-.291188E-06  mag=     3.0000
       N       E                     dE             d eps       ncg     rms          rms(c)
DAV:   1    -0.232038958805E+04    0.21419E-01   -0.11798E+00  4640   0.522E-01    0.317E-01
RMM:   2    -0.232038964543E+04   -0.57385E-04   -0.46124E-03  3610   0.312E-02    0.198E-01
RMM:   3    -0.232039095942E+04   -0.13140E-02   -0.21858E-03  4849   0.186E-02    0.441E-01
RMM:   4    -0.232038954366E+04    0.14158E-02   -0.91423E-04  4188   0.126E-02    0.321E-02
RMM:   5    -0.232038953756E+04    0.61001E-05   -0.10936E-04  2902   0.403E-03    0.158E-02
RMM:   6    -0.232038953735E+04    0.21138E-06   -0.11206E-05  2527   0.242E-03
  25 F= -.23409506E+04 E0= -.23409506E+04  d E =-.346582E-06  mag=     3.0000
       N       E                     dE             d eps       ncg     rms          rms(c)
DAV:   1    -0.232040010627E+04   -0.10569E-01   -0.60372E-01  4560   0.397E-01    0.237E-01
RMM:   2    -0.232040011051E+04   -0.42369E-05   -0.23698E-03  3596   0.237E-02    0.163E-01
RMM:   3    -0.232040102886E+04   -0.91835E-03   -0.14606E-03  4801   0.133E-02    0.376E-01
RMM:   4    -0.232040000827E+04    0.10206E-02   -0.63140E-04  4018   0.111E-02    0.182E-02
RMM:   5    -0.232040000056E+04    0.77164E-05   -0.65235E-05  2776   0.423E-03
  26 F= -.23409615E+04 E0= -.23409615E+04  d E =-.294208E-06  mag=     3.0000
       N       E                     dE             d eps       ncg     rms          rms(c)
DAV:   1    -0.232040102583E+04   -0.10176E-02   -0.12236E+00  4480   0.522E-01    0.351E-01
RMM:   2    -0.232040078375E+04    0.24208E-03   -0.38339E-03  3698   0.302E-02    0.210E-01
RMM:   3    -0.232040180291E+04   -0.10192E-02   -0.20523E-03  4719   0.186E-02    0.386E-01
RMM:   4    -0.232040070980E+04    0.10931E-02   -0.78102E-04  4077   0.125E-02    0.330E-02
RMM:   5    -0.232040069815E+04    0.11648E-04   -0.94328E-05  2966   0.385E-03    0.226E-02
RMM:   6    -0.232040069371E+04    0.44479E-05   -0.10213E-05  2578   0.243E-03
  27 F= -.23409619E+04 E0= -.23409619E+04  d E =-.343997E-06  mag=     3.0000
       N       E                     dE             d eps       ncg     rms          rms(c)
DAV:   1    -0.232038346209E+04    0.17236E-01   -0.64418E-01  4720   0.382E-01    0.350E-01
RMM:   2    -0.232038212935E+04    0.13327E-02   -0.59826E-03  3853   0.322E-02    0.205E-01
RMM:   3    -0.232038307071E+04   -0.94136E-03   -0.22154E-03  4623   0.204E-02    0.411E-01
RMM:   4    -0.232038188400E+04    0.11867E-02   -0.10725E-03  4463   0.140E-02    0.108E-01
RMM:   5    -0.232038181471E+04    0.69291E-04   -0.10418E-04  3224   0.518E-03    0.318E-02
RMM:   6    -0.232038181076E+04    0.39540E-05   -0.18437E-05  2730   0.330E-03
  28 F= -.23409425E+04 E0= -.23409425E+04  d E =-.305833E-06  mag=     3.0000
       N       E                     dE             d eps       ncg     rms          rms(c)
DAV:   1    -0.232040215369E+04   -0.20339E-01   -0.13310E+00  5040   0.548E-01    0.653E-01
RMM:   2    -0.232039536817E+04    0.67855E-02   -0.24809E-02  4020   0.637E-02    0.368E-01
RMM:   3    -0.232039824802E+04   -0.28799E-02   -0.82262E-03  5161   0.389E-02    0.758E-01
RMM:   4    -0.232039406154E+04    0.41865E-02   -0.35415E-03  5082   0.250E-02    0.194E-01
RMM:   5    -0.232039378415E+04    0.27739E-03   -0.41551E-04  3761   0.899E-03    0.652E-02
RMM:   6    -0.232039376286E+04    0.21288E-04   -0.73740E-05  3075   0.606E-03    0.329E-02
RMM:   7    -0.232039376962E+04   -0.67551E-05   -0.17014E-05  2735   0.265E-03
  29 F= -.23409557E+04 E0= -.23409557E+04  d E =-.317397E-06  mag=     3.0000
       N       E                     dE             d eps       ncg     rms          rms(c)
DAV:   1    -0.232039082543E+04    0.29374E-02   -0.63114E-01  4800   0.384E-01    0.365E-01
RMM:   2    -0.232038915264E+04    0.16728E-02   -0.69438E-03  3760   0.346E-02    0.211E-01
RMM:   3    -0.232038993729E+04   -0.78465E-03   -0.23878E-03  4739   0.212E-02    0.395E-01
RMM:   4    -0.232038885280E+04    0.10845E-02   -0.11122E-03  4497   0.143E-02    0.125E-01
RMM:   5    -0.232038874111E+04    0.11169E-03   -0.12544E-04  3277   0.560E-03    0.310E-02
RMM:   6    -0.232038874313E+04   -0.20244E-05   -0.24612E-05  2758   0.349E-03
  30 F= -.23409501E+04 E0= -.23409501E+04  d E =-.443989E-06  mag=     3.0000
       N       E                     dE             d eps       ncg     rms          rms(c)
DAV:   1    -0.232041314377E+04   -0.24403E-01   -0.12268E+00  4480   0.512E-01    0.358E-01
RMM:   2    -0.232041300120E+04    0.14257E-03   -0.41566E-03  3709   0.300E-02    0.214E-01
RMM:   3    -0.232041288216E+04    0.11904E-03   -0.12544E-03  4318   0.162E-02    0.614E-02
RMM:   4    -0.232041297935E+04   -0.97184E-04   -0.24060E-04  3262   0.897E-03    0.118E-01
RMM:   5    -0.232041288099E+04    0.98357E-04   -0.81866E-05  2881   0.457E-03    0.370E-02
RMM:   6    -0.232041287721E+04    0.37758E-05   -0.10976E-05  2547   0.239E-03
  31 F= -.23409741E+04 E0= -.23409741E+04  d E =-.219158E-06  mag=     3.0000
       N       E                     dE             d eps       ncg     rms          rms(c)
DAV:   1    -0.232038938713E+04    0.23494E-01   -0.62034E-01  4480   0.377E-01    0.265E-01
RMM:   2    -0.232038920644E+04    0.18069E-03   -0.37688E-03  3782   0.262E-02    0.153E-01
RMM:   3    -0.232038908204E+04    0.12440E-03   -0.80436E-04  4549   0.142E-02    0.793E-02
RMM:   4    -0.232038912317E+04   -0.41130E-04   -0.20897E-04  3294   0.648E-03    0.105E-01
RMM:   5    -0.232038904208E+04    0.81087E-04   -0.45507E-05  2812   0.408E-03    0.114E-02
RMM:   6    -0.232038904116E+04    0.92358E-06   -0.10003E-05  2599   0.201E-03
  32 F= -.23409509E+04 E0= -.23409509E+04  d E =-.339807E-06  mag=     3.0000
       N       E                     dE             d eps       ncg     rms          rms(c)
DAV:   1    -0.232040955830E+04   -0.20516E-01   -0.12664E+00  4640   0.498E-01    0.399E-01
RMM:   2    -0.232040844287E+04    0.11154E-02   -0.65879E-03  4046   0.332E-02    0.231E-01
RMM:   3    -0.232040953990E+04   -0.10970E-02   -0.28573E-03  4847   0.253E-02    0.444E-01
RMM:   4    -0.232040811310E+04    0.14268E-02   -0.11308E-03  4605   0.135E-02    0.672E-02
RMM:   5    -0.232040808627E+04    0.26834E-04   -0.10576E-04  3088   0.483E-03    0.166E-02
RMM:   6    -0.232040808846E+04   -0.21879E-05   -0.12509E-05  2813   0.280E-03
  33 F= -.23409689E+04 E0= -.23409689E+04  d E =-.293784E-06  mag=     3.0000
       N       E                     dE             d eps       ncg     rms          rms(c)
DAV:   1    -0.232038335446E+04    0.24732E-01   -0.66313E-01  4960   0.363E-01    0.417E-01
RMM:   2    -0.232038070092E+04    0.26535E-02   -0.10088E-02  4292   0.380E-02    0.237E-01
RMM:   3    -0.232038219046E+04   -0.14895E-02   -0.36308E-03  4515   0.293E-02    0.529E-01
RMM:   4    -0.232038011216E+04    0.20783E-02   -0.15916E-03  4675   0.159E-02    0.850E-02
RMM:   5    -0.232038005709E+04    0.55063E-04   -0.21197E-04  3310   0.584E-03    0.246E-02
RMM:   6    -0.232038005530E+04    0.17919E-05   -0.19793E-05  2745   0.371E-03
  34 F= -.23409417E+04 E0= -.23409417E+04  d E =-.331389E-06  mag=     3.0000
       N       E                     dE             d eps       ncg     rms          rms(c)
DAV:   1    -0.232041076833E+04   -0.30711E-01   -0.13194E+00  4800   0.511E-01    0.577E-01
RMM:   2    -0.232040551844E+04    0.52499E-02   -0.18640E-02  4616   0.516E-02    0.347E-01
RMM:   3    -0.232040904413E+04   -0.35257E-02   -0.75430E-03  4636   0.408E-02    0.792E-01
RMM:   4    -0.232040439115E+04    0.46530E-02   -0.31048E-03  5022   0.230E-02    0.112E-01
RMM:   5    -0.232040430141E+04    0.89738E-04   -0.41786E-04  3660   0.812E-03    0.330E-02
RMM:   6    -0.232040429738E+04    0.40307E-05   -0.33899E-05  2951   0.467E-03
  35 F= -.23409652E+04 E0= -.23409652E+04  d E =-.297510E-06  mag=     3.0000
       N       E                     dE             d eps       ncg     rms          rms(c)
DAV:   1    -0.232043849297E+04   -0.34192E-01   -0.63499E-01  4640   0.347E-01    0.317E-01
RMM:   2    -0.232043749015E+04    0.10028E-02   -0.50494E-03  4136   0.270E-02    0.192E-01
RMM:   3    -0.232043850485E+04   -0.10147E-02   -0.21306E-03  4300   0.208E-02    0.418E-01
RMM:   4    -0.232043721348E+04    0.12914E-02   -0.90962E-04  4246   0.124E-02    0.674E-02
RMM:   5    -0.232043719435E+04    0.19133E-04   -0.10789E-04  3068   0.471E-03    0.200E-02
RMM:   6    -0.232043719375E+04    0.59853E-06   -0.11672E-05  2637   0.277E-03
  36 F= -.23409988E+04 E0= -.23409988E+04  d E =-.316468E-06  mag=     3.0000
       N       E                     dE             d eps       ncg     rms          rms(c)
DAV:   1    -0.232036309478E+04    0.74100E-01   -0.12155E+00  4480   0.480E-01    0.343E-01
RMM:   2    -0.232036288712E+04    0.20766E-03   -0.41993E-03  3784   0.268E-02    0.202E-01
RMM:   3    -0.232036363278E+04   -0.74566E-03   -0.14376E-03  4620   0.151E-02    0.349E-01
RMM:   4    -0.232036277898E+04    0.85380E-03   -0.71272E-04  3835   0.114E-02    0.552E-02
RMM:   5    -0.232036276677E+04    0.12211E-04   -0.75242E-05  2962   0.425E-03    0.198E-02
RMM:   6    -0.232036276532E+04    0.14487E-05   -0.92842E-06  2698   0.243E-03
  37 F= -.23409238E+04 E0= -.23409238E+04  d E =-.311576E-06  mag=     3.0000
       N       E                     dE             d eps       ncg     rms          rms(c)
DAV:   1    -0.232040507603E+04   -0.42309E-01   -0.62150E-01  4640   0.373E-01    0.277E-01
RMM:   2    -0.232040478517E+04    0.29086E-03   -0.37402E-03  3842   0.262E-02    0.162E-01
RMM:   3    -0.232040468317E+04    0.10200E-03   -0.87143E-04  4521   0.149E-02    0.122E-01
RMM:   4    -0.232040465567E+04    0.27500E-04   -0.27628E-04  3379   0.694E-03    0.100E-01
RMM:   5    -0.232040458564E+04    0.70032E-04   -0.41692E-05  2858   0.413E-03    0.153E-02
RMM:   6    -0.232040458689E+04   -0.12486E-05   -0.74502E-06  2546   0.195E-03
  38 F= -.23409666E+04 E0= -.23409666E+04  d E =-.320442E-06  mag=     3.0000
       N       E                     dE             d eps       ncg     rms          rms(c)
DAV:   1    -0.232039069762E+04    0.13888E-01   -0.12998E+00  4720   0.511E-01    0.473E-01
RMM:   2    -0.232038843624E+04    0.22614E-02   -0.10996E-02  4352   0.419E-02    0.261E-01
RMM:   3    -0.232038890362E+04   -0.46739E-03   -0.28079E-03  4872   0.246E-02    0.383E-01
RMM:   4    -0.232038796811E+04    0.93551E-03   -0.12454E-03  4604   0.137E-02    0.137E-01
RMM:   5    -0.232038785166E+04    0.11645E-03   -0.14485E-04  3361   0.632E-03    0.241E-02
RMM:   6    -0.232038785327E+04   -0.16099E-05   -0.21157E-05  2849   0.340E-03
  39 F= -.23409485E+04 E0= -.23409485E+04  d E =-.305773E-06  mag=     3.0000
       N       E                     dE             d eps       ncg     rms          rms(c)
DAV:   1    -0.232038983616E+04   -0.19845E-02   -0.62671E-01  4480   0.349E-01    0.255E-01
RMM:   2    -0.232038971016E+04    0.12600E-03   -0.23499E-03  3748   0.206E-02    0.149E-01
RMM:   3    -0.232038964178E+04    0.68379E-04   -0.60542E-04  4533   0.114E-02    0.483E-02
RMM:   4    -0.232038969725E+04   -0.55472E-04   -0.12627E-04  3015   0.552E-03    0.976E-02
RMM:   5    -0.232038963012E+04    0.67134E-04   -0.32485E-05  2658   0.361E-03    0.121E-02
RMM:   6    -0.232038962860E+04    0.15198E-05   -0.72527E-06  2526   0.167E-03
  40 F= -.23409506E+04 E0= -.23409506E+04  d E =-.335002E-06  mag=     3.0000
       N       E                     dE             d eps       ncg     rms          rms(c)
DAV:   1    -0.232040379255E+04   -0.14162E-01   -0.12657E+00  4960   0.507E-01    0.524E-01
RMM:   2    -0.232039984113E+04    0.39514E-02   -0.15076E-02  4458   0.487E-02    0.271E-01
RMM:   3    -0.232039967931E+04    0.16182E-03   -0.23160E-03  4230   0.268E-02    0.273E-01
RMM:   4    -0.232039958845E+04    0.90853E-04   -0.14218E-03  4558   0.147E-02    0.243E-01
RMM:   5    -0.232039917362E+04    0.41484E-03   -0.30867E-04  4022   0.870E-03    0.216E-02
RMM:   6    -0.232039917152E+04    0.20923E-05   -0.28859E-05  2914   0.368E-03
  41 F= -.23409608E+04 E0= -.23409608E+04  d E =-.291663E-06  mag=     3.0000
       N       E                     dE             d eps       ncg     rms          rms(c)
DAV:   1    -0.232039524906E+04    0.39246E-02   -0.59617E-01  4480   0.349E-01    0.248E-01
RMM:   2    -0.232039504578E+04    0.20328E-03   -0.21246E-03  3848   0.214E-02    0.145E-01
RMM:   3    -0.232039510753E+04   -0.61741E-04   -0.63672E-04  4065   0.118E-02    0.139E-01
RMM:   4    -0.232039498753E+04    0.12000E-03   -0.18926E-04  3180   0.650E-03    0.559E-02
RMM:   5    -0.232039496991E+04    0.17613E-04   -0.18438E-05  2734   0.303E-03    0.139E-02
RMM:   6    -0.232039496868E+04    0.12370E-05   -0.51608E-06  2435   0.175E-03
  42 F= -.23409567E+04 E0= -.23409567E+04  d E =-.264332E-06  mag=     3.0000
       N       E                     dE             d eps       ncg     rms          rms(c)
DAV:   1    -0.232040544654E+04   -0.10477E-01   -0.12327E+00  4560   0.500E-01    0.425E-01
RMM:   2    -0.232040384101E+04    0.16055E-02   -0.80335E-03  4264   0.356E-02    0.232E-01
RMM:   3    -0.232040383676E+04    0.42534E-05   -0.16412E-03  4114   0.225E-02    0.228E-01
RMM:   4    -0.232040368531E+04    0.15145E-03   -0.81940E-04  4221   0.116E-02    0.169E-01
RMM:   5    -0.232040350208E+04    0.18323E-03   -0.13693E-04  3397   0.656E-03    0.181E-02
RMM:   6    -0.232040350042E+04    0.16632E-05   -0.16778E-05  2791   0.302E-03
  43 F= -.23409644E+04 E0= -.23409644E+04  d E =-.366816E-06  mag=     3.0000
