       N       E                     dE             d eps       ncg     rms          rms(c)
DAV:   1     0.130397724631E+05    0.13040E+05   -0.84243E+05  4530   0.144E+03
DAV:   2    -0.105730627575E+04   -0.14097E+05   -0.13494E+05  4890   0.329E+02
DAV:   3    -0.248332497849E+04   -0.14260E+04   -0.14115E+04  5460   0.113E+02
DAV:   4    -0.252279046751E+04   -0.39465E+02   -0.39261E+02  6360   0.260E+01
DAV:   5    -0.252367740839E+04   -0.88694E+00   -0.88519E+00  5640   0.315E+00    0.170E+02
RMM:   6    -0.149052632062E+04    0.10332E+04   -0.19473E+03  4467   0.382E+01    0.721E+01
RMM:   7    -0.165642866035E+04   -0.16590E+03   -0.28453E+02  5130   0.143E+01    0.475E+01
RMM:   8    -0.171786070514E+04   -0.61432E+02   -0.39405E+01  5403   0.694E+00    0.412E+01
RMM:   9    -0.181506658798E+04   -0.97206E+02   -0.63261E+01  5276   0.733E+00    0.373E+01
RMM:  10    -0.192727094268E+04   -0.11220E+03   -0.54108E+01  5443   0.702E+00    0.213E+01
RMM:  11    -0.201175357267E+04   -0.84483E+02   -0.31302E+01  5159   0.478E+00    0.222E+01
RMM:  12    -0.206379515347E+04   -0.52042E+02   -0.17820E+01  5182   0.349E+00    0.159E+01
RMM:  13    -0.213097371082E+04   -0.67179E+02   -0.28604E+01  5000   0.424E+00    0.159E+01
RMM:  14    -0.222793515531E+04   -0.96961E+02   -0.67591E+01  4540   0.612E+00    0.918E+00
RMM:  15    -0.229239027928E+04   -0.64455E+02   -0.57899E+01  4636   0.540E+00    0.507E+00
RMM:  16    -0.231210638969E+04   -0.19716E+02   -0.23166E+01  4873   0.367E+00    0.349E+00
RMM:  17    -0.231586534930E+04   -0.37590E+01   -0.51735E+00  5480   0.147E+00    0.345E+00
RMM:  18    -0.231627397092E+04   -0.40862E+00   -0.47678E-01  5644   0.481E-01    0.339E+00
RMM:  19    -0.231668957862E+04   -0.41561E+00   -0.19842E-01  4708   0.269E-01    0.285E+00
RMM:  20    -0.231807028430E+04   -0.13807E+01   -0.14789E+00  4517   0.624E-01    0.153E+00
RMM:  21    -0.231845921501E+04   -0.38893E+00   -0.32747E-01  4633   0.408E-01    0.974E-01
RMM:  22    -0.231868003044E+04   -0.22082E+00   -0.13626E-01  4815   0.213E-01    0.537E-01
RMM:  23    -0.231877032670E+04   -0.90296E-01   -0.40261E-02  4720   0.131E-01    0.343E-01
RMM:  24    -0.231883974856E+04   -0.69422E-01   -0.24008E-02  4494   0.994E-02    0.232E-01
RMM:  25    -0.231887360970E+04   -0.33861E-01   -0.10783E-02  4605   0.770E-02    0.124E-01
RMM:  26    -0.231889596450E+04   -0.22355E-01   -0.55423E-03  4589   0.526E-02    0.828E-02
RMM:  27    -0.231891082078E+04   -0.14856E-01   -0.34126E-03  4540   0.449E-02    0.547E-02
RMM:  28    -0.231891694137E+04   -0.61206E-02   -0.19141E-03  4801   0.302E-02    0.398E-02
RMM:  29    -0.231891898751E+04   -0.20461E-02   -0.71036E-04  4380   0.190E-02    0.213E-02
RMM:  30    -0.231891953496E+04   -0.54745E-03   -0.17466E-04  4059   0.101E-02    0.118E-02
RMM:  31    -0.231891972372E+04   -0.18876E-03   -0.54358E-05  3581   0.698E-03    0.622E-03
RMM:  32    -0.231891980932E+04   -0.85595E-04   -0.21072E-05  3059   0.463E-03    0.338E-03
RMM:  33    -0.231891986109E+04   -0.51774E-04   -0.11571E-05  2890   0.369E-03    0.198E-03
RMM:  34    -0.231891987951E+04   -0.18416E-04   -0.52873E-06  2834   0.284E-03    0.129E-03
RMM:  35    -0.231891989090E+04   -0.11393E-04   -0.34144E-06  2469   0.200E-03    0.105E-03
RMM:  36    -0.231891989503E+04   -0.41310E-05   -0.19543E-06  2454   0.172E-03
   1 F= -.23402363E+04 E0= -.23402362E+04  d E =-.218261E-03  mag=     2.9982
       N       E                     dE             d eps       ncg     rms          rms(c)
DAV:   1    -0.231885922486E+04    0.60666E-01   -0.21167E+00  4410   0.778E-01    0.332E-01
RMM:   2    -0.231885874149E+04    0.48338E-03   -0.12627E-02  3984   0.670E-02    0.235E-01
RMM:   3    -0.231885946238E+04   -0.72090E-03   -0.39145E-03  4668   0.324E-02    0.383E-01
RMM:   4    -0.231885830492E+04    0.11575E-02   -0.20771E-03  4732   0.193E-02    0.162E-01
RMM:   5    -0.231885818558E+04    0.11933E-03   -0.70726E-04  3692   0.141E-02    0.117E-01
RMM:   6    -0.231885803219E+04    0.15340E-03   -0.13136E-04  2979   0.613E-03    0.366E-02
RMM:   7    -0.231885802245E+04    0.97379E-05   -0.41480E-05  2670   0.356E-03
   2 F= -.23401745E+04 E0= -.23401744E+04  d E =-.225816E-03  mag=     2.9981
       N       E                     dE             d eps       ncg     rms          rms(c)
DAV:   1    -0.231894935772E+04   -0.91326E-01   -0.83646E+00  4440   0.151E+00    0.639E-01
RMM:   2    -0.231894769684E+04    0.16609E-02   -0.47966E-02  4196   0.140E-01    0.462E-01
RMM:   3    -0.231895029219E+04   -0.25954E-02   -0.14223E-02  5163   0.640E-02    0.745E-01
RMM:   4    -0.231894588133E+04    0.44109E-02   -0.78268E-03  5263   0.372E-02    0.315E-01
RMM:   5    -0.231894538719E+04    0.49414E-03   -0.28421E-03  4604   0.280E-02    0.228E-01
RMM:   6    -0.231894481105E+04    0.57614E-03   -0.53552E-04  3693   0.110E-02    0.734E-02
RMM:   7    -0.231894476535E+04    0.45699E-04   -0.16492E-04  3065   0.638E-03    0.504E-02
RMM:   8    -0.231894472933E+04    0.36024E-04   -0.62822E-05  3122   0.429E-03    0.174E-02
RMM:   9    -0.231894472905E+04    0.28036E-06   -0.94683E-06  2711   0.266E-03
   3 F= -.23402611E+04 E0= -.23402610E+04  d E =-.199598E-03  mag=     2.9983
       N       E                     dE             d eps       ncg     rms          rms(c)
DAV:   1    -0.231889544446E+04    0.49285E-01   -0.42658E+00  4380   0.110E+00    0.437E-01
RMM:   2    -0.231889492254E+04    0.52192E-03   -0.20532E-02  3995   0.915E-02    0.370E-01
RMM:   3    -0.231889652355E+04   -0.16010E-02   -0.64461E-03  4406   0.432E-02    0.549E-01
RMM:   4    -0.231889365663E+04    0.28669E-02   -0.44552E-03  4669   0.281E-02    0.166E-01
RMM:   5    -0.231889342397E+04    0.23266E-03   -0.11147E-03  4077   0.202E-02    0.103E-01
RMM:   6    -0.231889324960E+04    0.17437E-03   -0.13670E-04  3238   0.691E-03    0.301E-02
RMM:   7    -0.231889324785E+04    0.17493E-05   -0.53134E-05  2766   0.381E-03
   4 F= -.23402096E+04 E0= -.23402095E+04  d E =-.166219E-03  mag=     2.9985
       N       E                     dE             d eps       ncg     rms          rms(c)
DAV:   1    -0.231892198988E+04   -0.28740E-01   -0.81282E+00  4440   0.150E+00    0.554E-01
RMM:   2    -0.231892342575E+04   -0.14359E-02   -0.43983E-02  4239   0.129E-01    0.536E-01
RMM:   3    -0.231892392550E+04   -0.49975E-03   -0.10617E-02  4807   0.558E-02    0.588E-01
RMM:   4    -0.231892128222E+04    0.26433E-02   -0.69059E-03  5015   0.348E-02    0.356E-01
RMM:   5    -0.231892000850E+04    0.12737E-02   -0.18129E-03  4508   0.240E-02    0.987E-02
RMM:   6    -0.231891990731E+04    0.10119E-03   -0.18344E-04  3345   0.664E-03    0.325E-02
RMM:   7    -0.231891991795E+04   -0.10637E-04   -0.67287E-05  3062   0.471E-03    0.383E-02
RMM:   8    -0.231891989988E+04    0.18071E-04   -0.30231E-05  2796   0.372E-03    0.135E-02
RMM:   9    -0.231891989922E+04    0.65318E-06   -0.66632E-06  2692   0.217E-03
   5 F= -.23402364E+04 E0= -.23402363E+04  d E =-.281511E-03  mag=     2.9977
       N       E                     dE             d eps       ncg     rms          rms(c)
DAV:   1    -0.231893360917E+04   -0.13709E-01   -0.42250E+00  4440   0.106E+00    0.363E-01
RMM:   2    -0.231893410460E+04   -0.49543E-03   -0.22456E-02  3912   0.937E-02    0.284E-01
RMM:   3    -0.231893539441E+04   -0.12898E-02   -0.48704E-03  4344   0.409E-02    0.433E-01
RMM:   4    -0.231893339090E+04    0.20035E-02   -0.32801E-03  4603   0.244E-02    0.184E-01
RMM:   5    -0.231893319827E+04    0.19262E-03   -0.83708E-04  3726   0.160E-02    0.120E-01
RMM:   6    -0.231893305091E+04    0.14737E-03   -0.12926E-04  3244   0.627E-03    0.233E-02
RMM:   7    -0.231893305374E+04   -0.28323E-05   -0.37585E-05  2884   0.359E-03
   6 F= -.23402496E+04 E0= -.23402495E+04  d E =-.182165E-03  mag=     2.9983
       N       E                     dE             d eps       ncg     rms          rms(c)
DAV:   1    -0.231889150572E+04    0.41545E-01   -0.82531E+00  4440   0.143E+00    0.505E-01
RMM:   2    -0.231889169846E+04   -0.19274E-03   -0.46888E-02  4537   0.124E-01    0.318E-01
RMM:   3    -0.231889563984E+04   -0.39414E-02   -0.10230E-02  4926   0.497E-02    0.722E-01
RMM:   4    -0.231889037378E+04    0.52661E-02   -0.49156E-03  4771   0.314E-02    0.128E-01
RMM:   5    -0.231889053011E+04   -0.15633E-03   -0.12262E-03  4118   0.179E-02    0.151E-01
RMM:   6    -0.231889021144E+04    0.31867E-03   -0.31150E-04  3463   0.914E-03    0.450E-02
RMM:   7    -0.231889022660E+04   -0.15161E-04   -0.98368E-05  3097   0.480E-03    0.515E-02
RMM:   8    -0.231889020054E+04    0.26055E-04   -0.38250E-05  2744   0.379E-03    0.133E-02
RMM:   9    -0.231889020379E+04   -0.32500E-05   -0.77992E-06  2727   0.197E-03
   7 F= -.23402065E+04 E0= -.23402063E+04  d E =-.263150E-03  mag=     2.9978
       N       E                     dE             d eps       ncg     rms          rms(c)
DAV:   1    -0.231891490722E+04   -0.24707E-01   -0.22735E+00  4380   0.769E-01    0.244E-01
RMM:   2    -0.231891514050E+04   -0.23328E-03   -0.12337E-02  3717   0.726E-02    0.146E-01
RMM:   3    -0.231891515788E+04   -0.17385E-04   -0.29363E-03  4567   0.265E-02    0.142E-01
RMM:   4    -0.231891498024E+04    0.17764E-03   -0.49459E-04  3597   0.122E-02    0.805E-02
RMM:   5    -0.231891495243E+04    0.27813E-04   -0.10284E-04  2926   0.558E-03    0.605E-02
RMM:   6    -0.231891491674E+04    0.35691E-04   -0.39688E-05  2640   0.376E-03    0.224E-02
RMM:   7    -0.231891491501E+04    0.17212E-05   -0.14336E-05  2610   0.233E-03
   8 F= -.23402308E+04 E0= -.23402306E+04  d E =-.271229E-03  mag=     2.9978
       N       E                     dE             d eps       ncg     rms          rms(c)
DAV:   1    -0.231892434700E+04   -0.94303E-02   -0.10971E+00  4560   0.418E-01    0.262E-01
RMM:   2    -0.231892444527E+04   -0.98267E-04   -0.67352E-03  4564   0.385E-02    0.177E-01
RMM:   3    -0.231892572665E+04   -0.12814E-02   -0.20612E-03  4353   0.202E-02    0.391E-01
RMM:   4    -0.231892420291E+04    0.15237E-02   -0.99887E-04  4344   0.137E-02    0.563E-02
RMM:   5    -0.231892422833E+04   -0.25422E-04   -0.23315E-04  3211   0.714E-03    0.624E-02
RMM:   6    -0.231892417410E+04    0.54234E-04   -0.71362E-05  2829   0.491E-03    0.216E-02
RMM:   7    -0.231892417502E+04   -0.92151E-06   -0.19533E-05  2742   0.258E-03
   9 F= -.23402412E+04 E0= -.23402411E+04  d E =-.170839E-03  mag=     2.9983
       N       E                     dE             d eps       ncg     rms          rms(c)
DAV:   1    -0.231891596500E+04    0.82091E-02   -0.55296E-01  4380   0.291E-01    0.163E-01
RMM:   2    -0.231891601622E+04   -0.51215E-04   -0.20626E-03  3846   0.248E-02    0.111E-01
RMM:   3    -0.231891638973E+04   -0.37352E-03   -0.89656E-04  3867   0.138E-02    0.196E-01
RMM:   4    -0.231891598869E+04    0.40104E-03   -0.38044E-04  3565   0.926E-03    0.825E-02
RMM:   5    -0.231891593977E+04    0.48924E-04   -0.11102E-04  2744   0.484E-03    0.416E-02
RMM:   6    -0.231891592850E+04    0.11274E-04   -0.20860E-05  2623   0.285E-03    0.151E-02
RMM:   7    -0.231891592820E+04    0.29650E-06   -0.10206E-05  2412   0.214E-03
  10 F= -.23402327E+04 E0= -.23402326E+04  d E =-.199779E-03  mag=     2.9983
       N       E                     dE             d eps       ncg     rms          rms(c)
DAV:   1    -0.231892426482E+04   -0.83363E-02   -0.10839E+00  4500   0.408E-01    0.294E-01
RMM:   2    -0.231892418261E+04    0.82212E-04   -0.78120E-03  5122   0.438E-02    0.251E-01
RMM:   3    -0.231892500019E+04   -0.81758E-03   -0.24693E-03  4689   0.204E-02    0.371E-01
RMM:   4    -0.231892359857E+04    0.14016E-02   -0.11629E-03  4683   0.148E-02    0.129E-01
RMM:   5    -0.231892347475E+04    0.12382E-03   -0.33325E-04  3117   0.838E-03    0.683E-02
RMM:   6    -0.231892342875E+04    0.45999E-04   -0.56358E-05  2934   0.465E-03    0.208E-02
RMM:   7    -0.231892343526E+04   -0.65140E-05   -0.29642E-05  2826   0.335E-03
  11 F= -.23402395E+04 E0= -.23402394E+04  d E =-.243030E-03  mag=     2.9981
       N       E                     dE             d eps       ncg     rms          rms(c)
DAV:   1    -0.231891878655E+04    0.46422E-02   -0.57086E-01  4470   0.314E-01    0.221E-01
RMM:   2    -0.231892020473E+04   -0.14182E-02   -0.65155E-03  5114   0.399E-02    0.376E-01
RMM:   3    -0.231891856647E+04    0.16383E-02   -0.15459E-03  4597   0.212E-02    0.152E-01
RMM:   4    -0.231891882010E+04   -0.25363E-03   -0.10051E-03  3627   0.124E-02    0.200E-01
RMM:   5    -0.231891835901E+04    0.46109E-03   -0.40030E-04  3765   0.912E-03    0.329E-02
RMM:   6    -0.231891836633E+04   -0.73235E-05   -0.71916E-05  2751   0.493E-03
  12 F= -.23402348E+04 E0= -.23402347E+04  d E =-.201742E-03  mag=     2.9982
       N       E                     dE             d eps       ncg     rms          rms(c)
DAV:   1    -0.231891307183E+04    0.52872E-02   -0.11152E+00  4500   0.450E-01    0.352E-01
RMM:   2    -0.231891766555E+04   -0.45937E-02   -0.17252E-02  5611   0.638E-02    0.622E-01
RMM:   3    -0.231891263563E+04    0.50299E-02   -0.41195E-03  5614   0.341E-02    0.225E-01
RMM:   4    -0.231891309059E+04   -0.45495E-03   -0.18503E-03  4108   0.161E-02    0.300E-01
RMM:   5    -0.231891216919E+04    0.92140E-03   -0.78612E-04  4202   0.124E-02    0.747E-02
RMM:   6    -0.231891215698E+04    0.12207E-04   -0.21498E-04  2992   0.740E-03    0.762E-02
RMM:   7    -0.231891208647E+04    0.70513E-04   -0.59215E-05  2864   0.479E-03    0.132E-02
RMM:   8    -0.231891208404E+04    0.24307E-05   -0.11757E-05  2749   0.230E-03
  13 F= -.23402285E+04 E0= -.23402284E+04  d E =-.228546E-03  mag=     2.9981
       N       E                     dE             d eps       ncg     rms          rms(c)
DAV:   1    -0.231893262160E+04   -0.20535E-01   -0.60783E-01  4470   0.376E-01    0.343E-01
RMM:   2    -0.231893195522E+04    0.66637E-03   -0.10291E-02  4734   0.531E-02    0.308E-01
RMM:   3    -0.231893200363E+04   -0.48409E-04   -0.32393E-03  5118   0.320E-02    0.325E-01
RMM:   4    -0.231893123892E+04    0.76471E-03   -0.13410E-03  4612   0.171E-02    0.226E-01
RMM:   5    -0.231893084781E+04    0.39112E-03   -0.73917E-04  3782   0.113E-02    0.112E-01
RMM:   6    -0.231893074351E+04    0.10429E-03   -0.16624E-04  2981   0.671E-03    0.641E-02
RMM:   7    -0.231893069853E+04    0.44980E-04   -0.61362E-05  2695   0.460E-03    0.207E-02
RMM:   8    -0.231893069258E+04    0.59515E-05   -0.80254E-06  2451   0.206E-03
  14 F= -.23402475E+04 E0= -.23402474E+04  d E =-.209282E-03  mag=     2.9982
       N       E                     dE             d eps       ncg     rms          rms(c)
DAV:   1    -0.231889137181E+04    0.39327E-01   -0.13498E+00  4740   0.559E-01    0.640E-01
RMM:   2    -0.231888468886E+04    0.66829E-02   -0.24915E-02  4518   0.751E-02    0.346E-01
RMM:   3    -0.231888535278E+04   -0.66392E-03   -0.58775E-03  4339   0.471E-02    0.407E-01
RMM:   4    -0.231888428342E+04    0.10694E-02   -0.33994E-03  5245   0.274E-02    0.303E-01
RMM:   5    -0.231888392828E+04    0.35514E-03   -0.14515E-03  4004   0.153E-02    0.240E-01
RMM:   6    -0.231888328418E+04    0.64410E-03   -0.52655E-04  3608   0.116E-02    0.418E-02
RMM:   7    -0.231888328867E+04   -0.44917E-05   -0.83893E-05  2911   0.494E-03
  15 F= -.23401993E+04 E0= -.23401992E+04  d E =-.215045E-03  mag=     2.9981
       N       E                     dE             d eps       ncg     rms          rms(c)
DAV:   1    -0.231892412752E+04   -0.40843E-01   -0.66409E-01  4620   0.391E-01    0.415E-01
RMM:   2    -0.231892149630E+04    0.26312E-02   -0.10537E-02  4227   0.475E-02    0.230E-01
RMM:   3    -0.231892207295E+04   -0.57665E-03   -0.28080E-03  3977   0.313E-02    0.319E-01
RMM:   4    -0.231892120523E+04    0.86772E-03   -0.15561E-03  4287   0.174E-02    0.175E-01
RMM:   5    -0.231892120659E+04   -0.13575E-05   -0.60443E-04  4022   0.118E-02    0.159E-01
RMM:   6    -0.231892088010E+04    0.32649E-03   -0.21918E-04  3420   0.850E-03    0.317E-02
RMM:   7    -0.231892089017E+04   -0.10077E-04   -0.62917E-05  2800   0.407E-03    0.445E-02
RMM:   8    -0.231892086711E+04    0.23065E-04   -0.19398E-05  2492   0.298E-03    0.569E-03
RMM:   9    -0.231892086662E+04    0.49119E-06   -0.40597E-06  2256   0.140E-03
  16 F= -.23402371E+04 E0= -.23402370E+04  d E =-.231100E-03  mag=     2.9981
       N       E                     dE             d eps       ncg     rms          rms(c)
DAV:   1    -0.231891574172E+04    0.51254E-02   -0.12372E+00  4440   0.525E-01    0.371E-01
RMM:   2    -0.231891581285E+04   -0.71128E-04   -0.74507E-03  4629   0.471E-02    0.264E-01
RMM:   3    -0.231891848099E+04   -0.26681E-02   -0.37787E-03  4668   0.267E-02    0.539E-01
RMM:   4    -0.231891552886E+04    0.29521E-02   -0.16510E-03  4650   0.196E-02    0.798E-02
RMM:   5    -0.231891559837E+04   -0.69515E-04   -0.38979E-04  3323   0.901E-03    0.111E-01
RMM:   6    -0.231891545564E+04    0.14273E-03   -0.11065E-04  2867   0.616E-03    0.114E-02
RMM:   7    -0.231891545351E+04    0.21351E-05   -0.16464E-05  2659   0.224E-03
  17 F= -.23402321E+04 E0= -.23402320E+04  d E =-.205202E-03  mag=     2.9982
       N       E                     dE             d eps       ncg     rms          rms(c)
DAV:   1    -0.231890459819E+04    0.10857E-01   -0.63108E-01  4290   0.371E-01    0.255E-01
RMM:   2    -0.231890475080E+04   -0.15261E-03   -0.40160E-03  3853   0.309E-02    0.166E-01
RMM:   3    -0.231890613844E+04   -0.13876E-02   -0.20170E-03  3991   0.234E-02    0.395E-01
RMM:   4    -0.231890465487E+04    0.14836E-02   -0.90467E-04  4173   0.141E-02    0.488E-02
RMM:   5    -0.231890462071E+04    0.34163E-04   -0.12953E-04  2950   0.643E-03    0.325E-02
RMM:   6    -0.231890460574E+04    0.14973E-04   -0.21193E-05  2556   0.272E-03    0.109E-02
RMM:   7    -0.231890460652E+04   -0.78169E-06   -0.94532E-06  2428   0.196E-03
  18 F= -.23402211E+04 E0= -.23402210E+04  d E =-.212222E-03  mag=     2.9983
       N       E                     dE             d eps       ncg     rms          rms(c)
DAV:   1    -0.231892976406E+04   -0.25158E-01   -0.12545E+00  4440   0.519E-01    0.403E-01
RMM:   2    -0.231892934462E+04    0.41944E-03   -0.93530E-03  3757   0.502E-02    0.242E-01
RMM:   3    -0.231893054946E+04   -0.12048E-02   -0.33954E-03  4735   0.339E-02    0.353E-01
RMM:   4    -0.231892906600E+04    0.14835E-02   -0.15455E-03  4572   0.178E-02    0.786E-02
RMM:   5    -0.231892919921E+04   -0.13322E-03   -0.36686E-04  3275   0.825E-03    0.146E-01
RMM:   6    -0.231892898404E+04    0.21517E-03   -0.14286E-04  2929   0.630E-03    0.193E-02
RMM:   7    -0.231892898677E+04   -0.27244E-05   -0.31589E-05  2636   0.308E-03
  19 F= -.23402453E+04 E0= -.23402452E+04  d E =-.230526E-03  mag=     2.9981
       N       E                     dE             d eps       ncg     rms          rms(c)
DAV:   1    -0.231892988237E+04   -0.89833E-03   -0.63482E-01  4560   0.385E-01    0.293E-01
RMM:   2    -0.231892923313E+04    0.64925E-03   -0.59061E-03  3967   0.378E-02    0.166E-01
RMM:   3    -0.231892937259E+04   -0.13947E-03   -0.11992E-03  3889   0.216E-02    0.170E-01
RMM:   4    -0.231892920983E+04    0.16276E-03   -0.70963E-04  3809   0.119E-02    0.120E-01
RMM:   5    -0.231892916614E+04    0.43694E-04   -0.21219E-04  3239   0.782E-03    0.101E-01
RMM:   6    -0.231892904708E+04    0.11906E-03   -0.80985E-05  2868   0.557E-03    0.213E-02
RMM:   7    -0.231892904933E+04   -0.22543E-05   -0.22372E-05  2588   0.269E-03
  20 F= -.23402451E+04 E0= -.23402450E+04  d E =-.221116E-03  mag=     2.9981
       N       E                     dE             d eps       ncg     rms          rms(c)
DAV:   1    -0.231890387891E+04    0.25168E-01   -0.12250E+00  4800   0.508E-01    0.390E-01
RMM:   2    -0.231890284966E+04    0.10292E-02   -0.10888E-02  4394   0.485E-02    0.221E-01
RMM:   3    -0.231890260771E+04    0.24195E-03   -0.15326E-03  3853   0.245E-02    0.124E-01
RMM:   4    -0.231890296065E+04   -0.35294E-03   -0.10674E-03  4036   0.143E-02    0.208E-01
RMM:   5    -0.231890258747E+04    0.37318E-03   -0.32260E-04  3222   0.958E-03    0.691E-02
RMM:   6    -0.231890254244E+04    0.45033E-04   -0.94895E-05  2926   0.534E-03    0.343E-02
RMM:   7    -0.231890252838E+04    0.14059E-04   -0.17978E-05  2651   0.301E-03    0.138E-02
RMM:   8    -0.231890252756E+04    0.82063E-06   -0.69487E-06  2347   0.199E-03
  21 F= -.23402194E+04 E0= -.23402192E+04  d E =-.214458E-03  mag=     2.9982
       N       E                     dE             d eps       ncg     rms          rms(c)
DAV:   1    -0.231892437121E+04   -0.21843E-01   -0.65740E-01  4920   0.372E-01    0.389E-01
RMM:   2    -0.231892223537E+04    0.21358E-02   -0.10732E-02  4293   0.494E-02    0.218E-01
RMM:   3    -0.231892244716E+04   -0.21179E-03   -0.24086E-03  4083   0.301E-02    0.249E-01
RMM:   4    -0.231892202836E+04    0.41880E-03   -0.14110E-03  4612   0.176E-02    0.183E-01
RMM:   5    -0.231892192135E+04    0.10702E-03   -0.57107E-04  3194   0.101E-02    0.148E-01
RMM:   6    -0.231892166636E+04    0.25499E-03   -0.20378E-04  3089   0.761E-03    0.224E-02
RMM:   7    -0.231892165989E+04    0.64714E-05   -0.20954E-05  2759   0.293E-03
  22 F= -.23402374E+04 E0= -.23402373E+04  d E =-.214176E-03  mag=     2.9982
       N       E                     dE             d eps       ncg     rms          rms(c)
DAV:   1    -0.231890497711E+04    0.16689E-01   -0.12769E+00  5010   0.510E-01    0.521E-01
RMM:   2    -0.231890153952E+04    0.34376E-02   -0.18120E-02  4306   0.648E-02    0.304E-01
RMM:   3    -0.231890333585E+04   -0.17963E-02   -0.58582E-03  4921   0.462E-02    0.477E-01
RMM:   4    -0.231890086851E+04    0.24673E-02   -0.28744E-03  5378   0.259E-02    0.210E-01
RMM:   5    -0.231890095857E+04   -0.90063E-04   -0.12239E-03  3940   0.141E-02    0.202E-01
RMM:   6    -0.231890046404E+04    0.49453E-03   -0.34957E-04  3560   0.993E-03    0.438E-02
RMM:   7    -0.231890047441E+04   -0.10378E-04   -0.10261E-04  2911   0.501E-03    0.562E-02
RMM:   8    -0.231890043667E+04    0.37743E-04   -0.26658E-05  2654   0.359E-03    0.719E-03
RMM:   9    -0.231890043609E+04    0.57813E-06   -0.66996E-06  2485   0.173E-03
  23 F= -.23402176E+04 E0= -.23402175E+04  d E =-.217913E-03  mag=     2.9982
       N       E                     dE             d eps       ncg     rms          rms(c)
DAV:   1    -0.231892586989E+04   -0.25433E-01   -0.63925E-01  4800   0.374E-01    0.366E-01
RMM:   2    -0.231892422841E+04    0.16415E-02   -0.92167E-03  4187   0.462E-02    0.206E-01
RMM:   3    -0.231892449310E+04   -0.26469E-03   -0.24238E-03  4175   0.292E-02    0.228E-01
RMM:   4    -0.231892392227E+04    0.57083E-03   -0.12708E-03  4653   0.174E-02    0.121E-01
RMM:   5    -0.231892396842E+04   -0.46147E-04   -0.39677E-04  3221   0.910E-03    0.150E-01
RMM:   6    -0.231892374136E+04    0.22706E-03   -0.14503E-04  2833   0.630E-03    0.235E-02
RMM:   7    -0.231892374380E+04   -0.24353E-05   -0.27834E-05  2720   0.302E-03
  24 F= -.23402400E+04 E0= -.23402399E+04  d E =-.222511E-03  mag=     2.9982
       N       E                     dE             d eps       ncg     rms          rms(c)
DAV:   1    -0.231891102597E+04    0.12715E-01   -0.12173E+00  4530   0.498E-01    0.372E-01
RMM:   2    -0.231891064202E+04    0.38395E-03   -0.93706E-03  4120   0.466E-02    0.220E-01
RMM:   3    -0.231891148081E+04   -0.83879E-03   -0.26637E-03  4282   0.281E-02    0.341E-01
RMM:   4    -0.231891043270E+04    0.10481E-02   -0.12718E-03  4115   0.153E-02    0.112E-01
RMM:   5    -0.231891041668E+04    0.16011E-04   -0.34923E-04  3501   0.952E-03    0.906E-02
RMM:   6    -0.231891029424E+04    0.12244E-03   -0.11015E-04  3042   0.626E-03    0.164E-02
RMM:   7    -0.231891029280E+04    0.14431E-05   -0.15826E-05  2737   0.253E-03
  25 F= -.23402269E+04 E0= -.23402267E+04  d E =-.216123E-03  mag=     2.9982
