       N       E                     dE             d eps       ncg     rms          rms(c)
DAV:   1     0.126497250810E+05    0.12650E+05   -0.82596E+05  4440   0.143E+03
DAV:   2    -0.107374774049E+04   -0.13723E+05   -0.13154E+05  5304   0.329E+02
DAV:   3    -0.246636159559E+04   -0.13926E+04   -0.13797E+04  5336   0.110E+02
DAV:   4    -0.251115111423E+04   -0.44790E+02   -0.44567E+02  6680   0.295E+01
DAV:   5    -0.251198121928E+04   -0.83011E+00   -0.82856E+00  5496   0.317E+00    0.170E+02
RMM:   6    -0.146466884330E+04    0.10473E+04   -0.19463E+03  4376   0.386E+01    0.732E+01
RMM:   7    -0.165474170470E+04   -0.19007E+03   -0.29516E+02  4929   0.138E+01    0.488E+01
RMM:   8    -0.170613150486E+04   -0.51390E+02   -0.38825E+01  5315   0.640E+00    0.432E+01
RMM:   9    -0.177476183535E+04   -0.68630E+02   -0.59023E+01  4942   0.653E+00    0.359E+01
RMM:  10    -0.191417490994E+04   -0.13941E+03   -0.70063E+01  5036   0.796E+00    0.225E+01
RMM:  11    -0.202288055319E+04   -0.10871E+03   -0.45939E+01  4833   0.561E+00    0.211E+01
RMM:  12    -0.206023026128E+04   -0.37350E+02   -0.11888E+01  4841   0.287E+00    0.135E+01
RMM:  13    -0.219895228830E+04   -0.13872E+03   -0.10243E+02  4380   0.743E+00    0.132E+01
RMM:  14    -0.223955625241E+04   -0.40604E+02   -0.27962E+01  4498   0.404E+00    0.112E+01
RMM:  15    -0.229127427561E+04   -0.51718E+02   -0.44437E+01  4368   0.461E+00    0.828E+00
RMM:  16    -0.230480941870E+04   -0.13535E+02   -0.13303E+01  4565   0.319E+00    0.824E+00
RMM:  17    -0.230766042422E+04   -0.28510E+01   -0.45523E+00  5218   0.127E+00    0.282E+00
RMM:  18    -0.230866933579E+04   -0.10089E+01   -0.83636E-01  4743   0.625E-01    0.145E+00
RMM:  19    -0.230897032028E+04   -0.30098E+00   -0.24551E-01  4729   0.418E-01    0.893E-01
RMM:  20    -0.230907570716E+04   -0.10539E+00   -0.82296E-02  4688   0.199E-01    0.923E-01
RMM:  21    -0.230912818281E+04   -0.52476E-01   -0.67288E-02  4567   0.163E-01    0.796E-01
RMM:  22    -0.230915492016E+04   -0.26737E-01   -0.54014E-02  4511   0.139E-01    0.722E-01
RMM:  23    -0.230916134999E+04   -0.64298E-02   -0.20901E-02  4525   0.961E-02    0.245E-01
RMM:  24    -0.230916799138E+04   -0.66414E-02   -0.43292E-03  4714   0.438E-02    0.255E-01
RMM:  25    -0.230917195966E+04   -0.39683E-02   -0.12558E-03  4586   0.298E-02    0.128E-01
RMM:  26    -0.230917698766E+04   -0.50280E-02   -0.12950E-03  4363   0.282E-02    0.849E-02
RMM:  27    -0.230918302650E+04   -0.60388E-02   -0.21641E-03  4372   0.353E-02    0.944E-02
RMM:  28    -0.230918551393E+04   -0.24874E-02   -0.11502E-03  4182   0.271E-02    0.120E-01
RMM:  29    -0.230918643765E+04   -0.92372E-03   -0.79981E-04  4362   0.172E-02    0.297E-02
RMM:  30    -0.230918683807E+04   -0.40042E-03   -0.13298E-04  3666   0.902E-03    0.295E-02
RMM:  31    -0.230918727195E+04   -0.43389E-03   -0.11869E-04  3606   0.802E-03    0.324E-02
RMM:  32    -0.230918747503E+04   -0.20307E-03   -0.70969E-05  3541   0.763E-03    0.193E-02
RMM:  33    -0.230918752838E+04   -0.53355E-04   -0.19078E-05  2972   0.493E-03    0.736E-03
RMM:  34    -0.230918755853E+04   -0.30150E-04   -0.14059E-05  2842   0.347E-03    0.378E-03
RMM:  35    -0.230918758402E+04   -0.25489E-04   -0.91818E-06  2731   0.304E-03    0.296E-03
RMM:  36    -0.230918759654E+04   -0.12516E-04   -0.48915E-06  2425   0.238E-03    0.165E-03
RMM:  37    -0.230918760055E+04   -0.40123E-05   -0.23517E-06  2304   0.181E-03
   1 F= -.23295717E+04 E0= -.23295716E+04  d E =-.232957E+04  mag=     6.0000
       N       E                     dE             d eps       ncg     rms          rms(c)
DAV:   1    -0.230916127080E+04    0.26326E-01   -0.36271E+00  5008   0.172E+00    0.721E-01
RMM:   2    -0.230921799291E+04   -0.56722E-01   -0.60964E-01  5464   0.327E-01    0.459E-01
RMM:   3    -0.230922238297E+04   -0.43901E-02   -0.57028E-02  4902   0.169E-01    0.536E-01
RMM:   4    -0.230922142918E+04    0.95379E-03   -0.63481E-03  5145   0.338E-02    0.293E-01
RMM:   5    -0.230922053191E+04    0.89726E-03   -0.16416E-03  4977   0.241E-02    0.167E-01
RMM:   6    -0.230922021781E+04    0.31411E-03   -0.15972E-03  4760   0.224E-02    0.148E-01
RMM:   7    -0.230922006111E+04    0.15669E-03   -0.37201E-04  4433   0.157E-02    0.399E-02
RMM:   8    -0.230922003312E+04    0.27996E-04   -0.93667E-05  3224   0.519E-03    0.305E-02
RMM:   9    -0.230922001639E+04    0.16726E-04   -0.43403E-05  2839   0.479E-03    0.163E-02
RMM:  10    -0.230922000522E+04    0.11166E-04   -0.26824E-05  2891   0.400E-03    0.146E-02
RMM:  11    -0.230922000229E+04    0.29301E-05   -0.16589E-05  2826   0.430E-03
   2 F= -.23296049E+04 E0= -.23296047E+04  d E =-.331145E-01  mag=     6.0000
       N       E                     dE             d eps       ncg     rms          rms(c)
DAV:   1    -0.230921903996E+04    0.96527E-03   -0.89707E-02  4940   0.271E-01    0.115E-01
RMM:   2    -0.230922042792E+04   -0.13880E-02   -0.15079E-02  5932   0.533E-02    0.648E-02
RMM:   3    -0.230922054914E+04   -0.12122E-03   -0.17148E-03  3782   0.247E-02    0.619E-02
RMM:   4    -0.230922054155E+04    0.75891E-05   -0.15320E-04  2934   0.591E-03    0.567E-02
RMM:   5    -0.230922051773E+04    0.23822E-04   -0.36465E-05  2831   0.427E-03    0.255E-02
RMM:   6    -0.230922051044E+04    0.72866E-05   -0.45517E-05  3022   0.472E-03
   3 F= -.23296055E+04 E0= -.23296053E+04  d E =-.337414E-01  mag=     6.0000
       N       E                     dE             d eps       ncg     rms          rms(c)
DAV:   1    -0.230919904293E+04    0.21475E-01   -0.26337E+00  4560   0.160E+00    0.650E-01
RMM:   2    -0.230922914768E+04   -0.30105E-01   -0.32458E-01  5433   0.280E-01    0.467E-01
RMM:   3    -0.230923280928E+04   -0.36616E-02   -0.38487E-02  4824   0.154E-01    0.669E-01
RMM:   4    -0.230923081409E+04    0.19952E-02   -0.42242E-03  5103   0.314E-02    0.178E-01
RMM:   5    -0.230923043928E+04    0.37481E-03   -0.10320E-03  4604   0.201E-02    0.118E-01
RMM:   6    -0.230923031646E+04    0.12281E-03   -0.75721E-04  4608   0.162E-02    0.105E-01
RMM:   7    -0.230923024167E+04    0.74797E-04   -0.17597E-04  3719   0.123E-02    0.291E-02
RMM:   8    -0.230923023343E+04    0.82361E-05   -0.53221E-05  2958   0.434E-03
   4 F= -.23296161E+04 E0= -.23296160E+04  d E =-.106565E-01  mag=     6.0000
       N       E                     dE             d eps       ncg     rms          rms(c)
DAV:   1    -0.230923023543E+04    0.62352E-05   -0.35679E-03  5424   0.592E-02    0.245E-02
RMM:   2    -0.230923027693E+04   -0.41503E-04   -0.45294E-04  4456   0.125E-02    0.243E-02
RMM:   3    -0.230923028072E+04   -0.37857E-05   -0.49763E-05  2823   0.598E-03
   5 F= -.23296161E+04 E0= -.23296160E+04  d E =-.106692E-01  mag=     6.0000
       N       E                     dE             d eps       ncg     rms          rms(c)
DAV:   1    -0.230922905134E+04    0.12256E-02   -0.48953E-01  4492   0.683E-01    0.212E-01
RMM:   2    -0.230923435898E+04   -0.53076E-02   -0.49763E-02  5488   0.117E-01    0.371E-01
RMM:   3    -0.230923414261E+04    0.21637E-03   -0.52015E-03  4695   0.586E-02    0.157E-01
RMM:   4    -0.230923406008E+04    0.82529E-04   -0.55907E-04  4236   0.121E-02    0.530E-02
RMM:   5    -0.230923401232E+04    0.47761E-04   -0.86900E-05  3406   0.857E-03    0.384E-02
RMM:   6    -0.230923399972E+04    0.12596E-04   -0.89841E-05  3705   0.818E-03    0.190E-02
RMM:   7    -0.230923399801E+04    0.17102E-05   -0.10882E-05  2826   0.549E-03
   6 F= -.23296203E+04 E0= -.23296201E+04  d E =-.415147E-02  mag=     6.0000
       N       E                     dE             d eps       ncg     rms          rms(c)
DAV:   1    -0.230920816763E+04    0.25832E-01   -0.28191E+00  4480   0.164E+00    0.515E-01
RMM:   2    -0.230923944600E+04   -0.31278E-01   -0.28965E-01  5344   0.279E-01    0.959E-01
RMM:   3    -0.230923741873E+04    0.20273E-02   -0.30426E-02  4813   0.146E-01    0.355E-01
RMM:   4    -0.230923699647E+04    0.42227E-03   -0.32806E-03  4786   0.288E-02    0.127E-01
RMM:   5    -0.230923673213E+04    0.26434E-03   -0.55477E-04  4807   0.200E-02    0.104E-01
RMM:   6    -0.230923665258E+04    0.79554E-04   -0.47368E-04  4412   0.157E-02    0.607E-02
RMM:   7    -0.230923663181E+04    0.20768E-04   -0.64998E-05  3101   0.975E-03    0.350E-02
RMM:   8    -0.230923662583E+04    0.59795E-05   -0.18824E-05  2831   0.349E-03
   7 F= -.23296240E+04 E0= -.23296238E+04  d E =-.782632E-02  mag=     6.0000
       N       E                     dE             d eps       ncg     rms          rms(c)
DAV:   1    -0.230923618223E+04    0.44958E-03   -0.19620E-01  4656   0.429E-01    0.134E-01
RMM:   2    -0.230923858383E+04   -0.24016E-02   -0.22618E-02  5727   0.729E-02    0.241E-01
RMM:   3    -0.230923850636E+04    0.77466E-04   -0.22574E-03  4119   0.335E-02    0.992E-02
RMM:   4    -0.230923848180E+04    0.24566E-04   -0.25021E-04  3093   0.742E-03    0.316E-02
RMM:   5    -0.230923846544E+04    0.16361E-04   -0.27584E-05  2897   0.467E-03    0.254E-02
RMM:   6    -0.230923845981E+04    0.56231E-05   -0.42466E-05  2993   0.540E-03
   8 F= -.23296262E+04 E0= -.23296260E+04  d E =-.218385E-02  mag=     6.0000
       N       E                     dE             d eps       ncg     rms          rms(c)
DAV:   1    -0.230922158167E+04    0.16884E-01   -0.17613E+00  4448   0.128E+00    0.402E-01
RMM:   2    -0.230924337162E+04   -0.21790E-01   -0.20330E-01  5375   0.215E-01    0.762E-01
RMM:   3    -0.230924233152E+04    0.10401E-02   -0.21121E-02  4816   0.108E-01    0.279E-01
RMM:   4    -0.230924214660E+04    0.18492E-03   -0.22807E-03  4759   0.203E-02    0.951E-02
RMM:   5    -0.230924198467E+04    0.16194E-03   -0.26336E-04  4126   0.123E-02    0.839E-02
RMM:   6    -0.230924192654E+04    0.58129E-04   -0.37011E-04  4204   0.129E-02    0.635E-02
RMM:   7    -0.230924190155E+04    0.24986E-04   -0.47576E-05  2958   0.892E-03    0.208E-02
RMM:   8    -0.230924190120E+04    0.35297E-06   -0.13087E-05  2845   0.297E-03
   9 F= -.23296307E+04 E0= -.23296305E+04  d E =-.667903E-02  mag=     6.0000
       N       E                     dE             d eps       ncg     rms          rms(c)
DAV:   1    -0.230915757164E+04    0.84330E-01   -0.70581E+00  4432   0.257E+00    0.820E-01
RMM:   2    -0.230924785686E+04   -0.90285E-01   -0.82545E-01  5431   0.432E-01    0.169E+00
RMM:   3    -0.230924099914E+04    0.68577E-02   -0.89467E-02  4894   0.222E-01    0.512E-01
RMM:   4    -0.230924053194E+04    0.46720E-03   -0.95897E-03  5063   0.406E-02    0.194E-01
RMM:   5    -0.230923994910E+04    0.58284E-03   -0.11730E-03  4806   0.242E-02    0.205E-01
RMM:   6    -0.230923968871E+04    0.26039E-03   -0.14375E-03  4663   0.226E-02    0.156E-01
RMM:   7    -0.230923953379E+04    0.15491E-03   -0.23667E-04  4125   0.146E-02    0.403E-02
RMM:   8    -0.230923953523E+04   -0.14320E-05   -0.62789E-05  3237   0.571E-03
  10 F= -.23296304E+04 E0= -.23296303E+04  d E =-.643974E-02  mag=     6.0000
       N       E                     dE             d eps       ncg     rms          rms(c)
DAV:   1    -0.230922199797E+04    0.17536E-01   -0.17468E+00  4448   0.128E+00    0.385E-01
RMM:   2    -0.230924257606E+04   -0.20578E-01   -0.19892E-01  5558   0.214E-01    0.607E-01
RMM:   3    -0.230924300131E+04   -0.42525E-03   -0.20019E-02  5096   0.101E-01    0.354E-01
RMM:   4    -0.230924248798E+04    0.51333E-03   -0.22602E-03  4743   0.206E-02    0.914E-02
RMM:   5    -0.230924231693E+04    0.17105E-03   -0.25351E-04  4076   0.120E-02    0.589E-02
RMM:   6    -0.230924225661E+04    0.60321E-04   -0.27373E-04  4179   0.120E-02    0.255E-02
RMM:   7    -0.230924225546E+04    0.11553E-05   -0.37386E-05  2972   0.877E-03
  11 F= -.23296321E+04 E0= -.23296319E+04  d E =-.809874E-02  mag=     6.0000
       N       E                     dE             d eps       ncg     rms          rms(c)
DAV:   1    -0.230923886999E+04    0.33866E-02   -0.36129E-01  4512   0.562E-01    0.205E-01
RMM:   2    -0.230924480505E+04   -0.59351E-02   -0.54126E-02  5694   0.102E-01    0.422E-01
RMM:   3    -0.230924443284E+04    0.37221E-03   -0.54010E-03  4905   0.469E-02    0.128E-01
RMM:   4    -0.230924440810E+04    0.24742E-04   -0.65343E-04  3805   0.103E-02    0.469E-02
RMM:   5    -0.230924437015E+04    0.37947E-04   -0.72118E-05  3173   0.685E-03    0.507E-02
RMM:   6    -0.230924435622E+04    0.13937E-04   -0.11552E-04  3468   0.772E-03    0.442E-02
RMM:   7    -0.230924434371E+04    0.12508E-04   -0.14872E-05  2837   0.540E-03    0.653E-03
RMM:   8    -0.230924434333E+04    0.37553E-06   -0.47466E-06  2798   0.244E-03
  12 F= -.23296348E+04 E0= -.23296347E+04  d E =-.275319E-02  mag=     6.0000
       N       E                     dE             d eps       ncg     rms          rms(c)
DAV:   1    -0.230921446595E+04    0.29878E-01   -0.19906E+00  4464   0.132E+00    0.483E-01
RMM:   2    -0.230924760855E+04   -0.33143E-01   -0.30202E-01  5486   0.240E-01    0.101E+00
RMM:   3    -0.230924540907E+04    0.21995E-02   -0.32873E-02  4977   0.119E-01    0.288E-01
RMM:   4    -0.230924533598E+04    0.73095E-04   -0.37223E-03  4801   0.236E-02    0.116E-01
RMM:   5    -0.230924513920E+04    0.19678E-03   -0.42573E-04  4449   0.150E-02    0.128E-01
RMM:   6    -0.230924505043E+04    0.88769E-04   -0.56759E-04  4308   0.144E-02    0.105E-01
RMM:   7    -0.230924497601E+04    0.74424E-04   -0.83488E-05  3365   0.971E-03    0.181E-02
RMM:   8    -0.230924497459E+04    0.14228E-05   -0.23202E-05  2863   0.433E-03
  13 F= -.23296370E+04 E0= -.23296369E+04  d E =-.495180E-02  mag=     6.0000
       N       E                     dE             d eps       ncg     rms          rms(c)
DAV:   1    -0.230923614301E+04    0.88330E-02   -0.60184E-01  4512   0.690E-01    0.280E-01
RMM:   2    -0.230924769551E+04   -0.11553E-01   -0.10472E-01  5927   0.131E-01    0.591E-01
RMM:   3    -0.230924698214E+04    0.71337E-03   -0.10865E-02  5162   0.579E-02    0.166E-01
RMM:   4    -0.230924699742E+04   -0.15278E-04   -0.12744E-03  4013   0.125E-02    0.626E-02
RMM:   5    -0.230924694954E+04    0.47880E-04   -0.10366E-04  3224   0.728E-03    0.658E-02
RMM:   6    -0.230924693377E+04    0.15770E-04   -0.16421E-04  3431   0.826E-03    0.595E-02
RMM:   7    -0.230924691230E+04    0.21469E-04   -0.24818E-05  2886   0.561E-03    0.785E-03
RMM:   8    -0.230924691282E+04   -0.52177E-06   -0.57381E-06  2814   0.302E-03
  14 F= -.23296398E+04 E0= -.23296397E+04  d E =-.280693E-02  mag=     6.0000
       N       E                     dE             d eps       ncg     rms          rms(c)
DAV:   1    -0.230916476538E+04    0.82147E-01   -0.45821E+00  4448   0.190E+00    0.784E-01
RMM:   2    -0.230925625795E+04   -0.91493E-01   -0.82001E-01  5717   0.361E-01    0.173E+00
RMM:   3    -0.230924783045E+04    0.84275E-02   -0.87807E-02  5264   0.161E-01    0.403E-01
RMM:   4    -0.230924823331E+04   -0.40286E-03   -0.99595E-03  5049   0.331E-02    0.180E-01
RMM:   5    -0.230924793554E+04    0.29777E-03   -0.93814E-04  4678   0.187E-02    0.220E-01
RMM:   6    -0.230924764295E+04    0.29259E-03   -0.98737E-04  4463   0.165E-02    0.124E-01
RMM:   7    -0.230924753866E+04    0.10429E-03   -0.23064E-04  4073   0.114E-02    0.283E-02
RMM:   8    -0.230924754161E+04   -0.29461E-05   -0.42384E-05  2951   0.617E-03
  15 F= -.23296428E+04 E0= -.23296428E+04  d E =-.582196E-02  mag=     6.0000
       N       E                     dE             d eps       ncg     rms          rms(c)
DAV:   1    -0.230922678939E+04    0.20749E-01   -0.11683E+00  4432   0.939E-01    0.408E-01
RMM:   2    -0.230925194465E+04   -0.25155E-01   -0.22744E-01  5803   0.186E-01    0.894E-01
RMM:   3    -0.230925007842E+04    0.18662E-02   -0.23701E-02  5293   0.836E-02    0.227E-01
RMM:   4    -0.230925020215E+04   -0.12373E-03   -0.28127E-03  4794   0.182E-02    0.971E-02
RMM:   5    -0.230925010963E+04    0.92527E-04   -0.26974E-04  3885   0.109E-02    0.112E-01
RMM:   6    -0.230925004788E+04    0.61745E-04   -0.30675E-04  3804   0.103E-02    0.799E-02
RMM:   7    -0.230925000706E+04    0.40824E-04   -0.56650E-05  2982   0.707E-03    0.126E-02
RMM:   8    -0.230925000760E+04   -0.54250E-06   -0.11570E-05  2837   0.428E-03
  16 F= -.23296465E+04 E0= -.23296464E+04  d E =-.365296E-02  mag=     6.0000
       N       E                     dE             d eps       ncg     rms          rms(c)
DAV:   1    -0.230921385374E+04    0.36153E-01   -0.17757E+00  4416   0.116E+00    0.498E-01
RMM:   2    -0.230925180069E+04   -0.37947E-01   -0.34622E-01  5783   0.229E-01    0.106E+00
RMM:   3    -0.230924939237E+04    0.24083E-02   -0.36420E-02  5330   0.100E-01    0.285E-01
RMM:   4    -0.230924954294E+04   -0.15057E-03   -0.41961E-03  4926   0.222E-02    0.118E-01
RMM:   5    -0.230924939542E+04    0.14753E-03   -0.41069E-04  4232   0.132E-02    0.133E-01
RMM:   6    -0.230924930381E+04    0.91605E-04   -0.44813E-04  4064   0.120E-02    0.973E-02
RMM:   7    -0.230924924027E+04    0.63544E-04   -0.89653E-05  3141   0.824E-03    0.184E-02
RMM:   8    -0.230924924083E+04   -0.55894E-06   -0.20652E-05  2839   0.492E-03
  17 F= -.23296472E+04 E0= -.23296471E+04  d E =-.433112E-02  mag=     6.0000
       N       E                     dE             d eps       ncg     rms          rms(c)
DAV:   1    -0.230924649117E+04    0.27491E-02   -0.17328E-01  4512   0.361E-01    0.144E-01
RMM:   2    -0.230924987251E+04   -0.33813E-02   -0.32996E-02  6017   0.721E-02    0.217E-01
RMM:   3    -0.230925001593E+04   -0.14342E-03   -0.30543E-03  4265   0.295E-02    0.133E-01
RMM:   4    -0.230924995814E+04    0.57790E-04   -0.37822E-04  2986   0.776E-03    0.363E-02
RMM:   5    -0.230924993751E+04    0.20626E-04   -0.33411E-05  2864   0.467E-03    0.225E-02
RMM:   6    -0.230924993082E+04    0.66862E-05   -0.31092E-05  2884   0.488E-03
  18 F= -.23296474E+04 E0= -.23296473E+04  d E =-.457245E-02  mag=     6.0000
       N       E                     dE             d eps       ncg     rms          rms(c)
DAV:   1    -0.230923184420E+04    0.18093E-01   -0.95310E-01  4416   0.836E-01    0.347E-01
RMM:   2    -0.230925214283E+04   -0.20299E-01   -0.19103E-01  5911   0.162E-01    0.673E-01
RMM:   3    -0.230925185831E+04    0.28452E-03   -0.20117E-02  5264   0.711E-02    0.232E-01
RMM:   4    -0.230925186818E+04   -0.98703E-05   -0.21751E-03  4307   0.149E-02    0.799E-02
RMM:   5    -0.230925176459E+04    0.10359E-03   -0.14539E-04  3224   0.783E-03    0.687E-02
RMM:   6    -0.230925171621E+04    0.48385E-04   -0.22778E-04  3804   0.911E-03    0.521E-02
RMM:   7    -0.230925170031E+04    0.15894E-04   -0.37186E-05  2839   0.617E-03    0.243E-02
RMM:   8    -0.230925169834E+04    0.19758E-05   -0.13973E-05  2828   0.316E-03
  19 F= -.23296503E+04 E0= -.23296502E+04  d E =-.284587E-02  mag=     6.0000
       N       E                     dE             d eps       ncg     rms          rms(c)
DAV:   1    -0.230918182821E+04    0.69872E-01   -0.33388E+00  4408   0.156E+00    0.667E-01
RMM:   2    -0.230925589751E+04   -0.74069E-01   -0.68128E-01  5666   0.300E-01    0.144E+00
RMM:   3    -0.230925196184E+04    0.39357E-02   -0.73564E-02  5116   0.141E-01    0.388E-01
RMM:   4    -0.230925226503E+04   -0.30320E-03   -0.80109E-03  4989   0.274E-02    0.155E-01
RMM:   5    -0.230925195287E+04    0.31216E-03   -0.59478E-04  4294   0.139E-02    0.162E-01
RMM:   6    -0.230925178138E+04    0.17149E-03   -0.73728E-04  4227   0.140E-02    0.124E-01
RMM:   7    -0.230925167014E+04    0.11124E-03   -0.17119E-04  3416   0.959E-03    0.284E-02
RMM:   8    -0.230925166917E+04    0.96203E-06   -0.42398E-05  2902   0.561E-03
  20 F= -.23296522E+04 E0= -.23296522E+04  d E =-.481254E-02  mag=     6.0000
       N       E                     dE             d eps       ncg     rms          rms(c)
DAV:   1    -0.230923747131E+04    0.14199E-01   -0.77910E-01  4448   0.759E-01    0.310E-01
RMM:   2    -0.230925387756E+04   -0.16406E-01   -0.15198E-01  5958   0.146E-01    0.648E-01
RMM:   3    -0.230925334736E+04    0.53020E-03   -0.15645E-02  5168   0.660E-02    0.191E-01
RMM:   4    -0.230925340266E+04   -0.55301E-04   -0.17832E-03  4084   0.137E-02    0.711E-02
RMM:   5    -0.230925332773E+04    0.74930E-04   -0.12719E-04  3179   0.748E-03    0.698E-02
RMM:   6    -0.230925329891E+04    0.28820E-04   -0.20503E-04  3649   0.861E-03    0.642E-02
RMM:   7    -0.230925327334E+04    0.25569E-04   -0.31769E-05  2846   0.589E-03    0.117E-02
RMM:   8    -0.230925327397E+04   -0.62457E-06   -0.86526E-06  2835   0.322E-03
  21 F= -.23296548E+04 E0= -.23296547E+04  d E =-.255704E-02  mag=     6.0000
       N       E                     dE             d eps       ncg     rms          rms(c)
DAV:   1    -0.230918787785E+04    0.65395E-01   -0.31975E+00  4408   0.154E+00    0.635E-01
RMM:   2    -0.230925674122E+04   -0.68863E-01   -0.63309E-01  5657   0.293E-01    0.138E+00
RMM:   3    -0.230925342057E+04    0.33206E-02   -0.68946E-02  5123   0.136E-01    0.362E-01
RMM:   4    -0.230925369613E+04   -0.27556E-03   -0.74919E-03  4966   0.268E-02    0.147E-01
RMM:   5    -0.230925339590E+04    0.30022E-03   -0.57047E-04  4305   0.139E-02    0.157E-01
RMM:   6    -0.230925323257E+04    0.16334E-03   -0.73170E-04  4252   0.142E-02    0.123E-01
RMM:   7    -0.230925312493E+04    0.10764E-03   -0.15590E-04  3556   0.986E-03    0.259E-02
RMM:   8    -0.230925312507E+04   -0.14374E-06   -0.39655E-05  2957   0.548E-03
  22 F= -.23296565E+04 E0= -.23296565E+04  d E =-.431342E-02  mag=     6.0000
       N       E                     dE             d eps       ncg     rms          rms(c)
DAV:   1    -0.230922466727E+04    0.28458E-01   -0.14454E+00  4424   0.998E-01    0.419E-01
RMM:   2    -0.230925553512E+04   -0.30868E-01   -0.28616E-01  5963   0.195E-01    0.882E-01
RMM:   3    -0.230925462492E+04    0.91020E-03   -0.30272E-02  5299   0.858E-02    0.252E-01
RMM:   4    -0.230925477294E+04   -0.14803E-03   -0.33821E-03  4693   0.180E-02    0.949E-02
RMM:   5    -0.230925465028E+04    0.12267E-03   -0.23846E-04  3562   0.950E-03    0.947E-02
RMM:   6    -0.230925459776E+04    0.52516E-04   -0.32655E-04  3917   0.102E-02    0.803E-02
RMM:   7    -0.230925455803E+04    0.39729E-04   -0.54192E-05  2897   0.671E-03    0.178E-02
RMM:   8    -0.230925455929E+04   -0.12565E-05   -0.15522E-05  2841   0.379E-03
  23 F= -.23296593E+04 E0= -.23296592E+04  d E =-.272609E-02  mag=     6.0000
       N       E                     dE             d eps       ncg     rms          rms(c)
DAV:   1    -0.230919167944E+04    0.62879E-01   -0.29990E+00  4416   0.144E+00    0.608E-01
RMM:   2    -0.230925691308E+04   -0.65234E-01   -0.60249E-01  5743   0.279E-01    0.130E+00
RMM:   3    -0.230925422184E+04    0.26912E-02   -0.64411E-02  5239   0.124E-01    0.344E-01
RMM:   4    -0.230925460424E+04   -0.38240E-03   -0.71054E-03  4995   0.254E-02    0.139E-01
RMM:   5    -0.230925436074E+04    0.24350E-03   -0.50159E-04  4172   0.128E-02    0.148E-01
RMM:   6    -0.230925422616E+04    0.13458E-03   -0.61925E-04  4132   0.130E-02    0.113E-01
RMM:   7    -0.230925413962E+04    0.86542E-04   -0.12954E-04  3242   0.875E-03    0.248E-02
RMM:   8    -0.230925414170E+04   -0.20875E-05   -0.32111E-05  2841   0.530E-03
  24 F= -.23296607E+04 E0= -.23296606E+04  d E =-.412393E-02  mag=     6.0000
       N       E                     dE             d eps       ncg     rms          rms(c)
DAV:   1    -0.230922524825E+04    0.28891E-01   -0.14365E+00  4440   0.988E-01    0.423E-01
RMM:   2    -0.230925612661E+04   -0.30878E-01   -0.29069E-01  5845   0.196E-01    0.835E-01
RMM:   3    -0.230925565948E+04    0.46713E-03   -0.30613E-02  5258   0.889E-02    0.272E-01
RMM:   4    -0.230925575452E+04   -0.95041E-04   -0.34747E-03  4822   0.186E-02    0.981E-02
RMM:   5    -0.230925560529E+04    0.14923E-03   -0.24223E-04  3702   0.100E-02    0.856E-02
RMM:   6    -0.230925553883E+04    0.66454E-04   -0.31962E-04  4033   0.108E-02    0.617E-02
RMM:   7    -0.230925551676E+04    0.22078E-04   -0.48383E-05  2863   0.730E-03    0.274E-02
RMM:   8    -0.230925551459E+04    0.21644E-05   -0.17730E-05  2839   0.367E-03
  25 F= -.23296633E+04 E0= -.23296633E+04  d E =-.266802E-02  mag=     6.0000
       N       E                     dE             d eps       ncg     rms          rms(c)
DAV:   1    -0.230924000403E+04    0.15513E-01   -0.70865E-01  4488   0.694E-01    0.292E-01
RMM:   2    -0.230925493316E+04   -0.14929E-01   -0.14280E-01  5756   0.137E-01    0.531E-01
RMM:   3    -0.230925507440E+04   -0.14123E-03   -0.14729E-02  5133   0.623E-02    0.210E-01
RMM:   4    -0.230925506933E+04    0.50674E-05   -0.16868E-03  4027   0.132E-02    0.694E-02
RMM:   5    -0.230925498961E+04    0.79717E-04   -0.11406E-04  3043   0.728E-03    0.508E-02
RMM:   6    -0.230925494787E+04    0.41744E-04   -0.12987E-04  3726   0.807E-03    0.152E-02
RMM:   7    -0.230925494782E+04    0.44936E-07   -0.19048E-05  2845   0.587E-03
  26 F= -.23296637E+04 E0= -.23296636E+04  d E =-.298631E-02  mag=     6.0000
       N       E                     dE             d eps       ncg     rms          rms(c)
DAV:   1    -0.230921829180E+04    0.36656E-01   -0.16862E+00  4416   0.105E+00    0.454E-01
RMM:   2    -0.230925543184E+04   -0.37140E-01   -0.35657E-01  5749   0.206E-01    0.820E-01
RMM:   3    -0.230925594833E+04   -0.51649E-03   -0.37924E-02  5187   0.971E-02    0.322E-01
RMM:   4    -0.230925597228E+04   -0.23951E-04   -0.41780E-03  4824   0.195E-02    0.107E-01
RMM:   5    -0.230925578329E+04    0.18899E-03   -0.26263E-04  3504   0.999E-03    0.779E-02
RMM:   6    -0.230925569078E+04    0.92515E-04   -0.23872E-04  4007   0.954E-03    0.313E-02
RMM:   7    -0.230925568430E+04    0.64769E-05   -0.63021E-05  2913   0.765E-03
  27 F= -.23296658E+04 E0= -.23296658E+04  d E =-.219153E-02  mag=     6.0000
       N       E                     dE             d eps       ncg     rms          rms(c)
DAV:   1    -0.230918391199E+04    0.71779E-01   -0.31381E+00  4408   0.144E+00    0.624E-01
RMM:   2    -0.230925428685E+04   -0.70375E-01   -0.67134E-01  5742   0.281E-01    0.118E+00
RMM:   3    -0.230925418738E+04    0.99467E-04   -0.71927E-02  5216   0.131E-01    0.411E-01
RMM:   4    -0.230925438076E+04   -0.19337E-03   -0.78044E-03  5022   0.263E-02    0.147E-01
RMM:   5    -0.230925403939E+04    0.34136E-03   -0.51739E-04  4123   0.132E-02    0.117E-01
RMM:   6    -0.230925386994E+04    0.16945E-03   -0.50906E-04  4190   0.126E-02    0.566E-02
RMM:   7    -0.230925386194E+04    0.79976E-05   -0.12342E-04  3187   0.905E-03    0.633E-02
RMM:   8    -0.230925384236E+04    0.19586E-04   -0.62829E-05  2831   0.567E-03    0.217E-02
RMM:   9    -0.230925384077E+04    0.15903E-05   -0.20242E-05  2827   0.422E-03
  28 F= -.23296659E+04 E0= -.23296659E+04  d E =-.225634E-02  mag=     6.0000
       N       E                     dE             d eps       ncg     rms          rms(c)
DAV:   1    -0.230924227877E+04    0.11564E-01   -0.57475E-01  4448   0.615E-01    0.249E-01
RMM:   2    -0.230925415256E+04   -0.11874E-01   -0.12011E-01  5886   0.120E-01    0.266E-01
RMM:   3    -0.230925542480E+04   -0.12722E-02   -0.11768E-02  4904   0.509E-02    0.289E-01
RMM:   4    -0.230925510501E+04    0.31978E-03   -0.13963E-03  3197   0.119E-02    0.721E-02
RMM:   5    -0.230925504159E+04    0.63426E-04   -0.13701E-04  2900   0.627E-03    0.440E-02
RMM:   6    -0.230925501301E+04    0.28573E-04   -0.67682E-05  2968   0.570E-03    0.329E-02
RMM:   7    -0.230925500540E+04    0.76097E-05   -0.39362E-05  2829   0.557E-03
  29 F= -.23296663E+04 E0= -.23296662E+04  d E =-.261641E-02  mag=     6.0000
       N       E                     dE             d eps       ncg     rms          rms(c)
DAV:   1    -0.230920842659E+04    0.46586E-01   -0.20000E+00  4416   0.110E+00    0.500E-01
RMM:   2    -0.230925511517E+04   -0.46689E-01   -0.45422E-01  5683   0.222E-01    0.853E-01
RMM:   3    -0.230925654110E+04   -0.14259E-02   -0.48599E-02  5145   0.102E-01    0.385E-01
RMM:   4    -0.230925644990E+04    0.91204E-04   -0.52216E-03  4846   0.216E-02    0.126E-01
RMM:   5    -0.230925618655E+04    0.26335E-03   -0.39167E-04  3725   0.114E-02    0.843E-02
RMM:   6    -0.230925607501E+04    0.11154E-03   -0.26268E-04  4057   0.976E-03    0.564E-02
RMM:   7    -0.230925604644E+04    0.28574E-04   -0.12568E-04  3219   0.904E-03    0.303E-02
RMM:   8    -0.230925604427E+04    0.21663E-05   -0.25788E-05  2830   0.520E-03
  30 F= -.23296689E+04 E0= -.23296689E+04  d E =-.265398E-02  mag=     6.0000
       N       E                     dE             d eps       ncg     rms          rms(c)
DAV:   1    -0.230924886104E+04    0.71854E-02   -0.28387E-01  4568   0.414E-01    0.188E-01
RMM:   2    -0.230925545473E+04   -0.65937E-02   -0.64475E-02  6045   0.844E-02    0.311E-01
RMM:   3    -0.230925568438E+04   -0.22964E-03   -0.60586E-03  4369   0.357E-02    0.161E-01
RMM:   4    -0.230925564153E+04    0.42847E-04   -0.72622E-04  3047   0.886E-03    0.475E-02
RMM:   5    -0.230925560591E+04    0.35617E-04   -0.61207E-05  2875   0.495E-03    0.316E-02
RMM:   6    -0.230925558875E+04    0.17161E-04   -0.46431E-05  2945   0.510E-03    0.235E-02
RMM:   7    -0.230925558602E+04    0.27360E-05   -0.18529E-05  2822   0.481E-03
  31 F= -.23296691E+04 E0= -.23296690E+04  d E =-.279197E-02  mag=     6.0000
       N       E                     dE             d eps       ncg     rms          rms(c)
DAV:   1    -0.230920875074E+04    0.46838E-01   -0.21016E+00  4416   0.118E+00    0.499E-01
RMM:   2    -0.230925457968E+04   -0.45829E-01   -0.45207E-01  5738   0.228E-01    0.764E-01
RMM:   3    -0.230925690061E+04   -0.23209E-02   -0.47895E-02  5239   0.103E-01    0.430E-01
RMM:   4    -0.230925660989E+04    0.29073E-03   -0.51366E-03  4937   0.220E-02    0.131E-01
RMM:   5    -0.230925635382E+04    0.25607E-03   -0.47235E-04  3750   0.118E-02    0.855E-02
RMM:   6    -0.230925625835E+04    0.95466E-04   -0.23894E-04  4055   0.935E-03    0.752E-02
RMM:   7    -0.230925621516E+04    0.43193E-04   -0.15754E-04  3237   0.935E-03    0.377E-02
RMM:   8    -0.230925620900E+04    0.61618E-05   -0.29852E-05  2839   0.548E-03
  32 F= -.23296712E+04 E0= -.23296712E+04  d E =-.215565E-02  mag=     6.0000
       N       E                     dE             d eps       ncg     rms          rms(c)
DAV:   1    -0.230925231754E+04    0.38976E-02   -0.15719E-01  4680   0.321E-01    0.135E-01
RMM:   2    -0.230925569334E+04   -0.33758E-02   -0.33777E-02  6145   0.638E-02    0.181E-01
RMM:   3    -0.230925593414E+04   -0.24079E-03   -0.30981E-03  3734   0.259E-02    0.136E-01
RMM:   4    -0.230925588235E+04    0.51783E-04   -0.37984E-04  2882   0.704E-03    0.374E-02
RMM:   5    -0.230925586445E+04    0.17900E-04   -0.37028E-05  2851   0.387E-03    0.243E-02
RMM:   6    -0.230925585757E+04    0.68834E-05   -0.27243E-05  2855   0.389E-03
  33 F= -.23296713E+04 E0= -.23296712E+04  d E =-.221279E-02  mag=     6.0000
       N       E                     dE             d eps       ncg     rms          rms(c)
DAV:   1    -0.230921820872E+04    0.37656E-01   -0.17894E+00  4408   0.109E+00    0.435E-01
RMM:   2    -0.230925465041E+04   -0.36442E-01   -0.36492E-01  5636   0.208E-01    0.566E-01
RMM:   3    -0.230925745299E+04   -0.28026E-02   -0.37866E-02  4998   0.986E-02    0.414E-01
RMM:   4    -0.230925705555E+04    0.39745E-03   -0.42185E-03  4834   0.202E-02    0.132E-01
RMM:   5    -0.230925685497E+04    0.20057E-03   -0.38277E-04  3485   0.108E-02    0.819E-02
RMM:   6    -0.230925677829E+04    0.76688E-04   -0.20571E-04  4000   0.885E-03    0.718E-02
RMM:   7    -0.230925674111E+04    0.37180E-04   -0.11453E-04  3030   0.843E-03    0.278E-02
RMM:   8    -0.230925673842E+04    0.26871E-05   -0.26418E-05  2840   0.536E-03
  34 F= -.23296733E+04 E0= -.23296733E+04  d E =-.206481E-02  mag=     6.0000
       N       E                     dE             d eps       ncg     rms          rms(c)
DAV:   1    -0.230924207989E+04    0.14661E-01   -0.64931E-01  4456   0.655E-01    0.259E-01
RMM:   2    -0.230925511610E+04   -0.13036E-01   -0.13209E-01  5884   0.126E-01    0.284E-01
RMM:   3    -0.230925635545E+04   -0.12394E-02   -0.13009E-02  4999   0.536E-02    0.263E-01
RMM:   4    -0.230925616647E+04    0.18898E-03   -0.15400E-03  3306   0.122E-02    0.837E-02
RMM:   5    -0.230925609201E+04    0.74466E-04   -0.13604E-04  2904   0.683E-03    0.507E-02
RMM:   6    -0.230925606246E+04    0.29546E-04   -0.95081E-05  3344   0.659E-03    0.481E-02
RMM:   7    -0.230925604836E+04    0.14098E-04   -0.39434E-05  2829   0.606E-03    0.114E-02
RMM:   8    -0.230925604842E+04   -0.61234E-07   -0.98974E-06  2840   0.372E-03
  35 F= -.23296733E+04 E0= -.23296733E+04  d E =-.205517E-02  mag=     6.0000
       N       E                     dE             d eps       ncg     rms          rms(c)
DAV:   1    -0.230925395676E+04    0.20916E-02   -0.11639E-01  4536   0.278E-01    0.107E-01
RMM:   2    -0.230925626317E+04   -0.23064E-02   -0.23660E-02  6110   0.539E-02    0.788E-02
RMM:   3    -0.230925650578E+04   -0.24261E-03   -0.21451E-03  3428   0.213E-02    0.994E-02
RMM:   4    -0.230925647385E+04    0.31924E-04   -0.26434E-04  2847   0.571E-03    0.373E-02
RMM:   5    -0.230925645922E+04    0.14630E-04   -0.21923E-05  2837   0.306E-03    0.187E-02
RMM:   6    -0.230925645238E+04    0.68463E-05   -0.18656E-05  2834   0.322E-03
  36 F= -.23296735E+04 E0= -.23296734E+04  d E =-.217451E-02  mag=     6.0000
       N       E                     dE             d eps       ncg     rms          rms(c)
DAV:   1    -0.230921852554E+04    0.37934E-01   -0.17541E+00  4408   0.106E+00    0.427E-01
RMM:   2    -0.230925446546E+04   -0.35940E-01   -0.36420E-01  5745   0.205E-01    0.455E-01
RMM:   3    -0.230925787429E+04   -0.34088E-02   -0.36798E-02  5151   0.904E-02    0.418E-01
RMM:   4    -0.230925743866E+04    0.43563E-03   -0.41713E-03  4703   0.194E-02    0.142E-01
RMM:   5    -0.230925724070E+04    0.19796E-03   -0.38072E-04  3247   0.102E-02    0.882E-02
RMM:   6    -0.230925715568E+04    0.85026E-04   -0.20216E-04  3932   0.837E-03    0.693E-02
RMM:   7    -0.230925711414E+04    0.41538E-04   -0.11799E-04  2999   0.811E-03    0.261E-02
RMM:   8    -0.230925711097E+04    0.31707E-05   -0.30328E-05  2847   0.550E-03
  37 F= -.23296752E+04 E0= -.23296752E+04  d E =-.174796E-02  mag=     6.0000
       N       E                     dE             d eps       ncg     rms          rms(c)
DAV:   1    -0.230924588087E+04    0.11233E-01   -0.48508E-01  4456   0.558E-01    0.222E-01
RMM:   2    -0.230925571411E+04   -0.98332E-02   -0.10076E-01  5985   0.108E-01    0.184E-01
RMM:   3    -0.230925673807E+04   -0.10240E-02   -0.95188E-03  4792   0.449E-02    0.201E-01
RMM:   4    -0.230925664217E+04    0.95899E-04   -0.11364E-03  3010   0.102E-02    0.799E-02
RMM:   5    -0.230925658414E+04    0.58027E-04   -0.10042E-04  2872   0.576E-03    0.450E-02
RMM:   6    -0.230925655999E+04    0.24155E-04   -0.74618E-05  3038   0.569E-03    0.396E-02
RMM:   7    -0.230925655035E+04    0.96385E-05   -0.25720E-05  2831   0.524E-03
  38 F= -.23296752E+04 E0= -.23296752E+04  d E =-.173321E-02  mag=     6.0000
       N       E                     dE             d eps       ncg     rms          rms(c)
DAV:   1    -0.230923504315E+04    0.21517E-01   -0.96924E-01  4416   0.773E-01    0.306E-01
RMM:   2    -0.230925537132E+04   -0.20328E-01   -0.20781E-01  5815   0.147E-01    0.265E-01
RMM:   3    -0.230925752730E+04   -0.21560E-02   -0.20387E-02  4994   0.651E-02    0.276E-01
RMM:   4    -0.230925739085E+04    0.13645E-03   -0.23555E-03  3340   0.134E-02    0.114E-01
RMM:   5    -0.230925727620E+04    0.11465E-03   -0.18250E-04  2890   0.723E-03    0.664E-02
RMM:   6    -0.230925722467E+04    0.51529E-04   -0.10415E-04  3114   0.611E-03    0.450E-02
RMM:   7    -0.230925720620E+04    0.18470E-04   -0.60253E-05  2839   0.612E-03    0.176E-02
RMM:   8    -0.230925720553E+04    0.67256E-06   -0.19281E-05  2843   0.433E-03
  39 F= -.23296766E+04 E0= -.23296766E+04  d E =-.142197E-02  mag=     6.0000
       N       E                     dE             d eps       ncg     rms          rms(c)
DAV:   1    -0.230915938517E+04    0.97821E-01   -0.42327E+00  4416   0.162E+00    0.650E-01
RMM:   2    -0.230925054955E+04   -0.91164E-01   -0.92189E-01  5712   0.308E-01    0.756E-01
RMM:   3    -0.230925833623E+04   -0.77867E-02   -0.92684E-02  5151   0.133E-01    0.609E-01
RMM:   4    -0.230925766167E+04    0.67456E-03   -0.10202E-02  5112   0.284E-02    0.221E-01
RMM:   5    -0.230925718568E+04    0.47600E-03   -0.85776E-04  3798   0.137E-02    0.137E-01
RMM:   6    -0.230925699969E+04    0.18598E-03   -0.40068E-04  4128   0.102E-02    0.102E-01
RMM:   7    -0.230925689736E+04    0.10233E-03   -0.28067E-04  3592   0.104E-02    0.454E-02
RMM:   8    -0.230925688514E+04    0.12221E-04   -0.75341E-05  3002   0.681E-03    0.264E-02
RMM:   9    -0.230925688543E+04   -0.29546E-06   -0.37927E-05  2827   0.582E-03
  40 F= -.23296778E+04 E0= -.23296777E+04  d E =-.258541E-02  mag=     6.0000
       N       E                     dE             d eps       ncg     rms          rms(c)
DAV:   1    -0.230923086449E+04    0.26021E-01   -0.12254E+00  4432   0.895E-01    0.366E-01
RMM:   2    -0.230925588044E+04   -0.25016E-01   -0.25826E-01  5623   0.172E-01    0.278E-01
RMM:   3    -0.230925871456E+04   -0.28341E-02   -0.26568E-02  4990   0.813E-02    0.317E-01
RMM:   4    -0.230925853340E+04    0.18116E-03   -0.29209E-03  4030   0.159E-02    0.139E-01
RMM:   5    -0.230925836784E+04    0.16557E-03   -0.30462E-04  2965   0.933E-03    0.860E-02
RMM:   6    -0.230925828911E+04    0.78725E-04   -0.16115E-04  3786   0.757E-03    0.447E-02
RMM:   7    -0.230925826528E+04    0.23829E-04   -0.84448E-05  2860   0.738E-03    0.240E-02
RMM:   8    -0.230925826247E+04    0.28174E-05   -0.32595E-05  2858   0.506E-03
  41 F= -.23296799E+04 E0= -.23296799E+04  d E =-.214079E-02  mag=     6.0000
       N       E                     dE             d eps       ncg     rms          rms(c)
DAV:   1    -0.230924021691E+04    0.18048E-01   -0.78545E-01  4464   0.717E-01    0.292E-01
RMM:   2    -0.230925617766E+04   -0.15961E-01   -0.16542E-01  5715   0.137E-01    0.180E-01
RMM:   3    -0.230925782626E+04   -0.16486E-02   -0.16113E-02  4892   0.622E-02    0.136E-01
RMM:   4    -0.230925789727E+04   -0.71008E-04   -0.17606E-03  3398   0.121E-02    0.120E-01
RMM:   5    -0.230925780102E+04    0.96252E-04   -0.18070E-04  2861   0.728E-03    0.760E-02
RMM:   6    -0.230925774305E+04    0.57970E-04   -0.10040E-04  3217   0.613E-03    0.328E-02
RMM:   7    -0.230925773030E+04    0.12748E-04   -0.47185E-05  2828   0.594E-03    0.180E-02
RMM:   8    -0.230925772906E+04    0.12410E-05   -0.19701E-05  2842   0.417E-03
  42 F= -.23296800E+04 E0= -.23296799E+04  d E =-.218769E-02  mag=     6.0000
       N       E                     dE             d eps       ncg     rms          rms(c)
DAV:   1    -0.230925532178E+04    0.24085E-02   -0.12551E-01  4576   0.287E-01    0.116E-01
RMM:   2    -0.230925788852E+04   -0.25667E-02   -0.26515E-02  6115   0.565E-02    0.654E-02
RMM:   3    -0.230925812238E+04   -0.23386E-03   -0.22869E-03  3539   0.225E-02    0.363E-02
RMM:   4    -0.230925813979E+04   -0.17418E-04   -0.27836E-04  2855   0.557E-03    0.602E-02
RMM:   5    -0.230925811851E+04    0.21282E-04   -0.22965E-05  2824   0.313E-03    0.208E-02
RMM:   6    -0.230925811241E+04    0.61035E-05   -0.21798E-05  2832   0.299E-03
  43 F= -.23296801E+04 E0= -.23296801E+04  d E =-.234280E-02  mag=     6.0000
       N       E                     dE             d eps       ncg     rms          rms(c)
DAV:   1    -0.230923964279E+04    0.18476E-01   -0.87423E-01  4424   0.759E-01    0.302E-01
RMM:   2    -0.230925722562E+04   -0.17583E-01   -0.18223E-01  5669   0.144E-01    0.179E-01
RMM:   3    -0.230925908662E+04   -0.18610E-02   -0.18568E-02  4871   0.694E-02    0.103E-01
RMM:   4    -0.230925911198E+04   -0.25353E-04   -0.19098E-03  3571   0.129E-02    0.725E-02
RMM:   5    -0.230925909990E+04    0.12078E-04   -0.17179E-04  2909   0.765E-03    0.115E-01
RMM:   6    -0.230925902476E+04    0.75143E-04   -0.79048E-05  2848   0.550E-03    0.369E-02
RMM:   7    -0.230925900676E+04    0.17997E-04   -0.58274E-05  2833   0.531E-03    0.220E-02
RMM:   8    -0.230925900182E+04    0.49451E-05   -0.25934E-05  2841   0.464E-03
  44 F= -.23296816E+04 E0= -.23296816E+04  d E =-.151490E-02  mag=     6.0000
       N       E                     dE             d eps       ncg     rms          rms(c)
DAV:   1    -0.230925171128E+04    0.72955E-02   -0.32230E-01  4464   0.460E-01    0.184E-01
RMM:   2    -0.230925823436E+04   -0.65231E-02   -0.67624E-02  6003   0.883E-02    0.114E-01
RMM:   3    -0.230925892131E+04   -0.68694E-03   -0.63605E-03  4181   0.372E-02    0.112E-01
RMM:   4    -0.230925890699E+04    0.14319E-04   -0.71751E-04  2916   0.824E-03    0.801E-02
RMM:   5    -0.230925886262E+04    0.44372E-04   -0.66878E-05  2834   0.465E-03    0.342E-02
RMM:   6    -0.230925884315E+04    0.19472E-04   -0.43443E-05  2855   0.449E-03    0.191E-02
RMM:   7    -0.230925883892E+04    0.42223E-05   -0.16258E-05  2823   0.412E-03
  45 F= -.23296818E+04 E0= -.23296818E+04  d E =-.171619E-02  mag=     6.0000
       N       E                     dE             d eps       ncg     rms          rms(c)
DAV:   1    -0.230924593510E+04    0.12908E-01   -0.67341E-01  4416   0.699E-01    0.261E-01
RMM:   2    -0.230925872694E+04   -0.12792E-01   -0.13161E-01  5634   0.129E-01    0.206E-01
RMM:   3    -0.230926024888E+04   -0.15219E-02   -0.12479E-02  4810   0.609E-02    0.284E-01
RMM:   4    -0.230925993467E+04    0.31421E-03   -0.14824E-03  3279   0.123E-02    0.830E-02
RMM:   5    -0.230925986283E+04    0.71839E-04   -0.14579E-04  2876   0.711E-03    0.481E-02
RMM:   6    -0.230925982833E+04    0.34497E-04   -0.79058E-05  3207   0.646E-03    0.291E-02
RMM:   7    -0.230925982052E+04    0.78083E-05   -0.43816E-05  2825   0.621E-03
  46 F= -.23296832E+04 E0= -.23296832E+04  d E =-.136750E-02  mag=     6.0000
       N       E                     dE             d eps       ncg     rms          rms(c)
DAV:   1    -0.230924685935E+04    0.12969E-01   -0.62592E-01  4440   0.674E-01    0.252E-01
RMM:   2    -0.230925876974E+04   -0.11910E-01   -0.12254E-01  5630   0.124E-01    0.198E-01
RMM:   3    -0.230926014806E+04   -0.13783E-02   -0.11229E-02  4769   0.618E-02    0.271E-01
RMM:   4    -0.230925986426E+04    0.28380E-03   -0.13710E-03  3255   0.121E-02    0.795E-02
RMM:   5    -0.230925979710E+04    0.67159E-04   -0.13357E-04  2873   0.707E-03    0.457E-02
RMM:   6    -0.230925976396E+04    0.33140E-04   -0.77313E-05  3228   0.654E-03    0.269E-02
RMM:   7    -0.230925975792E+04    0.60445E-05   -0.38922E-05  2823   0.611E-03
  47 F= -.23296835E+04 E0= -.23296835E+04  d E =-.165588E-02  mag=     6.0000
       N       E                     dE             d eps       ncg     rms          rms(c)
DAV:   1    -0.230925234263E+04    0.74213E-02   -0.38475E-01  4464   0.519E-01    0.199E-01
RMM:   2    -0.230925997613E+04   -0.76335E-02   -0.77505E-02  5910   0.971E-02    0.207E-01
RMM:   3    -0.230926077203E+04   -0.79590E-03   -0.69245E-03  4442   0.433E-02    0.234E-01
RMM:   4    -0.230926056482E+04    0.20722E-03   -0.87362E-04  3001   0.101E-02    0.559E-02
RMM:   5    -0.230926052856E+04    0.36254E-04   -0.88146E-05  2861   0.544E-03    0.345E-02
RMM:   6    -0.230926051038E+04    0.18178E-04   -0.48417E-05  2905   0.526E-03    0.235E-02
RMM:   7    -0.230926050875E+04    0.16356E-05   -0.18895E-05  2822   0.484E-03
  48 F= -.23296845E+04 E0= -.23296845E+04  d E =-.101899E-02  mag=     6.0000
       N       E                     dE             d eps       ncg     rms          rms(c)
DAV:   1    -0.230922794602E+04    0.32564E-01   -0.15415E+00  4408   0.104E+00    0.395E-01
RMM:   2    -0.230925801816E+04   -0.30072E-01   -0.30741E-01  5570   0.192E-01    0.356E-01
RMM:   3    -0.230926186273E+04   -0.38446E-02   -0.31672E-02  4897   0.965E-02    0.475E-01
RMM:   4    -0.230926096111E+04    0.90162E-03   -0.35674E-03  4364   0.189E-02    0.119E-01
RMM:   5    -0.230926080425E+04    0.15686E-03   -0.36954E-04  3051   0.979E-03    0.738E-02
RMM:   6    -0.230926073465E+04    0.69604E-04   -0.15559E-04  3779   0.794E-03    0.489E-02
RMM:   7    -0.230926071223E+04    0.22419E-04   -0.93021E-05  2847   0.764E-03    0.276E-02
RMM:   8    -0.230926070758E+04    0.46464E-05   -0.38538E-05  2862   0.514E-03
  49 F= -.23296852E+04 E0= -.23296852E+04  d E =-.171898E-02  mag=     6.0000
       N       E                     dE             d eps       ncg     rms          rms(c)
DAV:   1    -0.230925353532E+04    0.71769E-02   -0.37659E-01  4472   0.511E-01    0.211E-01
RMM:   2    -0.230926124041E+04   -0.77051E-02   -0.76670E-02  5811   0.996E-02    0.286E-01
RMM:   3    -0.230926181918E+04   -0.57878E-03   -0.72021E-03  4732   0.429E-02    0.234E-01
RMM:   4    -0.230926162058E+04    0.19861E-03   -0.87052E-04  3039   0.105E-02    0.531E-02
RMM:   5    -0.230926158386E+04    0.36718E-04   -0.94621E-05  2871   0.599E-03    0.344E-02
RMM:   6    -0.230926156496E+04    0.18900E-04   -0.56104E-05  3024   0.613E-03    0.187E-02
RMM:   7    -0.230926156399E+04    0.97111E-06   -0.15402E-05  2826   0.519E-03
  50 F= -.23296864E+04 E0= -.23296863E+04  d E =-.115498E-02  mag=     6.0000
       N       E                     dE             d eps       ncg     rms          rms(c)
DAV:   1    -0.230925040008E+04    0.11165E-01   -0.52224E-01  4408   0.602E-01    0.247E-01
RMM:   2    -0.230926098255E+04   -0.10582E-01   -0.10604E-01  5633   0.116E-01    0.306E-01
RMM:   3    -0.230926193965E+04   -0.95710E-03   -0.10294E-02  4773   0.529E-02    0.283E-01
RMM:   4    -0.230926163360E+04    0.30605E-03   -0.12201E-03  3383   0.121E-02    0.647E-02
RMM:   5    -0.230926158043E+04    0.53172E-04   -0.13466E-04  2882   0.686E-03    0.408E-02
RMM:   6    -0.230926155422E+04    0.26208E-04   -0.68282E-05  3193   0.651E-03    0.267E-02
RMM:   7    -0.230926155032E+04    0.38967E-05   -0.25257E-05  2825   0.573E-03
  51 F= -.23296867E+04 E0= -.23296867E+04  d E =-.147760E-02  mag=     6.0000
       N       E                     dE             d eps       ncg     rms          rms(c)
DAV:   1    -0.230925178956E+04    0.97647E-02   -0.48632E-01  4424   0.569E-01    0.241E-01
RMM:   2    -0.230926193032E+04   -0.10141E-01   -0.99874E-02  5784   0.110E-01    0.350E-01
RMM:   3    -0.230926260405E+04   -0.67373E-03   -0.97831E-03  4781   0.508E-02    0.257E-01
RMM:   4    -0.230926237119E+04    0.23285E-03   -0.10985E-03  3230   0.116E-02    0.589E-02
RMM:   5    -0.230926232912E+04    0.42072E-04   -0.12829E-04  2875   0.642E-03    0.400E-02
RMM:   6    -0.230926230572E+04    0.23397E-04   -0.60618E-05  3025   0.606E-03    0.206E-02
RMM:   7    -0.230926230386E+04    0.18641E-05   -0.19635E-05  2828   0.528E-03
  52 F= -.23296877E+04 E0= -.23296877E+04  d E =-.104725E-02  mag=     6.0000
       N       E                     dE             d eps       ncg     rms          rms(c)
DAV:   1    -0.230923893229E+04    0.23373E-01   -0.10814E+00  4408   0.848E-01    0.358E-01
RMM:   2    -0.230926125449E+04   -0.22322E-01   -0.22068E-01  5651   0.163E-01    0.503E-01
RMM:   3    -0.230926309487E+04   -0.18404E-02   -0.23421E-02  4984   0.797E-02    0.404E-01
RMM:   4    -0.230926248668E+04    0.60819E-03   -0.24926E-03  4336   0.170E-02    0.900E-02
RMM:   5    -0.230926239061E+04    0.96073E-04   -0.30779E-04  3035   0.910E-03    0.621E-02
RMM:   6    -0.230926234000E+04    0.50608E-04   -0.11893E-04  3683   0.770E-03    0.329E-02
RMM:   7    -0.230926233070E+04    0.93041E-05   -0.48563E-05  2836   0.670E-03
  53 F= -.23296882E+04 E0= -.23296882E+04  d E =-.148088E-02  mag=     6.0000
       N       E                     dE             d eps       ncg     rms          rms(c)
DAV:   1    -0.230924946723E+04    0.12873E-01   -0.64277E-01  4424   0.646E-01    0.280E-01
RMM:   2    -0.230926321342E+04   -0.13746E-01   -0.13267E-01  5781   0.125E-01    0.469E-01
RMM:   3    -0.230926371593E+04   -0.50251E-03   -0.12964E-02  4987   0.581E-02    0.271E-01
RMM:   4    -0.230926349368E+04    0.22225E-03   -0.14783E-03  3498   0.130E-02    0.650E-02
RMM:   5    -0.230926343669E+04    0.56986E-04   -0.11120E-04  2911   0.686E-03    0.488E-02
RMM:   6    -0.230926340440E+04    0.32294E-04   -0.85933E-05  3256   0.680E-03    0.187E-02
RMM:   7    -0.230926340221E+04    0.21942E-05   -0.23459E-05  2832   0.561E-03
  54 F= -.23296895E+04 E0= -.23296894E+04  d E =-.129167E-02  mag=     6.0000
       N       E                     dE             d eps       ncg     rms          rms(c)
DAV:   1    -0.230924053170E+04    0.22873E-01   -0.10694E+00  4408   0.833E-01    0.360E-01
RMM:   2    -0.230926316973E+04   -0.22638E-01   -0.21947E-01  5646   0.161E-01    0.586E-01
RMM:   3    -0.230926430444E+04   -0.11347E-02   -0.22775E-02  5019   0.789E-02    0.367E-01
RMM:   4    -0.230926386218E+04    0.44227E-03   -0.24313E-03  4328   0.167E-02    0.858E-02
RMM:   5    -0.230926377143E+04    0.90749E-04   -0.20823E-04  3036   0.873E-03    0.641E-02
RMM:   6    -0.230926371884E+04    0.52590E-04   -0.13137E-04  3708   0.787E-03    0.283E-02
RMM:   7    -0.230926371172E+04    0.71148E-05   -0.44782E-05  2836   0.664E-03
  55 F= -.23296900E+04 E0= -.23296900E+04  d E =-.185514E-02  mag=     6.0000
       N       E                     dE             d eps       ncg     rms          rms(c)
DAV:   1    -0.230924344539E+04    0.20273E-01   -0.10075E+00  4456   0.811E-01    0.362E-01
RMM:   2    -0.230926522249E+04   -0.21777E-01   -0.20697E-01  5684   0.158E-01    0.651E-01
RMM:   3    -0.230926554724E+04   -0.32474E-03   -0.20549E-02  5087   0.748E-02    0.329E-01
RMM:   4    -0.230926524228E+04    0.30495E-03   -0.23016E-03  4288   0.163E-02    0.803E-02
RMM:   5    -0.230926515682E+04    0.85461E-04   -0.16464E-04  3070   0.860E-03    0.637E-02
RMM:   6    -0.230926510570E+04    0.51121E-04   -0.13978E-04  3814   0.830E-03    0.223E-02
RMM:   7    -0.230926510194E+04    0.37610E-05   -0.37523E-05  2841   0.663E-03
  56 F= -.23296916E+04 E0= -.23296916E+04  d E =-.159716E-02  mag=     6.0000
       N       E                     dE             d eps       ncg     rms          rms(c)
DAV:   1    -0.230925468724E+04    0.10418E-01   -0.49052E-01  4544   0.565E-01    0.255E-01
RMM:   2    -0.230926541188E+04   -0.10725E-01   -0.10131E-01  5692   0.111E-01    0.473E-01
RMM:   3    -0.230926539978E+04    0.12105E-04   -0.94112E-03  4800   0.518E-02    0.220E-01
RMM:   4    -0.230926529111E+04    0.10867E-03   -0.11163E-03  3356   0.116E-02    0.551E-02
RMM:   5    -0.230926524979E+04    0.41319E-04   -0.77575E-05  2895   0.617E-03    0.454E-02
RMM:   6    -0.230926522218E+04    0.27612E-04   -0.78145E-05  3178   0.659E-03    0.137E-02
RMM:   7    -0.230926522067E+04    0.15143E-05   -0.16781E-05  2837   0.522E-03
  57 F= -.23296919E+04 E0= -.23296919E+04  d E =-.184196E-02  mag=     6.0000
       N       E                     dE             d eps       ncg     rms          rms(c)
DAV:   1    -0.230924341003E+04    0.21812E-01   -0.10356E+00  4408   0.789E-01    0.372E-01
RMM:   2    -0.230926713152E+04   -0.23721E-01   -0.22144E-01  5753   0.156E-01    0.737E-01
RMM:   3    -0.230926692746E+04    0.20406E-03   -0.22444E-02  5051   0.730E-02    0.300E-01
RMM:   4    -0.230926676856E+04    0.15890E-03   -0.25590E-03  4019   0.158E-02    0.791E-02
RMM:   5    -0.230926669169E+04    0.76867E-04   -0.14399E-04  2995   0.755E-03    0.725E-02
RMM:   6    -0.230926663897E+04    0.52721E-04   -0.14343E-04  3375   0.775E-03    0.266E-02
RMM:   7    -0.230926663506E+04    0.39048E-05   -0.36449E-05  2845   0.585E-03
  58 F= -.23296935E+04 E0= -.23296935E+04  d E =-.162010E-02  mag=     6.0000
       N       E                     dE             d eps       ncg     rms          rms(c)
DAV:   1    -0.230921166767E+04    0.54971E-01   -0.24671E+00  4400   0.122E+00    0.572E-01
RMM:   2    -0.230926787045E+04   -0.56203E-01   -0.52674E-01  5686   0.241E-01    0.111E+00
RMM:   3    -0.230926800343E+04   -0.13299E-03   -0.56309E-02  5162   0.115E-01    0.484E-01
RMM:   4    -0.230926751190E+04    0.49153E-03   -0.61421E-03  4905   0.244E-02    0.125E-01
RMM:   5    -0.230926732579E+04    0.18611E-03   -0.36821E-04  3665   0.113E-02    0.112E-01
RMM:   6    -0.230926720560E+04    0.12019E-03   -0.29202E-04  3984   0.102E-02    0.418E-02
RMM:   7    -0.230926719388E+04    0.11714E-04   -0.10521E-04  2932   0.799E-03    0.359E-02
RMM:   8    -0.230926718813E+04    0.57543E-05   -0.48077E-05  2829   0.522E-03
  59 F= -.23296943E+04 E0= -.23296943E+04  d E =-.242515E-02  mag=     6.0000
       N       E                     dE             d eps       ncg     rms          rms(c)
DAV:   1    -0.230925085100E+04    0.16343E-01   -0.78424E-01  4504   0.677E-01    0.333E-01
RMM:   2    -0.230926922331E+04   -0.18372E-01   -0.16940E-01  5830   0.136E-01    0.683E-01
RMM:   3    -0.230926869263E+04    0.53069E-03   -0.16578E-02  5083   0.606E-02    0.247E-01
RMM:   4    -0.230926865674E+04    0.35886E-04   -0.19832E-03  3652   0.139E-02    0.679E-02
RMM:   5    -0.230926860084E+04    0.55899E-04   -0.10710E-04  2955   0.681E-03    0.670E-02
RMM:   6    -0.230926856326E+04    0.37581E-04   -0.13635E-04  3248   0.740E-03    0.342E-02
RMM:   7    -0.230926855754E+04    0.57214E-05   -0.24357E-05  2843   0.537E-03
  60 F= -.23296957E+04 E0= -.23296957E+04  d E =-.146252E-02  mag=     6.0000
       N       E                     dE             d eps       ncg     rms          rms(c)
DAV:   1    -0.230921618350E+04    0.52380E-01   -0.23501E+00  4432   0.117E+00    0.576E-01
RMM:   2    -0.230927116458E+04   -0.54981E-01   -0.50777E-01  5740   0.235E-01    0.117E+00
RMM:   3    -0.230927007178E+04    0.10928E-02   -0.53633E-02  5239   0.105E-01    0.448E-01
RMM:   4    -0.230926974523E+04    0.32655E-03   -0.59557E-03  4845   0.237E-02    0.118E-01
RMM:   5    -0.230926957501E+04    0.17022E-03   -0.34174E-04  3723   0.110E-02    0.115E-01
RMM:   6    -0.230926945612E+04    0.11889E-03   -0.31660E-04  3997   0.104E-02    0.442E-02
RMM:   7    -0.230926944503E+04    0.11094E-04   -0.86650E-05  2923   0.774E-03    0.370E-02
RMM:   8    -0.230926943943E+04    0.56016E-05   -0.42692E-05  2826   0.490E-03
  61 F= -.23296967E+04 E0= -.23296967E+04  d E =-.244787E-02  mag=     6.0000
       N       E                     dE             d eps       ncg     rms          rms(c)
DAV:   1    -0.230925739062E+04    0.12054E-01   -0.59754E-01  4456   0.584E-01    0.303E-01
RMM:   2    -0.230927197214E+04   -0.14582E-01   -0.13170E-01  5849   0.120E-01    0.668E-01
RMM:   3    -0.230927106011E+04    0.91203E-03   -0.12050E-02  5034   0.526E-02    0.208E-01
RMM:   4    -0.230927105511E+04    0.49972E-05   -0.14726E-03  3543   0.126E-02    0.596E-02
RMM:   5    -0.230927101017E+04    0.44937E-04   -0.83625E-05  2921   0.665E-03    0.591E-02
RMM:   6    -0.230927097959E+04    0.30587E-04   -0.10999E-04  3196   0.723E-03    0.249E-02
RMM:   7    -0.230927097664E+04    0.29468E-05   -0.19074E-05  2839   0.529E-03
  62 F= -.23296983E+04 E0= -.23296983E+04  d E =-.155270E-02  mag=     6.0000
       N       E                     dE             d eps       ncg     rms          rms(c)
DAV:   1    -0.230924016899E+04    0.30811E-01   -0.13869E+00  4400   0.889E-01    0.461E-01
RMM:   2    -0.230927393875E+04   -0.33770E-01   -0.30592E-01  5745   0.182E-01    0.100E+00
RMM:   3    -0.230927202800E+04    0.19108E-02   -0.28851E-02  5191   0.795E-02    0.328E-01
RMM:   4    -0.230927196531E+04    0.62691E-04   -0.35230E-03  4600   0.189E-02    0.908E-02
RMM:   5    -0.230927186810E+04    0.97207E-04   -0.19281E-04  3371   0.955E-03    0.960E-02
RMM:   6    -0.230927179305E+04    0.75056E-04   -0.24263E-04  3921   0.967E-03    0.411E-02
RMM:   7    -0.230927178255E+04    0.10498E-04   -0.45404E-05  2857   0.680E-03    0.243E-02
RMM:   8    -0.230927178065E+04    0.18962E-05   -0.19738E-05  2827   0.380E-03
  63 F= -.23296991E+04 E0= -.23296991E+04  d E =-.234720E-02  mag=     6.0000
       N       E                     dE             d eps       ncg     rms          rms(c)
DAV:   1    -0.230925531505E+04    0.16467E-01   -0.79160E-01  4440   0.666E-01    0.352E-01
RMM:   2    -0.230927493464E+04   -0.19620E-01   -0.17500E-01  5772   0.136E-01    0.804E-01
RMM:   3    -0.230927342333E+04    0.15113E-02   -0.16195E-02  5108   0.577E-02    0.228E-01
RMM:   4    -0.230927344411E+04   -0.20788E-04   -0.19356E-03  3738   0.137E-02    0.665E-02
RMM:   5    -0.230927339237E+04    0.51743E-04   -0.10557E-04  2960   0.681E-03    0.713E-02
RMM:   6    -0.230927335202E+04    0.40354E-04   -0.13828E-04  3235   0.742E-03    0.303E-02
RMM:   7    -0.230927334730E+04    0.47158E-05   -0.25169E-05  2843   0.538E-03
  64 F= -.23297006E+04 E0= -.23297006E+04  d E =-.154929E-02  mag=     6.0000
       N       E                     dE             d eps       ncg     rms          rms(c)
DAV:   1    -0.230921974863E+04    0.53603E-01   -0.23883E+00  4432   0.116E+00    0.610E-01
RMM:   2    -0.230927877549E+04   -0.59027E-01   -0.52820E-01  5780   0.237E-01    0.138E+00
RMM:   3    -0.230927463495E+04    0.41405E-02   -0.51449E-02  5280   0.102E-01    0.411E-01
RMM:   4    -0.230927463043E+04    0.45140E-05   -0.61114E-03  4771   0.237E-02    0.117E-01
RMM:   5    -0.230927448357E+04    0.14687E-03   -0.31872E-04  3833   0.112E-02    0.132E-01
RMM:   6    -0.230927435604E+04    0.12753E-03   -0.38575E-04  4008   0.109E-02    0.568E-02
RMM:   7    -0.230927433503E+04    0.21008E-04   -0.84208E-05  2926   0.775E-03    0.332E-02
RMM:   8    -0.230927433072E+04    0.43147E-05   -0.35951E-05  2830   0.466E-03
  65 F= -.23297015E+04 E0= -.23297015E+04  d E =-.245176E-02  mag=     6.0000
       N       E                     dE             d eps       ncg     rms          rms(c)
DAV:   1    -0.230925824687E+04    0.16088E-01   -0.75178E-01  4528   0.624E-01    0.346E-01
RMM:   2    -0.230927779077E+04   -0.19544E-01   -0.17102E-01  5953   0.130E-01    0.846E-01
RMM:   3    -0.230927583834E+04    0.19524E-02   -0.15822E-02  5116   0.550E-02    0.202E-01
RMM:   4    -0.230927592699E+04   -0.88643E-04   -0.18999E-03  3461   0.132E-02    0.652E-02
RMM:   5    -0.230927588360E+04    0.43388E-04   -0.10104E-04  2936   0.636E-03    0.749E-02
RMM:   6    -0.230927584483E+04    0.38772E-04   -0.13910E-04  2972   0.694E-03    0.372E-02
RMM:   7    -0.230927583640E+04    0.84278E-05   -0.25684E-05  2844   0.496E-03
  66 F= -.23297030E+04 E0= -.23297030E+04  d E =-.146098E-02  mag=     6.0000
       N       E                     dE             d eps       ncg     rms          rms(c)
DAV:   1    -0.230916888796E+04    0.10696E+00   -0.45994E+00  4432   0.155E+00    0.847E-01
RMM:   2    -0.230928733165E+04   -0.11844E+00   -0.10506E+00  5865   0.323E-01    0.200E+00
RMM:   3    -0.230927777395E+04    0.95577E-02   -0.10526E-01  5407   0.134E-01    0.539E-01
RMM:   4    -0.230927805956E+04   -0.28561E-03   -0.12237E-02  4914   0.321E-02    0.163E-01
RMM:   5    -0.230927781277E+04    0.24679E-03   -0.60540E-04  4150   0.138E-02    0.195E-01
RMM:   6    -0.230927756302E+04    0.24975E-03   -0.73232E-04  4119   0.135E-02    0.884E-02
RMM:   7    -0.230927751076E+04    0.52268E-04   -0.17190E-04  3192   0.909E-03    0.454E-02
RMM:   8    -0.230927750365E+04    0.71091E-05   -0.69645E-05  2851   0.601E-03
  67 F= -.23297045E+04 E0= -.23297045E+04  d E =-.293917E-02  mag=     6.0000
       N       E                     dE             d eps       ncg     rms          rms(c)
DAV:   1    -0.230925056652E+04    0.26944E-01   -0.12567E+00  4448   0.818E-01    0.462E-01
RMM:   2    -0.230928368345E+04   -0.33117E-01   -0.28572E-01  5911   0.172E-01    0.115E+00
RMM:   3    -0.230927973094E+04    0.39525E-02   -0.26919E-02  5295   0.730E-02    0.257E-01
RMM:   4    -0.230927989503E+04   -0.16409E-03   -0.32359E-03  4353   0.174E-02    0.864E-02
RMM:   5    -0.230927981788E+04    0.77149E-04   -0.18125E-04  3237   0.869E-03    0.102E-01
RMM:   6    -0.230927974697E+04    0.70909E-04   -0.25270E-04  3696   0.928E-03    0.524E-02
RMM:   7    -0.230927972912E+04    0.17853E-04   -0.42637E-05  2862   0.615E-03    0.154E-02
RMM:   8    -0.230927972961E+04   -0.49121E-06   -0.13402E-05  2832   0.379E-03
  68 F= -.23297066E+04 E0= -.23297066E+04  d E =-.210371E-02  mag=     6.0000
       N       E                     dE             d eps       ncg     rms          rms(c)
DAV:   1    -0.230925439341E+04    0.25336E-01   -0.11257E+00  4440   0.774E-01    0.433E-01
RMM:   2    -0.230928372476E+04   -0.29331E-01   -0.25550E-01  5817   0.162E-01    0.106E+00
RMM:   3    -0.230928057992E+04    0.31448E-02   -0.24214E-02  5218   0.663E-02    0.250E-01
RMM:   4    -0.230928069461E+04   -0.11470E-03   -0.28618E-03  4269   0.163E-02    0.808E-02
RMM:   5    -0.230928062122E+04    0.73394E-04   -0.16052E-04  3155   0.803E-03    0.945E-02
RMM:   6    -0.230928055548E+04    0.65740E-04   -0.22392E-04  3562   0.880E-03    0.470E-02
RMM:   7    -0.230928054017E+04    0.15303E-04   -0.38694E-05  2856   0.596E-03    0.161E-02
RMM:   8    -0.230928053987E+04    0.30681E-06   -0.13476E-05  2829   0.373E-03
  69 F= -.23297072E+04 E0= -.23297072E+04  d E =-.277433E-02  mag=     6.0000
       N       E                     dE             d eps       ncg     rms          rms(c)
DAV:   1    -0.230924965484E+04    0.30885E-01   -0.14096E+00  4408   0.843E-01    0.490E-01
RMM:   2    -0.230928752166E+04   -0.37867E-01   -0.32654E-01  5851   0.179E-01    0.123E+00
RMM:   3    -0.230928299486E+04    0.45268E-02   -0.31208E-02  5216   0.749E-02    0.266E-01
RMM:   4    -0.230928324098E+04   -0.24612E-03   -0.39386E-03  4424   0.183E-02    0.942E-02
RMM:   5    -0.230928316441E+04    0.76566E-04   -0.21236E-04  3238   0.888E-03    0.120E-01
RMM:   6    -0.230928307562E+04    0.88790E-04   -0.28666E-04  3486   0.929E-03    0.600E-02
RMM:   7    -0.230928305055E+04    0.25072E-04   -0.55506E-05  2862   0.623E-03    0.161E-02
RMM:   8    -0.230928305141E+04   -0.85382E-06   -0.16313E-05  2831   0.418E-03
  70 F= -.23297096E+04 E0= -.23297096E+04  d E =-.233159E-02  mag=     6.0000
       N       E                     dE             d eps       ncg     rms          rms(c)
DAV:   1    -0.230921207719E+04    0.70973E-01   -0.30407E+00  4400   0.124E+00    0.722E-01
RMM:   2    -0.230929424388E+04   -0.82167E-01   -0.70840E-01  5825   0.264E-01    0.181E+00
RMM:   3    -0.230928428089E+04    0.99630E-02   -0.69947E-02  5310   0.109E-01    0.388E-01
RMM:   4    -0.230928481655E+04   -0.53565E-03   -0.86603E-03  4756   0.268E-02    0.139E-01
RMM:   5    -0.230928465473E+04    0.16182E-03   -0.47889E-04  3992   0.127E-02    0.181E-01
RMM:   6    -0.230928444992E+04    0.20480E-03   -0.56605E-04  4027   0.119E-02    0.818E-02
RMM:   7    -0.230928439853E+04    0.51398E-04   -0.12622E-04  3089   0.814E-03    0.266E-02
RMM:   8    -0.230928439824E+04    0.28408E-06   -0.37781E-05  2828   0.543E-03
  71 F= -.23297106E+04 E0= -.23297106E+04  d E =-.336914E-02  mag=     6.0000
       N       E                     dE             d eps       ncg     rms          rms(c)
DAV:   1    -0.230925904360E+04    0.25355E-01   -0.11317E+00  4480   0.739E-01    0.447E-01
RMM:   2    -0.230929062554E+04   -0.31582E-01   -0.26673E-01  6038   0.159E-01    0.118E+00
RMM:   3    -0.230928608535E+04    0.45402E-02   -0.25370E-02  5290   0.654E-02    0.220E-01
RMM:   4    -0.230928632679E+04   -0.24144E-03   -0.30661E-03  3750   0.160E-02    0.834E-02
RMM:   5    -0.230928626629E+04    0.60496E-04   -0.16257E-04  3062   0.749E-03    0.105E-01
RMM:   6    -0.230928619620E+04    0.70092E-04   -0.21634E-04  3046   0.803E-03    0.493E-02
RMM:   7    -0.230928618028E+04    0.15919E-04   -0.44782E-05  2851   0.556E-03    0.129E-02
RMM:   8    -0.230928618152E+04   -0.12419E-05   -0.11505E-05  2823   0.390E-03
  72 F= -.23297122E+04 E0= -.23297122E+04  d E =-.161685E-02  mag=     6.0000
       N       E                     dE             d eps       ncg     rms          rms(c)
DAV:   1    -0.230916459753E+04    0.12158E+00   -0.50932E+00  4432   0.157E+00    0.943E-01
RMM:   2    -0.230930662007E+04   -0.14202E+00   -0.12139E+00  5912   0.339E-01    0.242E+00
RMM:   3    -0.230928754027E+04    0.19080E-01   -0.12126E-01  5404   0.135E-01    0.477E-01
RMM:   4    -0.230928859910E+04   -0.10588E-02   -0.14784E-02  4875   0.334E-02    0.179E-01
RMM:   5    -0.230928837083E+04    0.22827E-03   -0.75030E-04  4157   0.142E-02    0.242E-01
RMM:   6    -0.230928800786E+04    0.36297E-03   -0.88786E-04  4123   0.137E-02    0.997E-02
RMM:   7    -0.230928792495E+04    0.82911E-04   -0.22819E-04  3396   0.933E-03    0.338E-02
RMM:   8    -0.230928792471E+04    0.23897E-06   -0.55154E-05  2844   0.627E-03
  73 F= -.23297136E+04 E0= -.23297136E+04  d E =-.294757E-02  mag=     6.0000
       N       E                     dE             d eps       ncg     rms          rms(c)
DAV:   1    -0.230924907811E+04    0.38847E-01   -0.17286E+00  4456   0.910E-01    0.565E-01
RMM:   2    -0.230929849871E+04   -0.49421E-01   -0.41395E-01  5993   0.199E-01    0.151E+00
RMM:   3    -0.230929068599E+04    0.78127E-02   -0.39365E-02  5411   0.819E-02    0.270E-01
RMM:   4    -0.230929104990E+04   -0.36391E-03   -0.47240E-03  4493   0.203E-02    0.107E-01
RMM:   5    -0.230929095214E+04    0.97760E-04   -0.26544E-04  3411   0.981E-03    0.137E-01
RMM:   6    -0.230929082927E+04    0.12287E-03   -0.34896E-04  3665   0.101E-02    0.596E-02
RMM:   7    -0.230929080368E+04    0.25595E-04   -0.71845E-05  2888   0.662E-03    0.166E-02
RMM:   8    -0.230929080434E+04   -0.66633E-06   -0.17053E-05  2826   0.454E-03
  74 F= -.23297163E+04 E0= -.23297163E+04  d E =-.269083E-02  mag=     6.0000
       N       E                     dE             d eps       ncg     rms          rms(c)
DAV:   1    -0.230924646902E+04    0.44335E-01   -0.18769E+00  4448   0.948E-01    0.583E-01
RMM:   2    -0.230929919632E+04   -0.52727E-01   -0.44610E-01  5867   0.208E-01    0.150E+00
RMM:   3    -0.230929179161E+04    0.74047E-02   -0.45553E-02  5313   0.851E-02    0.282E-01
RMM:   4    -0.230929216285E+04   -0.37124E-03   -0.51386E-03  4563   0.210E-02    0.114E-01
RMM:   5    -0.230929205556E+04    0.10728E-03   -0.30521E-04  3493   0.101E-02    0.150E-01
RMM:   6    -0.230929191326E+04    0.14230E-03   -0.37812E-04  3652   0.103E-02    0.659E-02
RMM:   7    -0.230929187823E+04    0.35028E-04   -0.86507E-05  2963   0.691E-03    0.188E-02
RMM:   8    -0.230929187807E+04    0.15923E-06   -0.21537E-05  2825   0.497E-03
  75 F= -.23297171E+04 E0= -.23297171E+04  d E =-.353812E-02  mag=     6.0000
       N       E                     dE             d eps       ncg     rms          rms(c)
DAV:   1    -0.230924138795E+04    0.50490E-01   -0.22068E+00  4432   0.103E+00    0.637E-01
RMM:   2    -0.230930403624E+04   -0.62648E-01   -0.52505E-01  5912   0.225E-01    0.167E+00
RMM:   3    -0.230929449595E+04    0.95403E-02   -0.54108E-02  5359   0.943E-02    0.296E-01
RMM:   4    -0.230929497078E+04   -0.47483E-03   -0.60773E-03  4567   0.226E-02    0.125E-01
RMM:   5    -0.230929485389E+04    0.11688E-03   -0.35510E-04  3620   0.108E-02    0.167E-01
RMM:   6    -0.230929467948E+04    0.17441E-03   -0.42821E-04  3706   0.106E-02    0.663E-02
RMM:   7    -0.230929464502E+04    0.34465E-04   -0.10894E-04  3007   0.726E-03    0.197E-02
RMM:   8    -0.230929464571E+04   -0.68513E-06   -0.22545E-05  2825   0.506E-03
  76 F= -.23297196E+04 E0= -.23297196E+04  d E =-.249630E-02  mag=     6.0000
       N       E                     dE             d eps       ncg     rms          rms(c)
DAV:   1    -0.230925311763E+04    0.41527E-01   -0.17585E+00  4480   0.923E-01    0.568E-01
RMM:   2    -0.230930307150E+04   -0.49954E-01   -0.41811E-01  5907   0.201E-01    0.150E+00
RMM:   3    -0.230929540394E+04    0.76676E-02   -0.42689E-02  5313   0.831E-02    0.264E-01
RMM:   4    -0.230929578379E+04   -0.37985E-03   -0.48221E-03  4471   0.202E-02    0.113E-01
RMM:   5    -0.230929568675E+04    0.97038E-04   -0.28062E-04  3401   0.974E-03    0.149E-01
RMM:   6    -0.230929554731E+04    0.13944E-03   -0.35135E-04  3495   0.989E-03    0.607E-02
RMM:   7    -0.230929551839E+04    0.28919E-04   -0.86377E-05  2945   0.680E-03    0.171E-02
RMM:   8    -0.230929551897E+04   -0.57695E-06   -0.17949E-05  2825   0.487E-03
  77 F= -.23297202E+04 E0= -.23297202E+04  d E =-.309995E-02  mag=     6.0000
       N       E                     dE             d eps       ncg     rms          rms(c)
DAV:   1    -0.230922802380E+04    0.67495E-01   -0.29217E+00  4400   0.119E+00    0.736E-01
RMM:   2    -0.230931177928E+04   -0.83755E-01   -0.69655E-01  5896   0.260E-01    0.197E+00
RMM:   3    -0.230929827398E+04    0.13505E-01   -0.73599E-02  5358   0.109E-01    0.329E-01
RMM:   4    -0.230929893096E+04   -0.65698E-03   -0.81092E-03  4678   0.260E-02    0.146E-01
RMM:   5    -0.230929879003E+04    0.14093E-03   -0.48976E-04  3931   0.126E-02    0.200E-01
RMM:   6    -0.230929854045E+04    0.24959E-03   -0.56715E-04  3892   0.116E-02    0.732E-02
RMM:   7    -0.230929849774E+04    0.42701E-04   -0.15888E-04  3197   0.821E-03    0.241E-02
RMM:   8    -0.230929849865E+04   -0.90903E-06   -0.29367E-05  2827   0.555E-03
  78 F= -.23297228E+04 E0= -.23297228E+04  d E =-.263734E-02  mag=     6.0000
       N       E                     dE             d eps       ncg     rms          rms(c)
DAV:   1    -0.230927415345E+04    0.24344E-01   -0.10336E+00  4464   0.710E-01    0.438E-01
RMM:   2    -0.230930381261E+04   -0.29659E-01   -0.24558E-01  6007   0.155E-01    0.118E+00
RMM:   3    -0.230929896665E+04    0.48460E-02   -0.24960E-02  5298   0.644E-02    0.196E-01
RMM:   4    -0.230929920666E+04   -0.24001E-03   -0.28339E-03  3859   0.157E-02    0.884E-02
RMM:   5    -0.230929915067E+04    0.55990E-04   -0.17077E-04  3118   0.778E-03    0.117E-01
RMM:   6    -0.230929906620E+04    0.84464E-04   -0.22129E-04  2999   0.819E-03    0.492E-02
RMM:   7    -0.230929904951E+04    0.16690E-04   -0.54847E-05  2870   0.585E-03    0.131E-02
RMM:   8    -0.230929905019E+04   -0.67343E-06   -0.10383E-05  2826   0.428E-03
  79 F= -.23297232E+04 E0= -.23297232E+04  d E =-.297207E-02  mag=     6.0000
       N       E                     dE             d eps       ncg     rms          rms(c)
DAV:   1    -0.230923128817E+04    0.67761E-01   -0.29355E+00  4432   0.120E+00    0.740E-01
RMM:   2    -0.230931547398E+04   -0.84186E-01   -0.69986E-01  5855   0.262E-01    0.197E+00
RMM:   3    -0.230930164465E+04    0.13829E-01   -0.73886E-02  5354   0.108E-01    0.327E-01
RMM:   4    -0.230930238401E+04   -0.73937E-03   -0.88088E-03  4664   0.262E-02    0.157E-01
RMM:   5    -0.230930223707E+04    0.14694E-03   -0.54026E-04  3961   0.127E-02    0.218E-01
RMM:   6    -0.230930193422E+04    0.30285E-03   -0.57635E-04  3917   0.117E-02    0.690E-02
RMM:   7    -0.230930188902E+04    0.45198E-04   -0.19599E-04  3384   0.870E-03    0.271E-02
RMM:   8    -0.230930188845E+04    0.57404E-06   -0.30907E-05  2826   0.592E-03
  80 F= -.23297257E+04 E0= -.23297257E+04  d E =-.253231E-02  mag=     6.0000
       N       E                     dE             d eps       ncg     rms          rms(c)
DAV:   1    -0.230928875774E+04    0.13131E-01   -0.56146E-01  4520   0.527E-01    0.325E-01
RMM:   2    -0.230930488705E+04   -0.16129E-01   -0.13300E-01  6035   0.115E-01    0.881E-01
RMM:   3    -0.230930217514E+04    0.27119E-02   -0.13525E-02  5098   0.476E-02    0.144E-01
RMM:   4    -0.230930230430E+04   -0.12916E-03   -0.15140E-03  3212   0.118E-02    0.668E-02
RMM:   5    -0.230930226974E+04    0.34563E-04   -0.95299E-05  2942   0.602E-03    0.863E-02
RMM:   6    -0.230930222196E+04    0.47781E-04   -0.13237E-04  2867   0.661E-03    0.399E-02
RMM:   7    -0.230930221078E+04    0.11174E-04   -0.30754E-05  2851   0.485E-03    0.102E-02
RMM:   8    -0.230930221068E+04    0.10032E-06   -0.64900E-06  2821   0.359E-03
  81 F= -.23297259E+04 E0= -.23297259E+04  d E =-.271548E-02  mag=     6.0000
       N       E                     dE             d eps       ncg     rms          rms(c)
DAV:   1    -0.230923374673E+04    0.68464E-01   -0.29454E+00  4408   0.120E+00    0.740E-01
RMM:   2    -0.230931900793E+04   -0.85261E-01   -0.70881E-01  5883   0.261E-01    0.199E+00
RMM:   3    -0.230930495046E+04    0.14057E-01   -0.75013E-02  5361   0.106E-01    0.323E-01
RMM:   4    -0.230930570892E+04   -0.75847E-03   -0.89041E-03  4612   0.260E-02    0.158E-01
RMM:   5    -0.230930556346E+04    0.14546E-03   -0.54198E-04  3858   0.124E-02    0.220E-01
RMM:   6    -0.230930525559E+04    0.30787E-03   -0.55516E-04  3777   0.114E-02    0.656E-02
RMM:   7    -0.230930521530E+04    0.40286E-04   -0.20979E-04  3290   0.851E-03    0.272E-02
RMM:   8    -0.230930521541E+04   -0.10690E-06   -0.30861E-05  2829   0.590E-03
  82 F= -.23297285E+04 E0= -.23297285E+04  d E =-.264568E-02  mag=     6.0000
       N       E                     dE             d eps       ncg     rms          rms(c)
DAV:   1    -0.230927685078E+04    0.28365E-01   -0.11940E+00  4448   0.764E-01    0.471E-01
RMM:   2    -0.230931136855E+04   -0.34518E-01   -0.28599E-01  5973   0.166E-01    0.128E+00
RMM:   3    -0.230930568403E+04    0.56845E-02   -0.29669E-02  5277   0.680E-02    0.207E-01
RMM:   4    -0.230930596929E+04   -0.28526E-03   -0.33336E-03  3983   0.166E-02    0.987E-02
RMM:   5    -0.230930589873E+04    0.70558E-04   -0.20492E-04  3168   0.814E-03    0.129E-01
RMM:   6    -0.230930579010E+04    0.10863E-03   -0.25152E-04  3043   0.846E-03    0.492E-02
RMM:   7    -0.230930577248E+04    0.17619E-04   -0.71218E-05  2893   0.615E-03    0.151E-02
RMM:   8    -0.230930577301E+04   -0.52797E-06   -0.11627E-05  2826   0.458E-03
  83 F= -.23297289E+04 E0= -.23297289E+04  d E =-.296676E-02  mag=     6.0000
       N       E                     dE             d eps       ncg     rms          rms(c)
DAV:   1    -0.230922410078E+04    0.81672E-01   -0.34598E+00  4408   0.131E+00    0.807E-01
RMM:   2    -0.230932584459E+04   -0.10174E+00   -0.84244E-01  5885   0.287E-01    0.219E+00
RMM:   3    -0.230930852200E+04    0.17323E-01   -0.89950E-02  5361   0.118E-01    0.347E-01
RMM:   4    -0.230930931967E+04   -0.79767E-03   -0.99605E-03  4745   0.283E-02    0.167E-01
RMM:   5    -0.230930911664E+04    0.20303E-03   -0.61752E-04  4140   0.136E-02    0.233E-01
RMM:   6    -0.230930876415E+04    0.35249E-03   -0.68166E-04  4014   0.125E-02    0.748E-02
RMM:   7    -0.230930871555E+04    0.48594E-04   -0.22392E-04  3423   0.916E-03    0.278E-02
RMM:   8    -0.230930871558E+04   -0.24622E-07   -0.33641E-05  2828   0.599E-03
  84 F= -.23297313E+04 E0= -.23297313E+04  d E =-.245823E-02  mag=     6.0000
       N       E                     dE             d eps       ncg     rms          rms(c)
DAV:   1    -0.230928565355E+04    0.23062E-01   -0.95496E-01  4472   0.688E-01    0.423E-01
RMM:   2    -0.230931347911E+04   -0.27826E-01   -0.23024E-01  6047   0.151E-01    0.115E+00
RMM:   3    -0.230930885780E+04    0.46213E-02   -0.23781E-02  5305   0.623E-02    0.185E-01
RMM:   4    -0.230930907496E+04   -0.21715E-03   -0.26489E-03  3724   0.151E-02    0.894E-02
RMM:   5    -0.230930901420E+04    0.60752E-04   -0.17026E-04  3114   0.766E-03    0.117E-01
RMM:   6    -0.230930892422E+04    0.89981E-04   -0.21565E-04  2988   0.807E-03    0.452E-02
RMM:   7    -0.230930890972E+04    0.14504E-04   -0.59536E-05  2870   0.593E-03    0.136E-02
RMM:   8    -0.230930890999E+04   -0.27323E-06   -0.97624E-06  2828   0.440E-03
  85 F= -.23297312E+04 E0= -.23297312E+04  d E =-.239085E-02  mag=     6.0000
       N       E                     dE             d eps       ncg     rms          rms(c)
DAV:   1    -0.230930378313E+04    0.51266E-02   -0.21109E-01  4504   0.324E-01    0.183E-01
RMM:   2    -0.230930931398E+04   -0.55308E-02   -0.49448E-02  6059   0.697E-02    0.413E-01
RMM:   3    -0.230930896190E+04    0.35208E-03   -0.47695E-03  3928   0.288E-02    0.115E-01
RMM:   4    -0.230930896367E+04   -0.17756E-05   -0.51204E-04  2905   0.772E-03    0.360E-02
RMM:   5    -0.230930894528E+04    0.18397E-04   -0.30275E-05  2850   0.390E-03    0.402E-02
RMM:   6    -0.230930893510E+04    0.10175E-04   -0.65172E-05  2838   0.468E-03    0.291E-02
RMM:   7    -0.230930893020E+04    0.48990E-05   -0.73760E-06  2823   0.322E-03
  86 F= -.23297314E+04 E0= -.23297314E+04  d E =-.253455E-02  mag=     6.0000
       N       E                     dE             d eps       ncg     rms          rms(c)
DAV:   1    -0.230922748722E+04    0.81448E-01   -0.34315E+00  4408   0.132E+00    0.799E-01
RMM:   2    -0.230932714348E+04   -0.99656E-01   -0.83393E-01  5886   0.287E-01    0.212E+00
RMM:   3    -0.230931154128E+04    0.15602E-01   -0.89780E-02  5367   0.117E-01    0.358E-01
RMM:   4    -0.230931220051E+04   -0.65923E-03   -0.94972E-03  4765   0.281E-02    0.165E-01
RMM:   5    -0.230931198217E+04    0.21834E-03   -0.62781E-04  4133   0.138E-02    0.227E-01
RMM:   6    -0.230931163866E+04    0.34351E-03   -0.69858E-04  4066   0.127E-02    0.778E-02
RMM:   7    -0.230931158078E+04    0.57877E-04   -0.22536E-04  3466   0.930E-03    0.266E-02
RMM:   8    -0.230931157900E+04    0.17803E-05   -0.35611E-05  2828   0.600E-03
  87 F= -.23297335E+04 E0= -.23297335E+04  d E =-.212875E-02  mag=     6.0000
       N       E                     dE             d eps       ncg     rms          rms(c)
DAV:   1    -0.230930725122E+04    0.43296E-02   -0.18217E-01  4600   0.303E-01    0.188E-01
RMM:   2    -0.230931265758E+04   -0.54064E-02   -0.44052E-02  6217   0.677E-02    0.526E-01
RMM:   3    -0.230931167219E+04    0.98539E-03   -0.44489E-03  3906   0.269E-02    0.814E-02
RMM:   4    -0.230931171252E+04   -0.40338E-04   -0.48626E-04  2892   0.756E-03    0.406E-02
RMM:   5    -0.230931170006E+04    0.12458E-04   -0.41609E-05  2850   0.410E-03    0.505E-02
RMM:   6    -0.230931168268E+04    0.17389E-04   -0.48429E-05  2824   0.423E-03    0.231E-02
RMM:   7    -0.230931167912E+04    0.35558E-05   -0.11754E-05  2837   0.317E-03
  88 F= -.23297335E+04 E0= -.23297335E+04  d E =-.210669E-02  mag=     6.0000
       N       E                     dE             d eps       ncg     rms          rms(c)
DAV:   1    -0.230922836728E+04    0.83315E-01   -0.34360E+00  4408   0.130E+00    0.804E-01
RMM:   2    -0.230933090577E+04   -0.10254E+00   -0.84920E-01  5939   0.284E-01    0.219E+00
RMM:   3    -0.230931382403E+04    0.17082E-01   -0.91118E-02  5416   0.115E-01    0.350E-01
RMM:   4    -0.230931466014E+04   -0.83612E-03   -0.10627E-02  4700   0.280E-02    0.178E-01
RMM:   5    -0.230931444149E+04    0.21865E-03   -0.66223E-04  4019   0.132E-02    0.245E-01
RMM:   6    -0.230931404684E+04    0.39465E-03   -0.65739E-04  3903   0.121E-02    0.704E-02
RMM:   7    -0.230931399309E+04    0.53754E-04   -0.27766E-04  3467   0.938E-03    0.304E-02
RMM:   8    -0.230931399234E+04    0.74439E-06   -0.35984E-05  2830   0.610E-03
  89 F= -.23297353E+04 E0= -.23297353E+04  d E =-.185112E-02  mag=     6.0000
       N       E                     dE             d eps       ncg     rms          rms(c)
DAV:   1    -0.230929371232E+04    0.20281E-01   -0.82510E-01  4456   0.636E-01    0.392E-01
RMM:   2    -0.230931793576E+04   -0.24223E-01   -0.20113E-01  6064   0.139E-01    0.107E+00
RMM:   3    -0.230931402294E+04    0.39128E-02   -0.20981E-02  5249   0.570E-02    0.175E-01
RMM:   4    -0.230931419618E+04   -0.17324E-03   -0.22348E-03  3460   0.139E-02    0.847E-02
RMM:   5    -0.230931414196E+04    0.54217E-04   -0.18866E-04  3028   0.745E-03    0.108E-01
RMM:   6    -0.230931406235E+04    0.79618E-04   -0.18991E-04  2910   0.742E-03    0.429E-02
[...]
RMM:   2    -0.230932859321E+04   -0.13082E-04   -0.10768E-04  2826   0.594E-03    0.280E-02
RMM:   3    -0.230932859081E+04    0.23920E-05   -0.12415E-05  2488   0.363E-03
 142 F= -.23297490E+04 E0= -.23297490E+04  d E =-.783991E-04  mag=     6.0000
       N       E                     dE             d eps       ncg     rms          rms(c)
DAV:   1    -0.230932816177E+04    0.43143E-03   -0.35650E-02  4404   0.188E-01    0.597E-02
RMM:   2    -0.230932864548E+04   -0.48371E-03   -0.48421E-03  5520   0.324E-02    0.760E-02
RMM:   3    -0.230932867571E+04   -0.30222E-04   -0.43435E-04  3048   0.141E-02    0.651E-02
RMM:   4    -0.230932865717E+04    0.18534E-04   -0.54638E-05  2845   0.395E-03    0.180E-02
RMM:   5    -0.230932865154E+04    0.56301E-05   -0.10069E-05  2829   0.262E-03
 143 F= -.23297491E+04 E0= -.23297491E+04  d E =-.766719E-04  mag=     6.0000
       N       E                     dE             d eps       ncg     rms          rms(c)
DAV:   1    -0.230932862206E+04    0.35109E-04   -0.16479E-03  5056   0.407E-02    0.154E-02
RMM:   2    -0.230932864806E+04   -0.25994E-04   -0.23206E-04  3121   0.843E-03    0.342E-02
RMM:   3    -0.230932864561E+04    0.24509E-05   -0.24367E-05  2715   0.481E-03
 144 F= -.23297491E+04 E0= -.23297491E+04  d E =-.743010E-04  mag=     6.0000
       N       E                     dE             d eps       ncg     rms          rms(c)
DAV:   1    -0.230932828526E+04    0.36279E-03   -0.32490E-02  4416   0.182E-01    0.584E-02
RMM:   2    -0.230932870555E+04   -0.42029E-03   -0.42237E-03  5518   0.316E-02    0.698E-02
RMM:   3    -0.230932873383E+04   -0.28286E-04   -0.37470E-04  3022   0.135E-02    0.659E-02
RMM:   4    -0.230932871370E+04    0.20130E-04   -0.48361E-05  2845   0.394E-03    0.178E-02
RMM:   5    -0.230932870830E+04    0.53998E-05   -0.10738E-05  2832   0.279E-03
 145 F= -.23297492E+04 E0= -.23297492E+04  d E =-.826129E-04  mag=     6.0000
       N       E                     dE             d eps       ncg     rms          rms(c)
DAV:   1    -0.230932868162E+04    0.32085E-04   -0.14337E-03  5168   0.384E-02    0.143E-02
RMM:   2    -0.230932870225E+04   -0.20631E-04   -0.19296E-04  3058   0.803E-03    0.271E-02
RMM:   3    -0.230932870161E+04    0.64331E-06   -0.20603E-05  2635   0.470E-03
 146 F= -.23297492E+04 E0= -.23297492E+04  d E =-.802828E-04  mag=     6.0000
       N       E                     dE             d eps       ncg     rms          rms(c)
DAV:   1    -0.230932836021E+04    0.34204E-03   -0.27997E-02  4416   0.169E-01    0.543E-02
RMM:   2    -0.230932871440E+04   -0.35419E-03   -0.35838E-03  5524   0.293E-02    0.611E-02
RMM:   3    -0.230932874188E+04   -0.27485E-04   -0.31748E-04  2969   0.128E-02    0.630E-02
RMM:   4    -0.230932872295E+04    0.18936E-04   -0.41020E-05  2843   0.369E-03    0.167E-02
RMM:   5    -0.230932871832E+04    0.46246E-05   -0.96456E-06  2830   0.257E-03
 147 F= -.23297492E+04 E0= -.23297492E+04  d E =-.633933E-04  mag=     6.0000
       N       E                     dE             d eps       ncg     rms          rms(c)
DAV:   1    -0.230932869044E+04    0.32507E-04   -0.11361E-03  5072   0.343E-02    0.124E-02
RMM:   2    -0.230932870611E+04   -0.15673E-04   -0.15181E-04  2955   0.726E-03    0.218E-02
RMM:   3    -0.230932870619E+04   -0.72119E-07   -0.16324E-05  2597   0.427E-03
 148 F= -.23297492E+04 E0= -.23297492E+04  d E =-.610557E-04  mag=     6.0000
       N       E                     dE             d eps       ncg     rms          rms(c)
DAV:   1    -0.230932838150E+04    0.32462E-03   -0.26627E-02  4408   0.164E-01    0.518E-02
RMM:   2    -0.230932872097E+04   -0.33948E-03   -0.34514E-03  5524   0.281E-02    0.556E-02
RMM:   3    -0.230932874908E+04   -0.28101E-04   -0.29738E-04  2927   0.123E-02    0.606E-02
RMM:   4    -0.230932873201E+04    0.17065E-04   -0.39101E-05  2842   0.353E-03    0.165E-02
RMM:   5    -0.230932872783E+04    0.41796E-05   -0.86760E-06  2820   0.241E-03
 149 F= -.23297493E+04 E0= -.23297493E+04  d E =-.676492E-04  mag=     6.0000
       N       E                     dE             d eps       ncg     rms          rms(c)
DAV:   1    -0.230932866678E+04    0.65233E-04   -0.32799E-03  4856   0.577E-02    0.189E-02
RMM:   2    -0.230932870771E+04   -0.40936E-04   -0.42860E-04  3605   0.112E-02    0.172E-02
RMM:   3    -0.230932871383E+04   -0.61121E-05   -0.44196E-05  2813   0.621E-03
 150 F= -.23297493E+04 E0= -.23297493E+04  d E =-.701938E-04  mag=     6.0000
       N       E                     dE             d eps       ncg     rms          rms(c)
DAV:   1    -0.230932844177E+04    0.26595E-03   -0.25026E-02  4404   0.161E-01    0.498E-02
RMM:   2    -0.230932873756E+04   -0.29579E-03   -0.30282E-03  5493   0.275E-02    0.477E-02
RMM:   3    -0.230932876775E+04   -0.30190E-04   -0.28579E-04  2908   0.116E-02    0.610E-02
RMM:   4    -0.230932874976E+04    0.17995E-04   -0.35903E-05  2840   0.346E-03    0.169E-02
RMM:   5    -0.230932874550E+04    0.42539E-05   -0.86060E-06  2826   0.246E-03
 151 F= -.23297493E+04 E0= -.23297493E+04  d E =-.618306E-04  mag=     6.0000
       N       E                     dE             d eps       ncg     rms          rms(c)
DAV:   1    -0.230932871661E+04    0.33147E-04   -0.15032E-03  4968   0.396E-02    0.131E-02
RMM:   2    -0.230932873451E+04   -0.17901E-04   -0.18525E-04  3038   0.792E-03    0.148E-02
RMM:   3    -0.230932873661E+04   -0.20960E-05   -0.20194E-05  2666   0.472E-03
 152 F= -.23297493E+04 E0= -.23297493E+04  d E =-.605196E-04  mag=     6.0000
       N       E                     dE             d eps       ncg     rms          rms(c)
DAV:   1    -0.230932847472E+04    0.25979E-03   -0.25324E-02  4404   0.162E-01    0.518E-02
RMM:   2    -0.230932876499E+04   -0.29027E-03   -0.29872E-03  5478   0.278E-02    0.485E-02
RMM:   3    -0.230932879342E+04   -0.28436E-04   -0.27893E-04  2937   0.123E-02    0.589E-02
RMM:   4    -0.230932877942E+04    0.14003E-04   -0.37199E-05  2838   0.356E-03    0.170E-02
RMM:   5    -0.230932877608E+04    0.33457E-05   -0.85156E-06  2817   0.243E-03
 153 F= -.23297494E+04 E0= -.23297494E+04  d E =-.577606E-04  mag=     6.0000
       N       E                     dE             d eps       ncg     rms          rms(c)
DAV:   1    -0.230932876377E+04    0.15653E-04   -0.54738E-04  5136   0.241E-02    0.142E-02
RMM:   2    -0.230932878069E+04   -0.16922E-04   -0.77355E-05  2803   0.526E-03    0.496E-02
RMM:   3    -0.230932876990E+04    0.10793E-04   -0.13134E-05  2490   0.317E-03    0.517E-03
RMM:   4    -0.230932876983E+04    0.70781E-07   -0.18110E-06  2210   0.124E-03
 154 F= -.23297494E+04 E0= -.23297494E+04  d E =-.543440E-04  mag=     6.0000
       N       E                     dE             d eps       ncg     rms          rms(c)
DAV:   1    -0.230932858051E+04    0.18939E-03   -0.18846E-02  4416   0.140E-01    0.448E-02
RMM:   2    -0.230932880431E+04   -0.22380E-03   -0.22509E-03  5220   0.236E-02    0.558E-02
RMM:   3    -0.230932881685E+04   -0.12543E-04   -0.19393E-04  2907   0.115E-02    0.504E-02
RMM:   4    -0.230932880532E+04    0.11534E-04   -0.26344E-05  2840   0.299E-03    0.127E-02
RMM:   5    -0.230932880254E+04    0.27728E-05   -0.60348E-06  2787   0.211E-03
 155 F= -.23297495E+04 E0= -.23297495E+04  d E =-.561226E-04  mag=     6.0000
       N       E                     dE             d eps       ncg     rms          rms(c)
DAV:   1    -0.230932878550E+04    0.19822E-04   -0.88896E-04  4960   0.304E-02    0.112E-02
RMM:   2    -0.230932879737E+04   -0.11872E-04   -0.10880E-04  2871   0.624E-03    0.222E-02
RMM:   3    -0.230932879664E+04    0.72675E-06   -0.12014E-05  2489   0.370E-03
 156 F= -.23297495E+04 E0= -.23297495E+04  d E =-.554878E-04  mag=     6.0000
       N       E                     dE             d eps       ncg     rms          rms(c)
DAV:   1    -0.230932862458E+04    0.17279E-03   -0.17476E-02  4416   0.135E-01    0.443E-02
RMM:   2    -0.230932881560E+04   -0.19102E-03   -0.19955E-03  5272   0.230E-02    0.356E-02
RMM:   3    -0.230932883471E+04   -0.19110E-04   -0.16702E-04  2870   0.110E-02    0.520E-02
RMM:   4    -0.230932882196E+04    0.12753E-04   -0.25156E-05  2836   0.301E-03    0.145E-02
RMM:   5    -0.230932881909E+04    0.28658E-05   -0.62474E-06  2806   0.218E-03
 157 F= -.23297495E+04 E0= -.23297495E+04  d E =-.515910E-04  mag=     6.0000
       N       E                     dE             d eps       ncg     rms          rms(c)
DAV:   1    -0.230932880930E+04    0.12659E-04   -0.37071E-04  5120   0.199E-02    0.786E-03
RMM:   2    -0.230932881433E+04   -0.50355E-05   -0.45367E-05  2609   0.435E-03
 158 F= -.23297495E+04 E0= -.23297495E+04  d E =-.513108E-04  mag=     6.0000
       N       E                     dE             d eps       ncg     rms          rms(c)
DAV:   1    -0.230932863564E+04    0.17366E-03   -0.16683E-02  4424   0.132E-01    0.408E-02
RMM:   2    -0.230932881559E+04   -0.17996E-03   -0.18982E-03  5494   0.236E-02    0.238E-02
RMM:   3    -0.230932883037E+04   -0.14780E-04   -0.17871E-04  2889   0.110E-02    0.264E-02
RMM:   4    -0.230932882898E+04    0.13927E-05   -0.21249E-05  2838   0.290E-03
 159 F= -.23297496E+04 E0= -.23297496E+04  d E =-.459482E-04  mag=     6.0000
       N       E                     dE             d eps       ncg     rms          rms(c)
DAV:   1    -0.230932882560E+04    0.47717E-05   -0.49415E-06  3736   0.327E-03    0.100E-02
RMM:   2    -0.230932883211E+04   -0.65090E-05   -0.89270E-06  2454   0.184E-03
 160 F= -.23297496E+04 E0= -.23297496E+04  d E =-.493675E-04  mag=     6.0000
       N       E                     dE             d eps       ncg     rms          rms(c)
DAV:   1    -0.230932871422E+04    0.11138E-03   -0.13916E-02  4408   0.123E-01    0.411E-02
RMM:   2    -0.230932884050E+04   -0.12629E-03   -0.13699E-03  5217   0.211E-02    0.201E-02
RMM:   3    -0.230932884791E+04   -0.74084E-05   -0.13023E-04  2889   0.106E-02    0.123E-02
RMM:   4    -0.230932884864E+04   -0.72605E-06   -0.17316E-05  2835   0.284E-03
 161 F= -.23297496E+04 E0= -.23297496E+04  d E =-.339572E-04  mag=     6.0000
       N       E                     dE             d eps       ncg     rms          rms(c)
DAV:   1    -0.230932884685E+04    0.10676E-05   -0.33352E-05  4712   0.659E-03    0.742E-03
RMM:   2    -0.230932884744E+04   -0.59023E-06   -0.52308E-06  2388   0.204E-03
 162 F= -.23297496E+04 E0= -.23297496E+04  d E =-.319964E-04  mag=     6.0000
       N       E                     dE             d eps       ncg     rms          rms(c)
DAV:   1    -0.230932876124E+04    0.85609E-04   -0.93253E-03  4416   0.992E-02    0.321E-02
RMM:   2    -0.230932886003E+04   -0.98797E-04   -0.98903E-04  5125   0.169E-02    0.410E-02
RMM:   3    -0.230932886589E+04   -0.58563E-05   -0.93232E-05  2831   0.898E-03
 163 F= -.23297496E+04 E0= -.23297496E+04  d E =-.356069E-04  mag=     6.0000
       N       E                     dE             d eps       ncg     rms          rms(c)
DAV:   1    -0.230932885828E+04    0.17542E-05   -0.13315E-05  3928   0.435E-03    0.922E-03
RMM:   2    -0.230932885770E+04    0.57620E-06   -0.41161E-06  2433   0.220E-03
 164 F= -.23297496E+04 E0= -.23297496E+04  d E =-.277876E-04  mag=     6.0000
       N       E                     dE             d eps       ncg     rms          rms(c)
DAV:   1    -0.230932878460E+04    0.73674E-04   -0.97010E-03  4416   0.102E-01    0.343E-02
RMM:   2    -0.230932887612E+04   -0.91512E-04   -0.97027E-04  5094   0.176E-02    0.273E-02
RMM:   3    -0.230932888987E+04   -0.13755E-04   -0.10105E-04  2827   0.930E-03    0.483E-02
RMM:   4    -0.230932887818E+04    0.11695E-04   -0.13564E-05  2815   0.239E-03    0.101E-02
RMM:   5    -0.230932887670E+04    0.14781E-05   -0.42000E-06  2764   0.180E-03
 165 F= -.23297496E+04 E0= -.23297496E+04  d E =-.300194E-04  mag=     6.0000
       N       E                     dE             d eps       ncg     rms          rms(c)
DAV:   1    -0.230932887623E+04    0.19448E-05   -0.15443E-06  3448   0.230E-03    0.536E-03
RMM:   2    -0.230932887822E+04   -0.19853E-05   -0.31852E-06  2013   0.125E-03
 166 F= -.23297496E+04 E0= -.23297496E+04  d E =-.316044E-04  mag=     6.0000
       N       E                     dE             d eps       ncg     rms          rms(c)
DAV:   1    -0.230932880943E+04    0.66805E-04   -0.69763E-03  4416   0.851E-02    0.270E-02
RMM:   2    -0.230932888192E+04   -0.72495E-04   -0.76298E-04  5009   0.146E-02    0.211E-02
RMM:   3    -0.230932888975E+04   -0.78273E-05   -0.71460E-05  2824   0.717E-03
 167 F= -.23297497E+04 E0= -.23297497E+04  d E =-.216601E-04  mag=     6.0000
       N       E                     dE             d eps       ncg     rms          rms(c)
DAV:   1    -0.230932888667E+04   -0.47465E-05   -0.16841E-05  3952   0.486E-03    0.915E-03
RMM:   2    -0.230932888915E+04   -0.24769E-05   -0.74249E-06  2392   0.240E-03
 168 F= -.23297497E+04 E0= -.23297497E+04  d E =-.207293E-04  mag=     6.0000
       N       E                     dE             d eps       ncg     rms          rms(c)
DAV:   1    -0.230932883155E+04    0.55123E-04   -0.72082E-03  4408   0.875E-02    0.287E-02
RMM:   2    -0.230932890431E+04   -0.72763E-04   -0.75317E-04  4873   0.156E-02    0.277E-02
RMM:   3    -0.230932891154E+04   -0.72324E-05   -0.73981E-05  2831   0.791E-03
 169 F= -.23297497E+04 E0= -.23297497E+04  d E =-.356125E-04  mag=     6.0000
       N       E                     dE             d eps       ncg     rms          rms(c)
DAV:   1    -0.230932890302E+04    0.12887E-05   -0.18299E-04  5136   0.142E-02    0.991E-03
RMM:   2    -0.230932890431E+04   -0.12860E-05   -0.21204E-05  2521   0.321E-03
 170 F= -.23297497E+04 E0= -.23297497E+04  d E =-.304914E-04  mag=     6.0000
       N       E                     dE             d eps       ncg     rms          rms(c)
DAV:   1    -0.230932884989E+04    0.53133E-04   -0.57093E-03  4408   0.771E-02    0.250E-02
RMM:   2    -0.230932890805E+04   -0.58166E-04   -0.61667E-04  4619   0.142E-02    0.157E-02
RMM:   3    -0.230932891409E+04   -0.60351E-05   -0.60562E-05  2814   0.747E-03
 171 F= -.23297497E+04 E0= -.23297497E+04  d E =-.275267E-04  mag=     6.0000
       N       E                     dE             d eps       ncg     rms          rms(c)
DAV:   1    -0.230932890664E+04    0.14159E-05   -0.21573E-04  5160   0.153E-02    0.121E-02
RMM:   2    -0.230932891289E+04   -0.62575E-05   -0.30439E-05  2585   0.355E-03
 172 F= -.23297497E+04 E0= -.23297497E+04  d E =-.297925E-04  mag=     6.0000
       N       E                     dE             d eps       ncg     rms          rms(c)
DAV:   1    -0.230932886195E+04    0.44686E-04   -0.51900E-03  4408   0.735E-02    0.244E-02
RMM:   2    -0.230932891563E+04   -0.53676E-04   -0.54912E-04  4394   0.137E-02    0.263E-02
RMM:   3    -0.230932892092E+04   -0.52967E-05   -0.57714E-05  2825   0.733E-03
 173 F= -.23297498E+04 E0= -.23297498E+04  d E =-.288477E-04  mag=     6.0000
       N       E                     dE             d eps       ncg     rms          rms(c)
DAV:   1    -0.230932889870E+04    0.16924E-04   -0.10393E-03  4824   0.330E-02    0.143E-02
RMM:   2    -0.230932890891E+04   -0.10211E-04   -0.11304E-04  2934   0.654E-03    0.160E-02
RMM:   3    -0.230932890994E+04   -0.10242E-05   -0.11817E-05  2672   0.350E-03
 174 F= -.23297498E+04 E0= -.23297498E+04  d E =-.272866E-04  mag=     6.0000
       N       E                     dE             d eps       ncg     rms          rms(c)
DAV:   1    -0.230932887296E+04    0.35959E-04   -0.44141E-03  4416   0.665E-02    0.224E-02
RMM:   2    -0.230932892009E+04   -0.47131E-04   -0.48148E-04  4139   0.119E-02    0.244E-02
RMM:   3    -0.230932892541E+04   -0.53259E-05   -0.52049E-05  2810   0.667E-03
 175 F= -.23297498E+04 E0= -.23297498E+04  d E =-.276041E-04  mag=     6.0000
       N       E                     dE             d eps       ncg     rms          rms(c)
DAV:   1    -0.230932891054E+04    0.95456E-05   -0.74945E-04  4864   0.275E-02    0.120E-02
RMM:   2    -0.230932891808E+04   -0.75422E-05   -0.86339E-05  2813   0.556E-03
 176 F= -.23297498E+04 E0= -.23297498E+04  d E =-.252861E-04  mag=     6.0000
       N       E                     dE             d eps       ncg     rms          rms(c)
DAV:   1    -0.230932889054E+04    0.20003E-04   -0.41230E-03  4400   0.650E-02    0.239E-02
RMM:   2    -0.230932894155E+04   -0.51010E-04   -0.45536E-04  4008   0.132E-02    0.464E-02
RMM:   3    -0.230932893690E+04    0.46436E-05   -0.44506E-05  2818   0.673E-03
 177 F= -.23297498E+04 E0= -.23297498E+04  d E =-.316870E-04  mag=     6.0000
       N       E                     dE             d eps       ncg     rms          rms(c)
DAV:   1    -0.230932892546E+04    0.16084E-04   -0.70701E-04  4832   0.269E-02    0.120E-02
RMM:   2    -0.230932893155E+04   -0.60912E-05   -0.74321E-05  2816   0.571E-03
 178 F= -.23297498E+04 E0= -.23297498E+04  d E =-.317148E-04  mag=     6.0000
       N       E                     dE             d eps       ncg     rms          rms(c)
DAV:   1    -0.230932892587E+04   -0.40518E-06   -0.22630E-03  4400   0.494E-02    0.201E-02
RMM:   2    -0.230932895220E+04   -0.26333E-04   -0.21938E-04  3451   0.108E-02    0.400E-02
RMM:   3    -0.230932894737E+04    0.48266E-05   -0.26129E-05  2756   0.598E-03
 179 F= -.23297498E+04 E0= -.23297498E+04  d E =-.260084E-04  mag=     6.0000
       N       E                     dE             d eps       ncg     rms          rms(c)
DAV:   1    -0.230932893787E+04    0.14328E-04   -0.76768E-04  4680   0.287E-02    0.126E-02
RMM:   2    -0.230932894394E+04   -0.60670E-05   -0.68799E-05  2869   0.630E-03
 180 F= -.23297498E+04 E0= -.23297498E+04  d E =-.285491E-04  mag=     6.0000
       N       E                     dE             d eps       ncg     rms          rms(c)
DAV:   1    -0.230932893154E+04    0.63308E-05   -0.22856E-03  4400   0.487E-02    0.227E-02
RMM:   2    -0.230932896954E+04   -0.37995E-04   -0.24931E-04  3357   0.108E-02    0.623E-02
RMM:   3    -0.230932895369E+04    0.15851E-04   -0.35297E-05  2800   0.592E-03    0.122E-02
RMM:   4    -0.230932895261E+04    0.10780E-05   -0.52837E-06  2630   0.239E-03
 181 F= -.23297499E+04 E0= -.23297499E+04  d E =-.161032E-04  mag=     6.0000
       N       E                     dE             d eps       ncg     rms          rms(c)
DAV:   1    -0.230932894494E+04    0.87511E-05   -0.52513E-04  4688   0.233E-02    0.102E-02
RMM:   2    -0.230932895329E+04   -0.83503E-05   -0.53410E-05  2773   0.513E-03
 182 F= -.23297499E+04 E0= -.23297499E+04  d E =-.204426E-04  mag=     6.0000
       N       E                     dE             d eps       ncg     rms          rms(c)
DAV:   1    -0.230932894154E+04    0.33942E-05   -0.13257E-03  4304   0.363E-02    0.127E-02
RMM:   2    -0.230932895463E+04   -0.13094E-04   -0.14180E-04  3042   0.816E-03    0.748E-03
RMM:   3    -0.230932895593E+04   -0.12965E-05   -0.17094E-05  2414   0.465E-03
 183 F= -.23297499E+04 E0= -.23297499E+04  d E =-.146884E-04  mag=     6.0000
       N       E                     dE             d eps       ncg     rms          rms(c)
DAV:   1    -0.230932892531E+04    0.29326E-04   -0.22947E-03  4400   0.474E-02    0.178E-02
RMM:   2    -0.230932894796E+04   -0.22649E-04   -0.23545E-04  3251   0.948E-03    0.201E-02
RMM:   3    -0.230932895092E+04   -0.29648E-05   -0.28666E-05  2782   0.549E-03
 184 F= -.23297499E+04 E0= -.23297499E+04  d E =-.256199E-04  mag=     6.0000
       N       E                     dE             d eps       ncg     rms          rms(c)
DAV:   1    -0.230932894100E+04    0.69544E-05   -0.13634E-03  4392   0.375E-02    0.148E-02
RMM:   2    -0.230932895275E+04   -0.11750E-04   -0.12769E-04  3079   0.787E-03    0.128E-02
RMM:   3    -0.230932895494E+04   -0.21826E-05   -0.16343E-05  2630   0.449E-03
 185 F= -.23297499E+04 E0= -.23297499E+04  d E =-.191395E-04  mag=     6.0000
