       N       E                     dE             d eps       ncg     rms          rms(c)
DAV:   1     0.127238270692E+05    0.12724E+05   -0.84708E+05  4640   0.143E+03
DAV:   2    -0.121863975478E+04   -0.13942E+05   -0.13359E+05  5040   0.325E+02
DAV:   3    -0.250119523900E+04   -0.12826E+04   -0.12711E+04  5520   0.107E+02
DAV:   4    -0.253244281458E+04   -0.31248E+02   -0.31095E+02  5840   0.213E+01
DAV:   5    -0.253327502662E+04   -0.83221E+00   -0.83063E+00  5840   0.290E+00    0.170E+02
RMM:   6    -0.149763358621E+04    0.10356E+04   -0.19456E+03  4506   0.380E+01    0.733E+01
RMM:   7    -0.168217929754E+04   -0.18455E+03   -0.29551E+02  5296   0.147E+01    0.573E+01
RMM:   8    -0.171499207859E+04   -0.32813E+02   -0.86951E+01  5366   0.829E+00    0.454E+01
RMM:   9    -0.177977881302E+04   -0.64787E+02   -0.59620E+01  5172   0.712E+00    0.388E+01
RMM:  10    -0.187870360335E+04   -0.98925E+02   -0.58080E+01  5262   0.743E+00    0.359E+01
RMM:  11    -0.196245159491E+04   -0.83748E+02   -0.43377E+01  5291   0.589E+00    0.262E+01
RMM:  12    -0.203958121375E+04   -0.77130E+02   -0.31848E+01  5086   0.472E+00    0.225E+01
RMM:  13    -0.209932068604E+04   -0.59739E+02   -0.23995E+01  5096   0.384E+00    0.166E+01
RMM:  14    -0.217680317601E+04   -0.77482E+02   -0.40253E+01  4658   0.481E+00    0.113E+01
RMM:  15    -0.227281372660E+04   -0.96011E+02   -0.86524E+01  4675   0.644E+00    0.101E+01
RMM:  16    -0.230786583412E+04   -0.35052E+02   -0.30977E+01  4634   0.437E+00    0.707E+00
RMM:  17    -0.232164856180E+04   -0.13783E+02   -0.15027E+01  4723   0.258E+00    0.387E+00
RMM:  18    -0.232442285323E+04   -0.27743E+01   -0.23784E+00  5077   0.131E+00    0.452E+00
RMM:  19    -0.232461981339E+04   -0.19696E+00   -0.34751E-01  6030   0.379E-01    0.442E+00
RMM:  20    -0.232467161130E+04   -0.51798E-01   -0.25242E-02  6010   0.935E-02    0.432E+00
RMM:  21    -0.232614755473E+04   -0.14759E+01   -0.77812E-01  4545   0.563E-01    0.211E+00
RMM:  22    -0.232657620202E+04   -0.42865E+00   -0.12621E-01  4633   0.317E-01    0.129E+00
RMM:  23    -0.232677613662E+04   -0.19993E+00   -0.11993E-01  4716   0.243E-01    0.748E-01
RMM:  24    -0.232682080036E+04   -0.44664E-01   -0.31445E-02  4994   0.170E-01    0.414E-01
RMM:  25    -0.232685466153E+04   -0.33861E-01   -0.15496E-02  4585   0.947E-02    0.244E-01
RMM:  26    -0.232687619350E+04   -0.21532E-01   -0.63672E-03  4659   0.694E-02    0.155E-01
RMM:  27    -0.232689250135E+04   -0.16308E-01   -0.42721E-03  4656   0.513E-02    0.127E-01
RMM:  28    -0.232690243966E+04   -0.99383E-02   -0.24606E-03  4580   0.391E-02    0.959E-02
RMM:  29    -0.232691009439E+04   -0.76547E-02   -0.19242E-03  4558   0.305E-02    0.542E-02
RMM:  30    -0.232691380708E+04   -0.37127E-02   -0.86206E-04  4305   0.254E-02    0.403E-02
RMM:  31    -0.232691559803E+04   -0.17910E-02   -0.44217E-04  4159   0.139E-02    0.258E-02
RMM:  32    -0.232691649907E+04   -0.90104E-03   -0.26971E-04  4089   0.131E-02    0.173E-02
RMM:  33    -0.232691670705E+04   -0.20798E-03   -0.60356E-05  3587   0.661E-03    0.545E-03
RMM:  34    -0.232691681261E+04   -0.10556E-03   -0.19620E-05  3076   0.429E-03    0.349E-03
RMM:  35    -0.232691687114E+04   -0.58530E-04   -0.11618E-05  2942   0.315E-03    0.211E-03
RMM:  36    -0.232691689851E+04   -0.27369E-04   -0.71512E-06  2694   0.265E-03    0.155E-03
RMM:  37    -0.232691690440E+04   -0.58875E-05   -0.33231E-06  2544   0.216E-03
   1 F= -.23483604E+04 E0= -.23483597E+04  d E =-.140827E-02  mag=     3.0000
       N       E                     dE             d eps       ncg     rms          rms(c)
DAV:   1    -0.232691296475E+04    0.39338E-02   -0.19415E+00  4480   0.555E-01    0.275E-01
RMM:   2    -0.232691298747E+04   -0.22719E-04   -0.95424E-03  3945   0.348E-02    0.186E-01
RMM:   3    -0.232691338796E+04   -0.40049E-03   -0.21272E-03  4843   0.208E-02    0.296E-01
RMM:   4    -0.232691285362E+04    0.53433E-03   -0.11771E-03  4185   0.135E-02    0.179E-01
RMM:   5    -0.232691269671E+04    0.15691E-03   -0.43407E-04  3214   0.927E-03    0.109E-01
RMM:   6    -0.232691258555E+04    0.11116E-03   -0.10111E-04  2939   0.596E-03    0.364E-02
RMM:   7    -0.232691260007E+04   -0.14519E-04   -0.46006E-05  2768   0.346E-03    0.418E-02
RMM:   8    -0.232691258741E+04    0.12667E-04   -0.24222E-05  2809   0.312E-03    0.136E-02
RMM:   9    -0.232691259137E+04   -0.39635E-05   -0.70219E-06  2627   0.179E-03
   2 F= -.23483553E+04 E0= -.23483550E+04  d E =-.670532E-03  mag=     3.0000
       N       E                     dE             d eps       ncg     rms          rms(c)
DAV:   1    -0.232691615554E+04   -0.35681E-02   -0.76920E+00  4480   0.106E+00    0.567E-01
RMM:   2    -0.232691568836E+04    0.46718E-03   -0.34238E-02  4219   0.744E-02    0.378E-01
RMM:   3    -0.232691750521E+04   -0.18168E-02   -0.87850E-03  4850   0.493E-02    0.595E-01
RMM:   4    -0.232691555532E+04    0.19499E-02   -0.49155E-03  5409   0.281E-02    0.393E-01
RMM:   5    -0.232691467991E+04    0.87542E-03   -0.18551E-03  4755   0.194E-02    0.210E-01
RMM:   6    -0.232691424539E+04    0.43452E-03   -0.41486E-04  3608   0.110E-02    0.678E-02
RMM:   7    -0.232691432875E+04   -0.83365E-04   -0.18908E-04  3140   0.675E-03    0.903E-02
RMM:   8    -0.232691425448E+04    0.74277E-04   -0.93945E-05  3065   0.569E-03    0.257E-02
RMM:   9    -0.232691427184E+04   -0.17360E-04   -0.27493E-05  2932   0.313E-03    0.232E-02
RMM:  10    -0.232691428846E+04   -0.16625E-04   -0.14636E-05  2841   0.255E-03    0.156E-02
RMM:  11    -0.232691430511E+04   -0.16646E-04   -0.18195E-05  2902   0.262E-03    0.869E-03
RMM:  12    -0.232691431039E+04   -0.52849E-05   -0.71879E-06  2716   0.215E-03
   3 F= -.23483585E+04 E0= -.23483572E+04  d E =-.253368E-02  mag=     2.9998
       N       E                     dE             d eps       ncg     rms          rms(c)
DAV:   1    -0.232690644578E+04    0.78593E-02   -0.38135E+00  4480   0.747E-01    0.347E-01
RMM:   2    -0.232690733044E+04   -0.88467E-03   -0.11361E-02  4164   0.443E-02    0.386E-01
RMM:   3    -0.232690755194E+04   -0.22149E-03   -0.29402E-03  4800   0.259E-02    0.417E-01
RMM:   4    -0.232690607006E+04    0.14819E-02   -0.14532E-03  4198   0.162E-02    0.113E-01
RMM:   5    -0.232690609960E+04   -0.29539E-04   -0.49158E-04  3427   0.119E-02    0.102E-01
RMM:   6    -0.232690597212E+04    0.12747E-03   -0.10752E-04  2949   0.662E-03    0.286E-02
RMM:   7    -0.232690598860E+04   -0.16480E-04   -0.47489E-05  2795   0.349E-03    0.398E-02
RMM:   8    -0.232690596976E+04    0.18848E-04   -0.19775E-05  2701   0.281E-03    0.103E-02
RMM:   9    -0.232690597073E+04   -0.97604E-06   -0.43256E-06  2503   0.151E-03
   4 F= -.23483499E+04 E0= -.23483486E+04  d E =-.245446E-02  mag=     2.9998
       N       E                     dE             d eps       ncg     rms          rms(c)
DAV:   1    -0.232692060711E+04   -0.14637E-01   -0.78343E+00  4480   0.119E+00    0.682E-01
RMM:   2    -0.232692220776E+04   -0.16006E-02   -0.40554E-02  4570   0.861E-02    0.822E-01
RMM:   3    -0.232692224323E+04   -0.35479E-04   -0.12944E-02  5355   0.550E-02    0.806E-01
RMM:   4    -0.232691682981E+04    0.54134E-02   -0.55224E-03  5590   0.316E-02    0.282E-01
RMM:   5    -0.232691687394E+04   -0.44133E-04   -0.24036E-03  4837   0.207E-02    0.265E-01
RMM:   6    -0.232691609443E+04    0.77951E-03   -0.72344E-04  3799   0.120E-02    0.629E-02
RMM:   7    -0.232691615307E+04   -0.58640E-04   -0.19061E-04  3100   0.698E-03    0.767E-02
RMM:   8    -0.232691609214E+04    0.60934E-04   -0.10088E-04  3087   0.580E-03    0.256E-02
RMM:   9    -0.232691610174E+04   -0.96004E-05   -0.14843E-05  2870   0.293E-03
   5 F= -.23483591E+04 E0= -.23483587E+04  d E =-.682413E-03  mag=     2.9999
       N       E                     dE             d eps       ncg     rms          rms(c)
DAV:   1    -0.232689628827E+04    0.19804E-01   -0.43836E+00  4640   0.915E-01    0.583E-01
RMM:   2    -0.232689710816E+04   -0.81989E-03   -0.39911E-02  4503   0.898E-02    0.775E-01
RMM:   3    -0.232689484751E+04    0.22606E-02   -0.93786E-03  5399   0.531E-02    0.608E-01
RMM:   4    -0.232689217639E+04    0.26711E-02   -0.52543E-03  5334   0.317E-02    0.322E-01
RMM:   5    -0.232689125779E+04    0.91860E-03   -0.22668E-03  5019   0.230E-02    0.191E-01
RMM:   6    -0.232689081703E+04    0.44076E-03   -0.46453E-04  3535   0.105E-02    0.696E-02
RMM:   7    -0.232689083638E+04   -0.19351E-04   -0.22108E-04  3191   0.786E-03    0.724E-02
RMM:   8    -0.232689076794E+04    0.68436E-04   -0.61438E-05  3002   0.509E-03    0.192E-02
RMM:   9    -0.232689076823E+04   -0.28822E-06   -0.14935E-05  2898   0.286E-03
   6 F= -.23483336E+04 E0= -.23483326E+04  d E =-.204405E-02  mag=     2.9999
       N       E                     dE             d eps       ncg     rms          rms(c)
DAV:   1    -0.232690886840E+04   -0.18100E-01   -0.84656E+00  4480   0.136E+00    0.851E-01
RMM:   2    -0.232690529967E+04    0.35687E-02   -0.76251E-02  4604   0.115E-01    0.781E-01
RMM:   3    -0.232690984951E+04   -0.45498E-02   -0.19440E-02  6012   0.661E-02    0.114E+00
RMM:   4    -0.232690132401E+04    0.85255E-02   -0.13332E-02  5739   0.456E-02    0.594E-01
RMM:   5    -0.232689740338E+04    0.39206E-02   -0.53710E-03  5342   0.333E-02    0.226E-01
RMM:   6    -0.232689700373E+04    0.39965E-03   -0.10211E-03  4021   0.138E-02    0.148E-01
RMM:   7    -0.232689686241E+04    0.14132E-03   -0.48248E-04  3450   0.101E-02    0.793E-02
RMM:   8    -0.232689679741E+04    0.64997E-04   -0.10590E-04  3235   0.615E-03    0.332E-02
RMM:   9    -0.232689680600E+04   -0.85832E-05   -0.40509E-05  3041   0.456E-03
   7 F= -.23483407E+04 E0= -.23483402E+04  d E =-.101462E-02  mag=     2.9999
       N       E                     dE             d eps       ncg     rms          rms(c)
DAV:   1    -0.232691214623E+04   -0.15349E-01   -0.45533E+00  4480   0.906E-01    0.528E-01
RMM:   2    -0.232690985770E+04    0.22885E-02   -0.36862E-02  4275   0.735E-02    0.444E-01
RMM:   3    -0.232691266606E+04   -0.28084E-02   -0.79800E-03  5917   0.405E-02    0.767E-01
RMM:   4    -0.232690764318E+04    0.50229E-02   -0.60158E-03  5216   0.303E-02    0.297E-01
RMM:   5    -0.232690687624E+04    0.76694E-03   -0.21137E-03  4628   0.224E-02    0.172E-01
RMM:   6    -0.232690651137E+04    0.36487E-03   -0.39742E-04  3335   0.902E-03    0.640E-02
RMM:   7    -0.232690650821E+04    0.31554E-05   -0.16131E-04  3058   0.658E-03    0.598E-02
RMM:   8    -0.232690646442E+04    0.43795E-04   -0.57783E-05  3059   0.429E-03    0.154E-02
RMM:   9    -0.232690646528E+04   -0.86139E-06   -0.11750E-05  2813   0.292E-03
   8 F= -.23483494E+04 E0= -.23483486E+04  d E =-.157475E-02  mag=     2.9999
       N       E                     dE             d eps       ncg     rms          rms(c)
DAV:   1    -0.232692034413E+04   -0.13880E-01   -0.84565E+00  4480   0.115E+00    0.516E-01
RMM:   2    -0.232691643371E+04    0.39104E-02   -0.25453E-02  4008   0.596E-02    0.286E-01
RMM:   3    -0.232691635616E+04    0.77556E-04   -0.67449E-03  4902   0.363E-02    0.447E-01
RMM:   4    -0.232691520272E+04    0.11534E-02   -0.30643E-03  4871   0.210E-02    0.267E-01
RMM:   5    -0.232691475010E+04    0.45262E-03   -0.89968E-04  4000   0.131E-02    0.136E-01
RMM:   6    -0.232691450447E+04    0.24564E-03   -0.22943E-04  3204   0.824E-03    0.313E-02
RMM:   7    -0.232691449645E+04    0.80110E-05   -0.37859E-05  2982   0.330E-03
   9 F= -.23483585E+04 E0= -.23483579E+04  d E =-.122054E-02  mag=     2.9999
       N       E                     dE             d eps       ncg     rms          rms(c)
DAV:   1    -0.232690645329E+04    0.80512E-02   -0.42238E+00  4480   0.841E-01    0.363E-01
RMM:   2    -0.232690489074E+04    0.15625E-02   -0.11832E-02  3844   0.416E-02    0.223E-01
RMM:   3    -0.232690658191E+04   -0.16912E-02   -0.44244E-03  5437   0.250E-02    0.462E-01
RMM:   4    -0.232690419806E+04    0.23839E-02   -0.25699E-03  4412   0.197E-02    0.191E-01
RMM:   5    -0.232690388671E+04    0.31135E-03   -0.49796E-04  3164   0.104E-02    0.639E-02
RMM:   6    -0.232690384604E+04    0.40662E-04   -0.55481E-05  2844   0.472E-03    0.199E-02
RMM:   7    -0.232690384413E+04    0.19157E-05   -0.26615E-05  2754   0.251E-03
  10 F= -.23483471E+04 E0= -.23483465E+04  d E =-.111986E-02  mag=     2.9999
       N       E                     dE             d eps       ncg     rms          rms(c)
DAV:   1    -0.232689937490E+04    0.44711E-02   -0.86061E+00  4480   0.133E+00    0.733E-01
RMM:   2    -0.232689140521E+04    0.79697E-02   -0.42091E-02  3991   0.850E-02    0.428E-01
RMM:   3    -0.232689599378E+04   -0.45886E-02   -0.13791E-02  5426   0.494E-02    0.924E-01
RMM:   4    -0.232688904111E+04    0.69527E-02   -0.76120E-03  5604   0.339E-02    0.322E-01
RMM:   5    -0.232688862458E+04    0.41653E-03   -0.23667E-03  4889   0.207E-02    0.217E-01
RMM:   6    -0.232688795926E+04    0.66532E-03   -0.60763E-04  3879   0.124E-02    0.395E-02
RMM:   7    -0.232688794172E+04    0.17544E-04   -0.65207E-05  3050   0.437E-03    0.358E-02
RMM:   8    -0.232688793291E+04    0.88058E-05   -0.38050E-05  2758   0.343E-03
  11 F= -.23483316E+04 E0= -.23483307E+04  d E =-.177771E-02  mag=     2.9999
       N       E                     dE             d eps       ncg     rms          rms(c)
DAV:   1    -0.232689280129E+04   -0.48596E-02   -0.44809E+00  4320   0.976E-01    0.641E-01
RMM:   2    -0.232688347911E+04    0.93222E-02   -0.44894E-02  4071   0.740E-02    0.353E-01
RMM:   3    -0.232688206183E+04    0.14173E-02   -0.67858E-03  4632   0.466E-02    0.386E-01
RMM:   4    -0.232688126272E+04    0.79912E-03   -0.46893E-03  5166   0.275E-02    0.312E-01
RMM:   5    -0.232688143974E+04   -0.17703E-03   -0.21360E-03  4657   0.219E-02    0.340E-01
RMM:   6    -0.232688025306E+04    0.11867E-02   -0.81133E-04  4340   0.134E-02    0.546E-02
RMM:   7    -0.232688024571E+04    0.73454E-05   -0.98874E-05  2973   0.536E-03
  12 F= -.23483235E+04 E0= -.23483227E+04  d E =-.147200E-02  mag=     2.9999
       N       E                     dE             d eps       ncg     rms          rms(c)
DAV:   1    -0.232692262991E+04   -0.42377E-01   -0.88348E+00  4320   0.134E+00    0.899E-01
RMM:   2    -0.232690365356E+04    0.18976E-01   -0.83861E-02  4045   0.107E-01    0.480E-01
RMM:   3    -0.232690071391E+04    0.29397E-02   -0.11580E-02  5125   0.601E-02    0.512E-01
RMM:   4    -0.232690003352E+04    0.68039E-03   -0.89945E-03  5824   0.395E-02    0.507E-01
RMM:   5    -0.232689923380E+04    0.79972E-03   -0.45735E-03  5366   0.262E-02    0.485E-01
RMM:   6    -0.232689709030E+04    0.21435E-02   -0.17514E-03  4630   0.186E-02    0.932E-02
RMM:   7    -0.232689705639E+04    0.33916E-04   -0.18700E-04  3114   0.686E-03    0.691E-02
RMM:   8    -0.232689700684E+04    0.49550E-04   -0.81830E-05  3039   0.549E-03    0.359E-02
RMM:   9    -0.232689699883E+04    0.80127E-05   -0.35577E-05  3028   0.390E-03
  13 F= -.23483407E+04 E0= -.23483401E+04  d E =-.131035E-02  mag=     2.9999
       N       E                     dE             d eps       ncg     rms          rms(c)
DAV:   1    -0.232692434351E+04   -0.27337E-01   -0.25606E+00  4320   0.745E-01    0.496E-01
RMM:   2    -0.232691954708E+04    0.47964E-02   -0.25819E-02  3887   0.576E-02    0.272E-01
RMM:   3    -0.232691903248E+04    0.51460E-03   -0.37225E-03  4798   0.312E-02    0.305E-01
RMM:   4    -0.232691816256E+04    0.86991E-03   -0.27251E-03  4912   0.221E-02    0.179E-01
RMM:   5    -0.232691842084E+04   -0.25828E-03   -0.11479E-03  4539   0.144E-02    0.272E-01
RMM:   6    -0.232691776672E+04    0.65413E-03   -0.42420E-04  3202   0.928E-03    0.570E-02
RMM:   7    -0.232691774248E+04    0.24233E-04   -0.43689E-05  2813   0.421E-03    0.272E-02
RMM:   8    -0.232691773934E+04    0.31438E-05   -0.19555E-05  2619   0.263E-03
  14 F= -.23483609E+04 E0= -.23483602E+04  d E =-.142847E-02  mag=     2.9999
       N       E                     dE             d eps       ncg     rms          rms(c)
DAV:   1    -0.232691260602E+04    0.51365E-02   -0.11976E+00  4320   0.478E-01    0.397E-01
RMM:   2    -0.232691188412E+04    0.72191E-03   -0.75252E-03  3867   0.354E-02    0.241E-01
RMM:   3    -0.232691332851E+04   -0.14444E-02   -0.29728E-03  5241   0.232E-02    0.403E-01
RMM:   4    -0.232691183480E+04    0.14937E-02   -0.16137E-03  4040   0.163E-02    0.188E-01
RMM:   5    -0.232691179171E+04    0.43085E-04   -0.68695E-04  3854   0.122E-02    0.158E-01
RMM:   6    -0.232691152923E+04    0.26248E-03   -0.14479E-04  3131   0.741E-03    0.396E-02
RMM:   7    -0.232691151784E+04    0.11392E-04   -0.38912E-05  2748   0.367E-03    0.273E-02
RMM:   8    -0.232691150999E+04    0.78489E-05   -0.85060E-06  2571   0.223E-03
  15 F= -.23483552E+04 E0= -.23483545E+04  d E =-.141625E-02  mag=     2.9999
       N       E                     dE             d eps       ncg     rms          rms(c)
DAV:   1    -0.232690577359E+04    0.57442E-02   -0.61329E-01  4480   0.341E-01    0.304E-01
RMM:   2    -0.232690518845E+04    0.58514E-03   -0.41531E-03  3702   0.263E-02    0.177E-01
RMM:   3    -0.232690581501E+04   -0.62656E-03   -0.13921E-03  4550   0.170E-02    0.248E-01
RMM:   4    -0.232690513151E+04    0.68350E-03   -0.83770E-04  3955   0.138E-02    0.117E-01
RMM:   5    -0.232690525149E+04   -0.11998E-03   -0.35789E-04  2963   0.751E-03    0.156E-01
RMM:   6    -0.232690503247E+04    0.21902E-03   -0.13767E-04  2814   0.595E-03    0.360E-02
RMM:   7    -0.232690502255E+04    0.99249E-05   -0.34577E-05  2598   0.315E-03
  16 F= -.23483483E+04 E0= -.23483476E+04  d E =-.138602E-02  mag=     2.9999
       N       E                     dE             d eps       ncg     rms          rms(c)
DAV:   1    -0.232691175485E+04   -0.67224E-02   -0.12961E+00  4800   0.497E-01    0.606E-01
RMM:   2    -0.232690572199E+04    0.60329E-02   -0.23401E-02  3978   0.569E-02    0.314E-01
RMM:   3    -0.232690717385E+04   -0.14519E-02   -0.40909E-03  4756   0.340E-02    0.542E-01
RMM:   4    -0.232690502818E+04    0.21457E-02   -0.26777E-03  5051   0.214E-02    0.235E-01
RMM:   5    -0.232690520738E+04   -0.17920E-03   -0.11223E-03  3918   0.136E-02    0.226E-01
RMM:   6    -0.232690455583E+04    0.65155E-03   -0.53582E-04  3451   0.112E-02    0.508E-02
RMM:   7    -0.232690452059E+04    0.35239E-04   -0.35339E-05  2827   0.394E-03    0.129E-02
RMM:   8    -0.232690452075E+04   -0.16170E-06   -0.10740E-05  2564   0.224E-03
  17 F= -.23483482E+04 E0= -.23483475E+04  d E =-.142568E-02  mag=     2.9999
       N       E                     dE             d eps       ncg     rms          rms(c)
DAV:   1    -0.232692381507E+04   -0.19294E-01   -0.64171E-01  4640   0.351E-01    0.375E-01
RMM:   2    -0.232692181710E+04    0.19980E-02   -0.92772E-03  3844   0.357E-02    0.195E-01
RMM:   3    -0.232692201167E+04   -0.19457E-03   -0.14370E-03  4338   0.188E-02    0.271E-01
RMM:   4    -0.232692162918E+04    0.38249E-03   -0.97875E-04  3834   0.126E-02    0.172E-01
RMM:   5    -0.232692165890E+04   -0.29713E-04   -0.47457E-04  3365   0.968E-03    0.150E-01
RMM:   6    -0.232692138063E+04    0.27826E-03   -0.19331E-04  2980   0.714E-03    0.262E-02
RMM:   7    -0.232692137904E+04    0.15980E-05   -0.25747E-05  2684   0.317E-03
  18 F= -.23483650E+04 E0= -.23483643E+04  d E =-.138542E-02  mag=     2.9999
       N       E                     dE             d eps       ncg     rms          rms(c)
DAV:   1    -0.232690828668E+04    0.13094E-01   -0.12313E+00  4480   0.464E-01    0.339E-01
RMM:   2    -0.232690807592E+04    0.21076E-03   -0.52775E-03  3659   0.284E-02    0.199E-01
RMM:   3    -0.232690847604E+04   -0.40012E-03   -0.16383E-03  4697   0.174E-02    0.218E-01
RMM:   4    -0.232690801500E+04    0.46104E-03   -0.72021E-04  3568   0.114E-02    0.105E-01
RMM:   5    -0.232690803206E+04   -0.17057E-04   -0.21630E-04  2887   0.647E-03    0.117E-01
RMM:   6    -0.232690790076E+04    0.13130E-03   -0.68618E-05  2713   0.484E-03    0.111E-02
RMM:   7    -0.232690790008E+04    0.67060E-06   -0.12037E-05  2519   0.200E-03
  19 F= -.23483512E+04 E0= -.23483505E+04  d E =-.144436E-02  mag=     2.9999
       N       E                     dE             d eps       ncg     rms          rms(c)
DAV:   1    -0.232691466510E+04   -0.67643E-02   -0.56551E-01  4480   0.334E-01    0.203E-01
RMM:   2    -0.232691467826E+04   -0.13156E-04   -0.23976E-03  3667   0.209E-02    0.135E-01
RMM:   3    -0.232691507159E+04   -0.39333E-03   -0.10358E-03  4162   0.141E-02    0.233E-01
RMM:   4    -0.232691461052E+04    0.46107E-03   -0.52900E-04  3507   0.103E-02    0.880E-02
RMM:   5    -0.232691460195E+04    0.85724E-05   -0.19272E-04  2953   0.709E-03    0.836E-02
RMM:   6    -0.232691455097E+04    0.50982E-04   -0.51787E-05  2678   0.400E-03    0.333E-02
RMM:   7    -0.232691453715E+04    0.13825E-04   -0.18485E-05  2474   0.254E-03    0.144E-02
RMM:   8    -0.232691453541E+04    0.17327E-05   -0.34208E-06  2357   0.157E-03
  20 F= -.23483582E+04 E0= -.23483574E+04  d E =-.161577E-02  mag=     2.9999
       N       E                     dE             d eps       ncg     rms          rms(c)
DAV:   1    -0.232691848304E+04   -0.39459E-02   -0.10267E+00  4480   0.425E-01    0.235E-01
RMM:   2    -0.232691876117E+04   -0.27812E-03   -0.35642E-03  4264   0.253E-02    0.202E-01
RMM:   3    -0.232691876529E+04   -0.41248E-05   -0.14362E-03  4318   0.164E-02    0.227E-01
RMM:   4    -0.232691838584E+04    0.37945E-03   -0.53288E-04  3558   0.107E-02    0.111E-01
RMM:   5    -0.232691838193E+04    0.39179E-05   -0.29994E-04  3185   0.861E-03    0.113E-01
RMM:   6    -0.232691832917E+04    0.52753E-04   -0.12140E-04  2880   0.548E-03    0.684E-02
RMM:   7    -0.232691827047E+04    0.58699E-04   -0.53275E-05  2773   0.409E-03    0.193E-02
RMM:   8    -0.232691826884E+04    0.16301E-05   -0.80024E-06  2636   0.210E-03
  21 F= -.23483615E+04 E0= -.23483609E+04  d E =-.119455E-02  mag=     2.9999
       N       E                     dE             d eps       ncg     rms          rms(c)
DAV:   1    -0.232691418551E+04    0.40850E-02   -0.51360E-01  4480   0.305E-01    0.117E-01
RMM:   2    -0.232691468542E+04   -0.49990E-03   -0.14931E-03  3722   0.161E-02    0.223E-01
RMM:   3    -0.232691424035E+04    0.44507E-03   -0.32594E-04  3090   0.871E-03    0.798E-02
RMM:   4    -0.232691432336E+04   -0.83010E-04   -0.24411E-04  2972   0.659E-03    0.103E-01
RMM:   5    -0.232691422333E+04    0.10003E-03   -0.12931E-04  2929   0.578E-03    0.373E-02
RMM:   6    -0.232691422072E+04    0.26072E-05   -0.22880E-05  2689   0.317E-03
  22 F= -.23483571E+04 E0= -.23483564E+04  d E =-.134148E-02  mag=     2.9999
       N       E                     dE             d eps       ncg     rms          rms(c)
DAV:   1    -0.232691737016E+04   -0.31468E-02   -0.10189E+00  4480   0.440E-01    0.229E-01
RMM:   2    -0.232691962782E+04   -0.22577E-02   -0.70322E-03  4771   0.336E-02    0.462E-01
RMM:   3    -0.232691730508E+04    0.23227E-02   -0.17229E-03  4420   0.194E-02    0.185E-01
RMM:   4    -0.232691742499E+04   -0.11991E-03   -0.85716E-04  3467   0.109E-02    0.214E-01
RMM:   5    -0.232691700731E+04    0.41768E-03   -0.30456E-04  3337   0.857E-03    0.482E-02
RMM:   6    -0.232691700395E+04    0.33524E-05   -0.85545E-05  2870   0.522E-03
  23 F= -.23483611E+04 E0= -.23483603E+04  d E =-.151340E-02  mag=     2.9999
       N       E                     dE             d eps       ncg     rms          rms(c)
DAV:   1    -0.232692055435E+04   -0.35470E-02   -0.52611E-01  4480   0.306E-01    0.230E-01
RMM:   2    -0.232692261022E+04   -0.20559E-02   -0.54282E-03  4870   0.293E-02    0.479E-01
RMM:   3    -0.232692018890E+04    0.24213E-02   -0.18763E-03  4515   0.194E-02    0.189E-01
RMM:   4    -0.232692026011E+04   -0.71204E-04   -0.98915E-04  3547   0.117E-02    0.204E-01
RMM:   5    -0.232691987283E+04    0.38728E-03   -0.38552E-04  3551   0.906E-03    0.641E-02
RMM:   6    -0.232691987067E+04    0.21606E-05   -0.11297E-04  2983   0.586E-03    0.547E-02
RMM:   7    -0.232691983424E+04    0.36428E-04   -0.41743E-05  2810   0.430E-03    0.174E-02
RMM:   8    -0.232691983504E+04   -0.79417E-06   -0.74720E-06  2678   0.200E-03
  24 F= -.23483641E+04 E0= -.23483628E+04  d E =-.243890E-02  mag=     2.9998
       N       E                     dE             d eps       ncg     rms          rms(c)
DAV:   1    -0.232691915506E+04    0.67918E-03   -0.10349E+00  4480   0.449E-01    0.419E-01
RMM:   2    -0.232691942947E+04   -0.27441E-03   -0.12236E-02  5025   0.420E-02    0.500E-01
RMM:   3    -0.232691873829E+04    0.69118E-03   -0.56464E-03  5028   0.335E-02    0.485E-01
RMM:   4    -0.232691738436E+04    0.13539E-02   -0.29429E-03  4952   0.206E-02    0.341E-01
RMM:   5    -0.232691635659E+04    0.10278E-02   -0.13839E-03  4460   0.150E-02    0.138E-01
RMM:   6    -0.232691621817E+04    0.13841E-03   -0.28015E-04  3224   0.828E-03    0.697E-02
RMM:   7    -0.232691617794E+04    0.40230E-04   -0.11450E-04  3061   0.631E-03    0.396E-02
RMM:   8    -0.232691616948E+04    0.84632E-05   -0.24327E-05  2900   0.355E-03
  25 F= -.23483587E+04 E0= -.23483583E+04  d E =-.765028E-03  mag=     2.9999
       N       E                     dE             d eps       ncg     rms          rms(c)
DAV:   1    -0.232691544876E+04    0.72918E-03   -0.55441E-01  4480   0.340E-01    0.280E-01
RMM:   2    -0.232691553321E+04   -0.84451E-04   -0.56770E-03  4379   0.304E-02    0.254E-01
RMM:   3    -0.232691598523E+04   -0.45201E-03   -0.24334E-03  4460   0.234E-02    0.331E-01
RMM:   4    -0.232691533339E+04    0.65184E-03   -0.12094E-03  4097   0.141E-02    0.244E-01
RMM:   5    -0.232691484756E+04    0.48583E-03   -0.59740E-04  3460   0.105E-02    0.893E-02
RMM:   6    -0.232691481738E+04    0.30180E-04   -0.12440E-04  3004   0.614E-03    0.526E-02
RMM:   7    -0.232691478928E+04    0.28103E-04   -0.51815E-05  2815   0.444E-03    0.246E-02
RMM:   8    -0.232691478332E+04    0.59546E-05   -0.90265E-06  2671   0.243E-03
  26 F= -.23483577E+04 E0= -.23483570E+04  d E =-.152083E-02  mag=     2.9999
       N       E                     dE             d eps       ncg     rms          rms(c)
DAV:   1    -0.232691695520E+04   -0.21659E-02   -0.11672E+00  4480   0.454E-01    0.341E-01
RMM:   2    -0.232691719846E+04   -0.24327E-03   -0.53267E-03  3879   0.307E-02    0.231E-01
RMM:   3    -0.232691856013E+04   -0.13617E-02   -0.28292E-03  5190   0.230E-02    0.351E-01
RMM:   4    -0.232691709801E+04    0.14621E-02   -0.13173E-03  4163   0.168E-02    0.122E-01
RMM:   5    -0.232691706052E+04    0.37492E-04   -0.33277E-04  3268   0.867E-03    0.110E-01
RMM:   6    -0.232691698210E+04    0.78423E-04   -0.10030E-04  2844   0.546E-03    0.610E-02
RMM:   7    -0.232691694431E+04    0.37783E-04   -0.33562E-05  2638   0.313E-03    0.154E-02
RMM:   8    -0.232691694231E+04    0.20023E-05   -0.76264E-06  2619   0.182E-03
  27 F= -.23483609E+04 E0= -.23483603E+04  d E =-.132377E-02  mag=     2.9999
       N       E                     dE             d eps       ncg     rms          rms(c)
DAV:   1    -0.232690533284E+04    0.11611E-01   -0.58442E-01  4800   0.324E-01    0.261E-01
RMM:   2    -0.232690512995E+04    0.20289E-03   -0.34271E-03  3701   0.232E-02    0.158E-01
RMM:   3    -0.232690571650E+04   -0.58655E-03   -0.12113E-03  4313   0.161E-02    0.234E-01
RMM:   4    -0.232690508443E+04    0.63207E-03   -0.64270E-04  3838   0.127E-02    0.103E-01
RMM:   5    -0.232690517562E+04   -0.91185E-04   -0.27528E-04  2953   0.692E-03    0.138E-01
RMM:   6    -0.232690501550E+04    0.16012E-03   -0.10378E-04  2799   0.533E-03    0.346E-02
RMM:   7    -0.232690500509E+04    0.10407E-04   -0.29464E-05  2583   0.301E-03    0.220E-02
RMM:   8    -0.232690499936E+04    0.57278E-05   -0.45980E-06  2299   0.174E-03
  28 F= -.23483486E+04 E0= -.23483478E+04  d E =-.145813E-02  mag=     2.9999
       N       E                     dE             d eps       ncg     rms          rms(c)
DAV:   1    -0.232692065133E+04   -0.15646E-01   -0.12227E+00  4960   0.460E-01    0.444E-01
RMM:   2    -0.232691841977E+04    0.22316E-02   -0.11519E-02  4039   0.392E-02    0.235E-01
RMM:   3    -0.232691844543E+04   -0.25658E-04   -0.14836E-03  3851   0.234E-02    0.238E-01
RMM:   4    -0.232691865346E+04   -0.20803E-03   -0.12130E-03  4248   0.146E-02    0.275E-01
RMM:   5    -0.232691811948E+04    0.53399E-03   -0.41182E-04  3397   0.102E-02    0.899E-02
RMM:   6    -0.232691804797E+04    0.71511E-04   -0.15295E-04  2887   0.675E-03    0.470E-02
RMM:   7    -0.232691801785E+04    0.30115E-04   -0.19281E-05  2689   0.333E-03    0.882E-03
RMM:   8    -0.232691801726E+04    0.59127E-06   -0.62685E-06  2542   0.182E-03
  29 F= -.23483614E+04 E0= -.23483607E+04  d E =-.135528E-02  mag=     2.9999
       N       E                     dE             d eps       ncg     rms          rms(c)
DAV:   1    -0.232692124711E+04   -0.32293E-02   -0.62101E-01  4480   0.325E-01    0.241E-01
RMM:   2    -0.232692123440E+04    0.12709E-04   -0.23760E-03  3525   0.196E-02    0.149E-01
RMM:   3    -0.232692189197E+04   -0.65757E-03   -0.12211E-03  4427   0.144E-02    0.265E-01
RMM:   4    -0.232692127969E+04    0.61228E-03   -0.63438E-04  3394   0.106E-02    0.107E-01
RMM:   5    -0.232692118078E+04    0.98914E-04   -0.15505E-04  2965   0.614E-03    0.416E-02
RMM:   6    -0.232692115948E+04    0.21299E-04   -0.17548E-05  2674   0.325E-03    0.138E-02
RMM:   7    -0.232692116016E+04   -0.68618E-06   -0.77368E-06  2296   0.173E-03
  30 F= -.23483644E+04 E0= -.23483636E+04  d E =-.148042E-02  mag=     2.9999
       N       E                     dE             d eps       ncg     rms          rms(c)
DAV:   1    -0.232689940544E+04    0.21754E-01   -0.12648E+00  4960   0.485E-01    0.533E-01
RMM:   2    -0.232689535035E+04    0.40551E-02   -0.18536E-02  3923   0.517E-02    0.288E-01
RMM:   3    -0.232689727339E+04   -0.19230E-02   -0.38170E-03  4619   0.331E-02    0.577E-01
RMM:   4    -0.232689467607E+04    0.25973E-02   -0.25330E-03  4785   0.200E-02    0.185E-01
RMM:   5    -0.232689482593E+04   -0.14985E-03   -0.10452E-03  4231   0.146E-02    0.187E-01
RMM:   6    -0.232689436743E+04    0.45849E-03   -0.44284E-04  3557   0.102E-02    0.391E-02
RMM:   7    -0.232689435731E+04    0.10123E-04   -0.46078E-05  2904   0.388E-03    0.251E-02
RMM:   8    -0.232689435317E+04    0.41404E-05   -0.17206E-05  2540   0.264E-03
  31 F= -.23483381E+04 E0= -.23483374E+04  d E =-.134128E-02  mag=     2.9999
