       N       E                     dE             d eps       ncg     rms          rms(c)
DAV:   1     0.127133924017E+05    0.12713E+05   -0.82335E+05  4400   0.144E+03
DAV:   2    -0.104493030517E+04   -0.13758E+05   -0.13193E+05  5304   0.330E+02
DAV:   3    -0.245536065579E+04   -0.14104E+04   -0.13975E+04  5288   0.111E+02
DAV:   4    -0.250167768542E+04   -0.46317E+02   -0.46103E+02  6600   0.301E+01
DAV:   5    -0.250252304540E+04   -0.84536E+00   -0.84395E+00  5488   0.326E+00    0.170E+02
RMM:   6    -0.147242178553E+04    0.10301E+04   -0.19240E+03  4353   0.387E+01    0.730E+01
RMM:   7    -0.164202630753E+04   -0.16960E+03   -0.29134E+02  4953   0.140E+01    0.525E+01
RMM:   8    -0.168386352655E+04   -0.41837E+02   -0.54671E+01  4940   0.751E+00    0.372E+01
RMM:   9    -0.181065408130E+04   -0.12679E+03   -0.60675E+01  4653   0.808E+00    0.287E+01
RMM:  10    -0.192648698515E+04   -0.11583E+03   -0.45424E+01  4770   0.664E+00    0.248E+01
RMM:  11    -0.200085586712E+04   -0.74369E+02   -0.29911E+01  5046   0.468E+00    0.169E+01
RMM:  12    -0.209223049898E+04   -0.91375E+02   -0.43221E+01  4525   0.508E+00    0.121E+01
RMM:  13    -0.223860998175E+04   -0.14638E+03   -0.14098E+02  4365   0.820E+00    0.709E+00
RMM:  14    -0.227832030985E+04   -0.39710E+02   -0.40705E+01  4462   0.484E+00    0.397E+00
RMM:  15    -0.228777893498E+04   -0.94586E+01   -0.11867E+01  4858   0.268E+00    0.311E+00
RMM:  16    -0.229100280613E+04   -0.32239E+01   -0.36508E+00  4734   0.132E+00    0.165E+00
RMM:  17    -0.229264409436E+04   -0.16413E+01   -0.14680E+00  4629   0.832E-01    0.105E+00
RMM:  18    -0.229308129999E+04   -0.43721E+00   -0.33344E-01  5076   0.404E-01    0.113E+00
RMM:  19    -0.229311249499E+04   -0.31195E-01   -0.48459E-02  5233   0.129E-01    0.139E+00
RMM:  20    -0.229314208752E+04   -0.29593E-01   -0.44972E-02  4510   0.134E-01    0.120E+00
RMM:  21    -0.229314183249E+04    0.25503E-03   -0.10670E-01  4384   0.148E-01    0.135E+00
RMM:  22    -0.229307887017E+04    0.62962E-01   -0.10661E-01  4712   0.103E-01    0.159E+00
RMM:  23    -0.229311261954E+04   -0.33749E-01   -0.13008E-02  4865   0.450E-02    0.151E+00
RMM:  24    -0.229311662777E+04   -0.40082E-02   -0.68852E-03  4397   0.498E-02    0.165E+00
RMM:  25    -0.229312966009E+04   -0.13032E-01   -0.31419E-03  4059   0.280E-02    0.163E+00
RMM:  26    -0.229316710526E+04   -0.37445E-01   -0.22180E-02  4502   0.444E-02    0.151E+00
RMM:  27    -0.229317065025E+04   -0.35450E-02   -0.17440E-03  3692   0.175E-02    0.148E+00
RMM:  28    -0.229320406559E+04   -0.33415E-01   -0.44556E-02  4509   0.618E-02    0.127E+00
RMM:  29    -0.229324469545E+04   -0.40630E-01   -0.20166E-01  4662   0.142E-01    0.439E-01
RMM:  30    -0.229326289333E+04   -0.18198E-01   -0.32485E-02  4446   0.862E-02    0.141E-01
RMM:  31    -0.229327981472E+04   -0.16921E-01   -0.87726E-03  4358   0.647E-02    0.122E-01
RMM:  32    -0.229329122853E+04   -0.11414E-01   -0.60901E-03  4464   0.529E-02    0.171E-01
RMM:  33    -0.229329802213E+04   -0.67936E-02   -0.40233E-03  4485   0.438E-02    0.778E-02
RMM:  34    -0.229330217781E+04   -0.41557E-02   -0.39353E-03  4579   0.358E-02    0.139E-01
RMM:  35    -0.229330390735E+04   -0.17295E-02   -0.21067E-03  4281   0.250E-02    0.503E-02
RMM:  36    -0.229330440277E+04   -0.49541E-03   -0.33960E-04  4083   0.121E-02    0.317E-02
RMM:  37    -0.229330466308E+04   -0.26031E-03   -0.33195E-04  3578   0.843E-03    0.462E-02
RMM:  38    -0.229330477144E+04   -0.10836E-03   -0.98438E-05  3021   0.591E-03    0.249E-02
RMM:  39    -0.229330486740E+04   -0.95963E-04   -0.68795E-05  2953   0.497E-03    0.245E-02
RMM:  40    -0.229330493393E+04   -0.66528E-04   -0.66401E-05  2871   0.481E-03    0.169E-02
RMM:  41    -0.229330497779E+04   -0.43861E-04   -0.64864E-05  2871   0.455E-03    0.816E-03
RMM:  42    -0.229330499163E+04   -0.13838E-04   -0.69320E-06  2728   0.311E-03    0.447E-03
RMM:  43    -0.229330499905E+04   -0.74233E-05   -0.46322E-06  2303   0.185E-03
   1 F= -.23135480E+04 E0= -.23135378E+04  d E =-.231355E+04  mag=     4.0002
       N       E                     dE             d eps       ncg     rms          rms(c)
DAV:   1    -0.229327529936E+04    0.29692E-01   -0.21328E+01  4680   0.190E+00    0.165E+00
RMM:   2    -0.229360259040E+04   -0.32729E+00   -0.31649E+00  6446   0.521E-01    0.123E+00
RMM:   3    -0.229362765823E+04   -0.25068E-01   -0.33578E-01  5735   0.234E-01    0.130E+00
RMM:   4    -0.229361387247E+04    0.13786E-01   -0.41044E-02  5326   0.586E-02    0.506E-01
RMM:   5    -0.229360951302E+04    0.43595E-02   -0.15032E-02  4642   0.320E-02    0.211E-01
RMM:   6    -0.229360941305E+04    0.99969E-04   -0.21266E-03  4253   0.210E-02    0.971E-02
RMM:   7    -0.229360943996E+04   -0.26908E-04   -0.28172E-04  3516   0.946E-03    0.388E-02
RMM:   8    -0.229360946477E+04   -0.24816E-04   -0.70943E-05  2980   0.614E-03    0.187E-02
RMM:   9    -0.229360947649E+04   -0.11719E-04   -0.19586E-05  2827   0.414E-03    0.942E-03
RMM:  10    -0.229360948298E+04   -0.64919E-05   -0.76206E-06  2797   0.318E-03
   2 F= -.23138551E+04 E0= -.23138551E+04  d E =-.307105E+00  mag=     4.0000
       N       E                     dE             d eps       ncg     rms          rms(c)
DAV:   1    -0.229358256833E+04    0.26908E-01   -0.52632E+00  4544   0.949E-01    0.700E-01
RMM:   2    -0.229365848664E+04   -0.75918E-01   -0.81098E-01  6403   0.260E-01    0.382E-01
RMM:   3    -0.229366372539E+04   -0.52387E-02   -0.83330E-02  5260   0.108E-01    0.269E-01
RMM:   4    -0.229366399011E+04   -0.26472E-03   -0.93844E-03  3851   0.208E-02    0.241E-01
RMM:   5    -0.229366331398E+04    0.67613E-03   -0.10620E-03  3314   0.113E-02    0.127E-01
RMM:   6    -0.229366314333E+04    0.17065E-03   -0.62018E-04  3779   0.990E-03    0.390E-02
RMM:   7    -0.229366314784E+04   -0.45053E-05   -0.61741E-05  2841   0.631E-03
   3 F= -.23139101E+04 E0= -.23139101E+04  d E =-.362075E+00  mag=     4.0000
       N       E                     dE             d eps       ncg     rms          rms(c)
DAV:   1    -0.229339101026E+04    0.27213E+00   -0.15123E+01  4464   0.193E+00    0.136E+00
RMM:   2    -0.229376986811E+04   -0.37886E+00   -0.38248E+00  6422   0.543E-01    0.181E+00
RMM:   3    -0.229378948050E+04   -0.19612E-01   -0.46237E-01  5820   0.252E-01    0.112E+00
RMM:   4    -0.229378204352E+04    0.74370E-02   -0.44152E-02  5348   0.555E-02    0.356E-01
RMM:   5    -0.229378022920E+04    0.18143E-02   -0.41938E-03  4568   0.194E-02    0.228E-01
RMM:   6    -0.229377950209E+04    0.72711E-03   -0.31202E-03  4675   0.191E-02    0.894E-02
RMM:   7    -0.229377944857E+04    0.53515E-04   -0.42913E-04  3734   0.122E-02    0.412E-02
RMM:   8    -0.229377943310E+04    0.15473E-04   -0.77928E-05  2987   0.633E-03    0.157E-02
RMM:   9    -0.229377942837E+04    0.47350E-05   -0.40561E-05  2850   0.469E-03
   4 F= -.23140266E+04 E0= -.23140266E+04  d E =-.116503E+00  mag=     4.0000
       N       E                     dE             d eps       ncg     rms          rms(c)
DAV:   1    -0.229360472310E+04    0.17471E+00   -0.76141E+00  4464   0.136E+00    0.937E-01
RMM:   2    -0.229379401568E+04   -0.18929E+00   -0.19040E+00  6375   0.381E-01    0.128E+00
RMM:   3    -0.229380561125E+04   -0.11596E-01   -0.22978E-01  5717   0.186E-01    0.853E-01
RMM:   4    -0.229380161471E+04    0.39965E-02   -0.21839E-02  4962   0.399E-02    0.257E-01
RMM:   5    -0.229380068600E+04    0.92871E-03   -0.20764E-03  4108   0.138E-02    0.165E-01
RMM:   6    -0.229380029966E+04    0.38634E-03   -0.16370E-03  4427   0.143E-02    0.736E-02
RMM:   7    -0.229380027245E+04    0.27212E-04   -0.21379E-04  3148   0.929E-03    0.285E-02
RMM:   8    -0.229380027775E+04   -0.53044E-05   -0.41288E-05  2863   0.526E-03
   5 F= -.23140477E+04 E0= -.23140477E+04  d E =-.137555E+00  mag=     4.0000
       N       E                     dE             d eps       ncg     rms          rms(c)
DAV:   1    -0.229377073093E+04    0.29542E-01   -0.25526E+00  4464   0.135E+00    0.631E-01
RMM:   2    -0.229381224950E+04   -0.41519E-01   -0.39597E-01  5780   0.292E-01    0.888E-01
RMM:   3    -0.229381109340E+04    0.11561E-02   -0.54678E-02  5315   0.139E-01    0.454E-01
RMM:   4    -0.229380934523E+04    0.17482E-02   -0.47742E-03  4695   0.321E-02    0.167E-01
RMM:   5    -0.229380880830E+04    0.53693E-03   -0.16891E-03  5383   0.256E-02    0.736E-02
RMM:   6    -0.229380866993E+04    0.13837E-03   -0.39809E-04  4807   0.135E-02    0.330E-02
RMM:   7    -0.229380862859E+04    0.41333E-04   -0.67657E-05  3360   0.765E-03    0.216E-02
RMM:   8    -0.229380859817E+04    0.30424E-04   -0.38831E-05  3138   0.564E-03    0.800E-03
RMM:   9    -0.229380859049E+04    0.76808E-05   -0.14066E-05  2836   0.467E-03
   6 F= -.23140549E+04 E0= -.23140549E+04  d E =-.722891E-02  mag=     4.0000
       N       E                     dE             d eps       ncg     rms          rms(c)
DAV:   1    -0.229380638505E+04    0.22131E-02   -0.28973E-01  4632   0.453E-01    0.216E-01
RMM:   2    -0.229381117939E+04   -0.47943E-02   -0.44797E-02  5984   0.100E-01    0.309E-01
RMM:   3    -0.229381092919E+04    0.25020E-03   -0.60445E-03  4917   0.446E-02    0.138E-01
RMM:   4    -0.229381076522E+04    0.16396E-03   -0.56024E-04  3962   0.111E-02    0.522E-02
RMM:   5    -0.229381070829E+04    0.56933E-04   -0.17923E-04  4012   0.918E-03    0.257E-02
RMM:   6    -0.229381069589E+04    0.12399E-04   -0.46360E-05  3216   0.681E-03    0.109E-02
RMM:   7    -0.229381069277E+04    0.31232E-05   -0.14409E-05  2830   0.501E-03
   7 F= -.23140574E+04 E0= -.23140574E+04  d E =-.969646E-02  mag=     4.0000
       N       E                     dE             d eps       ncg     rms          rms(c)
DAV:   1    -0.229380659194E+04    0.41039E-02   -0.48209E-01  4464   0.567E-01    0.253E-01
RMM:   2    -0.229381529884E+04   -0.87069E-02   -0.76268E-02  5999   0.120E-01    0.436E-01
RMM:   3    -0.229381452102E+04    0.77781E-03   -0.89800E-03  4882   0.506E-02    0.119E-01
RMM:   4    -0.229381446799E+04    0.53035E-04   -0.93429E-04  4091   0.123E-02    0.795E-02
RMM:   5    -0.229381439066E+04    0.77332E-04   -0.20939E-04  4054   0.103E-02    0.626E-02
RMM:   6    -0.229381435570E+04    0.34955E-04   -0.98613E-05  3285   0.797E-03    0.148E-02
RMM:   7    -0.229381435451E+04    0.11933E-05   -0.17840E-05  2821   0.497E-03
   8 F= -.23140604E+04 E0= -.23140604E+04  d E =-.308076E-02  mag=     4.0000
       N       E                     dE             d eps       ncg     rms          rms(c)
DAV:   1    -0.229381363564E+04    0.72006E-03   -0.66616E-02  4632   0.212E-01    0.940E-02
RMM:   2    -0.229381484731E+04   -0.12117E-02   -0.10628E-02  6015   0.469E-02    0.163E-01
RMM:   3    -0.229381474178E+04    0.10554E-03   -0.12652E-03  3387   0.205E-02    0.439E-02
RMM:   4    -0.229381473423E+04    0.75497E-05   -0.13043E-04  2865   0.526E-03    0.295E-02
RMM:   5    -0.229381472079E+04    0.13439E-04   -0.32479E-05  2868   0.450E-03    0.240E-02
RMM:   6    -0.229381471611E+04    0.46828E-05   -0.15462E-05  2822   0.424E-03
   9 F= -.23140606E+04 E0= -.23140606E+04  d E =-.322620E-02  mag=     4.0000
       N       E                     dE             d eps       ncg     rms          rms(c)
DAV:   1    -0.229380783213E+04    0.68887E-02   -0.48299E-01  4432   0.553E-01    0.231E-01
RMM:   2    -0.229381667863E+04   -0.88465E-02   -0.88105E-02  6079   0.116E-01    0.247E-01
RMM:   3    -0.229381742765E+04   -0.74901E-03   -0.10667E-02  4517   0.496E-02    0.213E-01
RMM:   4    -0.229381720163E+04    0.22601E-03   -0.10345E-03  3224   0.124E-02    0.935E-02
RMM:   5    -0.229381711129E+04    0.90346E-04   -0.25670E-04  3228   0.784E-03    0.385E-02
RMM:   6    -0.229381710248E+04    0.88117E-05   -0.68006E-05  2929   0.629E-03
  10 F= -.23140626E+04 E0= -.23140626E+04  d E =-.197682E-02  mag=     4.0000
       N       E                     dE             d eps       ncg     rms          rms(c)
DAV:   1    -0.229381622000E+04    0.89128E-03   -0.58647E-02  4544   0.192E-01    0.815E-02
RMM:   2    -0.229381730326E+04   -0.10833E-02   -0.10898E-02  6058   0.421E-02    0.812E-02
RMM:   3    -0.229381741191E+04   -0.10865E-03   -0.13388E-03  2971   0.172E-02    0.806E-02
RMM:   4    -0.229381737728E+04    0.34633E-04   -0.13121E-04  2843   0.525E-03    0.344E-02
RMM:   5    -0.229381736464E+04    0.12632E-04   -0.32769E-05  2841   0.310E-03    0.128E-02
RMM:   6    -0.229381736448E+04    0.16612E-06   -0.70353E-06  2777   0.263E-03
  11 F= -.23140627E+04 E0= -.23140627E+04  d E =-.209561E-02  mag=     4.0000
       N       E                     dE             d eps       ncg     rms          rms(c)
DAV:   1    -0.229381578144E+04    0.15832E-02   -0.16596E-01  4464   0.363E-01    0.135E-01
RMM:   2    -0.229381890108E+04   -0.31196E-02   -0.28993E-02  5879   0.705E-02    0.237E-01
RMM:   3    -0.229381870419E+04    0.19689E-03   -0.26934E-03  3863   0.297E-02    0.762E-02
RMM:   4    -0.229381868102E+04    0.23168E-04   -0.32031E-04  2955   0.739E-03    0.299E-02
RMM:   5    -0.229381866676E+04    0.14260E-04   -0.23762E-05  2847   0.443E-03    0.250E-02
RMM:   6    -0.229381865923E+04    0.75334E-05   -0.31272E-05  2892   0.491E-03
  12 F= -.23140639E+04 E0= -.23140639E+04  d E =-.121254E-02  mag=     4.0000
       N       E                     dE             d eps       ncg     rms          rms(c)
DAV:   1    -0.229379431710E+04    0.24350E-01   -0.14859E+00  4432   0.109E+00    0.404E-01
RMM:   2    -0.229382223587E+04   -0.27919E-01   -0.25971E-01  5772   0.209E-01    0.705E-01
RMM:   3    -0.229382060282E+04    0.16330E-02   -0.24961E-02  5266   0.899E-02    0.234E-01
RMM:   4    -0.229382041557E+04    0.18725E-03   -0.33006E-03  4472   0.197E-02    0.884E-02
RMM:   5    -0.229382029397E+04    0.12160E-03   -0.19900E-04  3914   0.111E-02    0.812E-02
RMM:   6    -0.229382021509E+04    0.78880E-04   -0.30349E-04  4119   0.122E-02    0.180E-02
RMM:   7    -0.229382021227E+04    0.28201E-05   -0.38544E-05  2925   0.870E-03
  13 F= -.23140652E+04 E0= -.23140652E+04  d E =-.252280E-02  mag=     4.0000
       N       E                     dE             d eps       ncg     rms          rms(c)
DAV:   1    -0.229382026330E+04   -0.48208E-04   -0.20887E-02  4960   0.122E-01    0.483E-02
RMM:   2    -0.229382070404E+04   -0.44074E-03   -0.41001E-03  5575   0.253E-02    0.886E-02
RMM:   3    -0.229382067700E+04    0.27037E-04   -0.39287E-04  2870   0.103E-02    0.253E-02
RMM:   4    -0.229382067821E+04   -0.12101E-05   -0.53814E-05  2841   0.302E-03
  14 F= -.23140657E+04 E0= -.23140657E+04  d E =-.442049E-03  mag=     4.0000
       N       E                     dE             d eps       ncg     rms          rms(c)
DAV:   1    -0.229381829409E+04    0.23829E-02   -0.18742E-01  4464   0.366E-01    0.137E-01
RMM:   2    -0.229382221046E+04   -0.39164E-02   -0.36268E-02  5907   0.716E-02    0.258E-01
RMM:   3    -0.229382198640E+04    0.22406E-03   -0.33792E-03  3727   0.309E-02    0.702E-02
RMM:   4    -0.229382198439E+04    0.20154E-05   -0.39056E-04  2940   0.721E-03    0.353E-02
RMM:   5    -0.229382197179E+04    0.12600E-04   -0.23857E-05  2819   0.392E-03    0.313E-02
RMM:   6    -0.229382196384E+04    0.79444E-05   -0.38230E-05  2885   0.451E-03
  15 F= -.23140669E+04 E0= -.23140669E+04  d E =-.165638E-02  mag=     4.0000
       N       E                     dE             d eps       ncg     rms          rms(c)
DAV:   1    -0.229380935462E+04    0.12617E-01   -0.75066E-01  4416   0.732E-01    0.288E-01
RMM:   2    -0.229382545895E+04   -0.16104E-01   -0.14618E-01  5728   0.144E-01    0.567E-01
RMM:   3    -0.229382409658E+04    0.13624E-02   -0.13736E-02  4839   0.638E-02    0.137E-01
RMM:   4    -0.229382411041E+04   -0.13825E-04   -0.16479E-03  3591   0.129E-02    0.633E-02
RMM:   5    -0.229382406617E+04    0.44236E-04   -0.81663E-05  2980   0.671E-03    0.610E-02
RMM:   6    -0.229382403232E+04    0.33852E-04   -0.14742E-04  3465   0.804E-03    0.115E-02
RMM:   7    -0.229382403316E+04   -0.84500E-06   -0.20745E-05  2833   0.537E-03
  16 F= -.23140688E+04 E0= -.23140688E+04  d E =-.358489E-02  mag=     4.0000
       N       E                     dE             d eps       ncg     rms          rms(c)
DAV:   1    -0.229376691036E+04    0.57122E-01   -0.30051E+00  4420   0.147E+00    0.572E-01
RMM:   2    -0.229383061438E+04   -0.63704E-01   -0.58320E-01  5931   0.289E-01    0.109E+00
RMM:   3    -0.229382650179E+04    0.41126E-02   -0.59911E-02  5478   0.124E-01    0.291E-01
RMM:   4    -0.229382635913E+04    0.14266E-03   -0.73534E-03  4626   0.258E-02    0.126E-01
RMM:   5    -0.229382617886E+04    0.18026E-03   -0.33552E-04  3890   0.122E-02    0.126E-01
RMM:   6    -0.229382603153E+04    0.14733E-03   -0.62215E-04  4211   0.149E-02    0.286E-02
RMM:   7    -0.229382602860E+04    0.29326E-05   -0.83903E-05  2996   0.911E-03
  17 F= -.23140705E+04 E0= -.23140705E+04  d E =-.530520E-02  mag=     4.0000
       N       E                     dE             d eps       ncg     rms          rms(c)
DAV:   1    -0.229382381717E+04    0.22144E-02   -0.16392E-01  4608   0.331E-01    0.147E-01
RMM:   2    -0.229382767216E+04   -0.38550E-02   -0.38276E-02  5882   0.720E-02    0.191E-01
RMM:   3    -0.229382783327E+04   -0.16111E-03   -0.37841E-03  3877   0.296E-02    0.124E-01
RMM:   4    -0.229382774347E+04    0.89796E-04   -0.43265E-04  2942   0.826E-03    0.374E-02
RMM:   5    -0.229382772839E+04    0.15078E-04   -0.39947E-05  2840   0.477E-03    0.231E-02
RMM:   6    -0.229382772493E+04    0.34641E-05   -0.24204E-05  2867   0.469E-03
  18 F= -.23140721E+04 E0= -.23140721E+04  d E =-.159936E-02  mag=     4.0000
       N       E                     dE             d eps       ncg     rms          rms(c)
DAV:   1    -0.229380058912E+04    0.27139E-01   -0.12354E+00  4400   0.906E-01    0.402E-01
RMM:   2    -0.229382955166E+04   -0.28963E-01   -0.28616E-01  5797   0.194E-01    0.540E-01
RMM:   3    -0.229383073235E+04   -0.11807E-02   -0.29265E-02  5291   0.804E-02    0.344E-01
RMM:   4    -0.229382993866E+04    0.79369E-03   -0.34270E-03  4467   0.202E-02    0.100E-01
RMM:   5    -0.229382981851E+04    0.12015E-03   -0.28188E-04  3615   0.112E-02    0.658E-02
RMM:   6    -0.229382977435E+04    0.44160E-04   -0.17931E-04  3994   0.102E-02    0.249E-02
RMM:   7    -0.229382977272E+04    0.16319E-05   -0.34102E-05  2860   0.727E-03
  19 F= -.23140739E+04 E0= -.23140739E+04  d E =-.338293E-02  mag=     4.0000
       N       E                     dE             d eps       ncg     rms          rms(c)
DAV:   1    -0.229382179219E+04    0.79822E-02   -0.39910E-01  4432   0.508E-01    0.225E-01
RMM:   2    -0.229383090930E+04   -0.91171E-02   -0.94625E-02  5896   0.106E-01    0.176E-01
RMM:   3    -0.229383194783E+04   -0.10385E-02   -0.96453E-03  4664   0.458E-02    0.217E-01
RMM:   4    -0.229383161496E+04    0.33287E-03   -0.10302E-03  3007   0.108E-02    0.564E-02
RMM:   5    -0.229383158322E+04    0.31750E-04   -0.10880E-04  2862   0.575E-03    0.345E-02
RMM:   6    -0.229383156701E+04    0.16202E-04   -0.54249E-05  2955   0.560E-03    0.138E-02
RMM:   7    -0.229383156629E+04    0.72151E-06   -0.13222E-05  2821   0.483E-03
  20 F= -.23140755E+04 E0= -.23140755E+04  d E =-.156606E-02  mag=     4.0000
       N       E                     dE             d eps       ncg     rms          rms(c)
DAV:   1    -0.229379712020E+04    0.34447E-01   -0.14595E+00  4388   0.971E-01    0.429E-01
RMM:   2    -0.229383054153E+04   -0.33421E-01   -0.34657E-01  5913   0.203E-01    0.334E-01
RMM:   3    -0.229383450437E+04   -0.39628E-02   -0.36661E-02  5340   0.905E-02    0.420E-01
RMM:   4    -0.229383322513E+04    0.12792E-02   -0.40158E-03  4298   0.198E-02    0.110E-01
RMM:   5    -0.229383310226E+04    0.12287E-03   -0.38375E-04  3244   0.974E-03    0.684E-02
RMM:   6    -0.229383303584E+04    0.66423E-04   -0.20603E-04  3997   0.913E-03    0.321E-02
RMM:   7    -0.229383302580E+04    0.10035E-04   -0.47006E-05  2865   0.750E-03    0.105E-02
RMM:   8    -0.229383302532E+04    0.48373E-06   -0.13144E-05  2810   0.405E-03
  21 F= -.23140765E+04 E0= -.23140765E+04  d E =-.259037E-02  mag=     4.0000
       N       E                     dE             d eps       ncg     rms          rms(c)
DAV:   1    -0.229382596018E+04    0.70656E-02   -0.34565E-01  4416   0.448E-01    0.202E-01
RMM:   2    -0.229383421804E+04   -0.82579E-02   -0.85739E-02  6002   0.948E-02    0.153E-01
RMM:   3    -0.229383514931E+04   -0.93127E-03   -0.86424E-03  4182   0.396E-02    0.188E-01
RMM:   4    -0.229383491421E+04    0.23511E-03   -0.97381E-04  2939   0.961E-03    0.517E-02
RMM:   5    -0.229383488573E+04    0.28473E-04   -0.77204E-05  2837   0.457E-03    0.329E-02
RMM:   6    -0.229383487007E+04    0.15667E-04   -0.45809E-05  2895   0.448E-03    0.118E-02
RMM:   7    -0.229383486992E+04    0.15119E-06   -0.97351E-06  2811   0.377E-03
  22 F= -.23140780E+04 E0= -.23140780E+04  d E =-.154714E-02  mag=     4.0000
       N       E                     dE             d eps       ncg     rms          rms(c)
DAV:   1    -0.229375805210E+04    0.76818E-01   -0.31114E+00  4376   0.134E+00    0.602E-01
RMM:   2    -0.229383186777E+04   -0.73816E-01   -0.76824E-01  5969   0.283E-01    0.435E-01
RMM:   3    -0.229384059853E+04   -0.87308E-02   -0.81198E-02  5464   0.122E-01    0.540E-01
RMM:   4    -0.229383864769E+04    0.19508E-02   -0.88832E-03  4706   0.261E-02    0.172E-01
RMM:   5    -0.229383838399E+04    0.26370E-03   -0.73759E-04  3351   0.116E-02    0.108E-01
RMM:   6    -0.229383822252E+04    0.16147E-03   -0.45891E-04  4084   0.109E-02    0.538E-02
RMM:   7    -0.229383819732E+04    0.25205E-04   -0.13511E-04  3156   0.956E-03    0.186E-02
RMM:   8    -0.229383819902E+04   -0.16986E-05   -0.30953E-05  2831   0.502E-03
  23 F= -.23140805E+04 E0= -.23140805E+04  d E =-.398540E-02  mag=     4.0000
       N       E                     dE             d eps       ncg     rms          rms(c)
DAV:   1    -0.229383133024E+04    0.68671E-02   -0.28236E-01  4528   0.405E-01    0.183E-01
RMM:   2    -0.229383808313E+04   -0.67529E-02   -0.70037E-02  6077   0.860E-02    0.147E-01
RMM:   3    -0.229383880900E+04   -0.72587E-03   -0.67540E-03  3907   0.341E-02    0.174E-01
RMM:   4    -0.229383860486E+04    0.20414E-03   -0.76127E-04  2901   0.898E-03    0.471E-02
RMM:   5    -0.229383858221E+04    0.22649E-04   -0.68566E-05  2834   0.425E-03    0.300E-02
RMM:   6    -0.229383856987E+04    0.12342E-04   -0.41795E-05  2869   0.423E-03    0.104E-02
RMM:   7    -0.229383857066E+04   -0.79005E-06   -0.80191E-06  2799   0.350E-03
  24 F= -.23140806E+04 E0= -.23140806E+04  d E =-.408933E-02  mag=     4.0000
       N       E                     dE             d eps       ncg     rms          rms(c)
DAV:   1    -0.229381969734E+04    0.18873E-01   -0.84812E-01  4388   0.724E-01    0.335E-01
RMM:   2    -0.229384043806E+04   -0.20741E-01   -0.21077E-01  5898   0.154E-01    0.361E-01
RMM:   3    -0.229384216476E+04   -0.17267E-02   -0.20487E-02  5192   0.655E-02    0.327E-01
RMM:   4    -0.229384144520E+04    0.71956E-03   -0.25197E-03  3774   0.156E-02    0.805E-02
RMM:   5    -0.229384137470E+04    0.70494E-04   -0.20463E-04  2920   0.764E-03    0.524E-02
RMM:   6    -0.229384133540E+04    0.39302E-04   -0.12513E-04  3725   0.772E-03    0.242E-02
RMM:   7    -0.229384133246E+04    0.29429E-05   -0.29215E-05  2834   0.633E-03
  25 F= -.23140829E+04 E0= -.23140829E+04  d E =-.228402E-02  mag=     4.0000
       N       E                     dE             d eps       ncg     rms          rms(c)
DAV:   1    -0.229380978584E+04    0.31550E-01   -0.12967E+00  4376   0.895E-01    0.414E-01
RMM:   2    -0.229384144036E+04   -0.31655E-01   -0.32202E-01  5895   0.191E-01    0.443E-01
RMM:   3    -0.229384414317E+04   -0.27028E-02   -0.31847E-02  5360   0.852E-02    0.406E-01
RMM:   4    -0.229384304674E+04    0.10964E-02   -0.39043E-03  4442   0.194E-02    0.101E-01
RMM:   5    -0.229384293723E+04    0.10951E-03   -0.32009E-04  3071   0.917E-03    0.653E-02
RMM:   6    -0.229384287448E+04    0.62746E-04   -0.18200E-04  3970   0.907E-03    0.330E-02
RMM:   7    -0.229384286648E+04    0.80019E-05   -0.47912E-05  2845   0.748E-03
  26 F= -.23140838E+04 E0= -.23140838E+04  d E =-.322737E-02  mag=     4.0000
       N       E                     dE             d eps       ncg     rms          rms(c)
DAV:   1    -0.229381339355E+04    0.29481E-01   -0.12162E+00  4376   0.806E-01    0.409E-01
RMM:   2    -0.229384578694E+04   -0.32393E-01   -0.31596E-01  6066   0.182E-01    0.616E-01
RMM:   3    -0.229384638387E+04   -0.59693E-03   -0.32458E-02  5417   0.797E-02    0.303E-01
RMM:   4    -0.229384592814E+04    0.45573E-03   -0.39665E-03  4187   0.180E-02    0.936E-02
RMM:   5    -0.229384582607E+04    0.10207E-03   -0.18336E-04  3012   0.830E-03    0.715E-02
RMM:   6    -0.229384576648E+04    0.59591E-04   -0.19327E-04  3882   0.925E-03    0.255E-02
RMM:   7    -0.229384576587E+04    0.60810E-06   -0.46798E-05  2833   0.689E-03
  27 F= -.23140864E+04 E0= -.23140864E+04  d E =-.256499E-02  mag=     4.0000
       N       E                     dE             d eps       ncg     rms          rms(c)
DAV:   1    -0.229380152440E+04    0.44242E-01   -0.17042E+00  4376   0.955E-01    0.483E-01
RMM:   2    -0.229384684502E+04   -0.45321E-01   -0.44373E-01  6017   0.217E-01    0.710E-01
RMM:   3    -0.229384798901E+04   -0.11440E-02   -0.46134E-02  5483   0.956E-02    0.363E-01
RMM:   4    -0.229384732820E+04    0.66081E-03   -0.56168E-03  4541   0.213E-02    0.113E-01
RMM:   5    -0.229384717780E+04    0.15040E-03   -0.27290E-04  3169   0.969E-03    0.842E-02
RMM:   6    -0.229384709104E+04    0.86763E-04   -0.26547E-04  4005   0.105E-02    0.357E-02
RMM:   7    -0.229384708555E+04    0.54846E-05   -0.75064E-05  2855   0.821E-03
  28 F= -.23140873E+04 E0= -.23140873E+04  d E =-.348965E-02  mag=     4.0000
       N       E                     dE             d eps       ncg     rms          rms(c)
DAV:   1    -0.229381635552E+04    0.30736E-01   -0.12093E+00  4388   0.760E-01    0.403E-01
RMM:   2    -0.229384982037E+04   -0.33465E-01   -0.32449E-01  6115   0.178E-01    0.637E-01
RMM:   3    -0.229385015681E+04   -0.33644E-03   -0.33651E-02  5412   0.787E-02    0.274E-01
RMM:   4    -0.229384987643E+04    0.28038E-03   -0.40827E-03  3619   0.169E-02    0.931E-02
RMM:   5    -0.229384979045E+04    0.85977E-04   -0.16456E-04  2899   0.715E-03    0.756E-02
RMM:   6    -0.229384972956E+04    0.60896E-04   -0.19322E-04  3616   0.841E-03    0.244E-02
RMM:   7    -0.229384973040E+04   -0.84291E-06   -0.46896E-05  2835   0.597E-03
  29 F= -.23140897E+04 E0= -.23140897E+04  d E =-.237874E-02  mag=     4.0000
       N       E                     dE             d eps       ncg     rms          rms(c)
DAV:   1    -0.229372695962E+04    0.12277E+00   -0.45084E+00  4376   0.147E+00    0.780E-01
RMM:   2    -0.229385158099E+04   -0.12462E+00   -0.12072E+00  6138   0.347E-01    0.123E+00
RMM:   3    -0.229385325439E+04   -0.16734E-02   -0.13177E-01  5726   0.152E-01    0.523E-01
RMM:   4    -0.229385238872E+04    0.86567E-03   -0.15434E-02  4893   0.321E-02    0.180E-01
RMM:   5    -0.229385205588E+04    0.33285E-03   -0.64312E-04  3641   0.125E-02    0.147E-01
RMM:   6    -0.229385181372E+04    0.24216E-03   -0.76144E-04  4264   0.151E-02    0.484E-02
RMM:   7    -0.229385181081E+04    0.29142E-05   -0.17267E-04  2992   0.973E-03    0.206E-02
RMM:   8    -0.229385180603E+04    0.47791E-05   -0.23161E-05  2811   0.433E-03
  30 F= -.23140912E+04 E0= -.23140912E+04  d E =-.394527E-02  mag=     4.0000
       N       E                     dE             d eps       ncg     rms          rms(c)
DAV:   1    -0.229380738395E+04    0.44427E-01   -0.17362E+00  4388   0.936E-01    0.484E-01
RMM:   2    -0.229385375682E+04   -0.46373E-01   -0.46171E-01  6008   0.214E-01    0.638E-01
RMM:   3    -0.229385624988E+04   -0.24931E-02   -0.48162E-02  5493   0.951E-02    0.413E-01
RMM:   4    -0.229385523964E+04    0.10102E-02   -0.57346E-03  4470   0.213E-02    0.114E-01
RMM:   5    -0.229385510160E+04    0.13805E-03   -0.31375E-04  3033   0.904E-03    0.808E-02
RMM:   6    -0.229385502652E+04    0.75074E-04   -0.20853E-04  3940   0.923E-03    0.434E-02
RMM:   7    -0.229385501623E+04    0.10293E-04   -0.67901E-05  2847   0.771E-03    0.134E-02
RMM:   8    -0.229385501526E+04    0.96927E-06   -0.12043E-05  2814   0.357E-03
  31 F= -.23140940E+04 E0= -.23140940E+04  d E =-.273168E-02  mag=     4.0000
       N       E                     dE             d eps       ncg     rms          rms(c)
DAV:   1    -0.229380848220E+04    0.46534E-01   -0.17401E+00  4388   0.937E-01    0.482E-01
RMM:   2    -0.229385471383E+04   -0.46232E-01   -0.46207E-01  5942   0.214E-01    0.615E-01
RMM:   3    -0.229385750732E+04   -0.27935E-02   -0.48299E-02  5444   0.956E-02    0.419E-01
RMM:   4    -0.229385643950E+04    0.10678E-02   -0.56225E-03  4472   0.213E-02    0.116E-01
RMM:   5    -0.229385630984E+04    0.12966E-03   -0.34584E-04  3016   0.907E-03    0.808E-02
RMM:   6    -0.229385623140E+04    0.78440E-04   -0.21518E-04  3952   0.923E-03    0.459E-02
RMM:   7    -0.229385621855E+04    0.12851E-04   -0.70551E-05  2842   0.783E-03    0.133E-02
RMM:   8    -0.229385621762E+04    0.93057E-06   -0.13327E-05  2814   0.366E-03
  32 F= -.23140947E+04 E0= -.23140947E+04  d E =-.346097E-02  mag=     4.0000
       N       E                     dE             d eps       ncg     rms          rms(c)
DAV:   1    -0.229382450018E+04    0.31718E-01   -0.12208E+00  4388   0.784E-01    0.399E-01
RMM:   2    -0.229385640131E+04   -0.31901E-01   -0.33205E-01  5929   0.178E-01    0.307E-01
RMM:   3    -0.229386013310E+04   -0.37318E-02   -0.34265E-02  5249   0.799E-02    0.380E-01
RMM:   4    -0.229385913732E+04    0.99578E-03   -0.38603E-03  3653   0.176E-02    0.104E-01
RMM:   5    -0.229385903963E+04    0.97684E-04   -0.31051E-04  2935   0.818E-03    0.663E-02
RMM:   6    -0.229385897875E+04    0.60879E-04   -0.15092E-04  3698   0.766E-03    0.342E-02
RMM:   7    -0.229385896855E+04    0.10208E-04   -0.51234E-05  2845   0.679E-03    0.986E-03
RMM:   8    -0.229385896825E+04    0.29587E-06   -0.11988E-05  2817   0.381E-03
  33 F= -.23140969E+04 E0= -.23140969E+04  d E =-.222229E-02  mag=     4.0000
       N       E                     dE             d eps       ncg     rms          rms(c)
DAV:   1    -0.229382359861E+04    0.35370E-01   -0.12950E+00  4416   0.807E-01    0.411E-01
RMM:   2    -0.229385742247E+04   -0.33824E-01   -0.35212E-01  5906   0.183E-01    0.316E-01
RMM:   3    -0.229386138296E+04   -0.39605E-02   -0.36458E-02  5261   0.832E-02    0.392E-01
RMM:   4    -0.229386032071E+04    0.10622E-02   -0.40968E-03  3767   0.181E-02    0.107E-01
RMM:   5    -0.229386021647E+04    0.10424E-03   -0.33172E-04  2945   0.838E-03    0.685E-02
RMM:   6    -0.229386015073E+04    0.65740E-04   -0.15971E-04  3753   0.783E-03    0.354E-02
RMM:   7    -0.229386013912E+04    0.11610E-04   -0.55675E-05  2850   0.701E-03    0.104E-02
RMM:   8    -0.229386013862E+04    0.50201E-06   -0.13301E-05  2816   0.396E-03
  34 F= -.23140976E+04 E0= -.23140976E+04  d E =-.285393E-02  mag=     4.0000
       N       E                     dE             d eps       ncg     rms          rms(c)
DAV:   1    -0.229382440050E+04    0.35739E-01   -0.13667E+00  4388   0.828E-01    0.410E-01
RMM:   2    -0.229385958336E+04   -0.35183E-01   -0.36946E-01  5934   0.185E-01    0.233E-01
RMM:   3    -0.229386340918E+04   -0.38258E-02   -0.37727E-02  5039   0.857E-02    0.246E-01
RMM:   4    -0.229386319236E+04    0.21683E-03   -0.42173E-03  3276   0.162E-02    0.128E-01
RMM:   5    -0.229386304775E+04    0.14460E-03   -0.26935E-04  2892   0.789E-03    0.703E-02
RMM:   6    -0.229386297830E+04    0.69454E-04   -0.17178E-04  3486   0.719E-03    0.314E-02
RMM:   7    -0.229386297119E+04    0.71100E-05   -0.56706E-05  2836   0.656E-03
  35 F= -.23140998E+04 E0= -.23140998E+04  d E =-.226080E-02  mag=     4.0000
       N       E                     dE             d eps       ncg     rms          rms(c)
DAV:   1    -0.229375675208E+04    0.10623E+00   -0.38469E+00  4376   0.139E+00    0.687E-01
RMM:   2    -0.229385515899E+04   -0.98407E-01   -0.10350E+00  6042   0.310E-01    0.392E-01
RMM:   3    -0.229386602524E+04   -0.10866E-01   -0.10908E-01  5424   0.142E-01    0.389E-01
RMM:   4    -0.229386568686E+04    0.33838E-03   -0.11930E-02  4443   0.269E-02    0.238E-01
RMM:   5    -0.229386525991E+04    0.42695E-03   -0.85665E-04  3252   0.124E-02    0.130E-01
RMM:   6    -0.229386504719E+04    0.21272E-03   -0.52308E-04  4064   0.103E-02    0.694E-02
RMM:   7    -0.229386499839E+04    0.48792E-04   -0.20399E-04  3285   0.976E-03    0.253E-02
RMM:   8    -0.229386499496E+04    0.34297E-05   -0.44019E-05  2832   0.565E-03
  36 F= -.23141009E+04 E0= -.23141009E+04  d E =-.334057E-02  mag=     4.0000
       N       E                     dE             d eps       ncg     rms          rms(c)
DAV:   1    -0.229382239421E+04    0.42604E-01   -0.16605E+00  4388   0.939E-01    0.445E-01
RMM:   2    -0.229386371347E+04   -0.41319E-01   -0.43405E-01  5974   0.205E-01    0.273E-01
RMM:   3    -0.229386833984E+04   -0.46264E-02   -0.43950E-02  5239   0.902E-02    0.317E-01
RMM:   4    -0.229386780462E+04    0.53522E-03   -0.50227E-03  3524   0.184E-02    0.132E-01
RMM:   5    -0.229386765477E+04    0.14984E-03   -0.31146E-04  2938   0.856E-03    0.760E-02
RMM:   6    -0.229386757330E+04    0.81478E-04   -0.20425E-04  3751   0.817E-03    0.362E-02
RMM:   7    -0.229386756455E+04    0.87470E-05   -0.61265E-05  2847   0.706E-03
  37 F= -.23141029E+04 E0= -.23141029E+04  d E =-.196646E-02  mag=     4.0000
       N       E                     dE             d eps       ncg     rms          rms(c)
DAV:   1    -0.229381749240E+04    0.50081E-01   -0.18839E+00  4388   0.999E-01    0.474E-01
RMM:   2    -0.229386430056E+04   -0.46808E-01   -0.49195E-01  5971   0.219E-01    0.289E-01
RMM:   3    -0.229386955993E+04   -0.52594E-02   -0.49980E-02  5254   0.101E-01    0.336E-01
RMM:   4    -0.229386897409E+04    0.58585E-03   -0.56838E-03  3675   0.197E-02    0.143E-01
RMM:   5    -0.229386880115E+04    0.17294E-03   -0.34971E-04  2960   0.914E-03    0.817E-02
RMM:   6    -0.229386870791E+04    0.93237E-04   -0.23751E-04  3850   0.854E-03    0.393E-02
RMM:   7    -0.229386869522E+04    0.12696E-04   -0.74706E-05  2862   0.751E-03    0.124E-02
RMM:   8    -0.229386869492E+04    0.29325E-06   -0.16452E-05  2816   0.410E-03
  38 F= -.23141034E+04 E0= -.23141034E+04  d E =-.246412E-02  mag=     4.0000
       N       E                     dE             d eps       ncg     rms          rms(c)
DAV:   1    -0.229384730624E+04    0.21389E-01   -0.97376E-01  4436   0.793E-01    0.343E-01
RMM:   2    -0.229386956579E+04   -0.22260E-01   -0.22936E-01  5819   0.166E-01    0.328E-01
RMM:   3    -0.229387181161E+04   -0.22458E-02   -0.23009E-02  5194   0.731E-02    0.346E-01
RMM:   4    -0.229387101677E+04    0.79484E-03   -0.27443E-03  3901   0.167E-02    0.873E-02
RMM:   5    -0.229387095302E+04    0.63753E-04   -0.23574E-04  2952   0.793E-03    0.570E-02
RMM:   6    -0.229387090844E+04    0.44581E-04   -0.13858E-04  3886   0.844E-03    0.203E-02
RMM:   7    -0.229387090759E+04    0.85338E-06   -0.25953E-05  2831   0.667E-03
  39 F= -.23141052E+04 E0= -.23141052E+04  d E =-.182116E-02  mag=     4.0000
       N       E                     dE             d eps       ncg     rms          rms(c)
DAV:   1    -0.229385511700E+04    0.15791E-01   -0.68371E-01  4432   0.664E-01    0.287E-01
RMM:   2    -0.229387065332E+04   -0.15536E-01   -0.16033E-01  5862   0.139E-01    0.272E-01
RMM:   3    -0.229387223215E+04   -0.15788E-02   -0.16033E-02  5038   0.626E-02    0.291E-01
RMM:   4    -0.229387166968E+04    0.56246E-03   -0.19417E-03  3391   0.141E-02    0.730E-02
RMM:   5    -0.229387162082E+04    0.48858E-04   -0.15294E-04  2885   0.691E-03    0.474E-02
RMM:   6    -0.229387159009E+04    0.30729E-04   -0.10117E-04  3630   0.741E-03    0.159E-02
RMM:   7    -0.229387158991E+04    0.18135E-06   -0.18119E-05  2827   0.580E-03
  40 F= -.23141055E+04 E0= -.23141055E+04  d E =-.217896E-02  mag=     4.0000
       N       E                     dE             d eps       ncg     rms          rms(c)
DAV:   1    -0.229384636934E+04    0.25221E-01   -0.12596E+00  4388   0.932E-01    0.376E-01
RMM:   2    -0.229387300780E+04   -0.26638E-01   -0.26697E-01  5810   0.189E-01    0.476E-01
RMM:   3    -0.229387462483E+04   -0.16170E-02   -0.28599E-02  5225   0.872E-02    0.323E-01
RMM:   4    -0.229387401746E+04    0.60736E-03   -0.34224E-03  4424   0.187E-02    0.966E-02
RMM:   5    -0.229387392674E+04    0.90728E-04   -0.21915E-04  3086   0.908E-03    0.651E-02
RMM:   6    -0.229387388566E+04    0.41072E-04   -0.16347E-04  3996   0.937E-03    0.322E-02
RMM:   7    -0.229387388216E+04    0.35003E-05   -0.39206E-05  2841   0.752E-03
  41 F= -.23141075E+04 E0= -.23141075E+04  d E =-.196449E-02  mag=     4.0000
       N       E                     dE             d eps       ncg     rms          rms(c)
DAV:   1    -0.229386317308E+04    0.10713E-01   -0.51399E-01  4420   0.594E-01    0.240E-01
RMM:   2    -0.229387397784E+04   -0.10805E-01   -0.10865E-01  5775   0.120E-01    0.297E-01
RMM:   3    -0.229387461615E+04   -0.63832E-03   -0.11126E-02  4855   0.561E-02    0.209E-01
RMM:   4    -0.229387437597E+04    0.24019E-03   -0.13762E-03  3236   0.122E-02    0.611E-02
RMM:   5    -0.229387434192E+04    0.34044E-04   -0.10151E-04  2870   0.624E-03    0.412E-02
RMM:   6    -0.229387432505E+04    0.16868E-04   -0.71254E-05  3269   0.661E-03    0.183E-02
RMM:   7    -0.229387432477E+04    0.28417E-06   -0.16827E-05  2825   0.533E-03
  42 F= -.23141077E+04 E0= -.23141077E+04  d E =-.220110E-02  mag=     4.0000
       N       E                     dE             d eps       ncg     rms          rms(c)
DAV:   1    -0.229385725899E+04    0.17066E-01   -0.95317E-01  4420   0.861E-01    0.314E-01
RMM:   2    -0.229387514027E+04   -0.17881E-01   -0.18159E-01  5698   0.167E-01    0.355E-01
RMM:   3    -0.229387651652E+04   -0.13762E-02   -0.19554E-02  5043   0.792E-02    0.285E-01
RMM:   4    -0.229387599524E+04    0.52127E-03   -0.22856E-03  4126   0.163E-02    0.826E-02
RMM:   5    -0.229387593124E+04    0.64008E-04   -0.19385E-04  3008   0.839E-03    0.526E-02
RMM:   6    -0.229387590022E+04    0.31019E-04   -0.12562E-04  3947   0.865E-03    0.268E-02
RMM:   7    -0.229387589740E+04    0.28129E-05   -0.28898E-05  2834   0.701E-03
  43 F= -.23141091E+04 E0= -.23141091E+04  d E =-.133702E-02  mag=     4.0000
       N       E                     dE             d eps       ncg     rms          rms(c)
DAV:   1    -0.229387324804E+04    0.26522E-02   -0.14413E-01  4528   0.335E-01    0.122E-01
RMM:   2    -0.229387593768E+04   -0.26896E-02   -0.27445E-02  5790   0.654E-02    0.135E-01
RMM:   3    -0.229387614699E+04   -0.20931E-03   -0.28426E-03  3791   0.299E-02    0.114E-01
RMM:   4    -0.229387606373E+04    0.83253E-04   -0.31444E-04  2875   0.724E-03    0.320E-02
RMM:   5    -0.229387605467E+04    0.90591E-05   -0.35598E-05  2842   0.381E-03
  44 F= -.23141091E+04 E0= -.23141091E+04  d E =-.140426E-02  mag=     4.0000
       N       E                     dE             d eps       ncg     rms          rms(c)
DAV:   1    -0.229386377346E+04    0.12290E-01   -0.78970E-01  4420   0.853E-01    0.286E-01
RMM:   2    -0.229387634075E+04   -0.12567E-01   -0.13362E-01  5607   0.158E-01    0.147E-01
RMM:   3    -0.229387766218E+04   -0.13214E-02   -0.13957E-02  4842   0.742E-02    0.167E-01
RMM:   4    -0.229387754312E+04    0.11907E-03   -0.15764E-03  3774   0.142E-02    0.953E-02
RMM:   5    -0.229387745956E+04    0.83551E-04   -0.14356E-04  3170   0.856E-03    0.433E-02
RMM:   6    -0.229387743031E+04    0.29251E-04   -0.10625E-04  3953   0.851E-03    0.139E-02
RMM:   7    -0.229387742995E+04    0.36327E-06   -0.16686E-05  2824   0.665E-03
  45 F= -.23141102E+04 E0= -.23141102E+04  d E =-.110639E-02  mag=     4.0000
       N       E                     dE             d eps       ncg     rms          rms(c)
DAV:   1    -0.229387653136E+04    0.89895E-03   -0.54874E-02  4624   0.225E-01    0.761E-02
RMM:   2    -0.229387740799E+04   -0.87663E-03   -0.93643E-03  5656   0.425E-02    0.397E-02
RMM:   3    -0.229387750227E+04   -0.94278E-04   -0.96023E-04  3282   0.197E-02    0.491E-02
RMM:   4    -0.229387749024E+04    0.12024E-04   -0.10540E-04  2850   0.452E-03    0.233E-02
RMM:   5    -0.229387748499E+04    0.52563E-05   -0.10852E-05  2823   0.261E-03
  46 F= -.23141102E+04 E0= -.23141102E+04  d E =-.109145E-02  mag=     4.0000
       N       E                     dE             d eps       ncg     rms          rms(c)
DAV:   1    -0.229386453238E+04    0.12958E-01   -0.83206E-01  4420   0.890E-01    0.276E-01
RMM:   2    -0.229387759982E+04   -0.13067E-01   -0.13758E-01  5528   0.161E-01    0.176E-01
RMM:   3    -0.229387898802E+04   -0.13882E-02   -0.14227E-02  4729   0.759E-02    0.215E-01
RMM:   4    -0.229387882532E+04    0.16270E-03   -0.16380E-03  3852   0.146E-02    0.944E-02
RMM:   5    -0.229387873386E+04    0.91464E-04   -0.16444E-04  3063   0.849E-03    0.516E-02
RMM:   6    -0.229387870107E+04    0.32788E-04   -0.11748E-04  3890   0.826E-03    0.311E-02
RMM:   7    -0.229387869431E+04    0.67554E-05   -0.20779E-05  2823   0.663E-03
  47 F= -.23141111E+04 E0= -.23141111E+04  d E =-.819763E-03  mag=     4.0000
       N       E                     dE             d eps       ncg     rms          rms(c)
DAV:   1    -0.229387753173E+04    0.11693E-02   -0.74634E-02  4528   0.266E-01    0.835E-02
RMM:   2    -0.229387870354E+04   -0.11718E-02   -0.12351E-02  5793   0.495E-02    0.582E-02
RMM:   3    -0.229387883051E+04   -0.12697E-03   -0.12500E-03  3358   0.212E-02    0.746E-02
RMM:   4    -0.229387880483E+04    0.25676E-04   -0.14216E-04  2848   0.539E-03    0.267E-02
RMM:   5    -0.229387879758E+04    0.72544E-05   -0.16949E-05  2816   0.301E-03
  48 F= -.23141110E+04 E0= -.23141110E+04  d E =-.807538E-03  mag=     4.0000
       N       E                     dE             d eps       ncg     rms          rms(c)
DAV:   1    -0.229386573768E+04    0.13067E-01   -0.93853E-01  4420   0.967E-01    0.294E-01
RMM:   2    -0.229387928489E+04   -0.13547E-01   -0.14063E-01  5664   0.174E-01    0.240E-01
RMM:   3    -0.229388060131E+04   -0.13164E-02   -0.14110E-02  4897   0.744E-02    0.274E-01
RMM:   4    -0.229388019663E+04    0.40467E-03   -0.15849E-03  4435   0.165E-02    0.948E-02
RMM:   5    -0.229388010334E+04    0.93296E-04   -0.24209E-04  3439   0.971E-03    0.519E-02
RMM:   6    -0.229388007115E+04    0.32185E-04   -0.13228E-04  3989   0.886E-03    0.350E-02
RMM:   7    -0.229388006222E+04    0.89294E-05   -0.26053E-05  2819   0.722E-03
  49 F= -.23141118E+04 E0= -.23141118E+04  d E =-.741679E-03  mag=     4.0000
       N       E                     dE             d eps       ncg     rms          rms(c)
DAV:   1    -0.229387999430E+04    0.76851E-04   -0.33002E-03  5176   0.572E-02    0.170E-02
RMM:   2    -0.229388003933E+04   -0.45024E-04   -0.46976E-04  3692   0.115E-02    0.115E-02
RMM:   3    -0.229388004366E+04   -0.43384E-05   -0.45501E-05  2783   0.598E-03
  50 F= -.23141118E+04 E0= -.23141118E+04  d E =-.753416E-03  mag=     4.0000
       N       E                     dE             d eps       ncg     rms          rms(c)
DAV:   1    -0.229387601977E+04    0.40196E-02   -0.39074E-01  4420   0.639E-01    0.193E-01
RMM:   2    -0.229388074261E+04   -0.47228E-02   -0.49152E-02  5415   0.113E-01    0.167E-01
RMM:   3    -0.229388116271E+04   -0.42010E-03   -0.49048E-03  4532   0.505E-02    0.189E-01
RMM:   4    -0.229388093150E+04    0.23120E-03   -0.55695E-04  3744   0.112E-02    0.515E-02
RMM:   5    -0.229388089824E+04    0.33261E-04   -0.88237E-05  2989   0.749E-03    0.312E-02
RMM:   6    -0.229388088602E+04    0.12218E-04   -0.58480E-05  3593   0.699E-03    0.188E-02
RMM:   7    -0.229388088332E+04    0.27025E-05   -0.11817E-05  2811   0.559E-03
  51 F= -.23141123E+04 E0= -.23141123E+04  d E =-.537932E-03  mag=     4.0000
       N       E                     dE             d eps       ncg     rms          rms(c)
DAV:   1    -0.229388087806E+04    0.79642E-05   -0.15037E-04  5080   0.126E-02    0.442E-03
RMM:   2    -0.229388087957E+04   -0.15116E-05   -0.16179E-05  2734   0.290E-03
  52 F= -.23141123E+04 E0= -.23141123E+04  d E =-.539709E-03  mag=     4.0000
       N       E                     dE             d eps       ncg     rms          rms(c)
DAV:   1    -0.229387930720E+04    0.15709E-02   -0.21198E-01  4420   0.476E-01    0.135E-01
RMM:   2    -0.229388131265E+04   -0.20054E-02   -0.21239E-02  5394   0.824E-02    0.100E-01
RMM:   3    -0.229388149851E+04   -0.18586E-03   -0.19428E-03  4258   0.356E-02    0.135E-01
RMM:   4    -0.229388137966E+04    0.11885E-03   -0.24820E-04  3017   0.828E-03    0.344E-02
RMM:   5    -0.229388136609E+04    0.13569E-04   -0.46488E-05  2839   0.568E-03    0.246E-02
RMM:   6    -0.229388135930E+04    0.67927E-05   -0.28870E-05  2937   0.544E-03
  53 F= -.23141127E+04 E0= -.23141127E+04  d E =-.369294E-03  mag=     4.0000
       N       E                     dE             d eps       ncg     rms          rms(c)
DAV:   1    -0.229388131757E+04    0.48515E-04   -0.53822E-03  4952   0.762E-02    0.225E-02
RMM:   2    -0.229388137033E+04   -0.52755E-04   -0.57122E-04  4658   0.158E-02    0.121E-02
RMM:   3    -0.229388137607E+04   -0.57456E-05   -0.52019E-05  2819   0.650E-03
  54 F= -.23141127E+04 E0= -.23141127E+04  d E =-.368227E-03  mag=     4.0000
       N       E                     dE             d eps       ncg     rms          rms(c)
DAV:   1    -0.229388026092E+04    0.11094E-02   -0.19120E-01  4420   0.452E-01    0.118E-01
RMM:   2    -0.229388176132E+04   -0.15004E-02   -0.15979E-02  5580   0.770E-02    0.771E-02
RMM:   3    -0.229388188669E+04   -0.12536E-03   -0.14059E-03  4058   0.297E-02    0.108E-01
RMM:   4    -0.229388181610E+04    0.70582E-04   -0.17859E-04  2931   0.733E-03    0.329E-02
RMM:   5    -0.229388180509E+04    0.11016E-04   -0.34911E-05  2829   0.532E-03    0.252E-02
RMM:   6    -0.229388179912E+04    0.59647E-05   -0.26183E-05  2896   0.516E-03
  55 F= -.23141130E+04 E0= -.23141130E+04  d E =-.334961E-03  mag=     4.0000
       N       E                     dE             d eps       ncg     rms          rms(c)
DAV:   1    -0.229388155780E+04    0.24729E-03   -0.33863E-02  4512   0.190E-01    0.508E-02
RMM:   2    -0.229388182619E+04   -0.26839E-03   -0.28777E-03  5860   0.346E-02    0.318E-02
RMM:   3    -0.229388185097E+04   -0.24783E-04   -0.23976E-04  3014   0.114E-02    0.503E-02
RMM:   4    -0.229388183439E+04    0.16581E-04   -0.34462E-05  2832   0.396E-03    0.128E-02
RMM:   5    -0.229388183210E+04    0.22899E-05   -0.75179E-06  2807   0.253E-03
  56 F= -.23141130E+04 E0= -.23141130E+04  d E =-.330754E-03  mag=     4.0000
       N       E                     dE             d eps       ncg     rms          rms(c)
DAV:   1    -0.229388109309E+04    0.74130E-03   -0.16400E-01  4408   0.420E-01    0.108E-01
RMM:   2    -0.229388228279E+04   -0.11897E-02   -0.12539E-02  5481   0.702E-02    0.859E-02
RMM:   3    -0.229388237371E+04   -0.90915E-04   -0.10643E-03  3980   0.273E-02    0.110E-01
RMM:   4    -0.229388229137E+04    0.82334E-04   -0.15104E-04  2899   0.714E-03    0.274E-02
RMM:   5    -0.229388228205E+04    0.93223E-05   -0.30750E-05  2833   0.509E-03
  57 F= -.23141134E+04 E0= -.23141134E+04  d E =-.324352E-03  mag=     4.0000
       N       E                     dE             d eps       ncg     rms          rms(c)
DAV:   1    -0.229388177613E+04    0.51525E-03   -0.81214E-02  4420   0.295E-01    0.758E-02
RMM:   2    -0.229388235221E+04   -0.57608E-03   -0.62264E-03  5891   0.510E-02    0.415E-02
RMM:   3    -0.229388239397E+04   -0.41759E-04   -0.52727E-04  3515   0.183E-02    0.564E-02
RMM:   4    -0.229388237758E+04    0.16394E-04   -0.72291E-05  2850   0.511E-03    0.233E-02
RMM:   5    -0.229388237225E+04    0.53234E-05   -0.14612E-05  2818   0.356E-03
  58 F= -.23141134E+04 E0= -.23141134E+04  d E =-.325807E-03  mag=     4.0000
       N       E                     dE             d eps       ncg     rms          rms(c)
DAV:   1    -0.229388105911E+04    0.13185E-02   -0.19955E-01  4408   0.464E-01    0.120E-01
RMM:   2    -0.229388285348E+04   -0.17944E-02   -0.18343E-02  5687   0.796E-02    0.129E-01
RMM:   3    -0.229388292485E+04   -0.71363E-04   -0.16295E-03  4033   0.302E-02    0.111E-01
RMM:   4    -0.229388284152E+04    0.83328E-04   -0.21592E-04  2952   0.794E-03    0.312E-02
RMM:   5    -0.229388282655E+04    0.14969E-04   -0.33074E-05  2835   0.545E-03    0.183E-02
RMM:   6    -0.229388282280E+04    0.37526E-05   -0.25589E-05  2888   0.536E-03
  59 F= -.23141136E+04 E0= -.23141136E+04  d E =-.288067E-03  mag=     4.0000
       N       E                     dE             d eps       ncg     rms          rms(c)
DAV:   1    -0.229388246220E+04    0.36435E-03   -0.50134E-02  4464   0.233E-01    0.617E-02
RMM:   2    -0.229388293564E+04   -0.47345E-03   -0.47269E-03  5981   0.420E-02    0.778E-02
RMM:   3    -0.229388293367E+04    0.19749E-05   -0.39358E-04  3217   0.133E-02    0.536E-02
RMM:   4    -0.229388291471E+04    0.18963E-04   -0.53883E-05  2835   0.455E-03    0.147E-02
RMM:   5    -0.229388291104E+04    0.36678E-05   -0.97717E-06  2822   0.300E-03
  60 F= -.23141137E+04 E0= -.23141137E+04  d E =-.295085E-03  mag=     4.0000
       N       E                     dE             d eps       ncg     rms          rms(c)
DAV:   1    -0.229388186559E+04    0.10491E-02   -0.14070E-01  4408   0.393E-01    0.121E-01
RMM:   2    -0.229388343421E+04   -0.15686E-02   -0.15286E-02  5783   0.708E-02    0.160E-01
RMM:   3    -0.229388338433E+04    0.49884E-04   -0.13807E-03  3838   0.265E-02    0.931E-02
RMM:   4    -0.229388332166E+04    0.62669E-04   -0.17379E-04  2945   0.761E-03    0.274E-02
RMM:   5    -0.229388330708E+04    0.14581E-04   -0.38221E-05  2924   0.584E-03    0.134E-02
RMM:   6    -0.229388330539E+04    0.16932E-05   -0.17983E-05  2842   0.534E-03
  61 F= -.23141139E+04 E0= -.23141139E+04  d E =-.277846E-03  mag=     4.0000
       N       E                     dE             d eps       ncg     rms          rms(c)
DAV:   1    -0.229388327266E+04    0.34424E-04   -0.42073E-03  5064   0.685E-02    0.222E-02
RMM:   2    -0.229388332399E+04   -0.51338E-04   -0.48722E-04  4512   0.145E-02    0.320E-02
RMM:   3    -0.229388332081E+04    0.31838E-05   -0.48711E-05  2811   0.638E-03
  62 F= -.23141139E+04 E0= -.23141139E+04  d E =-.272879E-03  mag=     4.0000
       N       E                     dE             d eps       ncg     rms          rms(c)
DAV:   1    -0.229388330259E+04    0.21405E-04   -0.11528E-03  4388   0.358E-02    0.116E-02
RMM:   2    -0.229388331451E+04   -0.11925E-04   -0.12099E-04  3121   0.747E-03    0.142E-02
RMM:   3    -0.229388331467E+04   -0.15792E-06   -0.12846E-05  2517   0.418E-03
  63 F= -.23141139E+04 E0= -.23141139E+04  d E =-.277183E-03  mag=     4.0000
       N       E                     dE             d eps       ncg     rms          rms(c)
DAV:   1    -0.229388271387E+04    0.60064E-03   -0.75168E-02  4420   0.286E-01    0.919E-02
RMM:   2    -0.229388372279E+04   -0.10089E-02   -0.93447E-03  5729   0.525E-02    0.149E-01
RMM:   3    -0.229388362092E+04    0.10187E-03   -0.87490E-04  3549   0.211E-02    0.544E-02
RMM:   4    -0.229388359954E+04    0.21377E-04   -0.10449E-04  2860   0.583E-03    0.204E-02
RMM:   5    -0.229388359110E+04    0.84373E-05   -0.20259E-05  2839   0.447E-03
  64 F= -.23141141E+04 E0= -.23141141E+04  d E =-.175591E-03  mag=     4.0000
       N       E                     dE             d eps       ncg     rms          rms(c)
DAV:   1    -0.229388358258E+04    0.16961E-04   -0.16558E-03  5176   0.427E-02    0.147E-02
RMM:   2    -0.229388360531E+04   -0.22732E-04   -0.21459E-04  3394   0.961E-03    0.233E-02
RMM:   3    -0.229388360332E+04    0.19979E-05   -0.22826E-05  2705   0.535E-03
  65 F= -.23141141E+04 E0= -.23141141E+04  d E =-.172290E-03  mag=     4.0000
       N       E                     dE             d eps       ncg     rms          rms(c)
DAV:   1    -0.229388306986E+04    0.53546E-03   -0.68729E-02  4420   0.273E-01    0.884E-02
RMM:   2    -0.229388403846E+04   -0.96861E-03   -0.86478E-03  5881   0.512E-02    0.158E-01
RMM:   3    -0.229388389555E+04    0.14291E-03   -0.80674E-04  3460   0.188E-02    0.435E-02
RMM:   4    -0.229388388367E+04    0.11879E-04   -0.96843E-05  2852   0.555E-03    0.202E-02
RMM:   5    -0.229388387694E+04    0.67327E-05   -0.20148E-05  2837   0.436E-03
  66 F= -.23141143E+04 E0= -.23141143E+04  d E =-.152024E-03  mag=     4.0000
       N       E                     dE             d eps       ncg     rms          rms(c)
DAV:   1    -0.229388386887E+04    0.14797E-04   -0.22334E-03  5072   0.493E-02    0.174E-02
RMM:   2    -0.229388390310E+04   -0.34224E-04   -0.28529E-04  3686   0.111E-02    0.354E-02
RMM:   3    -0.229388389555E+04    0.75431E-05   -0.31090E-05  2760   0.577E-03
  67 F= -.23141143E+04 E0= -.23141143E+04  d E =-.148041E-03  mag=     4.0000
       N       E                     dE             d eps       ncg     rms          rms(c)
DAV:   1    -0.229388351915E+04    0.38394E-03   -0.67573E-02  4420   0.270E-01    0.825E-02
RMM:   2    -0.229388433605E+04   -0.81689E-03   -0.72627E-03  5859   0.495E-02    0.148E-01
RMM:   3    -0.229388420328E+04    0.13277E-03   -0.65374E-04  3427   0.176E-02    0.427E-02
RMM:   4    -0.229388419000E+04    0.13284E-04   -0.84365E-05  2850   0.541E-03    0.191E-02
RMM:   5    -0.229388418396E+04    0.60340E-05   -0.18528E-05  2835   0.424E-03
  68 F= -.23141144E+04 E0= -.23141144E+04  d E =-.153587E-03  mag=     4.0000
       N       E                     dE             d eps       ncg     rms          rms(c)
DAV:   1    -0.229388417577E+04    0.14229E-04   -0.36951E-03  4840   0.632E-02    0.205E-02
RMM:   2    -0.229388422211E+04   -0.46341E-04   -0.40122E-04  4314   0.137E-02    0.390E-02
RMM:   3    -0.229388421306E+04    0.90488E-05   -0.41316E-05  2810   0.592E-03
  69 F= -.23141144E+04 E0= -.23141144E+04  d E =-.150433E-03  mag=     4.0000
       N       E                     dE             d eps       ncg     rms          rms(c)
DAV:   1    -0.229388401536E+04    0.20675E-03   -0.52441E-02  4420   0.236E-01    0.712E-02
RMM:   2    -0.229388454967E+04   -0.53431E-03   -0.48545E-03  5828   0.426E-02    0.117E-01
RMM:   3    -0.229388447316E+04    0.76508E-04   -0.44632E-04  3269   0.148E-02    0.449E-02
RMM:   4    -0.229388445694E+04    0.16222E-04   -0.53965E-05  2844   0.477E-03    0.160E-02
RMM:   5    -0.229388445225E+04    0.46897E-05   -0.13610E-05  2827   0.370E-03
  70 F= -.23141146E+04 E0= -.23141146E+04  d E =-.148736E-03  mag=     4.0000
       N       E                     dE             d eps       ncg     rms          rms(c)
DAV:   1    -0.229388430832E+04    0.14862E-03   -0.26117E-02  4416   0.166E-01    0.505E-02
RMM:   2    -0.229388456848E+04   -0.26015E-03   -0.24014E-03  5915   0.315E-02    0.790E-02
RMM:   3    -0.229388453702E+04    0.31459E-04   -0.22105E-04  2945   0.103E-02    0.340E-02
RMM:   4    -0.229388452776E+04    0.92633E-05   -0.26484E-05  2831   0.381E-03
  71 F= -.23141146E+04 E0= -.23141146E+04  d E =-.159922E-03  mag=     4.0000
       N       E                     dE             d eps       ncg     rms          rms(c)
DAV:   1    -0.229388436460E+04    0.17242E-03   -0.47371E-02  4408   0.220E-01    0.644E-02
RMM:   2    -0.229388479439E+04   -0.42979E-03   -0.42041E-03  5715   0.388E-02    0.856E-02
RMM:   3    -0.229388477699E+04    0.17398E-04   -0.40362E-04  3287   0.154E-02    0.534E-02
RMM:   4    -0.229388475431E+04    0.22686E-04   -0.50115E-05  2838   0.448E-03    0.150E-02
RMM:   5    -0.229388474977E+04    0.45379E-05   -0.12854E-05  2820   0.339E-03
  72 F= -.23141147E+04 E0= -.23141147E+04  d E =-.154099E-03  mag=     4.0000
       N       E                     dE             d eps       ncg     rms          rms(c)
DAV:   1    -0.229388438824E+04    0.36607E-03   -0.57109E-02  4408   0.241E-01    0.728E-02
RMM:   2    -0.229388492373E+04   -0.53549E-03   -0.51500E-03  5933   0.443E-02    0.102E-01
RMM:   3    -0.229388488891E+04    0.34817E-04   -0.49076E-04  3314   0.150E-02    0.583E-02
RMM:   4    -0.229388486210E+04    0.26805E-04   -0.60873E-05  2841   0.502E-03    0.157E-02
RMM:   5    -0.229388485719E+04    0.49176E-05   -0.14735E-05  2828   0.359E-03
  73 F= -.23141147E+04 E0= -.23141147E+04  d E =-.187061E-03  mag=     4.0000
       N       E                     dE             d eps       ncg     rms          rms(c)
DAV:   1    -0.229388465570E+04    0.20640E-03   -0.49803E-02  4408   0.224E-01    0.699E-02
RMM:   2    -0.229388513955E+04   -0.48385E-03   -0.46733E-03  5957   0.419E-02    0.963E-02
RMM:   3    -0.229388511229E+04    0.27260E-04   -0.44826E-04  3232   0.144E-02    0.576E-02
RMM:   4    -0.229388508645E+04    0.25847E-04   -0.53484E-05  2841   0.487E-03    0.149E-02
RMM:   5    -0.229388508259E+04    0.38556E-05   -0.13036E-05  2830   0.337E-03
  74 F= -.23141149E+04 E0= -.23141149E+04  d E =-.165465E-03  mag=     4.0000
       N       E                     dE             d eps       ncg     rms          rms(c)
DAV:   1    -0.229388478024E+04    0.30621E-03   -0.45531E-02  4420   0.214E-01    0.667E-02
RMM:   2    -0.229388522463E+04   -0.44439E-03   -0.42927E-03  5964   0.400E-02    0.922E-02
RMM:   3    -0.229388519923E+04    0.25404E-04   -0.40992E-04  3188   0.139E-02    0.547E-02
RMM:   4    -0.229388517594E+04    0.23286E-04   -0.49598E-05  2841   0.473E-03    0.144E-02
RMM:   5    -0.229388517214E+04    0.38060E-05   -0.12188E-05  2828   0.326E-03
  75 F= -.23141149E+04 E0= -.23141149E+04  d E =-.197753E-03  mag=     4.0000
       N       E                     dE             d eps       ncg     rms          rms(c)
DAV:   1    -0.229388493580E+04    0.24014E-03   -0.52331E-02  4408   0.232E-01    0.754E-02
RMM:   2    -0.229388548045E+04   -0.54465E-03   -0.51624E-03  5952   0.434E-02    0.108E-01
RMM:   3    -0.229388543390E+04    0.46549E-04   -0.47214E-04  3351   0.154E-02    0.562E-02
RMM:   4    -0.229388540850E+04    0.25400E-04   -0.58764E-05  2840   0.507E-03    0.155E-02
RMM:   5    -0.229388540368E+04    0.48179E-05   -0.15018E-05  2829   0.369E-03
  76 F= -.23141151E+04 E0= -.23141151E+04  d E =-.163339E-03  mag=     4.0000
       N       E                     dE             d eps       ncg     rms          rms(c)
DAV:   1    -0.229388529544E+04    0.11306E-03   -0.17354E-02  4512   0.133E-01    0.435E-02
RMM:   2    -0.229388547698E+04   -0.18154E-03   -0.17318E-03  5757   0.265E-02    0.611E-02
RMM:   3    -0.229388546348E+04    0.13503E-04   -0.16124E-04  2884   0.926E-03    0.331E-02
RMM:   4    -0.229388545480E+04    0.86768E-05   -0.20537E-05  2827   0.342E-03
  77 F= -.23141151E+04 E0= -.23141151E+04  d E =-.174964E-03  mag=     4.0000
       N       E                     dE             d eps       ncg     rms          rms(c)
DAV:   1    -0.229388512440E+04    0.33908E-03   -0.56565E-02  4376   0.241E-01    0.768E-02
RMM:   2    -0.229388582865E+04   -0.70425E-03   -0.64291E-03  5782   0.442E-02    0.130E-01
RMM:   3    -0.229388574046E+04    0.88186E-04   -0.58990E-04  3406   0.175E-02    0.441E-02
RMM:   4    -0.229388572530E+04    0.15163E-04   -0.69747E-05  2848   0.477E-03    0.170E-02
RMM:   5    -0.229388571953E+04    0.57711E-05   -0.14401E-05  2827   0.362E-03
  78 F= -.23141153E+04 E0= -.23141153E+04  d E =-.161843E-03  mag=     4.0000
       N       E                     dE             d eps       ncg     rms          rms(c)
DAV:   1    -0.229388561888E+04    0.10643E-03   -0.15173E-02  4448   0.125E-01    0.411E-02
RMM:   2    -0.229388581354E+04   -0.19466E-03   -0.17533E-03  5701   0.251E-02    0.719E-02
RMM:   3    -0.229388578468E+04    0.28863E-04   -0.15513E-04  2868   0.873E-03    0.232E-02
RMM:   4    -0.229388578068E+04    0.39980E-05   -0.20198E-05  2836   0.323E-03
  79 F= -.23141153E+04 E0= -.23141153E+04  d E =-.169325E-03  mag=     4.0000
       N       E                     dE             d eps       ncg     rms          rms(c)
DAV:   1    -0.229388529376E+04    0.49091E-03   -0.67207E-02  4376   0.265E-01    0.869E-02
RMM:   2    -0.229388617574E+04   -0.88198E-03   -0.81789E-03  5782   0.491E-02    0.140E-01
RMM:   3    -0.229388608191E+04    0.93830E-04   -0.76267E-04  3508   0.197E-02    0.513E-02
RMM:   4    -0.229388606081E+04    0.21104E-04   -0.90262E-05  2852   0.531E-03    0.191E-02
RMM:   5    -0.229388605261E+04    0.81978E-05   -0.19011E-05  2832   0.408E-03
  80 F= -.23141155E+04 E0= -.23141155E+04  d E =-.158919E-03  mag=     4.0000
       N       E                     dE             d eps       ncg     rms          rms(c)
DAV:   1    -0.229388600185E+04    0.58953E-04   -0.76915E-03  4664   0.895E-02    0.307E-02
RMM:   2    -0.229388610755E+04   -0.10570E-03   -0.96171E-04  5258   0.189E-02    0.528E-02
RMM:   3    -0.229388609258E+04    0.14969E-04   -0.86850E-05  2839   0.700E-03    0.173E-02
RMM:   4    -0.229388609027E+04    0.23095E-05   -0.11488E-05  2828   0.271E-03
  81 F= -.23141154E+04 E0= -.23141154E+04  d E =-.157829E-03  mag=     4.0000
       N       E                     dE             d eps       ncg     rms          rms(c)
DAV:   1    -0.229388544001E+04    0.65258E-03   -0.70755E-02  4376   0.269E-01    0.864E-02
RMM:   2    -0.229388644288E+04   -0.10029E-02   -0.92098E-03  5811   0.505E-02    0.151E-01
RMM:   3    -0.229388632735E+04    0.11553E-03   -0.85933E-04  3487   0.200E-02    0.471E-02
RMM:   4    -0.229388631190E+04    0.15454E-04   -0.10163E-04  2852   0.532E-03    0.199E-02
RMM:   5    -0.229388630426E+04    0.76393E-05   -0.17746E-05  2834   0.392E-03
  82 F= -.23141156E+04 E0= -.23141156E+04  d E =-.134649E-03  mag=     4.0000
       N       E                     dE             d eps       ncg     rms          rms(c)
DAV:   1    -0.229388627548E+04    0.36413E-04   -0.36294E-03  4880   0.609E-02    0.209E-02
RMM:   2    -0.229388632847E+04   -0.52990E-04   -0.47595E-04  4292   0.132E-02    0.386E-02
RMM:   3    -0.229388632035E+04    0.81290E-05   -0.45981E-05  2815   0.593E-03
  83 F= -.23141156E+04 E0= -.23141156E+04  d E =-.132413E-03  mag=     4.0000
       N       E                     dE             d eps       ncg     rms          rms(c)
DAV:   1    -0.229388578983E+04    0.53864E-03   -0.63143E-02  4376   0.258E-01    0.888E-02
RMM:   2    -0.229388661508E+04   -0.82525E-03   -0.75158E-03  5845   0.492E-02    0.144E-01
RMM:   3    -0.229388650255E+04    0.11252E-03   -0.69375E-04  3429   0.177E-02    0.527E-02
RMM:   4    -0.229388647956E+04    0.22995E-04   -0.86418E-05  2853   0.552E-03    0.192E-02
RMM:   5    -0.229388647152E+04    0.80413E-05   -0.20411E-05  2836   0.437E-03
  84 F= -.23141157E+04 E0= -.23141157E+04  d E =-.111873E-03  mag=     4.0000
       N       E                     dE             d eps       ncg     rms          rms(c)
DAV:   1    -0.229388646735E+04    0.12205E-04   -0.24129E-04  5048   0.168E-02    0.580E-03
RMM:   2    -0.229388646999E+04   -0.26355E-05   -0.27876E-05  2784   0.425E-03
  85 F= -.23141157E+04 E0= -.23141157E+04  d E =-.112475E-03  mag=     4.0000
       N       E                     dE             d eps       ncg     rms          rms(c)
DAV:   1    -0.229388633231E+04    0.13504E-03   -0.27200E-02  4388   0.170E-01    0.562E-02
RMM:   2    -0.229388661517E+04   -0.28286E-03   -0.28011E-03  5886   0.325E-02    0.676E-02
RMM:   3    -0.229388660919E+04    0.59826E-05   -0.26870E-04  3147   0.129E-02    0.480E-02
RMM:   4    -0.229388659002E+04    0.19166E-04   -0.33159E-05  2826   0.412E-03    0.122E-02
RMM:   5    -0.229388658669E+04    0.33293E-05   -0.10010E-05  2816   0.310E-03
  86 F= -.23141158E+04 E0= -.23141158E+04  d E =-.698480E-04  mag=     4.0000
       N       E                     dE             d eps       ncg     rms          rms(c)
DAV:   1    -0.229388658735E+04    0.26754E-05   -0.68091E-05  5040   0.913E-03    0.391E-03
RMM:   2    -0.229388658806E+04   -0.71301E-06   -0.90639E-06  2534   0.243E-03
  87 F= -.23141158E+04 E0= -.23141158E+04  d E =-.686247E-04  mag=     4.0000
       N       E                     dE             d eps       ncg     rms          rms(c)
DAV:   1    -0.229388656096E+04    0.26386E-04   -0.19022E-02  4388   0.140E-01    0.459E-02
RMM:   2    -0.229388674151E+04   -0.18055E-03   -0.18236E-03  5708   0.261E-02    0.499E-02
RMM:   3    -0.229388674526E+04   -0.37511E-05   -0.18666E-04  2943   0.113E-02    0.433E-02
RMM:   4    -0.229388672975E+04    0.15511E-04   -0.23956E-05  2821   0.343E-03    0.105E-02
RMM:   5    -0.229388672730E+04    0.24464E-05   -0.74618E-06  2804   0.256E-03
  88 F= -.23141158E+04 E0= -.23141158E+04  d E =-.710659E-04  mag=     4.0000
       N       E                     dE             d eps       ncg     rms          rms(c)
DAV:   1    -0.229388673176E+04   -0.20156E-05   -0.18548E-03  4576   0.439E-02    0.147E-02
RMM:   2    -0.229388674907E+04   -0.17311E-04   -0.17925E-04  3354   0.944E-03    0.146E-02
RMM:   3    -0.229388675035E+04   -0.12718E-05   -0.20679E-05  2791   0.537E-03
  89 F= -.23141158E+04 E0= -.23141158E+04  d E =-.723604E-04  mag=     4.0000
       N       E                     dE             d eps       ncg     rms          rms(c)
DAV:   1    -0.229388670603E+04    0.43043E-04   -0.16140E-02  4388   0.128E-01    0.420E-02
RMM:   2    -0.229388688872E+04   -0.18269E-03   -0.17044E-03  5754   0.246E-02    0.636E-02
RMM:   3    -0.229388687003E+04    0.18692E-04   -0.16342E-04  2844   0.888E-03    0.294E-02
RMM:   4    -0.229388686296E+04    0.70721E-05   -0.19950E-05  2827   0.298E-03
  90 F= -.23141159E+04 E0= -.23141159E+04  d E =-.611491E-04  mag=     4.0000
       N       E                     dE             d eps       ncg     rms          rms(c)
DAV:   1    -0.229388683792E+04    0.32113E-04   -0.68331E-03  4400   0.832E-02    0.261E-02
RMM:   2    -0.229388690469E+04   -0.66769E-04   -0.68732E-04  5222   0.154E-02    0.271E-02
RMM:   3    -0.229388690721E+04   -0.25243E-05   -0.69341E-05  2821   0.687E-03
  91 F= -.23141159E+04 E0= -.23141159E+04  d E =-.715095E-04  mag=     4.0000
       N       E                     dE             d eps       ncg     rms          rms(c)
DAV:   1    -0.229388686960E+04    0.35090E-04   -0.14848E-02  4388   0.123E-01    0.406E-02
RMM:   2    -0.229388705611E+04   -0.18651E-03   -0.17090E-03  5701   0.235E-02    0.670E-02
RMM:   3    -0.229388703178E+04    0.24326E-04   -0.16393E-04  2835   0.792E-03    0.249E-02
RMM:   4    -0.229388702662E+04    0.51654E-05   -0.21277E-05  2840   0.289E-03
  92 F= -.23141160E+04 E0= -.23141160E+04  d E =-.660644E-04  mag=     4.0000
       N       E                     dE             d eps       ncg     rms          rms(c)
DAV:   1    -0.229388688665E+04    0.14513E-03   -0.20154E-02  4376   0.143E-01    0.454E-02
RMM:   2    -0.229388711143E+04   -0.22478E-03   -0.22226E-03  5741   0.265E-02    0.576E-02
RMM:   3    -0.229388710800E+04    0.34263E-05   -0.22431E-04  2931   0.113E-02    0.363E-02
RMM:   4    -0.229388709682E+04    0.11185E-04   -0.25602E-05  2821   0.321E-03    0.113E-02
RMM:   5    -0.229388709389E+04    0.29282E-05   -0.76429E-06  2792   0.247E-03
  93 F= -.23141160E+04 E0= -.23141160E+04  d E =-.708351E-04  mag=     4.0000
       N       E                     dE             d eps       ncg     rms          rms(c)
DAV:   1    -0.229388706476E+04    0.32060E-04   -0.16842E-03  4560   0.415E-02    0.142E-02
RMM:   2    -0.229388708792E+04   -0.23162E-04   -0.19106E-04  3335   0.897E-03    0.294E-02
RMM:   3    -0.229388708243E+04    0.54846E-05   -0.20584E-05  2702   0.492E-03
  94 F= -.23141160E+04 E0= -.23141160E+04  d E =-.769145E-04  mag=     4.0000
       N       E                     dE             d eps       ncg     rms          rms(c)
DAV:   1    -0.229388703094E+04    0.56979E-04   -0.15816E-02  4400   0.125E-01    0.424E-02
RMM:   2    -0.229388723818E+04   -0.20724E-03   -0.19339E-03  5715   0.242E-02    0.670E-02
RMM:   3    -0.229388721876E+04    0.19420E-04   -0.19456E-04  2853   0.934E-03    0.282E-02
RMM:   4    -0.229388721228E+04    0.64839E-05   -0.21261E-05  2822   0.284E-03
  95 F= -.23141160E+04 E0= -.23141160E+04  d E =-.642807E-04  mag=     4.0000
       N       E                     dE             d eps       ncg     rms          rms(c)
DAV:   1    -0.229388716957E+04    0.49190E-04   -0.91073E-03  4400   0.947E-02    0.310E-02
RMM:   2    -0.229388728390E+04   -0.11433E-03   -0.10983E-03  5470   0.180E-02    0.452E-02
RMM:   3    -0.229388727734E+04    0.65569E-05   -0.10788E-04  2841   0.788E-03    0.213E-02
RMM:   4    -0.229388727342E+04    0.39217E-05   -0.13053E-05  2820   0.230E-03
  96 F= -.23141161E+04 E0= -.23141161E+04  d E =-.752590E-04  mag=     4.0000
       N       E                     dE             d eps       ncg     rms          rms(c)
DAV:   1    -0.229388727019E+04    0.71575E-05   -0.11103E-02  4388   0.106E-01    0.367E-02
RMM:   2    -0.229388740247E+04   -0.13229E-03   -0.12670E-03  5593   0.203E-02    0.506E-02
RMM:   3    -0.229388739385E+04    0.86209E-05   -0.12164E-04  2848   0.856E-03    0.266E-02
RMM:   4    -0.229388738762E+04    0.62320E-05   -0.15071E-05  2822   0.263E-03
  97 F= -.23141161E+04 E0= -.23141161E+04  d E =-.591958E-04  mag=     4.0000
       N       E                     dE             d eps       ncg     rms          rms(c)
DAV:   1    -0.229388739475E+04   -0.89701E-06   -0.10900E-03  4896   0.333E-02    0.117E-02
RMM:   2    -0.229388740661E+04   -0.11862E-04   -0.12388E-04  3007   0.694E-03    0.128E-02
RMM:   3    -0.229388740700E+04   -0.39072E-06   -0.14194E-05  2657   0.409E-03
  98 F= -.23141161E+04 E0= -.23141161E+04  d E =-.609176E-04  mag=     4.0000
       N       E                     dE             d eps       ncg     rms          rms(c)
DAV:   1    -0.229388740849E+04   -0.18784E-05   -0.59529E-03  4400   0.785E-02    0.283E-02
RMM:   2    -0.229388748762E+04   -0.79129E-04   -0.71925E-04  5209   0.155E-02    0.442E-02
RMM:   3    -0.229388747741E+04    0.10212E-04   -0.70910E-05  2817   0.703E-03    0.173E-02
RMM:   4    -0.229388747494E+04    0.24708E-05   -0.91826E-06  2803   0.211E-03
  99 F= -.23141162E+04 E0= -.23141162E+04  d E =-.389542E-04  mag=     4.0000
       N       E                     dE             d eps       ncg     rms          rms(c)
DAV:   1    -0.229388746540E+04    0.12004E-04   -0.34041E-03  4432   0.593E-02    0.205E-02
RMM:   2    -0.229388750342E+04   -0.38022E-04   -0.38884E-04  4188   0.115E-02    0.205E-02
RMM:   3    -0.229388750524E+04   -0.18162E-05   -0.40250E-05  2809   0.605E-03
 100 F= -.23141162E+04 E0= -.23141162E+04  d E =-.470860E-04  mag=     4.0000
       N       E                     dE             d eps       ncg     rms          rms(c)
DAV:   1    -0.229388749532E+04    0.81078E-05   -0.53807E-03  4388   0.732E-02    0.252E-02
RMM:   2    -0.229388757678E+04   -0.81459E-04   -0.74257E-04  4983   0.148E-02    0.430E-02
RMM:   3    -0.229388756730E+04    0.94723E-05   -0.74453E-05  2811   0.587E-03
 101 F= -.23141162E+04 E0= -.23141162E+04  d E =-.286502E-04  mag=     4.0000
       N       E                     dE             d eps       ncg     rms          rms(c)
DAV:   1    -0.229388757228E+04    0.44944E-05   -0.72714E-04  4648   0.267E-02    0.116E-02
RMM:   2    -0.229388758563E+04   -0.13346E-04   -0.11093E-04  2905   0.603E-03    0.248E-02
RMM:   3    -0.229388758153E+04    0.40981E-05   -0.11215E-05  2531   0.337E-03
 102 F= -.23141162E+04 E0= -.23141162E+04  d E =-.305368E-04  mag=     4.0000
       N       E                     dE             d eps       ncg     rms          rms(c)
DAV:   1    -0.229388760110E+04   -0.15476E-04   -0.39996E-03  4400   0.659E-02    0.240E-02
RMM:   2    -0.229388765167E+04   -0.50569E-04   -0.46744E-04  4701   0.130E-02    0.346E-02
RMM:   3    -0.229388764656E+04    0.51122E-05   -0.46652E-05  2811   0.638E-03
 103 F= -.23141162E+04 E0= -.23141162E+04  d E =-.362318E-04  mag=     4.0000
       N       E                     dE             d eps       ncg     rms          rms(c)
DAV:   1    -0.229388765077E+04    0.89858E-06   -0.69656E-04  4616   0.275E-02    0.120E-02
RMM:   2    -0.229388765878E+04   -0.80005E-05   -0.83784E-05  2876   0.591E-03
 104 F= -.23141162E+04 E0= -.23141162E+04  d E =-.362921E-04  mag=     4.0000
       N       E                     dE             d eps       ncg     rms          rms(c)
DAV:   1    -0.229388766928E+04   -0.18508E-04   -0.27365E-03  4400   0.549E-02    0.219E-02
RMM:   2    -0.229388771134E+04   -0.42057E-04   -0.32256E-04  3832   0.122E-02    0.457E-02
RMM:   3    -0.229388769759E+04    0.13752E-04   -0.37051E-05  2802   0.631E-03    0.112E-02
RMM:   4    -0.229388769612E+04    0.14675E-05   -0.56494E-06  2739   0.229E-03
 105 F= -.23141163E+04 E0= -.23141163E+04  d E =-.170425E-04  mag=     4.0000
       N       E                     dE             d eps       ncg     rms          rms(c)
DAV:   1    -0.229388769947E+04   -0.18799E-05   -0.51709E-04  4624   0.238E-02    0.792E-03
RMM:   2    -0.229388770459E+04   -0.51195E-05   -0.53834E-05  2827   0.531E-03
 106 F= -.23141163E+04 E0= -.23141163E+04  d E =-.164050E-04  mag=     4.0000
       N       E                     dE             d eps       ncg     rms          rms(c)
DAV:   1    -0.229388770029E+04   -0.82361E-06   -0.12288E-04  4512   0.119E-02    0.101E-02
RMM:   2    -0.229388770905E+04   -0.87578E-05   -0.22944E-05  2499   0.292E-03
 107 F= -.23141163E+04 E0= -.23141163E+04  d E =-.250205E-04  mag=     4.0000
       N       E                     dE             d eps       ncg     rms          rms(c)
DAV:   1    -0.229388770266E+04   -0.23714E-05   -0.22820E-03  4336   0.495E-02    0.164E-02
RMM:   2    -0.229388773133E+04   -0.28672E-04   -0.26931E-04  3534   0.106E-02    0.239E-02
RMM:   3    -0.229388772960E+04    0.17317E-05   -0.31000E-05  2594   0.601E-03
 108 F= -.23141163E+04 E0= -.23141163E+04  d E =-.747150E-05  mag=     4.0000
       N       E                     dE             d eps       ncg     rms          rms(c)
DAV:   1    -0.229388773190E+04   -0.56435E-06   -0.13892E-04  4800   0.122E-02    0.604E-03
RMM:   2    -0.229388773413E+04   -0.22295E-05   -0.19233E-05  2413   0.309E-03
 109 F= -.23141163E+04 E0= -.23141163E+04  d E =-.880259E-05  mag=     4.0000
       N       E                     dE             d eps       ncg     rms          rms(c)
DAV:   1    -0.229388774015E+04   -0.82528E-05   -0.24438E-03  4388   0.515E-02    0.174E-02
RMM:   2    -0.229388776509E+04   -0.24937E-04   -0.24104E-04  3522   0.107E-02    0.221E-02
RMM:   3    -0.229388776460E+04    0.49124E-06   -0.28057E-05  2719   0.615E-03
 110 F= -.23141163E+04 E0= -.23141163E+04  d E =-.192516E-04  mag=     4.0000
       N       E                     dE             d eps       ncg     rms          rms(c)
DAV:   1    -0.229388776515E+04   -0.66473E-07   -0.20669E-04  4736   0.150E-02    0.682E-03
RMM:   2    -0.229388776686E+04   -0.17101E-05   -0.22609E-05  2546   0.362E-03
 111 F= -.23141163E+04 E0= -.23141163E+04  d E =-.182052E-04  mag=     4.0000
       N       E                     dE             d eps       ncg     rms          rms(c)
DAV:   1    -0.229388778206E+04   -0.16907E-04   -0.19126E-03  4376   0.451E-02    0.171E-02
RMM:   2    -0.229388780915E+04   -0.27090E-04   -0.19965E-04  3313   0.986E-03    0.368E-02
RMM:   3    -0.229388780021E+04    0.89371E-05   -0.25099E-05  2620   0.558E-03
 112 F= -.23141163E+04 E0= -.23141163E+04  d E =-.134366E-04  mag=     4.0000
       N       E                     dE             d eps       ncg     rms          rms(c)
DAV:   1    -0.229388780702E+04    0.21272E-05   -0.37787E-04  4296   0.200E-02    0.811E-03
RMM:   2    -0.229388781195E+04   -0.49291E-05   -0.41073E-05  2793   0.485E-03
 113 F= -.23141163E+04 E0= -.23141163E+04  d E =-.162388E-04  mag=     4.0000
       N       E                     dE             d eps       ncg     rms          rms(c)
DAV:   1    -0.229388782045E+04   -0.13423E-04   -0.16493E-03  4352   0.419E-02    0.138E-02
RMM:   2    -0.229388783826E+04   -0.17814E-04   -0.17129E-04  3246   0.949E-03    0.184E-02
RMM:   3    -0.229388783804E+04    0.22599E-06   -0.20776E-05  2601   0.528E-03
 114 F= -.23141163E+04 E0= -.23141163E+04  d E =-.118799E-04  mag=     4.0000
       N       E                     dE             d eps       ncg     rms          rms(c)
DAV:   1    -0.229388784220E+04   -0.39389E-05   -0.75268E-04  4272   0.282E-02    0.967E-03
RMM:   2    -0.229388784945E+04   -0.72525E-05   -0.76669E-05  2886   0.642E-03
 115 F= -.23141163E+04 E0= -.23141163E+04  d E =-.135965E-04  mag=     4.0000
       N       E                     dE             d eps       ncg     rms          rms(c)
DAV:   1    -0.229388785816E+04   -0.15958E-04   -0.17614E-03  4336   0.432E-02    0.180E-02
RMM:   2    -0.229388789098E+04   -0.32817E-04   -0.22893E-04  3348   0.105E-02    0.434E-02
RMM:   3    -0.229388787793E+04    0.13044E-04   -0.26386E-05  2704   0.549E-03    0.795E-03
RMM:   4    -0.229388787733E+04    0.60137E-06   -0.41962E-06  2447   0.219E-03
 116 F= -.23141163E+04 E0= -.23141163E+04  d E =-.124836E-04  mag=     4.0000
       N       E                     dE             d eps       ncg     rms          rms(c)
DAV:   1    -0.229388788203E+04   -0.41002E-05   -0.47538E-04  4296   0.224E-02    0.715E-03
RMM:   2    -0.229388788700E+04   -0.49698E-05   -0.51954E-05  2808   0.521E-03
 117 F= -.23141163E+04 E0= -.23141163E+04  d E =-.139686E-04  mag=     4.0000
       N       E                     dE             d eps       ncg     rms          rms(c)
DAV:   1    -0.229388789563E+04   -0.13599E-04   -0.16960E-03  4336   0.418E-02    0.142E-02
RMM:   2    -0.229388791624E+04   -0.20611E-04   -0.21273E-04  3365   0.984E-03    0.125E-02
RMM:   3    -0.229388791904E+04   -0.27941E-05   -0.27315E-05  2629   0.552E-03
 118 F= -.23141163E+04 E0= -.23141163E+04  d E =-.156784E-04  mag=     4.0000
       N       E                     dE             d eps       ncg     rms          rms(c)
DAV:   1    -0.229388792035E+04   -0.41125E-05   -0.66801E-05  5008   0.846E-03    0.499E-03
RMM:   2    -0.229388792092E+04   -0.56991E-06   -0.87711E-06  2330   0.223E-03
 119 F= -.23141163E+04 E0= -.23141163E+04  d E =-.144241E-04  mag=     4.0000
       N       E                     dE             d eps       ncg     rms          rms(c)
DAV:   1    -0.229388793595E+04   -0.15599E-04   -0.12066E-03  4288   0.357E-02    0.141E-02
RMM:   2    -0.229388795670E+04   -0.20748E-04   -0.15795E-04  3107   0.799E-03    0.311E-02
RMM:   3    -0.229388795032E+04    0.63806E-05   -0.18501E-05  2362   0.469E-03
 120 F= -.23141164E+04 E0= -.23141164E+04  d E =-.126315E-04  mag=     4.0000
       N       E                     dE             d eps       ncg     rms          rms(c)
DAV:   1    -0.229388795408E+04    0.26176E-05   -0.80295E-05  4696   0.916E-03    0.509E-03
RMM:   2    -0.229388795555E+04   -0.14641E-05   -0.12142E-05  2335   0.251E-03
 121 F= -.23141164E+04 E0= -.23141164E+04  d E =-.135174E-04  mag=     4.0000
       N       E                     dE             d eps       ncg     rms          rms(c)
DAV:   1    -0.229388796928E+04   -0.15192E-04   -0.10804E-03  4288   0.338E-02    0.116E-02
RMM:   2    -0.229388798250E+04   -0.13226E-04   -0.12703E-04  3046   0.749E-03    0.158E-02
RMM:   3    -0.229388798228E+04    0.22337E-06   -0.16165E-05  2311   0.452E-03
 122 F= -.23141164E+04 E0= -.23141164E+04  d E =-.838051E-05  mag=     4.0000
       N       E                     dE             d eps       ncg     rms          rms(c)
DAV:   1    -0.229388798391E+04   -0.14084E-05   -0.19655E-05  3560   0.480E-03    0.356E-03
RMM:   2    -0.229388798406E+04   -0.14482E-06   -0.34016E-06  2242   0.253E-03
 123 F= -.23141164E+04 E0= -.23141164E+04  d E =-.769143E-05  mag=     4.0000
       N       E                     dE             d eps       ncg     rms          rms(c)
DAV:   1    -0.229388799540E+04   -0.11486E-04   -0.11059E-03  4272   0.329E-02    0.113E-02
RMM:   2    -0.229388801137E+04   -0.15971E-04   -0.15131E-04  2958   0.677E-03    0.162E-02
RMM:   3    -0.229388801090E+04    0.46761E-06   -0.17383E-05  2291   0.419E-03
 124 F= -.23141164E+04 E0= -.23141164E+04  d E =-.919133E-05  mag=     4.0000
       N       E                     dE             d eps       ncg     rms          rms(c)
DAV:   1    -0.229388801796E+04   -0.65888E-05   -0.35230E-04  4120   0.185E-02    0.687E-03
RMM:   2    -0.229388802311E+04   -0.51536E-05   -0.49638E-05  2648   0.425E-03
 125 F= -.23141164E+04 E0= -.23141164E+04  d E =-.114100E-04  mag=     4.0000
       N       E                     dE             d eps       ncg     rms          rms(c)
DAV:   1    -0.229388802946E+04   -0.11507E-04   -0.11588E-03  4272   0.333E-02    0.122E-02
RMM:   2    -0.229388805037E+04   -0.20904E-04   -0.17349E-04  3067   0.791E-03    0.262E-02
RMM:   3    -0.229388804643E+04    0.39382E-05   -0.20522E-05  2449   0.448E-03
 126 F= -.23141164E+04 E0= -.23141164E+04  d E =-.111352E-04  mag=     4.0000
       N       E                     dE             d eps       ncg     rms          rms(c)
DAV:   1    -0.229388804968E+04    0.69069E-06   -0.79259E-04  4200   0.274E-02    0.988E-03
RMM:   2    -0.229388806231E+04   -0.12633E-04   -0.11213E-04  2877   0.628E-03    0.180E-02
RMM:   3    -0.229388806074E+04    0.15680E-05   -0.12909E-05  2402   0.369E-03
 127 F= -.23141164E+04 E0= -.23141164E+04  d E =-.153193E-04  mag=     4.0000
       N       E                     dE             d eps       ncg     rms          rms(c)
DAV:   1    -0.229388807202E+04   -0.97043E-05   -0.86812E-04  4172   0.284E-02    0.986E-03
RMM:   2    -0.229388808613E+04   -0.14112E-04   -0.13005E-04  2912   0.642E-03    0.164E-02
RMM:   3    -0.229388808518E+04    0.94966E-06   -0.14689E-05  2385   0.382E-03
 128 F= -.23141164E+04 E0= -.23141164E+04  d E =-.100730E-04  mag=     4.0000
       N       E                     dE             d eps       ncg     rms          rms(c)
DAV:   1    -0.229388809215E+04   -0.60225E-05   -0.56015E-04  4144   0.228E-02    0.815E-03
RMM:   2    -0.229388810105E+04   -0.89049E-05   -0.83011E-05  2781   0.530E-03
 129 F= -.23141164E+04 E0= -.23141164E+04  d E =-.144254E-04  mag=     4.0000
       N       E                     dE             d eps       ncg     rms          rms(c)
DAV:   1    -0.229388811438E+04   -0.22235E-04   -0.61780E-04  4144   0.246E-02    0.951E-03
RMM:   2    -0.229388812532E+04   -0.10939E-04   -0.94787E-05  2863   0.634E-03    0.183E-02
RMM:   3    -0.229388812376E+04    0.15632E-05   -0.12053E-05  2314   0.379E-03
 130 F= -.23141164E+04 E0= -.23141164E+04  d E =-.102851E-04  mag=     4.0000
       N       E                     dE             d eps       ncg     rms          rms(c)
DAV:   1    -0.229388813097E+04   -0.56433E-05   -0.70973E-04  4304   0.262E-02    0.970E-03
RMM:   2    -0.229388814100E+04   -0.10035E-04   -0.97544E-05  2850   0.593E-03    0.127E-02
RMM:   3    -0.229388814085E+04    0.14913E-06   -0.11513E-05  2380   0.361E-03
 131 F= -.23141164E+04 E0= -.23141164E+04  d E =-.138733E-04  mag=     4.0000
       N       E                     dE             d eps       ncg     rms          rms(c)
DAV:   1    -0.229388815167E+04   -0.10673E-04   -0.66640E-04  4112   0.249E-02    0.869E-03
RMM:   2    -0.229388816150E+04   -0.98269E-05   -0.96882E-05  2816   0.575E-03
 132 F= -.23141164E+04 E0= -.23141164E+04  d E =-.672782E-05  mag=     4.0000
       N       E                     dE             d eps       ncg     rms          rms(c)
DAV:   1    -0.229388816414E+04   -0.12467E-04   -0.39731E-05  3976   0.670E-03    0.740E-03
RMM:   2    -0.229388816816E+04   -0.40196E-05   -0.14284E-05  2341   0.387E-03
 133 F= -.23141164E+04 E0= -.23141164E+04  d E =-.105919E-04  mag=     4.0000
       N       E                     dE             d eps       ncg     rms          rms(c)
DAV:   1    -0.229388817257E+04   -0.84287E-05   -0.34892E-04  4104   0.178E-02    0.667E-03
RMM:   2    -0.229388817780E+04   -0.52318E-05   -0.53959E-05  2491   0.432E-03
 134 F= -.23141164E+04 E0= -.23141164E+04  d E =-.455790E-05  mag=     4.0000
       N       E                     dE             d eps       ncg     rms          rms(c)
DAV:   1    -0.229388818063E+04   -0.80635E-05   -0.35098E-04  4128   0.178E-02    0.998E-03
RMM:   2    -0.229388819115E+04   -0.10517E-04   -0.65402E-05  2700   0.508E-03    0.265E-02
RMM:   3    -0.229388818627E+04    0.48831E-05   -0.94604E-06  2259   0.306E-03
 135 F= -.23141164E+04 E0= -.23141164E+04  d E =-.783399E-05  mag=     4.0000
       N       E                     dE             d eps       ncg     rms          rms(c)
DAV:   1    -0.229388819116E+04   -0.99244E-08   -0.45109E-04  4096   0.201E-02    0.792E-03
RMM:   2    -0.229388819856E+04   -0.73969E-05   -0.69849E-05  2705   0.489E-03
 136 F= -.23141164E+04 E0= -.23141164E+04  d E =-.633366E-05  mag=     4.0000
       N       E                     dE             d eps       ncg     rms          rms(c)
DAV:   1    -0.229388819817E+04   -0.70109E-05   -0.99886E-06  3016   0.377E-03    0.597E-03
RMM:   2    -0.229388819997E+04   -0.18008E-05   -0.45697E-06  2055   0.148E-03
 137 F= -.23141164E+04 E0= -.23141164E+04  d E =-.772181E-05  mag=     4.0000
       N       E                     dE             d eps       ncg     rms          rms(c)
DAV:   1    -0.229388820775E+04   -0.95777E-05   -0.36922E-04  4088   0.182E-02    0.665E-03
RMM:   2    -0.229388821325E+04   -0.55052E-05   -0.55761E-05  2534   0.426E-03
 138 F= -.23141165E+04 E0= -.23141165E+04  d E =-.381717E-05  mag=     4.0000
       N       E                     dE             d eps       ncg     rms          rms(c)
DAV:   1    -0.229388821683E+04   -0.90809E-05   -0.51926E-05  3728   0.717E-03    0.735E-03
RMM:   2    -0.229388822197E+04   -0.51384E-05   -0.16434E-05  2362   0.300E-03
 139 F= -.23141165E+04 E0= -.23141165E+04  d E =-.925351E-05  mag=     4.0000
       N       E                     dE             d eps       ncg     rms          rms(c)
DAV:   1    -0.229388822694E+04   -0.10107E-04   -0.24622E-04  4200   0.149E-02    0.521E-03
RMM:   2    -0.229388823089E+04   -0.39556E-05   -0.41460E-05  2416   0.372E-03
 140 F= -.23141165E+04 E0= -.23141165E+04  d E =-.373218E-06  mag=     4.0000
