       N       E                     dE             d eps       ncg     rms          rms(c)
DAV:   1     0.131498416800E+05    0.13150E+05   -0.83744E+05  4488   0.145E+03
DAV:   2    -0.971430985997E+03   -0.14121E+05   -0.13486E+05  4912   0.332E+02
DAV:   3    -0.245845571915E+04   -0.14870E+04   -0.14684E+04  5504   0.116E+02
DAV:   4    -0.250578341894E+04   -0.47328E+02   -0.47079E+02  6688   0.303E+01
DAV:   5    -0.250670994097E+04   -0.92652E+00   -0.92443E+00  6264   0.355E+00    0.170E+02
RMM:   6    -0.148558327332E+04    0.10211E+04   -0.19168E+03  4427   0.380E+01    0.718E+01
RMM:   7    -0.165478388319E+04   -0.16920E+03   -0.28728E+02  5086   0.141E+01    0.464E+01
RMM:   8    -0.171125257134E+04   -0.56469E+02   -0.30129E+01  5364   0.647E+00    0.345E+01
RMM:   9    -0.186392776144E+04   -0.15268E+03   -0.70553E+01  4845   0.829E+00    0.379E+01
RMM:  10    -0.192055798874E+04   -0.56630E+02   -0.36217E+01  4993   0.550E+00    0.211E+01
RMM:  11    -0.202187679108E+04   -0.10132E+03   -0.43472E+01  4907   0.538E+00    0.189E+01
RMM:  12    -0.207006375137E+04   -0.48187E+02   -0.17338E+01  5173   0.354E+00    0.139E+01
RMM:  13    -0.218810002289E+04   -0.11804E+03   -0.82153E+01  4420   0.666E+00    0.106E+01
RMM:  14    -0.226386983599E+04   -0.75770E+02   -0.67129E+01  4506   0.580E+00    0.920E+00
RMM:  15    -0.228763777813E+04   -0.23768E+02   -0.25732E+01  4783   0.393E+00    0.864E+00
RMM:  16    -0.229097933420E+04   -0.33416E+01   -0.54407E+00  5521   0.156E+00    0.574E+00
RMM:  17    -0.229461264413E+04   -0.36333E+01   -0.21534E+00  4462   0.103E+00    0.543E+00
RMM:  18    -0.229539063100E+04   -0.77799E+00   -0.33597E-01  4955   0.497E-01    0.474E+00
RMM:  19    -0.229727132340E+04   -0.18807E+01   -0.10398E+00  4424   0.618E-01    0.187E+00
RMM:  20    -0.229809986119E+04   -0.82854E+00   -0.53948E-01  4433   0.448E-01    0.140E+00
RMM:  21    -0.229852020025E+04   -0.42034E+00   -0.28900E-01  4448   0.306E-01    0.830E-01
RMM:  22    -0.229884074342E+04   -0.32054E+00   -0.16125E-01  4520   0.233E-01    0.570E-01
RMM:  23    -0.229905708587E+04   -0.21634E+00   -0.96437E-02  4659   0.163E-01    0.357E-01
RMM:  24    -0.229917584217E+04   -0.11876E+00   -0.34846E-02  4574   0.110E-01    0.243E-01
RMM:  25    -0.229927415350E+04   -0.98311E-01   -0.22737E-02  4513   0.851E-02    0.141E-01
RMM:  26    -0.229931728277E+04   -0.43129E-01   -0.11088E-02  4576   0.734E-02    0.944E-02
RMM:  27    -0.229932892316E+04   -0.11640E-01   -0.36568E-03  5125   0.428E-02    0.521E-02
RMM:  28    -0.229933570575E+04   -0.67826E-02   -0.16630E-03  4447   0.258E-02    0.285E-02
RMM:  29    -0.229933832108E+04   -0.26153E-02   -0.67144E-04  4250   0.188E-02    0.149E-02
RMM:  30    -0.229933904550E+04   -0.72442E-03   -0.24070E-04  4034   0.111E-02    0.937E-03
RMM:  31    -0.229933930304E+04   -0.25753E-03   -0.87604E-05  3760   0.744E-03    0.530E-03
RMM:  32    -0.229933938393E+04   -0.80891E-04   -0.27398E-05  3057   0.490E-03    0.291E-03
RMM:  33    -0.229933940921E+04   -0.25282E-04   -0.87637E-06  2839   0.331E-03    0.178E-03
RMM:  34    -0.229933943077E+04   -0.21565E-04   -0.59206E-06  2766   0.256E-03    0.109E-03
RMM:  35    -0.229933943915E+04   -0.83798E-05   -0.30977E-06  2447   0.216E-03
   1 F= -.23204070E+04 E0= -.23204070E+04  d E =-.232041E+04  mag=     4.0001
