       N       E                     dE             d eps       ncg     rms          rms(c)
DAV:   1     0.131187864942E+05    0.13119E+05   -0.84366E+05  4536   0.145E+03
DAV:   2    -0.101235893967E+04   -0.14131E+05   -0.13511E+05  4952   0.331E+02
DAV:   3    -0.248204641769E+04   -0.14697E+04   -0.14510E+04  5552   0.115E+02
DAV:   4    -0.252817221477E+04   -0.46126E+02   -0.45869E+02  6720   0.295E+01
DAV:   5    -0.252906718182E+04   -0.89497E+00   -0.89249E+00  6192   0.343E+00    0.170E+02
RMM:   6    -0.150062046325E+04    0.10284E+04   -0.19594E+03  4472   0.383E+01    0.735E+01
RMM:   7    -0.168731132104E+04   -0.18669E+03   -0.29660E+02  5172   0.144E+01    0.631E+01
RMM:   8    -0.170991901460E+04   -0.22608E+02   -0.10167E+02  5376   0.873E+00    0.479E+01
RMM:   9    -0.176403651211E+04   -0.54117E+02   -0.58356E+01  4942   0.746E+00    0.344E+01
RMM:  10    -0.189782202868E+04   -0.13379E+03   -0.62470E+01  5159   0.780E+00    0.281E+01
RMM:  11    -0.197291769664E+04   -0.75096E+02   -0.30732E+01  5059   0.509E+00    0.240E+01
RMM:  12    -0.204922918185E+04   -0.76311E+02   -0.30476E+01  4989   0.448E+00    0.190E+01
RMM:  13    -0.210055205401E+04   -0.51323E+02   -0.18943E+01  5261   0.356E+00    0.153E+01
RMM:  14    -0.220289376445E+04   -0.10234E+03   -0.68010E+01  4459   0.592E+00    0.981E+00
RMM:  15    -0.228895717364E+04   -0.86063E+02   -0.79287E+01  4502   0.625E+00    0.620E+00
RMM:  16    -0.231177302340E+04   -0.22816E+02   -0.23784E+01  4579   0.410E+00    0.405E+00
RMM:  17    -0.231908511265E+04   -0.73121E+01   -0.88377E+00  4816   0.197E+00    0.243E+00
RMM:  18    -0.232162133786E+04   -0.25362E+01   -0.19186E+00  4850   0.116E+00    0.161E+00
RMM:  19    -0.232242487128E+04   -0.80353E+00   -0.53518E-01  5006   0.494E-01    0.180E+00
RMM:  20    -0.232251821293E+04   -0.93342E-01   -0.81454E-02  5605   0.218E-01    0.185E+00
RMM:  21    -0.232252227848E+04   -0.40655E-02   -0.89988E-03  5718   0.502E-02    0.185E+00
RMM:  22    -0.232248560423E+04    0.36674E-01   -0.39050E-02  4521   0.125E-01    0.138E+00
RMM:  23    -0.232270841753E+04   -0.22281E+00   -0.18302E-01  4529   0.210E-01    0.135E+00
RMM:  24    -0.232272917870E+04   -0.20761E-01   -0.10025E-01  4530   0.169E-01    0.155E+00
RMM:  25    -0.232254887675E+04    0.18030E+00   -0.12909E-01  4906   0.145E-01    0.213E+00
RMM:  26    -0.232286971243E+04   -0.32084E+00   -0.28417E-01  4475   0.191E-01    0.119E+00
RMM:  27    -0.232301991958E+04   -0.15021E+00   -0.24299E-01  4560   0.210E-01    0.114E+00
RMM:  28    -0.232306529688E+04   -0.45377E-01   -0.94665E-02  5267   0.190E-01    0.141E+00
RMM:  29    -0.232307524796E+04   -0.99511E-02   -0.28584E-02  5698   0.906E-02    0.151E+00
RMM:  30    -0.232307443156E+04    0.81640E-03   -0.21086E-03  4997   0.252E-02    0.145E+00
RMM:  31    -0.232307452642E+04   -0.94865E-04   -0.20560E-04  3913   0.836E-03    0.149E+00
RMM:  32    -0.232307297620E+04    0.15502E-02   -0.31944E-04  3451   0.951E-03    0.147E+00
RMM:  33    -0.232306704186E+04    0.59343E-02   -0.65297E-03  4501   0.344E-02    0.136E+00
RMM:  34    -0.232305732674E+04    0.97151E-02   -0.19208E-02  4841   0.604E-02    0.116E+00
RMM:  35    -0.232305306967E+04    0.42571E-02   -0.64681E-03  4863   0.376E-02    0.116E+00
RMM:  36    -0.232304445191E+04    0.86178E-02   -0.10437E-02  4793   0.421E-02    0.120E+00
RMM:  37    -0.232304436212E+04    0.89793E-04   -0.90744E-04  3925   0.218E-02    0.121E+00
RMM:  38    -0.232304337632E+04    0.98580E-03   -0.27771E-04  3486   0.711E-03    0.120E+00
RMM:  39    -0.232304712487E+04   -0.37486E-02   -0.10523E-03  4454   0.162E-02    0.122E+00
RMM:  40    -0.232303431285E+04    0.12812E-01   -0.96801E-03  4848   0.408E-02    0.133E+00
RMM:  41    -0.232303974020E+04   -0.54274E-02   -0.99543E-04  4154   0.189E-02    0.129E+00
RMM:  42    -0.232308461486E+04   -0.44875E-01   -0.92030E-02  4693   0.120E-01    0.202E+00
RMM:  43    -0.232314170335E+04   -0.57088E-01   -0.54124E-01  4944   0.287E-01    0.275E+00
RMM:  44    -0.232314047812E+04    0.12252E-02   -0.39591E-02  5067   0.122E-01    0.266E+00
RMM:  45    -0.232313975974E+04    0.71838E-03   -0.71803E-03  5037   0.245E-02    0.260E+00
RMM:  46    -0.232314177428E+04   -0.20145E-02   -0.45853E-04  3764   0.158E-02    0.256E+00
RMM:  47    -0.232315106020E+04   -0.92859E-02   -0.10156E-02  5041   0.394E-02    0.320E+00
RMM:  48    -0.232315175356E+04   -0.69336E-03   -0.51402E-04  3750   0.178E-02    0.313E+00
RMM:  49    -0.232315669149E+04   -0.49379E-02   -0.60128E-04  4104   0.103E-02    0.320E+00
RMM:  50    -0.232315411015E+04    0.25813E-02   -0.71782E-04  3430   0.121E-02    0.326E+00
RMM:  51    -0.232316022108E+04   -0.61109E-02   -0.18060E-03  4897   0.198E-02    0.348E+00
RMM:  52    -0.232315806945E+04    0.21516E-02   -0.17573E-03  4753   0.200E-02    0.341E+00
RMM:  53    -0.232315691325E+04    0.11562E-02   -0.14775E-03  4155   0.159E-02    0.335E+00
RMM:  54    -0.232315779421E+04   -0.88096E-03   -0.51692E-04  3347   0.110E-02    0.335E+00
RMM:  55    -0.232315491883E+04    0.28754E-02   -0.27979E-03  4208   0.210E-02    0.312E+00
RMM:  56    -0.232314233364E+04    0.12585E-01   -0.60608E-02  4885   0.974E-02    0.232E+00
RMM:  57    -0.232314386137E+04   -0.15277E-02   -0.39192E-02  4815   0.785E-02    0.177E+00
RMM:  58    -0.232314374141E+04    0.11996E-03   -0.11521E-02  5101   0.399E-02    0.160E+00
RMM:  59    -0.232313656634E+04    0.71751E-02   -0.40460E-03  5120   0.282E-02    0.120E+00
RMM:  60    -0.232313298635E+04    0.35800E-02   -0.74656E-03  4858   0.390E-02    0.110E+00
RMM:  61    -0.232313617929E+04   -0.31929E-02   -0.42402E-02  5024   0.831E-02    0.464E-01
RMM:  62    -0.232313717655E+04   -0.99726E-03   -0.57014E-03  4664   0.429E-02    0.547E-01
RMM:  63    -0.232313648519E+04    0.69136E-03   -0.23450E-03  4402   0.201E-02    0.460E-01
RMM:  64    -0.232313541251E+04    0.10727E-02   -0.11087E-02  5012   0.419E-02    0.668E-01
RMM:  65    -0.232313270861E+04    0.27039E-02   -0.85559E-03  4814   0.362E-02    0.836E-01
RMM:  66    -0.232313292770E+04   -0.21909E-03   -0.10700E-03  4864   0.195E-02    0.853E-01
RMM:  67    -0.232313012584E+04    0.28019E-02   -0.33072E-03  4821   0.250E-02    0.684E-01
RMM:  68    -0.232312878421E+04    0.13416E-02   -0.50982E-04  3780   0.137E-02    0.689E-01
RMM:  69    -0.232313164556E+04   -0.28614E-02   -0.13145E-03  4000   0.168E-02    0.684E-01
RMM:  70    -0.232313034776E+04    0.12978E-02   -0.68419E-03  4475   0.331E-02    0.778E-01
RMM:  71    -0.232312744786E+04    0.28999E-02   -0.70039E-03  4562   0.333E-02    0.878E-01
RMM:  72    -0.232312393141E+04    0.35164E-02   -0.18502E-02  4673   0.484E-02    0.109E+00
RMM:  73    -0.232312423722E+04   -0.30580E-03   -0.11936E-03  3735   0.241E-02    0.108E+00
RMM:  74    -0.232312404162E+04    0.19560E-03   -0.20834E-04  3104   0.656E-03    0.109E+00
RMM:  75    -0.232312115496E+04    0.28867E-02   -0.14636E-03  3863   0.144E-02    0.114E+00
RMM:  76    -0.232311966114E+04    0.14938E-02   -0.49051E-04  3401   0.120E-02    0.117E+00
RMM:  77    -0.232311934931E+04    0.31182E-03   -0.20457E-04  2991   0.659E-03    0.117E+00
RMM:  78    -0.232312016984E+04   -0.82053E-03   -0.36722E-05  2875   0.431E-03    0.114E+00
RMM:  79    -0.232312861564E+04   -0.84458E-02   -0.46924E-03  4383   0.280E-02    0.956E-01
RMM:  80    -0.232313272722E+04   -0.41116E-02   -0.29280E-03  4268   0.276E-02    0.905E-01
RMM:  81    -0.232314010029E+04   -0.73731E-02   -0.21330E-02  4638   0.571E-02    0.582E-01
RMM:  82    -0.232313996195E+04    0.13834E-03   -0.33325E-03  4141   0.311E-02    0.569E-01
RMM:  83    -0.232313962997E+04    0.33198E-03   -0.29792E-03  3944   0.205E-02    0.535E-01
RMM:  84    -0.232314160734E+04   -0.19774E-02   -0.44575E-03  4206   0.276E-02    0.485E-01
RMM:  85    -0.232314254354E+04   -0.93620E-03   -0.20408E-03  4002   0.216E-02    0.394E-01
RMM:  86    -0.232313942007E+04    0.31235E-02   -0.87692E-03  4824   0.396E-02    0.449E-01
RMM:  87    -0.232313936921E+04    0.50857E-04   -0.61016E-04  3510   0.165E-02    0.439E-01
RMM:  88    -0.232313999579E+04   -0.62657E-03   -0.40926E-04  3164   0.808E-03    0.441E-01
RMM:  89    -0.232313922955E+04    0.76624E-03   -0.18360E-04  3067   0.722E-03    0.455E-01
RMM:  90    -0.232314015493E+04   -0.92538E-03   -0.15832E-04  2990   0.626E-03    0.416E-01
RMM:  91    -0.232313813554E+04    0.20194E-02   -0.81828E-04  3580   0.111E-02    0.483E-01
RMM:  92    -0.232314064236E+04   -0.25068E-02   -0.19244E-03  3825   0.177E-02    0.422E-01
RMM:  93    -0.232314243741E+04   -0.17950E-02   -0.13245E-03  3639   0.150E-02    0.417E-01
RMM:  94    -0.232314237222E+04    0.65182E-04   -0.17819E-04  3067   0.796E-03    0.424E-01
RMM:  95    -0.232314170140E+04    0.67082E-03   -0.23851E-04  2985   0.749E-03    0.397E-01
RMM:  96    -0.232314085342E+04    0.84799E-03   -0.43848E-03  4222   0.264E-02    0.253E-01
RMM:  97    -0.232313954936E+04    0.13041E-02   -0.37809E-03  4249   0.260E-02    0.203E-01
RMM:  98    -0.232313990519E+04   -0.35584E-03   -0.53675E-03  4588   0.319E-02    0.119E-01
RMM:  99    -0.232314005959E+04   -0.15439E-03   -0.28205E-03  4102   0.251E-02    0.962E-02
RMM: 100    -0.232314022202E+04   -0.16244E-03   -0.87554E-04  3832   0.134E-02    0.846E-02
RMM: 101    -0.232314017353E+04    0.48491E-04   -0.32028E-04  3184   0.993E-03    0.829E-02
RMM: 102    -0.232314023049E+04   -0.56959E-04   -0.87118E-05  2949   0.570E-03    0.694E-02
RMM: 103    -0.232314030744E+04   -0.76945E-04   -0.41718E-05  2858   0.418E-03    0.531E-02
RMM: 104    -0.232314033631E+04   -0.28875E-04   -0.15495E-05  2785   0.302E-03    0.464E-02
RMM: 105    -0.232314037199E+04   -0.35680E-04   -0.37645E-05  2869   0.348E-03    0.335E-02
RMM: 106    -0.232314038518E+04   -0.13187E-04   -0.26945E-05  2845   0.328E-03    0.224E-02
RMM: 107    -0.232314039622E+04   -0.11040E-04   -0.36437E-05  2812   0.341E-03    0.186E-02
RMM: 108    -0.232314039456E+04    0.16568E-05   -0.87914E-06  2660   0.239E-03
   1 F= -.23444918E+04 E0= -.23444907E+04  d E =-.234449E+04  mag=     4.9961
       N       E                     dE             d eps       ncg     rms          rms(c)
DAV:   1    -0.232339909961E+04   -0.25870E+00   -0.28694E+01  4592   0.357E+00    0.152E+00
RMM:   2    -0.232384278934E+04   -0.44369E+00   -0.43228E+00  6598   0.963E-01    0.237E+00
RMM:   3    -0.232382336611E+04    0.19423E-01   -0.48720E-01  6361   0.373E-01    0.120E+00
RMM:   4    -0.232381694133E+04    0.64248E-02   -0.57616E-02  6122   0.929E-02    0.833E-01
RMM:   5    -0.232381200124E+04    0.49401E-02   -0.13471E-02  6058   0.500E-02    0.635E-01
RMM:   6    -0.232380923943E+04    0.27618E-02   -0.10808E-02  5248   0.450E-02    0.385E-01
RMM:   7    -0.232380934820E+04   -0.10876E-03   -0.40276E-03  4765   0.355E-02    0.347E-01
RMM:   8    -0.232381019805E+04   -0.84985E-03   -0.25665E-03  4977   0.224E-02    0.274E-01
RMM:   9    -0.232381085869E+04   -0.66064E-03   -0.13087E-03  4354   0.176E-02    0.270E-01
RMM:  10    -0.232381215138E+04   -0.12927E-02   -0.15692E-03  3922   0.150E-02    0.271E-01
RMM:  11    -0.232381158057E+04    0.57081E-03   -0.16566E-04  3110   0.104E-02    0.269E-01
RMM:  12    -0.232381182158E+04   -0.24101E-03   -0.24415E-05  2911   0.318E-03    0.269E-01
RMM:  13    -0.232381394594E+04   -0.21244E-02   -0.23980E-03  3948   0.191E-02    0.246E-01
RMM:  14    -0.232381908515E+04   -0.51392E-02   -0.10933E-01  4471   0.128E-01    0.330E-01
RMM:  15    -0.232381873908E+04    0.34607E-03   -0.38278E-02  4803   0.890E-02    0.194E-01
RMM:  16    -0.232382163674E+04   -0.28977E-02   -0.17248E-02  4426   0.619E-02    0.107E-01
RMM:  17    -0.232382193881E+04   -0.30207E-03   -0.98360E-04  3939   0.219E-02    0.423E-02
RMM:  18    -0.232382219169E+04   -0.25288E-03   -0.83150E-04  3859   0.128E-02    0.176E-02
RMM:  19    -0.232382226083E+04   -0.69134E-04   -0.72079E-05  3069   0.657E-03    0.103E-02
RMM:  20    -0.232382230828E+04   -0.47459E-04   -0.39799E-05  2984   0.388E-03    0.772E-03
RMM:  21    -0.232382233388E+04   -0.25598E-04   -0.13950E-05  2884   0.341E-03    0.575E-03
RMM:  22    -0.232382234651E+04   -0.12628E-04   -0.43372E-06  2595   0.228E-03    0.502E-03
RMM:  23    -0.232382235511E+04   -0.85955E-05   -0.51390E-06  2722   0.215E-03
   2 F= -.23451737E+04 E0= -.23451720E+04  d E =-.681976E+00  mag=     4.9601
       N       E                     dE             d eps       ncg     rms          rms(c)
DAV:   1    -0.232379331835E+04    0.29028E-01   -0.32163E+01  4532   0.403E+00    0.166E+00
RMM:   2    -0.232429044427E+04   -0.49713E+00   -0.50958E+00  6589   0.103E+00    0.190E+00
RMM:   3    -0.232429099578E+04   -0.55151E-03   -0.55493E-01  6383   0.395E-01    0.126E+00
RMM:   4    -0.232428040664E+04    0.10589E-01   -0.57159E-02  6007   0.940E-02    0.756E-01
RMM:   5    -0.232427739437E+04    0.30123E-02   -0.15366E-02  6112   0.510E-02    0.652E-01
RMM:   6    -0.232427275937E+04    0.46350E-02   -0.12647E-02  5620   0.517E-02    0.301E-01
RMM:   7    -0.232427222905E+04    0.53033E-03   -0.34789E-03  5029   0.313E-02    0.186E-01
RMM:   8    -0.232427216884E+04    0.60208E-04   -0.99715E-04  4415   0.162E-02    0.199E-01
RMM:   9    -0.232427197097E+04    0.19787E-03   -0.23741E-04  3078   0.905E-03    0.118E-01
RMM:  10    -0.232427196679E+04    0.41760E-05   -0.22848E-04  3397   0.760E-03    0.101E-01
RMM:  11    -0.232427200903E+04   -0.42235E-04   -0.20473E-04  3389   0.800E-03    0.102E-01
RMM:  12    -0.232427205475E+04   -0.45719E-04   -0.20797E-04  3243   0.774E-03    0.103E-01
RMM:  13    -0.232427199364E+04    0.61103E-04   -0.12112E-04  2972   0.627E-03    0.847E-02
RMM:  14    -0.232427187965E+04    0.11400E-03   -0.56097E-04  3698   0.952E-03    0.772E-02
RMM:  15    -0.232427163245E+04    0.24719E-03   -0.11326E-03  3999   0.138E-02    0.150E-01
RMM:  16    -0.232427199834E+04   -0.36589E-03   -0.11974E-03  4163   0.143E-02    0.853E-02
RMM:  17    -0.232427200415E+04   -0.58083E-05   -0.22926E-04  3051   0.844E-03    0.531E-02
RMM:  18    -0.232427214243E+04   -0.13828E-03   -0.54846E-04  3930   0.995E-03    0.588E-02
RMM:  19    -0.232427223232E+04   -0.89887E-04   -0.32190E-04  3162   0.898E-03    0.666E-02
RMM:  20    -0.232427223074E+04    0.15781E-05   -0.40267E-05  2936   0.424E-03
   3 F= -.23456237E+04 E0= -.23456155E+04  d E =-.113191E+01  mag=     4.7473
       N       E                     dE             d eps       ncg     rms          rms(c)
DAV:   1    -0.232210622549E+04    0.21660E+01   -0.12652E+02  4504   0.792E+00    0.482E+00
RMM:   2    -0.232467818893E+04   -0.25720E+01   -0.23566E+01  6605   0.245E+00    0.663E+00
RMM:   3    -0.232438563292E+04    0.29256E+00   -0.24820E+00  6078   0.879E-01    0.473E+00
RMM:   4    -0.232423911836E+04    0.14651E+00   -0.36237E-01  5781   0.259E-01    0.261E+00
RMM:   5    -0.232421259039E+04    0.26528E-01   -0.14678E-01  6320   0.169E-01    0.205E+00
RMM:   6    -0.232421247250E+04    0.11789E-03   -0.10122E-01  5848   0.147E-01    0.162E+00
RMM:   7    -0.232422029029E+04   -0.78178E-02   -0.65533E-02  5598   0.118E-01    0.133E+00
RMM:   8    -0.232421543894E+04    0.48513E-02   -0.29073E-02  5769   0.775E-02    0.656E-01
RMM:   9    -0.232422198718E+04   -0.65482E-02   -0.91897E-03  4768   0.487E-02    0.366E-01
RMM:  10    -0.232423224791E+04   -0.10261E-01   -0.65076E-03  4689   0.449E-02    0.237E-01
RMM:  11    -0.232423886608E+04   -0.66182E-02   -0.37643E-03  4825   0.395E-02    0.132E-01
RMM:  12    -0.232424254472E+04   -0.36786E-02   -0.12500E-03  4803   0.245E-02    0.813E-02
RMM:  13    -0.232424502716E+04   -0.24824E-02   -0.42515E-04  4331   0.150E-02    0.554E-02
RMM:  14    -0.232424714076E+04   -0.21136E-02   -0.31306E-04  4074   0.129E-02    0.359E-02
RMM:  15    -0.232424854814E+04   -0.14074E-02   -0.21941E-04  3861   0.112E-02    0.211E-02
RMM:  16    -0.232424916245E+04   -0.61432E-03   -0.12513E-04  3771   0.879E-03    0.982E-03
RMM:  17    -0.232424932951E+04   -0.16705E-03   -0.41568E-05  3399   0.581E-03    0.417E-03
RMM:  18    -0.232424936237E+04   -0.32862E-04   -0.94301E-06  2859   0.368E-03    0.250E-03
RMM:  19    -0.232424937586E+04   -0.13492E-04   -0.48170E-06  2813   0.275E-03    0.133E-03
RMM:  20    -0.232424937983E+04   -0.39639E-05   -0.24987E-06  2619   0.207E-03
   4 F= -.23456019E+04 E0= -.23456019E+04  d E =-.111012E+01  mag=     3.0004
       N       E                     dE             d eps       ncg     rms          rms(c)
DAV:   1    -0.232379261731E+04    0.45676E+00   -0.50882E+01  4504   0.524E+00    0.218E+00
RMM:   2    -0.232459095917E+04   -0.79834E+00   -0.77738E+00  6580   0.125E+00    0.378E+00
RMM:   3    -0.232456764520E+04    0.23314E-01   -0.11553E+00  6414   0.541E-01    0.223E+00
RMM:   4    -0.232452412379E+04    0.43521E-01   -0.90302E-02  5969   0.123E-01    0.981E-01
RMM:   5    -0.232452189099E+04    0.22328E-02   -0.24384E-02  5975   0.653E-02    0.102E+00
RMM:   6    -0.232451700530E+04    0.48857E-02   -0.21081E-02  6011   0.618E-02    0.729E-01
RMM:   7    -0.232451013938E+04    0.68659E-02   -0.11036E-02  5879   0.474E-02    0.208E-01
RMM:   8    -0.232451049347E+04   -0.35409E-03   -0.23736E-03  5335   0.257E-02    0.246E-01
RMM:   9    -0.232450983485E+04    0.65861E-03   -0.67645E-04  4470   0.131E-02    0.666E-02
RMM:  10    -0.232450981222E+04    0.22636E-04   -0.33734E-04  3833   0.949E-03    0.368E-02
RMM:  11    -0.232450981644E+04   -0.42179E-05   -0.10332E-04  3153   0.690E-03    0.241E-02
RMM:  12    -0.232450981529E+04    0.11442E-05   -0.27994E-05  2971   0.537E-03
   5 F= -.23458615E+04 E0= -.23458614E+04  d E =-.136970E+01  mag=     2.9995
       N       E                     dE             d eps       ncg     rms          rms(c)
DAV:   1    -0.232475823901E+04   -0.24842E+00   -0.15083E+01  4528   0.305E+00    0.132E+00
RMM:   2    -0.232495873675E+04   -0.20050E+00   -0.18645E+00  6256   0.725E-01    0.190E+00
RMM:   3    -0.232493201250E+04    0.26724E-01   -0.21401E-01  6119   0.298E-01    0.122E+00
RMM:   4    -0.232491934663E+04    0.12666E-01   -0.28587E-02  6145   0.771E-02    0.663E-01
RMM:   5    -0.232491666233E+04    0.26843E-02   -0.86321E-03  5956   0.443E-02    0.553E-01
RMM:   6    -0.232491378412E+04    0.28782E-02   -0.44625E-03  5733   0.335E-02    0.277E-01
RMM:   7    -0.232491274806E+04    0.10361E-02   -0.30033E-03  5443   0.312E-02    0.110E-01
RMM:   8    -0.232491275578E+04   -0.77243E-05   -0.58174E-04  4481   0.176E-02    0.109E-01
RMM:   9    -0.232491260948E+04    0.14630E-03   -0.21646E-04  3739   0.816E-03    0.311E-02
RMM:  10    -0.232491259877E+04    0.10711E-04   -0.62286E-05  3233   0.609E-03    0.139E-02
RMM:  11    -0.232491259800E+04    0.77038E-06   -0.22444E-05  2994   0.508E-03
   6 F= -.23462637E+04 E0= -.23462637E+04  d E =-.402229E+00  mag=     2.9999
       N       E                     dE             d eps       ncg     rms          rms(c)
DAV:   1    -0.232475399498E+04    0.15860E+00   -0.38736E+01  4548   0.495E+00    0.205E+00
RMM:   2    -0.232527502347E+04   -0.52103E+00   -0.50442E+00  6287   0.125E+00    0.273E+00
RMM:   3    -0.232521815035E+04    0.56873E-01   -0.56184E-01  5891   0.502E-01    0.180E+00
RMM:   4    -0.232519127989E+04    0.26870E-01   -0.75169E-02  6177   0.126E-01    0.107E+00
RMM:   5    -0.232518377086E+04    0.75090E-02   -0.20990E-02  6032   0.710E-02    0.851E-01
RMM:   6    -0.232517721513E+04    0.65557E-02   -0.11448E-02  5733   0.536E-02    0.452E-01
RMM:   7    -0.232517482026E+04    0.23949E-02   -0.82427E-03  5842   0.521E-02    0.239E-01
RMM:   8    -0.232517447413E+04    0.34614E-03   -0.20309E-03  5581   0.262E-02    0.157E-01
RMM:   9    -0.232517414814E+04    0.32599E-03   -0.46286E-04  4661   0.120E-02    0.454E-02
RMM:  10    -0.232517414052E+04    0.76123E-05   -0.18375E-04  4139   0.903E-03    0.212E-02
RMM:  11    -0.232517414037E+04    0.15124E-06   -0.51956E-05  3493   0.677E-03
   7 F= -.23465248E+04 E0= -.23465248E+04  d E =-.663360E+00  mag=     3.0000
       N       E                     dE             d eps       ncg     rms          rms(c)
DAV:   1    -0.232531734440E+04   -0.14320E+00   -0.93862E+00  4624   0.242E+00    0.118E+00
RMM:   2    -0.232545029581E+04   -0.13295E+00   -0.10567E+00  6187   0.549E-01    0.223E+00
RMM:   3    -0.232541005701E+04    0.40239E-01   -0.13750E-01  6060   0.219E-01    0.101E+00
RMM:   4    -0.232540155132E+04    0.85057E-02   -0.20118E-02  6266   0.648E-02    0.473E-01
RMM:   5    -0.232540044344E+04    0.11079E-02   -0.64139E-03  5977   0.381E-02    0.439E-01
RMM:   6    -0.232539873402E+04    0.17094E-02   -0.29368E-03  5855   0.272E-02    0.207E-01
RMM:   7    -0.232539892470E+04   -0.19068E-03   -0.21475E-03  5717   0.237E-02    0.233E-01
RMM:   8    -0.232539822825E+04    0.69645E-03   -0.73012E-04  4501   0.155E-02    0.546E-02
RMM:   9    -0.232539821350E+04    0.14748E-04   -0.11432E-04  3194   0.619E-03    0.294E-02
RMM:  10    -0.232539821388E+04   -0.37880E-06   -0.36535E-05  2944   0.538E-03
   8 F= -.23467475E+04 E0= -.23467475E+04  d E =-.222647E+00  mag=     3.0000
       N       E                     dE             d eps       ncg     rms          rms(c)
DAV:   1    -0.232521945375E+04    0.17876E+00   -0.39279E+01  4524   0.500E+00    0.231E+00
RMM:   2    -0.232576993123E+04   -0.55048E+00   -0.44770E+00  6185   0.113E+00    0.423E+00
RMM:   3    -0.232561726792E+04    0.15266E+00   -0.54615E-01  6017   0.443E-01    0.187E+00
RMM:   4    -0.232558952867E+04    0.27739E-01   -0.81080E-02  6294   0.130E-01    0.981E-01
RMM:   5    -0.232558338601E+04    0.61427E-02   -0.24744E-02  6180   0.756E-02    0.826E-01
RMM:   6    -0.232557822831E+04    0.51577E-02   -0.12792E-02  5993   0.558E-02    0.448E-01
RMM:   7    -0.232557877071E+04   -0.54239E-03   -0.82395E-03  5992   0.480E-02    0.485E-01
RMM:   8    -0.232557583917E+04    0.29315E-02   -0.27987E-03  5671   0.290E-02    0.110E-01
RMM:   9    -0.232557576182E+04    0.77355E-04   -0.41820E-04  4335   0.113E-02    0.561E-02
RMM:  10    -0.232557575875E+04    0.30696E-05   -0.14668E-04  3902   0.984E-03    0.207E-02
RMM:  11    -0.232557576665E+04   -0.79063E-05   -0.50666E-05  3503   0.603E-03
   9 F= -.23469225E+04 E0= -.23469225E+04  d E =-.397703E+00  mag=     3.0000
       N       E                     dE             d eps       ncg     rms          rms(c)
DAV:   1    -0.232557302618E+04    0.27326E-02   -0.17194E+01  4544   0.335E+00    0.161E+00
RMM:   2    -0.232582835048E+04   -0.25532E+00   -0.22264E+00  6189   0.778E-01    0.257E+00
RMM:   3    -0.232577541948E+04    0.52931E-01   -0.28081E-01  6061   0.305E-01    0.131E+00
RMM:   4    -0.232576197242E+04    0.13447E-01   -0.39797E-02  6202   0.875E-02    0.815E-01
RMM:   5    -0.232575691550E+04    0.50569E-02   -0.13023E-02  5982   0.545E-02    0.517E-01
RMM:   6    -0.232575470166E+04    0.22138E-02   -0.86140E-03  5770   0.454E-02    0.284E-01
RMM:   7    -0.232575388855E+04    0.81311E-03   -0.24217E-03  5480   0.321E-02    0.118E-01
RMM:   8    -0.232575408895E+04   -0.20040E-03   -0.73042E-04  4776   0.151E-02    0.153E-01
RMM:   9    -0.232575384026E+04    0.24869E-03   -0.22578E-04  3671   0.970E-03    0.454E-02
RMM:  10    -0.232575385372E+04   -0.13464E-04   -0.11623E-04  3574   0.727E-03    0.174E-02
RMM:  11    -0.232575386321E+04   -0.94904E-05   -0.29502E-05  3004   0.546E-03
  10 F= -.23470996E+04 E0= -.23470996E+04  d E =-.177058E+00  mag=     3.0000
       N       E                     dE             d eps       ncg     rms          rms(c)
DAV:   1    -0.232574692353E+04    0.69302E-02   -0.17323E+00  4784   0.108E+00    0.498E-01
RMM:   2    -0.232577169853E+04   -0.24775E-01   -0.21800E-01  6226   0.242E-01    0.765E-01
RMM:   3    -0.232576727970E+04    0.44188E-02   -0.27773E-02  6025   0.959E-02    0.399E-01
RMM:   4    -0.232576596588E+04    0.13138E-02   -0.37339E-03  5507   0.274E-02    0.251E-01
RMM:   5    -0.232576548119E+04    0.48469E-03   -0.12599E-03  4803   0.177E-02    0.158E-01
RMM:   6    -0.232576525132E+04    0.22987E-03   -0.80284E-04  5172   0.151E-02    0.792E-02
RMM:   7    -0.232576519702E+04    0.54297E-04   -0.22433E-04  3873   0.111E-02    0.518E-02
RMM:   8    -0.232576518737E+04    0.96491E-05   -0.78499E-05  3108   0.611E-03
  11 F= -.23471106E+04 E0= -.23471106E+04  d E =-.188103E+00  mag=     3.0000
       N       E                     dE             d eps       ncg     rms          rms(c)
DAV:   1    -0.232583587181E+04   -0.70675E-01   -0.50541E+00  4544   0.194E+00    0.797E-01
RMM:   2    -0.232590248429E+04   -0.66612E-01   -0.68274E-01  6272   0.413E-01    0.811E-01
RMM:   3    -0.232590468446E+04   -0.22002E-02   -0.84185E-02  5885   0.170E-01    0.662E-01
RMM:   4    -0.232590044381E+04    0.42407E-02   -0.95319E-03  6009   0.459E-02    0.340E-01
RMM:   5    -0.232589984091E+04    0.60290E-03   -0.28109E-03  5521   0.263E-02    0.273E-01
RMM:   6    -0.232589930144E+04    0.53947E-03   -0.18446E-03  5699   0.214E-02    0.171E-01
RMM:   7    -0.232589907927E+04    0.22218E-03   -0.73997E-04  4818   0.160E-02    0.865E-02
RMM:   8    -0.232589903568E+04    0.43590E-04   -0.18604E-04  3159   0.944E-03    0.541E-02
RMM:   9    -0.232589900971E+04    0.25968E-04   -0.43712E-05  3010   0.527E-03    0.194E-02
RMM:  10    -0.232589901976E+04   -0.10048E-04   -0.21736E-05  2928   0.420E-03    0.786E-03
RMM:  11    -0.232589902523E+04   -0.54701E-05   -0.78641E-06  2895   0.338E-03
  12 F= -.23472451E+04 E0= -.23472451E+04  d E =-.134471E+00  mag=     3.0000
       N       E                     dE             d eps       ncg     rms          rms(c)
DAV:   1    -0.232551315275E+04    0.38587E+00   -0.44793E+01  4504   0.579E+00    0.224E+00
RMM:   2    -0.232615969233E+04   -0.64654E+00   -0.64028E+00  6274   0.126E+00    0.256E+00
RMM:   3    -0.232615773970E+04    0.19526E-02   -0.79012E-01  5961   0.524E-01    0.182E+00
RMM:   4    -0.232612310590E+04    0.34634E-01   -0.84229E-02  5965   0.133E-01    0.100E+00
RMM:   5    -0.232611769226E+04    0.54136E-02   -0.21952E-02  5940   0.740E-02    0.743E-01
RMM:   6    -0.232611358662E+04    0.41056E-02   -0.14906E-02  5333   0.624E-02    0.473E-01
RMM:   7    -0.232611430273E+04   -0.71611E-03   -0.83756E-03  5973   0.507E-02    0.478E-01
RMM:   8    -0.232611134393E+04    0.29588E-02   -0.26028E-03  5672   0.251E-02    0.885E-02
RMM:   9    -0.232611135480E+04   -0.10871E-04   -0.38736E-04  4114   0.106E-02    0.553E-02
RMM:  10    -0.232611141490E+04   -0.60099E-04   -0.16455E-04  3827   0.957E-03    0.214E-02
RMM:  11    -0.232611144481E+04   -0.29913E-04   -0.45496E-05  3191   0.576E-03    0.125E-02
RMM:  12    -0.232611147458E+04   -0.29770E-04   -0.20361E-05  2955   0.490E-03    0.874E-03
RMM:  13    -0.232611149853E+04   -0.23950E-04   -0.14953E-05  2884   0.436E-03    0.440E-03
RMM:  14    -0.232611151435E+04   -0.15824E-04   -0.10281E-05  2852   0.389E-03    0.263E-03
RMM:  15    -0.232611152121E+04   -0.68539E-05   -0.58051E-06  2837   0.319E-03
  13 F= -.23474601E+04 E0= -.23474601E+04  d E =-.349443E+00  mag=     3.0000
       N       E                     dE             d eps       ncg     rms          rms(c)
DAV:   1    -0.232619322760E+04   -0.81713E-01   -0.29283E+00  4640   0.146E+00    0.533E-01
RMM:   2    -0.232621880855E+04   -0.25581E-01   -0.27989E-01  6126   0.292E-01    0.313E-01
RMM:   3    -0.232622228204E+04   -0.34735E-02   -0.31385E-02  5823   0.121E-01    0.417E-01
RMM:   4    -0.232622027466E+04    0.20074E-02   -0.34696E-03  5792   0.307E-02    0.202E-01
RMM:   5    -0.232621999402E+04    0.28064E-03   -0.13065E-03  5226   0.214E-02    0.133E-01
RMM:   6    -0.232621995088E+04    0.43139E-04   -0.74403E-04  4924   0.153E-02    0.114E-01
RMM:   7    -0.232621981180E+04    0.13908E-03   -0.16267E-04  3598   0.863E-03    0.196E-02
RMM:   8    -0.232621981365E+04   -0.18500E-05   -0.42702E-05  2968   0.563E-03
  14 F= -.23475685E+04 E0= -.23475685E+04  d E =-.108463E+00  mag=     3.0000
       N       E                     dE             d eps       ncg     rms          rms(c)
DAV:   1    -0.232617360832E+04    0.46203E-01   -0.26229E+01  4504   0.437E+00    0.158E+00
RMM:   2    -0.232641120617E+04   -0.23760E+00   -0.25736E+00  6127   0.895E-01    0.102E+00
RMM:   3    -0.232644787578E+04   -0.36670E-01   -0.29811E-01  5981   0.368E-01    0.144E+00
RMM:   4    -0.232642130946E+04    0.26566E-01   -0.33047E-02  6341   0.952E-02    0.545E-01
RMM:   5    -0.232641912353E+04    0.21859E-02   -0.11639E-02  5140   0.615E-02    0.345E-01
RMM:   6    -0.232641999602E+04   -0.87249E-03   -0.61062E-03  5790   0.447E-02    0.425E-01
RMM:   7    -0.232641776438E+04    0.22316E-02   -0.19689E-03  5706   0.256E-02    0.764E-02
RMM:   8    -0.232641766799E+04    0.96388E-04   -0.30980E-04  4041   0.997E-03    0.562E-02
RMM:   9    -0.232641764734E+04    0.20650E-04   -0.17670E-04  3188   0.857E-03    0.617E-02
RMM:  10    -0.232641758308E+04    0.64259E-04   -0.88182E-05  3381   0.699E-03    0.168E-02
RMM:  11    -0.232641756737E+04    0.15708E-04   -0.29683E-05  2994   0.560E-03    0.837E-03
RMM:  12    -0.232641756122E+04    0.61557E-05   -0.19641E-05  2955   0.492E-03
  15 F= -.23477672E+04 E0= -.23477672E+04  d E =-.307092E+00  mag=     3.0000
       N       E                     dE             d eps       ncg     rms          rms(c)
DAV:   1    -0.232638255587E+04    0.35012E-01   -0.59834E+00  4544   0.208E+00    0.747E-01
RMM:   2    -0.232643562293E+04   -0.53067E-01   -0.57673E-01  6139   0.423E-01    0.478E-01
RMM:   3    -0.232644349801E+04   -0.78751E-02   -0.66727E-02  5978   0.176E-01    0.660E-01
RMM:   4    -0.232643807816E+04    0.54199E-02   -0.74235E-03  6020   0.453E-02    0.261E-01
RMM:   5    -0.232643814907E+04   -0.70912E-04   -0.32334E-03  5394   0.303E-02    0.262E-01
RMM:   6    -0.232643737671E+04    0.77236E-03   -0.15922E-03  5447   0.217E-02    0.106E-01
RMM:   7    -0.232643730953E+04    0.67184E-04   -0.35459E-04  4673   0.125E-02    0.852E-02
RMM:   8    -0.232643723053E+04    0.78994E-04   -0.12381E-04  2936   0.692E-03    0.386E-02
RMM:   9    -0.232643720633E+04    0.24201E-04   -0.26420E-05  2962   0.425E-03    0.157E-02
RMM:  10    -0.232643719510E+04    0.11229E-04   -0.22742E-05  2927   0.423E-03    0.677E-03
RMM:  11    -0.232643719204E+04    0.30595E-05   -0.90437E-06  2887   0.383E-03
  16 F= -.23477874E+04 E0= -.23477874E+04  d E =-.327342E+00  mag=     3.0000
       N       E                     dE             d eps       ncg     rms          rms(c)
DAV:   1    -0.232646429510E+04   -0.27100E-01   -0.10670E+01  4504   0.268E+00    0.941E-01
RMM:   2    -0.232657078591E+04   -0.10649E+00   -0.11525E+00  6234   0.577E-01    0.531E-01
RMM:   3    -0.232658067906E+04   -0.98932E-02   -0.13755E-01  5848   0.243E-01    0.525E-01
RMM:   4    -0.232657952927E+04    0.11498E-02   -0.13690E-02  6211   0.570E-02    0.386E-01
RMM:   5    -0.232657863493E+04    0.89434E-03   -0.44936E-03  5431   0.378E-02    0.274E-01
RMM:   6    -0.232657820963E+04    0.42530E-03   -0.25716E-03  5611   0.286E-02    0.206E-01
RMM:   7    -0.232657764654E+04    0.56310E-03   -0.63869E-04  5119   0.154E-02    0.467E-02
RMM:   8    -0.232657761495E+04    0.31588E-04   -0.80055E-05  3203   0.664E-03    0.320E-02
RMM:   9    -0.232657763248E+04   -0.17529E-04   -0.63571E-05  2920   0.564E-03    0.481E-02
RMM:  10    -0.232657759944E+04    0.33043E-04   -0.31412E-05  2954   0.470E-03    0.114E-02
RMM:  11    -0.232657759712E+04    0.23123E-05   -0.10844E-05  2896   0.411E-03
  17 F= -.23479278E+04 E0= -.23479278E+04  d E =-.140410E+00  mag=     3.0000
       N       E                     dE             d eps       ncg     rms          rms(c)
DAV:   1    -0.232647723605E+04    0.10036E+00   -0.15370E+01  4504   0.322E+00    0.113E+00
RMM:   2    -0.232663209038E+04   -0.15485E+00   -0.16781E+00  6243   0.696E-01    0.673E-01
RMM:   3    -0.232664664360E+04   -0.14553E-01   -0.20291E-01  5906   0.294E-01    0.694E-01
RMM:   4    -0.232664337326E+04    0.32703E-02   -0.19887E-02  6223   0.690E-02    0.418E-01
RMM:   5    -0.232664348421E+04   -0.11095E-03   -0.66083E-03  5517   0.443E-02    0.459E-01
RMM:   6    -0.232664166007E+04    0.18241E-02   -0.44132E-03  5537   0.357E-02    0.244E-01
RMM:   7    -0.232664092787E+04    0.73220E-03   -0.10294E-03  5153   0.196E-02    0.802E-02
RMM:   8    -0.232664097194E+04   -0.44075E-04   -0.29191E-04  3549   0.113E-02    0.106E-01
RMM:   9    -0.232664082526E+04    0.14669E-03   -0.12340E-04  3150   0.727E-03    0.270E-02
RMM:  10    -0.232664080958E+04    0.15672E-04   -0.69889E-05  3368   0.596E-03    0.123E-02
RMM:  11    -0.232664080644E+04    0.31469E-05   -0.14798E-05  2909   0.506E-03
  18 F= -.23479913E+04 E0= -.23479913E+04  d E =-.203902E+00  mag=     3.0000
       N       E                     dE             d eps       ncg     rms          rms(c)
DAV:   1    -0.232663163857E+04    0.91710E-02   -0.97923E+00  4504   0.237E+00    0.869E-01
RMM:   2    -0.232678290884E+04   -0.15127E+00   -0.16292E+00  6506   0.573E-01    0.515E-01
RMM:   3    -0.232679991312E+04   -0.17004E-01   -0.21453E-01  6086   0.247E-01    0.523E-01
RMM:   4    -0.232679970993E+04    0.20319E-03   -0.18150E-02  6186   0.514E-02    0.406E-01
RMM:   5    -0.232679759785E+04    0.21121E-02   -0.36300E-03  5578   0.290E-02    0.199E-01
RMM:   6    -0.232679780157E+04   -0.20372E-03   -0.25030E-03  5418   0.244E-02    0.232E-01
RMM:   7    -0.232679729080E+04    0.51077E-03   -0.97752E-04  4622   0.159E-02    0.105E-01
RMM:   8    -0.232679718351E+04    0.10729E-03   -0.17811E-04  3045   0.733E-03    0.684E-02
RMM:   9    -0.232679713302E+04    0.50496E-04   -0.85118E-05  2941   0.595E-03    0.316E-02
RMM:  10    -0.232679711852E+04    0.14500E-04   -0.61102E-05  2980   0.465E-03    0.941E-03
RMM:  11    -0.232679711811E+04    0.40713E-06   -0.94448E-06  2931   0.354E-03
  19 F= -.23481470E+04 E0= -.23481470E+04  d E =-.155723E+00  mag=     3.0000
       N       E                     dE             d eps       ncg     rms          rms(c)
DAV:   1    -0.232570891244E+04    0.10882E+01   -0.69629E+01  4504   0.637E+00    0.239E+00
RMM:   2    -0.232690507118E+04   -0.11962E+01   -0.12690E+01  6607   0.165E+00    0.176E+00
RMM:   3    -0.232700509259E+04   -0.10002E+00   -0.15863E+00  6241   0.659E-01    0.180E+00
RMM:   4    -0.232697928320E+04    0.25809E-01   -0.12983E-01  6530   0.141E-01    0.104E+00
RMM:   5    -0.232697303252E+04    0.62507E-02   -0.24907E-02  6011   0.688E-02    0.944E-01
RMM:   6    -0.232696930734E+04    0.37252E-02   -0.28905E-02  6180   0.764E-02    0.802E-01
RMM:   7    -0.232696332534E+04    0.59820E-02   -0.12173E-02  5830   0.512E-02    0.392E-01
RMM:   8    -0.232696232413E+04    0.10012E-02   -0.39904E-03  5458   0.311E-02    0.260E-01
RMM:   9    -0.232696157323E+04    0.75090E-03   -0.74546E-04  4825   0.140E-02    0.956E-02
RMM:  10    -0.232696141525E+04    0.15798E-03   -0.68421E-04  4301   0.138E-02    0.313E-02
RMM:  11    -0.232696140653E+04    0.87191E-05   -0.99166E-05  3254   0.704E-03
  20 F= -.23483106E+04 E0= -.23483106E+04  d E =-.319328E+00  mag=     3.0000
       N       E                     dE             d eps       ncg     rms          rms(c)
DAV:   1    -0.232691967843E+04    0.41737E-01   -0.90714E+00  4548   0.230E+00    0.883E-01
RMM:   2    -0.232706335238E+04   -0.14367E+00   -0.15520E+00  6585   0.554E-01    0.554E-01
RMM:   3    -0.232708228168E+04   -0.18929E-01   -0.19755E-01  6312   0.234E-01    0.739E-01
RMM:   4    -0.232707749673E+04    0.47849E-02   -0.16924E-02  6197   0.514E-02    0.335E-01
RMM:   5    -0.232707672120E+04    0.77553E-03   -0.42456E-03  5611   0.301E-02    0.288E-01
RMM:   6    -0.232707623641E+04    0.48479E-03   -0.26138E-03  5636   0.237E-02    0.215E-01
RMM:   7    -0.232707582924E+04    0.40717E-03   -0.87089E-04  5069   0.147E-02    0.104E-01
RMM:   8    -0.232707577412E+04    0.55116E-04   -0.24163E-04  2951   0.893E-03    0.793E-02
RMM:   9    -0.232707569170E+04    0.82428E-04   -0.71062E-05  2977   0.520E-03    0.207E-02
RMM:  10    -0.232707568624E+04    0.54608E-05   -0.41532E-05  2997   0.437E-03
  21 F= -.23484242E+04 E0= -.23484242E+04  d E =-.113524E+00  mag=     3.0000
       N       E                     dE             d eps       ncg     rms          rms(c)
DAV:   1    -0.232676264953E+04    0.31304E+00   -0.21789E+01  4504   0.355E+00    0.136E+00
RMM:   2    -0.232711435432E+04   -0.35170E+00   -0.38240E+00  6609   0.881E-01    0.767E-01
RMM:   3    -0.232715297209E+04   -0.38618E-01   -0.48838E-01  6020   0.364E-01    0.796E-01
RMM:   4    -0.232715215504E+04    0.81705E-03   -0.41158E-02  6287   0.755E-02    0.624E-01
RMM:   5    -0.232714756868E+04    0.45864E-02   -0.77327E-03  5561   0.387E-02    0.309E-01
RMM:   6    -0.232714846305E+04   -0.89438E-03   -0.63912E-03  5923   0.362E-02    0.417E-01
RMM:   7    -0.232714660675E+04    0.18563E-02   -0.29300E-03  5687   0.261E-02    0.153E-01
RMM:   8    -0.232714657713E+04    0.29615E-04   -0.67385E-04  3630   0.116E-02    0.163E-01
RMM:   9    -0.232714629397E+04    0.28317E-03   -0.26639E-04  3108   0.872E-03    0.549E-02
RMM:  10    -0.232714625487E+04    0.39096E-04   -0.14710E-04  3220   0.722E-03    0.161E-02
RMM:  11    -0.232714625914E+04   -0.42699E-05   -0.28729E-05  2965   0.497E-03
  22 F= -.23484940E+04 E0= -.23484940E+04  d E =-.183320E+00  mag=     3.0000
       N       E                     dE             d eps       ncg     rms          rms(c)
DAV:   1    -0.232717434743E+04   -0.28093E-01   -0.27069E+00  4656   0.136E+00    0.570E-01
RMM:   2    -0.232722705337E+04   -0.52706E-01   -0.54018E-01  6456   0.345E-01    0.605E-01
RMM:   3    -0.232723129634E+04   -0.42430E-02   -0.67374E-02  6243   0.145E-01    0.526E-01
RMM:   4    -0.232722849741E+04    0.27989E-02   -0.64017E-03  5789   0.373E-02    0.251E-01
RMM:   5    -0.232722857408E+04   -0.76663E-04   -0.22444E-03  5601   0.240E-02    0.281E-01
RMM:   6    -0.232722767779E+04    0.89629E-03   -0.17673E-03  5510   0.223E-02    0.105E-01
RMM:   7    -0.232722776921E+04   -0.91413E-04   -0.51777E-04  3715   0.132E-02    0.131E-01
RMM:   8    -0.232722759008E+04    0.17913E-03   -0.16330E-04  3020   0.718E-03    0.286E-02
RMM:   9    -0.232722760187E+04   -0.11793E-04   -0.30382E-05  2973   0.436E-03    0.143E-02
RMM:  10    -0.232722761933E+04   -0.17462E-04   -0.14932E-05  2948   0.358E-03    0.757E-03
RMM:  11    -0.232722763201E+04   -0.12681E-04   -0.55417E-06  2877   0.284E-03    0.479E-03
RMM:  12    -0.232722764230E+04   -0.10284E-04   -0.32406E-06  2773   0.209E-03    0.313E-03
RMM:  13    -0.232722764871E+04   -0.64148E-05   -0.19038E-06  2591   0.174E-03
  23 F= -.23485749E+04 E0= -.23485749E+04  d E =-.809679E-01  mag=     3.0000
       N       E                     dE             d eps       ncg     rms          rms(c)
DAV:   1    -0.232715831686E+04    0.69325E-01   -0.60246E+00  4520   0.204E+00    0.852E-01
RMM:   2    -0.232727648687E+04   -0.11817E+00   -0.12134E+00  6449   0.517E-01    0.923E-01
RMM:   3    -0.232728592413E+04   -0.94373E-02   -0.14987E-01  6266   0.216E-01    0.811E-01
RMM:   4    -0.232727942095E+04    0.65032E-02   -0.14263E-02  5846   0.559E-02    0.379E-01
RMM:   5    -0.232727941196E+04    0.89911E-05   -0.48601E-03  5946   0.357E-02    0.409E-01
RMM:   6    -0.232727751927E+04    0.18927E-02   -0.40915E-03  5589   0.332E-02    0.139E-01
RMM:   7    -0.232727767924E+04   -0.15997E-03   -0.96482E-04  4772   0.185E-02    0.170E-01
RMM:   8    -0.232727738367E+04    0.29558E-03   -0.34968E-04  3442   0.897E-03    0.545E-02
RMM:   9    -0.232727738578E+04   -0.21145E-05   -0.65194E-05  3070   0.579E-03
  24 F= -.23486242E+04 E0= -.23486242E+04  d E =-.130221E+00  mag=     3.0000
       N       E                     dE             d eps       ncg     rms          rms(c)
DAV:   1    -0.232726527739E+04    0.12106E-01   -0.37594E+00  4528   0.143E+00    0.632E-01
RMM:   2    -0.232734987500E+04   -0.84598E-01   -0.84970E-01  6627   0.373E-01    0.804E-01
RMM:   3    -0.232735472273E+04   -0.48477E-02   -0.10929E-01  6238   0.166E-01    0.569E-01
RMM:   4    -0.232735167126E+04    0.30515E-02   -0.97999E-03  5584   0.376E-02    0.288E-01
RMM:   5    -0.232735123941E+04    0.43185E-03   -0.21252E-03  4936   0.187E-02    0.256E-01
RMM:   6    -0.232735048354E+04    0.75587E-03   -0.18147E-03  5139   0.186E-02    0.939E-02
RMM:   7    -0.232735061683E+04   -0.13329E-03   -0.51650E-04  3836   0.120E-02    0.113E-01
RMM:   8    -0.232735051196E+04    0.10487E-03   -0.16762E-04  3034   0.739E-03    0.471E-02
RMM:   9    -0.232735052805E+04   -0.16083E-04   -0.53882E-05  3030   0.468E-03    0.246E-02
RMM:  10    -0.232735055783E+04   -0.29781E-04   -0.34973E-05  2956   0.429E-03    0.118E-02
RMM:  11    -0.232735057935E+04   -0.21523E-04   -0.10949E-05  2920   0.305E-03    0.740E-03
RMM:  12    -0.232735059872E+04   -0.19371E-04   -0.55474E-06  2772   0.231E-03    0.479E-03
RMM:  13    -0.232735061229E+04   -0.13568E-04   -0.33029E-06  2622   0.200E-03    0.319E-03
RMM:  14    -0.232735062046E+04   -0.81676E-05   -0.24405E-06  2553   0.165E-03
  25 F= -.23486975E+04 E0= -.23486975E+04  d E =-.733233E-01  mag=     3.0000
       N       E                     dE             d eps       ncg     rms          rms(c)
DAV:   1    -0.232696890996E+04    0.38170E+00   -0.20017E+01  4504   0.327E+00    0.148E+00
RMM:   2    -0.232743067645E+04   -0.46177E+00   -0.46383E+00  6635   0.875E-01    0.193E+00
RMM:   3    -0.232745350691E+04   -0.22830E-01   -0.60850E-01  6300   0.390E-01    0.133E+00
RMM:   4    -0.232743867278E+04    0.14834E-01   -0.55740E-02  6169   0.889E-02    0.756E-01
RMM:   5    -0.232743446083E+04    0.42119E-02   -0.12082E-02  6008   0.432E-02    0.567E-01
RMM:   6    -0.232743105387E+04    0.34070E-02   -0.99175E-03  5776   0.417E-02    0.283E-01
RMM:   7    -0.232743183560E+04   -0.78173E-03   -0.41823E-03  5565   0.290E-02    0.343E-01
RMM:   8    -0.232743061182E+04    0.12238E-02   -0.13256E-03  4539   0.163E-02    0.106E-01
RMM:   9    -0.232743059157E+04    0.20247E-04   -0.32521E-04  3540   0.852E-03    0.576E-02
RMM:  10    -0.232743063859E+04   -0.47021E-04   -0.16751E-04  3081   0.811E-03    0.252E-02
RMM:  11    -0.232743068959E+04   -0.50997E-04   -0.50734E-05  2998   0.525E-03    0.151E-02
RMM:  12    -0.232743073990E+04   -0.50308E-04   -0.16898E-05  2927   0.388E-03    0.106E-02
RMM:  13    -0.232743078179E+04   -0.41899E-04   -0.11505E-05  2919   0.336E-03    0.621E-03
RMM:  14    -0.232743080677E+04   -0.24976E-04   -0.65250E-06  2811   0.273E-03    0.347E-03
RMM:  15    -0.232743082098E+04   -0.14214E-04   -0.39855E-06  2587   0.224E-03    0.219E-03
RMM:  16    -0.232743082625E+04   -0.52660E-05   -0.20016E-06  2509   0.180E-03
  26 F= -.23487783E+04 E0= -.23487783E+04  d E =-.154084E+00  mag=     3.0000
       N       E                     dE             d eps       ncg     rms          rms(c)
DAV:   1    -0.232736990284E+04    0.60918E-01   -0.60256E+00  4504   0.183E+00    0.806E-01
RMM:   2    -0.232749998693E+04   -0.13008E+00   -0.13556E+00  6552   0.490E-01    0.800E-01
RMM:   3    -0.232751360514E+04   -0.13618E-01   -0.16620E-01  6290   0.209E-01    0.796E-01
RMM:   4    -0.232750821739E+04    0.53878E-02   -0.15716E-02  6009   0.499E-02    0.372E-01
RMM:   5    -0.232750761849E+04    0.59890E-03   -0.31334E-03  5391   0.237E-02    0.310E-01
RMM:   6    -0.232750675484E+04    0.86365E-03   -0.21476E-03  5354   0.222E-02    0.171E-01
RMM:   7    -0.232750693744E+04   -0.18261E-03   -0.14631E-03  5131   0.185E-02    0.192E-01
RMM:   8    -0.232750649226E+04    0.44518E-03   -0.38016E-04  3439   0.103E-02    0.445E-02
RMM:   9    -0.232750647154E+04    0.20717E-04   -0.64539E-05  3027   0.584E-03    0.246E-02
RMM:  10    -0.232750647195E+04   -0.41098E-06   -0.37443E-05  2936   0.458E-03
  27 F= -.23488558E+04 E0= -.23488558E+04  d E =-.775023E-01  mag=     3.0000
       N       E                     dE             d eps       ncg     rms          rms(c)
DAV:   1    -0.232726975328E+04    0.23672E+00   -0.12289E+01  4504   0.263E+00    0.116E+00
RMM:   2    -0.232753595166E+04   -0.26620E+00   -0.27661E+00  6547   0.711E-01    0.117E+00
RMM:   3    -0.232756194915E+04   -0.25997E-01   -0.34371E-01  6333   0.301E-01    0.111E+00
RMM:   4    -0.232755227240E+04    0.96767E-02   -0.32410E-02  6107   0.716E-02    0.561E-01
RMM:   5    -0.232755055785E+04    0.17145E-02   -0.61815E-03  5794   0.338E-02    0.427E-01
RMM:   6    -0.232754910299E+04    0.14549E-02   -0.42381E-03  5554   0.310E-02    0.268E-01
RMM:   7    -0.232754926025E+04   -0.15726E-03   -0.31069E-03  5709   0.261E-02    0.264E-01
RMM:   8    -0.232754841560E+04    0.84465E-03   -0.75587E-04  4642   0.142E-02    0.649E-02
RMM:   9    -0.232754836959E+04    0.46003E-04   -0.12630E-04  3122   0.694E-03    0.355E-02
RMM:  10    -0.232754836701E+04    0.25853E-05   -0.71390E-05  2955   0.610E-03
  28 F= -.23489005E+04 E0= -.23489005E+04  d E =-.122241E+00  mag=     3.0000
       N       E                     dE             d eps       ncg     rms          rms(c)
DAV:   1    -0.232744626996E+04    0.10210E+00   -0.78045E+00  4504   0.203E+00    0.866E-01
RMM:   2    -0.232759427530E+04   -0.14801E+00   -0.15941E+00  6622   0.537E-01    0.553E-01
RMM:   3    -0.232761123826E+04   -0.16963E-01   -0.17680E-01  6290   0.220E-01    0.719E-01
RMM:   4    -0.232760710434E+04    0.41339E-02   -0.17116E-02  6150   0.496E-02    0.321E-01
RMM:   5    -0.232760709244E+04    0.11896E-04   -0.30484E-03  5032   0.241E-02    0.324E-01
RMM:   6    -0.232760637045E+04    0.72199E-03   -0.19681E-03  5218   0.201E-02    0.222E-01
RMM:   7    -0.232760600737E+04    0.36309E-03   -0.97754E-04  4951   0.152E-02    0.106E-01
RMM:   8    -0.232760590836E+04    0.99001E-04   -0.28218E-04  3046   0.101E-02    0.624E-02
RMM:   9    -0.232760585489E+04    0.53477E-04   -0.57131E-05  2961   0.507E-03    0.216E-02
RMM:  10    -0.232760584773E+04    0.71544E-05   -0.31132E-05  2959   0.388E-03
  29 F= -.23489606E+04 E0= -.23489606E+04  d E =-.600528E-01  mag=     3.0000
       N       E                     dE             d eps       ncg     rms          rms(c)
DAV:   1    -0.232747448752E+04    0.13137E+00   -0.73319E+00  4504   0.197E+00    0.839E-01
RMM:   2    -0.232761318481E+04   -0.13870E+00   -0.14927E+00  6632   0.518E-01    0.554E-01
RMM:   3    -0.232763001950E+04   -0.16835E-01   -0.16606E-01  6292   0.212E-01    0.770E-01
RMM:   4    -0.232762511436E+04    0.49051E-02   -0.16223E-02  6087   0.486E-02    0.322E-01
RMM:   5    -0.232762524349E+04   -0.12913E-03   -0.29273E-03  5049   0.230E-02    0.337E-01
RMM:   6    -0.232762420060E+04    0.10429E-02   -0.19275E-03  5288   0.204E-02    0.178E-01
RMM:   7    -0.232762397700E+04    0.22360E-03   -0.86177E-04  4928   0.145E-02    0.910E-02
RMM:   8    -0.232762391361E+04    0.63390E-04   -0.24405E-04  3049   0.991E-03    0.620E-02
RMM:   9    -0.232762385896E+04    0.54646E-04   -0.52113E-05  2942   0.495E-03    0.206E-02
RMM:  10    -0.232762385153E+04    0.74321E-05   -0.30581E-05  2957   0.381E-03
  30 F= -.23489812E+04 E0= -.23489812E+04  d E =-.806942E-01  mag=     3.0000
       N       E                     dE             d eps       ncg     rms          rms(c)
DAV:   1    -0.232749315815E+04    0.13070E+00   -0.91784E+00  4504   0.217E+00    0.924E-01
RMM:   2    -0.232766673951E+04   -0.17358E+00   -0.18778E+00  6664   0.594E-01    0.525E-01
RMM:   3    -0.232768474676E+04   -0.18007E-01   -0.21048E-01  6284   0.236E-01    0.580E-01
RMM:   4    -0.232768296761E+04    0.17792E-02   -0.19349E-02  6212   0.515E-02    0.372E-01
RMM:   5    -0.232768244992E+04    0.51768E-03   -0.32411E-03  4949   0.251E-02    0.317E-01
RMM:   6    -0.232768211457E+04    0.33535E-03   -0.23021E-03  5206   0.219E-02    0.270E-01
RMM:   7    -0.232768168495E+04    0.42963E-03   -0.13102E-03  5001   0.173E-02    0.163E-01
RMM:   8    -0.232768141873E+04    0.26622E-03   -0.43860E-04  3244   0.109E-02    0.662E-02
RMM:   9    -0.232768136149E+04    0.57236E-04   -0.75355E-05  2958   0.575E-03    0.260E-02
RMM:  10    -0.232768135302E+04    0.84695E-05   -0.39527E-05  2930   0.408E-03
  31 F= -.23490412E+04 E0= -.23490412E+04  d E =-.600264E-01  mag=     3.0000
       N       E                     dE             d eps       ncg     rms          rms(c)
DAV:   1    -0.232740422036E+04    0.27714E+00   -0.14684E+01  4504   0.275E+00    0.117E+00
RMM:   2    -0.232768478802E+04   -0.28057E+00   -0.30275E+00  6674   0.760E-01    0.702E-01
RMM:   3    -0.232771477859E+04   -0.29991E-01   -0.34049E-01  6362   0.300E-01    0.837E-01
RMM:   4    -0.232771014091E+04    0.46377E-02   -0.31349E-02  6390   0.665E-02    0.497E-01
RMM:   5    -0.232770964224E+04    0.49867E-03   -0.52115E-03  5144   0.293E-02    0.442E-01
RMM:   6    -0.232770843857E+04    0.12037E-02   -0.38605E-03  5615   0.288E-02    0.305E-01
RMM:   7    -0.232770806075E+04    0.37782E-03   -0.23400E-03  5373   0.227E-02    0.222E-01
RMM:   8    -0.232770757620E+04    0.48455E-03   -0.80482E-04  3926   0.143E-02    0.880E-02
RMM:   9    -0.232770747638E+04    0.99816E-04   -0.13965E-04  3021   0.703E-03    0.365E-02
RMM:  10    -0.232770745967E+04    0.16708E-04   -0.70152E-05  2945   0.537E-03    0.106E-02
RMM:  11    -0.232770746005E+04   -0.38263E-06   -0.16339E-05  2960   0.374E-03
  32 F= -.23490707E+04 E0= -.23490707E+04  d E =-.895379E-01  mag=     3.0000
       N       E                     dE             d eps       ncg     rms          rms(c)
DAV:   1    -0.232760378515E+04    0.10367E+00   -0.86911E+00  4504   0.205E+00    0.901E-01
RMM:   2    -0.232775363303E+04   -0.14985E+00   -0.15530E+00  6662   0.560E-01    0.898E-01
RMM:   3    -0.232777080744E+04   -0.17174E-01   -0.17890E-01  6367   0.216E-01    0.106E+00
RMM:   4    -0.232776038799E+04    0.10419E-01   -0.18356E-02  5964   0.541E-02    0.414E-01
RMM:   5    -0.232775937461E+04    0.10134E-02   -0.41471E-03  5511   0.255E-02    0.306E-01
RMM:   6    -0.232775833847E+04    0.10361E-02   -0.31819E-03  5242   0.273E-02    0.102E-01
RMM:   7    -0.232775834010E+04   -0.16289E-05   -0.67083E-04  4472   0.143E-02    0.653E-02
RMM:   8    -0.232775834357E+04   -0.34701E-05   -0.16490E-04  2999   0.712E-03    0.680E-02
RMM:   9    -0.232775827696E+04    0.66613E-04   -0.58309E-05  2992   0.507E-03    0.222E-02
RMM:  10    -0.232775827051E+04    0.64475E-05   -0.31118E-05  2967   0.358E-03
  33 F= -.23491238E+04 E0= -.23491238E+04  d E =-.531066E-01  mag=     3.0000
       N       E                     dE             d eps       ncg     rms          rms(c)
DAV:   1    -0.232768311027E+04    0.75167E-01   -0.48620E+00  4504   0.151E+00    0.676E-01
RMM:   2    -0.232776732709E+04   -0.84217E-01   -0.86575E-01  6651   0.415E-01    0.723E-01
RMM:   3    -0.232777605389E+04   -0.87268E-02   -0.10042E-01  6327   0.160E-01    0.787E-01
RMM:   4    -0.232777040591E+04    0.56480E-02   -0.10322E-02  5709   0.404E-02    0.309E-01
RMM:   5    -0.232776983418E+04    0.57173E-03   -0.22666E-03  5065   0.191E-02    0.228E-01
RMM:   6    -0.232776927081E+04    0.56337E-03   -0.17269E-03  4861   0.204E-02    0.806E-02
RMM:   7    -0.232776938860E+04   -0.11779E-03   -0.49781E-04  3543   0.130E-02    0.108E-01
RMM:   8    -0.232776924558E+04    0.14302E-03   -0.15349E-04  3026   0.695E-03    0.289E-02
RMM:   9    -0.232776922830E+04    0.17276E-04   -0.28269E-05  2993   0.378E-03    0.145E-02
RMM:  10    -0.232776922578E+04    0.25208E-05   -0.15044E-05  2931   0.306E-03
  34 F= -.23491366E+04 E0= -.23491366E+04  d E =-.658746E-01  mag=     3.0000
       N       E                     dE             d eps       ncg     rms          rms(c)
DAV:   1    -0.232767582005E+04    0.93408E-01   -0.70049E+00  4504   0.195E+00    0.849E-01
RMM:   2    -0.232779979456E+04   -0.12397E+00   -0.12210E+00  6607   0.520E-01    0.113E+00
RMM:   3    -0.232780333160E+04   -0.35370E-02   -0.13468E-01  6393   0.194E-01    0.867E-01
RMM:   4    -0.232779753201E+04    0.57996E-02   -0.15734E-02  5887   0.518E-02    0.432E-01
RMM:   5    -0.232779601937E+04    0.15126E-02   -0.38163E-03  5644   0.264E-02    0.257E-01
RMM:   6    -0.232779528864E+04    0.73073E-03   -0.18215E-03  5054   0.236E-02    0.100E-01
RMM:   7    -0.232779550759E+04   -0.21894E-03   -0.73737E-04  4227   0.182E-02    0.145E-01
RMM:   8    -0.232779522815E+04    0.27944E-03   -0.22233E-04  3120   0.762E-03    0.248E-02
RMM:   9    -0.232779521575E+04    0.12400E-04   -0.31184E-05  2979   0.440E-03    0.144E-02
RMM:  10    -0.232779521182E+04    0.39274E-05   -0.18499E-05  2932   0.315E-03
  35 F= -.23491653E+04 E0= -.23491653E+04  d E =-.287095E-01  mag=     3.0000
       N       E                     dE             d eps       ncg     rms          rms(c)
DAV:   1    -0.232779521301E+04    0.27376E-05   -0.44149E-06  3432   0.403E-03    0.301E-03
RMM:   2    -0.232779521324E+04   -0.23279E-06   -0.18142E-06  2550   0.144E-03
  36 F= -.23491653E+04 E0= -.23491653E+04  d E =-.287097E-01  mag=     3.0000
       N       E                     dE             d eps       ncg     rms          rms(c)
DAV:   1    -0.232773688350E+04    0.58330E-01   -0.36199E+00  4516   0.151E+00    0.636E-01
RMM:   2    -0.232781911743E+04   -0.82234E-01   -0.79446E-01  6674   0.413E-01    0.900E-01
RMM:   3    -0.232782038466E+04   -0.12672E-02   -0.88189E-02  6422   0.156E-01    0.617E-01
RMM:   4    -0.232781780445E+04    0.25802E-02   -0.97543E-03  5689   0.386E-02    0.305E-01
RMM:   5    -0.232781703105E+04    0.77341E-03   -0.18864E-03  4996   0.183E-02    0.193E-01
RMM:   6    -0.232781665677E+04    0.37428E-03   -0.10744E-03  5029   0.178E-02    0.106E-01
RMM:   7    -0.232781672523E+04   -0.68462E-04   -0.56732E-04  3522   0.132E-02    0.120E-01
RMM:   8    -0.232781655171E+04    0.17352E-03   -0.13310E-04  3023   0.704E-03    0.186E-02
RMM:   9    -0.232781654582E+04    0.58907E-05   -0.19078E-05  2951   0.354E-03
  37 F= -.23491886E+04 E0= -.23491886E+04  d E =-.233120E-01  mag=     3.0000
       N       E                     dE             d eps       ncg     rms          rms(c)
DAV:   1    -0.232776162705E+04    0.54925E-01   -0.26899E+00  4504   0.130E+00    0.546E-01
RMM:   2    -0.232782258912E+04   -0.60962E-01   -0.58982E-01  6675   0.356E-01    0.768E-01
RMM:   3    -0.232782370841E+04   -0.11193E-02   -0.65487E-02  6396   0.134E-01    0.531E-01
RMM:   4    -0.232782174896E+04    0.19594E-02   -0.71803E-03  5523   0.332E-02    0.257E-01
RMM:   5    -0.232782121367E+04    0.53529E-03   -0.13563E-03  4590   0.157E-02    0.166E-01
RMM:   6    -0.232782092820E+04    0.28547E-03   -0.78185E-04  4800   0.156E-02    0.876E-02
RMM:   7    -0.232782099131E+04   -0.63116E-04   -0.41465E-04  3291   0.115E-02    0.105E-01
RMM:   8    -0.232782085853E+04    0.13278E-03   -0.10083E-04  2983   0.651E-03    0.161E-02
RMM:   9    -0.232782085406E+04    0.44708E-05   -0.14605E-05  2938   0.316E-03
  38 F= -.23491947E+04 E0= -.23491947E+04  d E =-.293578E-01  mag=     3.0000
       N       E                     dE             d eps       ncg     rms          rms(c)
DAV:   1    -0.232779258071E+04    0.28278E-01   -0.19741E+00  4504   0.108E+00    0.442E-01
RMM:   2    -0.232783613582E+04   -0.43555E-01   -0.44195E-01  6718   0.299E-01    0.460E-01
RMM:   3    -0.232783983555E+04   -0.36997E-02   -0.50483E-02  6328   0.117E-01    0.455E-01
RMM:   4    -0.232783827307E+04    0.15625E-02   -0.51082E-03  5070   0.274E-02    0.220E-01
RMM:   5    -0.232783795349E+04    0.31958E-03   -0.85704E-04  3636   0.122E-02    0.143E-01
RMM:   6    -0.232783778284E+04    0.17065E-03   -0.54490E-04  4049   0.122E-02    0.101E-01
RMM:   7    -0.232783774797E+04    0.34865E-04   -0.38795E-04  3360   0.983E-03    0.798E-02
RMM:   8    -0.232783767983E+04    0.68150E-04   -0.77396E-05  2991   0.633E-03    0.145E-02
RMM:   9    -0.232783767677E+04    0.30540E-05   -0.10868E-05  2925   0.325E-03
  39 F= -.23492127E+04 E0= -.23492127E+04  d E =-.180117E-01  mag=     3.0000
       N       E                     dE             d eps       ncg     rms          rms(c)
DAV:   1    -0.232744884033E+04    0.38884E+00   -0.17713E+01  4504   0.325E+00    0.134E+00
RMM:   2    -0.232785015921E+04   -0.40132E+00   -0.40656E+00  6720   0.918E-01    0.142E+00
RMM:   3    -0.232788040604E+04   -0.30247E-01   -0.46766E-01  6437   0.355E-01    0.138E+00
RMM:   4    -0.232786692507E+04    0.13481E-01   -0.47346E-02  6178   0.823E-02    0.701E-01
RMM:   5    -0.232786331424E+04    0.36108E-02   -0.80169E-03  5716   0.350E-02    0.433E-01
RMM:   6    -0.232786201204E+04    0.13022E-02   -0.51833E-03  5669   0.333E-02    0.328E-01
RMM:   7    -0.232786152638E+04    0.48567E-03   -0.38561E-03  5603   0.268E-02    0.250E-01
RMM:   8    -0.232786086663E+04    0.65975E-03   -0.77840E-04  4908   0.137E-02    0.542E-02
RMM:   9    -0.232786083223E+04    0.34400E-04   -0.98562E-05  3014   0.651E-03    0.340E-02
RMM:  10    -0.232786081393E+04    0.18302E-04   -0.51978E-05  2950   0.467E-03    0.103E-02
RMM:  11    -0.232786081284E+04    0.10946E-05   -0.17669E-05  2965   0.350E-03
  40 F= -.23492395E+04 E0= -.23492395E+04  d E =-.447923E-01  mag=     3.0000
       N       E                     dE             d eps       ncg     rms          rms(c)
DAV:   1    -0.232783902082E+04    0.21793E-01   -0.19498E+00  4504   0.113E+00    0.444E-01
RMM:   2    -0.232787721662E+04   -0.38196E-01   -0.39813E-01  6577   0.300E-01    0.370E-01
RMM:   3    -0.232788076940E+04   -0.35528E-02   -0.45108E-02  6254   0.118E-01    0.366E-01
RMM:   4    -0.232787944818E+04    0.13212E-02   -0.44623E-03  5521   0.276E-02    0.178E-01
RMM:   5    -0.232787945144E+04   -0.32624E-05   -0.79284E-04  3975   0.129E-02    0.196E-01
RMM:   6    -0.232787913247E+04    0.31898E-03   -0.62944E-04  4402   0.138E-02    0.107E-01
RMM:   7    -0.232787907462E+04    0.57841E-04   -0.36807E-04  3448   0.109E-02    0.714E-02
RMM:   8    -0.232787902238E+04    0.52248E-04   -0.68332E-05  3002   0.643E-03    0.141E-02
RMM:   9    -0.232787901902E+04    0.33564E-05   -0.11238E-05  2930   0.382E-03
  41 F= -.23492584E+04 E0= -.23492584E+04  d E =-.189404E-01  mag=     3.0000
       N       E                     dE             d eps       ncg     rms          rms(c)
DAV:   1    -0.232774463944E+04    0.13438E+00   -0.71148E+00  4504   0.216E+00    0.853E-01
RMM:   2    -0.232788588973E+04   -0.14125E+00   -0.14671E+00  6565   0.579E-01    0.740E-01
RMM:   3    -0.232789794362E+04   -0.12054E-01   -0.16729E-01  6359   0.228E-01    0.702E-01
RMM:   4    -0.232789336538E+04    0.45782E-02   -0.16291E-02  6050   0.523E-02    0.369E-01
RMM:   5    -0.232789301334E+04    0.35204E-03   -0.29272E-03  5428   0.237E-02    0.352E-01
RMM:   6    -0.232789206448E+04    0.94886E-03   -0.23079E-03  5371   0.243E-02    0.217E-01
RMM:   7    -0.232789178034E+04    0.28414E-03   -0.14444E-03  5050   0.197E-02    0.135E-01
RMM:   8    -0.232789158497E+04    0.19538E-03   -0.26279E-04  4085   0.952E-03    0.281E-02
RMM:   9    -0.232789156947E+04    0.15494E-04   -0.35660E-05  2977   0.552E-03    0.189E-02
RMM:  10    -0.232789156306E+04    0.64142E-05   -0.22873E-05  2941   0.374E-03
  42 F= -.23492724E+04 E0= -.23492724E+04  d E =-.329291E-01  mag=     3.0000
       N       E                     dE             d eps       ncg     rms          rms(c)
DAV:   1    -0.232787758459E+04    0.13985E-01   -0.11038E+00  4592   0.819E-01    0.340E-01
RMM:   2    -0.232790251550E+04   -0.24931E-01   -0.25984E-01  6704   0.223E-01    0.272E-01
RMM:   3    -0.232790493769E+04   -0.24222E-02   -0.29427E-02  5996   0.885E-02    0.264E-01
RMM:   4    -0.232790425012E+04    0.68757E-03   -0.28135E-03  4023   0.200E-02    0.127E-01
RMM:   5    -0.232790426187E+04   -0.11750E-04   -0.39947E-04  3153   0.925E-03    0.143E-01
RMM:   6    -0.232790408746E+04    0.17441E-03   -0.31412E-04  3187   0.949E-03    0.747E-02
RMM:   7    -0.232790407742E+04    0.10040E-04   -0.20788E-04  3101   0.782E-03    0.613E-02
RMM:   8    -0.232790403901E+04    0.38410E-04   -0.50319E-05  2957   0.554E-03    0.122E-02
RMM:   9    -0.232790403681E+04    0.21938E-05   -0.75054E-06  2875   0.292E-03
  43 F= -.23492856E+04 E0= -.23492856E+04  d E =-.131848E-01  mag=     3.0000
       N       E                     dE             d eps       ncg     rms          rms(c)
DAV:   1    -0.232768890628E+04    0.21513E+00   -0.99154E+00  4504   0.246E+00    0.103E+00
RMM:   2    -0.232791810435E+04   -0.22920E+00   -0.23726E+00  6707   0.680E-01    0.903E-01
RMM:   3    -0.232793819525E+04   -0.20091E-01   -0.27338E-01  6378   0.271E-01    0.855E-01
RMM:   4    -0.232793210801E+04    0.60872E-02   -0.25869E-02  5993   0.601E-02    0.476E-01
RMM:   5    -0.232793091455E+04    0.11935E-02   -0.37886E-03  5451   0.242E-02    0.369E-01
RMM:   6    -0.232792984940E+04    0.10652E-02   -0.28244E-03  5243   0.248E-02    0.238E-01
RMM:   7    -0.232792962284E+04    0.22656E-03   -0.20792E-03  5282   0.205E-02    0.177E-01
RMM:   8    -0.232792928524E+04    0.33760E-03   -0.48441E-04  4312   0.112E-02    0.396E-02
RMM:   9    -0.232792925748E+04    0.27758E-04   -0.57353E-05  2980   0.571E-03    0.265E-02
RMM:  10    -0.232792924616E+04    0.11320E-04   -0.35654E-05  2925   0.416E-03    0.822E-03
RMM:  11    -0.232792924570E+04    0.45889E-06   -0.82212E-06  2925   0.306E-03
  44 F= -.23493130E+04 E0= -.23493130E+04  d E =-.405858E-01  mag=     3.0000
       N       E                     dE             d eps       ncg     rms          rms(c)
DAV:   1    -0.232694592514E+04    0.98332E+00   -0.39582E+01  4504   0.491E+00    0.210E+00
RMM:   2    -0.232790833163E+04   -0.96241E+00   -0.98110E+00  6712   0.140E+00    0.218E+00
RMM:   3    -0.232796670379E+04   -0.58372E-01   -0.11311E+00  6418   0.548E-01    0.184E+00
RMM:   4    -0.232794374795E+04    0.22956E-01   -0.10868E-01  6172   0.124E-01    0.113E+00
RMM:   5    -0.232793372154E+04    0.10026E-01   -0.17353E-02  6149   0.511E-02    0.666E-01
RMM:   6    -0.232793111535E+04    0.26062E-02   -0.11458E-02  5733   0.478E-02    0.541E-01
RMM:   7    -0.232792901137E+04    0.21040E-02   -0.86140E-03  6018   0.409E-02    0.314E-01
RMM:   8    -0.232792808391E+04    0.92746E-03   -0.19552E-03  5549   0.212E-02    0.897E-02
RMM:   9    -0.232792796063E+04    0.12327E-03   -0.21625E-04  3348   0.101E-02    0.540E-02
RMM:  10    -0.232792791626E+04    0.44373E-04   -0.16639E-04  3364   0.793E-03    0.195E-02
RMM:  11    -0.232792791425E+04    0.20130E-05   -0.30510E-05  2978   0.512E-03
  45 F= -.23493163E+04 E0= -.23493163E+04  d E =-.438909E-01  mag=     3.0000
       N       E                     dE             d eps       ncg     rms          rms(c)
DAV:   1    -0.232775276033E+04    0.17516E+00   -0.76780E+00  4504   0.215E+00    0.904E-01
RMM:   2    -0.232792674955E+04   -0.17399E+00   -0.18074E+00  6715   0.588E-01    0.783E-01
RMM:   3    -0.232794370541E+04   -0.16956E-01   -0.20788E-01  6316   0.236E-01    0.746E-01
RMM:   4    -0.232793825760E+04    0.54478E-02   -0.19055E-02  6099   0.536E-02    0.373E-01
RMM:   5    -0.232793800847E+04    0.24913E-03   -0.27620E-03  4926   0.207E-02    0.328E-01
RMM:   6    -0.232793696537E+04    0.10431E-02   -0.18819E-03  5046   0.197E-02    0.174E-01
RMM:   7    -0.232793704605E+04   -0.80686E-04   -0.15527E-03  4991   0.182E-02    0.176E-01
RMM:   8    -0.232793669263E+04    0.35342E-03   -0.43576E-04  3696   0.104E-02    0.403E-02
RMM:   9    -0.232793666425E+04    0.28386E-04   -0.54267E-05  2985   0.557E-03    0.291E-02
RMM:  10    -0.232793665293E+04    0.11316E-04   -0.35948E-05  2938   0.397E-03    0.739E-03
RMM:  11    -0.232793665255E+04    0.37820E-06   -0.71775E-06  2905   0.276E-03
  46 F= -.23493230E+04 E0= -.23493230E+04  d E =-.505505E-01  mag=     3.0000
       N       E                     dE             d eps       ncg     rms          rms(c)
DAV:   1    -0.232790433513E+04    0.32318E-01   -0.20252E+00  4504   0.110E+00    0.478E-01
RMM:   2    -0.232795200685E+04   -0.47672E-01   -0.49329E-01  6699   0.302E-01    0.437E-01
RMM:   3    -0.232795689838E+04   -0.48915E-02   -0.55629E-02  6242   0.120E-01    0.485E-01
RMM:   4    -0.232795507545E+04    0.18229E-02   -0.57649E-03  5293   0.289E-02    0.239E-01
RMM:   5    -0.232795471657E+04    0.35889E-03   -0.94412E-04  3546   0.124E-02    0.163E-01
RMM:   6    -0.232795447981E+04    0.23675E-03   -0.63740E-04  4065   0.135E-02    0.961E-02
RMM:   7    -0.232795447654E+04    0.32673E-05   -0.43139E-04  3520   0.103E-02    0.866E-02
RMM:   8    -0.232795439091E+04    0.85632E-04   -0.99255E-05  2980   0.669E-03    0.182E-02
RMM:   9    -0.232795438477E+04    0.61419E-05   -0.14409E-05  2947   0.355E-03
  47 F= -.23493419E+04 E0= -.23493419E+04  d E =-.189881E-01  mag=     3.0000
       N       E                     dE             d eps       ncg     rms          rms(c)
DAV:   1    -0.232751540750E+04    0.43898E+00   -0.18195E+01  4504   0.328E+00    0.144E+00
RMM:   2    -0.232794848717E+04   -0.43308E+00   -0.45212E+00  6695   0.923E-01    0.117E+00
RMM:   3    -0.232799379199E+04   -0.45305E-01   -0.52355E-01  6387   0.370E-01    0.128E+00
RMM:   4    -0.232798058986E+04    0.13202E-01   -0.50551E-02  6335   0.849E-02    0.718E-01
RMM:   5    -0.232797794102E+04    0.26488E-02   -0.77976E-03  5585   0.326E-02    0.526E-01
RMM:   6    -0.232797560526E+04    0.23358E-02   -0.54469E-03  5565   0.353E-02    0.292E-01
RMM:   7    -0.232797578078E+04   -0.17552E-03   -0.41878E-03  5711   0.285E-02    0.295E-01
RMM:   8    -0.232797477674E+04    0.10040E-02   -0.12047E-03  5115   0.164E-02    0.691E-02
RMM:   9    -0.232797469524E+04    0.81503E-04   -0.15132E-04  3008   0.714E-03    0.416E-02
RMM:  10    -0.232797466899E+04    0.26245E-04   -0.79883E-05  2946   0.575E-03    0.135E-02
RMM:  11    -0.232797466792E+04    0.10721E-05   -0.22079E-05  2958   0.412E-03
  48 F= -.23493661E+04 E0= -.23493661E+04  d E =-.431745E-01  mag=     3.0000
       N       E                     dE             d eps       ncg     rms          rms(c)
DAV:   1    -0.232793970461E+04    0.34964E-01   -0.22631E+00  4516   0.117E+00    0.502E-01
RMM:   2    -0.232799014526E+04   -0.50441E-01   -0.49298E-01  6623   0.311E-01    0.682E-01
RMM:   3    -0.232799145729E+04   -0.13120E-02   -0.56072E-02  6311   0.123E-01    0.494E-01
RMM:   4    -0.232798998063E+04    0.14767E-02   -0.61123E-03  5415   0.308E-02    0.272E-01
RMM:   5    -0.232798930733E+04    0.67330E-03   -0.12057E-03  4405   0.146E-02    0.161E-01
RMM:   6    -0.232798912607E+04    0.18126E-03   -0.83636E-04  4863   0.150E-02    0.119E-01
RMM:   7    -0.232798902507E+04    0.10099E-03   -0.45411E-04  3359   0.115E-02    0.694E-02
RMM:   8    -0.232798897326E+04    0.51812E-04   -0.69284E-05  2984   0.608E-03    0.162E-02
RMM:   9    -0.232798896783E+04    0.54357E-05   -0.13001E-05  2946   0.363E-03
  49 F= -.23493819E+04 E0= -.23493819E+04  d E =-.157572E-01  mag=     3.0000
       N       E                     dE             d eps       ncg     rms          rms(c)
DAV:   1    -0.232784386465E+04    0.14511E+00   -0.69867E+00  4504   0.206E+00    0.883E-01
RMM:   2    -0.232799978328E+04   -0.15592E+00   -0.15377E+00  6619   0.548E-01    0.115E+00
RMM:   3    -0.232800562143E+04   -0.58381E-02   -0.17184E-01  6387   0.215E-01    0.904E-01
RMM:   4    -0.232800027858E+04    0.53428E-02   -0.18807E-02  5942   0.541E-02    0.476E-01
RMM:   5    -0.232799825298E+04    0.20256E-02   -0.36860E-03  5481   0.251E-02    0.289E-01
RMM:   6    -0.232799763427E+04    0.61871E-03   -0.26296E-03  5529   0.252E-02    0.204E-01
RMM:   7    -0.232799738016E+04    0.25411E-03   -0.14447E-03  4830   0.186E-02    0.131E-01
RMM:   8    -0.232799719193E+04    0.18823E-03   -0.23951E-04  3436   0.839E-03    0.300E-02
RMM:   9    -0.232799717307E+04    0.18860E-04   -0.40388E-05  2956   0.532E-03    0.170E-02
RMM:  10    -0.232799716789E+04    0.51828E-05   -0.23885E-05  2951   0.344E-03
  50 F= -.23493927E+04 E0= -.23493927E+04  d E =-.265752E-01  mag=     3.0000
       N       E                     dE             d eps       ncg     rms          rms(c)
DAV:   1    -0.232794166282E+04    0.55510E-01   -0.38245E+00  4504   0.153E+00    0.648E-01
RMM:   2    -0.232801998561E+04   -0.78323E-01   -0.75010E-01  6601   0.403E-01    0.925E-01
RMM:   3    -0.232801808392E+04    0.19017E-02   -0.82410E-02  6376   0.152E-01    0.542E-01
RMM:   4    -0.232801703896E+04    0.10450E-02   -0.97699E-03  5615   0.381E-02    0.402E-01
RMM:   5    -0.232801548872E+04    0.15502E-02   -0.20822E-03  5124   0.188E-02    0.202E-01
RMM:   6    -0.232801535706E+04    0.13166E-03   -0.14912E-03  5237   0.189E-02    0.180E-01
RMM:   7    -0.232801504320E+04    0.31386E-03   -0.87186E-04  4301   0.159E-02    0.715E-02
RMM:   8    -0.232801498433E+04    0.58869E-04   -0.87794E-05  3016   0.587E-03    0.213E-02
RMM:   9    -0.232801497530E+04    0.90303E-05   -0.18382E-05  2931   0.411E-03
  51 F= -.23494124E+04 E0= -.23494124E+04  d E =-.196846E-01  mag=     3.0000
       N       E                     dE             d eps       ncg     rms          rms(c)
DAV:   1    -0.232788484582E+04    0.13014E+00   -0.71969E+00  4504   0.211E+00    0.891E-01
RMM:   2    -0.232803291761E+04   -0.14807E+00   -0.14200E+00  6569   0.555E-01    0.126E+00
RMM:   3    -0.232802930425E+04    0.36134E-02   -0.15723E-01  6390   0.212E-01    0.740E-01
RMM:   4    -0.232802725345E+04    0.20508E-02   -0.18357E-02  5884   0.524E-02    0.548E-01
RMM:   5    -0.232802440653E+04    0.28469E-02   -0.38845E-03  5512   0.257E-02    0.280E-01
RMM:   6    -0.232802413641E+04    0.27011E-03   -0.27908E-03  5466   0.254E-02    0.247E-01
RMM:   7    -0.232802356029E+04    0.57613E-03   -0.17145E-03  4961   0.213E-02    0.102E-01
RMM:   8    -0.232802343767E+04    0.12262E-03   -0.17168E-04  3226   0.742E-03    0.303E-02
RMM:   9    -0.232802341936E+04    0.18307E-04   -0.34698E-05  2941   0.533E-03    0.157E-02
RMM:  10    -0.232802341484E+04    0.45217E-05   -0.30168E-05  2956   0.366E-03
  52 F= -.23494234E+04 E0= -.23494234E+04  d E =-.307257E-01  mag=     3.0000
       N       E                     dE             d eps       ncg     rms          rms(c)
DAV:   1    -0.232796140734E+04    0.62012E-01   -0.38683E+00  4504   0.161E+00    0.686E-01
RMM:   2    -0.232804880798E+04   -0.87401E-01   -0.84096E-01  6567   0.432E-01    0.909E-01
RMM:   3    -0.232804508942E+04    0.37186E-02   -0.90955E-02  6339   0.163E-01    0.410E-01
RMM:   4    -0.232804391736E+04    0.11721E-02   -0.92633E-03  5544   0.375E-02    0.292E-01
RMM:   5    -0.232804353689E+04    0.38048E-03   -0.15477E-03  4690   0.183E-02    0.250E-01
RMM:   6    -0.232804334574E+04    0.19114E-03   -0.14125E-03  5135   0.181E-02    0.222E-01
RMM:   7    -0.232804288775E+04    0.45800E-03   -0.97649E-04  4687   0.171E-02    0.638E-02
RMM:   8    -0.232804283924E+04    0.48508E-04   -0.10627E-04  3066   0.639E-03    0.255E-02
RMM:   9    -0.232804282811E+04    0.11128E-04   -0.21052E-05  2924   0.471E-03    0.120E-02
RMM:  10    -0.232804282589E+04    0.22271E-05   -0.22276E-05  2933   0.296E-03
  53 F= -.23494449E+04 E0= -.23494449E+04  d E =-.214626E-01  mag=     3.0000
       N       E                     dE             d eps       ncg     rms          rms(c)
DAV:   1    -0.232781521898E+04    0.22761E+00   -0.11322E+01  4504   0.275E+00    0.119E+00
RMM:   2    -0.232807721205E+04   -0.26199E+00   -0.25013E+00  6566   0.748E-01    0.162E+00
RMM:   3    -0.232806135032E+04    0.15862E-01   -0.27334E-01  6355   0.283E-01    0.681E-01
RMM:   4    -0.232805876017E+04    0.25902E-02   -0.27965E-02  5781   0.651E-02    0.537E-01
RMM:   5    -0.232805708303E+04    0.16771E-02   -0.47400E-03  5564   0.309E-02    0.418E-01
RMM:   6    -0.232805666521E+04    0.41782E-03   -0.40766E-03  5543   0.293E-02    0.381E-01
RMM:   7    -0.232805526792E+04    0.13973E-02   -0.30096E-03  5458   0.286E-02    0.108E-01
RMM:   8    -0.232805512754E+04    0.14038E-03   -0.33367E-04  3690   0.100E-02    0.468E-02
RMM:   9    -0.232805509297E+04    0.34564E-04   -0.64796E-05  2949   0.668E-03    0.202E-02
RMM:  10    -0.232805508790E+04    0.50773E-05   -0.59528E-05  3000   0.475E-03
  54 F= -.23494606E+04 E0= -.23494606E+04  d E =-.371992E-01  mag=     3.0000
       N       E                     dE             d eps       ncg     rms          rms(c)
DAV:   1    -0.232795202254E+04    0.10307E+00   -0.57801E+00  4536   0.199E+00    0.849E-01
RMM:   2    -0.232808290024E+04   -0.13088E+00   -0.12522E+00  6501   0.536E-01    0.114E+00
RMM:   3    -0.232807716017E+04    0.57401E-02   -0.13789E-01  6310   0.205E-01    0.572E-01
RMM:   4    -0.232807572432E+04    0.14358E-02   -0.14773E-02  5756   0.484E-02    0.473E-01
RMM:   5    -0.232807383320E+04    0.18911E-02   -0.28218E-03  5406   0.242E-02    0.269E-01
RMM:   6    -0.232807363114E+04    0.20206E-03   -0.22888E-03  5386   0.234E-02    0.233E-01
RMM:   7    -0.232807309419E+04    0.53696E-03   -0.13708E-03  4998   0.205E-02    0.825E-02
RMM:   8    -0.232807300847E+04    0.85712E-04   -0.16077E-04  3247   0.750E-03    0.308E-02
RMM:   9    -0.232807299272E+04    0.15750E-04   -0.31942E-05  2923   0.560E-03    0.140E-02
RMM:  10    -0.232807298973E+04    0.29936E-05   -0.27877E-05  2943   0.355E-03
  55 F= -.23494809E+04 E0= -.23494809E+04  d E =-.202530E-01  mag=     3.0000
       N       E                     dE             d eps       ncg     rms          rms(c)
DAV:   1    -0.232800670912E+04    0.66284E-01   -0.33350E+00  4536   0.150E+00    0.641E-01
RMM:   2    -0.232808140413E+04   -0.74695E-01   -0.71835E-01  6492   0.406E-01    0.849E-01
RMM:   3    -0.232807876559E+04    0.26385E-02   -0.77981E-02  6261   0.154E-01    0.445E-01
RMM:   4    -0.232807775013E+04    0.10155E-02   -0.83352E-03  5602   0.367E-02    0.351E-01
RMM:   5    -0.232807672961E+04    0.10205E-02   -0.15970E-03  4923   0.184E-02    0.205E-01
RMM:   6    -0.232807656850E+04    0.16112E-03   -0.13356E-03  5133   0.185E-02    0.168E-01
RMM:   7    -0.232807629828E+04    0.27022E-03   -0.74584E-04  4424   0.160E-02    0.645E-02
RMM:   8    -0.232807624394E+04    0.54337E-04   -0.89646E-05  3071   0.605E-03    0.224E-02
RMM:   9    -0.232807623488E+04    0.90662E-05   -0.18434E-05  2918   0.446E-03
  56 F= -.23494859E+04 E0= -.23494859E+04  d E =-.252653E-01  mag=     3.0000
       N       E                     dE             d eps       ncg     rms          rms(c)
DAV:   1    -0.232797557916E+04    0.10066E+00   -0.61569E+00  4504   0.201E+00    0.830E-01
RMM:   2    -0.232809552487E+04   -0.11995E+00   -0.11824E+00  6499   0.527E-01    0.977E-01
RMM:   3    -0.232809452948E+04    0.99538E-03   -0.12221E-01  6332   0.194E-01    0.534E-01
RMM:   4    -0.232809128514E+04    0.32443E-02   -0.11972E-02  5666   0.456E-02    0.258E-01
RMM:   5    -0.232809157839E+04   -0.29325E-03   -0.24630E-03  5346   0.252E-02    0.322E-01
RMM:   6    -0.232809088901E+04    0.68938E-03   -0.20840E-03  5428   0.231E-02    0.203E-01
RMM:   7    -0.232809075791E+04    0.13109E-03   -0.89431E-04  3912   0.154E-02    0.144E-01
RMM:   8    -0.232809048948E+04    0.26844E-03   -0.16488E-04  3000   0.751E-03    0.260E-02
RMM:   9    -0.232809047419E+04    0.15289E-04   -0.38063E-05  2948   0.452E-03    0.156E-02
RMM:  10    -0.232809047093E+04    0.32558E-05   -0.21636E-05  2913   0.367E-03
  57 F= -.23495023E+04 E0= -.23495023E+04  d E =-.163899E-01  mag=     3.0000
       N       E                     dE             d eps       ncg     rms          rms(c)
DAV:   1    -0.232807120036E+04    0.19274E-01   -0.10857E+00  4576   0.839E-01    0.346E-01
RMM:   2    -0.232809201888E+04   -0.20819E-01   -0.20628E-01  6516   0.220E-01    0.399E-01
RMM:   3    -0.232809208667E+04   -0.67789E-04   -0.21085E-02  6029   0.806E-02    0.232E-01
RMM:   4    -0.232809147658E+04    0.61010E-03   -0.21023E-03  4967   0.194E-02    0.109E-01
RMM:   5    -0.232809158157E+04   -0.10499E-03   -0.43715E-04  3359   0.111E-02    0.157E-01
RMM:   6    -0.232809139452E+04    0.18705E-03   -0.36022E-04  3821   0.111E-02    0.772E-02
RMM:   7    -0.232809137495E+04    0.19572E-04   -0.17003E-04  2982   0.806E-03    0.549E-02
RMM:   8    -0.232809133431E+04    0.40643E-04   -0.30948E-05  2924   0.474E-03    0.105E-02
RMM:   9    -0.232809133179E+04    0.25182E-05   -0.71084E-06  2895   0.251E-03
  58 F= -.23495040E+04 E0= -.23495040E+04  d E =-.181543E-01  mag=     3.0000
       N       E                     dE             d eps       ncg     rms          rms(c)
DAV:   1    -0.232802641170E+04    0.64923E-01   -0.45426E+00  4504   0.174E+00    0.693E-01
RMM:   2    -0.232810813702E+04   -0.81725E-01   -0.78038E-01  6515   0.423E-01    0.946E-01
RMM:   3    -0.232810595226E+04    0.21848E-02   -0.81663E-02  6264   0.159E-01    0.557E-01
RMM:   4    -0.232810444761E+04    0.15046E-02   -0.96202E-03  5662   0.397E-02    0.395E-01
RMM:   5    -0.232810312110E+04    0.13265E-02   -0.22331E-03  4980   0.199E-02    0.226E-01
RMM:   6    -0.232810273679E+04    0.38431E-03   -0.16683E-03  5203   0.217E-02    0.136E-01
RMM:   7    -0.232810264346E+04    0.93331E-04   -0.74337E-04  3814   0.160E-02    0.972E-02
RMM:   8    -0.232810252498E+04    0.11848E-03   -0.11531E-04  2983   0.642E-03    0.212E-02
RMM:   9    -0.232810251501E+04    0.99740E-05   -0.24390E-05  2941   0.399E-03
  59 F= -.23495170E+04 E0= -.23495170E+04  d E =-.129294E-01  mag=     3.0000
       N       E                     dE             d eps       ncg     rms          rms(c)
DAV:   1    -0.232809209834E+04    0.10427E-01   -0.64052E-01  4560   0.651E-01    0.261E-01
RMM:   2    -0.232810371909E+04   -0.11621E-01   -0.11022E-01  6475   0.159E-01    0.367E-01
RMM:   3    -0.232810329473E+04    0.42436E-03   -0.11316E-02  5749   0.596E-02    0.205E-01
RMM:   4    -0.232810310087E+04    0.19386E-03   -0.13412E-03  3424   0.152E-02    0.146E-01
RMM:   5    -0.232810291984E+04    0.18103E-03   -0.31643E-04  3035   0.896E-03    0.850E-02
RMM:   6    -0.232810286105E+04    0.58793E-04   -0.23295E-04  3849   0.954E-03    0.477E-02
RMM:   7    -0.232810285402E+04    0.70225E-05   -0.98866E-05  2948   0.717E-03
  60 F= -.23495180E+04 E0= -.23495180E+04  d E =-.139294E-01  mag=     3.0000
       N       E                     dE             d eps       ncg     rms          rms(c)
DAV:   1    -0.232805382174E+04    0.49039E-01   -0.34200E+00  4504   0.155E+00    0.619E-01
RMM:   2    -0.232811826743E+04   -0.64446E-01   -0.59904E-01  6471   0.373E-01    0.931E-01
RMM:   3    -0.232811439522E+04    0.38722E-02   -0.63356E-02  6185   0.142E-01    0.490E-01
RMM:   4    -0.232811353919E+04    0.85603E-03   -0.77703E-03  5608   0.362E-02    0.362E-01
RMM:   5    -0.232811227125E+04    0.12679E-02   -0.17745E-03  5028   0.185E-02    0.193E-01
RMM:   6    -0.232811201845E+04    0.25280E-03   -0.12458E-03  5126   0.194E-02    0.129E-01
RMM:   7    -0.232811190247E+04    0.11598E-03   -0.58028E-04  3720   0.150E-02    0.817E-02
RMM:   8    -0.232811181786E+04    0.84609E-04   -0.79596E-05  2958   0.573E-03    0.193E-02
RMM:   9    -0.232811181063E+04    0.72342E-05   -0.19368E-05  2942   0.378E-03
  61 F= -.23495285E+04 E0= -.23495285E+04  d E =-.105090E-01  mag=     3.0000
       N       E                     dE             d eps       ncg     rms          rms(c)
DAV:   1    -0.232809862529E+04    0.13193E-01   -0.78696E-01  4528   0.743E-01    0.296E-01
RMM:   2    -0.232811359620E+04   -0.14971E-01   -0.13816E-01  6449   0.179E-01    0.459E-01
RMM:   3    -0.232811256396E+04    0.10322E-02   -0.14353E-02  5878   0.670E-02    0.227E-01
RMM:   4    -0.232811238168E+04    0.18228E-03   -0.17461E-03  3880   0.174E-02    0.169E-01
[...]
RMM:   3    -0.232818623166E+04   -0.12851E-03   -0.16916E-03  3792   0.281E-02    0.105E-01
RMM:   4    -0.232818611201E+04    0.11965E-03   -0.18298E-04  2974   0.852E-03    0.488E-02
RMM:   5    -0.232818612745E+04   -0.15443E-04   -0.80234E-05  2953   0.538E-03    0.629E-02
RMM:   6    -0.232818609209E+04    0.35355E-04   -0.53926E-05  2954   0.509E-03    0.231E-02
RMM:   7    -0.232818608944E+04    0.26530E-05   -0.20841E-05  2903   0.407E-03
 124 F= -.23496207E+04 E0= -.23496207E+04  d E =-.168338E-02  mag=     3.0000
       N       E                     dE             d eps       ncg     rms          rms(c)
DAV:   1    -0.232818345951E+04    0.26326E-02   -0.42962E-01  4504   0.513E-01    0.191E-01
RMM:   2    -0.232818748190E+04   -0.40224E-02   -0.42376E-02  6193   0.107E-01    0.174E-01
RMM:   3    -0.232818786308E+04   -0.38118E-03   -0.48850E-03  5257   0.443E-02    0.193E-01
RMM:   4    -0.232818753372E+04    0.32936E-03   -0.54056E-04  3375   0.126E-02    0.908E-02
RMM:   5    -0.232818753842E+04   -0.47006E-05   -0.23095E-04  2982   0.863E-03    0.904E-02
RMM:   6    -0.232818745458E+04    0.83845E-04   -0.14462E-04  3331   0.806E-03    0.258E-02
RMM:   7    -0.232818745737E+04   -0.27920E-05   -0.42351E-05  2941   0.589E-03
 125 F= -.23496221E+04 E0= -.23496221E+04  d E =-.145628E-02  mag=     3.0000
       N       E                     dE             d eps       ncg     rms          rms(c)
DAV:   1    -0.232818340264E+04    0.40519E-02   -0.47195E-01  4504   0.538E-01    0.201E-01
RMM:   2    -0.232818782063E+04   -0.44180E-02   -0.46684E-02  6182   0.113E-01    0.178E-01
RMM:   3    -0.232818825532E+04   -0.43469E-03   -0.53689E-03  5358   0.471E-02    0.199E-01
RMM:   4    -0.232818789420E+04    0.36111E-03   -0.59434E-04  3539   0.132E-02    0.937E-02
RMM:   5    -0.232818791300E+04   -0.18797E-04   -0.25275E-04  2991   0.892E-03    0.989E-02
RMM:   6    -0.232818781480E+04    0.98204E-04   -0.16053E-04  3393   0.835E-03    0.293E-02
RMM:   7    -0.232818781660E+04   -0.18069E-05   -0.48852E-05  2945   0.606E-03
 126 F= -.23496226E+04 E0= -.23496226E+04  d E =-.191175E-02  mag=     3.0000
       N       E                     dE             d eps       ncg     rms          rms(c)
DAV:   1    -0.232818444250E+04    0.33723E-02   -0.54910E-01  4504   0.570E-01    0.215E-01
RMM:   2    -0.232818908021E+04   -0.46377E-02   -0.49908E-02  6112   0.117E-01    0.175E-01
RMM:   3    -0.232818974749E+04   -0.66728E-03   -0.58264E-03  5455   0.503E-02    0.243E-01
RMM:   4    -0.232818920604E+04    0.54146E-03   -0.67555E-04  3568   0.140E-02    0.873E-02
RMM:   5    -0.232818926459E+04   -0.58556E-04   -0.30472E-04  3075   0.977E-03    0.108E-01
RMM:   6    -0.232818913168E+04    0.13291E-03   -0.18525E-04  3436   0.892E-03    0.251E-02
RMM:   7    -0.232818913658E+04   -0.49030E-05   -0.46319E-05  2952   0.595E-03
 127 F= -.23496240E+04 E0= -.23496240E+04  d E =-.141761E-02  mag=     3.0000
       N       E                     dE             d eps       ncg     rms          rms(c)
DAV:   1    -0.232818761403E+04    0.15176E-02   -0.19303E-01  4528   0.338E-01    0.128E-01
RMM:   2    -0.232818924127E+04   -0.16272E-02   -0.17575E-02  6118   0.700E-02    0.996E-02
RMM:   3    -0.232818948611E+04   -0.24484E-03   -0.20490E-03  3942   0.303E-02    0.142E-01
RMM:   4    -0.232818930117E+04    0.18494E-03   -0.23477E-04  2966   0.942E-03    0.519E-02
RMM:   5    -0.232818932669E+04   -0.25518E-04   -0.11159E-04  2967   0.617E-03    0.668E-02
RMM:   6    -0.232818927523E+04    0.51458E-04   -0.66039E-05  2965   0.583E-03    0.140E-02
RMM:   7    -0.232818927658E+04   -0.13542E-05   -0.15968E-05  2927   0.408E-03
 128 F= -.23496242E+04 E0= -.23496242E+04  d E =-.161728E-02  mag=     3.0000
       N       E                     dE             d eps       ncg     rms          rms(c)
DAV:   1    -0.232818599334E+04    0.32819E-02   -0.59154E-01  4504   0.574E-01    0.209E-01
RMM:   2    -0.232819045053E+04   -0.44572E-02   -0.49764E-02  6216   0.117E-01    0.126E-01
RMM:   3    -0.232819091002E+04   -0.45949E-03   -0.54631E-03  5342   0.483E-02    0.137E-01
RMM:   4    -0.232819075546E+04    0.15455E-03   -0.61980E-04  3324   0.131E-02    0.855E-02
RMM:   5    -0.232819068550E+04    0.69961E-04   -0.22585E-04  3566   0.102E-02    0.280E-02
RMM:   6    -0.232819069861E+04   -0.13110E-04   -0.59808E-05  2962   0.670E-03    0.364E-02
RMM:   7    -0.232819068435E+04    0.14268E-04   -0.21830E-05  2903   0.361E-03    0.169E-02
RMM:   8    -0.232819068322E+04    0.11231E-05   -0.71955E-06  2865   0.233E-03
 129 F= -.23496257E+04 E0= -.23496257E+04  d E =-.147370E-02  mag=     3.0000
       N       E                     dE             d eps       ncg     rms          rms(c)
DAV:   1    -0.232818900970E+04    0.16746E-02   -0.24214E-01  4516   0.367E-01    0.134E-01
RMM:   2    -0.232819084354E+04   -0.18338E-02   -0.20411E-02  6142   0.745E-02    0.821E-02
RMM:   3    -0.232819103644E+04   -0.19290E-03   -0.22209E-03  3972   0.303E-02    0.928E-02
RMM:   4    -0.232819095608E+04    0.80353E-04   -0.25426E-04  3025   0.926E-03    0.526E-02
RMM:   5    -0.232819093312E+04    0.22967E-04   -0.97494E-05  3050   0.696E-03    0.241E-02
RMM:   6    -0.232819093956E+04   -0.64413E-05   -0.35237E-05  2932   0.535E-03
 130 F= -.23496260E+04 E0= -.23496260E+04  d E =-.177483E-02  mag=     3.0000
       N       E                     dE             d eps       ncg     rms          rms(c)
DAV:   1    -0.232818668910E+04    0.42440E-02   -0.79846E-01  4504   0.699E-01    0.253E-01
RMM:   2    -0.232819233392E+04   -0.56448E-02   -0.61368E-02  6060   0.138E-01    0.194E-01
RMM:   3    -0.232819327580E+04   -0.94188E-03   -0.68436E-03  5510   0.563E-02    0.295E-01
RMM:   4    -0.232819241554E+04    0.86026E-03   -0.85912E-04  4411   0.163E-02    0.923E-02
RMM:   5    -0.232819251774E+04   -0.10220E-03   -0.41249E-04  3484   0.113E-02    0.126E-01
RMM:   6    -0.232819233317E+04    0.18457E-03   -0.24305E-04  3703   0.978E-03    0.329E-02
RMM:   7    -0.232819233758E+04   -0.44105E-05   -0.62638E-05  2942   0.628E-03
 131 F= -.23496274E+04 E0= -.23496274E+04  d E =-.143094E-02  mag=     3.0000
       N       E                     dE             d eps       ncg     rms          rms(c)
DAV:   1    -0.232819201632E+04    0.31685E-03   -0.48058E-02  4672   0.172E-01    0.634E-02
RMM:   2    -0.232819236703E+04   -0.35071E-03   -0.37764E-03  6068   0.354E-02    0.469E-02
RMM:   3    -0.232819242824E+04   -0.61214E-04   -0.43881E-04  3000   0.150E-02    0.723E-02
RMM:   4    -0.232819237550E+04    0.52744E-04   -0.52625E-05  2919   0.507E-03    0.241E-02
RMM:   5    -0.232819238339E+04   -0.78890E-05   -0.27632E-05  2919   0.315E-03
 132 F= -.23496275E+04 E0= -.23496274E+04  d E =-.148539E-02  mag=     3.0000
       N       E                     dE             d eps       ncg     rms          rms(c)
DAV:   1    -0.232818826471E+04    0.41108E-02   -0.73678E-01  4504   0.669E-01    0.242E-01
RMM:   2    -0.232819402193E+04   -0.57572E-02   -0.57935E-02  6121   0.133E-01    0.276E-01
RMM:   3    -0.232819418009E+04   -0.15816E-03   -0.63020E-03  5409   0.528E-02    0.243E-01
RMM:   4    -0.232819362151E+04    0.55858E-03   -0.74098E-04  4318   0.154E-02    0.933E-02
RMM:   5    -0.232819368761E+04   -0.66101E-04   -0.37729E-04  3303   0.111E-02    0.117E-01
RMM:   6    -0.232819353262E+04    0.15499E-03   -0.22500E-04  3835   0.949E-03    0.328E-02
RMM:   7    -0.232819353279E+04   -0.16419E-06   -0.55043E-05  2941   0.652E-03
 133 F= -.23496288E+04 E0= -.23496287E+04  d E =-.129091E-02  mag=     3.0000
       N       E                     dE             d eps       ncg     rms          rms(c)
DAV:   1    -0.232819309336E+04    0.43926E-03   -0.61095E-02  4560   0.193E-01    0.707E-02
RMM:   2    -0.232819357004E+04   -0.47668E-03   -0.48448E-03  6063   0.391E-02    0.734E-02
RMM:   3    -0.232819360463E+04   -0.34591E-04   -0.54326E-04  3070   0.163E-02    0.748E-02
RMM:   4    -0.232819355345E+04    0.51178E-04   -0.63674E-05  2929   0.543E-03    0.291E-02
RMM:   5    -0.232819355747E+04   -0.40170E-05   -0.31826E-05  2905   0.356E-03
 134 F= -.23496288E+04 E0= -.23496288E+04  d E =-.135715E-02  mag=     3.0000
       N       E                     dE             d eps       ncg     rms          rms(c)
DAV:   1    -0.232819009846E+04    0.34550E-02   -0.64255E-01  4504   0.651E-01    0.236E-01
RMM:   2    -0.232819445829E+04   -0.43598E-02   -0.47457E-02  6065   0.125E-01    0.173E-01
RMM:   3    -0.232819524909E+04   -0.79080E-03   -0.53606E-03  5319   0.513E-02    0.267E-01
RMM:   4    -0.232819448934E+04    0.75975E-03   -0.68576E-04  4351   0.152E-02    0.876E-02
RMM:   5    -0.232819457884E+04   -0.89501E-04   -0.33002E-04  3203   0.108E-02    0.119E-01
RMM:   6    -0.232819441761E+04    0.16123E-03   -0.19343E-04  3714   0.911E-03    0.214E-02
RMM:   7    -0.232819441958E+04   -0.19763E-05   -0.35248E-05  2955   0.585E-03
 135 F= -.23496299E+04 E0= -.23496299E+04  d E =-.107069E-02  mag=     3.0000
       N       E                     dE             d eps       ncg     rms          rms(c)
DAV:   1    -0.232819428271E+04    0.13490E-03   -0.15814E-02  4880   0.102E-01    0.381E-02
RMM:   2    -0.232819439332E+04   -0.11061E-03   -0.11989E-03  5740   0.210E-02    0.242E-02
RMM:   3    -0.232819441238E+04   -0.19059E-04   -0.14260E-04  2916   0.962E-03    0.360E-02
RMM:   4    -0.232819439825E+04    0.14132E-04   -0.17192E-05  2908   0.310E-03    0.146E-02
RMM:   5    -0.232819440097E+04   -0.27158E-05   -0.92831E-06  2804   0.189E-03
 136 F= -.23496299E+04 E0= -.23496299E+04  d E =-.108512E-02  mag=     3.0000
       N       E                     dE             d eps       ncg     rms          rms(c)
DAV:   1    -0.232819143300E+04    0.29653E-02   -0.56765E-01  4504   0.586E-01    0.207E-01
RMM:   2    -0.232819523227E+04   -0.37993E-02   -0.42418E-02  5987   0.114E-01    0.133E-01
RMM:   3    -0.232819571686E+04   -0.48459E-03   -0.48312E-03  5258   0.480E-02    0.179E-01
RMM:   4    -0.232819536760E+04    0.34926E-03   -0.55371E-04  3710   0.133E-02    0.779E-02
RMM:   5    -0.232819545771E+04   -0.90114E-04   -0.28517E-04  3203   0.985E-03    0.125E-01
RMM:   6    -0.232819532802E+04    0.12970E-03   -0.17668E-04  3019   0.853E-03    0.392E-02
RMM:   7    -0.232819531855E+04    0.94641E-05   -0.48849E-05  2924   0.589E-03
 137 F= -.23496309E+04 E0= -.23496309E+04  d E =-.103411E-02  mag=     3.0000
       N       E                     dE             d eps       ncg     rms          rms(c)
DAV:   1    -0.232819507258E+04    0.25544E-03   -0.33362E-02  4592   0.142E-01    0.512E-02
RMM:   2    -0.232819530348E+04   -0.23090E-03   -0.25517E-03  5915   0.288E-02    0.308E-02
RMM:   3    -0.232819533045E+04   -0.26975E-04   -0.28480E-04  2951   0.127E-02    0.393E-02
RMM:   4    -0.232819531596E+04    0.14491E-04   -0.33388E-05  2919   0.400E-03    0.200E-02
RMM:   5    -0.232819531898E+04   -0.30189E-05   -0.16103E-05  2901   0.262E-03
 138 F= -.23496310E+04 E0= -.23496309E+04  d E =-.106341E-02  mag=     3.0000
       N       E                     dE             d eps       ncg     rms          rms(c)
DAV:   1    -0.232819248520E+04    0.28308E-02   -0.51257E-01  4504   0.558E-01    0.200E-01
RMM:   2    -0.232819615762E+04   -0.36724E-02   -0.40628E-02  6026   0.110E-01    0.131E-01
RMM:   3    -0.232819663053E+04   -0.47291E-03   -0.45330E-03  5268   0.463E-02    0.179E-01
RMM:   4    -0.232819626864E+04    0.36189E-03   -0.51383E-04  3453   0.128E-02    0.683E-02
RMM:   5    -0.232819637814E+04   -0.10950E-03   -0.26537E-04  3202   0.950E-03    0.125E-01
RMM:   6    -0.232819623513E+04    0.14301E-03   -0.14360E-04  2969   0.801E-03    0.273E-02
RMM:   7    -0.232819623638E+04   -0.12498E-05   -0.40139E-05  2929   0.528E-03
 139 F= -.23496319E+04 E0= -.23496319E+04  d E =-.946497E-03  mag=     3.0000
       N       E                     dE             d eps       ncg     rms          rms(c)
DAV:   1    -0.232819608099E+04    0.15414E-03   -0.20934E-02  4736   0.113E-01    0.413E-02
RMM:   2    -0.232819623600E+04   -0.15501E-03   -0.17047E-03  5783   0.236E-02    0.240E-02
RMM:   3    -0.232819625331E+04   -0.17310E-04   -0.18915E-04  2917   0.105E-02    0.288E-02
RMM:   4    -0.232819624633E+04    0.69841E-05   -0.21101E-05  2919   0.322E-03
 140 F= -.23496319E+04 E0= -.23496319E+04  d E =-.962835E-03  mag=     3.0000
       N       E                     dE             d eps       ncg     rms          rms(c)
DAV:   1    -0.232819438431E+04    0.18690E-02   -0.38028E-01  4504   0.502E-01    0.178E-01
RMM:   2    -0.232819700026E+04   -0.26160E-02   -0.29435E-02  6037   0.998E-02    0.103E-01
RMM:   3    -0.232819726493E+04   -0.26467E-03   -0.30679E-03  5116   0.416E-02    0.124E-01
RMM:   4    -0.232819711862E+04    0.14631E-03   -0.38418E-04  3276   0.118E-02    0.722E-02
RMM:   5    -0.232819713853E+04   -0.19910E-04   -0.20377E-04  3351   0.957E-03    0.888E-02
RMM:   6    -0.232819706996E+04    0.68574E-04   -0.79080E-05  2935   0.713E-03    0.262E-02
RMM:   7    -0.232819706875E+04    0.12064E-05   -0.22274E-05  2925   0.408E-03
 141 F= -.23496328E+04 E0= -.23496328E+04  d E =-.843850E-03  mag=     3.0000
       N       E                     dE             d eps       ncg     rms          rms(c)
DAV:   1    -0.232819703236E+04    0.37596E-04   -0.46765E-03  5040   0.560E-02    0.210E-02
RMM:   2    -0.232819706692E+04   -0.34565E-04   -0.37456E-04  4160   0.125E-02    0.145E-02
RMM:   3    -0.232819707334E+04   -0.64144E-05   -0.49654E-05  2905   0.690E-03
 142 F= -.23496328E+04 E0= -.23496328E+04  d E =-.851035E-03  mag=     3.0000
       N       E                     dE             d eps       ncg     rms          rms(c)
DAV:   1    -0.232819581380E+04    0.12531E-02   -0.24610E-01  4528   0.429E-01    0.160E-01
RMM:   2    -0.232819815693E+04   -0.23431E-02   -0.21812E-02  6039   0.857E-02    0.213E-01
RMM:   3    -0.232819802168E+04    0.13525E-03   -0.24137E-03  4415   0.347E-02    0.147E-01
RMM:   4    -0.232819780701E+04    0.21467E-03   -0.28661E-04  3605   0.107E-02    0.521E-02
RMM:   5    -0.232819784074E+04   -0.33732E-04   -0.13819E-04  3002   0.782E-03    0.748E-02
RMM:   6    -0.232819777623E+04    0.64512E-04   -0.82351E-05  3062   0.697E-03    0.168E-02
RMM:   7    -0.232819777740E+04   -0.11639E-05   -0.20197E-05  2923   0.509E-03
 143 F= -.23496335E+04 E0= -.23496335E+04  d E =-.734742E-03  mag=     3.0000
       N       E                     dE             d eps       ncg     rms          rms(c)
DAV:   1    -0.232819732640E+04    0.44984E-03   -0.61547E-02  4528   0.214E-01    0.792E-02
RMM:   2    -0.232819788883E+04   -0.56243E-03   -0.54444E-03  6057   0.434E-02    0.915E-02
RMM:   3    -0.232819789987E+04   -0.11046E-04   -0.60145E-04  3209   0.176E-02    0.806E-02
RMM:   4    -0.232819783482E+04    0.65053E-04   -0.69675E-05  2941   0.603E-03    0.256E-02
RMM:   5    -0.232819784243E+04   -0.76099E-05   -0.34979E-05  2928   0.423E-03
 144 F= -.23496336E+04 E0= -.23496336E+04  d E =-.815847E-03  mag=     3.0000
       N       E                     dE             d eps       ncg     rms          rms(c)
DAV:   1    -0.232819726211E+04    0.57271E-03   -0.12310E-01  4528   0.295E-01    0.105E-01
RMM:   2    -0.232819855771E+04   -0.12956E-02   -0.12246E-02  6204   0.609E-02    0.144E-01
RMM:   3    -0.232819851128E+04    0.46424E-04   -0.13573E-03  3519   0.240E-02    0.914E-02
RMM:   4    -0.232819842928E+04    0.82002E-04   -0.13748E-04  2990   0.751E-03    0.302E-02
RMM:   5    -0.232819845058E+04   -0.21299E-04   -0.66086E-05  2987   0.554E-03    0.496E-02
RMM:   6    -0.232819842182E+04    0.28760E-04   -0.32279E-05  2917   0.493E-03    0.113E-02
RMM:   7    -0.232819842106E+04    0.75731E-06   -0.44227E-06  2865   0.237E-03
 145 F= -.23496342E+04 E0= -.23496342E+04  d E =-.619857E-03  mag=     3.0000
       N       E                     dE             d eps       ncg     rms          rms(c)
DAV:   1    -0.232819300798E+04    0.54138E-02   -0.63233E-01  4504   0.668E-01    0.237E-01
RMM:   2    -0.232819981750E+04   -0.68095E-02   -0.62755E-02  6136   0.135E-01    0.352E-01
RMM:   3    -0.232819933279E+04    0.48471E-03   -0.68336E-03  5479   0.536E-02    0.198E-01
RMM:   4    -0.232819895923E+04    0.37356E-03   -0.73150E-04  4081   0.143E-02    0.733E-02
RMM:   5    -0.232819904978E+04   -0.90544E-04   -0.31627E-04  3401   0.104E-02    0.113E-01
RMM:   6    -0.232819890762E+04    0.14216E-03   -0.17940E-04  3319   0.895E-03    0.317E-02
RMM:   7    -0.232819890974E+04   -0.21233E-05   -0.48941E-05  2936   0.609E-03
 146 F= -.23496348E+04 E0= -.23496348E+04  d E =-.120592E-02  mag=     3.0000
       N       E                     dE             d eps       ncg     rms          rms(c)
DAV:   1    -0.232819795537E+04    0.95225E-03   -0.20225E-01  4528   0.384E-01    0.136E-01
RMM:   2    -0.232819972083E+04   -0.17655E-02   -0.18040E-02  6047   0.761E-02    0.134E-01
RMM:   3    -0.232819990682E+04   -0.18600E-03   -0.19531E-03  4055   0.310E-02    0.155E-01
RMM:   4    -0.232819966176E+04    0.24506E-03   -0.22368E-04  3051   0.982E-03    0.392E-02
RMM:   5    -0.232819968477E+04   -0.23014E-04   -0.10727E-04  3109   0.711E-03    0.564E-02
RMM:   6    -0.232819965091E+04    0.33863E-04   -0.55648E-05  2929   0.616E-03    0.166E-02
RMM:   7    -0.232819965148E+04   -0.57317E-06   -0.13698E-05  2909   0.358E-03
 147 F= -.23496356E+04 E0= -.23496356E+04  d E =-.773055E-03  mag=     3.0000
       N       E                     dE             d eps       ncg     rms          rms(c)
DAV:   1    -0.232819800708E+04    0.16438E-02   -0.22571E-01  4504   0.406E-01    0.143E-01
RMM:   2    -0.232819997099E+04   -0.19639E-02   -0.20144E-02  6102   0.808E-02    0.140E-01
RMM:   3    -0.232820018383E+04   -0.21284E-03   -0.21702E-03  4135   0.330E-02    0.164E-01
RMM:   4    -0.232819990886E+04    0.27498E-03   -0.24894E-04  3101   0.103E-02    0.407E-02
RMM:   5    -0.232819993339E+04   -0.24533E-04   -0.11663E-04  3210   0.750E-03    0.590E-02
RMM:   6    -0.232819989547E+04    0.37924E-04   -0.60189E-05  2930   0.633E-03    0.170E-02
RMM:   7    -0.232819989473E+04    0.73422E-06   -0.12307E-05  2908   0.355E-03
 148 F= -.23496359E+04 E0= -.23496358E+04  d E =-.105145E-02  mag=     3.0000
       N       E                     dE             d eps       ncg     rms          rms(c)
DAV:   1    -0.232819843820E+04    0.14573E-02   -0.27257E-01  4504   0.440E-01    0.151E-01
RMM:   2    -0.232820076283E+04   -0.23246E-02   -0.25461E-02  6117   0.876E-02    0.925E-02
RMM:   3    -0.232820109420E+04   -0.33137E-03   -0.27323E-03  4458   0.369E-02    0.147E-01
RMM:   4    -0.232820089321E+04    0.20099E-03   -0.30690E-04  2988   0.103E-02    0.585E-02
RMM:   5    -0.232820092035E+04   -0.27139E-04   -0.14409E-04  2999   0.762E-03    0.684E-02
RMM:   6    -0.232820086588E+04    0.54466E-04   -0.71742E-05  2951   0.637E-03    0.197E-02
RMM:   7    -0.232820086687E+04   -0.98809E-06   -0.18322E-05  2919   0.408E-03
 149 F= -.23496368E+04 E0= -.23496367E+04  d E =-.905910E-03  mag=     3.0000
       N       E                     dE             d eps       ncg     rms          rms(c)
DAV:   1    -0.232819879394E+04    0.20719E-02   -0.27005E-01  4504   0.438E-01    0.151E-01
RMM:   2    -0.232820110298E+04   -0.23090E-02   -0.25304E-02  6096   0.875E-02    0.901E-02
RMM:   3    -0.232820143366E+04   -0.33068E-03   -0.26988E-03  4435   0.372E-02    0.146E-01
RMM:   4    -0.232820123463E+04    0.19903E-03   -0.30476E-04  2974   0.102E-02    0.573E-02
RMM:   5    -0.232820124815E+04   -0.13514E-04   -0.12970E-04  3041   0.755E-03    0.611E-02
RMM:   6    -0.232820120865E+04    0.39499E-04   -0.62225E-05  2937   0.631E-03    0.204E-02
RMM:   7    -0.232820120480E+04    0.38449E-05   -0.10407E-05  2913   0.334E-03
 150 F= -.23496370E+04 E0= -.23496370E+04  d E =-.118050E-02  mag=     3.0000
