       N       E                     dE             d eps       ncg     rms          rms(c)
DAV:   1     0.131372082699E+05    0.13137E+05   -0.84080E+05  4520   0.145E+03
DAV:   2    -0.994491788436E+03   -0.14132E+05   -0.13502E+05  4896   0.332E+02
DAV:   3    -0.247518162095E+04   -0.14807E+04   -0.14625E+04  5552   0.116E+02
DAV:   4    -0.252112859625E+04   -0.45947E+02   -0.45701E+02  6664   0.293E+01
DAV:   5    -0.252199705949E+04   -0.86846E+00   -0.86625E+00  6248   0.345E+00    0.170E+02
RMM:   6    -0.148539420272E+04    0.10366E+04   -0.19611E+03  4452   0.384E+01    0.725E+01
RMM:   7    -0.165715455709E+04   -0.17176E+03   -0.28905E+02  5200   0.146E+01    0.533E+01
RMM:   8    -0.171733635046E+04   -0.60182E+02   -0.73789E+01  5341   0.810E+00    0.469E+01
RMM:   9    -0.177344299611E+04   -0.56107E+02   -0.55655E+01  5097   0.741E+00    0.325E+01
RMM:  10    -0.192236926456E+04   -0.14893E+03   -0.68568E+01  5409   0.805E+00    0.250E+01
RMM:  11    -0.198722100799E+04   -0.64852E+02   -0.26095E+01  5379   0.450E+00    0.226E+01
RMM:  12    -0.205771373174E+04   -0.70493E+02   -0.26984E+01  5100   0.418E+00    0.174E+01
RMM:  13    -0.212734654569E+04   -0.69633E+02   -0.31932E+01  5130   0.448E+00    0.149E+01
RMM:  14    -0.222350922700E+04   -0.96163E+02   -0.66464E+01  4504   0.605E+00    0.104E+01
RMM:  15    -0.228987522947E+04   -0.66366E+02   -0.61447E+01  4714   0.560E+00    0.606E+00
RMM:  16    -0.230691634300E+04   -0.17041E+02   -0.19306E+01  4854   0.352E+00    0.364E+00
RMM:  17    -0.231162702581E+04   -0.47107E+01   -0.56538E+00  5372   0.146E+00    0.223E+00
RMM:  18    -0.231426227063E+04   -0.26352E+01   -0.26117E+00  4705   0.953E-01    0.220E+00
RMM:  19    -0.231473012760E+04   -0.46786E+00   -0.42524E-01  5076   0.508E-01    0.244E+00
RMM:  20    -0.231473060720E+04   -0.47960E-03   -0.63873E-02  6270   0.120E-01    0.235E+00
RMM:  21    -0.231475557173E+04   -0.24965E-01   -0.11773E-02  5105   0.662E-02    0.288E+00
RMM:  22    -0.231474929136E+04    0.62804E-02   -0.45049E-01  4654   0.363E-01    0.125E+00
RMM:  23    -0.231449525900E+04    0.25403E+00   -0.78907E-01  4707   0.411E-01    0.259E+00
RMM:  24    -0.231458317232E+04   -0.87913E-01   -0.57916E-02  4955   0.123E-01    0.220E+00
RMM:  25    -0.231468986300E+04   -0.10669E+00   -0.35864E-02  4462   0.108E-01    0.194E+00
RMM:  26    -0.231482922111E+04   -0.13936E+00   -0.59855E-02  4543   0.115E-01    0.138E+00
RMM:  27    -0.231476174872E+04    0.67472E-01   -0.19389E-02  4591   0.786E-02    0.156E+00
RMM:  28    -0.231465626800E+04    0.10548E+00   -0.55066E-02  4680   0.105E-01    0.161E+00
RMM:  29    -0.231464995933E+04    0.63087E-02   -0.40934E-03  4353   0.374E-02    0.164E+00
RMM:  30    -0.231465097549E+04   -0.10162E-02   -0.37274E-04  4167   0.812E-03    0.165E+00
RMM:  31    -0.231465340646E+04   -0.24310E-02   -0.12104E-04  3167   0.749E-03    0.166E+00
RMM:  32    -0.231481974765E+04   -0.16634E+00   -0.14581E-01  4486   0.138E-01    0.187E+00
RMM:  33    -0.231498642236E+04   -0.16667E+00   -0.11493E-01  4707   0.134E-01    0.167E+00
RMM:  34    -0.231505573560E+04   -0.69313E-01   -0.69153E-02  5010   0.108E-01    0.158E+00
RMM:  35    -0.231498833777E+04    0.67398E-01   -0.30033E-02  4870   0.791E-02    0.173E+00
RMM:  36    -0.231496212516E+04    0.26213E-01   -0.13275E-02  4711   0.562E-02    0.178E+00
RMM:  37    -0.231497762229E+04   -0.15497E-01   -0.19458E-03  4265   0.258E-02    0.176E+00
RMM:  38    -0.231502180395E+04   -0.44182E-01   -0.41285E-02  4807   0.854E-02    0.165E+00
RMM:  39    -0.231501606918E+04    0.57348E-02   -0.37094E-02  4919   0.808E-02    0.150E+00
RMM:  40    -0.231503953590E+04   -0.23467E-01   -0.45584E-03  4528   0.302E-02    0.151E+00
RMM:  41    -0.231506558227E+04   -0.26046E-01   -0.43219E-03  4092   0.265E-02    0.150E+00
RMM:  42    -0.231505424421E+04    0.11338E-01   -0.11312E-03  3893   0.137E-02    0.150E+00
RMM:  43    -0.231508726832E+04   -0.33024E-01   -0.14722E-02  4893   0.412E-02    0.154E+00
RMM:  44    -0.231503100149E+04    0.56267E-01   -0.55852E-02  4962   0.812E-02    0.141E+00
RMM:  45    -0.231468457242E+04    0.34643E+00   -0.64455E-01  4989   0.276E-01    0.121E+00
RMM:  46    -0.231458508102E+04    0.99491E-01   -0.57579E-02  5139   0.907E-02    0.132E+00
RMM:  47    -0.231464792761E+04   -0.62847E-01   -0.62804E-03  4303   0.275E-02    0.123E+00
RMM:  48    -0.231479714755E+04   -0.14922E+00   -0.46007E-02  4797   0.653E-02    0.952E-01
RMM:  49    -0.231480452153E+04   -0.73740E-02   -0.19562E-02  5080   0.612E-02    0.113E+00
RMM:  50    -0.231490821411E+04   -0.10369E+00   -0.12841E-01  4879   0.153E-01    0.156E+00
RMM:  51    -0.231506799713E+04   -0.15978E+00   -0.10338E-01  4585   0.117E-01    0.141E+00
RMM:  52    -0.231518684791E+04   -0.11885E+00   -0.81109E-02  4593   0.100E-01    0.119E+00
RMM:  53    -0.231531982792E+04   -0.13298E+00   -0.13211E-01  4569   0.116E-01    0.151E+00
RMM:  54    -0.231543391113E+04   -0.11408E+00   -0.22052E-01  5077   0.130E-01    0.309E+00
RMM:  55    -0.231543469557E+04   -0.78444E-03   -0.33637E-02  4707   0.613E-02    0.297E+00
RMM:  56    -0.231543866835E+04   -0.39728E-02   -0.81717E-03  5258   0.197E-02    0.294E+00
RMM:  57    -0.231543432106E+04    0.43473E-02   -0.20979E-03  4990   0.184E-02    0.300E+00
RMM:  58    -0.231543447453E+04   -0.15347E-03   -0.17398E-04  2946   0.602E-03    0.301E+00
RMM:  59    -0.231543623013E+04   -0.17556E-02   -0.33689E-04  2947   0.463E-03    0.304E+00
RMM:  60    -0.231544277537E+04   -0.65452E-02   -0.99627E-04  3829   0.995E-03    0.309E+00
RMM:  61    -0.231542665898E+04    0.16116E-01   -0.21043E-02  5254   0.587E-02    0.333E+00
RMM:  62    -0.231541416968E+04    0.12489E-01   -0.11177E-02  4478   0.386E-02    0.318E+00
RMM:  63    -0.231535199949E+04    0.62170E-01   -0.80050E-02  4753   0.631E-02    0.215E+00
RMM:  64    -0.231535630864E+04   -0.43092E-02   -0.41823E-03  4663   0.249E-02    0.214E+00
RMM:  65    -0.231532058906E+04    0.35720E-01   -0.15737E-02  4718   0.408E-02    0.150E+00
RMM:  66    -0.231529909557E+04    0.21493E-01   -0.71514E-03  4594   0.339E-02    0.124E+00
RMM:  67    -0.231529008121E+04    0.90144E-02   -0.19943E-03  3627   0.155E-02    0.117E+00
RMM:  68    -0.231529457804E+04   -0.44968E-02   -0.23065E-04  3201   0.696E-03    0.118E+00
RMM:  69    -0.231527698729E+04    0.17591E-01   -0.58631E-03  4216   0.239E-02    0.107E+00
RMM:  70    -0.231523672815E+04    0.40259E-01   -0.14246E-02  4431   0.357E-02    0.987E-01
RMM:  71    -0.231527968065E+04   -0.42952E-01   -0.71958E-03  4050   0.257E-02    0.114E+00
RMM:  72    -0.231524936322E+04    0.30317E-01   -0.59023E-03  4167   0.227E-02    0.105E+00
RMM:  73    -0.231523244699E+04    0.16916E-01   -0.27052E-03  3939   0.177E-02    0.106E+00
RMM:  74    -0.231522657961E+04    0.58674E-02   -0.55961E-04  3421   0.102E-02    0.109E+00
RMM:  75    -0.231522685700E+04   -0.27739E-03   -0.59912E-05  2943   0.446E-03    0.109E+00
RMM:  76    -0.231524401402E+04   -0.17157E-01   -0.21613E-03  3956   0.149E-02    0.106E+00
RMM:  77    -0.231524510415E+04   -0.10901E-02   -0.10661E-04  2845   0.505E-03    0.106E+00
RMM:  78    -0.231524626358E+04   -0.11594E-02   -0.28174E-05  2580   0.226E-03    0.106E+00
RMM:  79    -0.231524044730E+04    0.58163E-02   -0.20788E-04  2815   0.472E-03    0.105E+00
RMM:  80    -0.231524443245E+04   -0.39851E-02   -0.13671E-04  2942   0.464E-03    0.107E+00
RMM:  81    -0.231525192683E+04   -0.74944E-02   -0.10180E-03  3958   0.142E-02    0.104E+00
RMM:  82    -0.231528650449E+04   -0.34578E-01   -0.89157E-03  4091   0.262E-02    0.120E+00
RMM:  83    -0.231526095368E+04    0.25551E-01   -0.55102E-03  4220   0.216E-02    0.112E+00
RMM:  84    -0.231525442383E+04    0.65299E-02   -0.12739E-03  3877   0.142E-02    0.118E+00
RMM:  85    -0.231516933824E+04    0.85086E-01   -0.56026E-02  5008   0.739E-02    0.149E+00
RMM:  86    -0.231526972393E+04   -0.10039E+00   -0.49275E-02  4882   0.614E-02    0.133E+00
RMM:  87    -0.231519934169E+04    0.70382E-01   -0.29626E-02  4791   0.502E-02    0.142E+00
RMM:  88    -0.231509090103E+04    0.10844E+00   -0.50567E-02  4816   0.699E-02    0.172E+00
RMM:  89    -0.231505526268E+04    0.35638E-01   -0.80584E-03  4192   0.315E-02    0.179E+00
RMM:  90    -0.231505225570E+04    0.30070E-02   -0.79618E-04  3403   0.101E-02    0.180E+00
RMM:  91    -0.231487121178E+04    0.18104E+00   -0.79404E-02  4878   0.860E-02    0.223E+00
RMM:  92    -0.231500411917E+04   -0.13291E+00   -0.35954E-02  4890   0.522E-02    0.190E+00
RMM:  93    -0.231498023756E+04    0.23882E-01   -0.20804E-03  3737   0.149E-02    0.200E+00
RMM:  94    -0.231497616078E+04    0.40768E-02   -0.18997E-04  2993   0.665E-03    0.202E+00
RMM:  95    -0.231497642618E+04   -0.26540E-03   -0.24474E-05  2775   0.324E-03    0.202E+00
RMM:  96    -0.231483473242E+04    0.14169E+00   -0.54631E-02  4939   0.770E-02    0.265E+00
RMM:  97    -0.231485422849E+04   -0.19496E-01   -0.17725E-03  4284   0.201E-02    0.259E+00
RMM:  98    -0.231484843516E+04    0.57933E-02   -0.15945E-04  3066   0.597E-03    0.259E+00
RMM:  99    -0.231486531636E+04   -0.16881E-01   -0.46263E-04  3131   0.755E-03    0.256E+00
RMM: 100    -0.231495868504E+04   -0.93369E-01   -0.18669E-02  4312   0.383E-02    0.241E+00
RMM: 101    -0.231424827210E+04    0.71041E+00   -0.48298E-01  4961   0.217E-01    0.362E+00
RMM: 102    -0.231437414017E+04   -0.12587E+00   -0.14867E-02  4597   0.457E-02    0.349E+00
RMM: 103    -0.231443554970E+04   -0.61410E-01   -0.28955E-03  3885   0.203E-02    0.344E+00
RMM: 104    -0.231451475676E+04   -0.79207E-01   -0.67079E-03  3788   0.263E-02    0.335E+00
RMM: 105    -0.231458512571E+04   -0.70369E-01   -0.56628E-03  3848   0.252E-02    0.327E+00
RMM: 106    -0.231543014683E+04   -0.84502E+00   -0.14485E+00  4842   0.283E-01    0.452E+00
RMM: 107    -0.231533687363E+04    0.93273E-01   -0.12433E-01  4376   0.130E-01    0.200E+00
RMM: 108    -0.231535914185E+04   -0.22268E-01   -0.24938E-02  4938   0.393E-02    0.241E+00
RMM: 109    -0.231544432735E+04   -0.85186E-01   -0.12898E-01  5161   0.878E-02    0.396E+00
RMM: 110    -0.231542821290E+04    0.16114E-01   -0.10113E-02  4012   0.363E-02    0.361E+00
RMM: 111    -0.231545133272E+04   -0.23120E-01   -0.11442E-02  5425   0.358E-02    0.386E+00
RMM: 112    -0.231545206715E+04   -0.73443E-03   -0.12129E-03  3654   0.144E-02    0.382E+00
RMM: 113    -0.231545051523E+04    0.15519E-02   -0.14155E-04  2970   0.425E-03    0.381E+00
RMM: 114    -0.231544991006E+04    0.60517E-03   -0.14756E-05  2802   0.251E-03    0.381E+00
RMM: 115    -0.231543552444E+04    0.14386E-01   -0.61786E-03  4296   0.210E-02    0.365E+00
RMM: 116    -0.231527713992E+04    0.15838E+00   -0.34390E-01  4917   0.139E-01    0.165E+00
RMM: 117    -0.231526767072E+04    0.94692E-02   -0.12707E-02  4719   0.451E-02    0.162E+00
RMM: 118    -0.231530716781E+04   -0.39497E-01   -0.97731E-03  4361   0.324E-02    0.168E+00
RMM: 119    -0.231535832468E+04   -0.51157E-01   -0.34534E-02  4827   0.553E-02    0.210E+00
RMM: 120    -0.231536485997E+04   -0.65353E-02   -0.66438E-03  4947   0.331E-02    0.210E+00
RMM: 121    -0.231537170918E+04   -0.68492E-02   -0.31696E-03  4889   0.193E-02    0.219E+00
RMM: 122    -0.231539474405E+04   -0.23035E-01   -0.99623E-03  4835   0.307E-02    0.256E+00
RMM: 123    -0.231540336342E+04   -0.86194E-02   -0.29123E-03  4129   0.184E-02    0.268E+00
RMM: 124    -0.231539360704E+04    0.97564E-02   -0.22098E-03  3368   0.130E-02    0.247E+00
RMM: 125    -0.231538009076E+04    0.13516E-01   -0.43242E-03  3873   0.181E-02    0.223E+00
RMM: 126    -0.231540400146E+04   -0.23911E-01   -0.10272E-02  5050   0.323E-02    0.257E+00
RMM: 127    -0.231540444312E+04   -0.44166E-03   -0.42721E-04  3220   0.123E-02    0.252E+00
RMM: 128    -0.231539322141E+04    0.11222E-01   -0.17038E-03  3343   0.113E-02    0.239E+00
RMM: 129    -0.231534641210E+04    0.46809E-01   -0.30202E-02  4717   0.465E-02    0.178E+00
RMM: 130    -0.231528878678E+04    0.57625E-01   -0.42114E-02  4891   0.632E-02    0.129E+00
RMM: 131    -0.231505298327E+04    0.23580E+00   -0.22048E-01  4732   0.146E-01    0.121E+00
RMM: 132    -0.231498004255E+04    0.72941E-01   -0.33123E-02  4613   0.639E-02    0.147E+00
RMM: 133    -0.231500312464E+04   -0.23082E-01   -0.21864E-03  3865   0.167E-02    0.142E+00
RMM: 134    -0.231498341429E+04    0.19710E-01   -0.23439E-03  4597   0.171E-02    0.155E+00
RMM: 135    -0.231492756570E+04    0.55849E-01   -0.88397E-03  4451   0.299E-02    0.172E+00
RMM: 136    -0.231522039228E+04   -0.29283E+00   -0.25243E-01  4892   0.137E-01    0.955E-01
RMM: 137    -0.231529990981E+04   -0.79518E-01   -0.71871E-02  4937   0.896E-02    0.108E+00
RMM: 138    -0.231542856084E+04   -0.12865E+00   -0.21556E-01  5231   0.134E-01    0.242E+00
RMM: 139    -0.231545198821E+04   -0.23427E-01   -0.47365E-02  5140   0.787E-02    0.238E+00
RMM: 140    -0.231542947781E+04    0.22510E-01   -0.80756E-03  4403   0.238E-02    0.226E+00
RMM: 141    -0.231545394650E+04   -0.24469E-01   -0.11438E-02  5154   0.303E-02    0.235E+00
RMM: 142    -0.231544137446E+04    0.12572E-01   -0.23368E-03  4425   0.174E-02    0.232E+00
RMM: 143    -0.231540612844E+04    0.35246E-01   -0.18491E-02  4844   0.411E-02    0.212E+00
RMM: 144    -0.231534075812E+04    0.65370E-01   -0.52710E-02  4952   0.684E-02    0.146E+00
RMM: 145    -0.231529817307E+04    0.42585E-01   -0.21663E-02  4783   0.486E-02    0.112E+00
RMM: 146    -0.231537506894E+04   -0.76896E-01   -0.53491E-02  4946   0.725E-02    0.190E+00
RMM: 147    -0.231535495291E+04    0.20116E-01   -0.23633E-03  4050   0.239E-02    0.163E+00
RMM: 148    -0.231535437904E+04    0.57387E-03   -0.10695E-04  2973   0.642E-03    0.167E+00
RMM: 149    -0.231536744954E+04   -0.13070E-01   -0.11473E-03  3406   0.996E-03    0.179E+00
RMM: 150    -0.231532794206E+04    0.39507E-01   -0.17381E-02  4809   0.402E-02    0.141E+00
RMM: 151    -0.231534487354E+04   -0.16931E-01   -0.85176E-03  4947   0.411E-02    0.163E+00
RMM: 152    -0.231528637862E+04    0.58495E-01   -0.33427E-02  5008   0.588E-02    0.124E+00
RMM: 153    -0.231525565953E+04    0.30719E-01   -0.12052E-02  4912   0.410E-02    0.122E+00
RMM: 154    -0.231523165648E+04    0.24003E-01   -0.65958E-03  4840   0.278E-02    0.120E+00
RMM: 155    -0.231521571822E+04    0.15938E-01   -0.25578E-03  4284   0.189E-02    0.121E+00
RMM: 156    -0.231524566597E+04   -0.29948E-01   -0.23037E-03  4081   0.174E-02    0.125E+00
RMM: 157    -0.231527437110E+04   -0.28705E-01   -0.52424E-03  4233   0.227E-02    0.137E+00
RMM: 158    -0.231523321856E+04    0.41153E-01   -0.14965E-02  4884   0.388E-02    0.130E+00
RMM: 159    -0.231524697309E+04   -0.13755E-01   -0.71663E-04  3476   0.140E-02    0.134E+00
RMM: 160    -0.231524375746E+04    0.32156E-02   -0.35906E-04  3466   0.781E-03    0.136E+00
RMM: 161    -0.231525795709E+04   -0.14200E-01   -0.64217E-04  3722   0.113E-02    0.141E+00
RMM: 162    -0.231526018000E+04   -0.22229E-02   -0.24127E-04  3531   0.796E-03    0.143E+00
RMM: 163    -0.231526417075E+04   -0.39908E-02   -0.14482E-04  2971   0.555E-03    0.142E+00
RMM: 164    -0.231525184892E+04    0.12322E-01   -0.98596E-04  3506   0.104E-02    0.143E+00
RMM: 165    -0.231527736531E+04   -0.25516E-01   -0.45377E-03  4233   0.214E-02    0.146E+00
RMM: 166    -0.231526258451E+04    0.14781E-01   -0.19173E-03  3832   0.137E-02    0.142E+00
RMM: 167    -0.231526758177E+04   -0.49973E-02   -0.38342E-04  3361   0.782E-03    0.139E+00
RMM: 168    -0.231526944352E+04   -0.18618E-02   -0.49969E-05  2799   0.409E-03    0.140E+00
RMM: 169    -0.231526943467E+04    0.88472E-05   -0.57416E-06  2272   0.156E-03
   1 F= -.23365412E+04 E0= -.23365356E+04  d E =-.233654E+04  mag=     2.4173
       N       E                     dE             d eps       ncg     rms          rms(c)
DAV:   1    -0.231507492961E+04    0.19451E+00   -0.13035E+01  4560   0.306E+00    0.173E+00
RMM:   2    -0.231557200170E+04   -0.49707E+00   -0.40731E+00  6617   0.949E-01    0.289E+00
RMM:   3    -0.231552405510E+04    0.47947E-01   -0.47526E-01  6451   0.378E-01    0.140E+00
RMM:   4    -0.231551732320E+04    0.67319E-02   -0.56607E-02  5255   0.945E-02    0.130E+00
RMM:   5    -0.231552545821E+04   -0.81350E-02   -0.78902E-03  4933   0.427E-02    0.152E+00
RMM:   6    -0.231551563363E+04    0.98246E-02   -0.11677E-02  4641   0.395E-02    0.117E+00
RMM:   7    -0.231550986485E+04    0.57688E-02   -0.47538E-02  5432   0.842E-02    0.161E+00
RMM:   8    -0.231546019440E+04    0.49670E-01   -0.48460E-02  5383   0.808E-02    0.157E+00
RMM:   9    -0.231544625264E+04    0.13942E-01   -0.60451E-03  4813   0.337E-02    0.167E+00
RMM:  10    -0.231555332214E+04   -0.10707E+00   -0.22675E-01  4834   0.140E-01    0.167E+00
RMM:  11    -0.231556703899E+04   -0.13717E-01   -0.94315E-02  5000   0.127E-01    0.193E+00
RMM:  12    -0.231556930006E+04   -0.22611E-02   -0.49735E-02  5480   0.866E-02    0.195E+00
RMM:  13    -0.231556912544E+04    0.17463E-03   -0.32015E-03  5428   0.246E-02    0.190E+00
RMM:  14    -0.231556932213E+04   -0.19669E-03   -0.30459E-04  3609   0.766E-03    0.193E+00
RMM:  15    -0.231556951820E+04   -0.19607E-03   -0.44276E-05  2963   0.464E-03    0.194E+00
RMM:  16    -0.231557398334E+04   -0.44651E-02   -0.12189E-03  4243   0.151E-02    0.200E+00
RMM:  17    -0.231557798803E+04   -0.40047E-02   -0.11955E-01  4918   0.141E-01    0.161E+00
RMM:  18    -0.231559030478E+04   -0.12317E-01   -0.85946E-03  4725   0.614E-02    0.164E+00
RMM:  19    -0.231558912016E+04    0.11846E-02   -0.15454E-02  5253   0.534E-02    0.135E+00
RMM:  20    -0.231559959018E+04   -0.10470E-01   -0.55817E-03  4753   0.421E-02    0.120E+00
RMM:  21    -0.231560492368E+04   -0.53335E-02   -0.37212E-03  5037   0.328E-02    0.107E+00
RMM:  22    -0.231560763212E+04   -0.27084E-02   -0.21251E-03  5014   0.241E-02    0.932E-01
RMM:  23    -0.231561174299E+04   -0.41109E-02   -0.45992E-03  5129   0.318E-02    0.698E-01
RMM:  24    -0.231561409367E+04   -0.23507E-02   -0.22565E-03  4814   0.258E-02    0.562E-01
RMM:  25    -0.231561278292E+04    0.13108E-02   -0.36651E-04  3818   0.101E-02    0.632E-01
RMM:  26    -0.231561855296E+04   -0.57700E-02   -0.11699E-02  5202   0.458E-02    0.217E-01
RMM:  27    -0.231561922889E+04   -0.67594E-03   -0.89007E-04  4096   0.204E-02    0.225E-01
RMM:  28    -0.231562079737E+04   -0.15685E-02   -0.25250E-03  4830   0.202E-02    0.138E-01
RMM:  29    -0.231562123912E+04   -0.44175E-03   -0.46860E-04  3759   0.120E-02    0.192E-01
RMM:  30    -0.231562059231E+04    0.64681E-03   -0.51859E-04  3525   0.970E-03    0.175E-01
RMM:  31    -0.231562063142E+04   -0.39110E-04   -0.62534E-05  2913   0.483E-03    0.195E-01
RMM:  32    -0.231562125214E+04   -0.62073E-03   -0.51121E-04  3555   0.925E-03    0.174E-01
RMM:  33    -0.231562130592E+04   -0.53779E-04   -0.78175E-04  4389   0.128E-02    0.774E-02
RMM:  34    -0.231562157074E+04   -0.26482E-03   -0.20216E-04  3154   0.814E-03    0.104E-01
RMM:  35    -0.231562158942E+04   -0.18683E-04   -0.88361E-05  2966   0.517E-03    0.105E-01
RMM:  36    -0.231562166961E+04   -0.80191E-04   -0.20169E-04  3158   0.657E-03    0.756E-02
RMM:  37    -0.231562172539E+04   -0.55784E-04   -0.12458E-04  2959   0.563E-03    0.885E-02
RMM:  38    -0.231562171123E+04    0.14165E-04   -0.12206E-04  3093   0.591E-03    0.429E-02
RMM:  39    -0.231562171909E+04   -0.78618E-05   -0.55427E-05  2917   0.503E-03
   2 F= -.23368982E+04 E0= -.23368979E+04  d E =-.356932E+00  mag=    -0.0125
       N       E                     dE             d eps       ncg     rms          rms(c)
DAV:   1    -0.231562185334E+04   -0.14211E-03   -0.16086E-03  4878   0.337E-02    0.295E-02
RMM:   2    -0.231562190657E+04   -0.53234E-04   -0.43273E-04  4630   0.104E-02    0.305E-02
RMM:   3    -0.231562191036E+04   -0.37951E-05   -0.58896E-05  2898   0.534E-03
   3 F= -.23368984E+04 E0= -.23368981E+04  d E =-.357141E+00  mag=    -0.0089
       N       E                     dE             d eps       ncg     rms          rms(c)
DAV:   1    -0.231550751164E+04    0.11439E+00   -0.84193E+00  4544   0.246E+00    0.101E+00
RMM:   2    -0.231570350277E+04   -0.19599E+00   -0.19100E+00  6523   0.658E-01    0.139E+00
RMM:   3    -0.231570620723E+04   -0.27045E-02   -0.19907E-01  6351   0.248E-01    0.982E-01
RMM:   4    -0.231569499397E+04    0.11213E-01   -0.17726E-02  6165   0.596E-02    0.351E-01
RMM:   5    -0.231569775091E+04   -0.27569E-02   -0.59070E-03  5966   0.377E-02    0.645E-01
RMM:   6    -0.231569328486E+04    0.44660E-02   -0.45390E-03  5884   0.349E-02    0.197E-01
RMM:   7    -0.231569293146E+04    0.35340E-03   -0.11558E-03  5096   0.210E-02    0.127E-01
RMM:   8    -0.231569270320E+04    0.22826E-03   -0.26414E-04  4163   0.916E-03    0.433E-02
RMM:   9    -0.231569266109E+04    0.42115E-04   -0.10225E-04  3124   0.655E-03    0.163E-02
RMM:  10    -0.231569265882E+04    0.22696E-05   -0.25738E-05  2984   0.494E-03
   4 F= -.23369675E+04 E0= -.23369673E+04  d E =-.691085E-01  mag=    -0.0018
       N       E                     dE             d eps       ncg     rms          rms(c)
DAV:   1    -0.231568790897E+04    0.47521E-02   -0.31013E-01  4800   0.475E-01    0.205E-01
RMM:   2    -0.231569558556E+04   -0.76766E-02   -0.70550E-02  6530   0.127E-01    0.329E-01
RMM:   3    -0.231569499498E+04    0.59058E-03   -0.75259E-03  5938   0.473E-02    0.159E-01
RMM:   4    -0.231569471961E+04    0.27537E-03   -0.74917E-04  3664   0.117E-02    0.772E-02
RMM:   5    -0.231569471564E+04    0.39679E-05   -0.18014E-04  3053   0.822E-03    0.869E-02
RMM:   6    -0.231569472394E+04   -0.82991E-05   -0.19531E-04  3763   0.821E-03    0.956E-02
RMM:   7    -0.231569461489E+04    0.10905E-03   -0.96758E-05  3006   0.724E-03    0.196E-02
RMM:   8    -0.231569461131E+04    0.35859E-05   -0.20008E-05  2923   0.438E-03
   5 F= -.23369694E+04 E0= -.23369691E+04  d E =-.709764E-01  mag=    -0.0005
       N       E                     dE             d eps       ncg     rms          rms(c)
DAV:   1    -0.231567691904E+04    0.17696E-01   -0.20942E+00  4528   0.143E+00    0.572E-01
RMM:   2    -0.231572136972E+04   -0.44451E-01   -0.42018E-01  6423   0.369E-01    0.786E-01
RMM:   3    -0.231572008784E+04    0.12819E-02   -0.47523E-02  6215   0.144E-01    0.530E-01
RMM:   4    -0.231571703957E+04    0.30483E-02   -0.56076E-03  5848   0.390E-02    0.258E-01
RMM:   5    -0.231571670972E+04    0.32985E-03   -0.18302E-03  5549   0.237E-02    0.241E-01
RMM:   6    -0.231571622410E+04    0.48562E-03   -0.12562E-03  5506   0.195E-02    0.164E-01
RMM:   7    -0.231571587396E+04    0.35014E-03   -0.67176E-04  4915   0.160E-02    0.564E-02
RMM:   8    -0.231571582241E+04    0.51549E-04   -0.90319E-05  3581   0.628E-03    0.257E-02
RMM:   9    -0.231571581022E+04    0.12188E-04   -0.33707E-05  2936   0.594E-03    0.124E-02
RMM:  10    -0.231571580827E+04    0.19446E-05   -0.18711E-05  2943   0.409E-03
   6 F= -.23369888E+04 E0= -.23369886E+04  d E =-.194864E-01  mag=     0.0001
       N       E                     dE             d eps       ncg     rms          rms(c)
DAV:   1    -0.231571408219E+04    0.17280E-02   -0.17588E-01  4768   0.415E-01    0.165E-01
RMM:   2    -0.231571781847E+04   -0.37363E-02   -0.35403E-02  6467   0.107E-01    0.228E-01
RMM:   3    -0.231571773486E+04    0.83611E-04   -0.40424E-03  5210   0.409E-02    0.157E-01
RMM:   4    -0.231571747840E+04    0.25646E-03   -0.47882E-04  3931   0.119E-02    0.777E-02
RMM:   5    -0.231571744050E+04    0.37899E-04   -0.15349E-04  3083   0.816E-03    0.684E-02
RMM:   6    -0.231571740566E+04    0.34838E-04   -0.12125E-04  3718   0.762E-03    0.487E-02
RMM:   7    -0.231571737434E+04    0.31318E-04   -0.65445E-05  2919   0.662E-03    0.167E-02
RMM:   8    -0.231571737142E+04    0.29277E-05   -0.12914E-05  2905   0.395E-03
   7 F= -.23369899E+04 E0= -.23369897E+04  d E =-.205762E-01  mag=     0.0002
       N       E                     dE             d eps       ncg     rms          rms(c)
DAV:   1    -0.231567192956E+04    0.45445E-01   -0.25589E+00  4496   0.136E+00    0.582E-01
RMM:   2    -0.231573857250E+04   -0.66643E-01   -0.65962E-01  6615   0.386E-01    0.801E-01
RMM:   3    -0.231574093355E+04   -0.23611E-02   -0.80389E-02  6356   0.158E-01    0.608E-01
RMM:   4    -0.231573681866E+04    0.41149E-02   -0.74770E-03  5829   0.373E-02    0.216E-01
RMM:   5    -0.231573696714E+04   -0.14848E-03   -0.17885E-03  5294   0.189E-02    0.246E-01
RMM:   6    -0.231573622340E+04    0.74374E-03   -0.12079E-03  5517   0.164E-02    0.104E-01
RMM:   7    -0.231573627233E+04   -0.48932E-04   -0.66109E-04  4735   0.134E-02    0.986E-02
RMM:   8    -0.231573614377E+04    0.12856E-03   -0.15906E-04  3002   0.740E-03    0.305E-02
RMM:   9    -0.231573614638E+04   -0.26044E-05   -0.45144E-05  2961   0.512E-03
   8 F= -.23370078E+04 E0= -.23370077E+04  d E =-.178990E-01  mag=     0.0004
       N       E                     dE             d eps       ncg     rms          rms(c)
DAV:   1    -0.231569160848E+04    0.44535E-01   -0.20169E+00  4492   0.121E+00    0.502E-01
RMM:   2    -0.231574454448E+04   -0.52936E-01   -0.52568E-01  6624   0.343E-01    0.722E-01
RMM:   3    -0.231574593555E+04   -0.13911E-02   -0.61736E-02  6298   0.137E-01    0.525E-01
RMM:   4    -0.231574278582E+04    0.31497E-02   -0.57510E-03  5727   0.327E-02    0.174E-01
RMM:   5    -0.231574284100E+04   -0.55176E-04   -0.12377E-03  5001   0.161E-02    0.189E-01
RMM:   6    -0.231574244255E+04    0.39845E-03   -0.84313E-04  5387   0.140E-02    0.917E-02
RMM:   7    -0.231574250716E+04   -0.64609E-04   -0.51684E-04  4473   0.121E-02    0.836E-02
RMM:   8    -0.231574243826E+04    0.68894E-04   -0.13345E-04  2997   0.695E-03    0.298E-02
RMM:   9    -0.231574247015E+04   -0.31892E-04   -0.77779E-05  2954   0.564E-03    0.217E-02
RMM:  10    -0.231574251005E+04   -0.39892E-04   -0.93437E-05  2958   0.562E-03    0.129E-02
RMM:  11    -0.231574254385E+04   -0.33803E-04   -0.75918E-05  2934   0.544E-03    0.926E-03
RMM:  12    -0.231574256672E+04   -0.22874E-04   -0.49742E-05  2922   0.447E-03    0.657E-03
RMM:  13    -0.231574257874E+04   -0.12017E-04   -0.19976E-05  2832   0.337E-03    0.663E-03
RMM:  14    -0.231574258245E+04   -0.37059E-05   -0.51244E-06  2591   0.205E-03
   9 F= -.23370135E+04 E0= -.23370134E+04  d E =-.235820E-01  mag=     0.0003
       N       E                     dE             d eps       ncg     rms          rms(c)
DAV:   1    -0.231568754388E+04    0.55035E-01   -0.30622E+00  4488   0.154E+00    0.583E-01
RMM:   2    -0.231575315025E+04   -0.65606E-01   -0.70664E-01  6589   0.417E-01    0.511E-01
RMM:   3    -0.231576288905E+04   -0.97388E-02   -0.85799E-02  6367   0.168E-01    0.742E-01
RMM:   4    -0.231575693608E+04    0.59530E-02   -0.79924E-03  6135   0.419E-02    0.224E-01
RMM:   5    -0.231575695556E+04   -0.19486E-04   -0.18812E-03  5299   0.204E-02    0.225E-01
RMM:   6    -0.231575624448E+04    0.71108E-03   -0.97744E-04  5512   0.162E-02    0.839E-02
RMM:   7    -0.231575625164E+04   -0.71593E-05   -0.48270E-04  4684   0.131E-02    0.786E-02
RMM:   8    -0.231575615942E+04    0.92223E-04   -0.10296E-04  2973   0.670E-03    0.220E-02
RMM:   9    -0.231575615503E+04    0.43886E-05   -0.22942E-05  2944   0.447E-03
  10 F= -.23370253E+04 E0= -.23370253E+04  d E =-.117889E-01  mag=     0.0001
       N       E                     dE             d eps       ncg     rms          rms(c)
DAV:   1    -0.231575506305E+04    0.10964E-02   -0.71139E-02  4704   0.235E-01    0.880E-02
RMM:   2    -0.231575657918E+04   -0.15161E-02   -0.16436E-02  6507   0.639E-02    0.713E-02
RMM:   3    -0.231575681614E+04   -0.23696E-03   -0.19370E-03  3576   0.256E-02    0.113E-01
RMM:   4    -0.231575667970E+04    0.13644E-03   -0.18734E-04  2963   0.806E-03    0.340E-02
RMM:   5    -0.231575668047E+04   -0.77285E-06   -0.45817E-05  2912   0.411E-03
  11 F= -.23370255E+04 E0= -.23370255E+04  d E =-.120254E-01  mag=     0.0001
       N       E                     dE             d eps       ncg     rms          rms(c)
DAV:   1    -0.231574481288E+04    0.11867E-01   -0.92565E-01  4528   0.899E-01    0.313E-01
RMM:   2    -0.231576028186E+04   -0.15469E-01   -0.16797E-01  6558   0.229E-01    0.275E-01
RMM:   3    -0.231576304488E+04   -0.27630E-02   -0.20716E-02  6151   0.881E-02    0.458E-01
RMM:   4    -0.231576084109E+04    0.22038E-02   -0.18305E-03  5076   0.229E-02    0.994E-02
RMM:   5    -0.231576092126E+04   -0.80167E-04   -0.64991E-04  4921   0.129E-02    0.145E-01
RMM:   6    -0.231576064166E+04    0.27960E-03   -0.39888E-04  4856   0.116E-02    0.358E-02
RMM:   7    -0.231576062163E+04    0.20031E-04   -0.70221E-05  3050   0.671E-03    0.166E-02
RMM:   8    -0.231576061954E+04    0.20871E-05   -0.18657E-05  2897   0.459E-03
  12 F= -.23370312E+04 E0= -.23370312E+04  d E =-.566350E-02  mag=     0.0000
       N       E                     dE             d eps       ncg     rms          rms(c)
DAV:   1    -0.231575952641E+04    0.10952E-02   -0.57255E-02  4624   0.224E-01    0.782E-02
RMM:   2    -0.231576048005E+04   -0.95363E-03   -0.10440E-02  6544   0.574E-02    0.648E-02
RMM:   3    -0.231576066073E+04   -0.18068E-03   -0.12686E-03  3454   0.216E-02    0.116E-01
RMM:   4    -0.231576051906E+04    0.14167E-03   -0.11537E-04  2942   0.731E-03    0.238E-02
RMM:   5    -0.231576052281E+04   -0.37513E-05   -0.44704E-05  2920   0.397E-03
  13 F= -.23370314E+04 E0= -.23370314E+04  d E =-.587125E-02  mag=     0.0000
       N       E                     dE             d eps       ncg     rms          rms(c)
DAV:   1    -0.231575393460E+04    0.65845E-02   -0.63619E-01  4512   0.714E-01    0.265E-01
RMM:   2    -0.231576610303E+04   -0.12168E-01   -0.11934E-01  6582   0.188E-01    0.348E-01
RMM:   3    -0.231576568294E+04    0.42008E-03   -0.13721E-02  6282   0.695E-02    0.198E-01
RMM:   4    -0.231576520857E+04    0.47437E-03   -0.13046E-03  4920   0.174E-02    0.119E-01
RMM:   5    -0.231576513304E+04    0.75531E-04   -0.32140E-04  3367   0.991E-03    0.106E-01
RMM:   6    -0.231576514661E+04   -0.13574E-04   -0.31849E-04  4164   0.990E-03    0.115E-01
RMM:   7    -0.231576497278E+04    0.17383E-03   -0.21918E-04  3638   0.920E-03    0.164E-02
RMM:   8    -0.231576496536E+04    0.74285E-05   -0.28477E-05  2945   0.497E-03
  14 F= -.23370345E+04 E0= -.23370345E+04  d E =-.309977E-02  mag=     0.0000
       N       E                     dE             d eps       ncg     rms          rms(c)
DAV:   1    -0.231576501624E+04   -0.43453E-04   -0.11126E-02  4912   0.946E-02    0.368E-02
RMM:   2    -0.231576524223E+04   -0.22599E-03   -0.21747E-03  6161   0.262E-02    0.515E-02
RMM:   3    -0.231576522613E+04    0.16100E-04   -0.24818E-04  2912   0.974E-03    0.270E-02
RMM:   4    -0.231576521793E+04    0.81985E-05   -0.26396E-05  2938   0.372E-03
  15 F= -.23370345E+04 E0= -.23370345E+04  d E =-.312753E-02  mag=     0.0000
       N       E                     dE             d eps       ncg     rms          rms(c)
DAV:   1    -0.231575966190E+04    0.55642E-02   -0.44460E-01  4512   0.631E-01    0.217E-01
RMM:   2    -0.231576891688E+04   -0.92550E-02   -0.79168E-02  6612   0.162E-01    0.433E-01
RMM:   3    -0.231576743982E+04    0.14771E-02   -0.84637E-03  5658   0.558E-02    0.175E-01
RMM:   4    -0.231576711689E+04    0.32293E-03   -0.10041E-03  4194   0.145E-02    0.880E-02
RMM:   5    -0.231576703738E+04    0.79504E-04   -0.20905E-04  3060   0.848E-03    0.646E-02
RMM:   6    -0.231576701842E+04    0.18960E-04   -0.18557E-04  4178   0.893E-03    0.586E-02
RMM:   7    -0.231576697830E+04    0.40128E-04   -0.67385E-05  2996   0.669E-03    0.210E-02
RMM:   8    -0.231576697257E+04    0.57228E-05   -0.12054E-05  2906   0.345E-03
  16 F= -.23370369E+04 E0= -.23370369E+04  d E =-.237599E-02  mag=     0.0000
       N       E                     dE             d eps       ncg     rms          rms(c)
DAV:   1    -0.231576562482E+04    0.13535E-02   -0.88521E-02  4560   0.282E-01    0.966E-02
RMM:   2    -0.231576742120E+04   -0.17964E-02   -0.15869E-02  6572   0.728E-02    0.180E-01
RMM:   3    -0.231576719662E+04    0.22458E-03   -0.16724E-03  3936   0.242E-02    0.834E-02
RMM:   4    -0.231576712444E+04    0.72177E-04   -0.19735E-04  2988   0.753E-03    0.392E-02
RMM:   5    -0.231576710791E+04    0.16528E-04   -0.42130E-05  2862   0.444E-03    0.275E-02
RMM:   6    -0.231576710169E+04    0.62234E-05   -0.35141E-05  2952   0.433E-03
  17 F= -.23370372E+04 E0= -.23370372E+04  d E =-.263253E-02  mag=     0.0000
       N       E                     dE             d eps       ncg     rms          rms(c)
DAV:   1    -0.231576402468E+04    0.30832E-02   -0.47852E-01  4496   0.699E-01    0.233E-01
RMM:   2    -0.231577355742E+04   -0.95327E-02   -0.71687E-02  6452   0.162E-01    0.539E-01
RMM:   3    -0.231577051942E+04    0.30380E-02   -0.67043E-03  5794   0.556E-02    0.146E-01
RMM:   4    -0.231577030354E+04    0.21588E-03   -0.92453E-04  4771   0.152E-02    0.103E-01
RMM:   5    -0.231577020107E+04    0.10247E-03   -0.23467E-04  3335   0.928E-03    0.679E-02
RMM:   6    -0.231577019531E+04    0.57633E-05   -0.20083E-04  4328   0.925E-03    0.684E-02
RMM:   7    -0.231577012533E+04    0.69977E-04   -0.89791E-05  3010   0.758E-03    0.131E-02
RMM:   8    -0.231577012152E+04    0.38109E-05   -0.14754E-05  2914   0.410E-03
  18 F= -.23370395E+04 E0= -.23370395E+04  d E =-.231113E-02  mag=     0.0000
       N       E                     dE             d eps       ncg     rms          rms(c)
DAV:   1    -0.231576804678E+04    0.20786E-02   -0.22268E-01  4512   0.477E-01    0.162E-01
RMM:   2    -0.231577264596E+04   -0.45992E-02   -0.33716E-02  6403   0.111E-01    0.385E-01
RMM:   3    -0.231577106610E+04    0.15799E-02   -0.31717E-03  5157   0.371E-02    0.971E-02
RMM:   4    -0.231577097549E+04    0.90615E-04   -0.43854E-04  3489   0.107E-02    0.758E-02
RMM:   5    -0.231577091764E+04    0.57847E-04   -0.11516E-04  2974   0.740E-03    0.446E-02
RMM:   6    -0.231577091456E+04    0.30772E-05   -0.98945E-05  3580   0.689E-03
  19 F= -.23370398E+04 E0= -.23370398E+04  d E =-.261839E-02  mag=     0.0000
       N       E                     dE             d eps       ncg     rms          rms(c)
DAV:   1    -0.231577042250E+04    0.49514E-03   -0.17979E-01  4592   0.426E-01    0.125E-01
RMM:   2    -0.231577300232E+04   -0.25798E-02   -0.23046E-02  6537   0.942E-02    0.213E-01
RMM:   3    -0.231577267262E+04    0.32970E-03   -0.23234E-03  4882   0.321E-02    0.101E-01
RMM:   4    -0.231577258050E+04    0.92113E-04   -0.25418E-04  3188   0.922E-03    0.681E-02
RMM:   5    -0.231577253658E+04    0.43920E-04   -0.70746E-05  2932   0.608E-03    0.364E-02
RMM:   6    -0.231577251928E+04    0.17310E-04   -0.69423E-05  3396   0.595E-03    0.139E-02
RMM:   7    -0.231577251931E+04   -0.39945E-07   -0.15216E-05  2850   0.473E-03
  20 F= -.23370412E+04 E0= -.23370412E+04  d E =-.138797E-02  mag=     0.0000
       N       E                     dE             d eps       ncg     rms          rms(c)
DAV:   1    -0.231576432793E+04    0.81913E-02   -0.85258E-01  4492   0.927E-01    0.276E-01
RMM:   2    -0.231577747902E+04   -0.13151E-01   -0.11123E-01  6561   0.205E-01    0.532E-01
RMM:   3    -0.231577490343E+04    0.25756E-02   -0.10949E-02  6172   0.700E-02    0.197E-01
RMM:   4    -0.231577456053E+04    0.34290E-03   -0.12932E-03  5166   0.184E-02    0.150E-01
RMM:   5    -0.231577433909E+04    0.22145E-03   -0.31028E-04  3415   0.103E-02    0.756E-02
RMM:   6    -0.231577424421E+04    0.94878E-04   -0.31938E-04  4576   0.115E-02    0.193E-02
RMM:   7    -0.231577423957E+04    0.46356E-05   -0.26288E-05  2952   0.795E-03
  21 F= -.23370424E+04 E0= -.23370424E+04  d E =-.264133E-02  mag=     0.0000
       N       E                     dE             d eps       ncg     rms          rms(c)
DAV:   1    -0.231577395978E+04    0.28442E-03   -0.69446E-02  4656   0.270E-01    0.892E-02
RMM:   2    -0.231577500865E+04   -0.10489E-02   -0.10588E-02  6423   0.633E-02    0.998E-02
RMM:   3    -0.231577508356E+04   -0.74908E-04   -0.13649E-03  3951   0.248E-02    0.110E-01
RMM:   4    -0.231577497558E+04    0.10797E-03   -0.15063E-04  2966   0.786E-03    0.424E-02
RMM:   5    -0.231577495267E+04    0.22918E-04   -0.46948E-05  2912   0.506E-03    0.295E-02
RMM:   6    -0.231577494953E+04    0.31412E-05   -0.41688E-05  2952   0.537E-03
  22 F= -.23370436E+04 E0= -.23370436E+04  d E =-.114520E-02  mag=     0.0000
       N       E                     dE             d eps       ncg     rms          rms(c)
DAV:   1    -0.231577335246E+04    0.16002E-02   -0.10865E-01  4528   0.338E-01    0.112E-01
RMM:   2    -0.231577503105E+04   -0.16786E-02   -0.16710E-02  6396   0.793E-02    0.136E-01
RMM:   3    -0.231577512819E+04   -0.97141E-04   -0.21467E-03  4605   0.295E-02    0.140E-01
RMM:   4    -0.231577494330E+04    0.18489E-03   -0.22694E-04  2998   0.901E-03    0.475E-02
RMM:   5    -0.231577491741E+04    0.25892E-04   -0.70608E-05  2924   0.626E-03    0.380E-02
RMM:   6    -0.231577490251E+04    0.14904E-04   -0.69428E-05  3318   0.684E-03    0.248E-02
RMM:   7    -0.231577489570E+04    0.68096E-05   -0.17412E-05  2892   0.508E-03
  23 F= -.23370440E+04 E0= -.23370440E+04  d E =-.157190E-02  mag=     0.0000
       N       E                     dE             d eps       ncg     rms          rms(c)
DAV:   1    -0.231577393692E+04    0.96559E-03   -0.11513E-01  4528   0.353E-01    0.114E-01
RMM:   2    -0.231577581096E+04   -0.18740E-02   -0.19178E-02  6508   0.802E-02    0.119E-01
RMM:   3    -0.231577593544E+04   -0.12448E-03   -0.24551E-03  4602   0.321E-02    0.121E-01
RMM:   4    -0.231577580307E+04    0.13237E-03   -0.24728E-04  2998   0.907E-03    0.567E-02
RMM:   5    -0.231577577399E+04    0.29089E-04   -0.64032E-05  2934   0.572E-03    0.462E-02
RMM:   6    -0.231577576699E+04    0.69937E-05   -0.51230E-05  2926   0.515E-03
  24 F= -.23370449E+04 E0= -.23370449E+04  d E =-.920727E-03  mag=     0.0000
       N       E                     dE             d eps       ncg     rms          rms(c)
DAV:   1    -0.231577466946E+04    0.11045E-02   -0.76633E-02  4528   0.288E-01    0.943E-02
RMM:   2    -0.231577592023E+04   -0.12508E-02   -0.12858E-02  6499   0.660E-02    0.982E-02
RMM:   3    -0.231577601722E+04   -0.96984E-04   -0.16325E-03  3992   0.248E-02    0.105E-01
RMM:   4    -0.231577592043E+04    0.96790E-04   -0.16125E-04  2952   0.778E-03    0.497E-02
RMM:   5    -0.231577589665E+04    0.23779E-04   -0.45789E-05  2888   0.464E-03    0.364E-02
RMM:   6    -0.231577589035E+04    0.63032E-05   -0.41027E-05  2909   0.472E-03
  25 F= -.23370451E+04 E0= -.23370451E+04  d E =-.108635E-02  mag=     0.0000
       N       E                     dE             d eps       ncg     rms          rms(c)
DAV:   1    -0.231577483803E+04    0.10586E-02   -0.13583E-01  4512   0.394E-01    0.122E-01
RMM:   2    -0.231577761944E+04   -0.27814E-02   -0.23732E-02  6592   0.929E-02    0.238E-01
RMM:   3    -0.231577717460E+04    0.44484E-03   -0.23376E-03  4773   0.321E-02    0.907E-02
RMM:   4    -0.231577708019E+04    0.94416E-04   -0.25760E-04  3060   0.912E-03    0.543E-02
RMM:   5    -0.231577706057E+04    0.19620E-04   -0.65483E-05  2918   0.625E-03    0.419E-02
RMM:   6    -0.231577704622E+04    0.14344E-04   -0.73192E-05  3370   0.641E-03    0.303E-02
RMM:   7    -0.231577703396E+04    0.12259E-04   -0.25178E-05  2888   0.533E-03    0.952E-03
RMM:   8    -0.231577703260E+04    0.13656E-05   -0.38715E-06  2802   0.223E-03
  26 F= -.23370459E+04 E0= -.23370459E+04  d E =-.837995E-03  mag=     0.0000
       N       E                     dE             d eps       ncg     rms          rms(c)
DAV:   1    -0.231577649689E+04    0.53707E-03   -0.54668E-02  4592   0.250E-01    0.780E-02
RMM:   2    -0.231577763461E+04   -0.11377E-02   -0.95490E-03  6544   0.584E-02    0.155E-01
RMM:   3    -0.231577743798E+04    0.19663E-03   -0.97053E-04  3522   0.206E-02    0.565E-02
RMM:   4    -0.231577740233E+04    0.35658E-04   -0.11036E-04  2966   0.669E-03    0.358E-02
RMM:   5    -0.231577739240E+04    0.99262E-05   -0.27070E-05  2878   0.401E-03
  27 F= -.23370461E+04 E0= -.23370461E+04  d E =-.100351E-02  mag=     0.0000
       N       E                     dE             d eps       ncg     rms          rms(c)
DAV:   1    -0.231577507837E+04    0.23240E-02   -0.18076E-01  4512   0.448E-01    0.148E-01
RMM:   2    -0.231577958571E+04   -0.45073E-02   -0.34113E-02  6628   0.109E-01    0.351E-01
RMM:   3    -0.231577836439E+04    0.12213E-02   -0.35775E-03  5108   0.375E-02    0.851E-02
RMM:   4    -0.231577828363E+04    0.80755E-04   -0.40225E-04  3294   0.995E-03    0.693E-02
RMM:   5    -0.231577824241E+04    0.41227E-04   -0.81663E-05  2934   0.663E-03    0.456E-02
RMM:   6    -0.231577821010E+04    0.32308E-04   -0.10876E-04  4058   0.739E-03    0.160E-02
RMM:   7    -0.231577820917E+04    0.92811E-06   -0.17170E-05  2906   0.565E-03
  28 F= -.23370469E+04 E0= -.23370469E+04  d E =-.786783E-03  mag=     0.0000
       N       E                     dE             d eps       ncg     rms          rms(c)
DAV:   1    -0.231577668748E+04    0.15226E-02   -0.92046E-02  4528   0.319E-01    0.112E-01
RMM:   2    -0.231577924879E+04   -0.25613E-02   -0.17864E-02  6578   0.779E-02    0.291E-01
RMM:   3    -0.231577834701E+04    0.90178E-03   -0.17863E-03  4454   0.276E-02    0.587E-02
RMM:   4    -0.231577831328E+04    0.33728E-04   -0.22311E-04  3032   0.781E-03    0.540E-02
RMM:   5    -0.231577828439E+04    0.28889E-04   -0.44097E-05  2901   0.523E-03    0.297E-02
RMM:   6    -0.231577827523E+04    0.91612E-05   -0.52926E-05  3128   0.519E-03
  29 F= -.23370469E+04 E0= -.23370469E+04  d E =-.806386E-03  mag=    -0.0000
       N       E                     dE             d eps       ncg     rms          rms(c)
DAV:   1    -0.231577800792E+04    0.27647E-03   -0.17092E-02  4688   0.138E-01    0.491E-02
RMM:   2    -0.231577853661E+04   -0.52869E-03   -0.33178E-03  6528   0.357E-02    0.142E-01
RMM:   3    -0.231577831176E+04    0.22485E-03   -0.35943E-04  3012   0.123E-02    0.226E-02
RMM:   4    -0.231577830617E+04    0.55857E-05   -0.46982E-05  2950   0.443E-03
  30 F= -.23370469E+04 E0= -.23370469E+04  d E =-.859562E-03  mag=    -0.0000
       N       E                     dE             d eps       ncg     rms          rms(c)
DAV:   1    -0.231577587118E+04    0.24406E-02   -0.18951E-01  4512   0.461E-01    0.151E-01
RMM:   2    -0.231577979334E+04   -0.39222E-02   -0.33080E-02  6525   0.109E-01    0.288E-01
RMM:   3    -0.231577913046E+04    0.66288E-03   -0.35576E-03  5320   0.399E-02    0.107E-01
RMM:   4    -0.231577900407E+04    0.12639E-03   -0.36908E-04  3472   0.107E-02    0.731E-02
RMM:   5    -0.231577895481E+04    0.49258E-04   -0.81447E-05  2940   0.695E-03    0.409E-02
RMM:   6    -0.231577893443E+04    0.20381E-04   -0.10015E-04  3900   0.711E-03    0.275E-02
RMM:   7    -0.231577892473E+04    0.96977E-05   -0.27891E-05  2892   0.590E-03
  31 F= -.23370475E+04 E0= -.23370475E+04  d E =-.506075E-03  mag=    -0.0000
       N       E                     dE             d eps       ncg     rms          rms(c)
DAV:   1    -0.231577890998E+04    0.24449E-04   -0.11543E-03  5280   0.366E-02    0.145E-02
RMM:   2    -0.231577894129E+04   -0.31311E-04   -0.22426E-04  4138   0.940E-03    0.325E-02
RMM:   3    -0.231577893082E+04    0.10472E-04   -0.28037E-05  2730   0.502E-03    0.955E-03
RMM:   4    -0.231577893004E+04    0.78430E-06   -0.33683E-06  2514   0.157E-03
  32 F= -.23370475E+04 E0= -.23370475E+04  d E =-.502557E-03  mag=    -0.0000
       N       E                     dE             d eps       ncg     rms          rms(c)
DAV:   1    -0.231577762717E+04    0.13036E-02   -0.12709E-01  4512   0.377E-01    0.107E-01
RMM:   2    -0.231577931734E+04   -0.16902E-02   -0.18614E-02  6466   0.823E-02    0.526E-02
RMM:   3    -0.231577945093E+04   -0.13359E-03   -0.20442E-03  4249   0.315E-02    0.401E-02
RMM:   4    -0.231577945793E+04   -0.70033E-05   -0.19070E-04  3008   0.794E-03    0.402E-02
RMM:   5    -0.231577943590E+04    0.22034E-04   -0.55938E-05  2942   0.599E-03    0.217E-02
RMM:   6    -0.231577943686E+04   -0.95727E-06   -0.24015E-05  2902   0.501E-03
  33 F= -.23370479E+04 E0= -.23370479E+04  d E =-.443512E-03  mag=    -0.0000
       N       E                     dE             d eps       ncg     rms          rms(c)
DAV:   1    -0.231577913952E+04    0.29638E-03   -0.23450E-02  4560   0.163E-01    0.480E-02
RMM:   2    -0.231577947269E+04   -0.33317E-03   -0.35280E-03  6376   0.356E-02    0.448E-02
RMM:   3    -0.231577953032E+04   -0.57632E-04   -0.46760E-04  3032   0.141E-02    0.699E-02
RMM:   4    -0.231577948287E+04    0.47454E-04   -0.42082E-05  2908   0.491E-03    0.178E-02
RMM:   5    -0.231577948167E+04    0.12018E-05   -0.12437E-05  2842   0.235E-03
  34 F= -.23370479E+04 E0= -.23370479E+04  d E =-.458378E-03  mag=    -0.0000
       N       E                     dE             d eps       ncg     rms          rms(c)
DAV:   1    -0.231577852593E+04    0.95693E-03   -0.10920E-01  4496   0.346E-01    0.967E-02
RMM:   2    -0.231577988680E+04   -0.13609E-02   -0.14772E-02  6460   0.734E-02    0.588E-02
RMM:   3    -0.231578011197E+04   -0.22517E-03   -0.16337E-03  4171   0.275E-02    0.121E-01
RMM:   4    -0.231577996520E+04    0.14677E-03   -0.15227E-04  2950   0.794E-03    0.295E-02
RMM:   5    -0.231577998192E+04   -0.16725E-04   -0.61866E-05  2980   0.507E-03    0.519E-02
RMM:   6    -0.231577994818E+04    0.33739E-04   -0.41503E-05  2914   0.533E-03    0.821E-03
RMM:   7    -0.231577994757E+04    0.61502E-06   -0.91521E-06  2896   0.333E-03
  35 F= -.23370483E+04 E0= -.23370483E+04  d E =-.362120E-03  mag=    -0.0000
       N       E                     dE             d eps       ncg     rms          rms(c)
DAV:   1    -0.231577961567E+04    0.33252E-03   -0.31853E-02  4528   0.187E-01    0.531E-02
RMM:   2    -0.231578002103E+04   -0.40537E-03   -0.43956E-03  6456   0.408E-02    0.335E-02
RMM:   3    -0.231578007440E+04   -0.53371E-04   -0.46297E-04  3116   0.149E-02    0.563E-02
RMM:   4    -0.231578004094E+04    0.33462E-04   -0.47060E-05  2918   0.538E-03    0.179E-02
RMM:   5    -0.231578004482E+04   -0.38823E-05   -0.16451E-05  2907   0.261E-03
  36 F= -.23370483E+04 E0= -.23370483E+04  d E =-.402949E-03  mag=    -0.0000
       N       E                     dE             d eps       ncg     rms          rms(c)
DAV:   1    -0.231577904755E+04    0.99339E-03   -0.12045E-01  4496   0.364E-01    0.104E-01
RMM:   2    -0.231578068348E+04   -0.16359E-02   -0.15891E-02  6414   0.788E-02    0.137E-01
RMM:   3    -0.231578071061E+04   -0.27127E-04   -0.15041E-03  4185   0.276E-02    0.110E-01
RMM:   4    -0.231578056090E+04    0.14971E-03   -0.15865E-04  3032   0.873E-03    0.347E-02
RMM:   5    -0.231578056373E+04   -0.28326E-05   -0.73423E-05  3008   0.651E-03
  37 F= -.23370487E+04 E0= -.23370487E+04  d E =-.430002E-03  mag=    -0.0000
       N       E                     dE             d eps       ncg     rms          rms(c)
DAV:   1    -0.231578033428E+04    0.22662E-03   -0.20290E-02  4624   0.150E-01    0.452E-02
RMM:   2    -0.231578061854E+04   -0.28426E-03   -0.27837E-03  6428   0.348E-02    0.564E-02
RMM:   3    -0.231578062294E+04   -0.44040E-05   -0.26324E-04  2988   0.116E-02    0.474E-02
RMM:   4    -0.231578059932E+04    0.23626E-04   -0.31892E-05  2904   0.483E-03    0.213E-02
RMM:   5    -0.231578059661E+04    0.27031E-05   -0.12119E-05  2864   0.257E-03
  38 F= -.23370487E+04 E0= -.23370487E+04  d E =-.422106E-03  mag=    -0.0000
       N       E                     dE             d eps       ncg     rms          rms(c)
DAV:   1    -0.231577954301E+04    0.10563E-02   -0.10547E-01  4496   0.337E-01    0.108E-01
RMM:   2    -0.231578181144E+04   -0.22684E-02   -0.16912E-02  6501   0.783E-02    0.257E-01
RMM:   3    -0.231578113481E+04    0.67663E-03   -0.15764E-03  4145   0.264E-02    0.636E-02
RMM:   4    -0.231578108491E+04    0.49905E-04   -0.18924E-04  3000   0.763E-03    0.407E-02
RMM:   5    -0.231578107810E+04    0.68063E-05   -0.41289E-05  2894   0.490E-03
  39 F= -.23370491E+04 E0= -.23370491E+04  d E =-.364589E-03  mag=    -0.0000
       N       E                     dE             d eps       ncg     rms          rms(c)
DAV:   1    -0.231578022376E+04    0.86115E-03   -0.67085E-02  4496   0.269E-01    0.849E-02
RMM:   2    -0.231578155695E+04   -0.13332E-02   -0.10715E-02  6554   0.626E-02    0.180E-01
RMM:   3    -0.231578125154E+04    0.30540E-03   -0.10014E-03  3628   0.212E-02    0.598E-02
RMM:   4    -0.231578121510E+04    0.36446E-04   -0.12744E-04  2976   0.698E-03    0.355E-02
RMM:   5    -0.231578120347E+04    0.11625E-04   -0.32117E-05  2890   0.414E-03    0.241E-02
RMM:   6    -0.231578120412E+04   -0.64673E-06   -0.31906E-05  2964   0.424E-03
  40 F= -.23370491E+04 E0= -.23370491E+04  d E =-.392284E-03  mag=    -0.0000
       N       E                     dE             d eps       ncg     rms          rms(c)
DAV:   1    -0.231577954845E+04    0.16550E-02   -0.13782E-01  4492   0.387E-01    0.122E-01
RMM:   2    -0.231578234805E+04   -0.27996E-02   -0.22587E-02  6553   0.911E-02    0.260E-01
RMM:   3    -0.231578172803E+04    0.62001E-03   -0.21991E-03  4647   0.305E-02    0.820E-02
RMM:   4    -0.231578165443E+04    0.73608E-04   -0.24448E-04  3020   0.851E-03    0.467E-02
RMM:   5    -0.231578164323E+04    0.11191E-04   -0.51620E-05  2910   0.559E-03    0.405E-02
RMM:   6    -0.231578162306E+04    0.20174E-04   -0.51168E-05  3118   0.582E-03    0.190E-02
RMM:   7    -0.231578161944E+04    0.36225E-05   -0.16215E-05  2880   0.477E-03
  41 F= -.23370494E+04 E0= -.23370494E+04  d E =-.306954E-03  mag=    -0.0000
       N       E                     dE             d eps       ncg     rms          rms(c)
DAV:   1    -0.231578151311E+04    0.10995E-03   -0.88568E-03  4704   0.983E-02    0.332E-02
RMM:   2    -0.231578171616E+04   -0.20305E-03   -0.15048E-03  6188   0.239E-02    0.780E-02
RMM:   3    -0.231578165394E+04    0.62213E-04   -0.14728E-04  2910   0.879E-03    0.200E-02
RMM:   4    -0.231578164967E+04    0.42778E-05   -0.17972E-05  2938   0.305E-03
  42 F= -.23370494E+04 E0= -.23370494E+04  d E =-.309674E-03  mag=    -0.0000
       N       E                     dE             d eps       ncg     rms          rms(c)
DAV:   1    -0.231578103718E+04    0.61677E-03   -0.68377E-02  4496   0.273E-01    0.868E-02
RMM:   2    -0.231578197220E+04   -0.93503E-03   -0.98396E-03  6508   0.629E-02    0.748E-02
RMM:   3    -0.231578212270E+04   -0.15050E-03   -0.10179E-03  3816   0.223E-02    0.111E-01
RMM:   4    -0.231578197835E+04    0.14436E-03   -0.11849E-04  2962   0.783E-03    0.291E-02
RMM:   5    -0.231578197430E+04    0.40431E-05   -0.45043E-05  2946   0.521E-03
  43 F= -.23370497E+04 E0= -.23370497E+04  d E =-.244590E-03  mag=    -0.0000
       N       E                     dE             d eps       ncg     rms          rms(c)
DAV:   1    -0.231578193788E+04    0.40464E-04   -0.28381E-03  5168   0.566E-02    0.210E-02
RMM:   2    -0.231578198228E+04   -0.44395E-04   -0.44228E-04  5375   0.142E-02    0.218E-02
RMM:   3    -0.231578198146E+04    0.81552E-06   -0.50411E-05  2890   0.601E-03
  44 F= -.23370497E+04 E0= -.23370497E+04  d E =-.234490E-03  mag=    -0.0000
       N       E                     dE             d eps       ncg     rms          rms(c)
DAV:   1    -0.231578160045E+04    0.38183E-03   -0.49328E-02  4496   0.223E-01    0.678E-02
RMM:   2    -0.231578223241E+04   -0.63196E-03   -0.68976E-03  6489   0.502E-02    0.476E-02
RMM:   3    -0.231578232968E+04   -0.97269E-04   -0.77845E-04  3319   0.181E-02    0.855E-02
RMM:   4    -0.231578225909E+04    0.70592E-04   -0.83877E-05  2926   0.625E-03    0.253E-02
RMM:   5    -0.231578225683E+04    0.22586E-05   -0.28369E-05  2918   0.348E-03
  45 F= -.23370498E+04 E0= -.23370498E+04  d E =-.156423E-03  mag=    -0.0000
       N       E                     dE             d eps       ncg     rms          rms(c)
DAV:   1    -0.231578224510E+04    0.13994E-04   -0.19302E-03  5008   0.448E-02    0.183E-02
RMM:   2    -0.231578228499E+04   -0.39893E-04   -0.29773E-04  4218   0.108E-02    0.337E-02
RMM:   3    -0.231578227124E+04    0.13751E-04   -0.36365E-05  2878   0.553E-03    0.101E-02
RMM:   4    -0.231578227014E+04    0.10956E-05   -0.44263E-06  2747   0.192E-03
  46 F= -.23370498E+04 E0= -.23370498E+04  d E =-.144626E-03  mag=    -0.0000
       N       E                     dE             d eps       ncg     rms          rms(c)
DAV:   1    -0.231578190596E+04    0.36527E-03   -0.47233E-02  4496   0.228E-01    0.700E-02
RMM:   2    -0.231578244245E+04   -0.53648E-03   -0.59856E-03  6295   0.487E-02    0.338E-02
RMM:   3    -0.231578250012E+04   -0.57678E-04   -0.64041E-04  3350   0.187E-02    0.597E-02
RMM:   4    -0.231578247214E+04    0.27984E-04   -0.62134E-05  2940   0.526E-03    0.211E-02
RMM:   5    -0.231578246660E+04    0.55357E-05   -0.22638E-05  2938   0.372E-03
  47 F= -.23370499E+04 E0= -.23370499E+04  d E =-.104282E-03  mag=    -0.0000
       N       E                     dE             d eps       ncg     rms          rms(c)
DAV:   1    -0.231578246166E+04    0.10475E-04   -0.16541E-04  5344   0.145E-02    0.144E-02
RMM:   2    -0.231578248555E+04   -0.23881E-04   -0.50128E-05  2858   0.460E-03    0.417E-02
RMM:   3    -0.231578246143E+04    0.24112E-04   -0.16654E-05  2513   0.363E-03    0.523E-03
RMM:   4    -0.231578246083E+04    0.60136E-06   -0.22723E-06  1796   0.105E-03
  48 F= -.23370499E+04 E0= -.23370499E+04  d E =-.103226E-03  mag=    -0.0000
       N       E                     dE             d eps       ncg     rms          rms(c)
DAV:   1    -0.231578214248E+04    0.31895E-03   -0.34229E-02  4512   0.198E-01    0.605E-02
RMM:   2    -0.231578269339E+04   -0.55091E-03   -0.50240E-03  6370   0.450E-02    0.946E-02
RMM:   3    -0.231578265156E+04    0.41830E-04   -0.49635E-04  3176   0.162E-02    0.529E-02
RMM:   4    -0.231578261297E+04    0.38597E-04   -0.49395E-05  2932   0.561E-03    0.185E-02
RMM:   5    -0.231578261335E+04   -0.38090E-06   -0.22169E-05  2907   0.394E-03
  49 F= -.23370500E+04 E0= -.23370500E+04  d E =-.837854E-04  mag=    -0.0000
       N       E                     dE             d eps       ncg     rms          rms(c)
DAV:   1    -0.231578260882E+04    0.41438E-05   -0.15896E-04  5360   0.150E-02    0.918E-03
RMM:   2    -0.231578261857E+04   -0.97499E-05   -0.37423E-05  2794   0.411E-03
  50 F= -.23370500E+04 E0= -.23370500E+04  d E =-.840651E-04  mag=    -0.0000
       N       E                     dE             d eps       ncg     rms          rms(c)
DAV:   1    -0.231578229911E+04    0.30972E-03   -0.32185E-02  4496   0.189E-01    0.623E-02
RMM:   2    -0.231578306343E+04   -0.76432E-03   -0.56008E-03  6456   0.456E-02    0.152E-01
RMM:   3    -0.231578282592E+04    0.23751E-03   -0.52034E-04  3198   0.160E-02    0.343E-02
RMM:   4    -0.231578281074E+04    0.15178E-04   -0.65430E-05  2966   0.533E-03    0.239E-02
RMM:   5    -0.231578280773E+04    0.30102E-05   -0.14433E-05  2884   0.299E-03
  51 F= -.23370501E+04 E0= -.23370501E+04  d E =-.807707E-04  mag=     0.0000
       N       E                     dE             d eps       ncg     rms          rms(c)
DAV:   1    -0.231578276892E+04    0.41821E-04   -0.42859E-03  4656   0.693E-02    0.228E-02
RMM:   2    -0.231578285249E+04   -0.83565E-04   -0.73728E-04  5596   0.170E-02    0.388E-02
RMM:   3    -0.231578284236E+04    0.10126E-04   -0.78882E-05  2894   0.680E-03    0.191E-02
RMM:   4    -0.231578283923E+04    0.31338E-05   -0.10396E-05  2904   0.246E-03
  52 F= -.23370501E+04 E0= -.23370501E+04  d E =-.715309E-04  mag=     0.0000
       N       E                     dE             d eps       ncg     rms          rms(c)
DAV:   1    -0.231578260155E+04    0.24081E-03   -0.23522E-02  4496   0.164E-01    0.513E-02
RMM:   2    -0.231578310196E+04   -0.50042E-03   -0.37978E-03  6429   0.380E-02    0.119E-01
RMM:   3    -0.231578296279E+04    0.13918E-03   -0.34287E-04  2983   0.129E-02    0.297E-02
RMM:   4    -0.231578294876E+04    0.14026E-04   -0.39516E-05  2972   0.442E-03    0.155E-02
RMM:   5    -0.231578295018E+04   -0.14140E-05   -0.15237E-05  2896   0.327E-03
  53 F= -.23370501E+04 E0= -.23370501E+04  d E =-.749242E-04  mag=     0.0000
       N       E                     dE             d eps       ncg     rms          rms(c)
DAV:   1    -0.231578288554E+04    0.63222E-04   -0.50150E-03  4656   0.759E-02    0.240E-02
RMM:   2    -0.231578297882E+04   -0.93284E-04   -0.80688E-04  5804   0.187E-02    0.418E-02
RMM:   3    -0.231578296653E+04    0.12299E-04   -0.84407E-05  2896   0.707E-03    0.187E-02
RMM:   4    -0.231578296241E+04    0.41156E-05   -0.88682E-06  2904   0.261E-03
  54 F= -.23370501E+04 E0= -.23370501E+04  d E =-.703964E-04  mag=     0.0000
       N       E                     dE             d eps       ncg     rms          rms(c)
DAV:   1    -0.231578278538E+04    0.18114E-03   -0.17308E-02  4496   0.143E-01    0.454E-02
RMM:   2    -0.231578304827E+04   -0.26289E-03   -0.23197E-03  6353   0.320E-02    0.705E-02
RMM:   3    -0.231578301973E+04    0.28544E-04   -0.21955E-04  2992   0.115E-02    0.382E-02
RMM:   4    -0.231578300121E+04    0.18515E-04   -0.26206E-05  2928   0.424E-03    0.191E-02
RMM:   5    -0.231578300006E+04    0.11548E-05   -0.95375E-06  2839   0.256E-03
  55 F= -.23370502E+04 E0= -.23370502E+04  d E =-.645561E-04  mag=     0.0000
       N       E                     dE             d eps       ncg     rms          rms(c)
DAV:   1    -0.231578296683E+04    0.34385E-04   -0.14512E-03  4992   0.418E-02    0.138E-02
RMM:   2    -0.231578298642E+04   -0.19590E-04   -0.20152E-04  4052   0.993E-03    0.131E-02
RMM:   3    -0.231578298776E+04   -0.13431E-05   -0.25823E-05  2832   0.547E-03
  56 F= -.23370502E+04 E0= -.23370502E+04  d E =-.602475E-04  mag=     0.0000
       N       E                     dE             d eps       ncg     rms          rms(c)
DAV:   1    -0.231578284008E+04    0.14633E-03   -0.14031E-02  4496   0.127E-01    0.379E-02
RMM:   2    -0.231578303194E+04   -0.19185E-03   -0.19650E-03  6377   0.293E-02    0.352E-02
RMM:   3    -0.231578304928E+04   -0.17349E-04   -0.19697E-04  2920   0.106E-02    0.380E-02
RMM:   4    -0.231578303186E+04    0.17421E-04   -0.23293E-05  2906   0.405E-03    0.193E-02
RMM:   5    -0.231578303012E+04    0.17412E-05   -0.70699E-06  2817   0.212E-03
  57 F= -.23370503E+04 E0= -.23370503E+04  d E =-.486053E-04  mag=     0.0000
       N       E                     dE             d eps       ncg     rms          rms(c)
DAV:   1    -0.231578300854E+04    0.23324E-04   -0.12326E-03  4800   0.379E-02    0.130E-02
RMM:   2    -0.231578302755E+04   -0.19015E-04   -0.17706E-04  3840   0.898E-03    0.169E-02
RMM:   3    -0.231578302592E+04    0.16387E-05   -0.22907E-05  2814   0.508E-03
  58 F= -.23370503E+04 E0= -.23370503E+04  d E =-.462529E-04  mag=     0.0000
       N       E                     dE             d eps       ncg     rms          rms(c)
DAV:   1    -0.231578297663E+04    0.50927E-04   -0.13282E-02  4496   0.124E-01    0.388E-02
RMM:   2    -0.231578315994E+04   -0.18331E-03   -0.17150E-03  6263   0.279E-02    0.521E-02
RMM:   3    -0.231578315339E+04    0.65505E-05   -0.16915E-04  2926   0.104E-02    0.362E-02
RMM:   4    -0.231578313915E+04    0.14231E-04   -0.23927E-05  2912   0.384E-03    0.198E-02
RMM:   5    -0.231578313546E+04    0.36907E-05   -0.77245E-06  2830   0.227E-03
  59 F= -.23370503E+04 E0= -.23370503E+04  d E =-.541931E-04  mag=     0.0000
       N       E                     dE             d eps       ncg     rms          rms(c)
DAV:   1    -0.231578313375E+04    0.54043E-05   -0.19510E-03  4720   0.479E-02    0.194E-02
RMM:   2    -0.231578317755E+04   -0.43803E-04   -0.27108E-04  4410   0.111E-02    0.399E-02
RMM:   3    -0.231578315683E+04    0.20721E-04   -0.36534E-05  2898   0.561E-03    0.102E-02
RMM:   4    -0.231578315663E+04    0.20731E-06   -0.60702E-06  2794   0.202E-03
  60 F= -.23370503E+04 E0= -.23370503E+04  d E =-.536088E-04  mag=     0.0000
       N       E                     dE             d eps       ncg     rms          rms(c)
DAV:   1    -0.231578316970E+04   -0.12867E-04   -0.10393E-02  4496   0.111E-01    0.344E-02
RMM:   2    -0.231578331694E+04   -0.14724E-03   -0.12242E-03  6173   0.237E-02    0.596E-02
RMM:   3    -0.231578329064E+04    0.26296E-04   -0.12228E-04  2912   0.891E-03    0.267E-02
RMM:   4    -0.231578328055E+04    0.10090E-04   -0.13057E-05  2925   0.316E-03    0.104E-02
RMM:   5    -0.231578328126E+04   -0.70287E-06   -0.91480E-06  2872   0.261E-03
  61 F= -.23370504E+04 E0= -.23370504E+04  d E =-.482472E-04  mag=     0.0000
       N       E                     dE             d eps       ncg     rms          rms(c)
DAV:   1    -0.231578328888E+04   -0.83280E-05   -0.17872E-03  4704   0.464E-02    0.146E-02
RMM:   2    -0.231578331125E+04   -0.22364E-04   -0.21643E-04  4272   0.109E-02    0.173E-02
RMM:   3    -0.231578331218E+04   -0.93394E-06   -0.25880E-05  2868   0.569E-03
  62 F= -.23370504E+04 E0= -.23370504E+04  d E =-.466547E-04  mag=     0.0000
       N       E                     dE             d eps       ncg     rms          rms(c)
DAV:   1    -0.231578328226E+04    0.28983E-04   -0.97121E-03  4496   0.107E-01    0.327E-02
RMM:   2    -0.231578343728E+04   -0.15502E-03   -0.12809E-03  6157   0.245E-02    0.590E-02
RMM:   3    -0.231578340759E+04    0.29690E-04   -0.12069E-04  2912   0.871E-03    0.229E-02
RMM:   4    -0.231578340140E+04    0.61921E-05   -0.15105E-05  2938   0.316E-03
  63 F= -.23370504E+04 E0= -.23370504E+04  d E =-.301408E-04  mag=     0.0000
       N       E                     dE             d eps       ncg     rms          rms(c)
DAV:   1    -0.231578340654E+04    0.10493E-05   -0.74679E-04  4976   0.301E-02    0.137E-02
RMM:   2    -0.231578342614E+04   -0.19597E-04   -0.10053E-04  3266   0.694E-03    0.314E-02
RMM:   3    -0.231578341458E+04    0.11562E-04   -0.14914E-05  2624   0.430E-03    0.814E-03
RMM:   4    -0.231578341523E+04   -0.64971E-06   -0.34356E-06  2380   0.151E-03
  64 F= -.23370504E+04 E0= -.23370504E+04  d E =-.272509E-04  mag=    -0.0000
       N       E                     dE             d eps       ncg     rms          rms(c)
DAV:   1    -0.231578334554E+04    0.69039E-04   -0.84692E-03  4496   0.101E-01    0.322E-02
RMM:   2    -0.231578348134E+04   -0.13580E-03   -0.10587E-03  6166   0.224E-02    0.615E-02
RMM:   3    -0.231578344725E+04    0.34084E-04   -0.98368E-05  2908   0.840E-03    0.227E-02
RMM:   4    -0.231578343994E+04    0.73101E-05   -0.11873E-05  2904   0.299E-03
  65 F= -.23370504E+04 E0= -.23370504E+04  d E =-.321799E-04  mag=    -0.0000
       N       E                     dE             d eps       ncg     rms          rms(c)
DAV:   1    -0.231578343294E+04    0.14309E-04   -0.34681E-04  5200   0.209E-02    0.124E-02
RMM:   2    -0.231578344349E+04   -0.10541E-04   -0.59541E-05  2974   0.515E-03    0.229E-02
RMM:   3    -0.231578343541E+04    0.80725E-05   -0.11452E-05  2470   0.342E-03
  66 F= -.23370504E+04 E0= -.23370504E+04  d E =-.291747E-04  mag=    -0.0000
       N       E                     dE             d eps       ncg     rms          rms(c)
DAV:   1    -0.231578334822E+04    0.95262E-04   -0.64650E-03  4496   0.885E-02    0.266E-02
RMM:   2    -0.231578342365E+04   -0.75425E-04   -0.79825E-04  6120   0.195E-02    0.169E-02
RMM:   3    -0.231578343586E+04   -0.12211E-04   -0.78813E-05  2900   0.785E-03    0.289E-02
RMM:   4    -0.231578342572E+04    0.10135E-04   -0.98584E-06  2876   0.275E-03    0.104E-02
RMM:   5    -0.231578342443E+04    0.12923E-05   -0.35502E-06  2726   0.182E-03
  67 F= -.23370504E+04 E0= -.23370504E+04  d E =-.319662E-04  mag=    -0.0000
       N       E                     dE             d eps       ncg     rms          rms(c)
DAV:   1    -0.231578340552E+04    0.20199E-04   -0.47560E-04  4800   0.244E-02    0.102E-02
RMM:   2    -0.231578341840E+04   -0.12874E-04   -0.69996E-05  3134   0.614E-03    0.235E-02
RMM:   3    -0.231578341119E+04    0.72077E-05   -0.11090E-05  2499   0.407E-03
  68 F= -.23370504E+04 E0= -.23370504E+04  d E =-.304219E-04  mag=    -0.0000
       N       E                     dE             d eps       ncg     rms          rms(c)
DAV:   1    -0.231578333966E+04    0.78735E-04   -0.69122E-03  4496   0.914E-02    0.277E-02
RMM:   2    -0.231578341889E+04   -0.79227E-04   -0.79015E-04  6109   0.203E-02    0.269E-02
RMM:   3    -0.231578342646E+04   -0.75732E-05   -0.75196E-05  2916   0.784E-03
  69 F= -.23370505E+04 E0= -.23370505E+04  d E =-.307224E-04  mag=    -0.0000
       N       E                     dE             d eps       ncg     rms          rms(c)
DAV:   1    -0.231578341510E+04    0.37878E-05   -0.43286E-05  4208   0.818E-03    0.108E-02
RMM:   2    -0.231578342474E+04   -0.96397E-05   -0.16986E-05  2503   0.394E-03
  70 F= -.23370505E+04 E0= -.23370505E+04  d E =-.283360E-04  mag=    -0.0000
       N       E                     dE             d eps       ncg     rms          rms(c)
DAV:   1    -0.231578340006E+04    0.15039E-04   -0.72195E-03  4496   0.940E-02    0.282E-02
RMM:   2    -0.231578350133E+04   -0.10127E-03   -0.86746E-04  6053   0.215E-02    0.452E-02
RMM:   3    -0.231578348682E+04    0.14511E-04   -0.86001E-05  2898   0.786E-03    0.218E-02
RMM:   4    -0.231578348076E+04    0.60667E-05   -0.96594E-06  2900   0.284E-03
  71 F= -.23370505E+04 E0= -.23370505E+04  d E =-.399128E-05  mag=    -0.0000
       N       E                     dE             d eps       ncg     rms          rms(c)
DAV:   1    -0.231578347693E+04    0.98903E-05   -0.34620E-05  4960   0.712E-03    0.914E-03
RMM:   2    -0.231578348380E+04   -0.68673E-05   -0.13692E-05  2522   0.281E-03
  72 F= -.23370505E+04 E0= -.23370505E+04  d E =-.101212E-04  mag=    -0.0000
       N       E                     dE             d eps       ncg     rms          rms(c)
DAV:   1    -0.231578349729E+04   -0.20352E-04   -0.63035E-03  4496   0.869E-02    0.262E-02
RMM:   2    -0.231578358000E+04   -0.82715E-04   -0.70462E-04  5967   0.195E-02    0.420E-02
RMM:   3    -0.231578356669E+04    0.13312E-04   -0.63815E-05  2894   0.707E-03    0.213E-02
RMM:   4    -0.231578356268E+04    0.40052E-05   -0.96322E-06  2856   0.280E-03
  73 F= -.23370505E+04 E0= -.23370505E+04  d E =-.907908E-05  mag=     0.0000
       N       E                     dE             d eps       ncg     rms          rms(c)
DAV:   1    -0.231578356256E+04    0.41263E-05   -0.14431E-05  4048   0.514E-03    0.701E-03
RMM:   2    -0.231578356474E+04   -0.21796E-05   -0.56042E-06  2378   0.281E-03
  74 F= -.23370505E+04 E0= -.23370505E+04  d E =-.803763E-05  mag=     0.0000
       N       E                     dE             d eps       ncg     rms          rms(c)
DAV:   1    -0.231578356304E+04   -0.47882E-06   -0.44595E-03  4496   0.724E-02    0.222E-02
RMM:   2    -0.231578360178E+04   -0.38739E-04   -0.41063E-04  5612   0.152E-02    0.174E-02
RMM:   3    -0.231578360953E+04   -0.77462E-05   -0.43413E-05  2880   0.647E-03
  75 F= -.23370505E+04 E0= -.23370505E+04  d E =-.235921E-04  mag=     0.0000
       N       E                     dE             d eps       ncg     rms          rms(c)
DAV:   1    -0.231578360247E+04   -0.69111E-06   -0.13285E-04  5328   0.133E-02    0.101E-02
RMM:   2    -0.231578361136E+04   -0.88898E-05   -0.20971E-05  2648   0.332E-03
  76 F= -.23370505E+04 E0= -.23370505E+04  d E =-.218808E-04  mag=     0.0000
       N       E                     dE             d eps       ncg     rms          rms(c)
DAV:   1    -0.231578357210E+04    0.30369E-04   -0.41240E-03  4496   0.696E-02    0.208E-02
RMM:   2    -0.231578362164E+04   -0.49540E-04   -0.47963E-04  5638   0.160E-02    0.237E-02
RMM:   3    -0.231578362120E+04    0.44674E-06   -0.50520E-05  2880   0.642E-03
  77 F= -.23370505E+04 E0= -.23370505E+04  d E =-.340037E-05  mag=     0.0000
       N       E                     dE             d eps       ncg     rms          rms(c)
DAV:   1    -0.231578361775E+04    0.38962E-05   -0.35420E-05  4448   0.716E-03    0.109E-02
RMM:   2    -0.231578363281E+04   -0.15060E-04   -0.20799E-05  2532   0.385E-03    0.364E-02
RMM:   3    -0.231578361750E+04    0.15306E-04   -0.67685E-06  2248   0.210E-03    0.599E-03
RMM:   4    -0.231578361737E+04    0.13399E-06   -0.11585E-06  1734   0.113E-03
  78 F= -.23370505E+04 E0= -.23370505E+04  d E =0.978559E-06  mag=     0.0000
       N       E                     dE             d eps       ncg     rms          rms(c)
DAV:   1    -0.231578360730E+04    0.10195E-04   -0.36378E-03  4496   0.661E-02    0.207E-02
RMM:   2    -0.231578365933E+04   -0.52023E-04   -0.41820E-04  5796   0.146E-02    0.367E-02
RMM:   3    -0.231578364717E+04    0.12158E-04   -0.39470E-05  2832   0.559E-03    0.154E-02
RMM:   4    -0.231578364546E+04    0.17098E-05   -0.58757E-06  2580   0.206E-03
  79 F= -.23370505E+04 E0= -.23370505E+04  d E =-.180818E-04  mag=     0.0000
       N       E                     dE             d eps       ncg     rms          rms(c)
DAV:   1    -0.231578364358E+04    0.35874E-05   -0.35499E-05  4784   0.718E-03    0.507E-03
RMM:   2    -0.231578364438E+04   -0.80190E-06   -0.54823E-06  2392   0.217E-03
  80 F= -.23370505E+04 E0= -.23370505E+04  d E =-.159921E-04  mag=     0.0000
       N       E                     dE             d eps       ncg     rms          rms(c)
DAV:   1    -0.231578365274E+04   -0.91599E-05   -0.23614E-03  4480   0.544E-02    0.184E-02
RMM:   2    -0.231578368066E+04   -0.27920E-04   -0.20726E-04  4967   0.120E-02    0.312E-02
RMM:   3    -0.231578367234E+04    0.83273E-05   -0.22695E-05  2821   0.563E-03
  81 F= -.23370505E+04 E0= -.23370505E+04  d E =-.105451E-04  mag=     0.0000
       N       E                     dE             d eps       ncg     rms          rms(c)
DAV:   1    -0.231578366970E+04    0.10958E-04   -0.67179E-06  3760   0.394E-03    0.827E-03
RMM:   2    -0.231578367663E+04   -0.69218E-05   -0.10383E-05  2423   0.243E-03
  82 F= -.23370505E+04 E0= -.23370505E+04  d E =-.150347E-04  mag=     0.0000
       N       E                     dE             d eps       ncg     rms          rms(c)
DAV:   1    -0.231578369074E+04   -0.21034E-04   -0.20016E-03  4448   0.506E-02    0.159E-02
RMM:   2    -0.231578371429E+04   -0.23554E-04   -0.21420E-04  4710   0.117E-02    0.197E-02
RMM:   3    -0.231578371284E+04    0.14567E-05   -0.23563E-05  2603   0.552E-03
  83 F= -.23370505E+04 E0= -.23370505E+04  d E =0.100657E-06  mag=     0.0000
       N       E                     dE             d eps       ncg     rms          rms(c)
DAV:   1    -0.231578371557E+04   -0.12802E-05   -0.49505E-05  5064   0.828E-03    0.951E-03
RMM:   2    -0.231578372772E+04   -0.12152E-04   -0.17748E-05  2522   0.285E-03    0.322E-02
RMM:   3    -0.231578371533E+04    0.12392E-04   -0.57372E-06  2258   0.217E-03    0.548E-03
RMM:   4    -0.231578371495E+04    0.38286E-06   -0.63427E-07   928   0.725E-04
  84 F= -.23370505E+04 E0= -.23370505E+04  d E =0.348460E-05  mag=     0.0000
       N       E                     dE             d eps       ncg     rms          rms(c)
DAV:   1    -0.231578373079E+04   -0.15457E-04   -0.16415E-03  4448   0.452E-02    0.147E-02
RMM:   2    -0.231578375657E+04   -0.25783E-04   -0.19369E-04  4452   0.995E-03    0.279E-02
RMM:   3    -0.231578374883E+04    0.77400E-05   -0.18560E-05  2526   0.476E-03
  85 F= -.23370505E+04 E0= -.23370505E+04  d E =-.115276E-04  mag=     0.0000
       N       E                     dE             d eps       ncg     rms          rms(c)
DAV:   1    -0.231578375128E+04    0.52969E-05   -0.60951E-05  5152   0.886E-03    0.937E-03
RMM:   2    -0.231578376206E+04   -0.10782E-04   -0.19797E-05  2503   0.291E-03    0.293E-02
RMM:   3    -0.231578375111E+04    0.10950E-04   -0.65887E-06  2268   0.234E-03    0.488E-03
RMM:   4    -0.231578375087E+04    0.23642E-06   -0.87729E-07   923   0.746E-04
  86 F= -.23370505E+04 E0= -.23370505E+04  d E =-.938473E-05  mag=     0.0000
       N       E                     dE             d eps       ncg     rms          rms(c)
DAV:   1    -0.231578374057E+04    0.10533E-04   -0.16747E-03  4448   0.456E-02    0.145E-02
RMM:   2    -0.231578376175E+04   -0.21175E-04   -0.17612E-04  4290   0.991E-03    0.229E-02
RMM:   3    -0.231578375793E+04    0.38218E-05   -0.17537E-05  2559   0.501E-03
  87 F= -.23370505E+04 E0= -.23370505E+04  d E =-.445541E-05  mag=     0.0000
       N       E                     dE             d eps       ncg     rms          rms(c)
DAV:   1    -0.231578375651E+04    0.52372E-05   -0.32072E-05  4112   0.677E-03    0.678E-03
RMM:   2    -0.231578376218E+04   -0.56672E-05   -0.93013E-06  2374   0.256E-03
  88 F= -.23370506E+04 E0= -.23370506E+04  d E =-.902035E-05  mag=     0.0000
       N       E                     dE             d eps       ncg     rms          rms(c)
DAV:   1    -0.231578373735E+04    0.19162E-04   -0.17070E-03  4432   0.463E-02    0.138E-02
RMM:   2    -0.231578375994E+04   -0.22592E-04   -0.20467E-04  4529   0.108E-02    0.189E-02
RMM:   3    -0.231578375853E+04    0.14091E-05   -0.22721E-05  2559   0.535E-03
  89 F= -.23370506E+04 E0= -.23370506E+04  d E =-.295448E-05  mag=     0.0000
       N       E                     dE             d eps       ncg     rms          rms(c)
DAV:   1    -0.231578375717E+04    0.27684E-05   -0.53694E-06  3280   0.315E-03    0.783E-03
RMM:   2    -0.231578376525E+04   -0.80767E-05   -0.91505E-06  2318   0.208E-03
  90 F= -.23370506E+04 E0= -.23370506E+04  d E =-.973720E-05  mag=     0.0000
       N       E                     dE             d eps       ncg     rms          rms(c)
DAV:   1    -0.231578375940E+04   -0.22225E-05   -0.15560E-03  4432   0.439E-02    0.133E-02
RMM:   2    -0.231578378214E+04   -0.22742E-04   -0.20165E-04  4374   0.103E-02    0.207E-02
RMM:   3    -0.231578377984E+04    0.23000E-05   -0.22888E-05  2537   0.530E-03
  91 F= -.23370506E+04 E0= -.23370506E+04  d E =0.367191E-05  mag=     0.0000
       N       E                     dE             d eps       ncg     rms          rms(c)
DAV:   1    -0.231578377679E+04    0.53496E-05   -0.30539E-05  3856   0.645E-03    0.587E-03
RMM:   2    -0.231578378015E+04   -0.33640E-05   -0.76617E-06  2330   0.263E-03
  92 F= -.23370506E+04 E0= -.23370506E+04  d E =0.106188E-05  mag=     0.0000
       N       E                     dE             d eps       ncg     rms          rms(c)
DAV:   1    -0.231578378235E+04   -0.55626E-05   -0.14613E-03  4416   0.425E-02    0.125E-02
RMM:   2    -0.231578380226E+04   -0.19912E-04   -0.17592E-04  4206   0.100E-02    0.191E-02
RMM:   3    -0.231578380034E+04    0.19233E-05   -0.19800E-05  2462   0.526E-03
  93 F= -.23370506E+04 E0= -.23370506E+04  d E =-.264548E-05  mag=     0.0000
       N       E                     dE             d eps       ncg     rms          rms(c)
DAV:   1    -0.231578380043E+04    0.18343E-05   -0.13310E-05  3472   0.453E-03    0.617E-03
RMM:   2    -0.231578380423E+04   -0.38006E-05   -0.71491E-06  2350   0.282E-03
  94 F= -.23370506E+04 E0= -.23370506E+04  d E =-.500712E-05  mag=     0.0000
       N       E                     dE             d eps       ncg     rms          rms(c)
DAV:   1    -0.231578380796E+04   -0.75270E-05   -0.84601E-04  4400   0.322E-02    0.981E-03
RMM:   2    -0.231578381728E+04   -0.93199E-05   -0.96017E-05  3348   0.743E-03
  95 F= -.23370506E+04 E0= -.23370506E+04  d E =-.301783E-06  mag=     0.0000
       N       E                     dE             d eps       ncg     rms          rms(c)
DAV:   1    -0.231578381712E+04   -0.91627E-05   -0.15375E-05  2624   0.652E-03    0.962E-03
RMM:   2    -0.231578383196E+04   -0.14837E-04   -0.20114E-05  2447   0.361E-03    0.357E-02
RMM:   3    -0.231578381672E+04    0.15238E-04   -0.61788E-06  2046   0.238E-03    0.472E-03
RMM:   4    -0.231578381635E+04    0.36765E-06   -0.85295E-07  1702   0.972E-04
  96 F= -.23370506E+04 E0= -.23370506E+04  d E =-.394799E-06  mag=     0.0000
       N       E                     dE             d eps       ncg     rms          rms(c)
DAV:   1    -0.231578382198E+04   -0.52577E-05   -0.85329E-04  4384   0.321E-02    0.100E-02
RMM:   2    -0.231578382908E+04   -0.71009E-05   -0.76983E-05  3086   0.661E-03
  97 F= -.23370506E+04 E0= -.23370506E+04  d E =-.513522E-05  mag=     0.0000
       N       E                     dE             d eps       ncg     rms          rms(c)
DAV:   1    -0.231578382940E+04   -0.74238E-05   -0.13473E-05  3264   0.577E-03    0.895E-03
RMM:   2    -0.231578383999E+04   -0.10591E-04   -0.17814E-05  2389   0.342E-03    0.289E-02
RMM:   3    -0.231578382889E+04    0.11101E-04   -0.51250E-06  1977   0.217E-03    0.368E-03
RMM:   4    -0.231578382865E+04    0.24411E-06   -0.62953E-07  1699   0.924E-04
  98 F= -.23370506E+04 E0= -.23370506E+04  d E =-.527637E-05  mag=     0.0000
       N       E                     dE             d eps       ncg     rms          rms(c)
DAV:   1    -0.231578382560E+04    0.32940E-05   -0.56015E-04  4288   0.258E-02    0.755E-03
RMM:   2    -0.231578383041E+04   -0.48142E-05   -0.51907E-05  2578   0.531E-03
  99 F= -.23370506E+04 E0= -.23370506E+04  d E =-.321125E-05  mag=     0.0000
       N       E                     dE             d eps       ncg     rms          rms(c)
DAV:   1    -0.231578383084E+04   -0.52457E-05   -0.76786E-06  2512   0.435E-03    0.668E-03
RMM:   2    -0.231578383662E+04   -0.57741E-05   -0.91735E-06  2246   0.196E-03
 100 F= -.23370506E+04 E0= -.23370506E+04  d E =-.942372E-05  mag=     0.0000
       N       E                     dE             d eps       ncg     rms          rms(c)
DAV:   1    -0.231578383324E+04   -0.23936E-05   -0.18753E-04  4960   0.156E-02    0.634E-03
RMM:   2    -0.231578383802E+04   -0.47798E-05   -0.20918E-05  2438   0.360E-03
 101 F= -.23370506E+04 E0= -.23370506E+04  d E =-.145205E-07  mag=     0.0000
       N       E                     dE             d eps       ncg     rms          rms(c)
DAV:   1    -0.231578383474E+04   -0.15006E-05   -0.14582E-05  2448   0.511E-03    0.505E-03
RMM:   2    -0.231578383853E+04   -0.37937E-05   -0.59492E-06  2288   0.290E-03
 102 F= -.23370506E+04 E0= -.23370506E+04  d E =-.262638E-06  mag=     0.0000
       N       E                     dE             d eps       ncg     rms          rms(c)
DAV:   1    -0.231578383467E+04    0.63184E-07   -0.73225E-06  2336   0.337E-03    0.295E-03
RMM:   2    -0.231578383546E+04   -0.78607E-06   -0.17201E-06  1799   0.116E-03
 103 F= -.23370506E+04 E0= -.23370506E+04  d E =0.267295E-05  mag=     0.0000
       N       E                     dE             d eps       ncg     rms          rms(c)
DAV:   1    -0.231578383467E+04    0.12078E-08   -0.17712E-06  2272   0.174E-03    0.225E-03
RMM:   2    -0.231578383548E+04   -0.80794E-06   -0.60582E-07   838   0.701E-04
 104 F= -.23370506E+04 E0= -.23370506E+04  d E =0.271993E-05  mag=     0.0000
       N       E                     dE             d eps       ncg     rms          rms(c)
DAV:   1    -0.231578383765E+04   -0.29755E-05   -0.63505E-05  4144   0.886E-03    0.276E-03
RMM:   2    -0.231578383824E+04   -0.59529E-06   -0.60388E-06  2316   0.206E-03
 105 F= -.23370506E+04 E0= -.23370506E+04  d E =-.122449E-05  mag=     0.0000
       N       E                     dE             d eps       ncg     rms          rms(c)
DAV:   1    -0.231578383874E+04   -0.10972E-05   -0.71551E-06  2416   0.344E-03    0.195E-03
RMM:   2    -0.231578383902E+04   -0.27640E-06   -0.19425E-06  2188   0.220E-03
 106 F= -.23370506E+04 E0= -.23370506E+04  d E =-.147138E-05  mag=     0.0000
       N       E                     dE             d eps       ncg     rms          rms(c)
DAV:   1    -0.231578384187E+04   -0.31301E-05   -0.39062E-05  3888   0.713E-03    0.264E-03
RMM:   2    -0.231578384230E+04   -0.42535E-06   -0.43441E-06  2304   0.190E-03
 107 F= -.23370506E+04 E0= -.23370506E+04  d E =-.186369E-05  mag=     0.0000
