       N       E                     dE             d eps       ncg     rms          rms(c)
DAV:   1     0.124847470129E+05    0.12485E+05   -0.81808E+05  4400   0.143E+03
DAV:   2    -0.107821623562E+04   -0.13563E+05   -0.13016E+05  5352   0.329E+02
DAV:   3    -0.246567641639E+04   -0.13875E+04   -0.13762E+04  5272   0.109E+02
DAV:   4    -0.250368987597E+04   -0.38013E+02   -0.37837E+02  6288   0.251E+01
DAV:   5    -0.250445316843E+04   -0.76329E+00   -0.76226E+00  5504   0.292E+00    0.170E+02
RMM:   6    -0.146577125111E+04    0.10387E+04   -0.19187E+03  4337   0.387E+01    0.720E+01
RMM:   7    -0.163139656076E+04   -0.16563E+03   -0.25833E+02  4750   0.134E+01    0.468E+01
RMM:   8    -0.169265072266E+04   -0.61254E+02   -0.27841E+01  4745   0.687E+00    0.336E+01
RMM:   9    -0.185901189047E+04   -0.16636E+03   -0.78211E+01  4451   0.902E+00    0.202E+01
RMM:  10    -0.200540522881E+04   -0.14639E+03   -0.68114E+01  4426   0.732E+00    0.149E+01
RMM:  11    -0.216967062573E+04   -0.16427E+03   -0.13029E+02  4328   0.822E+00    0.101E+01
RMM:  12    -0.227402648543E+04   -0.10436E+03   -0.10537E+02  4355   0.707E+00    0.498E+00
RMM:  13    -0.229319944806E+04   -0.19173E+02   -0.24936E+01  4548   0.467E+00    0.331E+00
RMM:  14    -0.229714727369E+04   -0.39478E+01   -0.74649E+00  5090   0.167E+00    0.304E+00
RMM:  15    -0.229766811847E+04   -0.52084E+00   -0.72930E-01  5036   0.737E-01    0.226E+00
RMM:  16    -0.229915671185E+04   -0.14886E+01   -0.58027E-01  4337   0.570E-01    0.122E+00
RMM:  17    -0.229987169069E+04   -0.71498E+00   -0.19280E-01  4899   0.393E-01    0.105E+00
RMM:  18    -0.229992373460E+04   -0.52044E-01   -0.43500E-02  4721   0.198E-01    0.773E-01
RMM:  19    -0.230001310725E+04   -0.89373E-01   -0.44905E-02  4337   0.192E-01    0.365E-01
RMM:  20    -0.230004085643E+04   -0.27749E-01   -0.13749E-02  4350   0.118E-01    0.391E-01
RMM:  21    -0.230005157868E+04   -0.10722E-01   -0.99155E-03  4436   0.823E-02    0.147E-01
RMM:  22    -0.230005915479E+04   -0.75761E-02   -0.41844E-03  4341   0.753E-02    0.102E-01
RMM:  23    -0.230006797755E+04   -0.88228E-02   -0.26779E-03  4333   0.488E-02    0.680E-02
RMM:  24    -0.230007524307E+04   -0.72655E-02   -0.25397E-03  4409   0.482E-02    0.525E-02
RMM:  25    -0.230008118372E+04   -0.59406E-02   -0.22358E-03  4444   0.404E-02    0.326E-02
RMM:  26    -0.230008234563E+04   -0.11619E-02   -0.58662E-04  4425   0.264E-02    0.208E-02
RMM:  27    -0.230008313182E+04   -0.78619E-03   -0.35136E-04  3927   0.159E-02    0.147E-02
RMM:  28    -0.230008338027E+04   -0.24845E-03   -0.10878E-04  3588   0.127E-02    0.676E-03
RMM:  29    -0.230008347498E+04   -0.94711E-04   -0.49922E-05  3399   0.654E-03    0.514E-03
RMM:  30    -0.230008352107E+04   -0.46097E-04   -0.11225E-05  2834   0.469E-03    0.327E-03
RMM:  31    -0.230008356720E+04   -0.46130E-04   -0.14934E-05  2942   0.299E-03    0.189E-03
RMM:  32    -0.230008356985E+04   -0.26439E-05   -0.41723E-06  2439   0.282E-03
   1 F= -.23200085E+04 E0= -.23200085E+04  d E =-.232001E+04  mag=     3.0000
