       N       E                     dE             d eps       ncg     rms          rms(c)
DAV:   1     0.125299284287E+05    0.12530E+05   -0.82130E+05  4400   0.143E+03
DAV:   2    -0.108833578574E+04   -0.13618E+05   -0.13068E+05  5368   0.329E+02
DAV:   3    -0.248006985585E+04   -0.13917E+04   -0.13803E+04  5280   0.109E+02
DAV:   4    -0.251839384661E+04   -0.38324E+02   -0.38135E+02  6272   0.253E+01
DAV:   5    -0.251919370439E+04   -0.79986E+00   -0.79878E+00  5480   0.297E+00    0.171E+02
RMM:   6    -0.146928173626E+04    0.10499E+04   -0.19491E+03  4357   0.388E+01    0.723E+01
RMM:   7    -0.164189895199E+04   -0.17262E+03   -0.27331E+02  4917   0.138E+01    0.479E+01
RMM:   8    -0.170188375217E+04   -0.59985E+02   -0.35708E+01  4919   0.697E+00    0.352E+01
RMM:   9    -0.184570972062E+04   -0.14383E+03   -0.66683E+01  4515   0.827E+00    0.222E+01
RMM:  10    -0.200815289518E+04   -0.16244E+03   -0.75900E+01  4513   0.790E+00    0.155E+01
RMM:  11    -0.213951694588E+04   -0.13136E+03   -0.82219E+01  4359   0.685E+00    0.115E+01
RMM:  12    -0.226772306723E+04   -0.12821E+03   -0.11505E+02  4418   0.777E+00    0.581E+00
RMM:  13    -0.230711668975E+04   -0.39394E+02   -0.41626E+01  4463   0.536E+00    0.313E+00
RMM:  14    -0.231665102509E+04   -0.95343E+01   -0.12869E+01  4709   0.252E+00    0.265E+00
RMM:  15    -0.231772127733E+04   -0.10703E+01   -0.15339E+00  5011   0.109E+00    0.261E+00
RMM:  16    -0.231793843023E+04   -0.21715E+00   -0.23039E-01  5008   0.320E-01    0.246E+00
RMM:  17    -0.231853901735E+04   -0.60059E+00   -0.18344E-01  4428   0.336E-01    0.177E+00
RMM:  18    -0.231950053036E+04   -0.96151E+00   -0.26264E-01  4385   0.387E-01    0.748E-01
RMM:  19    -0.231970833424E+04   -0.20780E+00   -0.11667E-01  4741   0.311E-01    0.417E-01
RMM:  20    -0.231972266858E+04   -0.14334E-01   -0.21850E-02  5210   0.120E-01    0.211E-01
RMM:  21    -0.231973567423E+04   -0.13006E-01   -0.35810E-03  4448   0.547E-02    0.135E-01
RMM:  22    -0.231975133940E+04   -0.15665E-01   -0.33169E-03  4373   0.452E-02    0.113E-01
RMM:  23    -0.231976163946E+04   -0.10300E-01   -0.30802E-03  4446   0.428E-02    0.639E-02
RMM:  24    -0.231976708712E+04   -0.54477E-02   -0.17069E-03  4661   0.348E-02    0.388E-02
RMM:  25    -0.231977015125E+04   -0.30641E-02   -0.93601E-04  4517   0.233E-02    0.250E-02
RMM:  26    -0.231977219147E+04   -0.20402E-02   -0.70176E-04  4125   0.201E-02    0.183E-02
RMM:  27    -0.231977253350E+04   -0.34203E-03   -0.12182E-04  3823   0.118E-02    0.134E-02
RMM:  28    -0.231977278045E+04   -0.24695E-03   -0.55140E-05  3453   0.633E-03    0.109E-02
RMM:  29    -0.231977297934E+04   -0.19888E-03   -0.43850E-05  3357   0.676E-03    0.437E-03
RMM:  30    -0.231977304823E+04   -0.68898E-04   -0.17550E-05  2965   0.435E-03    0.273E-03
RMM:  31    -0.231977306771E+04   -0.19479E-04   -0.58113E-06  2793   0.314E-03    0.150E-03
RMM:  32    -0.231977308192E+04   -0.14203E-04   -0.44628E-06  2474   0.215E-03    0.119E-03
RMM:  33    -0.231977308401E+04   -0.20915E-05   -0.17282E-06  2338   0.191E-03
   1 F= -.23398338E+04 E0= -.23398338E+04  d E =-.233983E+04  mag=     2.0000
