       N       E                     dE             d eps       ncg     rms          rms(c)
DAV:   1     0.120396544121E+05    0.12040E+05   -0.82805E+05  4640   0.140E+03
DAV:   2    -0.129404785385E+04   -0.13334E+05   -0.12827E+05  5120   0.317E+02
DAV:   3    -0.248509050247E+04   -0.11910E+04   -0.11818E+04  5440   0.101E+02
DAV:   4    -0.250996538853E+04   -0.24875E+02   -0.24760E+02  5760   0.174E+01
DAV:   5    -0.251058745135E+04   -0.62206E+00   -0.62103E+00  5760   0.244E+00    0.170E+02
RMM:   6    -0.147255652037E+04    0.10380E+04   -0.18783E+03  4492   0.373E+01    0.720E+01
RMM:   7    -0.163920564166E+04   -0.16665E+03   -0.26633E+02  5032   0.132E+01    0.501E+01
RMM:   8    -0.170061807223E+04   -0.61412E+02   -0.61597E+01  5130   0.758E+00    0.411E+01
RMM:   9    -0.179701718504E+04   -0.96399E+02   -0.69958E+01  5008   0.774E+00    0.331E+01
RMM:  10    -0.192730952244E+04   -0.13029E+03   -0.57090E+01  5281   0.704E+00    0.187E+01
RMM:  11    -0.203983569614E+04   -0.11253E+03   -0.48867E+01  4939   0.543E+00    0.143E+01
RMM:  12    -0.215623767812E+04   -0.11640E+03   -0.74639E+01  4567   0.631E+00    0.102E+01
RMM:  13    -0.226192729949E+04   -0.10569E+03   -0.10130E+02  4530   0.689E+00    0.573E+00
RMM:  14    -0.229324122417E+04   -0.31314E+02   -0.32199E+01  4635   0.450E+00    0.581E+00
RMM:  15    -0.229526838177E+04   -0.20272E+01   -0.51148E+00  5537   0.162E+00    0.503E+00
RMM:  16    -0.229808900524E+04   -0.28206E+01   -0.21577E+00  4627   0.872E-01    0.357E+00
RMM:  17    -0.230325250990E+04   -0.51635E+01   -0.48939E+00  4528   0.117E+00    0.190E+00
RMM:  18    -0.230492852520E+04   -0.16760E+01   -0.11893E+00  4674   0.718E-01    0.123E+00
RMM:  19    -0.230530972032E+04   -0.38120E+00   -0.47296E-01  4859   0.324E-01    0.746E-01
RMM:  20    -0.230545251941E+04   -0.14280E+00   -0.15895E-01  5191   0.215E-01    0.450E-01
RMM:  21    -0.230553275283E+04   -0.80233E-01   -0.51353E-02  4669   0.129E-01    0.254E-01
RMM:  22    -0.230557257925E+04   -0.39826E-01   -0.19579E-02  4660   0.865E-02    0.159E-01
RMM:  23    -0.230559566027E+04   -0.23081E-01   -0.73863E-03  4650   0.596E-02    0.104E-01
RMM:  24    -0.230561135724E+04   -0.15697E-01   -0.37324E-03  4540   0.469E-02    0.948E-02
RMM:  25    -0.230562107497E+04   -0.97177E-02   -0.24312E-03  4580   0.390E-02    0.633E-02
RMM:  26    -0.230562520603E+04   -0.41311E-02   -0.11386E-03  4604   0.291E-02    0.295E-02
RMM:  27    -0.230562777779E+04   -0.25718E-02   -0.70664E-04  4135   0.192E-02    0.234E-02
RMM:  28    -0.230562858019E+04   -0.80240E-03   -0.27145E-04  3977   0.153E-02    0.907E-03
RMM:  29    -0.230562882988E+04   -0.24969E-03   -0.10017E-04  3754   0.840E-03    0.632E-03
RMM:  30    -0.230562894112E+04   -0.11124E-03   -0.37902E-05  3437   0.630E-03    0.279E-03
RMM:  31    -0.230562897759E+04   -0.36465E-04   -0.14288E-05  3045   0.382E-03    0.239E-03
RMM:  32    -0.230562899319E+04   -0.15599E-04   -0.64532E-06  2922   0.287E-03    0.128E-03
RMM:  33    -0.230562900003E+04   -0.68398E-05   -0.36852E-06  2555   0.210E-03
   1 F= -.23260097E+04 E0= -.23260097E+04  d E =-.714898E-19  mag=     3.0000
       N       E                     dE             d eps       ncg     rms          rms(c)
DAV:   1    -0.230561293433E+04    0.16059E-01   -0.19587E+00  4480   0.666E-01    0.296E-01
RMM:   2    -0.230561281782E+04    0.11652E-03   -0.86293E-03  3856   0.371E-02    0.212E-01
RMM:   3    -0.230561336455E+04   -0.54673E-03   -0.27931E-03  5015   0.205E-02    0.336E-01
RMM:   4    -0.230561233380E+04    0.10307E-02   -0.10106E-03  4277   0.134E-02    0.541E-02
RMM:   5    -0.230561233193E+04    0.18711E-05   -0.17770E-04  3130   0.566E-03    0.189E-02
RMM:   6    -0.230561233320E+04   -0.12638E-05   -0.16651E-05  2818   0.301E-03
   2 F= -.23259932E+04 E0= -.23259932E+04  d E =-.711691E-18  mag=     3.0000
       N       E                     dE             d eps       ncg     rms          rms(c)
DAV:   1    -0.230562835997E+04   -0.16028E-01   -0.78147E+00  4480   0.130E+00    0.592E-01
RMM:   2    -0.230562690081E+04    0.14592E-02   -0.27051E-02  4079   0.732E-02    0.414E-01
RMM:   3    -0.230562936277E+04   -0.24620E-02   -0.11028E-02  5663   0.430E-02    0.695E-01
RMM:   4    -0.230562502656E+04    0.43362E-02   -0.41667E-03  4960   0.270E-02    0.102E-01
RMM:   5    -0.230562502194E+04    0.46242E-05   -0.65130E-04  3746   0.949E-03    0.388E-02
RMM:   6    -0.230562502818E+04   -0.62474E-05   -0.66592E-05  3178   0.531E-03
   3 F= -.23260056E+04 E0= -.23260056E+04  d E =-.103087E-15  mag=     3.0000
       N       E                     dE             d eps       ncg     rms          rms(c)
DAV:   1    -0.230560385473E+04    0.21167E-01   -0.41474E+00  4480   0.989E-01    0.452E-01
RMM:   2    -0.230560229559E+04    0.15591E-02   -0.15408E-02  3981   0.534E-02    0.305E-01
RMM:   3    -0.230560380742E+04   -0.15118E-02   -0.65769E-03  5511   0.317E-02    0.550E-01
RMM:   4    -0.230560100338E+04    0.28040E-02   -0.27058E-03  4752   0.207E-02    0.869E-02
RMM:   5    -0.230560096952E+04    0.33856E-04   -0.51793E-04  3543   0.779E-03    0.275E-02
RMM:   6    -0.230560095868E+04    0.10841E-04   -0.32661E-05  2920   0.374E-03    0.175E-02
RMM:   7    -0.230560095899E+04   -0.31145E-06   -0.18944E-05  2949   0.259E-03
   4 F= -.23259816E+04 E0= -.23259816E+04  d E =-.130159E-17  mag=     3.0000
       N       E                     dE             d eps       ncg     rms          rms(c)
DAV:   1    -0.230562396448E+04   -0.23006E-01   -0.85639E+00  4480   0.147E+00    0.674E-01
RMM:   2    -0.230561938748E+04    0.45770E-02   -0.31639E-02  4148   0.744E-02    0.381E-01
RMM:   3    -0.230562080773E+04   -0.14202E-02   -0.13601E-02  5515   0.470E-02    0.633E-01
RMM:   4    -0.230561710404E+04    0.37037E-02   -0.36533E-03  5062   0.249E-02    0.676E-02
RMM:   5    -0.230561713709E+04   -0.33054E-04   -0.58839E-04  3542   0.725E-03    0.391E-02
RMM:   6    -0.230561711587E+04    0.21221E-04   -0.57675E-05  3060   0.468E-03    0.243E-02
RMM:   7    -0.230561711192E+04    0.39526E-05   -0.35101E-05  3101   0.339E-03
   5 F= -.23259978E+04 E0= -.23259978E+04  d E =-.826478E-18  mag=     3.0000
       N       E                     dE             d eps       ncg     rms          rms(c)
DAV:   1    -0.230562238336E+04   -0.52675E-02   -0.42837E+00  4640   0.988E-01    0.426E-01
RMM:   2    -0.230562073959E+04    0.16438E-02   -0.13755E-02  3966   0.506E-02    0.237E-01
RMM:   3    -0.230562016814E+04    0.57144E-03   -0.36897E-03  4926   0.293E-02    0.218E-01
RMM:   4    -0.230562003664E+04    0.13151E-03   -0.15954E-03  4789   0.157E-02    0.171E-01
RMM:   5    -0.230561978251E+04    0.25413E-03   -0.16525E-04  3301   0.682E-03    0.277E-02
RMM:   6    -0.230561977463E+04    0.78729E-05   -0.36134E-05  2949   0.340E-03
   6 F= -.23260008E+04 E0= -.23260008E+04  d E =-.508178E-16  mag=     3.0000
       N       E                     dE             d eps       ncg     rms          rms(c)
DAV:   1    -0.230562062911E+04   -0.84660E-03   -0.84244E+00  4480   0.136E+00    0.533E-01
RMM:   2    -0.230561903505E+04    0.15941E-02   -0.31709E-02  4029   0.734E-02    0.352E-01
RMM:   3    -0.230561962689E+04   -0.59184E-03   -0.65024E-03  5462   0.350E-02    0.526E-01
RMM:   4    -0.230561715431E+04    0.24726E-02   -0.43850E-03  4774   0.248E-02    0.138E-01
RMM:   5    -0.230561705072E+04    0.10359E-03   -0.38460E-04  3644   0.968E-03    0.417E-02
RMM:   6    -0.230561703937E+04    0.11351E-04   -0.56197E-05  2995   0.447E-03    0.205E-02
RMM:   7    -0.230561703929E+04    0.79221E-07   -0.15933E-05  2852   0.252E-03
   7 F= -.23259974E+04 E0= -.23259974E+04  d E =-.133507E-18  mag=     3.0000
       N       E                     dE             d eps       ncg     rms          rms(c)
DAV:   1    -0.230563199234E+04   -0.14953E-01   -0.22791E+00  4480   0.686E-01    0.298E-01
RMM:   2    -0.230563178291E+04    0.20943E-03   -0.86112E-03  3881   0.392E-02    0.236E-01
RMM:   3    -0.230563177371E+04    0.91987E-05   -0.19520E-03  4708   0.187E-02    0.266E-01
RMM:   4    -0.230563114788E+04    0.62583E-03   -0.13389E-03  4500   0.140E-02    0.100E-01
RMM:   5    -0.230563108183E+04    0.66048E-04   -0.11231E-04  3098   0.603E-03    0.315E-02
RMM:   6    -0.230563107400E+04    0.78334E-05   -0.23449E-05  2764   0.293E-03
   8 F= -.23260113E+04 E0= -.23260113E+04  d E =-.349804E-19  mag=     3.0000
       N       E                     dE             d eps       ncg     rms          rms(c)
DAV:   1    -0.230562736067E+04    0.37212E-02   -0.11080E+00  4480   0.489E-01    0.377E-01
RMM:   2    -0.230562646221E+04    0.89846E-03   -0.82815E-03  4061   0.362E-02    0.250E-01
RMM:   3    -0.230562695652E+04   -0.49431E-03   -0.31675E-03  4216   0.284E-02    0.346E-01
RMM:   4    -0.230562589985E+04    0.10567E-02   -0.14552E-03  4962   0.151E-02    0.119E-01
RMM:   5    -0.230562581160E+04    0.88252E-04   -0.11656E-04  3145   0.559E-03    0.351E-02
RMM:   6    -0.230562580549E+04    0.61074E-05   -0.32564E-05  2971   0.346E-03
   9 F= -.23260069E+04 E0= -.23260069E+04  d E =-.113615E-16  mag=     3.0000
       N       E                     dE             d eps       ncg     rms          rms(c)
DAV:   1    -0.230562862510E+04   -0.28135E-02   -0.56098E-01  4480   0.343E-01    0.227E-01
RMM:   2    -0.230562899113E+04   -0.36603E-03   -0.39364E-03  4094   0.263E-02    0.290E-01
RMM:   3    -0.230562844077E+04    0.55036E-03   -0.11913E-03  4442   0.130E-02    0.144E-01
RMM:   4    -0.230562825631E+04    0.18446E-03   -0.34346E-04  4066   0.731E-03    0.556E-02
RMM:   5    -0.230562824253E+04    0.13777E-04   -0.42127E-05  2882   0.391E-03    0.154E-02
RMM:   6    -0.230562824096E+04    0.15723E-05   -0.99864E-06  2601   0.197E-03
  10 F= -.23260092E+04 E0= -.23260092E+04  d E =-.344617E-18  mag=     3.0000
       N       E                     dE             d eps       ncg     rms          rms(c)
DAV:   1    -0.230562600772E+04    0.22348E-02   -0.11011E+00  4480   0.472E-01    0.272E-01
RMM:   2    -0.230562733753E+04   -0.13298E-02   -0.61464E-03  4289   0.335E-02    0.401E-01
RMM:   3    -0.230562607124E+04    0.12663E-02   -0.14602E-03  4662   0.161E-02    0.147E-01
RMM:   4    -0.230562599254E+04    0.78699E-04   -0.34723E-04  3759   0.769E-03    0.487E-02
RMM:   5    -0.230562600652E+04   -0.13977E-04   -0.60224E-05  3071   0.471E-03    0.165E-02
RMM:   6    -0.230562600584E+04    0.68030E-06   -0.85875E-06  2742   0.251E-03
  11 F= -.23260065E+04 E0= -.23260065E+04  d E =-.695842E-18  mag=     3.0000
       N       E                     dE             d eps       ncg     rms          rms(c)
DAV:   1    -0.230562759259E+04   -0.15861E-02   -0.55401E-01  4480   0.343E-01    0.171E-01
RMM:   2    -0.230562768850E+04   -0.95916E-04   -0.16463E-03  3580   0.175E-02    0.103E-01
RMM:   3    -0.230562776439E+04   -0.75884E-04   -0.39017E-04  3684   0.955E-03    0.126E-01
RMM:   4    -0.230562765840E+04    0.10599E-03   -0.27490E-04  3279   0.667E-03    0.584E-02
RMM:   5    -0.230562764212E+04    0.16276E-04   -0.31716E-05  2738   0.353E-03    0.144E-02
RMM:   6    -0.230562764033E+04    0.17973E-05   -0.64756E-06  2444   0.191E-03
  12 F= -.23260079E+04 E0= -.23260079E+04  d E =-.313434E-19  mag=     3.0000
       N       E                     dE             d eps       ncg     rms          rms(c)
DAV:   1    -0.230562344431E+04    0.41978E-02   -0.11092E+00  4480   0.493E-01    0.327E-01
RMM:   2    -0.230562511364E+04   -0.16693E-02   -0.10337E-02  4254   0.437E-02    0.475E-01
RMM:   3    -0.230562328947E+04    0.18242E-02   -0.23555E-03  4757   0.217E-02    0.196E-01
RMM:   4    -0.230562301903E+04    0.27044E-03   -0.49355E-04  4158   0.967E-03    0.642E-02
RMM:   5    -0.230562302113E+04   -0.20996E-05   -0.12037E-04  3330   0.547E-03    0.266E-02
RMM:   6    -0.230562301615E+04    0.49821E-05   -0.16098E-05  2807   0.301E-03
  13 F= -.23260042E+04 E0= -.23260042E+04  d E =-.145187E-16  mag=     3.0000
       N       E                     dE             d eps       ncg     rms          rms(c)
DAV:   1    -0.230563175235E+04   -0.87312E-02   -0.58722E-01  4640   0.355E-01    0.251E-01
RMM:   2    -0.230563183495E+04   -0.82600E-04   -0.39751E-03  4216   0.289E-02    0.221E-01
RMM:   3    -0.230563184089E+04   -0.59364E-05   -0.12304E-03  4204   0.164E-02    0.223E-01
RMM:   4    -0.230563142712E+04    0.41377E-03   -0.45041E-04  4009   0.971E-03    0.486E-02
RMM:   5    -0.230563143048E+04   -0.33631E-05   -0.87667E-05  3153   0.442E-03
  14 F= -.23260126E+04 E0= -.23260126E+04  d E =-.817355E-18  mag=     3.0000
       N       E                     dE             d eps       ncg     rms          rms(c)
DAV:   1    -0.230562084817E+04    0.10579E-01   -0.12602E+00  4640   0.464E-01    0.418E-01
RMM:   2    -0.230561960414E+04    0.12440E-02   -0.79525E-03  4180   0.330E-02    0.246E-01
RMM:   3    -0.230562050214E+04   -0.89800E-03   -0.31906E-03  4972   0.231E-02    0.393E-01
RMM:   4    -0.230561910762E+04    0.13945E-02   -0.13329E-03  4555   0.150E-02    0.769E-02
RMM:   5    -0.230561907729E+04    0.30335E-04   -0.13147E-04  3113   0.563E-03    0.239E-02
RMM:   6    -0.230561907446E+04    0.28250E-05   -0.20714E-05  2786   0.305E-03
  15 F= -.23259993E+04 E0= -.23259993E+04  d E =-.304367E-18  mag=     3.0000
       N       E                     dE             d eps       ncg     rms          rms(c)
DAV:   1    -0.230562744320E+04   -0.83659E-02   -0.65399E-01  5120   0.341E-01    0.419E-01
RMM:   2    -0.230562474813E+04    0.26951E-02   -0.11642E-02  4263   0.360E-02    0.214E-01
RMM:   3    -0.230562436295E+04    0.38518E-03   -0.17647E-03  4363   0.215E-02    0.188E-01
RMM:   4    -0.230562430378E+04    0.59174E-04   -0.96307E-04  4248   0.119E-02    0.173E-01
RMM:   5    -0.230562403684E+04    0.26693E-03   -0.21226E-04  3551   0.735E-03    0.237E-02
RMM:   6    -0.230562403561E+04    0.12367E-05   -0.38974E-05  2772   0.313E-03
  16 F= -.23260053E+04 E0= -.23260053E+04  d E =-.294149E-18  mag=     3.0000
       N       E                     dE             d eps       ncg     rms          rms(c)
DAV:   1    -0.230561961265E+04    0.44242E-02   -0.13134E+00  4960   0.469E-01    0.576E-01
RMM:   2    -0.230561444792E+04    0.51647E-02   -0.20980E-02  4483   0.501E-02    0.292E-01
RMM:   3    -0.230561339264E+04    0.10553E-02   -0.25821E-03  4050   0.305E-02    0.134E-01
RMM:   4    -0.230561335252E+04    0.40113E-04   -0.84379E-04  4147   0.121E-02    0.774E-02
RMM:   5    -0.230561338314E+04   -0.30617E-04   -0.29419E-04  3194   0.103E-02    0.931E-02
RMM:   6    -0.230561330411E+04    0.79033E-04   -0.56886E-05  2940   0.419E-03    0.124E-02
RMM:   7    -0.230561330295E+04    0.11544E-05   -0.11792E-05  2779   0.232E-03
  17 F= -.23259934E+04 E0= -.23259934E+04  d E =-.282436E-18  mag=     3.0000
       N       E                     dE             d eps       ncg     rms          rms(c)
DAV:   1    -0.230562454595E+04   -0.11242E-01   -0.62702E-01  4800   0.328E-01    0.279E-01
RMM:   2    -0.230562411089E+04    0.43506E-03   -0.35706E-03  4091   0.222E-02    0.161E-01
RMM:   3    -0.230562430794E+04   -0.19705E-03   -0.94724E-04  4246   0.136E-02    0.199E-01
RMM:   4    -0.230562400897E+04    0.29897E-03   -0.49467E-04  3695   0.932E-03    0.799E-02
RMM:   5    -0.230562396736E+04    0.41615E-04   -0.57662E-05  3020   0.461E-03    0.149E-02
RMM:   6    -0.230562396656E+04    0.80008E-06   -0.10107E-05  2680   0.233E-03
  18 F= -.23260046E+04 E0= -.23260046E+04  d E =-.179158E-18  mag=     3.0000
       N       E                     dE             d eps       ncg     rms          rms(c)
DAV:   1    -0.230562930431E+04   -0.53370E-02   -0.12390E+00  4640   0.462E-01    0.403E-01
RMM:   2    -0.230562844693E+04    0.85738E-03   -0.84347E-03  3981   0.319E-02    0.237E-01
RMM:   3    -0.230562921317E+04   -0.76624E-03   -0.28370E-03  4973   0.207E-02    0.374E-01
RMM:   4    -0.230562801269E+04    0.12005E-02   -0.13075E-03  4543   0.141E-02    0.639E-02
RMM:   5    -0.230562799529E+04    0.17400E-04   -0.15037E-04  3058   0.505E-03    0.172E-02
RMM:   6    -0.230562799496E+04    0.32203E-06   -0.18098E-05  2809   0.281E-03
  19 F= -.23260088E+04 E0= -.23260088E+04  d E =-.234244E-18  mag=     3.0000
       N       E                     dE             d eps       ncg     rms          rms(c)
DAV:   1    -0.230562584126E+04    0.21540E-02   -0.62174E-01  4960   0.360E-01    0.275E-01
RMM:   2    -0.230562559732E+04    0.24394E-03   -0.27071E-03  3675   0.221E-02    0.189E-01
RMM:   3    -0.230562630838E+04   -0.71106E-03   -0.18621E-03  4995   0.144E-02    0.330E-01
RMM:   4    -0.230562534097E+04    0.96741E-03   -0.78508E-04  4278   0.120E-02    0.303E-02
RMM:   5    -0.230562532745E+04    0.13519E-04   -0.96719E-05  2862   0.404E-03    0.116E-02
RMM:   6    -0.230562532509E+04    0.23588E-05   -0.97987E-06  2658   0.198E-03
  20 F= -.23260066E+04 E0= -.23260066E+04  d E =-.235027E-18  mag=     3.0000
       N       E                     dE             d eps       ncg     rms          rms(c)
DAV:   1    -0.230562780634E+04   -0.24789E-02   -0.12395E+00  4720   0.491E-01    0.404E-01
RMM:   2    -0.230562687028E+04    0.93606E-03   -0.65568E-03  4093   0.328E-02    0.254E-01
RMM:   3    -0.230562827675E+04   -0.14065E-02   -0.37783E-03  5173   0.238E-02    0.449E-01
RMM:   4    -0.230562640830E+04    0.18684E-02   -0.14071E-03  4630   0.161E-02    0.478E-02
RMM:   5    -0.230562640086E+04    0.74352E-05   -0.14661E-04  3059   0.510E-03    0.200E-02
RMM:   6    -0.230562639952E+04    0.13473E-05   -0.16452E-05  2831   0.286E-03
  21 F= -.23260066E+04 E0= -.23260066E+04  d E =-.146178E-18  mag=     3.0000
       N       E                     dE             d eps       ncg     rms          rms(c)
DAV:   1    -0.230562314863E+04    0.32522E-02   -0.62381E-01  4800   0.347E-01    0.282E-01
RMM:   2    -0.230562260483E+04    0.54380E-03   -0.32415E-03  4164   0.235E-02    0.162E-01
RMM:   3    -0.230562275248E+04   -0.14765E-03   -0.91111E-04  3837   0.148E-02    0.184E-01
RMM:   4    -0.230562251662E+04    0.23587E-03   -0.44219E-04  3748   0.883E-03    0.758E-02
RMM:   5    -0.230562247443E+04    0.42187E-04   -0.61597E-05  3036   0.460E-03    0.138E-02
RMM:   6    -0.230562247479E+04   -0.35722E-06   -0.86351E-06  2652   0.241E-03
  22 F= -.23260026E+04 E0= -.23260026E+04  d E =-.232555E-18  mag=     3.0000
       N       E                     dE             d eps       ncg     rms          rms(c)
DAV:   1    -0.230562136819E+04    0.11062E-02   -0.13013E+00  5040   0.506E-01    0.566E-01
RMM:   2    -0.230561616864E+04    0.51995E-02   -0.18782E-02  4542   0.526E-02    0.287E-01
RMM:   3    -0.230561554840E+04    0.62024E-03   -0.25789E-03  4485   0.261E-02    0.187E-01
RMM:   4    -0.230561595270E+04   -0.40430E-03   -0.17239E-03  4682   0.160E-02    0.275E-01
RMM:   5    -0.230561526033E+04    0.69237E-03   -0.51599E-04  4061   0.105E-02    0.293E-02
RMM:   6    -0.230561526127E+04   -0.94823E-06   -0.79764E-05  2972   0.392E-03
  23 F= -.23259965E+04 E0= -.23259965E+04  d E =-.989586E-19  mag=     3.0000
       N       E                     dE             d eps       ncg     rms          rms(c)
DAV:   1    -0.230562934936E+04   -0.14089E-01   -0.65168E-01  5040   0.364E-01    0.407E-01
RMM:   2    -0.230562673570E+04    0.26137E-02   -0.93794E-03  4436   0.371E-02    0.209E-01
RMM:   3    -0.230562641633E+04    0.31937E-03   -0.14774E-03  4119   0.208E-02    0.149E-01
RMM:   4    -0.230562653230E+04   -0.11597E-03   -0.86704E-04  4307   0.115E-02    0.173E-01
RMM:   5    -0.230562625145E+04    0.28085E-03   -0.24257E-04  3509   0.746E-03    0.297E-02
RMM:   6    -0.230562624668E+04    0.47752E-05   -0.25829E-05  2780   0.327E-03
  24 F= -.23260068E+04 E0= -.23260068E+04  d E =-.115063E-18  mag=     3.0000
       N       E                     dE             d eps       ncg     rms          rms(c)
DAV:   1    -0.230562674686E+04   -0.49541E-03   -0.12343E+00  4720   0.482E-01    0.406E-01
RMM:   2    -0.230562566245E+04    0.10844E-02   -0.74676E-03  4195   0.340E-02    0.246E-01
RMM:   3    -0.230562681001E+04   -0.11476E-02   -0.33694E-03  4938   0.238E-02    0.418E-01
RMM:   4    -0.230562525808E+04    0.15519E-02   -0.14304E-03  4628   0.149E-02    0.613E-02
RMM:   5    -0.230562524636E+04    0.11725E-04   -0.18567E-04  3225   0.578E-03    0.184E-02
RMM:   6    -0.230562524696E+04   -0.60626E-06   -0.21971E-05  2838   0.288E-03
  25 F= -.23260061E+04 E0= -.23260061E+04  d E =-.209735E-18  mag=     3.0000
