       N       E                     dE             d eps       ncg     rms          rms(c)
DAV:   1     0.128813800552E+05    0.12881E+05   -0.83696E+05  4504   0.144E+03
DAV:   2    -0.106336276880E+04   -0.13945E+05   -0.13339E+05  5136   0.329E+02
DAV:   3    -0.248310938608E+04   -0.14197E+04   -0.14048E+04  5440   0.112E+02
DAV:   4    -0.252701080072E+04   -0.43901E+02   -0.43672E+02  6768   0.292E+01
DAV:   5    -0.252780261926E+04   -0.79182E+00   -0.79055E+00  6072   0.338E+00    0.171E+02
RMM:   6    -0.149249524316E+04    0.10353E+04   -0.19587E+03  4444   0.385E+01    0.731E+01
RMM:   7    -0.167484714263E+04   -0.18235E+03   -0.28889E+02  5072   0.139E+01    0.581E+01
RMM:   8    -0.170247834586E+04   -0.27631E+02   -0.10310E+02  5294   0.871E+00    0.441E+01
RMM:   9    -0.176809719315E+04   -0.65619E+02   -0.57706E+01  4907   0.723E+00    0.341E+01
RMM:  10    -0.188954230892E+04   -0.12145E+03   -0.62010E+01  5375   0.711E+00    0.329E+01
RMM:  11    -0.197505141578E+04   -0.85509E+02   -0.36456E+01  5272   0.527E+00    0.187E+01
RMM:  12    -0.206864758792E+04   -0.93596E+02   -0.39433E+01  4730   0.480E+00    0.147E+01
RMM:  13    -0.216501692283E+04   -0.96369E+02   -0.52787E+01  4511   0.558E+00    0.110E+01
RMM:  14    -0.226508387195E+04   -0.10007E+03   -0.81864E+01  4633   0.651E+00    0.717E+00
RMM:  15    -0.230506774455E+04   -0.39984E+02   -0.36210E+01  4551   0.468E+00    0.485E+00
RMM:  16    -0.231654185550E+04   -0.11474E+02   -0.13971E+01  5005   0.266E+00    0.397E+00
RMM:  17    -0.232013842501E+04   -0.35966E+01   -0.35269E+00  4914   0.129E+00    0.196E+00
RMM:  18    -0.232312565303E+04   -0.29872E+01   -0.19227E+00  4567   0.871E-01    0.247E+00
RMM:  19    -0.232343801506E+04   -0.31236E+00   -0.23498E-01  4829   0.467E-01    0.270E+00
RMM:  20    -0.232337346609E+04    0.64549E-01   -0.56528E-02  5800   0.119E-01    0.213E+00
RMM:  21    -0.232377116842E+04   -0.39770E+00   -0.13803E-01  4436   0.203E-01    0.112E+00
RMM:  22    -0.232402655481E+04   -0.25539E+00   -0.80718E-02  4454   0.193E-01    0.106E+00
RMM:  23    -0.232411789303E+04   -0.91338E-01   -0.56151E-02  4749   0.160E-01    0.163E+00
RMM:  24    -0.232410464836E+04    0.13245E-01   -0.12213E-02  5292   0.785E-02    0.202E+00
RMM:  25    -0.232412926014E+04   -0.24612E-01   -0.39025E-03  4690   0.318E-02    0.157E+00
RMM:  26    -0.232416659694E+04   -0.37337E-01   -0.12048E-02  4585   0.549E-02    0.945E-01
RMM:  27    -0.232420375451E+04   -0.37158E-01   -0.19538E-02  4533   0.728E-02    0.698E-01
RMM:  28    -0.232423539025E+04   -0.31636E-01   -0.19108E-02  4550   0.764E-02    0.152E+00
RMM:  29    -0.232426252638E+04   -0.27136E-01   -0.15699E-02  4882   0.629E-02    0.247E+00
RMM:  30    -0.232424065151E+04    0.21875E-01   -0.72496E-03  4482   0.416E-02    0.152E+00
RMM:  31    -0.232423307564E+04    0.75759E-02   -0.49078E-03  4491   0.313E-02    0.105E+00
RMM:  32    -0.232422685498E+04    0.62207E-02   -0.12550E-02  4698   0.484E-02    0.691E-01
RMM:  33    -0.232422391813E+04    0.29368E-02   -0.53836E-03  4414   0.375E-02    0.854E-01
RMM:  34    -0.232421954502E+04    0.43731E-02   -0.49943E-03  4504   0.318E-02    0.116E+00
RMM:  35    -0.232420560940E+04    0.13936E-01   -0.79022E-03  4543   0.402E-02    0.172E+00
RMM:  36    -0.232419860949E+04    0.69999E-02   -0.20109E-03  4579   0.217E-02    0.193E+00
RMM:  37    -0.232420973907E+04   -0.11130E-01   -0.12874E-03  4013   0.155E-02    0.162E+00
RMM:  38    -0.232422904496E+04   -0.19306E-01   -0.11851E-02  4657   0.430E-02    0.906E-01
RMM:  39    -0.232423690468E+04   -0.78597E-02   -0.71410E-03  4608   0.365E-02    0.686E-01
RMM:  40    -0.232424068842E+04   -0.37837E-02   -0.29814E-03  4481   0.219E-02    0.744E-01
RMM:  41    -0.232424578612E+04   -0.50977E-02   -0.26321E-03  4273   0.195E-02    0.101E+00
RMM:  42    -0.232424621252E+04   -0.42640E-03   -0.27960E-04  3156   0.114E-02    0.103E+00
RMM:  43    -0.232424617902E+04    0.33505E-04   -0.54775E-05  2971   0.448E-03    0.103E+00
RMM:  44    -0.232424612881E+04    0.50207E-04   -0.35048E-06  2787   0.251E-03    0.103E+00
RMM:  45    -0.232424783558E+04   -0.17068E-02   -0.16196E-04  3088   0.507E-03    0.113E+00
RMM:  46    -0.232425095745E+04   -0.31219E-02   -0.49073E-04  3585   0.845E-03    0.131E+00
RMM:  47    -0.232424703564E+04    0.39218E-02   -0.56443E-04  3587   0.107E-02    0.107E+00
RMM:  48    -0.232423994245E+04    0.70932E-02   -0.46522E-03  4455   0.256E-02    0.735E-01
RMM:  49    -0.232423518623E+04    0.47562E-02   -0.40135E-03  4376   0.251E-02    0.767E-01
RMM:  50    -0.232423099127E+04    0.41950E-02   -0.28797E-03  4529   0.208E-02    0.939E-01
RMM:  51    -0.232422793466E+04    0.30566E-02   -0.11635E-03  3940   0.140E-02    0.108E+00
RMM:  52    -0.232422813522E+04   -0.20056E-03   -0.84162E-05  2998   0.583E-03    0.107E+00
RMM:  53    -0.232422821114E+04   -0.75925E-04   -0.96550E-06  2709   0.239E-03    0.107E+00
RMM:  54    -0.232422872199E+04   -0.51084E-03   -0.15572E-05  2636   0.226E-03    0.105E+00
RMM:  55    -0.232423139544E+04   -0.26735E-02   -0.52508E-04  3425   0.881E-03    0.921E-01
RMM:  56    -0.232423663485E+04   -0.52394E-02   -0.31671E-03  4316   0.215E-02    0.726E-01
RMM:  57    -0.232424396680E+04   -0.73319E-02   -0.72145E-03  4600   0.326E-02    0.869E-01
RMM:  58    -0.232425123537E+04   -0.72686E-02   -0.45889E-03  4617   0.271E-02    0.129E+00
RMM:  59    -0.232426061045E+04   -0.93751E-02   -0.35576E-03  4442   0.226E-02    0.179E+00
RMM:  60    -0.232426936423E+04   -0.87538E-02   -0.19144E-03  4130   0.193E-02    0.215E+00
RMM:  61    -0.232426966683E+04   -0.30260E-03   -0.24313E-04  3219   0.992E-03    0.216E+00
RMM:  62    -0.232427246342E+04   -0.27966E-02   -0.16612E-04  3103   0.610E-03    0.226E+00
RMM:  63    -0.232426989251E+04    0.25709E-02   -0.55211E-05  2906   0.503E-03    0.217E+00
RMM:  64    -0.232426627870E+04    0.36138E-02   -0.18413E-04  3051   0.537E-03    0.203E+00
RMM:  65    -0.232426071441E+04    0.55643E-02   -0.49662E-04  3474   0.835E-03    0.179E+00
RMM:  66    -0.232425815558E+04    0.25588E-02   -0.20858E-04  3035   0.678E-03    0.166E+00
RMM:  67    -0.232425513210E+04    0.30235E-02   -0.26828E-04  3295   0.673E-03    0.150E+00
RMM:  68    -0.232425365939E+04    0.14727E-02   -0.91980E-05  2951   0.554E-03    0.141E+00
RMM:  69    -0.232425266341E+04    0.99598E-03   -0.57013E-05  2944   0.417E-03    0.135E+00
RMM:  70    -0.232425129572E+04    0.13677E-02   -0.79318E-05  2953   0.440E-03    0.127E+00
RMM:  71    -0.232424940549E+04    0.18902E-02   -0.17828E-04  3166   0.584E-03    0.116E+00
RMM:  72    -0.232424624290E+04    0.31626E-02   -0.61235E-04  3707   0.960E-03    0.969E-01
RMM:  73    -0.232424608184E+04    0.16106E-03   -0.79447E-05  2935   0.636E-03    0.968E-01
RMM:  74    -0.232424547877E+04    0.60307E-03   -0.64869E-05  2900   0.371E-03    0.931E-01
RMM:  75    -0.232424507206E+04    0.40671E-03   -0.26900E-05  2835   0.332E-03    0.912E-01
RMM:  76    -0.232424580072E+04   -0.72865E-03   -0.25090E-05  2673   0.280E-03    0.962E-01
RMM:  77    -0.232424550533E+04    0.29539E-03   -0.72078E-06  2368   0.173E-03    0.947E-01
RMM:  78    -0.232424412559E+04    0.13797E-02   -0.17811E-04  3208   0.526E-03    0.886E-01
RMM:  79    -0.232424402189E+04    0.10370E-03   -0.76989E-05  2980   0.442E-03    0.908E-01
RMM:  80    -0.232424360999E+04    0.41190E-03   -0.49452E-05  2939   0.371E-03    0.897E-01
RMM:  81    -0.232424304350E+04    0.56649E-03   -0.36784E-05  2828   0.334E-03    0.873E-01
RMM:  82    -0.232424319999E+04   -0.15649E-03   -0.38813E-06  2482   0.231E-03    0.881E-01
RMM:  83    -0.232424176204E+04    0.14379E-02   -0.20033E-04  3192   0.552E-03    0.822E-01
RMM:  84    -0.232424094371E+04    0.81833E-03   -0.11901E-04  2986   0.472E-03    0.794E-01
RMM:  85    -0.232424023491E+04    0.70881E-03   -0.10116E-04  2951   0.434E-03    0.767E-01
RMM:  86    -0.232423605103E+04    0.41839E-02   -0.20556E-03  4139   0.166E-02    0.735E-01
RMM:  87    -0.232423559321E+04    0.45782E-03   -0.20540E-04  3060   0.870E-03    0.751E-01
RMM:  88    -0.232423543332E+04    0.15989E-03   -0.50527E-05  2889   0.347E-03    0.754E-01
RMM:  89    -0.232423573480E+04   -0.30148E-03   -0.87197E-06  2545   0.244E-03    0.747E-01
RMM:  90    -0.232423633405E+04   -0.59925E-03   -0.43142E-05  2695   0.272E-03    0.743E-01
RMM:  91    -0.232423790399E+04   -0.15699E-02   -0.30195E-04  3195   0.656E-03    0.730E-01
RMM:  92    -0.232423738857E+04    0.51542E-03   -0.22403E-05  2546   0.318E-03    0.729E-01
RMM:  93    -0.232423704860E+04    0.33997E-03   -0.17850E-05  2448   0.205E-03    0.733E-01
RMM:  94    -0.232423546705E+04    0.15816E-02   -0.29851E-04  3142   0.655E-03    0.756E-01
RMM:  95    -0.232423280206E+04    0.26650E-02   -0.79918E-04  3737   0.106E-02    0.849E-01
RMM:  96    -0.232423447606E+04   -0.16740E-02   -0.18958E-04  2998   0.642E-03    0.794E-01
RMM:  97    -0.232423393703E+04    0.53902E-03   -0.16371E-05  2627   0.285E-03    0.808E-01
RMM:  98    -0.232423493234E+04   -0.99530E-03   -0.83245E-05  2717   0.353E-03    0.777E-01
RMM:  99    -0.232423680348E+04   -0.18711E-02   -0.42415E-04  3393   0.783E-03    0.732E-01
RMM: 100    -0.232423853554E+04   -0.17321E-02   -0.46775E-04  3311   0.821E-03    0.721E-01
RMM: 101    -0.232423918541E+04   -0.64987E-03   -0.13319E-04  2955   0.506E-03    0.732E-01
RMM: 102    -0.232423850974E+04    0.67567E-03   -0.42870E-05  2727   0.356E-03    0.721E-01
RMM: 103    -0.232423935743E+04   -0.84769E-03   -0.72671E-05  2714   0.330E-03    0.729E-01
RMM: 104    -0.232423883266E+04    0.52478E-03   -0.26956E-05  2507   0.288E-03    0.716E-01
RMM: 105    -0.232423859704E+04    0.23562E-03   -0.20766E-05  2542   0.208E-03    0.705E-01
RMM: 106    -0.232423963986E+04   -0.10428E-02   -0.19350E-04  3240   0.550E-03    0.693E-01
RMM: 107    -0.232423966734E+04   -0.27475E-04   -0.31548E-05  2836   0.329E-03    0.679E-01
RMM: 108    -0.232424098240E+04   -0.13151E-02   -0.20156E-04  3153   0.578E-03    0.711E-01
RMM: 109    -0.232424176487E+04   -0.78247E-03   -0.94911E-05  2915   0.490E-03    0.739E-01
RMM: 110    -0.232424113124E+04    0.63363E-03   -0.26597E-05  2669   0.325E-03    0.714E-01
RMM: 111    -0.232424267721E+04   -0.15460E-02   -0.22571E-04  2996   0.525E-03    0.794E-01
RMM: 112    -0.232424307252E+04   -0.39531E-03   -0.42803E-05  2680   0.363E-03    0.811E-01
RMM: 113    -0.232424082067E+04    0.22519E-02   -0.42135E-04  3195   0.792E-03    0.718E-01
RMM: 114    -0.232423699283E+04    0.38278E-02   -0.19881E-03  4189   0.168E-02    0.696E-01
RMM: 115    -0.232423348496E+04    0.35079E-02   -0.18062E-03  4011   0.167E-02    0.796E-01
RMM: 116    -0.232423458653E+04   -0.11016E-02   -0.10149E-04  2987   0.674E-03    0.768E-01
RMM: 117    -0.232423449309E+04    0.93437E-04   -0.14606E-05  2720   0.254E-03    0.771E-01
RMM: 118    -0.232423500214E+04   -0.50905E-03   -0.25297E-05  2609   0.247E-03    0.756E-01
RMM: 119    -0.232423634358E+04   -0.13414E-02   -0.20684E-04  3095   0.565E-03    0.724E-01
RMM: 120    -0.232423861135E+04   -0.22678E-02   -0.66533E-04  3632   0.975E-03    0.707E-01
RMM: 121    -0.232423902079E+04   -0.40943E-03   -0.80937E-05  2898   0.484E-03    0.707E-01
RMM: 122    -0.232423989473E+04   -0.87394E-03   -0.12389E-04  3058   0.441E-03    0.721E-01
RMM: 123    -0.232424014899E+04   -0.25427E-03   -0.22078E-05  2737   0.305E-03    0.727E-01
RMM: 124    -0.232423965963E+04    0.48936E-03   -0.19325E-05  2537   0.228E-03    0.712E-01
RMM: 125    -0.232423917674E+04    0.48289E-03   -0.26081E-05  2585   0.236E-03    0.703E-01
RMM: 126    -0.232423978366E+04   -0.60692E-03   -0.42463E-05  2508   0.274E-03    0.710E-01
RMM: 127    -0.232424003181E+04   -0.24815E-03   -0.14402E-05  2557   0.207E-03    0.714E-01
RMM: 128    -0.232423953408E+04    0.49774E-03   -0.22496E-05  2423   0.208E-03    0.704E-01
RMM: 129    -0.232423886559E+04    0.66849E-03   -0.65059E-05  2784   0.333E-03    0.698E-01
RMM: 130    -0.232423727627E+04    0.15893E-02   -0.36847E-04  3335   0.719E-03    0.706E-01
RMM: 131    -0.232423385202E+04    0.34242E-02   -0.14175E-03  3928   0.137E-02    0.780E-01
RMM: 132    -0.232423421488E+04   -0.36286E-03   -0.60742E-05  2893   0.610E-03    0.768E-01
RMM: 133    -0.232423416127E+04    0.53604E-04   -0.12841E-05  2629   0.202E-03    0.769E-01
RMM: 134    -0.232423432077E+04   -0.15950E-03   -0.25001E-06  2374   0.147E-03    0.766E-01
RMM: 135    -0.232423468690E+04   -0.36612E-03   -0.18314E-05  2447   0.171E-03    0.761E-01
RMM: 136    -0.232423156977E+04    0.31171E-02   -0.94917E-04  3924   0.118E-02    0.902E-01
RMM: 137    -0.232423096896E+04    0.60080E-03   -0.11094E-04  2951   0.602E-03    0.931E-01
RMM: 138    -0.232423062945E+04    0.33952E-03   -0.36920E-05  2804   0.278E-03    0.946E-01
RMM: 139    -0.232422941079E+04    0.12187E-02   -0.10359E-04  2997   0.455E-03    0.996E-01
RMM: 140    -0.232423078632E+04   -0.13755E-02   -0.10137E-04  2804   0.438E-03    0.938E-01
RMM: 141    -0.232423366244E+04   -0.28761E-02   -0.70213E-04  3589   0.101E-02    0.825E-01
RMM: 142    -0.232423707807E+04   -0.34156E-02   -0.14133E-03  4008   0.147E-02    0.726E-01
RMM: 143    -0.232423897301E+04   -0.18949E-02   -0.76053E-04  3620   0.115E-02    0.711E-01
RMM: 144    -0.232424112376E+04   -0.21507E-02   -0.71326E-04  3810   0.105E-02    0.756E-01
RMM: 145    -0.232424159744E+04   -0.47368E-03   -0.10178E-04  2999   0.644E-03    0.770E-01
RMM: 146    -0.232424217254E+04   -0.57510E-03   -0.73127E-05  2948   0.396E-03    0.794E-01
RMM: 147    -0.232424219213E+04   -0.19596E-04   -0.60687E-06  2712   0.283E-03    0.793E-01
RMM: 148    -0.232424223511E+04   -0.42979E-04   -0.22332E-06  2349   0.129E-03    0.796E-01
RMM: 149    -0.232424221862E+04    0.16489E-04   -0.52901E-07  2273   0.121E-03    0.795E-01
RMM: 150    -0.232424222812E+04   -0.94997E-05   -0.17539E-07  1474   0.626E-04
   1 F= -.23451872E+04 E0= -.23451785E+04  d E =-.234519E+04  mag=     6.9059
       N       E                     dE             d eps       ncg     rms          rms(c)
DAV:   1    -0.232486818606E+04   -0.62597E+00   -0.19442E+01  4544   0.215E+00    0.112E+00
RMM:   2    -0.232498109089E+04   -0.11290E+00   -0.12566E+00  6260   0.445E-01    0.819E-01
RMM:   3    -0.232498935588E+04   -0.82650E-02   -0.12484E-01  5673   0.168E-01    0.900E-01
RMM:   4    -0.232498551359E+04    0.38423E-02   -0.15966E-02  5393   0.452E-02    0.490E-01
RMM:   5    -0.232498622224E+04   -0.70864E-03   -0.87009E-03  5018   0.380E-02    0.780E-01
RMM:   6    -0.232498658941E+04   -0.36717E-03   -0.11933E-03  3949   0.186E-02    0.848E-01
RMM:   7    -0.232498481139E+04    0.17780E-02   -0.24071E-03  4345   0.191E-02    0.492E-01
RMM:   8    -0.232498340262E+04    0.14088E-02   -0.33598E-03  4448   0.233E-02    0.267E-01
RMM:   9    -0.232498303830E+04    0.36433E-03   -0.71131E-04  3845   0.139E-02    0.178E-01
RMM:  10    -0.232498280996E+04    0.22834E-03   -0.49458E-04  3870   0.106E-02    0.120E-01
RMM:  11    -0.232498269915E+04    0.11081E-03   -0.31308E-04  3474   0.946E-03    0.113E-01
RMM:  12    -0.232498256537E+04    0.13379E-03   -0.22722E-04  3432   0.771E-03    0.104E-01
RMM:  13    -0.232498237906E+04    0.18630E-03   -0.25932E-04  3305   0.807E-03    0.113E-01
RMM:  14    -0.232498249603E+04   -0.11697E-03   -0.46570E-05  2913   0.499E-03    0.104E-01
RMM:  15    -0.232498262052E+04   -0.12448E-03   -0.14970E-04  2965   0.513E-03    0.929E-02
RMM:  16    -0.232498297986E+04   -0.35934E-03   -0.80705E-04  3810   0.109E-02    0.128E-01
RMM:  17    -0.232498299051E+04   -0.10646E-04   -0.53858E-05  2827   0.535E-03    0.129E-01
RMM:  18    -0.232498299804E+04   -0.75291E-05   -0.11840E-05  2622   0.207E-03
   2 F= -.23459287E+04 E0= -.23459213E+04  d E =-.741454E+00  mag=     6.7854
       N       E                     dE             d eps       ncg     rms          rms(c)
DAV:   1    -0.232522087521E+04   -0.23788E+00   -0.41423E+01  4480   0.320E+00    0.158E+00
RMM:   2    -0.232546653456E+04   -0.24566E+00   -0.27151E+00  6292   0.635E-01    0.101E+00
RMM:   3    -0.232548291516E+04   -0.16381E-01   -0.28201E-01  5508   0.249E-01    0.777E-01
RMM:   4    -0.232548282381E+04    0.91353E-04   -0.39050E-02  5603   0.716E-02    0.728E-01
RMM:   5    -0.232547885872E+04    0.39651E-02   -0.15881E-02  5135   0.477E-02    0.393E-01
RMM:   6    -0.232547779069E+04    0.10680E-02   -0.32277E-03  5070   0.279E-02    0.156E-01
RMM:   7    -0.232547797969E+04   -0.18899E-03   -0.10276E-03  4098   0.148E-02    0.180E-01
RMM:   8    -0.232547772790E+04    0.25179E-03   -0.37853E-04  3147   0.887E-03    0.581E-02
RMM:   9    -0.232547776779E+04   -0.39891E-04   -0.14392E-04  3356   0.667E-03    0.318E-02
RMM:  10    -0.232547782681E+04   -0.59022E-04   -0.49745E-05  3084   0.577E-03    0.203E-02
RMM:  11    -0.232547788561E+04   -0.58801E-04   -0.23536E-05  2947   0.476E-03    0.135E-02
RMM:  12    -0.232547794864E+04   -0.63029E-04   -0.20501E-05  2940   0.446E-03    0.942E-03
RMM:  13    -0.232547800470E+04   -0.56057E-04   -0.16207E-05  2913   0.427E-03    0.504E-03
RMM:  14    -0.232547803478E+04   -0.30083E-04   -0.82290E-06  2827   0.359E-03    0.277E-03
RMM:  15    -0.232547805037E+04   -0.15593E-04   -0.51360E-06  2642   0.272E-03    0.133E-03
RMM:  16    -0.232547805443E+04   -0.40588E-05   -0.24557E-06  2499   0.211E-03
   3 F= -.23464251E+04 E0= -.23464249E+04  d E =-.123784E+01  mag=     6.9962
       N       E                     dE             d eps       ncg     rms          rms(c)
DAV:   1    -0.232590011125E+04   -0.42206E+00   -0.89414E+00  4512   0.144E+00    0.823E-01
RMM:   2    -0.232595159091E+04   -0.51480E-01   -0.61177E-01  6310   0.311E-01    0.536E-01
RMM:   3    -0.232595613982E+04   -0.45489E-02   -0.65208E-02  5460   0.122E-01    0.473E-01
RMM:   4    -0.232595501311E+04    0.11267E-02   -0.90326E-03  5172   0.353E-02    0.316E-01
RMM:   5    -0.232595425202E+04    0.76110E-03   -0.31504E-03  4994   0.241E-02    0.120E-01
RMM:   6    -0.232595421652E+04    0.35499E-04   -0.58628E-04  3695   0.113E-02    0.874E-02
RMM:   7    -0.232595418734E+04    0.29181E-04   -0.21270E-04  2933   0.733E-03    0.652E-02
RMM:   8    -0.232595415069E+04    0.36645E-04   -0.53769E-05  2925   0.418E-03    0.170E-02
RMM:   9    -0.232595414832E+04    0.23728E-05   -0.19341E-05  2910   0.285E-03
   4 F= -.23469015E+04 E0= -.23469015E+04  d E =-.476446E+00  mag=     6.9989
       N       E                     dE             d eps       ncg     rms          rms(c)
DAV:   1    -0.232617229566E+04   -0.21814E+00   -0.45154E+01  4480   0.331E+00    0.183E+00
RMM:   2    -0.232644751944E+04   -0.27522E+00   -0.32185E+00  6316   0.754E-01    0.131E+00
RMM:   3    -0.232647251585E+04   -0.24996E-01   -0.36159E-01  5716   0.285E-01    0.118E+00
RMM:   4    -0.232646381885E+04    0.86970E-02   -0.44867E-02  5684   0.807E-02    0.638E-01
RMM:   5    -0.232646079629E+04    0.30226E-02   -0.15098E-02  5541   0.546E-02    0.320E-01
RMM:   6    -0.232646067337E+04    0.12292E-03   -0.42207E-03  5140   0.273E-02    0.250E-01
RMM:   7    -0.232646026171E+04    0.41165E-03   -0.13035E-03  3810   0.165E-02    0.133E-01
RMM:   8    -0.232646009761E+04    0.16410E-03   -0.31699E-04  3284   0.806E-03    0.368E-02
RMM:   9    -0.232646008892E+04    0.86942E-05   -0.11004E-04  3054   0.580E-03    0.193E-02
RMM:  10    -0.232646008669E+04    0.22300E-05   -0.20328E-05  2944   0.427E-03
   5 F= -.23474092E+04 E0= -.23474092E+04  d E =-.984125E+00  mag=     6.9998
       N       E                     dE             d eps       ncg     rms          rms(c)
DAV:   1    -0.232646100510E+04   -0.91618E-03   -0.50532E-01  4848   0.380E-01    0.185E-01
RMM:   2    -0.232646397123E+04   -0.29661E-02   -0.34624E-02  6362   0.763E-02    0.118E-01
RMM:   3    -0.232646424631E+04   -0.27509E-03   -0.35484E-03  3714   0.286E-02    0.109E-01
RMM:   4    -0.232646419205E+04    0.54260E-04   -0.45831E-04  3141   0.900E-03    0.740E-02
RMM:   5    -0.232646414213E+04    0.49925E-04   -0.15129E-04  3122   0.634E-03    0.233E-02
RMM:   6    -0.232646413931E+04    0.28170E-05   -0.25585E-05  2902   0.415E-03
   6 F= -.23474135E+04 E0= -.23474135E+04  d E =-.988477E+00  mag=     6.9999
       N       E                     dE             d eps       ncg     rms          rms(c)
DAV:   1    -0.232662324204E+04   -0.15910E+00   -0.41785E+00  4536   0.122E+00    0.644E-01
RMM:   2    -0.232667311719E+04   -0.49875E-01   -0.54418E-01  6364   0.299E-01    0.515E-01
RMM:   3    -0.232667797768E+04   -0.48605E-02   -0.62286E-02  5781   0.117E-01    0.433E-01
RMM:   4    -0.232667688242E+04    0.10953E-02   -0.63359E-03  4930   0.275E-02    0.174E-01
RMM:   5    -0.232667656200E+04    0.32042E-03   -0.11857E-03  4553   0.163E-02    0.960E-02
RMM:   6    -0.232667651515E+04    0.46856E-04   -0.55146E-04  4284   0.115E-02    0.526E-02
RMM:   7    -0.232667651044E+04    0.47035E-05   -0.10046E-04  2947   0.726E-03    0.445E-02
RMM:   8    -0.232667649225E+04    0.18196E-04   -0.31818E-05  2911   0.385E-03    0.156E-02
RMM:   9    -0.232667648923E+04    0.30150E-05   -0.12091E-05  2880   0.259E-03
   7 F= -.23476244E+04 E0= -.23476244E+04  d E =-.210848E+00  mag=     7.0000
       N       E                     dE             d eps       ncg     rms          rms(c)
DAV:   1    -0.232655087224E+04    0.12562E+00   -0.37489E+01  4496   0.371E+00    0.193E+00
RMM:   2    -0.232703108892E+04   -0.48022E+00   -0.50411E+00  6380   0.908E-01    0.208E+00
RMM:   3    -0.232704921743E+04   -0.18129E-01   -0.58494E-01  6016   0.359E-01    0.128E+00
RMM:   4    -0.232704103579E+04    0.81816E-02   -0.57571E-02  5865   0.811E-02    0.535E-01
RMM:   5    -0.232703899481E+04    0.20410E-02   -0.11811E-02  5333   0.473E-02    0.467E-01
RMM:   6    -0.232703834193E+04    0.65288E-03   -0.77617E-03  5578   0.377E-02    0.377E-01
RMM:   7    -0.232703735963E+04    0.98230E-03   -0.16575E-03  4872   0.196E-02    0.110E-01
RMM:   8    -0.232703725605E+04    0.10358E-03   -0.37282E-04  3538   0.105E-02    0.443E-02
RMM:   9    -0.232703723303E+04    0.23023E-04   -0.93516E-05  3045   0.663E-03    0.159E-02
RMM:  10    -0.232703723208E+04    0.94867E-06   -0.28428E-05  2958   0.446E-03
   8 F= -.23479814E+04 E0= -.23479814E+04  d E =-.567825E+00  mag=     7.0000
       N       E                     dE             d eps       ncg     rms          rms(c)
DAV:   1    -0.232701981857E+04    0.17414E-01   -0.23832E+00  4872   0.916E-01    0.460E-01
RMM:   2    -0.232704709269E+04   -0.27274E-01   -0.29404E-01  6343   0.211E-01    0.384E-01
RMM:   3    -0.232704988157E+04   -0.27889E-02   -0.34716E-02  5581   0.894E-02    0.331E-01
RMM:   4    -0.232704929787E+04    0.58369E-03   -0.36041E-03  4218   0.206E-02    0.140E-01
RMM:   5    -0.232704909798E+04    0.19989E-03   -0.76054E-04  4126   0.129E-02    0.915E-02
RMM:   6    -0.232704911522E+04   -0.17243E-04   -0.44932E-04  3740   0.108E-02    0.103E-01
RMM:   7    -0.232704903849E+04    0.76736E-04   -0.12860E-04  2980   0.697E-03    0.336E-02
RMM:   8    -0.232704902754E+04    0.10953E-04   -0.23860E-05  2925   0.376E-03    0.103E-02
RMM:   9    -0.232704902605E+04    0.14844E-05   -0.83015E-06  2845   0.259E-03
   9 F= -.23479924E+04 E0= -.23479924E+04  d E =-.578832E+00  mag=     7.0000
       N       E                     dE             d eps       ncg     rms          rms(c)
DAV:   1    -0.232715766424E+04   -0.10864E+00   -0.68100E+00  4576   0.183E+00    0.982E-01
RMM:   2    -0.232726756858E+04   -0.10990E+00   -0.11899E+00  6110   0.441E-01    0.695E-01
RMM:   3    -0.232727672794E+04   -0.91594E-02   -0.13150E-01  5636   0.193E-01    0.523E-01
RMM:   4    -0.232727577671E+04    0.95123E-03   -0.13886E-02  5528   0.417E-02    0.284E-01
RMM:   5    -0.232727511164E+04    0.66507E-03   -0.30229E-03  5208   0.276E-02    0.227E-01
RMM:   6    -0.232727489497E+04    0.21667E-03   -0.17130E-03  5181   0.200E-02    0.197E-01
RMM:   7    -0.232727468993E+04    0.20504E-03   -0.55443E-04  4112   0.125E-02    0.109E-01
RMM:   8    -0.232727457713E+04    0.11280E-03   -0.14969E-04  3167   0.738E-03    0.235E-02
RMM:   9    -0.232727456457E+04    0.12561E-04   -0.33037E-05  2949   0.464E-03    0.118E-02
RMM:  10    -0.232727455773E+04    0.68444E-05   -0.15980E-05  2911   0.393E-03
  10 F= -.23482168E+04 E0= -.23482168E+04  d E =-.224426E+00  mag=     7.0000
       N       E                     dE             d eps       ncg     rms          rms(c)
DAV:   1    -0.232699195796E+04    0.28261E+00   -0.27310E+01  4592   0.372E+00    0.198E+00
RMM:   2    -0.232745320876E+04   -0.46125E+00   -0.49608E+00  6193   0.932E-01    0.155E+00
RMM:   3    -0.232747846753E+04   -0.25259E-01   -0.52708E-01  5806   0.370E-01    0.989E-01
RMM:   4    -0.232747503276E+04    0.34348E-02   -0.55351E-02  5656   0.832E-02    0.530E-01
RMM:   5    -0.232747251914E+04    0.25136E-02   -0.12668E-02  5356   0.556E-02    0.428E-01
RMM:   6    -0.232747201344E+04    0.50570E-03   -0.68264E-03  5690   0.386E-02    0.399E-01
RMM:   7    -0.232747099337E+04    0.10201E-02   -0.19350E-03  5070   0.218E-02    0.183E-01
RMM:   8    -0.232747068111E+04    0.31226E-03   -0.60773E-04  4289   0.130E-02    0.573E-02
RMM:   9    -0.232747061613E+04    0.64979E-04   -0.12211E-04  3419   0.724E-03    0.239E-02
RMM:  10    -0.232747058858E+04    0.27547E-04   -0.56688E-05  3240   0.616E-03    0.150E-02
RMM:  11    -0.232747057818E+04    0.10400E-04   -0.28669E-05  2995   0.539E-03    0.101E-02
RMM:  12    -0.232747057534E+04    0.28405E-05   -0.13202E-05  2888   0.448E-03
  11 F= -.23484113E+04 E0= -.23484113E+04  d E =-.418888E+00  mag=     7.0000
       N       E                     dE             d eps       ncg     rms          rms(c)
DAV:   1    -0.232743532254E+04    0.35256E-01   -0.10518E+01  4600   0.285E+00    0.127E+00
RMM:   2    -0.232758017907E+04   -0.14486E+00   -0.15937E+00  5925   0.621E-01    0.704E-01
RMM:   3    -0.232759190230E+04   -0.11723E-01   -0.18287E-01  5504   0.269E-01    0.466E-01
RMM:   4    -0.232759101573E+04    0.88657E-03   -0.18253E-02  5280   0.608E-02    0.330E-01
RMM:   5    -0.232759010798E+04    0.90775E-03   -0.49670E-03  5336   0.435E-02    0.289E-01
RMM:   6    -0.232758919725E+04    0.91073E-03   -0.20870E-03  5236   0.266E-02    0.133E-01
RMM:   7    -0.232758910288E+04    0.94375E-04   -0.59819E-04  4817   0.191E-02    0.128E-01
RMM:   8    -0.232758891912E+04    0.18376E-03   -0.24523E-04  3945   0.884E-03    0.292E-02
RMM:   9    -0.232758886789E+04    0.51224E-04   -0.70218E-05  3357   0.658E-03    0.170E-02
RMM:  10    -0.232758884228E+04    0.25613E-04   -0.36015E-05  3283   0.572E-03    0.864E-03
RMM:  11    -0.232758883365E+04    0.86325E-05   -0.17935E-05  2932   0.520E-03
  12 F= -.23485296E+04 E0= -.23485296E+04  d E =-.118314E+00  mag=     7.0000
       N       E                     dE             d eps       ncg     rms          rms(c)
DAV:   1    -0.232758053301E+04    0.83093E-02   -0.10947E+00  4768   0.926E-01    0.405E-01
RMM:   2    -0.232759535695E+04   -0.14824E-01   -0.16385E-01  5937   0.199E-01    0.208E-01
RMM:   3    -0.232759664615E+04   -0.12892E-02   -0.18914E-02  5347   0.902E-02    0.132E-01
RMM:   4    -0.232759661061E+04    0.35541E-04   -0.19708E-03  4858   0.209E-02    0.122E-01
RMM:   5    -0.232759647995E+04    0.13066E-03   -0.52186E-04  4560   0.149E-02    0.860E-02
RMM:   6    -0.232759639639E+04    0.83558E-04   -0.20755E-04  4320   0.961E-03    0.302E-02
RMM:   7    -0.232759638992E+04    0.64680E-05   -0.44868E-05  2982   0.708E-03
  13 F= -.23485372E+04 E0= -.23485372E+04  d E =-.125892E+00  mag=     7.0000
       N       E                     dE             d eps       ncg     rms          rms(c)
DAV:   1    -0.232753876334E+04    0.57633E-01   -0.72340E+00  4512   0.179E+00    0.927E-01
RMM:   2    -0.232768506147E+04   -0.14630E+00   -0.15370E+00  6322   0.446E-01    0.654E-01
RMM:   3    -0.232769925160E+04   -0.14190E-01   -0.17169E-01  5745   0.195E-01    0.399E-01
RMM:   4    -0.232769948768E+04   -0.23608E-03   -0.16319E-02  5251   0.377E-02    0.256E-01
RMM:   5    -0.232769888101E+04    0.60668E-03   -0.19694E-03  4895   0.209E-02    0.179E-01
RMM:   6    -0.232769871949E+04    0.16152E-03   -0.12900E-03  5021   0.162E-02    0.141E-01
RMM:   7    -0.232769861321E+04    0.10628E-03   -0.40746E-04  3555   0.109E-02    0.793E-02
RMM:   8    -0.232769856474E+04    0.48473E-04   -0.11805E-04  2995   0.632E-03    0.322E-02
RMM:   9    -0.232769855414E+04    0.10598E-04   -0.25279E-05  2930   0.394E-03    0.110E-02
RMM:  10    -0.232769855283E+04    0.13080E-05   -0.11017E-05  2877   0.260E-03
  14 F= -.23486402E+04 E0= -.23486402E+04  d E =-.103074E+00  mag=     7.0000
       N       E                     dE             d eps       ncg     rms          rms(c)
DAV:   1    -0.232731623764E+04    0.38232E+00   -0.19804E+01  4480   0.300E+00    0.155E+00
RMM:   2    -0.232772592566E+04   -0.40969E+00   -0.42990E+00  6359   0.762E-01    0.115E+00
RMM:   3    -0.232776278324E+04   -0.36858E-01   -0.48870E-01  5820   0.324E-01    0.651E-01
RMM:   4    -0.232776328772E+04   -0.50448E-03   -0.42678E-02  5564   0.606E-02    0.408E-01
RMM:   5    -0.232776138480E+04    0.19029E-02   -0.50044E-03  5160   0.337E-02    0.241E-01
RMM:   6    -0.232776130439E+04    0.80405E-04   -0.29201E-03  5364   0.255E-02    0.233E-01
RMM:   7    -0.232776092492E+04    0.37947E-03   -0.10663E-03  4672   0.162E-02    0.997E-02
RMM:   8    -0.232776086616E+04    0.58765E-04   -0.25096E-04  3248   0.815E-03    0.575E-02
RMM:   9    -0.232776083051E+04    0.35643E-04   -0.70672E-05  2997   0.586E-03    0.198E-02
RMM:  10    -0.232776082622E+04    0.42930E-05   -0.30892E-05  2960   0.371E-03
  15 F= -.23487039E+04 E0= -.23487039E+04  d E =-.166773E+00  mag=     7.0000
       N       E                     dE             d eps       ncg     rms          rms(c)
DAV:   1    -0.232757301979E+04    0.18781E+00   -0.11860E+01  4480   0.224E+00    0.117E+00
RMM:   2    -0.232783307878E+04   -0.26006E+00   -0.27389E+00  6429   0.579E-01    0.859E-01
RMM:   3    -0.232785712213E+04   -0.24043E-01   -0.29989E-01  5808   0.246E-01    0.510E-01
RMM:   4    -0.232785724051E+04   -0.11838E-03   -0.27066E-02  5433   0.470E-02    0.346E-01
RMM:   5    -0.232785634609E+04    0.89442E-03   -0.31644E-03  5166   0.244E-02    0.285E-01
RMM:   6    -0.232785566291E+04    0.68318E-03   -0.25587E-03  5069   0.220E-02    0.179E-01
RMM:   7    -0.232785546878E+04    0.19414E-03   -0.80222E-04  4622   0.142E-02    0.968E-02
RMM:   8    -0.232785539829E+04    0.70486E-04   -0.22640E-04  3253   0.820E-03    0.428E-02
RMM:   9    -0.232785537204E+04    0.26251E-04   -0.52322E-05  2958   0.550E-03    0.141E-02
RMM:  10    -0.232785536789E+04    0.41477E-05   -0.24751E-05  2953   0.356E-03
  16 F= -.23487981E+04 E0= -.23487981E+04  d E =-.941171E-01  mag=     7.0000
       N       E                     dE             d eps       ncg     rms          rms(c)
DAV:   1    -0.232734399538E+04    0.51138E+00   -0.22818E+01  4480   0.310E+00    0.164E+00
RMM:   2    -0.232786580587E+04   -0.52181E+00   -0.54895E+00  6456   0.813E-01    0.131E+00
RMM:   3    -0.232790748749E+04   -0.41682E-01   -0.58299E-01  5906   0.342E-01    0.761E-01
RMM:   4    -0.232790719131E+04    0.29618E-03   -0.53625E-02  5686   0.668E-02    0.509E-01
RMM:   5    -0.232790548669E+04    0.17046E-02   -0.61503E-03  5427   0.321E-02    0.429E-01
RMM:   6    -0.232790377573E+04    0.17110E-02   -0.51837E-03  5363   0.307E-02    0.252E-01
RMM:   7    -0.232790335579E+04    0.41994E-03   -0.17551E-03  5155   0.203E-02    0.123E-01
RMM:   8    -0.232790325534E+04    0.10046E-03   -0.43844E-04  3906   0.111E-02    0.648E-02
RMM:   9    -0.232790319699E+04    0.58344E-04   -0.11186E-04  3056   0.712E-03    0.199E-02
RMM:  10    -0.232790318828E+04    0.87142E-05   -0.45814E-05  2982   0.455E-03
  17 F= -.23488450E+04 E0= -.23488450E+04  d E =-.141018E+00  mag=     7.0000
       N       E                     dE             d eps       ncg     rms          rms(c)
DAV:   1    -0.232773346497E+04    0.16973E+00   -0.12439E+01  4480   0.231E+00    0.114E+00
RMM:   2    -0.232797328659E+04   -0.23982E+00   -0.25454E+00  6351   0.577E-01    0.852E-01
RMM:   3    -0.232799634271E+04   -0.23056E-01   -0.28272E-01  5826   0.242E-01    0.533E-01
RMM:   4    -0.232799639536E+04   -0.52653E-04   -0.26752E-02  5632   0.475E-02    0.375E-01
RMM:   5    -0.232799546510E+04    0.93026E-03   -0.33100E-03  5277   0.243E-02    0.309E-01
RMM:   6    -0.232799445267E+04    0.10124E-02   -0.27927E-03  5259   0.244E-02    0.147E-01
RMM:   7    -0.232799436631E+04    0.86363E-04   -0.82757E-04  4778   0.154E-02    0.109E-01
RMM:   8    -0.232799427806E+04    0.88253E-04   -0.28076E-04  3501   0.893E-03    0.450E-02
RMM:   9    -0.232799425356E+04    0.24493E-04   -0.54814E-05  2958   0.589E-03    0.147E-02
RMM:  10    -0.232799425193E+04    0.16309E-05   -0.22979E-05  2919   0.376E-03
  18 F= -.23489345E+04 E0= -.23489345E+04  d E =-.895157E-01  mag=     7.0000
       N       E                     dE             d eps       ncg     rms          rms(c)
DAV:   1    -0.232724961815E+04    0.74464E+00   -0.37956E+01  4480   0.402E+00    0.204E+00
RMM:   2    -0.232801727229E+04   -0.76765E+00   -0.80909E+00  6408   0.104E+00    0.178E+00
RMM:   3    -0.232806991904E+04   -0.52647E-01   -0.83338E-01  5936   0.413E-01    0.983E-01
RMM:   4    -0.232807005577E+04   -0.13673E-03   -0.84775E-02  5919   0.853E-02    0.685E-01
RMM:   5    -0.232806738559E+04    0.26702E-02   -0.10600E-02  5659   0.422E-02    0.575E-01
RMM:   6    -0.232806387579E+04    0.35098E-02   -0.87776E-03  5414   0.422E-02    0.268E-01
RMM:   7    -0.232806345893E+04    0.41686E-03   -0.25677E-03  5294   0.274E-02    0.147E-01
RMM:   8    -0.232806333517E+04    0.12376E-03   -0.70542E-04  4715   0.142E-02    0.875E-02
RMM:   9    -0.232806325042E+04    0.84749E-04   -0.18483E-04  3349   0.896E-03    0.254E-02
RMM:  10    -0.232806324565E+04    0.47733E-05   -0.57639E-05  3026   0.547E-03
  19 F= -.23490003E+04 E0= -.23490003E+04  d E =-.155342E+00  mag=     7.0000
       N       E                     dE             d eps       ncg     rms          rms(c)
DAV:   1    -0.232784822606E+04    0.21502E+00   -0.18416E+01  4464   0.294E+00    0.135E+00
RMM:   2    -0.232813093962E+04   -0.28271E+00   -0.30164E+00  6211   0.699E-01    0.102E+00
RMM:   3    -0.232815624482E+04   -0.25305E-01   -0.34073E-01  5794   0.288E-01    0.600E-01
RMM:   4    -0.232815629598E+04   -0.51165E-04   -0.33700E-02  5638   0.583E-02    0.398E-01
RMM:   5    -0.232815534917E+04    0.94681E-03   -0.55751E-03  5428   0.368E-02    0.378E-01
RMM:   6    -0.232815415539E+04    0.11938E-02   -0.34595E-03  5416   0.277E-02    0.194E-01
RMM:   7    -0.232815398683E+04    0.16856E-03   -0.99732E-04  4893   0.184E-02    0.130E-01
RMM:   8    -0.232815384443E+04    0.14240E-03   -0.31092E-04  3776   0.101E-02    0.427E-02
RMM:   9    -0.232815381419E+04    0.30237E-04   -0.63665E-05  3053   0.624E-03    0.153E-02
RMM:  10    -0.232815380745E+04    0.67371E-05   -0.31382E-05  2973   0.469E-03
  20 F= -.23490894E+04 E0= -.23490894E+04  d E =-.890714E-01  mag=     7.0000
       N       E                     dE             d eps       ncg     rms          rms(c)
DAV:   1    -0.232808041082E+04    0.73403E-01   -0.54849E+00  4544   0.159E+00    0.719E-01
RMM:   2    -0.232816038227E+04   -0.79971E-01   -0.85975E-01  6185   0.365E-01    0.464E-01
RMM:   3    -0.232816849443E+04   -0.81122E-02   -0.94881E-02  5656   0.153E-01    0.285E-01
RMM:   4    -0.232816864451E+04   -0.15008E-03   -0.97424E-03  5167   0.318E-02    0.205E-01
RMM:   5    -0.232816839194E+04    0.25256E-03   -0.16880E-03  5063   0.213E-02    0.193E-01
RMM:   6    -0.232816805144E+04    0.34050E-03   -0.86293E-04  4847   0.148E-02    0.881E-02
RMM:   7    -0.232816803425E+04    0.17198E-04   -0.23100E-04  3508   0.989E-03    0.756E-02
RMM:   8    -0.232816798157E+04    0.52674E-04   -0.78505E-05  2961   0.597E-03    0.168E-02
RMM:   9    -0.232816797351E+04    0.80565E-05   -0.19879E-05  2928   0.379E-03
  21 F= -.23491027E+04 E0= -.23491027E+04  d E =-.102392E+00  mag=     7.0000
       N       E                     dE             d eps       ncg     rms          rms(c)
DAV:   1    -0.232799000669E+04    0.17797E+00   -0.13843E+01  4480   0.231E+00    0.119E+00
RMM:   2    -0.232822575847E+04   -0.23575E+00   -0.24985E+00  6423   0.592E-01    0.928E-01
RMM:   3    -0.232824761569E+04   -0.21857E-01   -0.29903E-01  5946   0.246E-01    0.520E-01
RMM:   4    -0.232824805332E+04   -0.43763E-03   -0.27883E-02  5271   0.487E-02    0.327E-01
RMM:   5    -0.232824669175E+04    0.13616E-02   -0.34873E-03  5082   0.275E-02    0.182E-01
RMM:   6    -0.232824672264E+04   -0.30889E-04   -0.19240E-03  4977   0.211E-02    0.191E-01
RMM:   7    -0.232824645094E+04    0.27169E-03   -0.67287E-04  3979   0.130E-02    0.776E-02
RMM:   8    -0.232824641318E+04    0.37764E-04   -0.15866E-04  3069   0.671E-03    0.454E-02
RMM:   9    -0.232824638553E+04    0.27647E-04   -0.44809E-05  2919   0.455E-03    0.142E-02
RMM:  10    -0.232824638189E+04    0.36417E-05   -0.23883E-05  2951   0.324E-03
  22 F= -.23491794E+04 E0= -.23491794E+04  d E =-.766911E-01  mag=     7.0000
       N       E                     dE             d eps       ncg     rms          rms(c)
DAV:   1    -0.232808506006E+04    0.16133E+00   -0.98932E+00  4464   0.196E+00    0.101E+00
RMM:   2    -0.232825423416E+04   -0.16917E+00   -0.18025E+00  6437   0.504E-01    0.749E-01
RMM:   3    -0.232827054265E+04   -0.16308E-01   -0.21535E-01  5921   0.208E-01    0.430E-01
RMM:   4    -0.232827096539E+04   -0.42274E-03   -0.20310E-02  5155   0.413E-02    0.276E-01
RMM:   5    -0.232827001463E+04    0.95076E-03   -0.26574E-03  4988   0.237E-02    0.156E-01
RMM:   6    -0.232826998261E+04    0.32026E-04   -0.13279E-03  4864   0.178E-02    0.149E-01
RMM:   7    -0.232826979824E+04    0.18437E-03   -0.45592E-04  3786   0.114E-02    0.496E-02
RMM:   8    -0.232826978333E+04    0.14906E-04   -0.83345E-05  2989   0.558E-03    0.385E-02
RMM:   9    -0.232826976400E+04    0.19339E-04   -0.33887E-05  2899   0.396E-03    0.126E-02
RMM:  10    -0.232826976029E+04    0.37038E-05   -0.17493E-05  2944   0.304E-03
  23 F= -.23492013E+04 E0= -.23492013E+04  d E =-.985947E-01  mag=     7.0000
       N       E                     dE             d eps       ncg     rms          rms(c)
DAV:   1    -0.232806469007E+04    0.20507E+00   -0.13542E+01  4480   0.254E+00    0.130E+00
RMM:   2    -0.232833359236E+04   -0.26890E+00   -0.27896E+00  6389   0.657E-01    0.110E+00
RMM:   3    -0.232835423840E+04   -0.20646E-01   -0.34166E-01  5957   0.273E-01    0.630E-01
RMM:   4    -0.232835429345E+04   -0.55055E-04   -0.31512E-02  5701   0.556E-02    0.336E-01
RMM:   5    -0.232835292878E+04    0.13647E-02   -0.33544E-03  5174   0.281E-02    0.193E-01
RMM:   6    -0.232835296550E+04   -0.36720E-04   -0.19847E-03  5202   0.231E-02    0.188E-01
RMM:   7    -0.232835270671E+04    0.25879E-03   -0.62301E-04  4127   0.133E-02    0.793E-02
RMM:   8    -0.232835266053E+04    0.46178E-04   -0.13825E-04  3080   0.667E-03    0.388E-02
RMM:   9    -0.232835263812E+04    0.22415E-04   -0.40260E-05  2903   0.462E-03    0.139E-02
RMM:  10    -0.232835263463E+04    0.34933E-05   -0.19338E-05  2924   0.319E-03
  24 F= -.23492812E+04 E0= -.23492812E+04  d E =-.798687E-01  mag=     7.0000
       N       E                     dE             d eps       ncg     rms          rms(c)
DAV:   1    -0.232811511616E+04    0.23752E+00   -0.12539E+01  4496   0.247E+00    0.125E+00
RMM:   2    -0.232836361639E+04   -0.24850E+00   -0.25802E+00  6401   0.632E-01    0.103E+00
RMM:   3    -0.232838343656E+04   -0.19820E-01   -0.31591E-01  5955   0.261E-01    0.611E-01
RMM:   4    -0.232838341859E+04    0.17965E-04   -0.29043E-02  5643   0.537E-02    0.328E-01
RMM:   5    -0.232838225899E+04    0.11596E-02   -0.32414E-03  5216   0.272E-02    0.214E-01
RMM:   6    -0.232838228055E+04   -0.21560E-04   -0.23044E-03  5257   0.228E-02    0.210E-01
RMM:   7    -0.232838193751E+04    0.34305E-03   -0.67430E-04  4249   0.136E-02    0.804E-02
RMM:   8    -0.232838189026E+04    0.47242E-04   -0.15162E-04  3089   0.728E-03    0.377E-02
RMM:   9    -0.232838186861E+04    0.21654E-04   -0.39910E-05  2903   0.484E-03    0.133E-02
RMM:  10    -0.232838186518E+04    0.34339E-05   -0.18794E-05  2919   0.326E-03
  25 F= -.23493076E+04 E0= -.23493076E+04  d E =-.106304E+00  mag=     7.0000
       N       E                     dE             d eps       ncg     rms          rms(c)
DAV:   1    -0.232807000208E+04    0.31187E+00   -0.19830E+01  4480   0.371E+00    0.171E+00
RMM:   2    -0.232841881344E+04   -0.34881E+00   -0.36335E+00  6124   0.876E-01    0.130E+00
RMM:   3    -0.232844347963E+04   -0.24666E-01   -0.42842E-01  5742   0.365E-01    0.954E-01
RMM:   4    -0.232843907418E+04    0.44054E-02   -0.39987E-02  5948   0.804E-02    0.430E-01
RMM:   5    -0.232843716075E+04    0.19134E-02   -0.72532E-03  5366   0.465E-02    0.331E-01
RMM:   6    -0.232843672206E+04    0.43870E-03   -0.52025E-03  5498   0.375E-02    0.273E-01
RMM:   7    -0.232843607509E+04    0.64697E-03   -0.11906E-03  5168   0.228E-02    0.105E-01
RMM:   8    -0.232843593984E+04    0.13525E-03   -0.25759E-04  4102   0.100E-02    0.407E-02
RMM:   9    -0.232843588698E+04    0.52859E-04   -0.96974E-05  3288   0.758E-03    0.183E-02
RMM:  10    -0.232843586833E+04    0.18651E-04   -0.35758E-05  3106   0.539E-03    0.945E-03
RMM:  11    -0.232843586007E+04    0.82629E-05   -0.15198E-05  2882   0.484E-03
  26 F= -.23493584E+04 E0= -.23493584E+04  d E =-.507870E-01  mag=     7.0000
       N       E                     dE             d eps       ncg     rms          rms(c)
DAV:   1    -0.232843389140E+04    0.19769E-02   -0.11621E-01  5136   0.282E-01    0.130E-01
RMM:   2    -0.232843581409E+04   -0.19227E-02   -0.20190E-02  6213   0.653E-02    0.749E-02
RMM:   3    -0.232843601857E+04   -0.20448E-03   -0.23756E-03  3718   0.295E-02    0.687E-02
RMM:   4    -0.232843599859E+04    0.19977E-04   -0.22772E-04  2991   0.699E-03    0.341E-02
RMM:   5    -0.232843598596E+04    0.12628E-04   -0.40114E-05  2954   0.457E-03    0.176E-02
RMM:   6    -0.232843598583E+04    0.13414E-06   -0.17537E-05  2921   0.431E-03
  27 F= -.23493587E+04 E0= -.23493587E+04  d E =-.511532E-01  mag=     7.0000
       N       E                     dE             d eps       ncg     rms          rms(c)
DAV:   1    -0.232824267188E+04    0.19331E+00   -0.14509E+01  4480   0.265E+00    0.131E+00
RMM:   2    -0.232847895670E+04   -0.23628E+00   -0.24443E+00  6403   0.640E-01    0.101E+00
RMM:   3    -0.232849797573E+04   -0.19019E-01   -0.27303E-01  5874   0.248E-01    0.759E-01
RMM:   4    -0.232849552868E+04    0.24471E-02   -0.26241E-02  5635   0.556E-02    0.357E-01
RMM:   5    -0.232849437080E+04    0.11579E-02   -0.43491E-03  5192   0.304E-02    0.239E-01
RMM:   6    -0.232849434030E+04    0.30504E-04   -0.29753E-03  5351   0.242E-02    0.232E-01
RMM:   7    -0.232849397405E+04    0.36624E-03   -0.83082E-04  4059   0.146E-02    0.921E-02
RMM:   8    -0.232849389390E+04    0.80157E-04   -0.18502E-04  3076   0.698E-03    0.345E-02
RMM:   9    -0.232849387745E+04    0.16448E-04   -0.53653E-05  2922   0.491E-03    0.150E-02
RMM:  10    -0.232849387438E+04    0.30689E-05   -0.17031E-05  2920   0.313E-03
  28 F= -.23494152E+04 E0= -.23494152E+04  d E =-.564832E-01  mag=     7.0000
       N       E                     dE             d eps       ncg     rms          rms(c)
DAV:   1    -0.232839287607E+04    0.10100E+00   -0.66490E+00  4496   0.178E+00    0.882E-01
RMM:   2    -0.232849879933E+04   -0.10592E+00   -0.10974E+00  6374   0.422E-01    0.668E-01
RMM:   3    -0.232850811480E+04   -0.93155E-02   -0.12403E-01  5800   0.169E-01    0.521E-01
RMM:   4    -0.232850695196E+04    0.11628E-02   -0.12124E-02  5312   0.377E-02    0.244E-01
RMM:   5    -0.232850643785E+04    0.51411E-03   -0.20145E-03  4798   0.209E-02    0.165E-01
RMM:   6    -0.232850641432E+04    0.23524E-04   -0.13711E-03  4977   0.170E-02    0.160E-01
RMM:   7    -0.232850624004E+04    0.17429E-03   -0.37711E-04  3312   0.106E-02    0.633E-02
RMM:   8    -0.232850620262E+04    0.37413E-04   -0.85576E-05  2968   0.548E-03    0.224E-02
RMM:   9    -0.232850619518E+04    0.74385E-05   -0.24241E-05  2906   0.362E-03
  29 F= -.23494267E+04 E0= -.23494267E+04  d E =-.679175E-01  mag=     7.0000
       N       E                     dE             d eps       ncg     rms          rms(c)
DAV:   1    -0.232827096417E+04    0.23524E+00   -0.15022E+01  4496   0.284E+00    0.143E+00
RMM:   2    -0.232854534155E+04   -0.27438E+00   -0.28336E+00  6324   0.696E-01    0.107E+00
RMM:   3    -0.232856789245E+04   -0.22551E-01   -0.31155E-01  5950   0.271E-01    0.812E-01
RMM:   4    -0.232856508045E+04    0.28120E-02   -0.29872E-02  5723   0.608E-02    0.372E-01
RMM:   5    -0.232856391323E+04    0.11672E-02   -0.46289E-03  5152   0.324E-02    0.269E-01
RMM:   6    -0.232856376260E+04    0.15063E-03   -0.32492E-03  5442   0.256E-02    0.256E-01
RMM:   7    -0.232856331291E+04    0.44969E-03   -0.10241E-03  4650   0.169E-02    0.107E-01
RMM:   8    -0.232856322251E+04    0.90403E-04   -0.26197E-04  3340   0.868E-03    0.369E-02
RMM:   9    -0.232856320674E+04    0.15774E-04   -0.50528E-05  2923   0.568E-03    0.161E-02
RMM:  10    -0.232856320332E+04    0.34151E-05   -0.21100E-05  2934   0.342E-03
  30 F= -.23494852E+04 E0= -.23494852E+04  d E =-.585017E-01  mag=     7.0000
       N       E                     dE             d eps       ncg     rms          rms(c)
DAV:   1    -0.232827752664E+04    0.28568E+00   -0.15661E+01  4496   0.291E+00    0.146E+00
RMM:   2    -0.232856289410E+04   -0.28537E+00   -0.29477E+00  6317   0.716E-01    0.108E+00
RMM:   3    -0.232858623416E+04   -0.23340E-01   -0.32265E-01  5928   0.279E-01    0.823E-01
RMM:   4    -0.232858339914E+04    0.28350E-02   -0.31036E-02  5739   0.624E-02    0.381E-01
RMM:   5    -0.232858221583E+04    0.11833E-02   -0.49362E-03  5155   0.337E-02    0.279E-01
RMM:   6    -0.232858200911E+04    0.20672E-03   -0.34599E-03  5472   0.267E-02    0.254E-01
RMM:   7    -0.232858156224E+04    0.44687E-03   -0.10360E-03  4699   0.173E-02    0.107E-01
RMM:   8    -0.232858147061E+04    0.91633E-04   -0.26327E-04  3358   0.890E-03    0.369E-02
RMM:   9    -0.232858145451E+04    0.16102E-04   -0.53230E-05  2937   0.573E-03    0.159E-02
RMM:  10    -0.232858145105E+04    0.34516E-05   -0.22023E-05  2937   0.357E-03
  31 F= -.23495050E+04 E0= -.23495050E+04  d E =-.783937E-01  mag=     7.0000
       N       E                     dE             d eps       ncg     rms          rms(c)
DAV:   1    -0.232842683705E+04    0.15462E+00   -0.96422E+00  4464   0.237E+00    0.117E+00
RMM:   2    -0.232860918578E+04   -0.18235E+00   -0.18837E+00  6268   0.579E-01    0.823E-01
RMM:   3    -0.232862497567E+04   -0.15790E-01   -0.20926E-01  5897   0.230E-01    0.642E-01
RMM:   4    -0.232862320181E+04    0.17739E-02   -0.19413E-02  5634   0.503E-02    0.309E-01
RMM:   5    -0.232862245885E+04    0.74296E-03   -0.30615E-03  5126   0.272E-02    0.239E-01
RMM:   6    -0.232862217170E+04    0.28715E-03   -0.22558E-03  5381   0.225E-02    0.187E-01
RMM:   7    -0.232862191732E+04    0.25438E-03   -0.62373E-04  4618   0.144E-02    0.859E-02
RMM:   8    -0.232862185648E+04    0.60841E-04   -0.16723E-04  3185   0.786E-03    0.279E-02
RMM:   9    -0.232862184489E+04    0.11592E-04   -0.32814E-05  2916   0.500E-03    0.116E-02
RMM:  10    -0.232862184152E+04    0.33665E-05   -0.14711E-05  2909   0.321E-03
  32 F= -.23495476E+04 E0= -.23495476E+04  d E =-.425768E-01  mag=     7.0000
       N       E                     dE             d eps       ncg     rms          rms(c)
DAV:   1    -0.232845208820E+04    0.16976E+00   -0.90138E+00  4464   0.230E+00    0.112E+00
RMM:   2    -0.232862178197E+04   -0.16969E+00   -0.17527E+00  6267   0.561E-01    0.776E-01
RMM:   3    -0.232863605867E+04   -0.14277E-01   -0.18973E-01  5911   0.217E-01    0.615E-01
RMM:   4    -0.232863439784E+04    0.16608E-02   -0.18019E-02  5601   0.482E-02    0.298E-01
RMM:   5    -0.232863369570E+04    0.70213E-03   -0.28327E-03  5126   0.263E-02    0.228E-01
RMM:   6    -0.232863341606E+04    0.27965E-03   -0.21085E-03  5345   0.220E-02    0.174E-01
RMM:   7    -0.232863318794E+04    0.22812E-03   -0.55697E-04  4516   0.139E-02    0.789E-02
RMM:   8    -0.232863313386E+04    0.54073E-04   -0.14674E-04  3193   0.757E-03    0.260E-02
RMM:   9    -0.232863312256E+04    0.11308E-04   -0.30190E-05  2915   0.490E-03    0.110E-02
RMM:  10    -0.232863311880E+04    0.37531E-05   -0.14092E-05  2909   0.328E-03
  33 F= -.23495611E+04 E0= -.23495611E+04  d E =-.560181E-01  mag=     7.0000
       N       E                     dE             d eps       ncg     rms          rms(c)
DAV:   1    -0.232857633847E+04    0.56784E-01   -0.45537E+00  4496   0.160E+00    0.749E-01
RMM:   2    -0.232865101107E+04   -0.74673E-01   -0.77436E-01  6273   0.371E-01    0.540E-01
RMM:   3    -0.232865774149E+04   -0.67304E-02   -0.87377E-02  5764   0.147E-01    0.450E-01
RMM:   4    -0.232865668065E+04    0.10608E-02   -0.79681E-03  5390   0.334E-02    0.210E-01
RMM:   5    -0.232865632605E+04    0.35459E-03   -0.14495E-03  4707   0.188E-02    0.151E-01
RMM:   6    -0.232865624074E+04    0.85313E-04   -0.10613E-03  4954   0.163E-02    0.124E-01
RMM:   7    -0.232865611533E+04    0.12541E-03   -0.25903E-04  3533   0.976E-03    0.483E-02
RMM:   8    -0.232865609646E+04    0.18874E-04   -0.52166E-05  2930   0.532E-03    0.147E-02
RMM:   9    -0.232865609289E+04    0.35643E-05   -0.13182E-05  2911   0.324E-03
  34 F= -.23495857E+04 E0= -.23495857E+04  d E =-.246658E-01  mag=     7.0000
       N       E                     dE             d eps       ncg     rms          rms(c)
DAV:   1    -0.232850590253E+04    0.15019E+00   -0.94239E+00  4480   0.230E+00    0.107E+00
RMM:   2    -0.232865634179E+04   -0.15044E+00   -0.15617E+00  6262   0.532E-01    0.779E-01
RMM:   3    -0.232867012378E+04   -0.13782E-01   -0.18509E-01  5791   0.217E-01    0.640E-01
RMM:   4    -0.232866805527E+04    0.20685E-02   -0.17017E-02  5664   0.487E-02    0.304E-01
RMM:   5    -0.232866733817E+04    0.71711E-03   -0.31844E-03  5098   0.265E-02    0.221E-01
RMM:   6    -0.232866711711E+04    0.22106E-03   -0.22111E-03  5382   0.226E-02    0.174E-01
RMM:   7    -0.232866687111E+04    0.24600E-03   -0.53934E-04  4266   0.130E-02    0.719E-02
RMM:   8    -0.232866682912E+04    0.41989E-04   -0.11860E-04  3008   0.681E-03    0.238E-02
RMM:   9    -0.232866682013E+04    0.89944E-05   -0.28535E-05  2919   0.440E-03
  35 F= -.23495989E+04 E0= -.23495989E+04  d E =-.378534E-01  mag=     7.0000
       N       E                     dE             d eps       ncg     rms          rms(c)
DAV:   1    -0.232859664424E+04    0.70185E-01   -0.70808E+00  4512   0.204E+00    0.875E-01
RMM:   2    -0.232868398352E+04   -0.87339E-01   -0.91604E-01  6132   0.439E-01    0.664E-01
RMM:   3    -0.232869106523E+04   -0.70817E-02   -0.10683E-01  5709   0.178E-01    0.552E-01
RMM:   4    -0.232868916083E+04    0.19044E-02   -0.10321E-02  5621   0.412E-02    0.238E-01
RMM:   5    -0.232868856581E+04    0.59502E-03   -0.24264E-03  5173   0.261E-02    0.140E-01
RMM:   6    -0.232868850696E+04    0.58852E-04   -0.11804E-03  5088   0.184E-02    0.120E-01
RMM:   7    -0.232868840558E+04    0.10138E-03   -0.28521E-04  3451   0.107E-02    0.539E-02
RMM:   8    -0.232868837885E+04    0.26722E-04   -0.58334E-05  2948   0.526E-03    0.175E-02
RMM:   9    -0.232868837388E+04    0.49751E-05   -0.19634E-05  2920   0.357E-03
  36 F= -.23496222E+04 E0= -.23496222E+04  d E =-.232333E-01  mag=     7.0000
       N       E                     dE             d eps       ncg     rms          rms(c)
DAV:   1    -0.232867209165E+04    0.16287E-01   -0.13927E+00  4624   0.904E-01    0.387E-01
RMM:   2    -0.232868915254E+04   -0.17061E-01   -0.17893E-01  6134   0.193E-01    0.293E-01
RMM:   3    -0.232869053682E+04   -0.13843E-02   -0.20431E-02  5552   0.788E-02    0.245E-01
RMM:   4    -0.232869016165E+04    0.37518E-03   -0.20606E-03  4615   0.187E-02    0.105E-01
RMM:   5    -0.232869003931E+04    0.12234E-03   -0.46327E-04  4282   0.123E-02    0.582E-02
RMM:   6    -0.232869002883E+04    0.10472E-04   -0.21197E-04  3696   0.946E-03    0.510E-02
RMM:   7    -0.232869001056E+04    0.18276E-04   -0.53710E-05  2915   0.614E-03    0.232E-02
RMM:   8    -0.232869000560E+04    0.49590E-05   -0.12216E-05  2891   0.328E-03
  37 F= -.23496245E+04 E0= -.23496245E+04  d E =-.256084E-01  mag=     7.0000
       N       E                     dE             d eps       ncg     rms          rms(c)
DAV:   1    -0.232867698339E+04    0.13027E-01   -0.20390E+00  4512   0.113E+00    0.459E-01
RMM:   2    -0.232870124319E+04   -0.24260E-01   -0.25268E-01  6143   0.250E-01    0.388E-01
RMM:   3    -0.232870274046E+04   -0.14973E-02   -0.27418E-02  5708   0.951E-02    0.271E-01
RMM:   4    -0.232870234456E+04    0.39590E-03   -0.28837E-03  5079   0.233E-02    0.128E-01
RMM:   5    -0.232870223051E+04    0.11406E-03   -0.77757E-04  4816   0.172E-02    0.109E-01
RMM:   6    -0.232870216499E+04    0.65511E-04   -0.38620E-04  4354   0.114E-02    0.754E-02
RMM:   7    -0.232870211654E+04    0.48458E-04   -0.90442E-05  3092   0.720E-03    0.245E-02
RMM:   8    -0.232870211144E+04    0.50987E-05   -0.20050E-05  2923   0.411E-03
  38 F= -.23496372E+04 E0= -.23496372E+04  d E =-.126299E-01  mag=     7.0000
       N       E                     dE             d eps       ncg     rms          rms(c)
DAV:   1    -0.232869005206E+04    0.12064E-01   -0.11683E+00  4512   0.860E-01    0.348E-01
RMM:   2    -0.232870397187E+04   -0.13920E-01   -0.14523E-01  6159   0.190E-01    0.287E-01
RMM:   3    -0.232870488486E+04   -0.91299E-03   -0.15798E-02  5567   0.728E-02    0.206E-01
RMM:   4    -0.232870464886E+04    0.23601E-03   -0.16466E-03  4789   0.178E-02    0.973E-02
RMM:   5    -0.232870457599E+04    0.72870E-04   -0.44377E-04  4423   0.134E-02    0.789E-02
RMM:   6    -0.232870454566E+04    0.30323E-04   -0.22135E-04  3545   0.922E-03    0.594E-02
RMM:   7    -0.232870451459E+04    0.31069E-04   -0.55559E-05  2953   0.633E-03    0.188E-02
RMM:   8    -0.232870451129E+04    0.33085E-05   -0.13043E-05  2902   0.369E-03
  39 F= -.23496400E+04 E0= -.23496400E+04  d E =-.154229E-01  mag=     7.0000
       N       E                     dE             d eps       ncg     rms          rms(c)
DAV:   1    -0.232868266736E+04    0.21847E-01   -0.20156E+00  4496   0.112E+00    0.484E-01
RMM:   2    -0.232871465228E+04   -0.31985E-01   -0.33025E-01  6249   0.262E-01    0.418E-01
RMM:   3    -0.232871687008E+04   -0.22178E-02   -0.38039E-02  5778   0.103E-01    0.257E-01
RMM:   4    -0.232871663415E+04    0.23592E-03   -0.36272E-03  4882   0.220E-02    0.128E-01
RMM:   5    -0.232871648036E+04    0.15379E-03   -0.62469E-04  4400   0.142E-02    0.956E-02
RMM:   6    -0.232871646429E+04    0.16074E-04   -0.38352E-04  3922   0.105E-02    0.875E-02
RMM:   7    -0.232871640060E+04    0.63687E-04   -0.10013E-04  3036   0.731E-03    0.260E-02
RMM:   8    -0.232871639661E+04    0.39892E-05   -0.21149E-05  2920   0.437E-03
  40 F= -.23496524E+04 E0= -.23496524E+04  d E =-.124559E-01  mag=     7.0000
       N       E                     dE             d eps       ncg     rms          rms(c)
DAV:   1    -0.232864076787E+04    0.75633E-01   -0.48010E+00  4480   0.173E+00    0.749E-01
RMM:   2    -0.232871788202E+04   -0.77114E-01   -0.79578E-01  6260   0.413E-01    0.664E-01
RMM:   3    -0.232872275818E+04   -0.48762E-02   -0.91402E-02  5870   0.156E-01    0.393E-01
RMM:   4    -0.232872225805E+04    0.50013E-03   -0.85990E-03  5353   0.335E-02    0.196E-01
RMM:   5    -0.232872183135E+04    0.42670E-03   -0.14527E-03  4971   0.213E-02    0.127E-01
RMM:   6    -0.232872186357E+04   -0.32218E-04   -0.85701E-04  4813   0.151E-02    0.138E-01
RMM:   7    -0.232872169469E+04    0.16888E-03   -0.24646E-04  3560   0.934E-03    0.398E-02
RMM:   8    -0.232872168449E+04    0.10208E-04   -0.45951E-05  2951   0.542E-03    0.167E-02
RMM:   9    -0.232872168003E+04    0.44570E-05   -0.16127E-05  2884   0.346E-03
  41 F= -.23496585E+04 E0= -.23496585E+04  d E =-.185804E-01  mag=     7.0000
       N       E                     dE             d eps       ncg     rms          rms(c)
DAV:   1    -0.232868032404E+04    0.41360E-01   -0.31845E+00  4528   0.150E+00    0.616E-01
RMM:   2    -0.232872736736E+04   -0.47043E-01   -0.48743E-01  6113   0.339E-01    0.531E-01
RMM:   3    -0.232873036602E+04   -0.29987E-02   -0.56389E-02  5719   0.133E-01    0.321E-01
RMM:   4    -0.232872983710E+04    0.52891E-03   -0.52635E-03  5157   0.295E-02    0.162E-01
RMM:   5    -0.232872955329E+04    0.28381E-03   -0.11789E-03  5057   0.211E-02    0.111E-01
RMM:   6    -0.232872954104E+04    0.12252E-04   -0.61172E-04  4850   0.137E-02    0.106E-01
RMM:   7    -0.232872943951E+04    0.10153E-03   -0.14826E-04  3315   0.821E-03    0.301E-02
RMM:   8    -0.232872943153E+04    0.79888E-05   -0.29127E-05  2937   0.491E-03
  42 F= -.23496672E+04 E0= -.23496672E+04  d E =-.862682E-02  mag=     7.0000
       N       E                     dE             d eps       ncg     rms          rms(c)
DAV:   1    -0.232872816947E+04    0.12700E-02   -0.81733E-02  4968   0.242E-01    0.971E-02
RMM:   2    -0.232872936079E+04   -0.11913E-02   -0.12502E-02  6255   0.552E-02    0.707E-02
RMM:   3    -0.232872946063E+04   -0.99842E-04   -0.14326E-03  3434   0.218E-02    0.486E-02
RMM:   4    -0.232872945074E+04    0.98882E-05   -0.13439E-04  2959   0.572E-03    0.266E-02
RMM:   5    -0.232872944210E+04    0.86394E-05   -0.31291E-05  2907   0.431E-03
  43 F= -.23496673E+04 E0= -.23496673E+04  d E =-.877361E-02  mag=     7.0000
       N       E                     dE             d eps       ncg     rms          rms(c)
DAV:   1    -0.232872404826E+04    0.54025E-02   -0.66820E-01  4496   0.701E-01    0.279E-01
RMM:   2    -0.232873426618E+04   -0.10218E-01   -0.10778E-01  6109   0.149E-01    0.203E-01
RMM:   3    -0.232873510069E+04   -0.83451E-03   -0.11651E-02  5389   0.621E-02    0.132E-01
RMM:   4    -0.232873501720E+04    0.83487E-04   -0.11029E-03  3877   0.133E-02    0.794E-02
RMM:   5    -0.232873494326E+04    0.73943E-04   -0.26562E-04  3866   0.103E-02    0.480E-02
RMM:   6    -0.232873493780E+04    0.54654E-05   -0.13065E-04  3366   0.784E-03    0.437E-02
RMM:   7    -0.232873492260E+04    0.15194E-04   -0.35090E-05  2897   0.590E-03    0.182E-02
RMM:   8    -0.232873491913E+04    0.34739E-05   -0.98812E-06  2886   0.299E-03
  44 F= -.23496734E+04 E0= -.23496734E+04  d E =-.607265E-02  mag=     7.0000
       N       E                     dE             d eps       ncg     rms          rms(c)
DAV:   1    -0.232870589405E+04    0.29029E-01   -0.18633E+00  4480   0.117E+00    0.468E-01
RMM:   2    -0.232873456115E+04   -0.28667E-01   -0.30064E-01  5978   0.246E-01    0.373E-01
RMM:   3    -0.232873670308E+04   -0.21419E-02   -0.33015E-02  5553   0.103E-01    0.235E-01
RMM:   4    -0.232873640606E+04    0.29702E-03   -0.31420E-03  5036   0.219E-02    0.131E-01
RMM:   5    -0.232873620809E+04    0.19797E-03   -0.70382E-04  4712   0.159E-02    0.908E-02
RMM:   6    -0.232873618630E+04    0.21792E-04   -0.43490E-04  4464   0.114E-02    0.803E-02
RMM:   7    -0.232873612979E+04    0.56510E-04   -0.92948E-05  3050   0.786E-03    0.268E-02
RMM:   8    -0.232873612150E+04    0.82923E-05   -0.22329E-05  2926   0.403E-03
  45 F= -.23496756E+04 E0= -.23496756E+04  d E =-.825356E-02  mag=     7.0000
       N       E                     dE             d eps       ncg     rms          rms(c)
DAV:   1    -0.232873453866E+04    0.15911E-02   -0.13942E-01  4592   0.319E-01    0.128E-01
RMM:   2    -0.232873666748E+04   -0.21288E-02   -0.22262E-02  6040   0.666E-02    0.102E-01
RMM:   3    -0.232873682714E+04   -0.15966E-03   -0.23203E-03  3762   0.279E-02    0.685E-02
RMM:   4    -0.232873679534E+04    0.31799E-04   -0.22626E-04  3025   0.714E-03    0.360E-02
RMM:   5    -0.232873678107E+04    0.14272E-04   -0.56244E-05  2970   0.518E-03    0.218E-02
RMM:   6    -0.232873678234E+04   -0.12717E-05   -0.30300E-05  2908   0.476E-03
  46 F= -.23496760E+04 E0= -.23496760E+04  d E =-.864829E-02  mag=     7.0000
       N       E                     dE             d eps       ncg     rms          rms(c)
DAV:   1    -0.232873439238E+04    0.23887E-02   -0.28381E-01  4512   0.423E-01    0.183E-01
RMM:   2    -0.232874004336E+04   -0.56510E-02   -0.58684E-02  6248   0.960E-02    0.149E-01
RMM:   3    -0.232874053262E+04   -0.48926E-03   -0.64484E-03  4471   0.429E-02    0.880E-02
RMM:   4    -0.232874050812E+04    0.24494E-04   -0.59266E-04  3088   0.889E-03    0.523E-02
RMM:   5    -0.232874047211E+04    0.36017E-04   -0.82775E-05  2949   0.574E-03    0.295E-02
RMM:   6    -0.232874047066E+04    0.14500E-05   -0.61902E-05  2984   0.534E-03
  47 F= -.23496802E+04 E0= -.23496802E+04  d E =-.422740E-02  mag=     7.0000
       N       E                     dE             d eps       ncg     rms          rms(c)
DAV:   1    -0.232869258896E+04    0.47883E-01   -0.25461E+00  4496   0.127E+00    0.555E-01
RMM:   2    -0.232874348662E+04   -0.50898E-01   -0.53113E-01  6067   0.285E-01    0.457E-01
RMM:   3    -0.232874795472E+04   -0.44681E-02   -0.60629E-02  5571   0.129E-01    0.269E-01
RMM:   4    -0.232874779374E+04    0.16098E-03   -0.55147E-03  5062   0.244E-02    0.163E-01
RMM:   5    -0.232874756999E+04    0.22374E-03   -0.69553E-04  4181   0.138E-02    0.133E-01
RMM:   6    -0.232874744437E+04    0.12563E-03   -0.68537E-04  4535   0.131E-02    0.860E-02
RMM:   7    -0.232874739348E+04    0.50889E-04   -0.16998E-04  3540   0.881E-03    0.340E-02
RMM:   8    -0.232874738436E+04    0.91185E-05   -0.36508E-05  2934   0.525E-03
  48 F= -.23496887E+04 E0= -.23496887E+04  d E =-.127365E-01  mag=     7.0000
       N       E                     dE             d eps       ncg     rms          rms(c)
DAV:   1    -0.232852170913E+04    0.22568E+00   -0.10193E+01  4480   0.253E+00    0.112E+00
RMM:   2    -0.232872902901E+04   -0.20732E+00   -0.21526E+00  6172   0.581E-01    0.101E+00
RMM:   3    -0.232874470467E+04   -0.15676E-01   -0.24829E-01  5848   0.247E-01    0.555E-01
RMM:   4    -0.232874393328E+04    0.77139E-03   -0.22220E-02  5646   0.484E-02    0.328E-01
RMM:   5    -0.232874308997E+04    0.84331E-03   -0.28533E-03  5117   0.262E-02    0.282E-01
RMM:   6    -0.232874246784E+04    0.62214E-03   -0.27549E-03  5401   0.241E-02    0.169E-01
RMM:   7    -0.232874226227E+04    0.20557E-03   -0.69712E-04  4694   0.154E-02    0.540E-02
RMM:   8    -0.232874224360E+04    0.18672E-04   -0.10997E-04  3188   0.771E-03    0.390E-02
RMM:   9    -0.232874222947E+04    0.14127E-04   -0.85189E-05  2970   0.616E-03    0.212E-02
RMM:  10    -0.232874222566E+04    0.38111E-05   -0.18858E-05  2935   0.373E-03
  49 F= -.23496866E+04 E0= -.23496866E+04  d E =-.106609E-01  mag=     7.0000
       N       E                     dE             d eps       ncg     rms          rms(c)
DAV:   1    -0.232867656158E+04    0.65668E-01   -0.33485E+00  4464   0.145E+00    0.615E-01
RMM:   2    -0.232874228366E+04   -0.65722E-01   -0.68742E-01  6139   0.323E-01    0.421E-01
RMM:   3    -0.232874904411E+04   -0.67605E-02   -0.76136E-02  5539   0.150E-01    0.294E-01
RMM:   4    -0.232874879373E+04    0.25038E-03   -0.69050E-03  5251   0.282E-02    0.190E-01
RMM:   5    -0.232874841708E+04    0.37665E-03   -0.95951E-04  4477   0.156E-02    0.109E-01
RMM:   6    -0.232874836346E+04    0.53619E-04   -0.68999E-04  4669   0.139E-02    0.827E-02
RMM:   7    -0.232874832012E+04    0.43344E-04   -0.14754E-04  3039   0.887E-03    0.422E-02
RMM:   8    -0.232874830061E+04    0.19504E-04   -0.37025E-05  2901   0.439E-03    0.178E-02
RMM:   9    -0.232874829644E+04    0.41748E-05   -0.16896E-05  2890   0.308E-03
  50 F= -.23496909E+04 E0= -.23496909E+04  d E =-.149842E-01  mag=     7.0000
       N       E                     dE             d eps       ncg     rms          rms(c)
DAV:   1    -0.232873748513E+04    0.10815E-01   -0.68833E-01  4512   0.618E-01    0.285E-01
RMM:   2    -0.232875200480E+04   -0.14520E-01   -0.15176E-01  6271   0.145E-01    0.228E-01
RMM:   3    -0.232875332618E+04   -0.13214E-02   -0.16768E-02  5185   0.642E-02    0.132E-01
RMM:   4    -0.232875330441E+04    0.21767E-04   -0.15672E-03  3380   0.125E-02    0.846E-02
RMM:   5    -0.232875323420E+04    0.70205E-04   -0.18827E-04  3091   0.756E-03    0.625E-02
RMM:   6    -0.232875321478E+04    0.19423E-04   -0.17206E-04  3141   0.738E-03    0.516E-02
RMM:   7    -0.232875319442E+04    0.20362E-04   -0.48839E-05  2940   0.581E-03    0.176E-02
RMM:   8    -0.232875319199E+04    0.24307E-05   -0.12234E-05  2893   0.360E-03
  51 F= -.23496968E+04 E0= -.23496968E+04  d E =-.582629E-02  mag=     7.0000
       N       E                     dE             d eps       ncg     rms          rms(c)
DAV:   1    -0.232862176507E+04    0.13143E+00   -0.58964E+00  4480   0.181E+00    0.852E-01
RMM:   2    -0.232874874268E+04   -0.12698E+00   -0.13234E+00  6251   0.432E-01    0.750E-01
RMM:   3    -0.232875893508E+04   -0.10192E-01   -0.15068E-01  5826   0.182E-01    0.400E-01
RMM:   4    -0.232875882071E+04    0.11438E-03   -0.13869E-02  5331   0.353E-02    0.248E-01
RMM:   5    -0.232875830874E+04    0.51197E-03   -0.16229E-03  4717   0.193E-02    0.209E-01
RMM:   6    -0.232875799234E+04    0.31640E-03   -0.14776E-03  5060   0.175E-02    0.135E-01
RMM:   7    -0.232875784523E+04    0.14710E-03   -0.40636E-04  4251   0.118E-02    0.356E-02
RMM:   8    -0.232875783454E+04    0.10697E-04   -0.55921E-05  2994   0.632E-03    0.272E-02
RMM:   9    -0.232875782713E+04    0.74033E-05   -0.46918E-05  2907   0.482E-03
  52 F= -.23497041E+04 E0= -.23497041E+04  d E =-.131110E-01  mag=     7.0000
       N       E                     dE             d eps       ncg     rms          rms(c)
DAV:   1    -0.232874080533E+04    0.17029E-01   -0.96780E-01  4496   0.725E-01    0.336E-01
RMM:   2    -0.232876110501E+04   -0.20300E-01   -0.21220E-01  6256   0.173E-01    0.270E-01
RMM:   3    -0.232876291329E+04   -0.18083E-02   -0.23328E-02  5499   0.747E-02    0.154E-01
RMM:   4    -0.232876289467E+04    0.18615E-04   -0.22408E-03  3640   0.147E-02    0.984E-02
RMM:   5    -0.232876278797E+04    0.10671E-03   -0.26401E-04  3341   0.918E-03    0.662E-02
RMM:   6    -0.232876277424E+04    0.13723E-04   -0.22002E-04  3428   0.849E-03    0.623E-02
RMM:   7    -0.232876274498E+04    0.29264E-04   -0.65739E-05  2926   0.657E-03    0.219E-02
RMM:   8    -0.232876274187E+04    0.31056E-05   -0.16070E-05  2905   0.391E-03
  53 F= -.23497098E+04 E0= -.23497098E+04  d E =-.576282E-02  mag=     7.0000
       N       E                     dE             d eps       ncg     rms          rms(c)
DAV:   1    -0.232862669377E+04    0.13605E+00   -0.60654E+00  4480   0.182E+00    0.853E-01
RMM:   2    -0.232875673441E+04   -0.13004E+00   -0.13576E+00  6230   0.445E-01    0.732E-01
RMM:   3    -0.232876705162E+04   -0.10317E-01   -0.15280E-01  5811   0.182E-01    0.381E-01
RMM:   4    -0.232876704030E+04    0.11327E-04   -0.14268E-02  5339   0.358E-02    0.242E-01
RMM:   5    -0.232876637039E+04    0.66991E-03   -0.16268E-03  4819   0.210E-02    0.173E-01
RMM:   6    -0.232876625548E+04    0.11491E-03   -0.13578E-03  5093   0.174E-02    0.152E-01
RMM:   7    -0.232876605537E+04    0.20011E-03   -0.39349E-04  4162   0.120E-02    0.389E-02
RMM:   8    -0.232876604579E+04    0.95805E-05   -0.64320E-05  3010   0.631E-03
  54 F= -.23497151E+04 E0= -.23497151E+04  d E =-.110765E-01  mag=     7.0000
       N       E                     dE             d eps       ncg     rms          rms(c)
DAV:   1    -0.232875072129E+04    0.15334E-01   -0.79752E-01  4576   0.600E-01    0.293E-01
RMM:   2    -0.232876863716E+04   -0.17916E-01   -0.18751E-01  6475   0.152E-01    0.226E-01
RMM:   3    -0.232877033831E+04   -0.17011E-02   -0.20254E-02  5126   0.617E-02    0.129E-01
RMM:   4    -0.232877037678E+04   -0.38473E-04   -0.19170E-03  3245   0.123E-02    0.882E-02
RMM:   5    -0.232877029301E+04    0.83774E-04   -0.19040E-04  3063   0.720E-03    0.570E-02
RMM:   6    -0.232877028189E+04    0.11115E-04   -0.15864E-04  3194   0.643E-03    0.508E-02
RMM:   7    -0.232877026520E+04    0.16693E-04   -0.51308E-05  2899   0.536E-03    0.237E-02
RMM:   8    -0.232877026194E+04    0.32587E-05   -0.14177E-05  2855   0.286E-03
  55 F= -.23497199E+04 E0= -.23497199E+04  d E =-.472451E-02  mag=     7.0000
       N       E                     dE             d eps       ncg     rms          rms(c)
DAV:   1    -0.232860161294E+04    0.16865E+00   -0.71588E+00  4480   0.180E+00    0.905E-01
RMM:   2    -0.232876726605E+04   -0.16565E+00   -0.17175E+00  6445   0.464E-01    0.852E-01
RMM:   3    -0.232877976541E+04   -0.12499E-01   -0.19221E-01  5899   0.188E-01    0.413E-01
RMM:   4    -0.232878000583E+04   -0.24041E-03   -0.17803E-02  5189   0.364E-02    0.263E-01
RMM:   5    -0.232877911781E+04    0.88802E-03   -0.16576E-03  4550   0.192E-02    0.157E-01
RMM:   6    -0.232877906718E+04    0.50629E-04   -0.14490E-03  4806   0.178E-02    0.146E-01
RMM:   7    -0.232877888268E+04    0.18450E-03   -0.38451E-04  3493   0.108E-02    0.449E-02
RMM:   8    -0.232877886857E+04    0.14111E-04   -0.53509E-05  2994   0.527E-03    0.218E-02
RMM:   9    -0.232877886554E+04    0.30220E-05   -0.37552E-05  2912   0.420E-03
  56 F= -.23497298E+04 E0= -.23497298E+04  d E =-.147210E-01  mag=     7.0000
       N       E                     dE             d eps       ncg     rms          rms(c)
DAV:   1    -0.232805206693E+04    0.72680E+00   -0.28651E+01  4480   0.361E+00    0.187E+00
RMM:   2    -0.232875037309E+04   -0.69831E+00   -0.71993E+00  6435   0.976E-01    0.197E+00
RMM:   3    -0.232878137086E+04   -0.30998E-01   -0.77325E-01  5931   0.382E-01    0.786E-01
RMM:   4    -0.232878311984E+04   -0.17490E-02   -0.74751E-02  5514   0.738E-02    0.518E-01
RMM:   5    -0.232877999344E+04    0.31264E-02   -0.66000E-03  4886   0.353E-02    0.376E-01
RMM:   6    -0.232877972540E+04    0.26804E-03   -0.84312E-03  5074   0.429E-02    0.343E-01
RMM:   7    -0.232877875315E+04    0.97224E-03   -0.16077E-03  5109   0.184E-02    0.139E-01
RMM:   8    -0.232877856797E+04    0.18519E-03   -0.33404E-04  3173   0.960E-03    0.533E-02
RMM:   9    -0.232877855261E+04    0.15361E-04   -0.12345E-04  3197   0.602E-03    0.286E-02
RMM:  10    -0.232877856363E+04   -0.11023E-04   -0.48620E-05  2965   0.528E-03    0.115E-02
RMM:  11    -0.232877857453E+04   -0.10896E-04   -0.14412E-05  2916   0.358E-03    0.605E-03
RMM:  12    -0.232877858315E+04   -0.86257E-05   -0.56637E-06  2853   0.278E-03
  57 F= -.23497318E+04 E0= -.23497318E+04  d E =-.166466E-01  mag=     7.0000
       N       E                     dE             d eps       ncg     rms          rms(c)
DAV:   1    -0.232865220824E+04    0.12637E+00   -0.52916E+00  4480   0.155E+00    0.730E-01
RMM:   2    -0.232876977715E+04   -0.11757E+00   -0.12326E+00  6381   0.378E-01    0.482E-01
RMM:   3    -0.232878231751E+04   -0.12540E-01   -0.13336E-01  5577   0.175E-01    0.321E-01
RMM:   4    -0.232878241614E+04   -0.98631E-04   -0.12672E-02  4855   0.323E-02    0.247E-01
RMM:   5    -0.232878188698E+04    0.52916E-03   -0.10907E-03  4006   0.144E-02    0.159E-01
RMM:   6    -0.232878168690E+04    0.20008E-03   -0.13294E-03  4806   0.159E-02    0.110E-01
RMM:   7    -0.232878160845E+04    0.78455E-04   -0.31435E-04  3391   0.100E-02    0.570E-02
RMM:   8    -0.232878157388E+04    0.34561E-04   -0.64516E-05  2925   0.552E-03    0.180E-02
RMM:   9    -0.232878156980E+04    0.40866E-05   -0.24702E-05  2916   0.362E-03
  58 F= -.23497339E+04 E0= -.23497339E+04  d E =-.187771E-01  mag=     7.0000
       N       E                     dE             d eps       ncg     rms          rms(c)
DAV:   1    -0.232873739743E+04    0.44176E-01   -0.20661E+00  4480   0.957E-01    0.476E-01
RMM:   2    -0.232878616099E+04   -0.48764E-01   -0.50607E-01  6406   0.243E-01    0.411E-01
RMM:   3    -0.232879032185E+04   -0.41609E-02   -0.53862E-02  5601   0.996E-02    0.223E-01
RMM:   4    -0.232879034966E+04   -0.27814E-04   -0.50205E-03  3968   0.194E-02    0.144E-01
RMM:   5    -0.232879009347E+04    0.25619E-03   -0.50293E-04  3606   0.109E-02    0.854E-02
RMM:   6    -0.232879004283E+04    0.50635E-04   -0.40321E-04  3986   0.966E-03    0.607E-02
RMM:   7    -0.232879001987E+04    0.22957E-04   -0.10703E-04  2947   0.713E-03    0.365E-02
RMM:   8    -0.232879000951E+04    0.10362E-04   -0.26626E-05  2898   0.371E-03    0.177E-02
RMM:   9    -0.232879000537E+04    0.41446E-05   -0.12060E-05  2845   0.280E-03
  59 F= -.23497427E+04 E0= -.23497427E+04  d E =-.882602E-02  mag=     7.0000
       N       E                     dE             d eps       ncg     rms          rms(c)
DAV:   1    -0.232832086970E+04    0.46914E+00   -0.18620E+01  4480   0.287E+00    0.148E+00
RMM:   2    -0.232878019619E+04   -0.45933E+00   -0.47357E+00  6483   0.766E-01    0.153E+00
RMM:   3    -0.232880495795E+04   -0.24762E-01   -0.49870E-01  5937   0.304E-01    0.660E-01
RMM:   4    -0.232880586373E+04   -0.90578E-03   -0.48161E-02  5495   0.595E-02    0.428E-01
RMM:   5    -0.232880361046E+04    0.22533E-02   -0.43560E-03  4832   0.293E-02    0.274E-01
RMM:   6    -0.232880353878E+04    0.71681E-04   -0.43493E-03  5074   0.305E-02    0.271E-01
RMM:   7    -0.232880288765E+04    0.65113E-03   -0.10475E-03  4790   0.159E-02    0.640E-02
RMM:   8    -0.232880286429E+04    0.23367E-04   -0.17400E-04  3066   0.791E-03    0.412E-02
RMM:   9    -0.232880285753E+04    0.67584E-05   -0.67927E-05  3063   0.502E-03
  60 F= -.23497565E+04 E0= -.23497565E+04  d E =-.225800E-01  mag=     7.0000
       N       E                     dE             d eps       ncg     rms          rms(c)
DAV:   1    -0.232877421041E+04    0.28654E-01   -0.11418E+00  4608   0.708E-01    0.351E-01
RMM:   2    -0.232880086765E+04   -0.26657E-01   -0.27746E-01  6427   0.179E-01    0.291E-01
RMM:   3    -0.232880325355E+04   -0.23859E-02   -0.28963E-02  5238   0.736E-02    0.164E-01
RMM:   4    -0.232880330048E+04   -0.46935E-04   -0.28141E-03  3399   0.148E-02    0.107E-01
RMM:   5    -0.232880317075E+04    0.12973E-03   -0.27180E-04  3234   0.822E-03    0.679E-02
RMM:   6    -0.232880315082E+04    0.19934E-04   -0.23202E-04  3379   0.757E-03    0.583E-02
RMM:   7    -0.232880312873E+04    0.22093E-04   -0.71402E-05  2915   0.603E-03    0.292E-02
RMM:   8    -0.232880312410E+04    0.46287E-05   -0.20277E-05  2887   0.346E-03
  61 F= -.23497569E+04 E0= -.23497569E+04  d E =-.230121E-01  mag=     7.0000
       N       E                     dE             d eps       ncg     rms          rms(c)
DAV:   1    -0.232872489975E+04    0.78229E-01   -0.33778E+00  4480   0.126E+00    0.615E-01
RMM:   2    -0.232880468924E+04   -0.79789E-01   -0.83157E-01  6275   0.316E-01    0.508E-01
RMM:   3    -0.232881156959E+04   -0.68804E-02   -0.87146E-02  5644   0.135E-01    0.283E-01
RMM:   4    -0.232881168205E+04   -0.11246E-03   -0.83772E-03  4852   0.260E-02    0.184E-01
RMM:   5    -0.232881129125E+04    0.39080E-03   -0.87179E-04  4241   0.144E-02    0.116E-01
RMM:   6    -0.232881120900E+04    0.82256E-04   -0.64189E-04  4562   0.121E-02    0.908E-02
RMM:   7    -0.232881115558E+04    0.53413E-04   -0.19944E-04  3113   0.906E-03    0.527E-02
RMM:   8    -0.232881113676E+04    0.18819E-04   -0.57282E-05  2929   0.518E-03    0.252E-02
RMM:   9    -0.232881112951E+04    0.72502E-05   -0.21491E-05  2885   0.387E-03
  62 F= -.23497653E+04 E0= -.23497653E+04  d E =-.837832E-02  mag=     7.0000
       N       E                     dE             d eps       ncg     rms          rms(c)
DAV:   1    -0.232863765385E+04    0.17348E+00   -0.69522E+00  4480   0.180E+00    0.886E-01
RMM:   2    -0.232880323293E+04   -0.16558E+00   -0.17198E+00  6349   0.457E-01    0.782E-01
RMM:   3    -0.232881603638E+04   -0.12803E-01   -0.17868E-01  5766   0.189E-01    0.408E-01
RMM:   4    -0.232881623976E+04   -0.20338E-03   -0.17367E-02  5293   0.373E-02    0.263E-01
RMM:   5    -0.232881539771E+04    0.84205E-03   -0.18149E-03  4778   0.202E-02    0.158E-01
RMM:   6    -0.232881526571E+04    0.13199E-03   -0.12666E-03  4985   0.165E-02    0.128E-01
RMM:   7    -0.232881515155E+04    0.11416E-03   -0.39526E-04  3627   0.117E-02    0.706E-02
RMM:   8    -0.232881511962E+04    0.31928E-04   -0.10522E-04  3024   0.627E-03    0.372E-02
RMM:   9    -0.232881510391E+04    0.15715E-04   -0.45067E-05  2901   0.496E-03    0.119E-02
RMM:  10    -0.232881510449E+04   -0.57789E-06   -0.13292E-05  2883   0.297E-03
  63 F= -.23497697E+04 E0= -.23497697E+04  d E =-.127792E-01  mag=     7.0000
       N       E                     dE             d eps       ncg     rms          rms(c)
DAV:   1    -0.232873429402E+04    0.80810E-01   -0.34938E+00  4504   0.125E+00    0.608E-01
RMM:   2    -0.232881587999E+04   -0.81586E-01   -0.85066E-01  6374   0.315E-01    0.466E-01
RMM:   3    -0.232882339962E+04   -0.75196E-02   -0.89376E-02  5616   0.132E-01    0.266E-01
RMM:   4    -0.232882359526E+04   -0.19564E-03   -0.85701E-03  4691   0.256E-02    0.189E-01
RMM:   5    -0.232882326176E+04    0.33350E-03   -0.86945E-04  3994   0.137E-02    0.134E-01
RMM:   6    -0.232882312106E+04    0.14070E-03   -0.69577E-04  4597   0.123E-02    0.915E-02
RMM:   7    -0.232882307899E+04    0.42064E-04   -0.20575E-04  3201   0.877E-03    0.550E-02
RMM:   8    -0.232882305922E+04    0.19772E-04   -0.69050E-05  2952   0.549E-03    0.260E-02
RMM:   9    -0.232882305202E+04    0.72025E-05   -0.19376E-05  2888   0.388E-03
  64 F= -.23497784E+04 E0= -.23497784E+04  d E =-.867272E-02  mag=     7.0000
       N       E                     dE             d eps       ncg     rms          rms(c)
DAV:   1    -0.232869642468E+04    0.12663E+00   -0.50924E+00  4480   0.151E+00    0.737E-01
RMM:   2    -0.232881579901E+04   -0.11937E+00   -0.12443E+00  6397   0.383E-01    0.574E-01
RMM:   3    -0.232882659668E+04   -0.10798E-01   -0.13086E-01  5666   0.160E-01    0.320E-01
RMM:   4    -0.232882689428E+04   -0.29759E-03   -0.12550E-02  4991   0.311E-02    0.226E-01
RMM:   5    -0.232882640895E+04    0.48532E-03   -0.12922E-03  4391   0.165E-02    0.161E-01
RMM:   6    -0.232882621866E+04    0.19029E-03   -0.99488E-04  4873   0.143E-02    0.114E-01
RMM:   7    -0.232882614549E+04    0.73170E-04   -0.29993E-04  3482   0.101E-02    0.637E-02
RMM:   8    -0.232882612037E+04    0.25128E-04   -0.10025E-04  3006   0.619E-03    0.332E-02
RMM:   9    -0.232882610786E+04    0.12505E-04   -0.30604E-05  2899   0.453E-03    0.881E-03
RMM:  10    -0.232882610870E+04   -0.84034E-06   -0.10805E-05  2893   0.272E-03
  65 F= -.23497822E+04 E0= -.23497822E+04  d E =-.125257E-01  mag=     7.0000
       N       E                     dE             d eps       ncg     rms          rms(c)
DAV:   1    -0.232870362411E+04    0.12248E+00   -0.51622E+00  4480   0.158E+00    0.746E-01
RMM:   2    -0.232882362072E+04   -0.12000E+00   -0.12546E+00  6343   0.397E-01    0.537E-01
RMM:   3    -0.232883541487E+04   -0.11794E-01   -0.13687E-01  5679   0.166E-01    0.312E-01
RMM:   4    -0.232883573485E+04   -0.31997E-03   -0.12756E-02  5038   0.318E-02    0.226E-01
RMM:   5    -0.232883529971E+04    0.43514E-03   -0.11766E-03  4241   0.159E-02    0.175E-01
RMM:   6    -0.232883501373E+04    0.28598E-03   -0.11230E-03  4975   0.156E-02    0.103E-01
RMM:   7    -0.232883496176E+04    0.51961E-04   -0.28223E-04  3643   0.103E-02    0.610E-02
[...]
       N       E                     dE             d eps       ncg     rms          rms(c)
DAV:   1    -0.232897325433E+04    0.15014E-02   -0.10611E-01  4512   0.275E-01    0.116E-01
RMM:   2    -0.232897482699E+04   -0.15727E-02   -0.16076E-02  6107   0.578E-02    0.934E-02
RMM:   3    -0.232897491635E+04   -0.89364E-04   -0.15513E-03  3535   0.224E-02    0.629E-02
RMM:   4    -0.232897489145E+04    0.24903E-04   -0.18821E-04  2960   0.645E-03    0.294E-02
RMM:   5    -0.232897487995E+04    0.11497E-04   -0.29992E-05  2926   0.434E-03    0.157E-02
RMM:   6    -0.232897488120E+04   -0.12517E-05   -0.20192E-05  2911   0.408E-03
 122 F= -.23499425E+04 E0= -.23499425E+04  d E =-.157405E-02  mag=     7.0000
       N       E                     dE             d eps       ncg     rms          rms(c)
DAV:   1    -0.232896969015E+04    0.51898E-02   -0.48339E-01  4480   0.624E-01    0.251E-01
RMM:   2    -0.232897598419E+04   -0.62940E-02   -0.65561E-02  5893   0.122E-01    0.177E-01
RMM:   3    -0.232897640185E+04   -0.41767E-03   -0.64759E-03  5235   0.536E-02    0.135E-01
RMM:   4    -0.232897627252E+04    0.12933E-03   -0.77151E-04  3828   0.126E-02    0.632E-02
RMM:   5    -0.232897622457E+04    0.47954E-04   -0.14347E-04  3600   0.910E-03    0.339E-02
RMM:   6    -0.232897622889E+04   -0.43230E-05   -0.89553E-05  3165   0.750E-03
 123 F= -.23499438E+04 E0= -.23499438E+04  d E =-.127385E-02  mag=     7.0000
       N       E                     dE             d eps       ncg     rms          rms(c)
DAV:   1    -0.232897573598E+04    0.48859E-03   -0.37163E-02  4864   0.173E-01    0.700E-02
RMM:   2    -0.232897622188E+04   -0.48590E-03   -0.51678E-03  6136   0.374E-02    0.383E-02
RMM:   3    -0.232897626243E+04   -0.40550E-04   -0.52845E-04  3086   0.147E-02    0.286E-02
RMM:   4    -0.232897626071E+04    0.17252E-05   -0.61937E-05  2940   0.415E-03
 124 F= -.23499438E+04 E0= -.23499438E+04  d E =-.128445E-02  mag=     7.0000
       N       E                     dE             d eps       ncg     rms          rms(c)
DAV:   1    -0.232897038290E+04    0.58795E-02   -0.49077E-01  4480   0.613E-01    0.249E-01
RMM:   2    -0.232897712361E+04   -0.67407E-02   -0.69629E-02  5925   0.121E-01    0.195E-01
RMM:   3    -0.232897751410E+04   -0.39049E-03   -0.68882E-03  5314   0.509E-02    0.134E-01
RMM:   4    -0.232897738630E+04    0.12780E-03   -0.78275E-04  3695   0.122E-02    0.655E-02
RMM:   5    -0.232897733358E+04    0.52723E-04   -0.16326E-04  3636   0.914E-03    0.306E-02
RMM:   6    -0.232897733920E+04   -0.56164E-05   -0.84952E-05  3123   0.746E-03
 125 F= -.23499449E+04 E0= -.23499449E+04  d E =-.109156E-02  mag=     7.0000
       N       E                     dE             d eps       ncg     rms          rms(c)
DAV:   1    -0.232897622317E+04    0.11104E-02   -0.74298E-02  4544   0.239E-01    0.976E-02
RMM:   2    -0.232897723442E+04   -0.10112E-02   -0.10657E-02  6198   0.499E-02    0.628E-02
RMM:   3    -0.232897731307E+04   -0.78652E-04   -0.10806E-03  3338   0.198E-02    0.479E-02
RMM:   4    -0.232897730202E+04    0.11054E-04   -0.12341E-04  2951   0.555E-03    0.268E-02
RMM:   5    -0.232897729482E+04    0.71998E-05   -0.23524E-05  2896   0.373E-03
 126 F= -.23499449E+04 E0= -.23499449E+04  d E =-.105170E-02  mag=     7.0000
       N       E                     dE             d eps       ncg     rms          rms(c)
DAV:   1    -0.232897400156E+04    0.33005E-02   -0.28578E-01  4496   0.455E-01    0.183E-01
RMM:   2    -0.232897799972E+04   -0.39982E-02   -0.41127E-02  6029   0.897E-02    0.149E-01
RMM:   3    -0.232897823501E+04   -0.23530E-03   -0.41051E-03  4608   0.365E-02    0.956E-02
RMM:   4    -0.232897817745E+04    0.57564E-04   -0.44212E-04  3042   0.903E-03    0.479E-02
RMM:   5    -0.232897815705E+04    0.20400E-04   -0.79739E-05  3056   0.614E-03    0.351E-02
RMM:   6    -0.232897815601E+04    0.10425E-05   -0.61513E-05  2937   0.587E-03
 127 F= -.23499458E+04 E0= -.23499458E+04  d E =-.918152E-03  mag=     7.0000
       N       E                     dE             d eps       ncg     rms          rms(c)
DAV:   1    -0.232896953221E+04    0.86248E-02   -0.60825E-01  4480   0.663E-01    0.267E-01
RMM:   2    -0.232897800718E+04   -0.84750E-02   -0.87256E-02  5988   0.130E-01    0.209E-01
RMM:   3    -0.232897852938E+04   -0.52219E-03   -0.86202E-03  5419   0.523E-02    0.137E-01
RMM:   4    -0.232897841901E+04    0.11036E-03   -0.93755E-04  3387   0.122E-02    0.688E-02
RMM:   5    -0.232897836593E+04    0.53080E-04   -0.15184E-04  3412   0.839E-03    0.369E-02
RMM:   6    -0.232897837205E+04   -0.61175E-05   -0.10182E-04  3147   0.741E-03    0.390E-02
RMM:   7    -0.232897835955E+04    0.12502E-04   -0.30132E-05  2912   0.539E-03    0.123E-02
RMM:   8    -0.232897835825E+04    0.12973E-05   -0.64647E-06  2871   0.263E-03
 128 F= -.23499461E+04 E0= -.23499461E+04  d E =-.120115E-02  mag=     7.0000
       N       E                     dE             d eps       ncg     rms          rms(c)
DAV:   1    -0.232897323442E+04    0.51251E-02   -0.46509E-01  4480   0.583E-01    0.236E-01
RMM:   2    -0.232897947922E+04   -0.62448E-02   -0.63897E-02  5916   0.115E-01    0.196E-01
RMM:   3    -0.232897976449E+04   -0.28527E-03   -0.59827E-03  5235   0.451E-02    0.127E-01
RMM:   4    -0.232897965443E+04    0.11006E-03   -0.70458E-04  3500   0.110E-02    0.577E-02
RMM:   5    -0.232897960697E+04    0.47460E-04   -0.11701E-04  3445   0.796E-03    0.267E-02
RMM:   6    -0.232897960574E+04    0.12381E-05   -0.62994E-05  3143   0.676E-03
 129 F= -.23499473E+04 E0= -.23499473E+04  d E =-.126508E-02  mag=     7.0000
       N       E                     dE             d eps       ncg     rms          rms(c)
DAV:   1    -0.232897701160E+04    0.25954E-02   -0.19972E-01  4512   0.382E-01    0.156E-01
RMM:   2    -0.232897970021E+04   -0.26886E-02   -0.27597E-02  6129   0.771E-02    0.127E-01
RMM:   3    -0.232897982961E+04   -0.12940E-03   -0.25622E-03  4382   0.299E-02    0.856E-02
RMM:   4    -0.232897977979E+04    0.49825E-04   -0.30735E-04  3005   0.795E-03    0.385E-02
RMM:   5    -0.232897976212E+04    0.17669E-04   -0.52328E-05  3002   0.550E-03    0.233E-02
RMM:   6    -0.232897976438E+04   -0.22636E-05   -0.39239E-05  2931   0.530E-03
 130 F= -.23499475E+04 E0= -.23499475E+04  d E =-.143389E-02  mag=     7.0000
       N       E                     dE             d eps       ncg     rms          rms(c)
DAV:   1    -0.232897720302E+04    0.25591E-02   -0.28515E-01  4480   0.489E-01    0.196E-01
RMM:   2    -0.232898084902E+04   -0.36460E-02   -0.37271E-02  5958   0.965E-02    0.160E-01
RMM:   3    -0.232898097977E+04   -0.13075E-03   -0.34246E-03  5166   0.395E-02    0.109E-01
RMM:   4    -0.232898088969E+04    0.90082E-04   -0.41668E-04  3384   0.992E-03    0.443E-02
RMM:   5    -0.232898086848E+04    0.21213E-04   -0.72424E-05  3181   0.728E-03    0.322E-02
RMM:   6    -0.232898086871E+04   -0.23154E-06   -0.53609E-05  2926   0.640E-03
 131 F= -.23499486E+04 E0= -.23499486E+04  d E =-.104811E-02  mag=     7.0000
       N       E                     dE             d eps       ncg     rms          rms(c)
DAV:   1    -0.232897991901E+04    0.94947E-03   -0.81648E-02  4528   0.262E-01    0.105E-01
RMM:   2    -0.232898097026E+04   -0.10512E-02   -0.10754E-02  6181   0.532E-02    0.835E-02
RMM:   3    -0.232898101360E+04   -0.43338E-04   -0.99066E-04  3587   0.198E-02    0.590E-02
RMM:   4    -0.232898098833E+04    0.25264E-04   -0.12100E-04  2941   0.609E-03    0.247E-02
RMM:   5    -0.232898098331E+04    0.50171E-05   -0.23860E-05  2918   0.422E-03
 132 F= -.23499486E+04 E0= -.23499486E+04  d E =-.113144E-02  mag=     7.0000
       N       E                     dE             d eps       ncg     rms          rms(c)
DAV:   1    -0.232897869368E+04    0.22947E-02   -0.20785E-01  4496   0.423E-01    0.172E-01
RMM:   2    -0.232898170173E+04   -0.30081E-02   -0.30377E-02  6084   0.861E-02    0.154E-01
RMM:   3    -0.232898177255E+04   -0.70820E-04   -0.28867E-03  4726   0.344E-02    0.911E-02
RMM:   4    -0.232898171298E+04    0.59569E-04   -0.32886E-04  3141   0.884E-03    0.372E-02
RMM:   5    -0.232898169208E+04    0.20899E-04   -0.47497E-05  3111   0.622E-03    0.224E-02
RMM:   6    -0.232898169315E+04   -0.10644E-05   -0.38840E-05  2924   0.600E-03
 133 F= -.23499493E+04 E0= -.23499493E+04  d E =-.702075E-03  mag=     7.0000
       N       E                     dE             d eps       ncg     rms          rms(c)
DAV:   1    -0.232898073627E+04    0.95581E-03   -0.69004E-02  4584   0.244E-01    0.100E-01
RMM:   2    -0.232898174637E+04   -0.10101E-02   -0.10196E-02  6241   0.515E-02    0.890E-02
RMM:   3    -0.232898177241E+04   -0.26044E-04   -0.97016E-04  3520   0.190E-02    0.539E-02
RMM:   4    -0.232898175393E+04    0.18479E-04   -0.11160E-04  2945   0.572E-03    0.213E-02
RMM:   5    -0.232898174668E+04    0.72495E-05   -0.15764E-05  2907   0.377E-03
 134 F= -.23499494E+04 E0= -.23499494E+04  d E =-.749939E-03  mag=     7.0000
       N       E                     dE             d eps       ncg     rms          rms(c)
DAV:   1    -0.232897935241E+04    0.24015E-02   -0.19369E-01  4512   0.402E-01    0.162E-01
RMM:   2    -0.232898237794E+04   -0.30255E-02   -0.30523E-02  6132   0.836E-02    0.149E-01
RMM:   3    -0.232898246433E+04   -0.86391E-04   -0.28889E-03  4535   0.329E-02    0.843E-02
RMM:   4    -0.232898242044E+04    0.43889E-04   -0.33020E-04  3045   0.850E-03    0.362E-02
RMM:   5    -0.232898240379E+04    0.16657E-04   -0.42195E-05  2971   0.572E-03    0.253E-02
RMM:   6    -0.232898240602E+04   -0.22318E-05   -0.40708E-05  2913   0.553E-03
 135 F= -.23499501E+04 E0= -.23499501E+04  d E =-.735562E-03  mag=     7.0000
       N       E                     dE             d eps       ncg     rms          rms(c)
DAV:   1    -0.232898044910E+04    0.19547E-02   -0.12663E-01  4512   0.325E-01    0.132E-01
RMM:   2    -0.232898244138E+04   -0.19923E-02   -0.20076E-02  6190   0.682E-02    0.124E-01
RMM:   3    -0.232898249172E+04   -0.50341E-04   -0.18919E-03  4069   0.255E-02    0.683E-02
RMM:   4    -0.232898246492E+04    0.26795E-04   -0.21799E-04  2975   0.704E-03    0.300E-02
RMM:   5    -0.232898245736E+04    0.75594E-05   -0.30901E-05  2925   0.464E-03
 136 F= -.23499502E+04 E0= -.23499502E+04  d E =-.847133E-03  mag=     7.0000
       N       E                     dE             d eps       ncg     rms          rms(c)
DAV:   1    -0.232897923687E+04    0.32281E-02   -0.26354E-01  4480   0.477E-01    0.184E-01
RMM:   2    -0.232898292064E+04   -0.36838E-02   -0.37859E-02  6022   0.972E-02    0.142E-01
RMM:   3    -0.232898311817E+04   -0.19753E-03   -0.36738E-03  4930   0.406E-02    0.944E-02
RMM:   4    -0.232898305517E+04    0.62996E-04   -0.41189E-04  3200   0.962E-03    0.438E-02
RMM:   5    -0.232898303567E+04    0.19502E-04   -0.73985E-05  3097   0.674E-03    0.373E-02
RMM:   6    -0.232898302944E+04    0.62353E-05   -0.55964E-05  2916   0.627E-03
 137 F= -.23499509E+04 E0= -.23499509E+04  d E =-.699926E-03  mag=     7.0000
       N       E                     dE             d eps       ncg     rms          rms(c)
DAV:   1    -0.232898218650E+04    0.84917E-03   -0.54594E-02  4624   0.217E-01    0.851E-02
RMM:   2    -0.232898296266E+04   -0.77616E-03   -0.79989E-03  6156   0.460E-02    0.631E-02
RMM:   3    -0.232898300774E+04   -0.45081E-04   -0.77032E-04  3290   0.176E-02    0.437E-02
RMM:   4    -0.232898299651E+04    0.11231E-04   -0.87576E-05  2941   0.512E-03    0.196E-02
RMM:   5    -0.232898299104E+04    0.54705E-05   -0.13826E-05  2885   0.331E-03
 138 F= -.23499510E+04 E0= -.23499510E+04  d E =-.719456E-03  mag=     7.0000
       N       E                     dE             d eps       ncg     rms          rms(c)
DAV:   1    -0.232897940642E+04    0.35901E-02   -0.26192E-01  4480   0.449E-01    0.172E-01
RMM:   2    -0.232898345008E+04   -0.40437E-02   -0.41750E-02  6040   0.929E-02    0.130E-01
RMM:   3    -0.232898370904E+04   -0.25896E-03   -0.39672E-03  4554   0.377E-02    0.819E-02
RMM:   4    -0.232898367124E+04    0.37804E-04   -0.43472E-04  3054   0.899E-03    0.445E-02
RMM:   5    -0.232898364299E+04    0.28253E-04   -0.68601E-05  3008   0.623E-03    0.219E-02
RMM:   6    -0.232898364402E+04   -0.10318E-05   -0.45600E-05  3020   0.570E-03
 139 F= -.23499517E+04 E0= -.23499517E+04  d E =-.745243E-03  mag=     7.0000
       N       E                     dE             d eps       ncg     rms          rms(c)
DAV:   1    -0.232898131746E+04    0.23255E-02   -0.14567E-01  4512   0.335E-01    0.129E-01
RMM:   2    -0.232898356604E+04   -0.22486E-02   -0.23300E-02  6186   0.705E-02    0.940E-02
RMM:   3    -0.232898371812E+04   -0.15208E-03   -0.22185E-03  3936   0.271E-02    0.611E-02
RMM:   4    -0.232898369887E+04    0.19250E-04   -0.24406E-04  2983   0.704E-03    0.344E-02
RMM:   5    -0.232898368632E+04    0.12546E-04   -0.39498E-05  2929   0.467E-03    0.245E-02
RMM:   6    -0.232898368384E+04    0.24801E-05   -0.30761E-05  2916   0.446E-03
 140 F= -.23499518E+04 E0= -.23499518E+04  d E =-.853090E-03  mag=     7.0000
       N       E                     dE             d eps       ncg     rms          rms(c)
DAV:   1    -0.232897976333E+04    0.39230E-02   -0.27214E-01  4480   0.470E-01    0.184E-01
RMM:   2    -0.232898415803E+04   -0.43947E-02   -0.45655E-02  5998   0.966E-02    0.126E-01
RMM:   3    -0.232898447915E+04   -0.32113E-03   -0.44465E-03  4786   0.419E-02    0.817E-02
RMM:   4    -0.232898444368E+04    0.35475E-04   -0.47113E-04  3064   0.919E-03    0.456E-02
RMM:   5    -0.232898441542E+04    0.28255E-04   -0.70708E-05  2991   0.628E-03    0.223E-02
RMM:   6    -0.232898441471E+04    0.71077E-06   -0.45449E-05  3060   0.560E-03
 141 F= -.23499526E+04 E0= -.23499526E+04  d E =-.789189E-03  mag=     7.0000
       N       E                     dE             d eps       ncg     rms          rms(c)
DAV:   1    -0.232898131452E+04    0.31009E-02   -0.18813E-01  4512   0.390E-01    0.153E-01
RMM:   2    -0.232898435443E+04   -0.30399E-02   -0.31588E-02  6115   0.811E-02    0.104E-01
RMM:   3    -0.232898458027E+04   -0.22584E-03   -0.30799E-03  4371   0.329E-02    0.695E-02
RMM:   4    -0.232898455503E+04    0.25247E-04   -0.32692E-04  2991   0.786E-03    0.393E-02
RMM:   5    -0.232898453918E+04    0.15843E-04   -0.49362E-05  2931   0.508E-03    0.264E-02
RMM:   6    -0.232898453777E+04    0.14157E-05   -0.39808E-05  2923   0.486E-03
 142 F= -.23499528E+04 E0= -.23499528E+04  d E =-.959743E-03  mag=     7.0000
       N       E                     dE             d eps       ncg     rms          rms(c)
DAV:   1    -0.232898087475E+04    0.36644E-02   -0.23761E-01  4464   0.441E-01    0.175E-01
RMM:   2    -0.232898488869E+04   -0.40139E-02   -0.41941E-02  6038   0.932E-02    0.119E-01
RMM:   3    -0.232898520081E+04   -0.31212E-03   -0.42161E-03  4762   0.406E-02    0.782E-02
RMM:   4    -0.232898516799E+04    0.32817E-04   -0.43018E-04  3051   0.902E-03    0.444E-02
RMM:   5    -0.232898513929E+04    0.28705E-04   -0.71168E-05  3015   0.652E-03    0.218E-02
RMM:   6    -0.232898513613E+04    0.31583E-05   -0.40972E-05  3042   0.575E-03
 143 F= -.23499535E+04 E0= -.23499535E+04  d E =-.704638E-03  mag=     7.0000
       N       E                     dE             d eps       ncg     rms          rms(c)
DAV:   1    -0.232898446132E+04    0.67796E-03   -0.36878E-02  4704   0.174E-01    0.704E-02
RMM:   2    -0.232898509446E+04   -0.63313E-03   -0.65854E-03  6153   0.391E-02    0.546E-02
RMM:   3    -0.232898514145E+04   -0.46990E-04   -0.69152E-04  3071   0.154E-02    0.360E-02
RMM:   4    -0.232898513359E+04    0.78557E-05   -0.70236E-05  2935   0.454E-03
 144 F= -.23499535E+04 E0= -.23499535E+04  d E =-.743758E-03  mag=     7.0000
       N       E                     dE             d eps       ncg     rms          rms(c)
DAV:   1    -0.232898216959E+04    0.29719E-02   -0.20413E-01  4464   0.409E-01    0.159E-01
RMM:   2    -0.232898540771E+04   -0.32381E-02   -0.33545E-02  5959   0.843E-02    0.113E-01
RMM:   3    -0.232898564249E+04   -0.23477E-03   -0.32803E-03  4573   0.364E-02    0.803E-02
RMM:   4    -0.232898560169E+04    0.40804E-04   -0.34720E-04  3045   0.854E-03    0.433E-02
RMM:   5    -0.232898558412E+04    0.17565E-04   -0.68181E-05  2983   0.595E-03    0.342E-02
RMM:   6    -0.232898557721E+04    0.69075E-05   -0.49944E-05  2911   0.575E-03
 145 F= -.23499541E+04 E0= -.23499541E+04  d E =-.577064E-03  mag=     7.0000
       N       E                     dE             d eps       ncg     rms          rms(c)
DAV:   1    -0.232898397681E+04    0.16073E-02   -0.90568E-02  4480   0.273E-01    0.108E-01
RMM:   2    -0.232898542062E+04   -0.14438E-02   -0.15062E-02  6087   0.572E-02    0.719E-02
RMM:   3    -0.232898553049E+04   -0.10986E-03   -0.14721E-03  3651   0.238E-02    0.497E-02
RMM:   4    -0.232898551742E+04    0.13065E-04   -0.15546E-04  2955   0.608E-03    0.269E-02
RMM:   5    -0.232898550770E+04    0.97236E-05   -0.26423E-05  2904   0.420E-03
 146 F= -.23499541E+04 E0= -.23499541E+04  d E =-.595897E-03  mag=     7.0000
       N       E                     dE             d eps       ncg     rms          rms(c)
DAV:   1    -0.232898359259E+04    0.19248E-02   -0.13551E-01  4480   0.316E-01    0.122E-01
RMM:   2    -0.232898574199E+04   -0.21494E-02   -0.22257E-02  6225   0.664E-02    0.885E-02
RMM:   3    -0.232898590160E+04   -0.15960E-03   -0.21320E-03  3742   0.267E-02    0.593E-02
RMM:   4    -0.232898588528E+04    0.16320E-04   -0.24260E-04  2971   0.697E-03    0.333E-02
RMM:   5    -0.232898587616E+04    0.91210E-05   -0.34505E-05  2910   0.416E-03
 147 F= -.23499546E+04 E0= -.23499546E+04  d E =-.460845E-03  mag=     7.0000
       N       E                     dE             d eps       ncg     rms          rms(c)
DAV:   1    -0.232897986142E+04    0.60239E-02   -0.36431E-01  4464   0.518E-01    0.201E-01
RMM:   2    -0.232898570034E+04   -0.58389E-02   -0.59862E-02  6146   0.108E-01    0.173E-01
RMM:   3    -0.232898604524E+04   -0.34490E-03   -0.57849E-03  4948   0.441E-02    0.104E-01
RMM:   4    -0.232898598597E+04    0.59265E-04   -0.64974E-04  3144   0.103E-02    0.535E-02
RMM:   5    -0.232898596134E+04    0.24632E-04   -0.95217E-05  3076   0.662E-03    0.482E-02
RMM:   6    -0.232898594424E+04    0.17097E-04   -0.79984E-05  2967   0.646E-03    0.304E-02
RMM:   7    -0.232898593801E+04    0.62342E-05   -0.24706E-05  2938   0.489E-03
 148 F= -.23499548E+04 E0= -.23499548E+04  d E =-.670827E-03  mag=     7.0000
       N       E                     dE             d eps       ncg     rms          rms(c)
DAV:   1    -0.232898308892E+04    0.28553E-02   -0.20510E-01  4480   0.391E-01    0.155E-01
RMM:   2    -0.232898638238E+04   -0.32935E-02   -0.34044E-02  6202   0.836E-02    0.123E-01
RMM:   3    -0.232898658952E+04   -0.20714E-03   -0.32281E-03  4459   0.346E-02    0.779E-02
RMM:   4    -0.232898655842E+04    0.31098E-04   -0.38653E-04  3028   0.836E-03    0.381E-02
RMM:   5    -0.232898653578E+04    0.22644E-04   -0.49771E-05  2969   0.549E-03    0.208E-02
RMM:   6    -0.232898653635E+04   -0.57017E-06   -0.40959E-05  2973   0.541E-03
 149 F= -.23499555E+04 E0= -.23499555E+04  d E =-.724469E-03  mag=     7.0000
       N       E                     dE             d eps       ncg     rms          rms(c)
DAV:   1    -0.232898309790E+04    0.34379E-02   -0.20472E-01  4480   0.391E-01    0.155E-01
RMM:   2    -0.232898637578E+04   -0.32779E-02   -0.34034E-02  6165   0.830E-02    0.115E-01
RMM:   3    -0.232898660722E+04   -0.23144E-03   -0.32537E-03  4420   0.333E-02    0.765E-02
RMM:   4    -0.232898657703E+04    0.30189E-04   -0.38468E-04  3022   0.815E-03    0.397E-02
RMM:   5    -0.232898655726E+04    0.19769E-04   -0.51134E-05  2955   0.531E-03    0.280E-02
RMM:   6    -0.232898655447E+04    0.27934E-05   -0.43925E-05  2922   0.526E-03
 150 F= -.23499557E+04 E0= -.23499557E+04  d E =-.866480E-03  mag=     7.0000
