       N       E                     dE             d eps       ncg     rms          rms(c)
DAV:   1     0.128768797053E+05    0.12877E+05   -0.83395E+05  4480   0.144E+03
DAV:   2    -0.106530556519E+04   -0.13942E+05   -0.13350E+05  5040   0.329E+02
DAV:   3    -0.247514354818E+04   -0.14098E+04   -0.13958E+04  5360   0.112E+02
DAV:   4    -0.251686857448E+04   -0.41725E+02   -0.41537E+02  6480   0.277E+01
DAV:   5    -0.251762786805E+04   -0.75929E+00   -0.75794E+00  5540   0.298E+00    0.170E+02
RMM:   6    -0.148858017654E+04    0.10290E+04   -0.19357E+03  4426   0.383E+01    0.721E+01
RMM:   7    -0.165343974419E+04   -0.16486E+03   -0.29074E+02  5029   0.143E+01    0.489E+01
RMM:   8    -0.171352179361E+04   -0.60082E+02   -0.50891E+01  5285   0.748E+00    0.428E+01
RMM:   9    -0.179145542355E+04   -0.77934E+02   -0.70198E+01  5063   0.784E+00    0.338E+01
RMM:  10    -0.192559132772E+04   -0.13414E+03   -0.59568E+01  5313   0.747E+00    0.196E+01
RMM:  11    -0.202382270731E+04   -0.98231E+02   -0.39520E+01  5079   0.516E+00    0.189E+01
RMM:  12    -0.207875842861E+04   -0.54936E+02   -0.20903E+01  5065   0.362E+00    0.149E+01
RMM:  13    -0.215539008364E+04   -0.76632E+02   -0.39432E+01  4792   0.485E+00    0.123E+01
RMM:  14    -0.224449446055E+04   -0.89104E+02   -0.64382E+01  4586   0.591E+00    0.948E+00
RMM:  15    -0.229450458005E+04   -0.50010E+02   -0.46414E+01  4443   0.490E+00    0.457E+00
RMM:  16    -0.230669785451E+04   -0.12193E+02   -0.15269E+01  5008   0.309E+00    0.327E+00
RMM:  17    -0.230958740343E+04   -0.28895E+01   -0.34834E+00  5267   0.116E+00    0.155E+00
RMM:  18    -0.231126153094E+04   -0.16741E+01   -0.13289E+00  4814   0.718E-01    0.961E-01
RMM:  19    -0.231158448796E+04   -0.32296E+00   -0.46425E-01  4980   0.411E-01    0.588E-01
RMM:  20    -0.231171576050E+04   -0.13127E+00   -0.16389E-01  4798   0.202E-01    0.322E-01
RMM:  21    -0.231176293813E+04   -0.47178E-01   -0.41958E-02  4746   0.124E-01    0.221E-01
RMM:  22    -0.231178869207E+04   -0.25754E-01   -0.14932E-02  4538   0.818E-02    0.136E-01
RMM:  23    -0.231180144337E+04   -0.12751E-01   -0.45023E-03  4643   0.546E-02    0.899E-02
RMM:  24    -0.231181152673E+04   -0.10083E-01   -0.30263E-03  4452   0.391E-02    0.514E-02
RMM:  25    -0.231181736679E+04   -0.58401E-02   -0.16191E-03  4480   0.318E-02    0.337E-02
RMM:  26    -0.231182043309E+04   -0.30663E-02   -0.10492E-03  4244   0.226E-02    0.207E-02
RMM:  27    -0.231182148783E+04   -0.10547E-02   -0.39198E-04  4072   0.167E-02    0.115E-02
RMM:  28    -0.231182177708E+04   -0.28925E-03   -0.11417E-04  3807   0.858E-03    0.810E-03
RMM:  29    -0.231182193533E+04   -0.15825E-03   -0.38099E-05  3335   0.595E-03    0.387E-03
RMM:  30    -0.231182199777E+04   -0.62443E-04   -0.14546E-05  2930   0.393E-03    0.285E-03
RMM:  31    -0.231182202985E+04   -0.32079E-04   -0.86927E-06  2835   0.312E-03    0.163E-03
RMM:  32    -0.231182204133E+04   -0.11484E-04   -0.57753E-06  2707   0.279E-03    0.970E-04
RMM:  33    -0.231182204369E+04   -0.23590E-05   -0.27331E-06  2398   0.201E-03
   1 F= -.23326078E+04 E0= -.23326078E+04  d E =-.134785E-12  mag=     5.0000
       N       E                     dE             d eps       ncg     rms          rms(c)
DAV:   1    -0.231181703428E+04    0.50071E-02   -0.20672E+00  4300   0.557E-01    0.270E-01
RMM:   2    -0.231181673813E+04    0.29614E-03   -0.13020E-02  3821   0.563E-02    0.170E-01
RMM:   3    -0.231181697624E+04   -0.23810E-03   -0.29135E-03  4074   0.235E-02    0.259E-01
RMM:   4    -0.231181637507E+04    0.60117E-03   -0.11139E-03  4341   0.136E-02    0.893E-02
RMM:   5    -0.231181633311E+04    0.41959E-04   -0.12963E-04  2992   0.624E-03    0.287E-02
RMM:   6    -0.231181633332E+04   -0.20418E-06   -0.35417E-05  2642   0.326E-03
   2 F= -.23326021E+04 E0= -.23326021E+04  d E =-.651613E-13  mag=     5.0000
       N       E                     dE             d eps       ncg     rms          rms(c)
DAV:   1    -0.231181295734E+04    0.33758E-02   -0.82320E+00  4440   0.112E+00    0.538E-01
RMM:   2    -0.231181154942E+04    0.14079E-02   -0.50419E-02  4178   0.104E-01    0.328E-01
RMM:   3    -0.231181194505E+04   -0.39563E-03   -0.10953E-02  4535   0.469E-02    0.468E-01
RMM:   4    -0.231181008119E+04    0.18639E-02   -0.42987E-03  5123   0.247E-02    0.202E-01
RMM:   5    -0.231180983247E+04    0.24871E-03   -0.50629E-04  3431   0.115E-02    0.647E-02
RMM:   6    -0.231180980942E+04    0.23050E-04   -0.12718E-04  2989   0.558E-03    0.487E-02
RMM:   7    -0.231180979309E+04    0.16337E-04   -0.44254E-05  2833   0.390E-03    0.215E-02
RMM:   8    -0.231180979265E+04    0.43455E-06   -0.11573E-05  2689   0.258E-03
   3 F= -.23325956E+04 E0= -.23325956E+04  d E =-.392428E-14  mag=     5.0000
       N       E                     dE             d eps       ncg     rms          rms(c)
DAV:   1    -0.231183936839E+04   -0.29575E-01   -0.41065E+00  4320   0.838E-01    0.382E-01
RMM:   2    -0.231183863371E+04    0.73468E-03   -0.23182E-02  3908   0.772E-02    0.230E-01
RMM:   3    -0.231183878613E+04   -0.15242E-03   -0.50439E-03  4424   0.319E-02    0.317E-01
RMM:   4    -0.231183799177E+04    0.79437E-03   -0.17444E-03  4662   0.165E-02    0.140E-01
RMM:   5    -0.231183787355E+04    0.11822E-03   -0.26687E-04  3310   0.817E-03    0.246E-02
RMM:   6    -0.231183786994E+04    0.36100E-05   -0.36803E-05  2808   0.387E-03
   4 F= -.23326237E+04 E0= -.23326237E+04  d E =-.215698E-11  mag=     5.0000
       N       E                     dE             d eps       ncg     rms          rms(c)
DAV:   1    -0.231177302685E+04    0.64847E-01   -0.85842E+00  4480   0.134E+00    0.621E-01
RMM:   2    -0.231177122155E+04    0.18053E-02   -0.56382E-02  4119   0.124E-01    0.375E-01
RMM:   3    -0.231177127334E+04   -0.51790E-04   -0.14355E-02  5059   0.506E-02    0.472E-01
RMM:   4    -0.231176914612E+04    0.21272E-02   -0.60184E-03  5181   0.289E-02    0.200E-01
RMM:   5    -0.231176895376E+04    0.19236E-03   -0.76986E-04  3644   0.112E-02    0.134E-01
RMM:   6    -0.231176878917E+04    0.16460E-03   -0.20569E-04  2898   0.635E-03    0.372E-02
RMM:   7    -0.231176876447E+04    0.24697E-04   -0.78400E-05  3029   0.370E-03    0.189E-02
RMM:   8    -0.231176876223E+04    0.22387E-05   -0.21130E-05  2762   0.335E-03
   5 F= -.23325545E+04 E0= -.23325545E+04  d E =-.167453E-13  mag=     5.0000
       N       E                     dE             d eps       ncg     rms          rms(c)
DAV:   1    -0.231181730471E+04   -0.48540E-01   -0.43189E+00  4380   0.915E-01    0.406E-01
RMM:   2    -0.231181694251E+04    0.36220E-03   -0.27937E-02  3812   0.831E-02    0.253E-01
RMM:   3    -0.231181650543E+04    0.43709E-03   -0.56462E-03  4391   0.339E-02    0.269E-01
RMM:   4    -0.231181631859E+04    0.18683E-03   -0.26682E-03  4681   0.194E-02    0.220E-01
RMM:   5    -0.231181590292E+04    0.41567E-03   -0.37371E-04  3278   0.116E-02    0.328E-02
RMM:   6    -0.231181589908E+04    0.38453E-05   -0.75954E-05  2760   0.419E-03
   6 F= -.23326020E+04 E0= -.23326020E+04  d E =-.489046E-12  mag=     5.0000
       N       E                     dE             d eps       ncg     rms          rms(c)
DAV:   1    -0.231179990697E+04    0.15996E-01   -0.85313E+00  4360   0.117E+00    0.588E-01
RMM:   2    -0.231179854270E+04    0.13643E-02   -0.67233E-02  4129   0.127E-01    0.358E-01
RMM:   3    -0.231179783949E+04    0.70322E-03   -0.10725E-02  4596   0.473E-02    0.374E-01
RMM:   4    -0.231179742319E+04    0.41630E-03   -0.52957E-03  4961   0.273E-02    0.344E-01
RMM:   5    -0.231179638588E+04    0.10373E-02   -0.11142E-03  4033   0.174E-02    0.671E-02
RMM:   6    -0.231179638401E+04    0.18679E-05   -0.27139E-04  3157   0.713E-03    0.635E-02
RMM:   7    -0.231179634074E+04    0.43267E-04   -0.70797E-05  2832   0.451E-03    0.208E-02
RMM:   8    -0.231179634088E+04   -0.13516E-06   -0.22064E-05  2815   0.264E-03
   7 F= -.23325819E+04 E0= -.23325819E+04  d E =-.314570E-15  mag=     5.0000
       N       E                     dE             d eps       ncg     rms          rms(c)
DAV:   1    -0.231182391680E+04   -0.27576E-01   -0.24466E+00  4340   0.653E-01    0.325E-01
RMM:   2    -0.231182426167E+04   -0.34487E-03   -0.19530E-02  4037   0.691E-02    0.219E-01
RMM:   3    -0.231182451298E+04   -0.25130E-03   -0.37015E-03  4331   0.259E-02    0.290E-01
RMM:   4    -0.231182385259E+04    0.66039E-03   -0.17832E-03  4512   0.163E-02    0.143E-01
RMM:   5    -0.231182374559E+04    0.10700E-03   -0.27135E-04  3163   0.798E-03    0.684E-02
RMM:   6    -0.231182370288E+04    0.42706E-04   -0.91998E-05  2746   0.494E-03    0.280E-02
RMM:   7    -0.231182369521E+04    0.76738E-05   -0.23662E-05  2609   0.253E-03
   8 F= -.23326094E+04 E0= -.23326094E+04  d E =-.167641E-15  mag=     5.0000
       N       E                     dE             d eps       ncg     rms          rms(c)
DAV:   1    -0.231181896412E+04    0.47388E-02   -0.12140E+00  4460   0.460E-01    0.351E-01
RMM:   2    -0.231181912333E+04   -0.15921E-03   -0.72275E-03  4579   0.422E-02    0.220E-01
RMM:   3    -0.231182005798E+04   -0.93465E-03   -0.24124E-03  4548   0.192E-02    0.331E-01
RMM:   4    -0.231181895573E+04    0.11022E-02   -0.12513E-03  4162   0.142E-02    0.849E-02
RMM:   5    -0.231181898221E+04   -0.26478E-04   -0.26876E-04  3017   0.681E-03    0.822E-02
RMM:   6    -0.231181892151E+04    0.60695E-04   -0.65668E-05  2631   0.413E-03    0.146E-02
RMM:   7    -0.231181891930E+04    0.22173E-05   -0.87891E-06  2481   0.176E-03
   9 F= -.23326049E+04 E0= -.23326049E+04  d E =-.208669E-15  mag=     5.0000
       N       E                     dE             d eps       ncg     rms          rms(c)
DAV:   1    -0.231183023927E+04   -0.11318E-01   -0.62184E-01  4760   0.330E-01    0.310E-01
RMM:   2    -0.231182962154E+04    0.61773E-03   -0.65752E-03  4127   0.361E-02    0.202E-01
RMM:   3    -0.231183004569E+04   -0.42415E-03   -0.20610E-03  4318   0.206E-02    0.290E-01
RMM:   4    -0.231182921866E+04    0.82703E-03   -0.94994E-04  3842   0.133E-02    0.643E-02
RMM:   5    -0.231182923741E+04   -0.18743E-04   -0.19673E-04  3096   0.619E-03    0.652E-02
RMM:   6    -0.231182920467E+04    0.32733E-04   -0.74705E-05  2666   0.450E-03    0.316E-02
RMM:   7    -0.231182919619E+04    0.84891E-05   -0.10211E-05  2430   0.223E-03
  10 F= -.23326154E+04 E0= -.23326154E+04  d E =-.203357E-15  mag=     5.0000
       N       E                     dE             d eps       ncg     rms          rms(c)
DAV:   1    -0.231180042250E+04    0.28782E-01   -0.13268E+00  4900   0.485E-01    0.575E-01
RMM:   2    -0.231179574407E+04    0.46784E-02   -0.22287E-02  4318   0.617E-02    0.348E-01
RMM:   3    -0.231179654838E+04   -0.80431E-03   -0.60027E-03  4706   0.384E-02    0.503E-01
RMM:   4    -0.231179440048E+04    0.21479E-02   -0.28976E-03  4681   0.219E-02    0.168E-01
RMM:   5    -0.231179446128E+04   -0.60798E-04   -0.84364E-04  3840   0.120E-02    0.164E-01
RMM:   6    -0.231179419617E+04    0.26510E-03   -0.40188E-04  3353   0.869E-03    0.511E-02
RMM:   7    -0.231179417160E+04    0.24578E-04   -0.40165E-05  2751   0.384E-03    0.143E-02
RMM:   8    -0.231179416977E+04    0.18249E-05   -0.10295E-05  2571   0.216E-03
  11 F= -.23325795E+04 E0= -.23325795E+04  d E =-.109742E-15  mag=     5.0000
       N       E                     dE             d eps       ncg     rms          rms(c)
DAV:   1    -0.231181211188E+04   -0.17940E-01   -0.63016E-01  4500   0.326E-01    0.260E-01
RMM:   2    -0.231181215458E+04   -0.42692E-04   -0.45168E-03  4443   0.287E-02    0.170E-01
RMM:   3    -0.231181260073E+04   -0.44616E-03   -0.13692E-03  3967   0.155E-02    0.256E-01
RMM:   4    -0.231181201389E+04    0.58684E-03   -0.63592E-04  3596   0.111E-02    0.587E-02
RMM:   5    -0.231181205108E+04   -0.37194E-04   -0.17711E-04  2998   0.586E-03    0.710E-02
RMM:   6    -0.231181200035E+04    0.50735E-04   -0.51293E-05  2633   0.393E-03    0.119E-02
RMM:   7    -0.231181199891E+04    0.14406E-05   -0.71721E-06  2366   0.170E-03
  12 F= -.23325977E+04 E0= -.23325977E+04  d E =-.689204E-16  mag=     5.0000
       N       E                     dE             d eps       ncg     rms          rms(c)
DAV:   1    -0.231182439550E+04   -0.12395E-01   -0.12749E+00  4860   0.466E-01    0.450E-01
RMM:   2    -0.231182269733E+04    0.16982E-02   -0.13714E-02  4028   0.541E-02    0.256E-01
RMM:   3    -0.231182271765E+04   -0.20323E-04   -0.27055E-03  4104   0.276E-02    0.276E-01
RMM:   4    -0.231182235239E+04    0.36526E-03   -0.16310E-03  4299   0.156E-02    0.183E-01
RMM:   5    -0.231182208041E+04    0.27198E-03   -0.27637E-04  3412   0.892E-03    0.287E-02
RMM:   6    -0.231182208442E+04   -0.40103E-05   -0.54001E-05  2795   0.402E-03
  13 F= -.23326080E+04 E0= -.23326080E+04  d E =-.159457E-15  mag=     5.0000
       N       E                     dE             d eps       ncg     rms          rms(c)
DAV:   1    -0.231183236901E+04   -0.10289E-01   -0.63619E-01  4540   0.341E-01    0.298E-01
RMM:   2    -0.231183208864E+04    0.28037E-03   -0.54317E-03  3962   0.338E-02    0.178E-01
RMM:   3    -0.231183211265E+04   -0.24011E-04   -0.17318E-03  4167   0.191E-02    0.184E-01
RMM:   4    -0.231183181734E+04    0.29531E-03   -0.34703E-04  3263   0.857E-03    0.368E-02
RMM:   5    -0.231183180207E+04    0.15265E-04   -0.31082E-05  2717   0.347E-03    0.127E-02
RMM:   6    -0.231183179846E+04    0.36152E-05   -0.22931E-05  2576   0.226E-03
  14 F= -.23326179E+04 E0= -.23326179E+04  d E =-.167654E-13  mag=     5.0000
       N       E                     dE             d eps       ncg     rms          rms(c)
DAV:   1    -0.231180729818E+04    0.24504E-01   -0.12822E+00  4520   0.471E-01    0.464E-01
RMM:   2    -0.231180558820E+04    0.17100E-02   -0.13050E-02  4628   0.496E-02    0.267E-01
RMM:   3    -0.231180572255E+04   -0.13435E-03   -0.25461E-03  4292   0.220E-02    0.290E-01
RMM:   4    -0.231180530111E+04    0.42143E-03   -0.15678E-03  4183   0.157E-02    0.192E-01
RMM:   5    -0.231180507887E+04    0.22224E-03   -0.38922E-04  3424   0.920E-03    0.695E-02
RMM:   6    -0.231180504655E+04    0.32325E-04   -0.12919E-04  2798   0.575E-03    0.443E-02
RMM:   7    -0.231180502456E+04    0.21991E-04   -0.26461E-05  2573   0.313E-03    0.102E-02
RMM:   8    -0.231180502385E+04    0.70212E-06   -0.67627E-06  2359   0.163E-03
  15 F= -.23325906E+04 E0= -.23325906E+04  d E =-.669273E-16  mag=     5.0000
       N       E                     dE             d eps       ncg     rms          rms(c)
DAV:   1    -0.231177819705E+04    0.26828E-01   -0.64192E-01  4320   0.330E-01    0.281E-01
RMM:   2    -0.231177822775E+04   -0.30695E-04   -0.45262E-03  4494   0.305E-02    0.171E-01
RMM:   3    -0.231177871354E+04   -0.48579E-03   -0.12352E-03  3883   0.144E-02    0.254E-01
RMM:   4    -0.231177812976E+04    0.58377E-03   -0.56635E-04  3366   0.105E-02    0.402E-02
RMM:   5    -0.231177812602E+04    0.37480E-05   -0.79782E-05  2799   0.423E-03
  16 F= -.23325635E+04 E0= -.23325635E+04  d E =-.110171E-13  mag=     5.0000
       N       E                     dE             d eps       ncg     rms          rms(c)
DAV:   1    -0.231185201341E+04   -0.73884E-01   -0.13383E+00  4700   0.475E-01    0.546E-01
RMM:   2    -0.231184843705E+04    0.35764E-02   -0.20252E-02  4144   0.566E-02    0.343E-01
RMM:   3    -0.231184955368E+04   -0.11166E-02   -0.57685E-03  4542   0.404E-02    0.546E-01
RMM:   4    -0.231184714127E+04    0.24124E-02   -0.26940E-03  4646   0.213E-02    0.149E-01
RMM:   5    -0.231184717955E+04   -0.38284E-04   -0.74018E-04  3727   0.117E-02    0.132E-01
RMM:   6    -0.231184701237E+04    0.16718E-03   -0.34033E-04  3243   0.803E-03    0.531E-02
RMM:   7    -0.231184698235E+04    0.30022E-04   -0.38510E-05  2702   0.375E-03    0.136E-02
RMM:   8    -0.231184698072E+04    0.16217E-05   -0.98321E-06  2509   0.198E-03
  17 F= -.23326332E+04 E0= -.23326332E+04  d E =-.811921E-14  mag=     5.0000
       N       E                     dE             d eps       ncg     rms          rms(c)
DAV:   1    -0.231181016966E+04    0.36813E-01   -0.69586E-01  4540   0.351E-01    0.438E-01
RMM:   2    -0.231180753682E+04    0.26328E-02   -0.13336E-02  3993   0.479E-02    0.252E-01
RMM:   3    -0.231180779800E+04   -0.26118E-03   -0.29242E-03  4085   0.294E-02    0.351E-01
RMM:   4    -0.231180688146E+04    0.91654E-03   -0.16062E-03  4266   0.160E-02    0.145E-01
RMM:   5    -0.231180671390E+04    0.16755E-03   -0.28349E-04  3355   0.823E-03    0.419E-02
RMM:   6    -0.231180673593E+04   -0.22024E-04   -0.11846E-04  2789   0.563E-03    0.579E-02
RMM:   7    -0.231180669680E+04    0.39130E-04   -0.35199E-05  2560   0.355E-03    0.969E-03
RMM:   8    -0.231180669591E+04    0.88931E-06   -0.68870E-06  2389   0.163E-03
  18 F= -.23325923E+04 E0= -.23325923E+04  d E =-.383681E-14  mag=     5.0000
       N       E                     dE             d eps       ncg     rms          rms(c)
DAV:   1    -0.231182892398E+04   -0.22227E-01   -0.13082E+00  4560   0.480E-01    0.468E-01
RMM:   2    -0.231182722744E+04    0.16965E-02   -0.13730E-02  3897   0.538E-02    0.268E-01
RMM:   3    -0.231182692149E+04    0.30595E-03   -0.27762E-03  3973   0.279E-02    0.189E-01
RMM:   4    -0.231182712577E+04   -0.20428E-03   -0.16470E-03  4349   0.157E-02    0.234E-01
RMM:   5    -0.231182663520E+04    0.49057E-03   -0.37378E-04  3391   0.918E-03    0.311E-02
RMM:   6    -0.231182664271E+04   -0.75170E-05   -0.85634E-05  2845   0.452E-03
  19 F= -.23326126E+04 E0= -.23326126E+04  d E =-.130884E-15  mag=     5.0000
       N       E                     dE             d eps       ncg     rms          rms(c)
DAV:   1    -0.231180102223E+04    0.25613E-01   -0.61242E-01  4520   0.338E-01    0.258E-01
RMM:   2    -0.231180091770E+04    0.10453E-03   -0.58448E-03  3862   0.392E-02    0.178E-01
RMM:   3    -0.231180130650E+04   -0.38880E-03   -0.18287E-03  4038   0.207E-02    0.256E-01
RMM:   4    -0.231180065841E+04    0.64809E-03   -0.88171E-04  4209   0.122E-02    0.768E-02
RMM:   5    -0.231180067470E+04   -0.16287E-04   -0.19223E-04  2940   0.606E-03    0.789E-02
RMM:   6    -0.231180061591E+04    0.58782E-04   -0.62520E-05  2678   0.421E-03    0.167E-02
RMM:   7    -0.231180061405E+04    0.18609E-05   -0.11540E-05  2556   0.193E-03
  20 F= -.23325861E+04 E0= -.23325861E+04  d E =-.148862E-14  mag=     5.0000
       N       E                     dE             d eps       ncg     rms          rms(c)
DAV:   1    -0.231184153362E+04   -0.40918E-01   -0.11282E+00  4420   0.404E-01    0.277E-01
RMM:   2    -0.231184188323E+04   -0.34961E-03   -0.74770E-03  4707   0.453E-02    0.225E-01
RMM:   3    -0.231184204007E+04   -0.15684E-03   -0.21192E-03  4434   0.193E-02    0.241E-01
RMM:   4    -0.231184154059E+04    0.49948E-03   -0.71019E-04  4155   0.116E-02    0.102E-01
RMM:   5    -0.231184157809E+04   -0.37497E-04   -0.28524E-04  3156   0.706E-03    0.107E-01
RMM:   6    -0.231184147676E+04    0.10133E-03   -0.92660E-05  2816   0.544E-03    0.143E-02
RMM:   7    -0.231184147737E+04   -0.61456E-06   -0.19951E-05  2660   0.232E-03
  21 F= -.23326276E+04 E0= -.23326276E+04  d E =-.289386E-13  mag=     5.0000
       N       E                     dE             d eps       ncg     rms          rms(c)
DAV:   1    -0.231182433345E+04    0.17143E-01   -0.56350E-01  4440   0.297E-01    0.202E-01
RMM:   2    -0.231182496406E+04   -0.63061E-03   -0.50222E-03  4169   0.370E-02    0.257E-01
RMM:   3    -0.231182437304E+04    0.59103E-03   -0.10502E-03  4088   0.150E-02    0.113E-01
RMM:   4    -0.231182433408E+04    0.38955E-04   -0.28818E-04  3335   0.800E-03    0.881E-02
RMM:   5    -0.231182433641E+04   -0.23275E-05   -0.18342E-04  2928   0.636E-03    0.751E-02
RMM:   6    -0.231182429063E+04    0.45778E-04   -0.50503E-05  2808   0.423E-03    0.157E-02
RMM:   7    -0.231182428911E+04    0.15258E-05   -0.75609E-06  2601   0.230E-03
  22 F= -.23326099E+04 E0= -.23326099E+04  d E =-.961921E-14  mag=     5.0000
       N       E                     dE             d eps       ncg     rms          rms(c)
DAV:   1    -0.231181031303E+04    0.13978E-01   -0.11343E+00  4420   0.428E-01    0.336E-01
RMM:   2    -0.231181440891E+04   -0.40959E-02   -0.17580E-02  4925   0.651E-02    0.643E-01
RMM:   3    -0.231180997396E+04    0.44350E-02   -0.35489E-03  4996   0.270E-02    0.154E-01
RMM:   4    -0.231181020906E+04   -0.23510E-03   -0.11740E-03  4032   0.130E-02    0.220E-01
RMM:   5    -0.231180987018E+04    0.33888E-03   -0.57956E-04  3529   0.995E-03    0.704E-02
RMM:   6    -0.231180982339E+04    0.46798E-04   -0.70994E-05  3008   0.496E-03    0.200E-02
RMM:   7    -0.231180981993E+04    0.34563E-05   -0.16572E-05  2721   0.269E-03
  23 F= -.23325957E+04 E0= -.23325957E+04  d E =-.360024E-14  mag=     5.0000
       N       E                     dE             d eps       ncg     rms          rms(c)
DAV:   1    -0.231183112304E+04   -0.21300E-01   -0.58870E-01  4440   0.293E-01    0.251E-01
RMM:   2    -0.231183246097E+04   -0.13379E-02   -0.74704E-03  4644   0.407E-02    0.370E-01
RMM:   3    -0.231183107941E+04    0.13816E-02   -0.17061E-03  4383   0.187E-02    0.129E-01
RMM:   4    -0.231183104278E+04    0.36631E-04   -0.50873E-04  3930   0.940E-03    0.126E-01
RMM:   5    -0.231183097159E+04    0.71196E-04   -0.27561E-04  3088   0.715E-03    0.742E-02
RMM:   6    -0.231183093084E+04    0.40752E-04   -0.42109E-05  2856   0.420E-03    0.198E-02
RMM:   7    -0.231183092745E+04    0.33891E-05   -0.11363E-05  2653   0.244E-03
  24 F= -.23326166E+04 E0= -.23326166E+04  d E =-.484427E-14  mag=     5.0000
       N       E                     dE             d eps       ncg     rms          rms(c)
DAV:   1    -0.231181091485E+04    0.20016E-01   -0.11478E+00  4440   0.408E-01    0.300E-01
RMM:   2    -0.231181154532E+04   -0.63047E-03   -0.74165E-03  4089   0.421E-02    0.209E-01
RMM:   3    -0.231181170416E+04   -0.15883E-03   -0.16465E-03  4488   0.180E-02    0.242E-01
RMM:   4    -0.231181115138E+04    0.55278E-03   -0.93656E-04  4309   0.126E-02    0.849E-02
RMM:   5    -0.231181113378E+04    0.17596E-04   -0.17246E-04  3220   0.601E-03    0.468E-02
RMM:   6    -0.231181112321E+04    0.10568E-04   -0.44679E-05  2818   0.424E-03    0.329E-02
RMM:   7    -0.231181111354E+04    0.96710E-05   -0.13988E-05  2656   0.243E-03
  25 F= -.23325971E+04 E0= -.23325971E+04  d E =-.464565E-16  mag=     5.0000
