       N       E                     dE             d eps       ncg     rms          rms(c)
DAV:   1     0.128788865878E+05    0.12879E+05   -0.83601E+05  4504   0.144E+03
DAV:   2    -0.106082203369E+04   -0.13940E+05   -0.13336E+05  5080   0.330E+02
DAV:   3    -0.247793933469E+04   -0.14171E+04   -0.14019E+04  5392   0.112E+02
DAV:   4    -0.252280365972E+04   -0.44864E+02   -0.44620E+02  6768   0.295E+01
DAV:   5    -0.252357142786E+04   -0.76777E+00   -0.76649E+00  6056   0.337E+00    0.170E+02
RMM:   6    -0.149319201701E+04    0.10304E+04   -0.19450E+03  4428   0.385E+01    0.729E+01
RMM:   7    -0.166244259547E+04   -0.16925E+03   -0.30199E+02  5026   0.142E+01    0.528E+01
RMM:   8    -0.170951832415E+04   -0.47076E+02   -0.78727E+01  5240   0.812E+00    0.421E+01
RMM:   9    -0.178373602317E+04   -0.74218E+02   -0.61980E+01  4908   0.720E+00    0.339E+01
RMM:  10    -0.190777949006E+04   -0.12404E+03   -0.59909E+01  5238   0.729E+00    0.263E+01
RMM:  11    -0.199816221235E+04   -0.90383E+02   -0.34104E+01  5204   0.495E+00    0.194E+01
RMM:  12    -0.208648304787E+04   -0.88321E+02   -0.39907E+01  4750   0.487E+00    0.169E+01
RMM:  13    -0.217823538001E+04   -0.91752E+02   -0.53244E+01  4609   0.565E+00    0.123E+01
RMM:  14    -0.225353666334E+04   -0.75301E+02   -0.54466E+01  4782   0.557E+00    0.849E+00
RMM:  15    -0.229724165568E+04   -0.43705E+02   -0.38142E+01  4542   0.449E+00    0.455E+00
RMM:  16    -0.231193693804E+04   -0.14695E+02   -0.16354E+01  4816   0.293E+00    0.587E+00
RMM:  17    -0.231335400930E+04   -0.14171E+01   -0.20820E+00  5471   0.108E+00    0.586E+00
RMM:  18    -0.231347773309E+04   -0.12372E+00   -0.18733E-01  5845   0.280E-01    0.560E+00
RMM:  19    -0.231445137607E+04   -0.97364E+00   -0.22287E-01  4480   0.322E-01    0.531E+00
RMM:  20    -0.231480899010E+04   -0.35761E+00   -0.11090E-01  4493   0.205E-01    0.455E+00
RMM:  21    -0.231667927647E+04   -0.18703E+01   -0.87390E-01  4442   0.567E-01    0.232E+00
RMM:  22    -0.231740455590E+04   -0.72528E+00   -0.41045E-01  4683   0.419E-01    0.226E+00
RMM:  23    -0.231751485686E+04   -0.11030E+00   -0.77043E-02  4905   0.233E-01    0.172E+00
RMM:  24    -0.231760293140E+04   -0.88075E-01   -0.78098E-02  4465   0.137E-01    0.126E+00
RMM:  25    -0.231766514066E+04   -0.62209E-01   -0.62935E-02  4532   0.151E-01    0.883E-01
RMM:  26    -0.231768037781E+04   -0.15237E-01   -0.14348E-02  5051   0.900E-02    0.142E+00
RMM:  27    -0.231769785365E+04   -0.17476E-01   -0.12820E-02  4502   0.695E-02    0.885E-01
RMM:  28    -0.231771692096E+04   -0.19067E-01   -0.14156E-02  4443   0.820E-02    0.777E-01
RMM:  29    -0.231772793227E+04   -0.11011E-01   -0.14390E-02  4513   0.678E-02    0.745E-01
RMM:  30    -0.231772807481E+04   -0.14254E-03   -0.13597E-02  4634   0.598E-02    0.869E-01
RMM:  31    -0.231772214764E+04    0.59272E-02   -0.71036E-03  4808   0.474E-02    0.113E+00
RMM:  32    -0.231772242340E+04   -0.27576E-03   -0.63538E-04  4365   0.154E-02    0.112E+00
RMM:  33    -0.231772074505E+04    0.16784E-02   -0.51476E-04  3887   0.110E-02    0.116E+00
RMM:  34    -0.231772168018E+04   -0.93513E-03   -0.26744E-03  4589   0.298E-02    0.109E+00
RMM:  35    -0.231773138348E+04   -0.97033E-02   -0.92596E-03  4985   0.526E-02    0.849E-01
RMM:  36    -0.231774271304E+04   -0.11330E-01   -0.70451E-03  4383   0.416E-02    0.617E-01
RMM:  37    -0.231775149905E+04   -0.87860E-02   -0.51115E-03  4496   0.335E-02    0.431E-01
RMM:  38    -0.231775866244E+04   -0.71634E-02   -0.52775E-03  4822   0.380E-02    0.303E-01
RMM:  39    -0.231776179508E+04   -0.31326E-02   -0.17775E-03  4301   0.249E-02    0.330E-01
RMM:  40    -0.231776253854E+04   -0.74346E-03   -0.40055E-04  3550   0.951E-03    0.366E-01
RMM:  41    -0.231776186640E+04    0.67214E-03   -0.33814E-04  3765   0.101E-02    0.317E-01
RMM:  42    -0.231776117293E+04    0.69347E-03   -0.14849E-03  4322   0.183E-02    0.310E-01
RMM:  43    -0.231776029919E+04    0.87374E-03   -0.44192E-04  3529   0.132E-02    0.326E-01
RMM:  44    -0.231776251221E+04   -0.22130E-02   -0.72480E-04  3491   0.101E-02    0.325E-01
RMM:  45    -0.231776370934E+04   -0.11971E-02   -0.35727E-04  3082   0.800E-03    0.368E-01
RMM:  46    -0.231775835232E+04    0.53570E-02   -0.63501E-03  4237   0.279E-02    0.455E-01
RMM:  47    -0.231774801507E+04    0.10337E-01   -0.83636E-03  4256   0.350E-02    0.864E-01
RMM:  48    -0.231775549282E+04   -0.74777E-02   -0.20868E-03  3800   0.183E-02    0.612E-01
RMM:  49    -0.231775961540E+04   -0.41226E-02   -0.22970E-03  4247   0.194E-02    0.478E-01
RMM:  50    -0.231777493601E+04   -0.15321E-01   -0.24304E-02  4514   0.526E-02    0.121E+00
RMM:  51    -0.231779045829E+04   -0.15522E-01   -0.56353E-03  4082   0.341E-02    0.221E+00
RMM:  52    -0.231778939533E+04    0.10630E-02   -0.88652E-04  3659   0.182E-02    0.213E+00
RMM:  53    -0.231779302313E+04   -0.36278E-02   -0.27211E-04  3148   0.762E-03    0.233E+00
RMM:  54    -0.231779719625E+04   -0.41731E-02   -0.15945E-04  3067   0.603E-03    0.251E+00
RMM:  55    -0.231779893528E+04   -0.17390E-02   -0.56139E-05  2926   0.473E-03    0.258E+00
RMM:  56    -0.231779849706E+04    0.43821E-03   -0.17284E-05  2860   0.318E-03    0.255E+00
RMM:  57    -0.231779489525E+04    0.36018E-02   -0.94313E-05  2968   0.389E-03    0.239E+00
RMM:  58    -0.231779662958E+04   -0.17343E-02   -0.92131E-05  2993   0.523E-03    0.244E+00
RMM:  59    -0.231779221266E+04    0.44169E-02   -0.18181E-04  3058   0.567E-03    0.222E+00
RMM:  60    -0.231779109612E+04    0.11165E-02   -0.80131E-05  2962   0.515E-03    0.216E+00
RMM:  61    -0.231778650311E+04    0.45930E-02   -0.22166E-04  3039   0.560E-03    0.190E+00
RMM:  62    -0.231778979294E+04   -0.32898E-02   -0.92511E-05  2869   0.567E-03    0.209E+00
RMM:  63    -0.231778972870E+04    0.64233E-04   -0.10803E-05  2467   0.256E-03    0.208E+00
RMM:  64    -0.231778342053E+04    0.63082E-02   -0.39492E-04  3118   0.615E-03    0.169E+00
RMM:  65    -0.231777500956E+04    0.84110E-02   -0.12468E-03  3552   0.121E-02    0.109E+00
RMM:  66    -0.231776714938E+04    0.78602E-02   -0.34690E-03  4098   0.206E-02    0.456E-01
RMM:  67    -0.231776580298E+04    0.13464E-02   -0.81570E-04  3482   0.155E-02    0.385E-01
RMM:  68    -0.231776536424E+04    0.43874E-03   -0.27676E-04  3160   0.766E-03    0.361E-01
RMM:  69    -0.231776585467E+04   -0.49043E-03   -0.34386E-05  2866   0.460E-03    0.384E-01
RMM:  70    -0.231776625308E+04   -0.39841E-03   -0.33155E-05  2695   0.287E-03    0.406E-01
RMM:  71    -0.231776873614E+04   -0.24831E-02   -0.76332E-04  3322   0.939E-03    0.593E-01
RMM:  72    -0.231776447747E+04    0.42587E-02   -0.27325E-03  3871   0.175E-02    0.332E-01
RMM:  73    -0.231776406504E+04    0.41243E-03   -0.28191E-04  3198   0.938E-03    0.347E-01
RMM:  74    -0.231776320306E+04    0.86198E-03   -0.32701E-04  3260   0.719E-03    0.364E-01
RMM:  75    -0.231776240736E+04    0.79570E-03   -0.19114E-04  3002   0.655E-03    0.386E-01
RMM:  76    -0.231776068510E+04    0.17223E-02   -0.60639E-04  3404   0.921E-03    0.448E-01
RMM:  77    -0.231775905440E+04    0.16307E-02   -0.42623E-04  3174   0.892E-03    0.523E-01
RMM:  78    -0.231775824011E+04    0.81429E-03   -0.20418E-04  3014   0.594E-03    0.556E-01
RMM:  79    -0.231775770903E+04    0.53107E-03   -0.54190E-05  2821   0.382E-03    0.578E-01
RMM:  80    -0.231775791984E+04   -0.21080E-03   -0.46178E-06  2464   0.217E-03    0.569E-01
RMM:  81    -0.231775792444E+04   -0.46035E-05   -0.10079E-06  2118   0.106E-03
   1 F= -.23386268E+04 E0= -.23386264E+04  d E =-.233863E+04  mag=     7.2117
       N       E                     dE             d eps       ncg     rms          rms(c)
DAV:   1    -0.231781020257E+04   -0.52283E-01   -0.18444E+01  4648   0.267E+00    0.188E+00
RMM:   2    -0.231830660578E+04   -0.49640E+00   -0.41517E+00  6395   0.813E-01    0.410E+00
RMM:   3    -0.231835167846E+04   -0.45073E-01   -0.42547E-01  5683   0.304E-01    0.416E+00
RMM:   4    -0.231835332562E+04   -0.16472E-02   -0.37131E-02  5038   0.489E-02    0.414E+00
RMM:   5    -0.231835888350E+04   -0.55579E-02   -0.19883E-02  4921   0.529E-02    0.475E+00
RMM:   6    -0.231830588068E+04    0.53003E-01   -0.10137E-02  4510   0.380E-02    0.376E+00
RMM:   7    -0.231822180573E+04    0.84075E-01   -0.11765E-01  5383   0.123E-01    0.186E+00
RMM:   8    -0.231819926703E+04    0.22539E-01   -0.36742E-02  5032   0.849E-02    0.194E+00
RMM:   9    -0.231817587090E+04    0.23396E-01   -0.21991E-02  4769   0.542E-02    0.237E+00
RMM:  10    -0.231814773018E+04    0.28141E-01   -0.98729E-03  4472   0.441E-02    0.280E+00
RMM:  11    -0.231821960461E+04   -0.71874E-01   -0.78107E-02  4503   0.102E-01    0.142E+00
RMM:  12    -0.231824572906E+04   -0.26124E-01   -0.41236E-02  4492   0.940E-02    0.191E+00
RMM:  13    -0.231828409364E+04   -0.38365E-01   -0.26902E-02  5126   0.618E-02    0.342E+00
RMM:  14    -0.231826358146E+04    0.20512E-01   -0.23360E-03  4202   0.303E-02    0.272E+00
RMM:  15    -0.231826868638E+04   -0.51049E-02   -0.16227E-03  3967   0.184E-02    0.299E+00
RMM:  16    -0.231824252075E+04    0.26166E-01   -0.65924E-03  4293   0.293E-02    0.186E+00
RMM:  17    -0.231822208118E+04    0.20440E-01   -0.12512E-02  4498   0.439E-02    0.122E+00
RMM:  18    -0.231821474216E+04    0.73390E-02   -0.46329E-03  4463   0.306E-02    0.125E+00
RMM:  19    -0.231820137504E+04    0.13367E-01   -0.61683E-03  4382   0.275E-02    0.150E+00
RMM:  20    -0.231819790951E+04    0.34655E-02   -0.85076E-04  3526   0.175E-02    0.157E+00
RMM:  21    -0.231819503815E+04    0.28714E-02   -0.51564E-04  3329   0.771E-03    0.163E+00
RMM:  22    -0.231820660443E+04   -0.11566E-01   -0.25221E-03  3741   0.170E-02    0.140E+00
RMM:  23    -0.231828646615E+04   -0.79862E-01   -0.87663E-02  4556   0.980E-02    0.359E+00
RMM:  24    -0.231834750160E+04   -0.61035E-01   -0.24350E-02  4447   0.721E-02    0.423E+00
RMM:  25    -0.231833536409E+04    0.12138E-01   -0.25544E-03  4180   0.256E-02    0.422E+00
RMM:  26    -0.231833449433E+04    0.86976E-03   -0.30075E-04  3279   0.898E-03    0.424E+00
RMM:  27    -0.231833032904E+04    0.41653E-02   -0.81753E-05  2944   0.512E-03    0.423E+00
RMM:  28    -0.231834358678E+04   -0.13258E-01   -0.76635E-04  3381   0.972E-03    0.426E+00
RMM:  29    -0.231835264770E+04   -0.90609E-02   -0.53817E-04  3287   0.980E-03    0.427E+00
RMM:  30    -0.231836699657E+04   -0.14349E-01   -0.87993E-04  3589   0.108E-02    0.423E+00
RMM:  31    -0.231836915133E+04   -0.21548E-02   -0.11896E-04  2981   0.606E-03    0.424E+00
RMM:  32    -0.231837522270E+04   -0.60714E-02   -0.17613E-04  2998   0.481E-03    0.422E+00
RMM:  33    -0.231839451905E+04   -0.19296E-01   -0.12500E-03  3728   0.116E-02    0.413E+00
RMM:  34    -0.231844146998E+04   -0.46951E-01   -0.80278E-03  4440   0.294E-02    0.377E+00
RMM:  35    -0.231845643736E+04   -0.14967E-01   -0.16903E-03  3731   0.177E-02    0.362E+00
RMM:  36    -0.231845614167E+04    0.29568E-03   -0.21542E-04  3074   0.594E-03    0.362E+00
RMM:  37    -0.231846330142E+04   -0.71598E-02   -0.37790E-04  3070   0.653E-03    0.359E+00
RMM:  38    -0.231853951159E+04   -0.76210E-01   -0.31808E-02  4469   0.521E-02    0.292E+00
RMM:  39    -0.231855661412E+04   -0.17103E-01   -0.50841E-03  3902   0.339E-02    0.271E+00
RMM:  40    -0.231855337645E+04    0.32377E-02   -0.69491E-04  3425   0.951E-03    0.277E+00
RMM:  41    -0.231855357367E+04   -0.19722E-03   -0.38487E-04  3244   0.876E-03    0.278E+00
RMM:  42    -0.231856679980E+04   -0.13226E-01   -0.15977E-03  3831   0.133E-02    0.260E+00
RMM:  43    -0.231857341879E+04   -0.66190E-02   -0.64483E-04  3484   0.115E-02    0.246E+00
RMM:  44    -0.231859707371E+04   -0.23655E-01   -0.63482E-03  4401   0.263E-02    0.205E+00
RMM:  45    -0.231862874965E+04   -0.31676E-01   -0.17175E-02  4540   0.458E-02    0.137E+00
RMM:  46    -0.231862530233E+04    0.34473E-02   -0.99081E-04  3687   0.193E-02    0.145E+00
RMM:  47    -0.231865559469E+04   -0.30292E-01   -0.53974E-02  4492   0.677E-02    0.339E-01
RMM:  48    -0.231865335820E+04    0.22365E-02   -0.24439E-03  3759   0.314E-02    0.475E-01
RMM:  49    -0.231865549513E+04   -0.21369E-02   -0.28089E-03  3868   0.150E-02    0.275E-01
RMM:  50    -0.231865590927E+04   -0.41413E-03   -0.12887E-03  3554   0.136E-02    0.148E-01
RMM:  51    -0.231865578257E+04    0.12669E-03   -0.71263E-04  3417   0.108E-02    0.174E-01
RMM:  52    -0.231865596626E+04   -0.18369E-03   -0.26276E-04  3084   0.653E-03    0.112E-01
RMM:  53    -0.231865595778E+04    0.84787E-05   -0.34892E-04  3186   0.714E-03    0.766E-02
RMM:  54    -0.231865600319E+04   -0.45414E-04   -0.86716E-05  2798   0.492E-03    0.454E-02
RMM:  55    -0.231865599124E+04    0.11956E-04   -0.34954E-05  2625   0.270E-03    0.326E-02
RMM:  56    -0.231865600620E+04   -0.14961E-04   -0.28092E-05  2676   0.249E-03    0.156E-02
RMM:  57    -0.231865600229E+04    0.39119E-05   -0.35096E-05  2617   0.238E-03
   2 F= -.23395232E+04 E0= -.23395232E+04  d E =-.896386E+00  mag=     5.0059
       N       E                     dE             d eps       ncg     rms          rms(c)
DAV:   1    -0.231557908525E+04    0.30769E+01   -0.16979E+02  4464   0.802E+00    0.507E+00
RMM:   2    -0.232078399477E+04   -0.52049E+01   -0.44179E+01  6462   0.272E+00    0.111E+01
RMM:   3    -0.231949561077E+04    0.12884E+01   -0.45768E+00  5414   0.107E+00    0.357E+00
RMM:   4    -0.231943759896E+04    0.58012E-01   -0.63586E-01  6034   0.262E-01    0.268E+00
RMM:   5    -0.231937596865E+04    0.61630E-01   -0.11937E-01  5916   0.124E-01    0.127E+00
RMM:   6    -0.231936122864E+04    0.14740E-01   -0.48685E-02  5430   0.817E-02    0.805E-01
RMM:   7    -0.231935257957E+04    0.86491E-02   -0.26555E-02  5182   0.691E-02    0.288E-01
RMM:   8    -0.231935223575E+04    0.34382E-03   -0.30536E-03  4839   0.386E-02    0.131E-01
RMM:   9    -0.231935200463E+04    0.23113E-03   -0.86406E-04  4385   0.156E-02    0.717E-02
RMM:  10    -0.231935191522E+04    0.89407E-04   -0.21427E-04  3956   0.112E-02    0.368E-02
RMM:  11    -0.231935187227E+04    0.42951E-04   -0.96323E-05  3729   0.711E-03    0.204E-02
RMM:  12    -0.231935184593E+04    0.26335E-04   -0.41230E-05  3093   0.642E-03    0.108E-02
RMM:  13    -0.231935183323E+04    0.12702E-04   -0.30390E-05  3209   0.507E-03    0.630E-03
RMM:  14    -0.231935183174E+04    0.14863E-05   -0.13008E-05  2884   0.452E-03
   3 F= -.23402149E+04 E0= -.23402149E+04  d E =-.158810E+01  mag=     4.9997
       N       E                     dE             d eps       ncg     rms          rms(c)
DAV:   1    -0.231943519155E+04   -0.83358E-01   -0.98225E+00  4656   0.210E+00    0.115E+00
RMM:   2    -0.231966243393E+04   -0.22724E+00   -0.20855E+00  6343   0.633E-01    0.176E+00
RMM:   3    -0.231963740420E+04    0.25030E-01   -0.18641E-01  5792   0.199E-01    0.483E-01
RMM:   4    -0.231963756804E+04   -0.16384E-03   -0.24492E-02  5292   0.506E-02    0.346E-01
RMM:   5    -0.231963719960E+04    0.36843E-03   -0.38418E-03  5208   0.274E-02    0.338E-01
RMM:   6    -0.231963632061E+04    0.87899E-03   -0.22064E-03  4957   0.207E-02    0.146E-01
RMM:   7    -0.231963611423E+04    0.20638E-03   -0.70862E-04  4514   0.158E-02    0.406E-02
RMM:   8    -0.231963610837E+04    0.58567E-05   -0.95132E-05  3091   0.659E-03
   4 F= -.23404985E+04 E0= -.23404985E+04  d E =-.283606E+00  mag=     4.9999
       N       E                     dE             d eps       ncg     rms          rms(c)
DAV:   1    -0.231813081448E+04    0.15053E+01   -0.89489E+01  4472   0.646E+00    0.365E+00
RMM:   2    -0.232045248166E+04   -0.23217E+01   -0.21500E+01  6358   0.219E+00    0.571E+00
RMM:   3    -0.232006656787E+04    0.38591E+00   -0.19927E+00  5313   0.735E-01    0.179E+00
RMM:   4    -0.232006809531E+04   -0.15274E-02   -0.24261E-01  6091   0.174E-01    0.166E+00
RMM:   5    -0.232004309048E+04    0.25005E-01   -0.41225E-02  5943   0.844E-02    0.731E-01
RMM:   6    -0.232003916436E+04    0.39261E-02   -0.19982E-02  5163   0.628E-02    0.418E-01
RMM:   7    -0.232003714819E+04    0.20162E-02   -0.57572E-03  5433   0.451E-02    0.108E-01
RMM:   8    -0.232003713233E+04    0.15861E-04   -0.70857E-04  4871   0.161E-02    0.498E-02
RMM:   9    -0.232003714571E+04   -0.13375E-04   -0.13658E-04  3506   0.880E-03    0.299E-02
RMM:  10    -0.232003714869E+04   -0.29808E-05   -0.69096E-05  3446   0.663E-03
   5 F= -.23408984E+04 E0= -.23408984E+04  d E =-.683503E+00  mag=     5.0000
       N       E                     dE             d eps       ncg     rms          rms(c)
DAV:   1    -0.232023100046E+04   -0.19385E+00   -0.59727E+00  4616   0.165E+00    0.757E-01
RMM:   2    -0.232028920971E+04   -0.58209E-01   -0.62659E-01  6145   0.367E-01    0.569E-01
RMM:   3    -0.232029244094E+04   -0.32312E-02   -0.67190E-02  5848   0.128E-01    0.524E-01
RMM:   4    -0.232028995511E+04    0.24858E-02   -0.72928E-03  5411   0.339E-02    0.223E-01
RMM:   5    -0.232028997365E+04   -0.18540E-04   -0.31676E-03  5212   0.244E-02    0.240E-01
RMM:   6    -0.232028953197E+04    0.44168E-03   -0.13066E-03  4448   0.186E-02    0.128E-01
RMM:   7    -0.232028941085E+04    0.12112E-03   -0.16810E-04  3223   0.755E-03    0.389E-02
RMM:   8    -0.232028939526E+04    0.15592E-04   -0.88882E-05  3051   0.621E-03    0.205E-02
RMM:   9    -0.232028939320E+04    0.20620E-05   -0.21872E-05  2991   0.381E-03
   6 F= -.23411497E+04 E0= -.23411497E+04  d E =-.251322E+00  mag=     5.0000
       N       E                     dE             d eps       ncg     rms          rms(c)
DAV:   1    -0.232025031308E+04    0.39082E-01   -0.24659E+01  4456   0.326E+00    0.153E+00
RMM:   2    -0.232048237240E+04   -0.23206E+00   -0.25057E+00  6096   0.703E-01    0.112E+00
RMM:   3    -0.232049971895E+04   -0.17347E-01   -0.29162E-01  5811   0.260E-01    0.118E+00
RMM:   4    -0.232048734868E+04    0.12370E-01   -0.32011E-02  5797   0.703E-02    0.462E-01
RMM:   5    -0.232048797586E+04   -0.62717E-03   -0.13615E-02  5503   0.482E-02    0.558E-01
RMM:   6    -0.232048541581E+04    0.25601E-02   -0.55110E-03  5393   0.346E-02    0.243E-01
RMM:   7    -0.232048507132E+04    0.34449E-03   -0.78351E-04  4164   0.136E-02    0.855E-02
RMM:   8    -0.232048499452E+04    0.76794E-04   -0.35453E-04  3369   0.115E-02    0.463E-02
RMM:   9    -0.232048497667E+04    0.17856E-04   -0.10586E-04  3380   0.626E-03    0.175E-02
RMM:  10    -0.232048497379E+04    0.28758E-05   -0.16316E-05  2920   0.484E-03
   7 F= -.23413442E+04 E0= -.23413442E+04  d E =-.445789E+00  mag=     5.0000
       N       E                     dE             d eps       ncg     rms          rms(c)
DAV:   1    -0.232049844774E+04   -0.13471E-01   -0.34327E+00  4560   0.136E+00    0.691E-01
RMM:   2    -0.232055640715E+04   -0.57959E-01   -0.60015E-01  6149   0.325E-01    0.626E-01
RMM:   3    -0.232055813148E+04   -0.17243E-02   -0.60023E-02  5856   0.124E-01    0.439E-01
RMM:   4    -0.232055668236E+04    0.14491E-02   -0.68419E-03  4937   0.308E-02    0.186E-01
RMM:   5    -0.232055648029E+04    0.20207E-03   -0.13573E-03  4766   0.184E-02    0.179E-01
RMM:   6    -0.232055644143E+04    0.38865E-04   -0.10745E-03  4610   0.149E-02    0.161E-01
RMM:   7    -0.232055620494E+04    0.23649E-03   -0.30797E-04  3509   0.108E-02    0.284E-02
RMM:   8    -0.232055619480E+04    0.10141E-04   -0.38315E-05  2901   0.568E-03    0.168E-02
RMM:   9    -0.232055619195E+04    0.28460E-05   -0.22651E-05  2943   0.335E-03
   8 F= -.23414155E+04 E0= -.23414155E+04  d E =-.712583E-01  mag=     5.0000
       N       E                     dE             d eps       ncg     rms          rms(c)
DAV:   1    -0.232053930028E+04    0.16895E-01   -0.20450E+00  4624   0.104E+00    0.536E-01
RMM:   2    -0.232057372486E+04   -0.34425E-01   -0.35719E-01  6154   0.252E-01    0.495E-01
RMM:   3    -0.232057467983E+04   -0.95497E-03   -0.35345E-02  5775   0.936E-02    0.339E-01
RMM:   4    -0.232057381398E+04    0.86585E-03   -0.40243E-03  4671   0.238E-02    0.143E-01
RMM:   5    -0.232057363685E+04    0.17713E-03   -0.79055E-04  4376   0.146E-02    0.114E-01
RMM:   6    -0.232057370701E+04   -0.70164E-04   -0.60977E-04  3941   0.121E-02    0.140E-01
RMM:   7    -0.232057353057E+04    0.17645E-03   -0.18834E-04  3107   0.887E-03    0.221E-02
RMM:   8    -0.232057352432E+04    0.62466E-05   -0.23258E-05  2887   0.479E-03
   9 F= -.23414329E+04 E0= -.23414329E+04  d E =-.886629E-01  mag=     5.0000
       N       E                     dE             d eps       ncg     rms          rms(c)
DAV:   1    -0.232055932741E+04    0.14203E-01   -0.25345E+00  4512   0.104E+00    0.576E-01
RMM:   2    -0.232061292554E+04   -0.53598E-01   -0.53914E-01  6291   0.264E-01    0.621E-01
RMM:   3    -0.232061406674E+04   -0.11412E-02   -0.55116E-02  5845   0.104E-01    0.333E-01
RMM:   4    -0.232061350800E+04    0.55874E-03   -0.60207E-03  4388   0.240E-02    0.151E-01
RMM:   5    -0.232061330340E+04    0.20460E-03   -0.60947E-04  3915   0.121E-02    0.109E-01
RMM:   6    -0.232061341881E+04   -0.11541E-03   -0.59564E-04  3734   0.122E-02    0.161E-01
RMM:   7    -0.232061319283E+04    0.22598E-03   -0.29331E-04  3525   0.969E-03    0.274E-02
RMM:   8    -0.232061318657E+04    0.62625E-05   -0.39986E-05  2905   0.571E-03
  10 F= -.23414726E+04 E0= -.23414726E+04  d E =-.397630E-01  mag=     5.0000
       N       E                     dE             d eps       ncg     rms          rms(c)
DAV:   1    -0.232052829805E+04    0.84895E-01   -0.49681E+00  4468   0.146E+00    0.805E-01
RMM:   2    -0.232063345631E+04   -0.10516E+00   -0.10595E+00  6264   0.375E-01    0.868E-01
RMM:   3    -0.232063571465E+04   -0.22583E-02   -0.11033E-01  5941   0.147E-01    0.469E-01
RMM:   4    -0.232063462513E+04    0.10895E-02   -0.11796E-02  4912   0.337E-02    0.209E-01
RMM:   5    -0.232063423776E+04    0.38737E-03   -0.12275E-03  4524   0.166E-02    0.156E-01
RMM:   6    -0.232063439180E+04   -0.15404E-03   -0.10865E-03  4379   0.155E-02    0.214E-01
RMM:   7    -0.232063398743E+04    0.40437E-03   -0.58134E-04  4297   0.125E-02    0.345E-02
RMM:   8    -0.232063397407E+04    0.13362E-04   -0.67334E-05  2916   0.689E-03    0.232E-02
RMM:   9    -0.232063396629E+04    0.77758E-05   -0.25981E-05  2916   0.387E-03
  11 F= -.23414936E+04 E0= -.23414936E+04  d E =-.607133E-01  mag=     5.0000
       N       E                     dE             d eps       ncg     rms          rms(c)
DAV:   1    -0.232058587362E+04    0.48100E-01   -0.31236E+00  4536   0.117E+00    0.655E-01
RMM:   2    -0.232066622819E+04   -0.80355E-01   -0.79383E-01  6322   0.300E-01    0.771E-01
RMM:   3    -0.232066778152E+04   -0.15533E-02   -0.82055E-02  5817   0.123E-01    0.360E-01
RMM:   4    -0.232066731954E+04    0.46199E-03   -0.90503E-03  4593   0.289E-02    0.184E-01
RMM:   5    -0.232066712519E+04    0.19435E-03   -0.90858E-04  3663   0.121E-02    0.168E-01
RMM:   6    -0.232066684102E+04    0.28416E-03   -0.48502E-04  3235   0.106E-02    0.825E-02
RMM:   7    -0.232066679185E+04    0.49176E-04   -0.29655E-04  3812   0.935E-03    0.275E-02
RMM:   8    -0.232066679116E+04    0.68806E-06   -0.41560E-05  2918   0.635E-03
  12 F= -.23415269E+04 E0= -.23415269E+04  d E =-.332743E-01  mag=     5.0000
       N       E                     dE             d eps       ncg     rms          rms(c)
DAV:   1    -0.232038740115E+04    0.27939E+00   -0.11649E+01  4484   0.226E+00    0.128E+00
RMM:   2    -0.232069554011E+04   -0.30814E+00   -0.30243E+00  6345   0.596E-01    0.161E+00
RMM:   3    -0.232069371668E+04    0.18234E-02   -0.31007E-01  5959   0.237E-01    0.633E-01
RMM:   4    -0.232069255466E+04    0.11620E-02   -0.33923E-02  5305   0.547E-02    0.329E-01
RMM:   5    -0.232069179351E+04    0.76115E-03   -0.31813E-03  5019   0.226E-02    0.302E-01
RMM:   6    -0.232069108094E+04    0.71257E-03   -0.19139E-03  4401   0.186E-02    0.197E-01
RMM:   7    -0.232069073822E+04    0.34272E-03   -0.11837E-03  4524   0.160E-02    0.449E-02
RMM:   8    -0.232069072588E+04    0.12337E-04   -0.11716E-04  3027   0.967E-03    0.314E-02
RMM:   9    -0.232069072253E+04    0.33536E-05   -0.49739E-05  2939   0.452E-03
  13 F= -.23415518E+04 E0= -.23415518E+04  d E =-.581787E-01  mag=     5.0000
       N       E                     dE             d eps       ncg     rms          rms(c)
DAV:   1    -0.232060298523E+04    0.87741E-01   -0.43650E+00  4504   0.134E+00    0.780E-01
RMM:   2    -0.232071894737E+04   -0.11596E+00   -0.11449E+00  6416   0.363E-01    0.931E-01
RMM:   3    -0.232072038558E+04   -0.14382E-02   -0.12019E-01  5871   0.146E-01    0.389E-01
RMM:   4    -0.232071992564E+04    0.45994E-03   -0.12476E-02  4764   0.325E-02    0.208E-01
RMM:   5    -0.232071954085E+04    0.38479E-03   -0.10793E-03  3936   0.138E-02    0.170E-01
RMM:   6    -0.232071930536E+04    0.23550E-03   -0.73408E-04  3490   0.120E-02    0.115E-01
RMM:   7    -0.232071919083E+04    0.11453E-03   -0.31134E-04  3830   0.962E-03    0.318E-02
RMM:   8    -0.232071918904E+04    0.17921E-05   -0.53522E-05  2966   0.596E-03
  14 F= -.23415810E+04 E0= -.23415810E+04  d E =-.292644E-01  mag=     5.0000
       N       E                     dE             d eps       ncg     rms          rms(c)
DAV:   1    -0.232053055524E+04    0.18864E+00   -0.75048E+00  4492   0.175E+00    0.102E+00
RMM:   2    -0.232073168829E+04   -0.20113E+00   -0.19866E+00  6414   0.482E-01    0.123E+00
RMM:   3    -0.232073275092E+04   -0.10626E-02   -0.20876E-01  5953   0.191E-01    0.479E-01
RMM:   4    -0.232073218884E+04    0.56208E-03   -0.21360E-02  5029   0.421E-02    0.266E-01
RMM:   5    -0.232073147154E+04    0.71731E-03   -0.18046E-03  4553   0.181E-02    0.212E-01
RMM:   6    -0.232073117271E+04    0.29883E-03   -0.12572E-03  4139   0.150E-02    0.164E-01
RMM:   7    -0.232073093346E+04    0.23925E-03   -0.53515E-04  4192   0.118E-02    0.379E-02
RMM:   8    -0.232073092961E+04    0.38473E-05   -0.87793E-05  3022   0.715E-03
  15 F= -.23415939E+04 E0= -.23415939E+04  d E =-.421378E-01  mag=     5.0000
       N       E                     dE             d eps       ncg     rms          rms(c)
DAV:   1    -0.232071513210E+04    0.15801E-01   -0.14022E+00  4640   0.787E-01    0.395E-01
RMM:   2    -0.232074242649E+04   -0.27294E-01   -0.27427E-01  6273   0.189E-01    0.423E-01
RMM:   3    -0.232074306350E+04   -0.63701E-03   -0.27924E-02  5507   0.758E-02    0.224E-01
RMM:   4    -0.232074281376E+04    0.24974E-03   -0.29845E-03  3709   0.177E-02    0.122E-01
RMM:   5    -0.232074264788E+04    0.16589E-03   -0.52249E-04  3591   0.110E-02    0.872E-02
RMM:   6    -0.232074263252E+04    0.15359E-04   -0.32314E-04  3090   0.913E-03    0.791E-02
RMM:   7    -0.232074258079E+04    0.51733E-04   -0.78890E-05  2981   0.620E-03    0.202E-02
RMM:   8    -0.232074257872E+04    0.20643E-05   -0.15649E-05  2911   0.370E-03
  16 F= -.23416058E+04 E0= -.23416058E+04  d E =-.119352E-01  mag=     5.0000
       N       E                     dE             d eps       ncg     rms          rms(c)
DAV:   1    -0.232074157346E+04    0.10073E-02   -0.66913E-02  4936   0.171E-01    0.861E-02
RMM:   2    -0.232074287304E+04   -0.12996E-02   -0.13047E-02  6022   0.413E-02    0.919E-02
RMM:   3    -0.232074290935E+04   -0.36318E-04   -0.13157E-03  3000   0.169E-02    0.508E-02
RMM:   4    -0.232074289650E+04    0.12855E-04   -0.14330E-04  2945   0.479E-03    0.265E-02
RMM:   5    -0.232074288810E+04    0.83956E-05   -0.24583E-05  2850   0.281E-03
  17 F= -.23416062E+04 E0= -.23416062E+04  d E =-.123101E-01  mag=     5.0000
       N       E                     dE             d eps       ncg     rms          rms(c)
DAV:   1    -0.232074542828E+04   -0.25318E-02   -0.23036E-01  4512   0.362E-01    0.146E-01
RMM:   2    -0.232074802281E+04   -0.25945E-02   -0.27446E-02  5944   0.712E-02    0.937E-02
RMM:   3    -0.232074826609E+04   -0.24328E-03   -0.29091E-03  3687   0.307E-02    0.993E-02
RMM:   4    -0.232074821007E+04    0.56025E-04   -0.33777E-04  2984   0.833E-03    0.471E-02
RMM:   5    -0.232074818962E+04    0.20447E-04   -0.75462E-05  3029   0.559E-03    0.236E-02
RMM:   6    -0.232074819389E+04   -0.42679E-05   -0.32584E-05  2933   0.509E-03
  18 F= -.23416115E+04 E0= -.23416115E+04  d E =-.529956E-02  mag=     5.0000
       N       E                     dE             d eps       ncg     rms          rms(c)
DAV:   1    -0.232074338830E+04    0.48013E-02   -0.68731E-01  4496   0.625E-01    0.255E-01
RMM:   2    -0.232075110678E+04   -0.77185E-02   -0.82069E-02  5809   0.122E-01    0.140E-01
RMM:   3    -0.232075170941E+04   -0.60263E-03   -0.81252E-03  4762   0.524E-02    0.996E-02
RMM:   4    -0.232075174520E+04   -0.35789E-04   -0.98020E-04  3525   0.125E-02    0.895E-02
RMM:   5    -0.232075169973E+04    0.45472E-04   -0.24702E-04  3201   0.933E-03    0.606E-02
RMM:   6    -0.232075166980E+04    0.29929E-04   -0.76337E-05  3004   0.685E-03    0.203E-02
RMM:   7    -0.232075166655E+04    0.32481E-05   -0.14735E-05  2917   0.465E-03
  19 F= -.23416150E+04 E0= -.23416150E+04  d E =-.877078E-02  mag=     5.0000
       N       E                     dE             d eps       ncg     rms          rms(c)
DAV:   1    -0.232075244017E+04   -0.77037E-03   -0.35975E-01  4496   0.492E-01    0.184E-01
RMM:   2    -0.232075564830E+04   -0.32081E-02   -0.33510E-02  5958   0.933E-02    0.120E-01
RMM:   3    -0.232075593545E+04   -0.28716E-03   -0.33326E-03  4460   0.381E-02    0.130E-01
RMM:   4    -0.232075578996E+04    0.14549E-03   -0.43313E-04  3243   0.102E-02    0.496E-02
RMM:   5    -0.232075576588E+04    0.24083E-04   -0.99786E-05  3557   0.751E-03    0.213E-02
RMM:   6    -0.232075576917E+04   -0.32906E-05   -0.29953E-05  2931   0.607E-03
  20 F= -.23416190E+04 E0= -.23416190E+04  d E =-.404368E-02  mag=     5.0000
       N       E                     dE             d eps       ncg     rms          rms(c)
DAV:   1    -0.232075426224E+04    0.15036E-02   -0.27877E-01  4504   0.433E-01    0.162E-01
RMM:   2    -0.232075675002E+04   -0.24878E-02   -0.25992E-02  5981   0.822E-02    0.103E-01
RMM:   3    -0.232075698126E+04   -0.23124E-03   -0.26233E-03  4132   0.317E-02    0.116E-01
RMM:   4    -0.232075686825E+04    0.11301E-03   -0.33619E-04  3075   0.914E-03    0.440E-02
RMM:   5    -0.232075685129E+04    0.16956E-04   -0.80797E-05  3352   0.648E-03    0.249E-02
RMM:   6    -0.232075685718E+04   -0.58903E-05   -0.41813E-05  2895   0.599E-03
  21 F= -.23416201E+04 E0= -.23416201E+04  d E =-.508183E-02  mag=     5.0000
       N       E                     dE             d eps       ncg     rms          rms(c)
DAV:   1    -0.232075517142E+04    0.16799E-02   -0.35805E-01  4496   0.511E-01    0.198E-01
RMM:   2    -0.232075954960E+04   -0.43782E-02   -0.43689E-02  6061   0.105E-01    0.195E-01
RMM:   3    -0.232075962309E+04   -0.73496E-04   -0.45864E-03  4926   0.403E-02    0.129E-01
RMM:   4    -0.232075946970E+04    0.15340E-03   -0.54704E-04  3422   0.108E-02    0.510E-02
RMM:   5    -0.232075944577E+04    0.23929E-04   -0.10016E-04  3306   0.748E-03    0.408E-02
RMM:   6    -0.232075944703E+04   -0.12624E-05   -0.83061E-05  2973   0.693E-03
  22 F= -.23416225E+04 E0= -.23416225E+04  d E =-.245882E-02  mag=     5.0000
       N       E                     dE             d eps       ncg     rms          rms(c)
DAV:   1    -0.232075899080E+04    0.45497E-03   -0.54960E-02  4696   0.200E-01    0.786E-02
RMM:   2    -0.232075966396E+04   -0.67316E-03   -0.67596E-03  6133   0.430E-02    0.746E-02
RMM:   3    -0.232075968329E+04   -0.19325E-04   -0.73164E-04  3173   0.160E-02    0.529E-02
RMM:   4    -0.232075965952E+04    0.23770E-04   -0.86919E-05  2939   0.530E-03    0.220E-02
RMM:   5    -0.232075965719E+04    0.23236E-05   -0.18939E-05  2902   0.326E-03
  23 F= -.23416227E+04 E0= -.23416227E+04  d E =-.261723E-02  mag=     5.0000
       N       E                     dE             d eps       ncg     rms          rms(c)
DAV:   1    -0.232075642510E+04    0.32344E-02   -0.26390E-01  4480   0.437E-01    0.179E-01
RMM:   2    -0.232076164156E+04   -0.52165E-02   -0.50393E-02  6259   0.987E-02    0.235E-01
RMM:   3    -0.232076150177E+04    0.13979E-03   -0.50800E-03  4509   0.358E-02    0.910E-02
RMM:   4    -0.232076145131E+04    0.50462E-04   -0.52745E-04  3047   0.902E-03    0.441E-02
RMM:   5    -0.232076143076E+04    0.20541E-04   -0.52222E-05  2991   0.527E-03    0.311E-02
RMM:   6    -0.232076143459E+04   -0.38217E-05   -0.55888E-05  2948   0.560E-03
  24 F= -.23416243E+04 E0= -.23416243E+04  d E =-.162051E-02  mag=     5.0000
       N       E                     dE             d eps       ncg     rms          rms(c)
DAV:   1    -0.232075889351E+04    0.25373E-02   -0.15585E-01  4512   0.335E-01    0.139E-01
RMM:   2    -0.232076197269E+04   -0.30792E-02   -0.29999E-02  6322   0.767E-02    0.175E-01
RMM:   3    -0.232076191111E+04    0.61581E-04   -0.30191E-03  3993   0.272E-02    0.746E-02
RMM:   4    -0.232076187542E+04    0.35686E-04   -0.31366E-04  2983   0.733E-03    0.340E-02
RMM:   5    -0.232076186416E+04    0.11260E-04   -0.31800E-05  2938   0.416E-03    0.249E-02
RMM:   6    -0.232076186635E+04   -0.21903E-05   -0.32566E-05  2890   0.430E-03
  25 F= -.23416246E+04 E0= -.23416246E+04  d E =-.192978E-02  mag=     5.0000
       N       E                     dE             d eps       ncg     rms          rms(c)
DAV:   1    -0.232075694494E+04    0.49192E-02   -0.33582E-01  4480   0.500E-01    0.200E-01
RMM:   2    -0.232076335148E+04   -0.64065E-02   -0.63261E-02  6258   0.108E-01    0.229E-01
RMM:   3    -0.232076346171E+04   -0.11024E-03   -0.65125E-03  4717   0.409E-02    0.110E-01
RMM:   4    -0.232076336834E+04    0.93374E-04   -0.68828E-04  3100   0.102E-02    0.502E-02
RMM:   5    -0.232076333853E+04    0.29809E-04   -0.65321E-05  2998   0.578E-03    0.315E-02
RMM:   6    -0.232076333761E+04    0.92249E-06   -0.64660E-05  2985   0.595E-03
  26 F= -.23416260E+04 E0= -.23416260E+04  d E =-.134968E-02  mag=     5.0000
       N       E                     dE             d eps       ncg     rms          rms(c)
DAV:   1    -0.232076094434E+04    0.23942E-02   -0.13898E-01  4544   0.321E-01    0.129E-01
RMM:   2    -0.232076358210E+04   -0.26378E-02   -0.26143E-02  6329   0.702E-02    0.144E-01
RMM:   3    -0.232076364941E+04   -0.67309E-04   -0.27814E-03  3729   0.259E-02    0.734E-02
RMM:   4    -0.232076361165E+04    0.37764E-04   -0.29427E-04  2972   0.719E-03    0.340E-02
RMM:   5    -0.232076360475E+04    0.68939E-05   -0.32348E-05  2898   0.382E-03
  27 F= -.23416262E+04 E0= -.23416262E+04  d E =-.153737E-02  mag=     5.0000
       N       E                     dE             d eps       ncg     rms          rms(c)
DAV:   1    -0.232075666646E+04    0.69452E-02   -0.41768E-01  4480   0.553E-01    0.219E-01
RMM:   2    -0.232076494926E+04   -0.82828E-02   -0.82202E-02  6192   0.117E-01    0.253E-01
RMM:   3    -0.232076517914E+04   -0.22988E-03   -0.90232E-03  4966   0.484E-02    0.114E-01
RMM:   4    -0.232076510234E+04    0.76802E-04   -0.91205E-04  3123   0.107E-02    0.553E-02
RMM:   5    -0.232076506563E+04    0.36704E-04   -0.75125E-05  3018   0.593E-03    0.414E-02
RMM:   6    -0.232076507424E+04   -0.86062E-05   -0.99419E-05  2950   0.653E-03
  28 F= -.23416276E+04 E0= -.23416276E+04  d E =-.143196E-02  mag=     5.0000
       N       E                     dE             d eps       ncg     rms          rms(c)
DAV:   1    -0.232074759948E+04    0.17466E-01   -0.89133E-01  4480   0.808E-01    0.324E-01
RMM:   2    -0.232076510658E+04   -0.17507E-01   -0.17581E-01  6135   0.170E-01    0.339E-01
RMM:   3    -0.232076589874E+04   -0.79216E-03   -0.19327E-02  5525   0.682E-02    0.173E-01
RMM:   4    -0.232076570310E+04    0.19565E-03   -0.19576E-03  3659   0.151E-02    0.804E-02
RMM:   5    -0.232076562220E+04    0.80896E-04   -0.14104E-04  3142   0.786E-03    0.515E-02
RMM:   6    -0.232076562088E+04    0.13250E-05   -0.21403E-04  3740   0.924E-03    0.484E-02
RMM:   7    -0.232076559903E+04    0.21847E-04   -0.40346E-05  2906   0.607E-03    0.136E-02
RMM:   8    -0.232076559664E+04    0.23926E-05   -0.73400E-06  2831   0.238E-03
  29 F= -.23416280E+04 E0= -.23416280E+04  d E =-.189344E-02  mag=     5.0000
       N       E                     dE             d eps       ncg     rms          rms(c)
DAV:   1    -0.232076293221E+04    0.26668E-02   -0.16181E-01  4560   0.336E-01    0.139E-01
RMM:   2    -0.232076634750E+04   -0.34153E-02   -0.34221E-02  6246   0.732E-02    0.150E-01
RMM:   3    -0.232076649210E+04   -0.14460E-03   -0.37483E-03  3608   0.296E-02    0.722E-02
RMM:   4    -0.232076646301E+04    0.29093E-04   -0.38178E-04  2968   0.737E-03    0.341E-02
RMM:   5    -0.232076644809E+04    0.14918E-04   -0.26392E-05  2844   0.354E-03    0.229E-02
RMM:   6    -0.232076644551E+04    0.25807E-05   -0.39828E-05  2887   0.409E-03
  30 F= -.23416288E+04 E0= -.23416288E+04  d E =-.798148E-03  mag=     5.0000
       N       E                     dE             d eps       ncg     rms          rms(c)
DAV:   1    -0.232073608273E+04    0.30365E-01   -0.14503E+00  4468   0.101E+00    0.423E-01
RMM:   2    -0.232076691057E+04   -0.30828E-01   -0.30785E-01  6196   0.218E-01    0.472E-01
RMM:   3    -0.232076798897E+04   -0.10784E-02   -0.33718E-02  5648   0.904E-02    0.218E-01
RMM:   4    -0.232076772762E+04    0.26135E-03   -0.34250E-03  4100   0.188E-02    0.101E-01
RMM:   5    -0.232076760457E+04    0.12305E-03   -0.21960E-04  3305   0.898E-03    0.762E-02
RMM:   6    -0.232076762589E+04   -0.21327E-04   -0.31445E-04  3524   0.974E-03    0.896E-02
RMM:   7    -0.232076754893E+04    0.76966E-04   -0.12220E-04  3060   0.765E-03    0.157E-02
RMM:   8    -0.232076754603E+04    0.28992E-05   -0.14912E-05  2894   0.442E-03
  31 F= -.23416298E+04 E0= -.23416298E+04  d E =-.173627E-02  mag=     5.0000
       N       E                     dE             d eps       ncg     rms          rms(c)
DAV:   1    -0.232076695844E+04    0.59049E-03   -0.71776E-02  4656   0.229E-01    0.984E-02
RMM:   2    -0.232076843982E+04   -0.14814E-02   -0.14775E-02  6173   0.517E-02    0.109E-01
RMM:   3    -0.232076847631E+04   -0.36495E-04   -0.15379E-03  3227   0.207E-02    0.514E-02
RMM:   4    -0.232076845899E+04    0.17322E-04   -0.17303E-04  2947   0.575E-03    0.242E-02
RMM:   5    -0.232076845149E+04    0.75041E-05   -0.17589E-05  2841   0.341E-03
  32 F= -.23416306E+04 E0= -.23416306E+04  d E =-.835279E-03  mag=     5.0000
       N       E                     dE             d eps       ncg     rms          rms(c)
DAV:   1    -0.232076311405E+04    0.53449E-02   -0.29569E-01  4496   0.465E-01    0.200E-01
RMM:   2    -0.232076924891E+04   -0.61349E-02   -0.60946E-02  6210   0.105E-01    0.230E-01
RMM:   3    -0.232076935197E+04   -0.10306E-03   -0.63714E-03  4823   0.417E-02    0.105E-01
RMM:   4    -0.232076927889E+04    0.73086E-04   -0.71030E-04  3109   0.103E-02    0.492E-02
RMM:   5    -0.232076925700E+04    0.21884E-04   -0.80432E-05  3061   0.655E-03    0.490E-02
RMM:   6    -0.232076924233E+04    0.14675E-04   -0.67520E-05  2905   0.627E-03    0.299E-02
RMM:   7    -0.232076923470E+04    0.76275E-05   -0.24160E-05  2899   0.465E-03
  33 F= -.23416313E+04 E0= -.23416313E+04  d E =-.147280E-02  mag=     5.0000
       N       E                     dE             d eps       ncg     rms          rms(c)
DAV:   1    -0.232076784561E+04    0.13967E-02   -0.10929E-01  4496   0.269E-01    0.121E-01
RMM:   2    -0.232077026144E+04   -0.24158E-02   -0.23815E-02  6412   0.638E-02    0.147E-01
RMM:   3    -0.232077027842E+04   -0.16971E-04   -0.23913E-03  3434   0.241E-02    0.589E-02
RMM:   4    -0.232077025809E+04    0.20323E-04   -0.27722E-04  2954   0.655E-03    0.277E-02
RMM:   5    -0.232077024767E+04    0.10420E-04   -0.20982E-05  2869   0.333E-03    0.205E-02
RMM:   6    -0.232077024909E+04   -0.14191E-05   -0.22863E-05  2841   0.333E-03
  34 F= -.23416322E+04 E0= -.23416322E+04  d E =-.897435E-03  mag=     5.0000
       N       E                     dE             d eps       ncg     rms          rms(c)
DAV:   1    -0.232075026879E+04    0.19979E-01   -0.98219E-01  4484   0.807E-01    0.359E-01
RMM:   2    -0.232077184443E+04   -0.21576E-01   -0.21290E-01  6277   0.184E-01    0.433E-01
RMM:   3    -0.232077211731E+04   -0.27289E-03   -0.21522E-02  5663   0.722E-02    0.180E-01
RMM:   4    -0.232077190768E+04    0.20963E-03   -0.24777E-03  3908   0.159E-02    0.855E-02
RMM:   5    -0.232077182979E+04    0.77894E-04   -0.18316E-04  3067   0.818E-03    0.729E-02
RMM:   6    -0.232077180030E+04    0.29485E-04   -0.18730E-04  3306   0.818E-03    0.655E-02
RMM:   7    -0.232077176360E+04    0.36701E-04   -0.94195E-05  2924   0.719E-03    0.119E-02
RMM:   8    -0.232077176205E+04    0.15546E-05   -0.15794E-05  2898   0.443E-03
  35 F= -.23416333E+04 E0= -.23416333E+04  d E =-.205135E-02  mag=     5.0000
       N       E                     dE             d eps       ncg     rms          rms(c)
DAV:   1    -0.232076764832E+04    0.41153E-02   -0.23757E-01  4504   0.391E-01    0.182E-01
RMM:   2    -0.232077315517E+04   -0.55069E-02   -0.54194E-02  6250   0.936E-02    0.221E-01
RMM:   3    -0.232077318554E+04   -0.30367E-04   -0.53926E-03  4333   0.365E-02    0.899E-02
RMM:   4    -0.232077313311E+04    0.52431E-04   -0.62450E-04  3035   0.894E-03    0.431E-02
RMM:   5    -0.232077310782E+04    0.25292E-04   -0.54409E-05  2908   0.507E-03    0.339E-02
RMM:   6    -0.232077310968E+04   -0.18624E-05   -0.57940E-05  2923   0.527E-03
  36 F= -.23416344E+04 E0= -.23416344E+04  d E =-.109339E-02  mag=     5.0000
       N       E                     dE             d eps       ncg     rms          rms(c)
DAV:   1    -0.232076649758E+04    0.66102E-02   -0.31601E-01  4496   0.451E-01    0.214E-01
RMM:   2    -0.232077393315E+04   -0.74356E-02   -0.72623E-02  6222   0.108E-01    0.275E-01
RMM:   3    -0.232077386052E+04    0.72629E-04   -0.71782E-03  4874   0.431E-02    0.104E-01
RMM:   4    -0.232077379524E+04    0.65278E-04   -0.84911E-04  3117   0.100E-02    0.514E-02
RMM:   5    -0.232077377430E+04    0.20940E-04   -0.79409E-05  2921   0.555E-03    0.507E-02
RMM:   6    -0.232077375545E+04    0.18851E-04   -0.72186E-05  2948   0.575E-03    0.365E-02
RMM:   7    -0.232077374552E+04    0.99363E-05   -0.36612E-05  2884   0.503E-03
  37 F= -.23416347E+04 E0= -.23416347E+04  d E =-.143174E-02  mag=     5.0000
       N       E                     dE             d eps       ncg     rms          rms(c)
DAV:   1    -0.232076755276E+04    0.62027E-02   -0.29543E-01  4504   0.414E-01    0.202E-01
RMM:   2    -0.232077486143E+04   -0.73087E-02   -0.71532E-02  6441   0.103E-01    0.260E-01
RMM:   3    -0.232077485030E+04    0.11124E-04   -0.70182E-03  4555   0.396E-02    0.949E-02
RMM:   4    -0.232077480259E+04    0.47710E-04   -0.81689E-04  3032   0.937E-03    0.475E-02
RMM:   5    -0.232077477195E+04    0.30639E-04   -0.59362E-05  2905   0.488E-03    0.391E-02
RMM:   6    -0.232077476938E+04    0.25756E-05   -0.65534E-05  2934   0.507E-03
  38 F= -.23416355E+04 E0= -.23416355E+04  d E =-.769287E-03  mag=     5.0000
       N       E                     dE             d eps       ncg     rms          rms(c)
DAV:   1    -0.232076813003E+04    0.66419E-02   -0.29297E-01  4496   0.413E-01    0.203E-01
RMM:   2    -0.232077543717E+04   -0.73071E-02   -0.71083E-02  6406   0.102E-01    0.273E-01
RMM:   3    -0.232077534165E+04    0.95523E-04   -0.69159E-03  4513   0.384E-02    0.936E-02
RMM:   4    -0.232077529782E+04    0.43829E-04   -0.82237E-04  3031   0.930E-03    0.487E-02
RMM:   5    -0.232077527546E+04    0.22365E-04   -0.63005E-05  2894   0.479E-03    0.461E-02
RMM:   6    -0.232077526015E+04    0.15304E-04   -0.60411E-05  2924   0.490E-03    0.361E-02
RMM:   7    -0.232077524980E+04    0.10351E-04   -0.37493E-05  2877   0.445E-03    0.915E-03
RMM:   8    -0.232077524899E+04    0.81223E-06   -0.49878E-06  2806   0.277E-03
  39 F= -.23416357E+04 E0= -.23416357E+04  d E =-.991056E-03  mag=     5.0000
       N       E                     dE             d eps       ncg     rms          rms(c)
DAV:   1    -0.232076954524E+04    0.57046E-02   -0.28879E-01  4496   0.422E-01    0.201E-01
RMM:   2    -0.232077657423E+04   -0.70290E-02   -0.68979E-02  6240   0.101E-01    0.254E-01
RMM:   3    -0.232077658411E+04   -0.98849E-05   -0.67600E-03  4581   0.414E-02    0.957E-02
RMM:   4    -0.232077653091E+04    0.53201E-04   -0.78735E-04  3066   0.939E-03    0.465E-02
RMM:   5    -0.232077649979E+04    0.31124E-04   -0.54247E-05  2903   0.487E-03    0.351E-02
RMM:   6    -0.232077650026E+04   -0.47564E-06   -0.64058E-05  2934   0.512E-03
  40 F= -.23416368E+04 E0= -.23416368E+04  d E =-.106112E-02  mag=     5.0000
       N       E                     dE             d eps       ncg     rms          rms(c)
DAV:   1    -0.232074787540E+04    0.28624E-01   -0.12363E+00  4472   0.873E-01    0.418E-01
RMM:   2    -0.232077794106E+04   -0.30066E-01   -0.29551E-01  6199   0.208E-01    0.526E-01
RMM:   3    -0.232077803977E+04   -0.98716E-04   -0.29038E-02  5689   0.829E-02    0.205E-01
RMM:   4    -0.232077778684E+04    0.25293E-03   -0.33995E-03  4340   0.181E-02    0.987E-02
RMM:   5    -0.232077767793E+04    0.10891E-03   -0.23047E-04  3130   0.899E-03    0.842E-02
RMM:   6    -0.232077763876E+04    0.39173E-04   -0.25434E-04  3545   0.894E-03    0.775E-02
RMM:   7    -0.232077758638E+04    0.52372E-04   -0.13873E-04  2951   0.789E-03    0.151E-02
RMM:   8    -0.232077758335E+04    0.30351E-05   -0.20412E-05  2901   0.469E-03
  41 F= -.23416375E+04 E0= -.23416375E+04  d E =-.173496E-02  mag=     5.0000
       N       E                     dE             d eps       ncg     rms          rms(c)
DAV:   1    -0.232077449338E+04    0.30930E-02   -0.15627E-01  4536   0.298E-01    0.145E-01
RMM:   2    -0.232077841568E+04   -0.39223E-02   -0.38793E-02  6412   0.730E-02    0.176E-01
RMM:   3    -0.232077847664E+04   -0.60958E-04   -0.38044E-03  3622   0.285E-02    0.703E-02
RMM:   4    -0.232077845314E+04    0.23497E-04   -0.43985E-04  2974   0.726E-03    0.348E-02
RMM:   5    -0.232077843855E+04    0.14590E-04   -0.25531E-05  2841   0.327E-03    0.270E-02
RMM:   6    -0.232077843837E+04    0.18536E-06   -0.32784E-05  2843   0.336E-03
  42 F= -.23416382E+04 E0= -.23416382E+04  d E =-.691289E-03  mag=     5.0000
       N       E                     dE             d eps       ncg     rms          rms(c)
DAV:   1    -0.232074488901E+04    0.33550E-01   -0.14012E+00  4472   0.894E-01    0.442E-01
RMM:   2    -0.232078039793E+04   -0.35509E-01   -0.34881E-01  6387   0.217E-01    0.566E-01
RMM:   3    -0.232078057351E+04   -0.17558E-03   -0.34224E-02  5808   0.858E-02    0.214E-01
RMM:   4    -0.232078034191E+04    0.23160E-03   -0.39675E-03  4002   0.186E-02    0.104E-01
RMM:   5    -0.232078023007E+04    0.11184E-03   -0.22318E-04  3077   0.825E-03    0.882E-02
RMM:   6    -0.232078019166E+04    0.38410E-04   -0.26193E-04  3283   0.858E-03    0.835E-02
RMM:   7    -0.232078013283E+04    0.58830E-04   -0.17225E-04  3003   0.807E-03    0.169E-02
RMM:   8    -0.232078012986E+04    0.29654E-05   -0.21799E-05  2908   0.467E-03
  43 F= -.23416393E+04 E0= -.23416393E+04  d E =-.187567E-02  mag=     5.0000
       N       E                     dE             d eps       ncg     rms          rms(c)
DAV:   1    -0.232063800066E+04    0.14213E+00   -0.56125E+00  4472   0.179E+00    0.874E-01
RMM:   2    -0.232077918672E+04   -0.14119E+00   -0.13963E+00  6408   0.440E-01    0.108E+00
RMM:   3    -0.232078219561E+04   -0.30089E-02   -0.14350E-01  6092   0.171E-01    0.455E-01
RMM:   4    -0.232078100653E+04    0.11891E-02   -0.16014E-02  5281   0.374E-02    0.210E-01
RMM:   5    -0.232078051932E+04    0.48721E-03   -0.89451E-04  4192   0.147E-02    0.170E-01
RMM:   6    -0.232078038638E+04    0.13294E-03   -0.10884E-03  4622   0.155E-02    0.172E-01
RMM:   7    -0.232078013093E+04    0.25545E-03   -0.68928E-04  4067   0.137E-02    0.373E-02
RMM:   8    -0.232078011267E+04    0.18262E-04   -0.82444E-05  2937   0.645E-03    0.216E-02
RMM:   9    -0.232078011060E+04    0.20690E-05   -0.36441E-05  2896   0.439E-03
  44 F= -.23416382E+04 E0= -.23416382E+04  d E =-.772790E-03  mag=     5.0000
       N       E                     dE             d eps       ncg     rms          rms(c)
DAV:   1    -0.232070653457E+04    0.73578E-01   -0.29473E+00  4472   0.130E+00    0.648E-01
RMM:   2    -0.232078187129E+04   -0.75337E-01   -0.73400E-01  6375   0.319E-01    0.853E-01
RMM:   3    -0.232078124810E+04    0.62319E-03   -0.76030E-02  5998   0.127E-01    0.281E-01
RMM:   4    -0.232078104360E+04    0.20450E-03   -0.85078E-03  4728   0.260E-02    0.147E-01
RMM:   5    -0.232078077002E+04    0.27359E-03   -0.45284E-04  3838   0.116E-02    0.122E-01
RMM:   6    -0.232078072002E+04    0.49999E-04   -0.87020E-04  4286   0.153E-02    0.107E-01
RMM:   7    -0.232078061861E+04    0.10141E-03   -0.20273E-04  2996   0.852E-03    0.436E-02
RMM:   8    -0.232078060014E+04    0.18468E-04   -0.29011E-05  2872   0.432E-03    0.150E-02
RMM:   9    -0.232078059874E+04    0.13966E-05   -0.13292E-05  2907   0.260E-03
  45 F= -.23416395E+04 E0= -.23416395E+04  d E =-.205512E-02  mag=     5.0000
       N       E                     dE             d eps       ncg     rms          rms(c)
DAV:   1    -0.232077279359E+04    0.78065E-02   -0.36812E-01  4484   0.460E-01    0.230E-01
RMM:   2    -0.232078217336E+04   -0.93798E-02   -0.92420E-02  6309   0.113E-01    0.286E-01
RMM:   3    -0.232078224828E+04   -0.74917E-04   -0.91390E-03  4994   0.451E-02    0.110E-01
RMM:   4    -0.232078218223E+04    0.66055E-04   -0.10420E-03  3094   0.105E-02    0.538E-02
RMM:   5    -0.232078214822E+04    0.34011E-04   -0.63652E-05  2907   0.526E-03    0.429E-02
RMM:   6    -0.232078214377E+04    0.44433E-05   -0.79111E-05  2945   0.547E-03
  46 F= -.23416408E+04 E0= -.23416408E+04  d E =-.125859E-02  mag=     5.0000
       N       E                     dE             d eps       ncg     rms          rms(c)
DAV:   1    -0.232074289891E+04    0.39249E-01   -0.15901E+00  4472   0.956E-01    0.479E-01
RMM:   2    -0.232078353322E+04   -0.40634E-01   -0.40211E-01  6204   0.236E-01    0.587E-01
RMM:   3    -0.232078403061E+04   -0.49739E-03   -0.39379E-02  5774   0.957E-02    0.239E-01
RMM:   4    -0.232078370186E+04    0.32875E-03   -0.45598E-03  4647   0.210E-02    0.114E-01
RMM:   5    -0.232078355916E+04    0.14271E-03   -0.27143E-04  3317   0.992E-03    0.907E-02
RMM:   6    -0.232078353620E+04    0.22955E-04   -0.34649E-04  3768   0.100E-02    0.950E-02
RMM:   7    -0.232078346016E+04    0.76045E-04   -0.19767E-04  3119   0.890E-03    0.198E-02
RMM:   8    -0.232078345507E+04    0.50835E-05   -0.28400E-05  2911   0.507E-03
  47 F= -.23416415E+04 E0= -.23416415E+04  d E =-.195566E-02  mag=     5.0000
       N       E                     dE             d eps       ncg     rms          rms(c)
DAV:   1    -0.232076958051E+04    0.13880E-01   -0.56852E-01  4484   0.553E-01    0.284E-01
RMM:   2    -0.232078453946E+04   -0.14959E-01   -0.14938E-01  6383   0.140E-01    0.331E-01
RMM:   3    -0.232078492967E+04   -0.39021E-03   -0.14850E-02  5329   0.569E-02    0.142E-01
RMM:   4    -0.232078482378E+04    0.10590E-03   -0.16896E-03  3255   0.125E-02    0.685E-02
RMM:   5    -0.232078476623E+04    0.57546E-04   -0.93413E-05  2935   0.588E-03    0.499E-02
RMM:   6    -0.232078476662E+04   -0.39252E-06   -0.13029E-04  3028   0.636E-03    0.593E-02
RMM:   7    -0.232078473691E+04    0.29718E-04   -0.66667E-05  2901   0.561E-03    0.121E-02
RMM:   8    -0.232078473534E+04    0.15649E-05   -0.10281E-05  2868   0.298E-03
  48 F= -.23416424E+04 E0= -.23416424E+04  d E =-.882825E-03  mag=     5.0000
       N       E                     dE             d eps       ncg     rms          rms(c)
DAV:   1    -0.232077088588E+04    0.13851E-01   -0.54424E-01  4484   0.541E-01    0.279E-01
RMM:   2    -0.232078525159E+04   -0.14366E-01   -0.14304E-01  6347   0.137E-01    0.332E-01
RMM:   3    -0.232078555896E+04   -0.30737E-03   -0.14181E-02  5309   0.558E-02    0.138E-01
RMM:   4    -0.232078545996E+04    0.98992E-04   -0.16164E-03  3240   0.123E-02    0.668E-02
RMM:   5    -0.232078540463E+04    0.55335E-04   -0.86825E-05  2926   0.571E-03    0.488E-02
RMM:   6    -0.232078540405E+04    0.57515E-06   -0.12712E-04  3022   0.625E-03    0.573E-02
RMM:   7    -0.232078537613E+04    0.27926E-04   -0.63085E-05  2896   0.544E-03    0.121E-02
RMM:   8    -0.232078537438E+04    0.17464E-05   -0.96340E-06  2856   0.287E-03
  49 F= -.23416426E+04 E0= -.23416426E+04  d E =-.112368E-02  mag=     5.0000
       N       E                     dE             d eps       ncg     rms          rms(c)
DAV:   1    -0.232078306825E+04    0.23079E-02   -0.13739E-01  4560   0.320E-01    0.145E-01
RMM:   2    -0.232078630637E+04   -0.32381E-02   -0.32631E-02  6030   0.761E-02    0.153E-01
RMM:   3    -0.232078640557E+04   -0.99202E-04   -0.32373E-03  4038   0.310E-02    0.796E-02
RMM:   4    -0.232078636248E+04    0.43095E-04   -0.36875E-04  2987   0.811E-03    0.376E-02
RMM:   5    -0.232078635019E+04    0.12287E-04   -0.39303E-05  2890   0.499E-03    0.314E-02
RMM:   6    -0.232078634593E+04    0.42618E-05   -0.38594E-05  2897   0.489E-03
  50 F= -.23416434E+04 E0= -.23416434E+04  d E =-.788495E-03  mag=     5.0000
       N       E                     dE             d eps       ncg     rms          rms(c)
DAV:   1    -0.232078541791E+04    0.93228E-03   -0.47264E-02  4688   0.188E-01    0.874E-02
RMM:   2    -0.232078653753E+04   -0.11196E-02   -0.11325E-02  6216   0.456E-02    0.921E-02
RMM:   3    -0.232078657115E+04   -0.33619E-04   -0.11312E-03  3125   0.183E-02    0.485E-02
RMM:   4    -0.232078655612E+04    0.15028E-04   -0.13180E-04  2933   0.538E-03    0.237E-02
RMM:   5    -0.232078655384E+04    0.22797E-05   -0.15890E-05  2852   0.306E-03
  51 F= -.23416435E+04 E0= -.23416435E+04  d E =-.887218E-03  mag=     5.0000
       N       E                     dE             d eps       ncg     rms          rms(c)
DAV:   1    -0.232078595399E+04    0.60213E-03   -0.54956E-02  4496   0.228E-01    0.882E-02
RMM:   2    -0.232078695126E+04   -0.99727E-03   -0.10009E-02  6128   0.491E-02    0.888E-02
RMM:   3    -0.232078698071E+04   -0.29451E-04   -0.10798E-03  3301   0.203E-02    0.486E-02
RMM:   4    -0.232078696090E+04    0.19815E-04   -0.11622E-04  2938   0.577E-03    0.223E-02
RMM:   5    -0.232078695617E+04    0.47287E-05   -0.20806E-05  2890   0.402E-03
  52 F= -.23416438E+04 E0= -.23416438E+04  d E =-.341888E-03  mag=     5.0000
       N       E                     dE             d eps       ncg     rms          rms(c)
DAV:   1    -0.232078664433E+04    0.31656E-03   -0.21554E-02  4640   0.143E-01    0.575E-02
RMM:   2    -0.232078705477E+04   -0.41043E-03   -0.39999E-03  6096   0.326E-02    0.713E-02
RMM:   3    -0.232078704697E+04    0.77996E-05   -0.42563E-04  2964   0.125E-02    0.324E-02
RMM:   4    -0.232078703947E+04    0.74998E-05   -0.49779E-05  2922   0.403E-03
  53 F= -.23416439E+04 E0= -.23416439E+04  d E =-.386896E-03  mag=     5.0000
       N       E                     dE             d eps       ncg     rms          rms(c)
DAV:   1    -0.232078621019E+04    0.83678E-03   -0.66961E-02  4480   0.257E-01    0.883E-02
RMM:   2    -0.232078740795E+04   -0.11978E-02   -0.12022E-02  6196   0.541E-02    0.879E-02
RMM:   3    -0.232078745788E+04   -0.49930E-04   -0.12520E-03  3221   0.205E-02    0.519E-02
RMM:   4    -0.232078743846E+04    0.19422E-04   -0.13322E-04  2942   0.581E-03    0.270E-02
RMM:   5    -0.232078743495E+04    0.35149E-05   -0.21601E-05  2871   0.346E-03
  54 F= -.23416442E+04 E0= -.23416442E+04  d E =-.354589E-03  mag=     5.0000
       N       E                     dE             d eps       ncg     rms          rms(c)
DAV:   1    -0.232078654623E+04    0.89223E-03   -0.56154E-02  4496   0.235E-01    0.843E-02
RMM:   2    -0.232078756701E+04   -0.10208E-02   -0.10117E-02  6226   0.504E-02    0.968E-02
RMM:   3    -0.232078757661E+04   -0.95975E-05   -0.10987E-03  3135   0.190E-02    0.430E-02
RMM:   4    -0.232078756307E+04    0.13543E-04   -0.11128E-04  2953   0.552E-03    0.224E-02
RMM:   5    -0.232078756195E+04    0.11171E-05   -0.20687E-05  2871   0.361E-03
  55 F= -.23416443E+04 E0= -.23416443E+04  d E =-.443819E-03  mag=     5.0000
       N       E                     dE             d eps       ncg     rms          rms(c)
DAV:   1    -0.232078676524E+04    0.79783E-03   -0.70356E-02  4480   0.267E-01    0.906E-02
RMM:   2    -0.232078792273E+04   -0.11575E-02   -0.11565E-02  6215   0.567E-02    0.995E-02
RMM:   3    -0.232078793692E+04   -0.14189E-04   -0.11527E-03  3355   0.204E-02    0.506E-02
RMM:   4    -0.232078791785E+04    0.19069E-04   -0.12664E-04  2942   0.600E-03    0.260E-02
RMM:   5    -0.232078791645E+04    0.14034E-05   -0.24945E-05  2882   0.373E-03
  56 F= -.23416446E+04 E0= -.23416446E+04  d E =-.324877E-03  mag=     5.0000
       N       E                     dE             d eps       ncg     rms          rms(c)
DAV:   1    -0.232078750840E+04    0.40945E-03   -0.28387E-02  4544   0.170E-01    0.576E-02
RMM:   2    -0.232078796679E+04   -0.45839E-03   -0.46345E-03  6164   0.362E-02    0.599E-02
RMM:   3    -0.232078798169E+04   -0.14898E-04   -0.52046E-04  2973   0.139E-02    0.325E-02
RMM:   4    -0.232078797405E+04    0.76328E-05   -0.52219E-05  2929   0.419E-03
  57 F= -.23416447E+04 E0= -.23416447E+04  d E =-.363399E-03  mag=     5.0000
       N       E                     dE             d eps       ncg     rms          rms(c)
DAV:   1    -0.232078731098E+04    0.67071E-03   -0.65428E-02  4480   0.261E-01    0.833E-02
RMM:   2    -0.232078821632E+04   -0.90534E-03   -0.91030E-03  5969   0.511E-02    0.796E-02
RMM:   3    -0.232078825162E+04   -0.35304E-04   -0.99444E-04  3433   0.214E-02    0.504E-02
RMM:   4    -0.232078823279E+04    0.18825E-04   -0.10677E-04  2942   0.572E-03    0.259E-02
RMM:   5    -0.232078823241E+04    0.38295E-06   -0.24048E-05  2878   0.361E-03
  58 F= -.23416449E+04 E0= -.23416449E+04  d E =-.244201E-03  mag=     5.0000
       N       E                     dE             d eps       ncg     rms          rms(c)
DAV:   1    -0.232078806321E+04    0.16959E-03   -0.13216E-02  4768   0.118E-01    0.390E-02
RMM:   2    -0.232078824732E+04   -0.18411E-03   -0.18536E-03  5800   0.245E-02    0.406E-02
RMM:   3    -0.232078825323E+04   -0.59183E-05   -0.21596E-04  2911   0.980E-03    0.229E-02
RMM:   4    -0.232078824909E+04    0.41490E-05   -0.21517E-05  2909   0.305E-03
  59 F= -.23416449E+04 E0= -.23416449E+04  d E =-.254260E-03  mag=     5.0000
       N       E                     dE             d eps       ncg     rms          rms(c)
DAV:   1    -0.232078769439E+04    0.55884E-03   -0.64363E-02  4496   0.252E-01    0.784E-02
RMM:   2    -0.232078855500E+04   -0.86061E-03   -0.85944E-03  5983   0.480E-02    0.864E-02
RMM:   3    -0.232078856524E+04   -0.10236E-04   -0.82249E-04  3322   0.198E-02    0.444E-02
RMM:   4    -0.232078855099E+04    0.14247E-04   -0.10121E-04  2940   0.532E-03    0.239E-02
RMM:   5    -0.232078854924E+04    0.17515E-05   -0.19138E-05  2869   0.345E-03
  60 F= -.23416452E+04 E0= -.23416452E+04  d E =-.291623E-03  mag=     5.0000
       N       E                     dE             d eps       ncg     rms          rms(c)
DAV:   1    -0.232078753022E+04    0.10208E-02   -0.83553E-02  4496   0.287E-01    0.898E-02
RMM:   2    -0.232078864045E+04   -0.11102E-02   -0.11190E-02  6104   0.557E-02    0.951E-02
RMM:   3    -0.232078866309E+04   -0.22646E-04   -0.11529E-03  3453   0.215E-02    0.513E-02
RMM:   4    -0.232078864378E+04    0.19317E-04   -0.13279E-04  2943   0.625E-03    0.257E-02
RMM:   5    -0.232078864403E+04   -0.25037E-06   -0.28830E-05  2905   0.404E-03
  61 F= -.23416453E+04 E0= -.23416453E+04  d E =-.376101E-03  mag=     5.0000
       N       E                     dE             d eps       ncg     rms          rms(c)
DAV:   1    -0.232078828704E+04    0.35674E-03   -0.42757E-02  4496   0.202E-01    0.625E-02
RMM:   2    -0.232078884795E+04   -0.56091E-03   -0.56727E-03  6178   0.401E-02    0.643E-02
RMM:   3    -0.232078886418E+04   -0.16235E-04   -0.57544E-04  3075   0.151E-02    0.358E-02
RMM:   4    -0.232078885528E+04    0.89051E-05   -0.65234E-05  2935   0.455E-03
  62 F= -.23416455E+04 E0= -.23416455E+04  d E =-.206856E-03  mag=     5.0000
       N       E                     dE             d eps       ncg     rms          rms(c)
DAV:   1    -0.232078671227E+04    0.21519E-02   -0.17535E-01  4496   0.408E-01    0.128E-01
RMM:   2    -0.232078903053E+04   -0.23183E-02   -0.23229E-02  5890   0.768E-02    0.139E-01
RMM:   3    -0.232078906651E+04   -0.35978E-04   -0.22580E-03  4007   0.324E-02    0.724E-02
RMM:   4    -0.232078902794E+04    0.38568E-04   -0.26879E-04  3021   0.778E-03    0.387E-02
RMM:   5    -0.232078902262E+04    0.53230E-05   -0.50977E-05  2916   0.527E-03
  63 F= -.23416457E+04 E0= -.23416457E+04  d E =-.364437E-03  mag=     5.0000
       N       E                     dE             d eps       ncg     rms          rms(c)
DAV:   1    -0.232078839593E+04    0.63201E-03   -0.67332E-02  4496   0.249E-01    0.795E-02
RMM:   2    -0.232078931303E+04   -0.91710E-03   -0.91500E-03  6256   0.500E-02    0.898E-02
RMM:   3    -0.232078932944E+04   -0.16408E-04   -0.10213E-03  3259   0.191E-02    0.468E-02
RMM:   4    -0.232078931734E+04    0.12095E-04   -0.11137E-04  2935   0.574E-03    0.267E-02
RMM:   5    -0.232078931706E+04    0.28149E-06   -0.23853E-05  2875   0.333E-03
  64 F= -.23416460E+04 E0= -.23416460E+04  d E =-.284594E-03  mag=     5.0000
       N       E                     dE             d eps       ncg     rms          rms(c)
DAV:   1    -0.232078845093E+04    0.86642E-03   -0.71841E-02  4512   0.256E-01    0.808E-02
RMM:   2    -0.232078941178E+04   -0.96085E-03   -0.96960E-03  6111   0.499E-02    0.836E-02
RMM:   3    -0.232078943827E+04   -0.26485E-04   -0.95814E-04  3292   0.196E-02    0.460E-02
RMM:   4    -0.232078942388E+04    0.14385E-04   -0.11186E-04  2947   0.560E-03    0.235E-02
RMM:   5    -0.232078941901E+04    0.48700E-05   -0.21509E-05  2883   0.384E-03
  65 F= -.23416461E+04 E0= -.23416461E+04  d E =-.375905E-03  mag=     5.0000
       N       E                     dE             d eps       ncg     rms          rms(c)
DAV:   1    -0.232078907124E+04    0.35265E-03   -0.45718E-02  4528   0.214E-01    0.758E-02
RMM:   2    -0.232078970511E+04   -0.63388E-03   -0.63842E-03  6128   0.439E-02    0.742E-02
RMM:   3    -0.232078972222E+04   -0.17108E-04   -0.71343E-04  3269   0.180E-02    0.461E-02
RMM:   4    -0.232078970573E+04    0.16489E-04   -0.80812E-05  2927   0.543E-03    0.226E-02
RMM:   5    -0.232078970521E+04    0.51870E-06   -0.19908E-05  2879   0.331E-03
  66 F= -.23416463E+04 E0= -.23416463E+04  d E =-.244839E-03  mag=     5.0000
       N       E                     dE             d eps       ncg     rms          rms(c)
DAV:   1    -0.232078932661E+04    0.37912E-03   -0.33656E-02  4560   0.183E-01    0.647E-02
RMM:   2    -0.232078978914E+04   -0.46253E-03   -0.46835E-03  6104   0.369E-02    0.616E-02
RMM:   3    -0.232078980212E+04   -0.12984E-04   -0.48246E-04  3122   0.151E-02    0.382E-02
RMM:   4    -0.232078978918E+04    0.12944E-04   -0.56893E-05  2927   0.456E-03    0.173E-02
RMM:   5    -0.232078978795E+04    0.12269E-05   -0.14547E-05  2864   0.322E-03
  67 F= -.23416463E+04 E0= -.23416463E+04  d E =-.291673E-03  mag=     5.0000
       N       E                     dE             d eps       ncg     rms          rms(c)
DAV:   1    -0.232078923338E+04    0.55579E-03   -0.54026E-02  4496   0.224E-01    0.767E-02
RMM:   2    -0.232079007689E+04   -0.84351E-03   -0.84463E-03  6200   0.462E-02    0.814E-02
RMM:   3    -0.232079009785E+04   -0.20957E-04   -0.88570E-04  3169   0.182E-02    0.417E-02
RMM:   4    -0.232079008760E+04    0.10250E-04   -0.10009E-04  2948   0.531E-03    0.211E-02
RMM:   5    -0.232079008757E+04    0.23618E-07   -0.16727E-05  2874   0.315E-03
  68 F= -.23416466E+04 E0= -.23416466E+04  d E =-.236730E-03  mag=     5.0000
       N       E                     dE             d eps       ncg     rms          rms(c)
DAV:   1    -0.232078901757E+04    0.10700E-02   -0.77877E-02  4496   0.268E-01    0.916E-02
RMM:   2    -0.232079023186E+04   -0.12143E-02   -0.12164E-02  6180   0.545E-02    0.982E-02
RMM:   3    -0.232079026032E+04   -0.28463E-04   -0.12186E-03  3347   0.214E-02    0.518E-02
RMM:   4    -0.232079024348E+04    0.16840E-04   -0.14273E-04  2945   0.613E-03    0.272E-02
RMM:   5    -0.232079024226E+04    0.12153E-05   -0.25165E-05  2881   0.379E-03
  69 F= -.23416467E+04 E0= -.23416467E+04  d E =-.315354E-03  mag=     5.0000
       N       E                     dE             d eps       ncg     rms          rms(c)
DAV:   1    -0.232078975265E+04    0.49083E-03   -0.51385E-02  4496   0.219E-01    0.735E-02
RMM:   2    -0.232079052567E+04   -0.77302E-03   -0.78046E-03  6239   0.446E-02    0.747E-02
RMM:   3    -0.232079055111E+04   -0.25436E-04   -0.81517E-04  3141   0.174E-02    0.417E-02
RMM:   4    -0.232079053930E+04    0.11802E-04   -0.91136E-05  2943   0.517E-03    0.213E-02
RMM:   5    -0.232079053957E+04   -0.26869E-06   -0.17358E-05  2884   0.314E-03
  70 F= -.23416469E+04 E0= -.23416469E+04  d E =-.251295E-03  mag=     5.0000
       N       E                     dE             d eps       ncg     rms          rms(c)
DAV:   1    -0.232078899310E+04    0.15462E-02   -0.11464E-01  4496   0.327E-01    0.110E-01
RMM:   2    -0.232079073841E+04   -0.17453E-02   -0.17482E-02  6163   0.653E-02    0.121E-01
RMM:   3    -0.232079076671E+04   -0.28296E-04   -0.17247E-03  3687   0.256E-02    0.618E-02
RMM:   4    -0.232079074117E+04    0.25542E-04   -0.20141E-04  2962   0.704E-03    0.320E-02
RMM:   5    -0.232079073895E+04    0.22194E-05   -0.35611E-05  2907   0.443E-03
  71 F= -.23416470E+04 E0= -.23416470E+04  d E =-.381238E-03  mag=     5.0000
       N       E                     dE             d eps       ncg     rms          rms(c)
DAV:   1    -0.232079001743E+04    0.72373E-03   -0.69211E-02  4512   0.258E-01    0.878E-02
RMM:   2    -0.232079104636E+04   -0.10289E-02   -0.10426E-02  6213   0.527E-02    0.882E-02
RMM:   3    -0.232079107506E+04   -0.28708E-04   -0.10904E-03  3387   0.211E-02    0.500E-02
RMM:   4    -0.232079105538E+04    0.19688E-04   -0.12002E-04  2948   0.603E-03    0.255E-02
RMM:   5    -0.232079105608E+04   -0.70168E-06   -0.25619E-05  2891   0.379E-03
  72 F= -.23416473E+04 E0= -.23416473E+04  d E =-.253611E-03  mag=     5.0000
       N       E                     dE             d eps       ncg     rms          rms(c)
DAV:   1    -0.232079061054E+04    0.44483E-03   -0.34360E-02  4608   0.181E-01    0.623E-02
RMM:   2    -0.232079112550E+04   -0.51496E-03   -0.52298E-03  6165   0.375E-02    0.633E-02
RMM:   3    -0.232079113862E+04   -0.13126E-04   -0.52904E-04  3042   0.148E-02    0.362E-02
RMM:   4    -0.232079112863E+04    0.99933E-05   -0.60231E-05  2940   0.441E-03
  73 F= -.23416473E+04 E0= -.23416473E+04  d E =-.280794E-03  mag=     5.0000
       N       E                     dE             d eps       ncg     rms          rms(c)
DAV:   1    -0.232079012711E+04    0.10115E-02   -0.80170E-02  4496   0.272E-01    0.956E-02
RMM:   2    -0.232079146228E+04   -0.13352E-02   -0.13342E-02  6063   0.558E-02    0.106E-01
RMM:   3    -0.232079148093E+04   -0.18649E-04   -0.13462E-03  3358   0.228E-02    0.535E-02
RMM:   4    -0.232079146273E+04    0.18192E-04   -0.15315E-04  2958   0.605E-03    0.314E-02
RMM:   5    -0.232079146104E+04    0.16954E-05   -0.29248E-05  2884   0.371E-03
  74 F= -.23416476E+04 E0= -.23416476E+04  d E =-.254239E-03  mag=     5.0000
       N       E                     dE             d eps       ncg     rms          rms(c)
DAV:   1    -0.232079102372E+04    0.43901E-03   -0.30110E-02  4576   0.167E-01    0.582E-02
RMM:   2    -0.232079151665E+04   -0.49292E-03   -0.50345E-03  6157   0.353E-02    0.581E-02
RMM:   3    -0.232079153383E+04   -0.17179E-04   -0.51786E-04  2975   0.136E-02    0.341E-02
RMM:   4    -0.232079152542E+04    0.84099E-05   -0.57612E-05  2931   0.417E-03
  75 F= -.23416476E+04 E0= -.23416476E+04  d E =-.269816E-03  mag=     5.0000
       N       E                     dE             d eps       ncg     rms          rms(c)
DAV:   1    -0.232079055661E+04    0.97722E-03   -0.82528E-02  4512   0.274E-01    0.991E-02
RMM:   2    -0.232079189371E+04   -0.13371E-02   -0.13355E-02  6069   0.565E-02    0.104E-01
RMM:   3    -0.232079191150E+04   -0.17787E-04   -0.13800E-03  3545   0.232E-02    0.577E-02
RMM:   4    -0.232079188961E+04    0.21894E-04   -0.15512E-04  2960   0.624E-03    0.316E-02
RMM:   5    -0.232079188832E+04    0.12846E-05   -0.32101E-05  2882   0.381E-03
  76 F= -.23416479E+04 E0= -.23416479E+04  d E =-.275435E-03  mag=     5.0000
       N       E                     dE             d eps       ncg     rms          rms(c)
DAV:   1    -0.232079147844E+04    0.41117E-03   -0.29907E-02  4544   0.165E-01    0.598E-02
RMM:   2    -0.232079195753E+04   -0.47910E-03   -0.48857E-03  6125   0.353E-02    0.578E-02
RMM:   3    -0.232079197273E+04   -0.15201E-04   -0.48690E-04  2990   0.137E-02    0.346E-02
RMM:   4    -0.232079196362E+04    0.91187E-05   -0.54930E-05  2936   0.415E-03
  77 F= -.23416479E+04 E0= -.23416479E+04  d E =-.297032E-03  mag=     5.0000
       N       E                     dE             d eps       ncg     rms          rms(c)
DAV:   1    -0.232079113944E+04    0.83330E-03   -0.74959E-02  4496   0.258E-01    0.978E-02
RMM:   2    -0.232079229653E+04   -0.11571E-02   -0.11380E-02  6024   0.531E-02    0.113E-01
RMM:   3    -0.232079227814E+04    0.18392E-04   -0.11343E-03  3413   0.212E-02    0.544E-02
RMM:   4    -0.232079225662E+04    0.21526E-04   -0.13378E-04  2960   0.605E-03    0.307E-02
RMM:   5    -0.232079225580E+04    0.81693E-06   -0.32175E-05  2908   0.396E-03
  78 F= -.23416481E+04 E0= -.23416481E+04  d E =-.251942E-03  mag=     5.0000
       N       E                     dE             d eps       ncg     rms          rms(c)
DAV:   1    -0.232079203107E+04    0.22555E-03   -0.16369E-02  4672   0.121E-01    0.446E-02
RMM:   2    -0.232079227139E+04   -0.24032E-03   -0.24900E-03  5892   0.261E-02    0.379E-02
RMM:   3    -0.232079228490E+04   -0.13508E-04   -0.26026E-04  2919   0.107E-02    0.289E-02
RMM:   4    -0.232079227818E+04    0.67168E-05   -0.30130E-05  2915   0.342E-03
  79 F= -.23416481E+04 E0= -.23416481E+04  d E =-.254945E-03  mag=     5.0000
       N       E                     dE             d eps       ncg     rms          rms(c)
DAV:   1    -0.232079142213E+04    0.86277E-03   -0.70160E-02  4496   0.238E-01    0.899E-02
RMM:   2    -0.232079248209E+04   -0.10600E-02   -0.10680E-02  6091   0.500E-02    0.901E-02
RMM:   3    -0.232079250079E+04   -0.18701E-04   -0.10657E-03  3303   0.200E-02    0.518E-02
RMM:   4    -0.232079248214E+04    0.18656E-04   -0.12743E-04  2950   0.579E-03    0.278E-02
RMM:   5    -0.232079248223E+04   -0.94398E-07   -0.29120E-05  2887   0.368E-03
  80 F= -.23416484E+04 E0= -.23416484E+04  d E =-.213799E-03  mag=     5.0000
       N       E                     dE             d eps       ncg     rms          rms(c)
DAV:   1    -0.232079238041E+04    0.10173E-03   -0.59364E-03  4896   0.697E-02    0.271E-02
RMM:   2    -0.232079246962E+04   -0.89208E-04   -0.92969E-04  4725   0.159E-02    0.244E-02
RMM:   3    -0.232079247428E+04   -0.46610E-05   -0.93915E-05  2882   0.717E-03
  81 F= -.23416484E+04 E0= -.23416484E+04  d E =-.208612E-03  mag=     5.0000
       N       E                     dE             d eps       ncg     rms          rms(c)
DAV:   1    -0.232079170359E+04    0.76603E-03   -0.66104E-02  4496   0.237E-01    0.954E-02
RMM:   2    -0.232079272849E+04   -0.10249E-02   -0.10210E-02  6028   0.509E-02    0.100E-01
RMM:   3    -0.232079271614E+04    0.12347E-04   -0.98946E-04  3335   0.199E-02    0.511E-02
RMM:   4    -0.232079269457E+04    0.21567E-04   -0.12148E-04  2959   0.593E-03    0.239E-02
RMM:   5    -0.232079269134E+04    0.32276E-05   -0.28113E-05  2908   0.440E-03
  82 F= -.23416486E+04 E0= -.23416486E+04  d E =-.214004E-03  mag=     5.0000
       N       E                     dE             d eps       ncg     rms          rms(c)
DAV:   1    -0.232079263382E+04    0.60756E-04   -0.34366E-03  5256   0.546E-02    0.253E-02
RMM:   2    -0.232079269253E+04   -0.58716E-04   -0.54930E-04  4239   0.132E-02    0.356E-02
RMM:   3    -0.232079268692E+04    0.56114E-05   -0.63364E-05  2862   0.659E-03
  83 F= -.23416486E+04 E0= -.23416486E+04  d E =-.208800E-03  mag=     5.0000
       N       E                     dE             d eps       ncg     rms          rms(c)
DAV:   1    -0.232079195701E+04    0.73553E-03   -0.61650E-02  4496   0.222E-01    0.910E-02
RMM:   2    -0.232079297249E+04   -0.10155E-02   -0.98102E-03  6124   0.480E-02    0.114E-01
RMM:   3    -0.232079291777E+04    0.54724E-04   -0.93389E-04  3246   0.182E-02    0.443E-02
RMM:   4    -0.232079290460E+04    0.13169E-04   -0.11561E-04  2955   0.546E-03    0.226E-02
RMM:   5    -0.232079289933E+04    0.52680E-05   -0.21163E-05  2918   0.391E-03
  84 F= -.23416488E+04 E0= -.23416488E+04  d E =-.198324E-03  mag=     5.0000
       N       E                     dE             d eps       ncg     rms          rms(c)
DAV:   1    -0.232079276220E+04    0.14240E-03   -0.97366E-03  4624   0.885E-02    0.398E-02
RMM:   2    -0.232079293769E+04   -0.17549E-03   -0.15882E-03  5501   0.210E-02    0.622E-02
RMM:   3    -0.232079291523E+04    0.22458E-04   -0.16887E-04  2884   0.812E-03    0.194E-02
RMM:   4    -0.232079291322E+04    0.20116E-05   -0.20323E-05  2911   0.292E-03
  85 F= -.23416488E+04 E0= -.23416488E+04  d E =-.206410E-03  mag=     5.0000
       N       E                     dE             d eps       ncg     rms          rms(c)
DAV:   1    -0.232079207939E+04    0.83584E-03   -0.79928E-02  4480   0.267E-01    0.102E-01
RMM:   2    -0.232079315138E+04   -0.10720E-02   -0.10888E-02  6002   0.545E-02    0.918E-02
RMM:   3    -0.232079317166E+04   -0.20282E-04   -0.10401E-03  3474   0.215E-02    0.608E-02
RMM:   4    -0.232079313839E+04    0.33276E-04   -0.12434E-04  2947   0.637E-03    0.269E-02
RMM:   5    -0.232079313685E+04    0.15363E-05   -0.35230E-05  2906   0.466E-03
  86 F= -.23416490E+04 E0= -.23416490E+04  d E =-.195148E-03  mag=     5.0000
       N       E                     dE             d eps       ncg     rms          rms(c)
DAV:   1    -0.232079312288E+04    0.15502E-04   -0.38598E-04  5280   0.198E-02    0.153E-02
RMM:   2    -0.232079313672E+04   -0.13835E-04   -0.76213E-05  2966   0.510E-03    0.325E-02
RMM:   3    -0.232079312704E+04    0.96774E-05   -0.14003E-05  2603   0.333E-03
  87 F= -.23416490E+04 E0= -.23416490E+04  d E =-.183214E-03  mag=     5.0000
       N       E                     dE             d eps       ncg     rms          rms(c)
DAV:   1    -0.232079224977E+04    0.88694E-03   -0.76721E-02  4480   0.249E-01    0.974E-02
RMM:   2    -0.232079336986E+04   -0.11201E-02   -0.10978E-02  5960   0.513E-02    0.114E-01
RMM:   3    -0.232079332637E+04    0.43489E-04   -0.10536E-03  3387   0.201E-02    0.491E-02
RMM:   4    -0.232079330639E+04    0.19974E-04   -0.12021E-04  2968   0.574E-03    0.235E-02
RMM:   5    -0.232079330216E+04    0.42353E-05   -0.26000E-05  2912   0.419E-03
  88 F= -.23416491E+04 E0= -.23416491E+04  d E =-.170892E-03  mag=     5.0000
       N       E                     dE             d eps       ncg     rms          rms(c)
DAV:   1    -0.232079324962E+04    0.56771E-04   -0.33551E-03  5112   0.526E-02    0.252E-02
RMM:   2    -0.232079331012E+04   -0.60501E-04   -0.50690E-04  4026   0.124E-02    0.435E-02
RMM:   3    -0.232079329653E+04    0.13591E-04   -0.60978E-05  2870   0.619E-03    0.118E-02
RMM:   4    -0.232079329587E+04    0.65817E-06   -0.79308E-06  2834   0.208E-03
  89 F= -.23416491E+04 E0= -.23416491E+04  d E =-.163641E-03  mag=     5.0000
       N       E                     dE             d eps       ncg     rms          rms(c)
DAV:   1    -0.232079259982E+04    0.69671E-03   -0.64466E-02  4480   0.233E-01    0.906E-02
RMM:   2    -0.232079348899E+04   -0.88917E-03   -0.90323E-03  5886   0.475E-02    0.807E-02
RMM:   3    -0.232079350960E+04   -0.20606E-04   -0.86999E-04  3439   0.201E-02    0.529E-02
RMM:   4    -0.232079348531E+04    0.24289E-04   -0.10436E-04  2949   0.562E-03    0.224E-02
RMM:   5    -0.232079347913E+04    0.61793E-05   -0.21628E-05  2890   0.404E-03
  90 F= -.23416493E+04 E0= -.23416493E+04  d E =-.208424E-03  mag=     5.0000
       N       E                     dE             d eps       ncg     rms          rms(c)
DAV:   1    -0.232079328575E+04    0.19956E-03   -0.13574E-02  4576   0.107E-01    0.459E-02
RMM:   2    -0.232079349554E+04   -0.20979E-03   -0.19726E-03  5730   0.244E-02    0.594E-02
RMM:   3    -0.232079347820E+04    0.17333E-04   -0.21727E-04  2927   0.962E-03    0.251E-02
RMM:   4    -0.232079347470E+04    0.34992E-05   -0.26905E-05  2918   0.338E-03
  91 F= -.23416493E+04 E0= -.23416493E+04  d E =-.215512E-03  mag=     5.0000
       N       E                     dE             d eps       ncg     rms          rms(c)
DAV:   1    -0.232079269575E+04    0.78246E-03   -0.65096E-02  4468   0.226E-01    0.897E-02
RMM:   2    -0.232079365714E+04   -0.96140E-03   -0.97006E-03  6094   0.478E-02    0.841E-02
RMM:   3    -0.232079367821E+04   -0.21064E-04   -0.95697E-04  3295   0.185E-02    0.520E-02
RMM:   4    -0.232079365607E+04    0.22140E-04   -0.11012E-04  2957   0.553E-03    0.244E-02
RMM:   5    -0.232079365331E+04    0.27614E-05   -0.24610E-05  2899   0.405E-03
  92 F= -.23416495E+04 E0= -.23416495E+04  d E =-.186775E-03  mag=     5.0000
       N       E                     dE             d eps       ncg     rms          rms(c)
DAV:   1    -0.232079347013E+04    0.18594E-03   -0.12352E-02  4664   0.990E-02    0.432E-02
RMM:   2    -0.232079367061E+04   -0.20049E-03   -0.19043E-03  5613   0.229E-02    0.582E-02
RMM:   3    -0.232079365689E+04    0.13723E-04   -0.19242E-04  2897   0.873E-03    0.233E-02
RMM:   4    -0.232079365386E+04    0.30259E-05   -0.24457E-05  2915   0.309E-03
  93 F= -.23416495E+04 E0= -.23416495E+04  d E =-.190760E-03  mag=     5.0000
       N       E                     dE             d eps       ncg     rms          rms(c)
DAV:   1    -0.232079303843E+04    0.61845E-03   -0.61313E-02  4468   0.222E-01    0.893E-02
RMM:   2    -0.232079389542E+04   -0.85699E-03   -0.86887E-03  6069   0.465E-02    0.822E-02
RMM:   3    -0.232079391577E+04   -0.20342E-04   -0.85444E-04  3267   0.184E-02    0.540E-02
RMM:   4    -0.232079389089E+04    0.24872E-04   -0.99994E-05  2948   0.547E-03    0.263E-02
RMM:   5    -0.232079389183E+04   -0.93417E-06   -0.28560E-05  2902   0.378E-03
  94 F= -.23416497E+04 E0= -.23416497E+04  d E =-.217665E-03  mag=     5.0000
       N       E                     dE             d eps       ncg     rms          rms(c)
DAV:   1    -0.232079364113E+04    0.24977E-03   -0.19226E-02  4512   0.124E-01    0.514E-02
RMM:   2    -0.232079391695E+04   -0.27582E-03   -0.27592E-03  5917   0.276E-02    0.536E-02
RMM:   3    -0.232079391488E+04    0.20684E-05   -0.28473E-04  2928   0.109E-02    0.295E-02
RMM:   4    -0.232079390794E+04    0.69364E-05   -0.33468E-05  2922   0.364E-03
  95 F= -.23416497E+04 E0= -.23416497E+04  d E =-.222061E-03  mag=     5.0000
       N       E                     dE             d eps       ncg     rms          rms(c)
DAV:   1    -0.232079337859E+04    0.53630E-03   -0.55943E-02  4484   0.203E-01    0.825E-02
RMM:   2    -0.232079413084E+04   -0.75226E-03   -0.75707E-03  6124   0.426E-02    0.825E-02
[...]
RMM:   4    -0.232079602164E+04    0.19489E-04   -0.38328E-05  2935   0.452E-03    0.172E-02
RMM:   5    -0.232079601964E+04    0.19957E-05   -0.17730E-05  2916   0.365E-03
 114 F= -.23416517E+04 E0= -.23416517E+04  d E =-.190748E-03  mag=     5.0000
       N       E                     dE             d eps       ncg     rms          rms(c)
DAV:   1    -0.232079591560E+04    0.10604E-03   -0.19800E-02  4496   0.118E-01    0.466E-02
RMM:   2    -0.232079604317E+04   -0.12757E-03   -0.12930E-03  5671   0.240E-02    0.427E-02
RMM:   3    -0.232079604054E+04    0.26253E-05   -0.14542E-04  2934   0.975E-03    0.313E-02
RMM:   4    -0.232079603202E+04    0.85260E-05   -0.20414E-05  2906   0.360E-03
 115 F= -.23416518E+04 E0= -.23416518E+04  d E =-.214967E-03  mag=     5.0000
       N       E                     dE             d eps       ncg     rms          rms(c)
DAV:   1    -0.232079601570E+04    0.24843E-04   -0.34480E-02  4472   0.155E-01    0.633E-02
RMM:   2    -0.232079623096E+04   -0.21526E-03   -0.23300E-03  5959   0.297E-02    0.422E-02
RMM:   3    -0.232079625071E+04   -0.19755E-04   -0.26715E-04  3014   0.124E-02    0.492E-02
RMM:   4    -0.232079623042E+04    0.20290E-04   -0.42833E-05  2909   0.437E-03    0.204E-02
RMM:   5    -0.232079623181E+04   -0.13874E-05   -0.17852E-05  2900   0.302E-03
 116 F= -.23416520E+04 E0= -.23416520E+04  d E =-.191725E-03  mag=     5.0000
       N       E                     dE             d eps       ncg     rms          rms(c)
DAV:   1    -0.232079614672E+04    0.83700E-04   -0.20513E-02  4512   0.120E-01    0.489E-02
RMM:   2    -0.232079628622E+04   -0.13950E-03   -0.13939E-03  5757   0.237E-02    0.479E-02
RMM:   3    -0.232079628151E+04    0.47087E-05   -0.16318E-04  2925   0.986E-03    0.311E-02
RMM:   4    -0.232079627186E+04    0.96495E-05   -0.18956E-05  2901   0.343E-03
 117 F= -.23416520E+04 E0= -.23416520E+04  d E =-.225598E-03  mag=     5.0000
       N       E                     dE             d eps       ncg     rms          rms(c)
DAV:   1    -0.232079627854E+04    0.29716E-05   -0.33839E-02  4456   0.161E-01    0.672E-02
RMM:   2    -0.232079651248E+04   -0.23394E-03   -0.23506E-03  5891   0.310E-02    0.669E-02
RMM:   3    -0.232079650145E+04    0.11033E-04   -0.25176E-04  3060   0.124E-02    0.471E-02
RMM:   4    -0.232079648010E+04    0.21344E-04   -0.39808E-05  2905   0.469E-03    0.184E-02
RMM:   5    -0.232079648306E+04   -0.29523E-05   -0.21285E-05  2933   0.372E-03
 118 F= -.23416522E+04 E0= -.23416522E+04  d E =-.208752E-03  mag=     5.0000
       N       E                     dE             d eps       ncg     rms          rms(c)
DAV:   1    -0.232079644350E+04    0.36600E-04   -0.83418E-03  4568   0.803E-02    0.327E-02
RMM:   2    -0.232079649722E+04   -0.53719E-04   -0.57402E-04  5158   0.169E-02    0.251E-02
RMM:   3    -0.232079650052E+04   -0.33018E-05   -0.74265E-05  2895   0.771E-03
 119 F= -.23416522E+04 E0= -.23416522E+04  d E =-.225032E-03  mag=     5.0000
       N       E                     dE             d eps       ncg     rms          rms(c)
DAV:   1    -0.232079643129E+04    0.65931E-04   -0.37963E-02  4456   0.165E-01    0.680E-02
RMM:   2    -0.232079666535E+04   -0.23406E-03   -0.24931E-03  5898   0.322E-02    0.542E-02
RMM:   3    -0.232079666957E+04   -0.42220E-05   -0.24347E-04  3003   0.115E-02    0.492E-02
RMM:   4    -0.232079664720E+04    0.22369E-04   -0.38921E-05  2908   0.472E-03    0.196E-02
RMM:   5    -0.232079664907E+04   -0.18712E-05   -0.23458E-05  2912   0.374E-03
 120 F= -.23416524E+04 E0= -.23416524E+04  d E =-.173368E-03  mag=     5.0000
       N       E                     dE             d eps       ncg     rms          rms(c)
DAV:   1    -0.232079658882E+04    0.58384E-04   -0.92555E-03  4512   0.816E-02    0.336E-02
RMM:   2    -0.232079664736E+04   -0.58545E-04   -0.60546E-04  5185   0.171E-02    0.293E-02
RMM:   3    -0.232079664756E+04   -0.19128E-06   -0.75646E-05  2901   0.763E-03
 121 F= -.23416524E+04 E0= -.23416524E+04  d E =-.184215E-03  mag=     5.0000
       N       E                     dE             d eps       ncg     rms          rms(c)
DAV:   1    -0.232079661790E+04    0.29468E-04   -0.47480E-02  4456   0.184E-01    0.768E-02
RMM:   2    -0.232079687942E+04   -0.26153E-03   -0.27410E-03  5798   0.349E-02    0.688E-02
RMM:   3    -0.232079686883E+04    0.10588E-04   -0.26730E-04  3070   0.126E-02    0.546E-02
RMM:   4    -0.232079683993E+04    0.28909E-04   -0.46206E-05  2925   0.518E-03    0.222E-02
RMM:   5    -0.232079684405E+04   -0.41226E-05   -0.30536E-05  2922   0.408E-03
 122 F= -.23416526E+04 E0= -.23416526E+04  d E =-.215202E-03  mag=     5.0000
       N       E                     dE             d eps       ncg     rms          rms(c)
DAV:   1    -0.232079677525E+04    0.64678E-04   -0.12597E-02  4528   0.949E-02    0.380E-02
RMM:   2    -0.232079683910E+04   -0.63847E-04   -0.70155E-04  5284   0.190E-02    0.262E-02
RMM:   3    -0.232079684449E+04   -0.53937E-05   -0.89559E-05  2907   0.857E-03
 123 F= -.23416526E+04 E0= -.23416526E+04  d E =-.225416E-03  mag=     5.0000
       N       E                     dE             d eps       ncg     rms          rms(c)
DAV:   1    -0.232079676016E+04    0.78931E-04   -0.48871E-02  4456   0.178E-01    0.745E-02
RMM:   2    -0.232079704798E+04   -0.28782E-03   -0.30445E-03  5847   0.347E-02    0.635E-02
RMM:   3    -0.232079704637E+04    0.16092E-05   -0.30135E-04  3037   0.126E-02    0.523E-02
RMM:   4    -0.232079702069E+04    0.25686E-04   -0.46351E-05  2927   0.503E-03    0.220E-02
RMM:   5    -0.232079702541E+04   -0.47173E-05   -0.31877E-05  2913   0.397E-03
 124 F= -.23416528E+04 E0= -.23416528E+04  d E =-.198015E-03  mag=     5.0000
       N       E                     dE             d eps       ncg     rms          rms(c)
DAV:   1    -0.232079692490E+04    0.95783E-04   -0.19058E-02  4496   0.111E-01    0.448E-02
RMM:   2    -0.232079703510E+04   -0.11020E-03   -0.11586E-03  5564   0.225E-02    0.370E-02
RMM:   3    -0.232079703736E+04   -0.22538E-05   -0.13879E-04  2929   0.971E-03    0.312E-02
RMM:   4    -0.232079702818E+04    0.91734E-05   -0.17828E-05  2899   0.350E-03
 125 F= -.23416528E+04 E0= -.23416528E+04  d E =-.211592E-03  mag=     5.0000
       N       E                     dE             d eps       ncg     rms          rms(c)
DAV:   1    -0.232079695289E+04    0.84467E-04   -0.53794E-02  4472   0.196E-01    0.822E-02
RMM:   2    -0.232079727756E+04   -0.32467E-03   -0.34387E-03  5914   0.370E-02    0.661E-02
RMM:   3    -0.232079728698E+04   -0.94268E-05   -0.40329E-04  3248   0.155E-02    0.635E-02
RMM:   4    -0.232079725121E+04    0.35772E-04   -0.62976E-05  2936   0.563E-03    0.271E-02
RMM:   5    -0.232079725316E+04   -0.19448E-05   -0.30542E-05  2911   0.406E-03
 126 F= -.23416531E+04 E0= -.23416531E+04  d E =-.254465E-03  mag=     5.0000
       N       E                     dE             d eps       ncg     rms          rms(c)
DAV:   1    -0.232079718773E+04    0.63479E-04   -0.87329E-03  4616   0.792E-02    0.332E-02
RMM:   2    -0.232079724097E+04   -0.53239E-04   -0.57058E-04  4970   0.165E-02    0.262E-02
RMM:   3    -0.232079724389E+04   -0.29239E-05   -0.71739E-05  2900   0.767E-03
 127 F= -.23416531E+04 E0= -.23416531E+04  d E =-.257312E-03  mag=     5.0000
       N       E                     dE             d eps       ncg     rms          rms(c)
DAV:   1    -0.232079711025E+04    0.13072E-03   -0.55786E-02  4456   0.201E-01    0.850E-02
RMM:   2    -0.232079746047E+04   -0.35022E-03   -0.37447E-03  5884   0.389E-02    0.645E-02
RMM:   3    -0.232079746793E+04   -0.74622E-05   -0.37400E-04  3179   0.143E-02    0.590E-02
RMM:   4    -0.232079743329E+04    0.34635E-04   -0.57230E-05  2943   0.571E-03    0.213E-02
RMM:   5    -0.232079742899E+04    0.43078E-05   -0.25330E-05  2930   0.455E-03
 128 F= -.23416533E+04 E0= -.23416533E+04  d E =-.206803E-03  mag=     5.0000
       N       E                     dE             d eps       ncg     rms          rms(c)
DAV:   1    -0.232079739636E+04    0.36935E-04   -0.44398E-03  4840   0.570E-02    0.236E-02
RMM:   2    -0.232079742539E+04   -0.29027E-04   -0.30657E-04  4202   0.128E-02    0.167E-02
RMM:   3    -0.232079742726E+04   -0.18735E-05   -0.33173E-05  2886   0.641E-03
 129 F= -.23416533E+04 E0= -.23416533E+04  d E =-.211298E-03  mag=     5.0000
       N       E                     dE             d eps       ncg     rms          rms(c)
DAV:   1    -0.232079736958E+04    0.55810E-04   -0.57245E-02  4456   0.202E-01    0.844E-02
RMM:   2    -0.232079769309E+04   -0.32351E-03   -0.35271E-03  5837   0.385E-02    0.642E-02
RMM:   3    -0.232079769892E+04   -0.58339E-05   -0.34567E-04  3197   0.146E-02    0.599E-02
RMM:   4    -0.232079766139E+04    0.37534E-04   -0.57019E-05  2942   0.575E-03    0.220E-02
RMM:   5    -0.232079766010E+04    0.12898E-05   -0.32177E-05  2940   0.472E-03
 130 F= -.23416535E+04 E0= -.23416535E+04  d E =-.225756E-03  mag=     5.0000
       N       E                     dE             d eps       ncg     rms          rms(c)
DAV:   1    -0.232079763683E+04    0.24555E-04   -0.37803E-03  5112   0.524E-02    0.246E-02
RMM:   2    -0.232079766454E+04   -0.27707E-04   -0.25195E-04  3943   0.118E-02    0.298E-02
RMM:   3    -0.232079765893E+04    0.56074E-05   -0.34955E-05  2877   0.642E-03
 131 F= -.23416535E+04 E0= -.23416535E+04  d E =-.222749E-03  mag=     5.0000
       N       E                     dE             d eps       ncg     rms          rms(c)
DAV:   1    -0.232079761196E+04    0.52580E-04   -0.61805E-02  4456   0.201E-01    0.849E-02
RMM:   2    -0.232079797201E+04   -0.36005E-03   -0.36987E-03  5844   0.381E-02    0.830E-02
RMM:   3    -0.232079794631E+04    0.25699E-04   -0.35768E-04  3215   0.147E-02    0.562E-02
RMM:   4    -0.232079791504E+04    0.31271E-04   -0.58544E-05  2951   0.558E-03    0.247E-02
RMM:   5    -0.232079792087E+04   -0.58240E-05   -0.38453E-05  2924   0.458E-03
 132 F= -.23416538E+04 E0= -.23416538E+04  d E =-.226641E-03  mag=     5.0000
       N       E                     dE             d eps       ncg     rms          rms(c)
DAV:   1    -0.232079787960E+04    0.35447E-04   -0.77570E-03  4592   0.715E-02    0.296E-02
RMM:   2    -0.232079792210E+04   -0.42504E-04   -0.46928E-04  4775   0.152E-02    0.200E-02
RMM:   3    -0.232079792629E+04   -0.41880E-05   -0.57871E-05  2901   0.729E-03
 133 F= -.23416538E+04 E0= -.23416538E+04  d E =-.219387E-03  mag=     5.0000
       N       E                     dE             d eps       ncg     rms          rms(c)
DAV:   1    -0.232079788353E+04    0.38575E-04   -0.54926E-02  4456   0.192E-01    0.825E-02
RMM:   2    -0.232079819609E+04   -0.31256E-03   -0.33642E-03  5851   0.368E-02    0.665E-02
RMM:   3    -0.232079820118E+04   -0.50950E-05   -0.33391E-04  3114   0.137E-02    0.611E-02
RMM:   4    -0.232079816577E+04    0.35410E-04   -0.57805E-05  2930   0.550E-03    0.245E-02
RMM:   5    -0.232079816885E+04   -0.30799E-05   -0.33211E-05  2920   0.435E-03
 134 F= -.23416540E+04 E0= -.23416540E+04  d E =-.228161E-03  mag=     5.0000
       N       E                     dE             d eps       ncg     rms          rms(c)
DAV:   1    -0.232079812271E+04    0.43065E-04   -0.91933E-03  4616   0.788E-02    0.339E-02
RMM:   2    -0.232079817610E+04   -0.53395E-04   -0.57302E-04  4944   0.166E-02    0.272E-02
RMM:   3    -0.232079817821E+04   -0.21113E-05   -0.74659E-05  2902   0.781E-03
 135 F= -.23416540E+04 E0= -.23416540E+04  d E =-.231580E-03  mag=     5.0000
       N       E                     dE             d eps       ncg     rms          rms(c)
DAV:   1    -0.232079813006E+04    0.46044E-04   -0.55730E-02  4456   0.202E-01    0.861E-02
RMM:   2    -0.232079845687E+04   -0.32681E-03   -0.34821E-03  5839   0.387E-02    0.695E-02
RMM:   3    -0.232079846283E+04   -0.59634E-05   -0.34850E-04  3203   0.146E-02    0.642E-02
RMM:   4    -0.232079842451E+04    0.38322E-04   -0.58536E-05  2918   0.571E-03    0.250E-02
RMM:   5    -0.232079842803E+04   -0.35177E-05   -0.34308E-05  2928   0.449E-03
 136 F= -.23416542E+04 E0= -.23416542E+04  d E =-.261217E-03  mag=     5.0000
       N       E                     dE             d eps       ncg     rms          rms(c)
DAV:   1    -0.232079835577E+04    0.68739E-04   -0.12324E-02  4512   0.955E-02    0.402E-02
RMM:   2    -0.232079842818E+04   -0.72408E-04   -0.77484E-04  5276   0.198E-02    0.307E-02
RMM:   3    -0.232079843206E+04   -0.38838E-05   -0.10073E-04  2924   0.895E-03    0.286E-02
RMM:   4    -0.232079842378E+04    0.82836E-05   -0.13606E-05  2889   0.335E-03
 137 F= -.23416542E+04 E0= -.23416542E+04  d E =-.262434E-03  mag=     5.0000
       N       E                     dE             d eps       ncg     rms          rms(c)
DAV:   1    -0.232079834880E+04    0.83261E-04   -0.61814E-02  4456   0.211E-01    0.874E-02
RMM:   2    -0.232079866929E+04   -0.32048E-03   -0.35965E-03  5794   0.384E-02    0.528E-02
RMM:   3    -0.232079869837E+04   -0.29086E-04   -0.41248E-04  3356   0.169E-02    0.630E-02
RMM:   4    -0.232079866242E+04    0.35953E-04   -0.68276E-05  2944   0.582E-03    0.258E-02
RMM:   5    -0.232079866393E+04   -0.15096E-05   -0.29857E-05  2920   0.421E-03
 138 F= -.23416545E+04 E0= -.23416545E+04  d E =-.238354E-03  mag=     5.0000
       N       E                     dE             d eps       ncg     rms          rms(c)
DAV:   1    -0.232079862713E+04    0.35289E-04   -0.55959E-03  4952   0.639E-02    0.287E-02
RMM:   2    -0.232079866320E+04   -0.36066E-04   -0.34771E-04  4185   0.136E-02    0.308E-02
RMM:   3    -0.232079865964E+04    0.35558E-05   -0.45960E-05  2887   0.697E-03
 139 F= -.23416545E+04 E0= -.23416545E+04  d E =-.233522E-03  mag=     5.0000
       N       E                     dE             d eps       ncg     rms          rms(c)
DAV:   1    -0.232079859072E+04    0.72472E-04   -0.73750E-02  4456   0.225E-01    0.932E-02
RMM:   2    -0.232079896475E+04   -0.37403E-03   -0.41535E-03  5731   0.417E-02    0.653E-02
RMM:   3    -0.232079898121E+04   -0.16459E-04   -0.42725E-04  3357   0.167E-02    0.665E-02
RMM:   4    -0.232079893682E+04    0.44389E-04   -0.72965E-05  2952   0.626E-03    0.235E-02
RMM:   5    -0.232079893134E+04    0.54775E-05   -0.33348E-05  2940   0.501E-03
 140 F= -.23416547E+04 E0= -.23416547E+04  d E =-.231065E-03  mag=     5.0000
       N       E                     dE             d eps       ncg     rms          rms(c)
DAV:   1    -0.232079892499E+04    0.11825E-04   -0.18351E-03  5120   0.359E-02    0.177E-02
RMM:   2    -0.232079894066E+04   -0.15667E-04   -0.12087E-04  3201   0.821E-03    0.267E-02
RMM:   3    -0.232079893528E+04    0.53769E-05   -0.18347E-05  2774   0.505E-03
 141 F= -.23416547E+04 E0= -.23416547E+04  d E =-.228462E-03  mag=     5.0000
       N       E                     dE             d eps       ncg     rms          rms(c)
DAV:   1    -0.232079889053E+04    0.50135E-04   -0.66104E-02  4456   0.209E-01    0.876E-02
RMM:   2    -0.232079922147E+04   -0.33094E-03   -0.36568E-03  5708   0.378E-02    0.668E-02
RMM:   3    -0.232079923146E+04   -0.99858E-05   -0.38005E-04  3335   0.161E-02    0.642E-02
RMM:   4    -0.232079918995E+04    0.41506E-04   -0.65765E-05  2950   0.594E-03    0.234E-02
RMM:   5    -0.232079919077E+04   -0.82447E-06   -0.35507E-05  2935   0.481E-03
 142 F= -.23416549E+04 E0= -.23416549E+04  d E =-.225748E-03  mag=     5.0000
       N       E                     dE             d eps       ncg     rms          rms(c)
DAV:   1    -0.232079916876E+04    0.21193E-04   -0.39618E-03  5112   0.517E-02    0.235E-02
RMM:   2    -0.232079919301E+04   -0.24257E-04   -0.24077E-04  3733   0.113E-02    0.239E-02
RMM:   3    -0.232079919116E+04    0.18511E-05   -0.32292E-05  2877   0.641E-03
 143 F= -.23416549E+04 E0= -.23416549E+04  d E =-.218743E-03  mag=     5.0000
       N       E                     dE             d eps       ncg     rms          rms(c)
DAV:   1    -0.232079909260E+04    0.10041E-03   -0.65355E-02  4456   0.210E-01    0.888E-02
RMM:   2    -0.232079945081E+04   -0.35821E-03   -0.38489E-03  5737   0.389E-02    0.724E-02
RMM:   3    -0.232079945973E+04   -0.89213E-05   -0.40637E-04  3283   0.159E-02    0.663E-02
RMM:   4    -0.232079941835E+04    0.41383E-04   -0.65860E-05  2933   0.589E-03    0.256E-02
RMM:   5    -0.232079942203E+04   -0.36749E-05   -0.39919E-05  2937   0.473E-03
 144 F= -.23416552E+04 E0= -.23416552E+04  d E =-.234765E-03  mag=     5.0000
       N       E                     dE             d eps       ncg     rms          rms(c)
DAV:   1    -0.232079937350E+04    0.44853E-04   -0.66467E-03  4672   0.676E-02    0.290E-02
RMM:   2    -0.232079941182E+04   -0.38318E-04   -0.41462E-04  4482   0.144E-02    0.223E-02
RMM:   3    -0.232079941443E+04   -0.26118E-05   -0.54483E-05  2896   0.729E-03
 145 F= -.23416552E+04 E0= -.23416552E+04  d E =-.228475E-03  mag=     5.0000
       N       E                     dE             d eps       ncg     rms          rms(c)
DAV:   1    -0.232079934291E+04    0.68910E-04   -0.52067E-02  4456   0.179E-01    0.783E-02
RMM:   2    -0.232079964478E+04   -0.30187E-03   -0.32586E-03  5784   0.343E-02    0.640E-02
RMM:   3    -0.232079965775E+04   -0.12978E-04   -0.35117E-04  3076   0.134E-02    0.598E-02
RMM:   4    -0.232079962542E+04    0.32338E-04   -0.55512E-05  2925   0.525E-03    0.246E-02
RMM:   5    -0.232079962793E+04   -0.25132E-05   -0.33890E-05  2929   0.426E-03
 146 F= -.23416554E+04 E0= -.23416554E+04  d E =-.235966E-03  mag=     5.0000
       N       E                     dE             d eps       ncg     rms          rms(c)
DAV:   1    -0.232079954882E+04    0.76591E-04   -0.12636E-02  4496   0.884E-02    0.382E-02
RMM:   2    -0.232079962346E+04   -0.74636E-04   -0.81225E-04  5186   0.184E-02    0.294E-02
RMM:   3    -0.232079962828E+04   -0.48178E-05   -0.10642E-04  2914   0.868E-03    0.280E-02
RMM:   4    -0.232079962060E+04    0.76814E-05   -0.14125E-05  2892   0.315E-03
 147 F= -.23416554E+04 E0= -.23416554E+04  d E =-.239865E-03  mag=     5.0000
       N       E                     dE             d eps       ncg     rms          rms(c)
DAV:   1    -0.232079953808E+04    0.90199E-04   -0.60454E-02  4440   0.199E-01    0.823E-02
RMM:   2    -0.232079984606E+04   -0.30798E-03   -0.34795E-03  5762   0.360E-02    0.483E-02
RMM:   3    -0.232079988156E+04   -0.35500E-04   -0.43777E-04  3226   0.167E-02    0.626E-02
RMM:   4    -0.232079984956E+04    0.32000E-04   -0.66032E-05  2921   0.544E-03    0.251E-02
RMM:   5    -0.232079984989E+04   -0.32548E-06   -0.28234E-05  2931   0.398E-03
 148 F= -.23416557E+04 E0= -.23416557E+04  d E =-.272826E-03  mag=     5.0000
       N       E                     dE             d eps       ncg     rms          rms(c)
DAV:   1    -0.232079972473E+04    0.12483E-03   -0.22532E-02  4468   0.122E-01    0.514E-02
RMM:   2    -0.232079985137E+04   -0.12664E-03   -0.13393E-03  5541   0.242E-02    0.431E-02
RMM:   3    -0.232079985617E+04   -0.47987E-05   -0.16830E-04  2963   0.107E-02    0.380E-02
RMM:   4    -0.232079984195E+04    0.14218E-04   -0.21246E-05  2892   0.395E-03    0.139E-02
RMM:   5    -0.232079984260E+04   -0.64488E-06   -0.14540E-05  2891   0.294E-03
 149 F= -.23416557E+04 E0= -.23416557E+04  d E =-.292345E-03  mag=     5.0000
       N       E                     dE             d eps       ncg     rms          rms(c)
DAV:   1    -0.232079970842E+04    0.13353E-03   -0.67205E-02  4440   0.197E-01    0.814E-02
RMM:   2    -0.232080006094E+04   -0.35252E-03   -0.39415E-03  5867   0.370E-02    0.525E-02
RMM:   3    -0.232080009079E+04   -0.29847E-04   -0.43710E-04  3290   0.160E-02    0.576E-02
RMM:   4    -0.232080006238E+04    0.28411E-04   -0.64619E-05  2928   0.541E-03    0.245E-02
RMM:   5    -0.232080005760E+04    0.47765E-05   -0.28156E-05  2923   0.430E-03
 150 F= -.23416560E+04 E0= -.23416560E+04  d E =-.268952E-03  mag=     5.0000
