       N       E                     dE             d eps       ncg     rms          rms(c)
DAV:   1     0.117090166134E+05    0.11709E+05   -0.82889E+05  4800   0.131E+03
DAV:   2    -0.142564731803E+04   -0.13135E+05   -0.12612E+05  5400   0.300E+02
DAV:   3    -0.250541368482E+04   -0.10798E+04   -0.10720E+04  5700   0.914E+01
DAV:   4    -0.252482333422E+04   -0.19410E+02   -0.19324E+02  6300   0.140E+01
DAV:   5    -0.252522826975E+04   -0.40494E+00   -0.40443E+00  6300   0.194E+00    0.171E+02
RMM:   6    -0.148032407696E+04    0.10449E+04   -0.17735E+03  4816   0.344E+01    0.718E+01
RMM:   7    -0.164061551275E+04   -0.16029E+03   -0.22431E+02  5228   0.117E+01    0.480E+01
RMM:   8    -0.170353373114E+04   -0.62918E+02   -0.33542E+01  5179   0.638E+00    0.368E+01
RMM:   9    -0.185173155581E+04   -0.14820E+03   -0.72244E+01  5188   0.769E+00    0.390E+01
RMM:  10    -0.192896852498E+04   -0.77237E+02   -0.41136E+01  5443   0.555E+00    0.215E+01
RMM:  11    -0.204835276318E+04   -0.11938E+03   -0.49486E+01  5058   0.513E+00    0.180E+01
RMM:  12    -0.210550404103E+04   -0.57151E+02   -0.20854E+01  5331   0.341E+00    0.137E+01
RMM:  13    -0.225445312164E+04   -0.14895E+03   -0.13362E+02  4810   0.751E+00    0.128E+01
RMM:  14    -0.229782116517E+04   -0.43368E+02   -0.37811E+01  4833   0.429E+00    0.104E+01
RMM:  15    -0.231575833887E+04   -0.17937E+02   -0.18236E+01  4923   0.281E+00    0.631E+00
RMM:  16    -0.232024668489E+04   -0.44883E+01   -0.43375E+00  5035   0.163E+00    0.499E+00
RMM:  17    -0.232058096645E+04   -0.33428E+00   -0.71067E-01  5839   0.546E-01    0.462E+00
RMM:  18    -0.232109090830E+04   -0.50994E+00   -0.24141E-01  5233   0.238E-01    0.382E+00
RMM:  19    -0.232228359932E+04   -0.11927E+01   -0.60069E-01  4871   0.377E-01    0.223E+00
RMM:  20    -0.232277692149E+04   -0.49332E+00   -0.48928E-01  4966   0.347E-01    0.995E-01
RMM:  21    -0.232285346560E+04   -0.76544E-01   -0.13072E-01  5398   0.228E-01    0.552E-01
RMM:  22    -0.232291405332E+04   -0.60588E-01   -0.31197E-02  4973   0.999E-02    0.337E-01
RMM:  23    -0.232297250431E+04   -0.58451E-01   -0.20906E-02  4828   0.877E-02    0.268E-01
RMM:  24    -0.232299705514E+04   -0.24551E-01   -0.79287E-03  5095   0.600E-02    0.143E-01
RMM:  25    -0.232301625393E+04   -0.19199E-01   -0.45933E-03  4873   0.461E-02    0.101E-01
RMM:  26    -0.232302880256E+04   -0.12549E-01   -0.22780E-03  4860   0.356E-02    0.779E-02
RMM:  27    -0.232303581646E+04   -0.70139E-02   -0.16394E-03  5007   0.282E-02    0.470E-02
RMM:  28    -0.232303944318E+04   -0.36267E-02   -0.99473E-04  4587   0.225E-02    0.286E-02
RMM:  29    -0.232304056846E+04   -0.11253E-02   -0.38452E-04  4560   0.135E-02    0.122E-02
RMM:  30    -0.232304082380E+04   -0.25533E-03   -0.75858E-05  4003   0.783E-03    0.673E-03
RMM:  31    -0.232304095114E+04   -0.12734E-03   -0.29559E-05  3631   0.449E-03    0.806E-03
RMM:  32    -0.232304100432E+04   -0.53181E-04   -0.12516E-05  3321   0.359E-03    0.220E-03
RMM:  33    -0.232304102554E+04   -0.21215E-04   -0.62481E-06  3234   0.253E-03    0.296E-03
RMM:  34    -0.232304103311E+04   -0.75741E-05   -0.32847E-06  2989   0.202E-03
   1 F= -.23437202E+04 E0= -.23437202E+04  d E =-.186400E-06  mag=     4.0000
       N       E                     dE             d eps       ncg     rms          rms(c)
DAV:   1    -0.232302012422E+04    0.20901E-01   -0.21450E+00  4800   0.660E-01    0.305E-01
RMM:   2    -0.232301935474E+04    0.76948E-03   -0.74113E-03  4421   0.349E-02    0.363E-01
RMM:   3    -0.232301921941E+04    0.13533E-03   -0.19262E-03  4185   0.236E-02    0.335E-01
RMM:   4    -0.232301842211E+04    0.79730E-03   -0.18070E-03  4743   0.150E-02    0.508E-02
RMM:   5    -0.232301841164E+04    0.10462E-04   -0.17882E-04  3713   0.121E-02    0.308E-02
RMM:   6    -0.232301840712E+04    0.45267E-05   -0.26702E-05  3315   0.262E-03
   2 F= -.23436974E+04 E0= -.23436974E+04  d E =-.116177E-06  mag=     4.0000
       N       E                     dE             d eps       ncg     rms          rms(c)
DAV:   1    -0.232303639244E+04   -0.17981E-01   -0.85092E+00  4800   0.130E+00    0.605E-01
RMM:   2    -0.232303259371E+04    0.37987E-02   -0.21350E-02  4602   0.659E-02    0.729E-01
RMM:   3    -0.232303182973E+04    0.76398E-03   -0.72784E-03  4474   0.486E-02    0.651E-01
RMM:   4    -0.232302883967E+04    0.29901E-02   -0.70538E-03  4984   0.293E-02    0.986E-02
RMM:   5    -0.232302877269E+04    0.66982E-04   -0.70425E-04  4065   0.257E-02    0.601E-02
RMM:   6    -0.232302875169E+04    0.20995E-04   -0.82017E-05  3930   0.465E-03    0.372E-02
RMM:   7    -0.232302874729E+04    0.44043E-05   -0.19073E-05  3283   0.333E-03
   3 F= -.23437082E+04 E0= -.23437082E+04  d E =-.309066E-06  mag=     4.0000
       N       E                     dE             d eps       ncg     rms          rms(c)
DAV:   1    -0.232296550714E+04    0.63245E-01   -0.42658E+00  4800   0.994E-01    0.443E-01
RMM:   2    -0.232296397108E+04    0.15361E-02   -0.11741E-02  4557   0.462E-02    0.564E-01
RMM:   3    -0.232296337167E+04    0.59941E-03   -0.36844E-03  4938   0.267E-02    0.487E-01
RMM:   4    -0.232296174773E+04    0.16239E-02   -0.34965E-03  4894   0.204E-02    0.781E-02
RMM:   5    -0.232296171974E+04    0.27991E-04   -0.26783E-04  3858   0.143E-02    0.449E-02
RMM:   6    -0.232296170674E+04    0.12999E-04   -0.33842E-05  3431   0.317E-03    0.227E-02
RMM:   7    -0.232296170501E+04    0.17247E-05   -0.10199E-05  3227   0.235E-03
   4 F= -.23436410E+04 E0= -.23436410E+04  d E =-.781007E-07  mag=     4.0000
       N       E                     dE             d eps       ncg     rms          rms(c)
DAV:   1    -0.232309836192E+04   -0.13666E+00   -0.83754E+00  4800   0.143E+00    0.618E-01
RMM:   2    -0.232309346709E+04    0.48948E-02   -0.18407E-02  4558   0.628E-02    0.404E-01
RMM:   3    -0.232309699802E+04   -0.35309E-02   -0.89066E-03  5525   0.401E-02    0.105E+00
RMM:   4    -0.232309155599E+04    0.54420E-02   -0.59994E-03  5859   0.289E-02    0.188E-01
RMM:   5    -0.232309144211E+04    0.11388E-03   -0.42142E-04  4085   0.103E-02    0.424E-02
RMM:   6    -0.232309143510E+04    0.70126E-05   -0.55158E-05  3466   0.519E-03
   5 F= -.23437706E+04 E0= -.23437706E+04  d E =-.415920E-06  mag=     4.0000
       N       E                     dE             d eps       ncg     rms          rms(c)
DAV:   1    -0.232306588050E+04    0.25562E-01   -0.42196E+00  4800   0.101E+00    0.491E-01
RMM:   2    -0.232306343507E+04    0.24454E-02   -0.15167E-02  4618   0.512E-02    0.566E-01
RMM:   3    -0.232306365791E+04   -0.22284E-03   -0.52878E-03  5064   0.321E-02    0.677E-01
RMM:   4    -0.232306103094E+04    0.26270E-02   -0.26322E-03  5053   0.198E-02    0.995E-02
RMM:   5    -0.232306098039E+04    0.50551E-04   -0.62443E-04  4363   0.121E-02    0.313E-02
RMM:   6    -0.232306098072E+04   -0.33130E-06   -0.52878E-05  3481   0.503E-03
   6 F= -.23437407E+04 E0= -.23437407E+04  d E =-.120711E-06  mag=     4.0000
       N       E                     dE             d eps       ncg     rms          rms(c)
DAV:   1    -0.232300637396E+04    0.54606E-01   -0.83214E+00  4800   0.132E+00    0.734E-01
RMM:   2    -0.232300606081E+04    0.31315E-03   -0.36881E-02  4950   0.774E-02    0.128E+00
RMM:   3    -0.232299952074E+04    0.65401E-02   -0.11642E-02  5745   0.453E-02    0.723E-01
RMM:   4    -0.232299591132E+04    0.36094E-02   -0.43067E-03  5014   0.251E-02    0.145E-01
RMM:   5    -0.232299576226E+04    0.14906E-03   -0.13321E-03  4545   0.177E-02    0.409E-02
RMM:   6    -0.232299575089E+04    0.11370E-04   -0.12436E-04  3718   0.697E-03    0.313E-02
RMM:   7    -0.232299573909E+04    0.11801E-04   -0.30921E-05  3472   0.393E-03    0.135E-02
RMM:   8    -0.232299573817E+04    0.92114E-06   -0.11963E-05  3260   0.256E-03
   7 F= -.23436745E+04 E0= -.23436745E+04  d E =-.285883E-06  mag=     4.0000
       N       E                     dE             d eps       ncg     rms          rms(c)
DAV:   1    -0.232300072922E+04   -0.49901E-02   -0.42142E+00  4800   0.103E+00    0.533E-01
RMM:   2    -0.232300572863E+04   -0.49994E-02   -0.22096E-02  4669   0.630E-02    0.133E+00
RMM:   3    -0.232299677145E+04    0.89572E-02   -0.68110E-03  5894   0.303E-02    0.309E-01
RMM:   4    -0.232299576100E+04    0.10104E-02   -0.27748E-03  4513   0.197E-02    0.871E-02
RMM:   5    -0.232299571896E+04    0.42037E-04   -0.49868E-04  4100   0.159E-02    0.582E-02
RMM:   6    -0.232299570307E+04    0.15897E-04   -0.68298E-05  3533   0.417E-03    0.193E-02
RMM:   7    -0.232299569947E+04    0.35921E-05   -0.16339E-05  3225   0.311E-03
   8 F= -.23436750E+04 E0= -.23436750E+04  d E =-.175000E-06  mag=     4.0000
       N       E                     dE             d eps       ncg     rms          rms(c)
DAV:   1    -0.232305452020E+04   -0.58817E-01   -0.85596E+00  4800   0.144E+00    0.714E-01
RMM:   2    -0.232305788657E+04   -0.33664E-02   -0.35748E-02  4822   0.819E-02    0.157E+00
RMM:   3    -0.232304626449E+04    0.11622E-01   -0.10299E-02  5348   0.481E-02    0.428E-01
RMM:   4    -0.232304413057E+04    0.21339E-02   -0.86435E-03  4796   0.315E-02    0.833E-02
RMM:   5    -0.232304410200E+04    0.28570E-04   -0.70370E-04  4129   0.226E-02    0.894E-02
RMM:   6    -0.232304404743E+04    0.54574E-04   -0.98328E-05  3924   0.476E-03    0.260E-02
RMM:   7    -0.232304404818E+04   -0.75207E-06   -0.18967E-05  3244   0.333E-03
   9 F= -.23437232E+04 E0= -.23437232E+04  d E =-.202526E-06  mag=     4.0000
       N       E                     dE             d eps       ncg     rms          rms(c)
DAV:   1    -0.232299948858E+04    0.44559E-01   -0.42818E+00  4800   0.105E+00    0.499E-01
RMM:   2    -0.232299995065E+04   -0.46207E-03   -0.15394E-02  4606   0.543E-02    0.939E-01
RMM:   3    -0.232299596442E+04    0.39862E-02   -0.49290E-03  5471   0.288E-02    0.403E-01
RMM:   4    -0.232299460785E+04    0.13566E-02   -0.43624E-03  4663   0.220E-02    0.469E-02
RMM:   5    -0.232299460833E+04   -0.47420E-06   -0.29535E-04  3712   0.146E-02    0.787E-02
RMM:   6    -0.232299457196E+04    0.36369E-04   -0.44403E-05  3384   0.316E-03    0.146E-02
RMM:   7    -0.232299456977E+04    0.21911E-05   -0.85513E-06  3020   0.220E-03
  10 F= -.23436738E+04 E0= -.23436738E+04  d E =-.100210E-06  mag=     4.0000
       N       E                     dE             d eps       ncg     rms          rms(c)
DAV:   1    -0.232305912433E+04   -0.64552E-01   -0.85582E+00  4800   0.144E+00    0.669E-01
RMM:   2    -0.232305204294E+04    0.70814E-02   -0.20615E-02  4314   0.641E-02    0.415E-01
RMM:   3    -0.232305636007E+04   -0.43171E-02   -0.11893E-02  5690   0.429E-02    0.113E+00
RMM:   4    -0.232304953812E+04    0.68220E-02   -0.61810E-03  5636   0.294E-02    0.138E-01
RMM:   5    -0.232304951641E+04    0.21704E-04   -0.51010E-04  3754   0.899E-03    0.533E-02
RMM:   6    -0.232304949636E+04    0.20055E-04   -0.73553E-05  3550   0.459E-03    0.563E-02
RMM:   7    -0.232304948182E+04    0.14539E-04   -0.25821E-05  3270   0.308E-03    0.763E-03
RMM:   8    -0.232304948252E+04   -0.70172E-06   -0.47083E-06  2943   0.218E-03
  11 F= -.23437287E+04 E0= -.23437287E+04  d E =-.345105E-06  mag=     4.0000
       N       E                     dE             d eps       ncg     rms          rms(c)
DAV:   1    -0.232301180442E+04    0.37677E-01   -0.42367E+00  4800   0.977E-01    0.443E-01
RMM:   2    -0.232300967110E+04    0.21333E-02   -0.96590E-03  4348   0.442E-02    0.426E-01
RMM:   3    -0.232301062866E+04   -0.95756E-03   -0.41460E-03  5355   0.254E-02    0.687E-01
RMM:   4    -0.232300803155E+04    0.25971E-02   -0.27200E-03  4824   0.204E-02    0.838E-02
RMM:   5    -0.232300804067E+04   -0.91189E-05   -0.41184E-04  3918   0.112E-02    0.510E-02
RMM:   6    -0.232300802563E+04    0.15041E-04   -0.44636E-05  3416   0.420E-03    0.252E-02
RMM:   7    -0.232300802143E+04    0.41946E-05   -0.12386E-05  3080   0.230E-03
  12 F= -.23436872E+04 E0= -.23436872E+04  d E =-.634874E-06  mag=     4.0000
       N       E                     dE             d eps       ncg     rms          rms(c)
DAV:   1    -0.232306615570E+04   -0.58130E-01   -0.82765E+00  4800   0.127E+00    0.599E-01
RMM:   2    -0.232306202148E+04    0.41342E-02   -0.23449E-02  4776   0.636E-02    0.605E-01
RMM:   3    -0.232306338234E+04   -0.13609E-02   -0.78183E-03  5530   0.359E-02    0.901E-01
RMM:   4    -0.232305881676E+04    0.45656E-02   -0.36536E-03  4767   0.238E-02    0.127E-01
RMM:   5    -0.232305874031E+04    0.76447E-04   -0.95597E-04  4453   0.146E-02    0.442E-02
RMM:   6    -0.232305874784E+04   -0.75223E-05   -0.10377E-04  3562   0.602E-03    0.426E-02
RMM:   7    -0.232305873978E+04    0.80579E-05   -0.23964E-05  3292   0.325E-03
  13 F= -.23437380E+04 E0= -.23437380E+04  d E =-.512095E-07  mag=     4.0000
       N       E                     dE             d eps       ncg     rms          rms(c)
DAV:   1    -0.232306593144E+04   -0.71836E-02   -0.23865E+00  4800   0.693E-01    0.344E-01
RMM:   2    -0.232306448853E+04    0.14429E-02   -0.60568E-03  4227   0.359E-02    0.188E-01
RMM:   3    -0.232306424914E+04    0.23938E-03   -0.17463E-03  4907   0.206E-02    0.246E-01
RMM:   4    -0.232306408128E+04    0.16787E-03   -0.62517E-04  4165   0.968E-03    0.145E-01
RMM:   5    -0.232306398920E+04    0.92072E-04   -0.10877E-04  3881   0.544E-03    0.313E-02
RMM:   6    -0.232306398563E+04    0.35713E-05   -0.12833E-05  3038   0.310E-03
  14 F= -.23437433E+04 E0= -.23437433E+04  d E =-.698788E-07  mag=     4.0000
       N       E                     dE             d eps       ncg     rms          rms(c)
DAV:   1    -0.232301584563E+04    0.48144E-01   -0.12468E+00  4800   0.476E-01    0.463E-01
RMM:   2    -0.232301533752E+04    0.50812E-03   -0.10630E-02  5228   0.375E-02    0.570E-01
RMM:   3    -0.232301528886E+04    0.48661E-04   -0.43237E-03  4914   0.300E-02    0.590E-01
RMM:   4    -0.232301341726E+04    0.18716E-02   -0.13549E-03  5048   0.142E-02    0.116E-01
RMM:   5    -0.232301342873E+04   -0.11472E-04   -0.32444E-04  4279   0.773E-03    0.992E-02
RMM:   6    -0.232301338073E+04    0.48000E-04   -0.56663E-05  3301   0.474E-03    0.144E-02
RMM:   7    -0.232301337921E+04    0.15241E-05   -0.11457E-05  3135   0.217E-03
  15 F= -.23436925E+04 E0= -.23436925E+04  d E =-.501933E-06  mag=     4.0000
       N       E                     dE             d eps       ncg     rms          rms(c)
DAV:   1    -0.232308015501E+04   -0.66774E-01   -0.60909E-01  4800   0.327E-01    0.269E-01
RMM:   2    -0.232308150842E+04   -0.13534E-02   -0.37327E-03  4689   0.235E-02    0.582E-01
RMM:   3    -0.232307994117E+04    0.15672E-02   -0.13128E-03  5039   0.138E-02    0.174E-01
RMM:   4    -0.232307980289E+04    0.13828E-03   -0.40637E-04  4217   0.821E-03    0.345E-02
RMM:   5    -0.232307981387E+04   -0.10972E-04   -0.40281E-05  3308   0.484E-03    0.375E-02
RMM:   6    -0.232307980616E+04    0.77013E-05   -0.10369E-05  2945   0.188E-03
  16 F= -.23437592E+04 E0= -.23437592E+04  d E =-.188729E-06  mag=     4.0000
       N       E                     dE             d eps       ncg     rms          rms(c)
DAV:   1    -0.232299682769E+04    0.82986E-01   -0.12451E+00  4800   0.477E-01    0.459E-01
RMM:   2    -0.232299547884E+04    0.13488E-02   -0.95197E-03  4682   0.342E-02    0.550E-01
RMM:   3    -0.232299552616E+04   -0.47320E-04   -0.40641E-03  5008   0.255E-02    0.580E-01
RMM:   4    -0.232299380998E+04    0.17162E-02   -0.12071E-03  4735   0.139E-02    0.106E-01
RMM:   5    -0.232299376195E+04    0.48032E-04   -0.24435E-04  4063   0.781E-03    0.301E-02
RMM:   6    -0.232299376860E+04   -0.66525E-05   -0.30366E-05  3265   0.371E-03
  17 F= -.23436728E+04 E0= -.23436728E+04  d E =-.184980E-06  mag=     4.0000
       N       E                     dE             d eps       ncg     rms          rms(c)
DAV:   1    -0.232308025316E+04   -0.86491E-01   -0.64897E-01  5100   0.336E-01    0.469E-01
RMM:   2    -0.232307766846E+04    0.25847E-02   -0.11344E-02  4684   0.401E-02    0.553E-01
RMM:   3    -0.232307803736E+04   -0.36890E-03   -0.48209E-03  4749   0.316E-02    0.626E-01
RMM:   4    -0.232307586357E+04    0.21738E-02   -0.13480E-03  4817   0.149E-02    0.102E-01
RMM:   5    -0.232307577736E+04    0.86217E-04   -0.26482E-04  4257   0.759E-03    0.322E-02
RMM:   6    -0.232307577936E+04   -0.20030E-05   -0.36533E-05  3276   0.393E-03
  18 F= -.23437551E+04 E0= -.23437551E+04  d E =-.198357E-06  mag=     4.0000
       N       E                     dE             d eps       ncg     rms          rms(c)
DAV:   1    -0.232299532080E+04    0.80457E-01   -0.12973E+00  4800   0.496E-01    0.607E-01
RMM:   2    -0.232299096744E+04    0.43534E-02   -0.18533E-02  4689   0.499E-02    0.591E-01
RMM:   3    -0.232299312050E+04   -0.21531E-02   -0.77764E-03  5091   0.370E-02    0.925E-01
RMM:   4    -0.232298871360E+04    0.44069E-02   -0.27786E-03  5226   0.205E-02    0.138E-01
RMM:   5    -0.232298858139E+04    0.13221E-03   -0.48028E-04  4637   0.940E-03    0.430E-02
RMM:   6    -0.232298858272E+04   -0.13355E-05   -0.60550E-05  3362   0.441E-03
  19 F= -.23436677E+04 E0= -.23436677E+04  d E =-.174562E-06  mag=     4.0000
       N       E                     dE             d eps       ncg     rms          rms(c)
DAV:   1    -0.232303351593E+04   -0.44935E-01   -0.62360E-01  4800   0.383E-01    0.354E-01
RMM:   2    -0.232303196306E+04    0.15529E-02   -0.67311E-03  4476   0.323E-02    0.295E-01
RMM:   3    -0.232303307103E+04   -0.11080E-02   -0.27357E-03  4749   0.220E-02    0.561E-01
RMM:   4    -0.232303142637E+04    0.16447E-02   -0.11765E-03  4757   0.129E-02    0.916E-02
RMM:   5    -0.232303138153E+04    0.44842E-04   -0.19933E-04  3963   0.635E-03    0.267E-02
RMM:   6    -0.232303138493E+04   -0.34064E-05   -0.23492E-05  3219   0.356E-03
  20 F= -.23437105E+04 E0= -.23437105E+04  d E =-.222013E-06  mag=     4.0000
       N       E                     dE             d eps       ncg     rms          rms(c)
DAV:   1    -0.232304601966E+04   -0.14638E-01   -0.11710E+00  4800   0.536E-01    0.307E-01
RMM:   2    -0.232304592428E+04    0.95376E-04   -0.28397E-03  4342   0.263E-02    0.187E-01
RMM:   3    -0.232304651383E+04   -0.58954E-03   -0.11670E-03  5157   0.143E-02    0.381E-01
RMM:   4    -0.232304582949E+04    0.68433E-03   -0.68127E-04  4421   0.106E-02    0.920E-02
RMM:   5    -0.232304580845E+04    0.21041E-04   -0.48648E-05  3313   0.425E-03    0.300E-02
RMM:   6    -0.232304580499E+04    0.34652E-05   -0.84599E-06  3026   0.243E-03
  21 F= -.23437251E+04 E0= -.23437251E+04  d E =-.155893E-06  mag=     4.0000
       N       E                     dE             d eps       ncg     rms          rms(c)
DAV:   1    -0.232305887284E+04   -0.13064E-01   -0.60237E-01  4800   0.384E-01    0.311E-01
RMM:   2    -0.232305779809E+04    0.10747E-02   -0.48436E-03  4675   0.271E-02    0.238E-01
RMM:   3    -0.232305863050E+04   -0.83241E-03   -0.19071E-03  4503   0.200E-02    0.492E-01
RMM:   4    -0.232305745543E+04    0.11751E-02   -0.84706E-04  4497   0.115E-02    0.986E-02
RMM:   5    -0.232305741231E+04    0.43115E-04   -0.14187E-04  3896   0.608E-03    0.233E-02
RMM:   6    -0.232305741729E+04   -0.49768E-05   -0.16753E-05  3202   0.354E-03
  22 F= -.23437363E+04 E0= -.23437363E+04  d E =-.155559E-06  mag=     4.0000
       N       E                     dE             d eps       ncg     rms          rms(c)
DAV:   1    -0.232301384115E+04    0.43571E-01   -0.12016E+00  4800   0.555E-01    0.580E-01
RMM:   2    -0.232300840993E+04    0.54312E-02   -0.19494E-02  4792   0.533E-02    0.417E-01
RMM:   3    -0.232301121443E+04   -0.28045E-02   -0.67908E-03  5159   0.360E-02    0.892E-01
RMM:   4    -0.232300710018E+04    0.41143E-02   -0.28706E-03  5366   0.200E-02    0.192E-01
RMM:   5    -0.232300687209E+04    0.22808E-03   -0.47200E-04  4396   0.973E-03    0.475E-02
RMM:   6    -0.232300688576E+04   -0.13664E-04   -0.62082E-05  3427   0.552E-03    0.564E-02
RMM:   7    -0.232300687030E+04    0.15459E-04   -0.22971E-05  3256   0.274E-03    0.103E-02
RMM:   8    -0.232300686956E+04    0.74244E-06   -0.58695E-06  3025   0.197E-03
  23 F= -.23436865E+04 E0= -.23436865E+04  d E =-.222304E-06  mag=     4.0000
       N       E                     dE             d eps       ncg     rms          rms(c)
DAV:   1    -0.232301403695E+04   -0.71667E-02   -0.58562E-01  4800   0.376E-01    0.245E-01
RMM:   2    -0.232301360464E+04    0.43231E-03   -0.23306E-03  4467   0.205E-02    0.152E-01
RMM:   3    -0.232301421854E+04   -0.61391E-03   -0.88546E-04  4618   0.121E-02    0.378E-01
RMM:   4    -0.232301350356E+04    0.71499E-03   -0.48893E-04  4245   0.819E-03    0.631E-02
RMM:   5    -0.232301351413E+04   -0.10577E-04   -0.11156E-04  3528   0.477E-03    0.519E-02
RMM:   6    -0.232301350184E+04    0.12294E-04   -0.14216E-05  3058   0.306E-03    0.817E-03
RMM:   7    -0.232301350137E+04    0.46864E-06   -0.35416E-06  2786   0.143E-03
  24 F= -.23436928E+04 E0= -.23436928E+04  d E =-.102051E-06  mag=     4.0000
       N       E                     dE             d eps       ncg     rms          rms(c)
DAV:   1    -0.232306491257E+04   -0.51411E-01   -0.11766E+00  4800   0.532E-01    0.381E-01
RMM:   2    -0.232306489626E+04    0.16303E-04   -0.51383E-03  4539   0.326E-02    0.479E-01
RMM:   3    -0.232306474372E+04    0.15254E-03   -0.25329E-03  4940   0.208E-02    0.468E-01
RMM:   4    -0.232306371424E+04    0.10295E-02   -0.90116E-04  4516   0.132E-02    0.750E-02
RMM:   5    -0.232306370962E+04    0.46138E-05   -0.15878E-04  3831   0.743E-03    0.369E-02
RMM:   6    -0.232306370296E+04    0.66608E-05   -0.18489E-05  3244   0.323E-03
  25 F= -.23437428E+04 E0= -.23437428E+04  d E =-.335604E-06  mag=     4.0000
       N       E                     dE             d eps       ncg     rms          rms(c)
DAV:   1    -0.232300243806E+04    0.61272E-01   -0.61838E-01  4800   0.385E-01    0.357E-01
RMM:   2    -0.232300085319E+04    0.15849E-02   -0.79576E-03  4602   0.347E-02    0.340E-01
RMM:   3    -0.232300171339E+04   -0.86020E-03   -0.29545E-03  4552   0.250E-02    0.543E-01
RMM:   4    -0.232300018841E+04    0.15250E-02   -0.99685E-04  4651   0.128E-02    0.971E-02
RMM:   5    -0.232300014311E+04    0.45305E-04   -0.19355E-04  4068   0.656E-03    0.286E-02
RMM:   6    -0.232300014567E+04   -0.25624E-05   -0.26204E-05  3234   0.376E-03
  26 F= -.23436791E+04 E0= -.23436791E+04  d E =-.209934E-06  mag=     4.0000
       N       E                     dE             d eps       ncg     rms          rms(c)
DAV:   1    -0.232306654225E+04   -0.66399E-01   -0.12977E+00  5100   0.480E-01    0.563E-01
RMM:   2    -0.232306184296E+04    0.46993E-02   -0.15948E-02  4837   0.456E-02    0.328E-01
RMM:   3    -0.232306322862E+04   -0.13857E-02   -0.46212E-03  4669   0.357E-02    0.683E-01
RMM:   4    -0.232306121056E+04    0.20181E-02   -0.23519E-03  5215   0.180E-02    0.254E-01
RMM:   5    -0.232306085965E+04    0.35091E-03   -0.46963E-04  4516   0.989E-03    0.411E-02
RMM:   6    -0.232306087392E+04   -0.14269E-04   -0.54900E-05  3341   0.489E-03    0.394E-02
RMM:   7    -0.232306086527E+04    0.86535E-05   -0.13897E-05  3149   0.234E-03
  27 F= -.23437403E+04 E0= -.23437403E+04  d E =-.163328E-06  mag=     4.0000
       N       E                     dE             d eps       ncg     rms          rms(c)
DAV:   1    -0.232304254204E+04    0.18332E-01   -0.65852E-01  5100   0.333E-01    0.414E-01
RMM:   2    -0.232303987560E+04    0.26664E-02   -0.88508E-03  4713   0.343E-02    0.227E-01
RMM:   3    -0.232304014285E+04   -0.26725E-03   -0.19804E-03  4386   0.254E-02    0.391E-01
RMM:   4    -0.232303961617E+04    0.52668E-03   -0.11391E-03  4713   0.123E-02    0.220E-01
RMM:   5    -0.232303935327E+04    0.26290E-03   -0.27654E-04  4285   0.767E-03    0.365E-02
RMM:   6    -0.232303935629E+04   -0.30247E-05   -0.28101E-05  3247   0.379E-03
  28 F= -.23437186E+04 E0= -.23437186E+04  d E =-.270899E-06  mag=     4.0000
       N       E                     dE             d eps       ncg     rms          rms(c)
DAV:   1    -0.232303727902E+04    0.20742E-02   -0.12201E+00  4950   0.456E-01    0.396E-01
RMM:   2    -0.232303612552E+04    0.11535E-02   -0.47664E-03  4628   0.270E-02    0.234E-01
RMM:   3    -0.232303745946E+04   -0.13339E-02   -0.21796E-03  4730   0.218E-02    0.559E-01
RMM:   4    -0.232303587564E+04    0.15838E-02   -0.10952E-03  4928   0.122E-02    0.893E-02
RMM:   5    -0.232303587318E+04    0.24528E-05   -0.18771E-04  3815   0.645E-03    0.508E-02
RMM:   6    -0.232303586186E+04    0.11319E-04   -0.19282E-05  3235   0.349E-03    0.104E-02
RMM:   7    -0.232303586106E+04    0.80897E-06   -0.68547E-06  3096   0.198E-03
  29 F= -.23437150E+04 E0= -.23437150E+04  d E =-.126025E-06  mag=     4.0000
       N       E                     dE             d eps       ncg     rms          rms(c)
DAV:   1    -0.232303925914E+04   -0.33973E-02   -0.60667E-01  4800   0.315E-01    0.249E-01
RMM:   2    -0.232303919212E+04    0.67017E-04   -0.13647E-03  4236   0.169E-02    0.155E-01
RMM:   3    -0.232303987685E+04   -0.68472E-03   -0.97934E-04  4714   0.117E-02    0.386E-01
RMM:   4    -0.232303917527E+04    0.70158E-03   -0.57974E-04  4515   0.934E-03    0.733E-02
RMM:   5    -0.232303915555E+04    0.19721E-04   -0.30110E-05  3208   0.328E-03    0.227E-02
RMM:   6    -0.232303915303E+04    0.25230E-05   -0.58362E-06  2964   0.182E-03
  30 F= -.23437182E+04 E0= -.23437182E+04  d E =-.287406E-06  mag=     4.0000
       N       E                     dE             d eps       ncg     rms          rms(c)
DAV:   1    -0.232303564052E+04    0.35150E-02   -0.12203E+00  4800   0.457E-01    0.400E-01
RMM:   2    -0.232303441395E+04    0.12266E-02   -0.65235E-03  4473   0.305E-02    0.223E-01
RMM:   3    -0.232303440463E+04    0.93167E-05   -0.11917E-03  4464   0.188E-02    0.235E-01
RMM:   4    -0.232303459286E+04   -0.18823E-03   -0.88280E-04  4612   0.109E-02    0.285E-01
RMM:   5    -0.232303419199E+04    0.40087E-03   -0.27761E-04  4132   0.743E-03    0.284E-02
RMM:   6    -0.232303419145E+04    0.53520E-06   -0.20027E-05  3208   0.318E-03
  31 F= -.23437136E+04 E0= -.23437136E+04  d E =-.121954E-06  mag=     4.0000
       N       E                     dE             d eps       ncg     rms          rms(c)
DAV:   1    -0.232304052228E+04   -0.63303E-02   -0.61813E-01  4800   0.355E-01    0.315E-01
RMM:   2    -0.232303970112E+04    0.82117E-03   -0.50982E-03  4618   0.277E-02    0.253E-01
RMM:   3    -0.232304050465E+04   -0.80354E-03   -0.20124E-03  4427   0.198E-02    0.500E-01
RMM:   4    -0.232303927018E+04    0.12345E-02   -0.93608E-04  4683   0.115E-02    0.100E-01
RMM:   5    -0.232303922728E+04    0.42897E-04   -0.15246E-04  3983   0.632E-03    0.444E-02
RMM:   6    -0.232303922161E+04    0.56692E-05   -0.22448E-05  3157   0.331E-03
  32 F= -.23437182E+04 E0= -.23437182E+04  d E =-.109185E-06  mag=     4.0000
       N       E                     dE             d eps       ncg     rms          rms(c)
DAV:   1    -0.232303929498E+04   -0.67699E-04   -0.12362E+00  4800   0.469E-01    0.489E-01
RMM:   2    -0.232303627654E+04    0.30184E-02   -0.11755E-02  4852   0.387E-02    0.359E-01
RMM:   3    -0.232303866010E+04   -0.23836E-02   -0.53093E-03  4473   0.362E-02    0.802E-01
RMM:   4    -0.232303524699E+04    0.34131E-02   -0.20223E-03  5194   0.165E-02    0.124E-01
RMM:   5    -0.232303518581E+04    0.61180E-04   -0.35918E-04  4306   0.851E-03    0.735E-02
RMM:   6    -0.232303516420E+04    0.21617E-04   -0.51282E-05  3288   0.415E-03    0.220E-02
RMM:   7    -0.232303516122E+04    0.29803E-05   -0.98116E-06  3024   0.224E-03
  33 F= -.23437146E+04 E0= -.23437146E+04  d E =-.323724E-06  mag=     4.0000
       N       E                     dE             d eps       ncg     rms          rms(c)
DAV:   1    -0.232305969076E+04   -0.24527E-01   -0.58848E-01  4800   0.324E-01    0.228E-01
RMM:   2    -0.232306012361E+04   -0.43285E-03   -0.22178E-03  4202   0.193E-02    0.353E-01
RMM:   3    -0.232305965406E+04    0.46955E-03   -0.77756E-04  4460   0.108E-02    0.192E-01
RMM:   4    -0.232305951578E+04    0.13828E-03   -0.40684E-04  3937   0.768E-03    0.412E-02
RMM:   5    -0.232305950455E+04    0.11234E-04   -0.37194E-05  3093   0.507E-03    0.158E-02
RMM:   6    -0.232305950224E+04    0.23048E-05   -0.51196E-06  2610   0.143E-03
  34 F= -.23437390E+04 E0= -.23437390E+04  d E =-.230160E-06  mag=     4.0000
       N       E                     dE             d eps       ncg     rms          rms(c)
DAV:   1    -0.232301354809E+04    0.45956E-01   -0.12369E+00  5100   0.472E-01    0.519E-01
RMM:   2    -0.232301009138E+04    0.34567E-02   -0.13878E-02  4660   0.412E-02    0.441E-01
RMM:   3    -0.232301231045E+04   -0.22191E-02   -0.58682E-03  5247   0.294E-02    0.830E-01
RMM:   4    -0.232300873670E+04    0.35737E-02   -0.23597E-03  4920   0.179E-02    0.125E-01
RMM:   5    -0.232300863849E+04    0.98215E-04   -0.38064E-04  4155   0.848E-03    0.363E-02
RMM:   6    -0.232300865481E+04   -0.16322E-04   -0.41867E-05  3238   0.424E-03    0.483E-02
RMM:   7    -0.232300864316E+04    0.11648E-04   -0.15658E-05  3021   0.222E-03    0.841E-03
RMM:   8    -0.232300864290E+04    0.26493E-06   -0.45371E-06  2852   0.168E-03
  35 F= -.23436876E+04 E0= -.23436876E+04  d E =-.149978E-06  mag=     4.0000
       N       E                     dE             d eps       ncg     rms          rms(c)
DAV:   1    -0.232300190338E+04    0.67398E-02   -0.60822E-01  4800   0.321E-01    0.251E-01
RMM:   2    -0.232300170101E+04    0.20238E-03   -0.17881E-03  4226   0.173E-02    0.156E-01
RMM:   3    -0.232300220092E+04   -0.49991E-03   -0.79161E-04  4485   0.114E-02    0.348E-01
RMM:   4    -0.232300165675E+04    0.54417E-03   -0.59286E-04  4283   0.867E-03    0.112E-01
RMM:   5    -0.232300161251E+04    0.44237E-04   -0.61880E-05  3208   0.419E-03    0.366E-02
RMM:   6    -0.232300160491E+04    0.75960E-05   -0.95289E-06  2838   0.217E-03
  36 F= -.23436811E+04 E0= -.23436811E+04  d E =-.351818E-06  mag=     4.0000
       N       E                     dE             d eps       ncg     rms          rms(c)
DAV:   1    -0.232307324879E+04   -0.71636E-01   -0.12334E+00  5100   0.457E-01    0.446E-01
RMM:   2    -0.232307258890E+04    0.65989E-03   -0.96189E-03  4305   0.376E-02    0.518E-01
RMM:   3    -0.232307274658E+04   -0.15768E-03   -0.38184E-03  5374   0.247E-02    0.579E-01
RMM:   4    -0.232307106648E+04    0.16801E-02   -0.12311E-03  4498   0.139E-02    0.970E-02
RMM:   5    -0.232307103221E+04    0.34264E-04   -0.22705E-04  3747   0.767E-03    0.400E-02
RMM:   6    -0.232307102686E+04    0.53578E-05   -0.29913E-05  3143   0.331E-03
  37 F= -.23437500E+04 E0= -.23437500E+04  d E =-.960386E-07  mag=     4.0000
       N       E                     dE             d eps       ncg     rms          rms(c)
DAV:   1    -0.232301740991E+04    0.53622E-01   -0.61649E-01  5250   0.382E-01    0.349E-01
RMM:   2    -0.232301657496E+04    0.83495E-03   -0.49552E-03  4164   0.317E-02    0.247E-01
RMM:   3    -0.232301792744E+04   -0.13525E-02   -0.22873E-03  5250   0.174E-02    0.605E-01
RMM:   4    -0.232301602420E+04    0.19032E-02   -0.12538E-03  4714   0.134E-02    0.678E-02
RMM:   5    -0.232301600118E+04    0.23023E-04   -0.18803E-04  3626   0.620E-03    0.361E-02
RMM:   6    -0.232301599309E+04    0.80934E-05   -0.17287E-05  2876   0.261E-03
  38 F= -.23436955E+04 E0= -.23436955E+04  d E =-.194027E-06  mag=     4.0000
       N       E                     dE             d eps       ncg     rms          rms(c)
DAV:   1    -0.232304730685E+04   -0.31306E-01   -0.12897E+00  5250   0.536E-01    0.642E-01
RMM:   2    -0.232304065733E+04    0.66495E-02   -0.25271E-02  4473   0.588E-02    0.361E-01
RMM:   3    -0.232304161165E+04   -0.95432E-03   -0.57155E-03  5038   0.374E-02    0.699E-01
RMM:   4    -0.232303948176E+04    0.21299E-02   -0.27161E-03  5182   0.191E-02    0.310E-01
RMM:   5    -0.232303893370E+04    0.54806E-03   -0.59305E-04  4629   0.108E-02    0.475E-02
RMM:   6    -0.232303894825E+04   -0.14556E-04   -0.84811E-05  3340   0.517E-03    0.512E-02
RMM:   7    -0.232303893399E+04    0.14269E-04   -0.16061E-05  3035   0.245E-03    0.896E-03
RMM:   8    -0.232303893364E+04    0.34459E-06   -0.61768E-06  2822   0.167E-03
  39 F= -.23437178E+04 E0= -.23437178E+04  d E =-.179158E-06  mag=     4.0000
       N       E                     dE             d eps       ncg     rms          rms(c)
DAV:   1    -0.232304786002E+04   -0.89260E-02   -0.63890E-01  4800   0.368E-01    0.421E-01
RMM:   2    -0.232304504708E+04    0.28129E-02   -0.97848E-03  4274   0.371E-02    0.214E-01
RMM:   3    -0.232304454615E+04    0.50093E-03   -0.12420E-03  4346   0.214E-02    0.112E-01
RMM:   4    -0.232304450114E+04    0.45003E-04   -0.48912E-04  4250   0.932E-03    0.960E-02
RMM:   5    -0.232304453980E+04   -0.38655E-04   -0.18537E-04  3345   0.754E-03    0.126E-01
RMM:   6    -0.232304446042E+04    0.79375E-04   -0.45532E-05  2972   0.339E-03    0.181E-02
RMM:   7    -0.232304445840E+04    0.20205E-05   -0.63714E-06  2687   0.164E-03
  40 F= -.23437238E+04 E0= -.23437238E+04  d E =-.227214E-06  mag=     4.0000
       N       E                     dE             d eps       ncg     rms          rms(c)
DAV:   1    -0.232303371101E+04    0.10749E-01   -0.11936E+00  4800   0.502E-01    0.345E-01
RMM:   2    -0.232303339121E+04    0.31980E-03   -0.30150E-03  4085   0.247E-02    0.216E-01
RMM:   3    -0.232303506585E+04   -0.16746E-02   -0.20451E-03  4598   0.174E-02    0.596E-01
RMM:   4    -0.232303333239E+04    0.17335E-02   -0.10071E-03  4877   0.121E-02    0.534E-02
RMM:   5    -0.232303333571E+04   -0.33285E-05   -0.14667E-04  3528   0.534E-03    0.358E-02
RMM:   6    -0.232303332850E+04    0.72177E-05   -0.13004E-05  3064   0.256E-03
  41 F= -.23437124E+04 E0= -.23437124E+04  d E =-.153501E-06  mag=     4.0000
       N       E                     dE             d eps       ncg     rms          rms(c)
DAV:   1    -0.232304730554E+04   -0.13970E-01   -0.59351E-01  4800   0.351E-01    0.239E-01
RMM:   2    -0.232304732536E+04   -0.19822E-04   -0.19331E-03  3939   0.192E-02    0.177E-01
RMM:   3    -0.232304820599E+04   -0.88063E-03   -0.11759E-03  4618   0.110E-02    0.445E-01
RMM:   4    -0.232304724352E+04    0.96247E-03   -0.55847E-04  4330   0.972E-03    0.409E-02
RMM:   5    -0.232304723809E+04    0.54329E-05   -0.81630E-05  3199   0.428E-03
  42 F= -.23437268E+04 E0= -.23437268E+04  d E =-.149583E-06  mag=     4.0000
       N       E                     dE             d eps       ncg     rms          rms(c)
DAV:   1    -0.232303191102E+04    0.15333E-01   -0.11893E+00  4800   0.491E-01    0.336E-01
RMM:   2    -0.232303182252E+04    0.88500E-04   -0.26410E-03  3987   0.246E-02    0.216E-01
RMM:   3    -0.232303392289E+04   -0.21004E-02   -0.23228E-03  4947   0.163E-02    0.657E-01
RMM:   4    -0.232303178574E+04    0.21371E-02   -0.10174E-03  4839   0.124E-02    0.557E-02
RMM:   5    -0.232303178354E+04    0.21973E-05   -0.15056E-04  3249   0.399E-03    0.173E-02
RMM:   6    -0.232303178324E+04    0.30061E-06   -0.99832E-06  2900   0.218E-03
  43 F= -.23437107E+04 E0= -.23437107E+04  d E =-.237491E-06  mag=     4.0000
       N       E                     dE             d eps       ncg     rms          rms(c)
DAV:   1    -0.232304673955E+04   -0.14956E-01   -0.60304E-01  4800   0.380E-01    0.251E-01
RMM:   2    -0.232304682863E+04   -0.89074E-04   -0.22090E-03  4215   0.215E-02    0.236E-01
RMM:   3    -0.232304717801E+04   -0.34938E-03   -0.10054E-03  4653   0.121E-02    0.362E-01
RMM:   4    -0.232304658494E+04    0.59307E-03   -0.49847E-04  3981   0.957E-03    0.364E-02
RMM:   5    -0.232304658332E+04    0.16244E-05   -0.62953E-05  3265   0.496E-03
  44 F= -.23437258E+04 E0= -.23437258E+04  d E =-.221617E-06  mag=     4.0000
       N       E                     dE             d eps       ncg     rms          rms(c)
DAV:   1    -0.232303217159E+04    0.14413E-01   -0.12016E+00  4800   0.491E-01    0.355E-01
RMM:   2    -0.232303202872E+04    0.14286E-03   -0.42272E-03  4330   0.275E-02    0.280E-01
RMM:   3    -0.232303327201E+04   -0.12433E-02   -0.21986E-03  4920   0.190E-02    0.590E-01
RMM:   4    -0.232303168972E+04    0.15823E-02   -0.12813E-03  4573   0.142E-02    0.871E-02
RMM:   5    -0.232303168067E+04    0.90470E-05   -0.16687E-04  3835   0.623E-03    0.410E-02
RMM:   6    -0.232303167305E+04    0.76187E-05   -0.17646E-05  3037   0.302E-03
  45 F= -.23437109E+04 E0= -.23437109E+04  d E =-.155319E-06  mag=     4.0000
       N       E                     dE             d eps       ncg     rms          rms(c)
DAV:   1    -0.232302432597E+04    0.73547E-02   -0.63353E-01  5250   0.360E-01    0.418E-01
RMM:   2    -0.232302205339E+04    0.22726E-02   -0.89254E-03  4618   0.358E-02    0.364E-01
RMM:   3    -0.232302341515E+04   -0.13618E-02   -0.38977E-03  4800   0.279E-02    0.660E-01
RMM:   4    -0.232302116912E+04    0.22460E-02   -0.14926E-03  4718   0.150E-02    0.110E-01
RMM:   5    -0.232302109696E+04    0.72160E-04   -0.25175E-04  4049   0.720E-03    0.400E-02
RMM:   6    -0.232302109944E+04   -0.24810E-05   -0.31851E-05  3143   0.389E-03
  46 F= -.23436999E+04 E0= -.23436999E+04  d E =-.175067E-06  mag=     4.0000
       N       E                     dE             d eps       ncg     rms          rms(c)
DAV:   1    -0.232304516607E+04   -0.24069E-01   -0.12528E+00  5100   0.511E-01    0.630E-01
RMM:   2    -0.232303901550E+04    0.61506E-02   -0.23742E-02  4632   0.560E-02    0.451E-01
RMM:   3    -0.232304234181E+04   -0.33263E-02   -0.83323E-03  5317   0.395E-02    0.100E+00
RMM:   4    -0.232303731365E+04    0.50282E-02   -0.34930E-03  5293   0.218E-02    0.199E-01
RMM:   5    -0.232303706630E+04    0.24735E-03   -0.54430E-04  4303   0.101E-02    0.612E-02
RMM:   6    -0.232303706847E+04   -0.21702E-05   -0.74564E-05  3353   0.566E-03
  47 F= -.23437167E+04 E0= -.23437167E+04  d E =-.200913E-06  mag=     4.0000
       N       E                     dE             d eps       ncg     rms          rms(c)
DAV:   1    -0.232303893997E+04   -0.18737E-02   -0.62646E-01  4800   0.367E-01    0.426E-01
RMM:   2    -0.232303658078E+04    0.23592E-02   -0.94893E-03  4440   0.383E-02    0.380E-01
RMM:   3    -0.232303790298E+04   -0.13222E-02   -0.39870E-03  4883   0.265E-02    0.656E-01
RMM:   4    -0.232303562304E+04    0.22799E-02   -0.15554E-03  4813   0.153E-02    0.113E-01
RMM:   5    -0.232303553252E+04    0.90518E-04   -0.25252E-04  4011   0.728E-03    0.372E-02
RMM:   6    -0.232303553431E+04   -0.17824E-05   -0.32667E-05  3124   0.380E-03
  48 F= -.23437151E+04 E0= -.23437151E+04  d E =-.232215E-06  mag=     4.0000
       N       E                     dE             d eps       ncg     rms          rms(c)
DAV:   1    -0.232304267898E+04   -0.71465E-02   -0.12126E+00  4800   0.485E-01    0.399E-01
RMM:   2    -0.232304207962E+04    0.59935E-03   -0.54647E-03  4136   0.308E-02    0.358E-01
RMM:   3    -0.232304324726E+04   -0.11676E-02   -0.29454E-03  5328   0.187E-02    0.611E-01
RMM:   4    -0.232304143534E+04    0.18119E-02   -0.13215E-03  4674   0.143E-02    0.779E-02
RMM:   5    -0.232304142669E+04    0.86479E-05   -0.17925E-04  3608   0.686E-03    0.400E-02
RMM:   6    -0.232304141917E+04    0.75239E-05   -0.21342E-05  3123   0.305E-03
  49 F= -.23437203E+04 E0= -.23437203E+04  d E =-.149135E-06  mag=     4.0000
