       N       E                     dE             d eps       ncg     rms          rms(c)
DAV:   1     0.128772317095E+05    0.12877E+05   -0.83428E+05  4480   0.144E+03
DAV:   2    -0.104583749888E+04   -0.13923E+05   -0.13319E+05  5104   0.330E+02
DAV:   3    -0.247100851526E+04   -0.14252E+04   -0.14100E+04  5400   0.112E+02
DAV:   4    -0.251695466496E+04   -0.45946E+02   -0.45698E+02  6776   0.302E+01
DAV:   5    -0.251773210730E+04   -0.77744E+00   -0.77619E+00  6008   0.335E+00    0.170E+02
RMM:   6    -0.149471689086E+04    0.10230E+04   -0.19333E+03  4422   0.386E+01    0.751E+01
RMM:   7    -0.169726187469E+04   -0.20254E+03   -0.30811E+02  5020   0.145E+01    0.682E+01
RMM:   8    -0.168515152288E+04    0.12110E+02   -0.98887E+01  5226   0.855E+00    0.454E+01
RMM:   9    -0.175436638582E+04   -0.69215E+02   -0.55703E+01  4921   0.684E+00    0.347E+01
RMM:  10    -0.188280266195E+04   -0.12844E+03   -0.56362E+01  5172   0.731E+00    0.239E+01
RMM:  11    -0.198302742515E+04   -0.10022E+03   -0.44429E+01  5224   0.552E+00    0.279E+01
RMM:  12    -0.205497758753E+04   -0.71950E+02   -0.32424E+01  4893   0.470E+00    0.159E+01
RMM:  13    -0.216732482772E+04   -0.11235E+03   -0.71060E+01  4523   0.646E+00    0.110E+01
RMM:  14    -0.225055386439E+04   -0.83229E+02   -0.69289E+01  4803   0.617E+00    0.105E+01
RMM:  15    -0.227900157349E+04   -0.28448E+02   -0.21755E+01  4860   0.369E+00    0.709E+00
RMM:  16    -0.230072668863E+04   -0.21725E+02   -0.19724E+01  4429   0.298E+00    0.378E+00
RMM:  17    -0.230550589023E+04   -0.47792E+01   -0.40341E+00  4513   0.202E+00    0.181E+00
RMM:  18    -0.230808153385E+04   -0.25756E+01   -0.18654E+00  4664   0.760E-01    0.108E+00
RMM:  19    -0.230890784631E+04   -0.82631E+00   -0.42840E-01  4541   0.659E-01    0.728E-01
RMM:  20    -0.230917486130E+04   -0.26701E+00   -0.15700E-01  4762   0.260E-01    0.374E-01
RMM:  21    -0.230926644893E+04   -0.91588E-01   -0.44869E-02  4701   0.186E-01    0.237E-01
RMM:  22    -0.230929848310E+04   -0.32034E-01   -0.18007E-02  4545   0.929E-02    0.128E-01
RMM:  23    -0.230931905796E+04   -0.20575E-01   -0.86374E-03  4492   0.793E-02    0.947E-02
RMM:  24    -0.230932898259E+04   -0.99246E-02   -0.42366E-03  4549   0.495E-02    0.519E-02
RMM:  25    -0.230933518920E+04   -0.62066E-02   -0.20746E-03  4507   0.382E-02    0.372E-02
RMM:  26    -0.230933852443E+04   -0.33352E-02   -0.11337E-03  4170   0.242E-02    0.253E-02
RMM:  27    -0.230933992387E+04   -0.13994E-02   -0.46031E-04  4073   0.184E-02    0.130E-02
RMM:  28    -0.230934033898E+04   -0.41510E-03   -0.14024E-04  3827   0.928E-03    0.792E-03
RMM:  29    -0.230934056458E+04   -0.22560E-03   -0.48096E-05  3412   0.646E-03    0.455E-03
RMM:  30    -0.230934067600E+04   -0.11142E-03   -0.22424E-05  3080   0.412E-03    0.332E-03
RMM:  31    -0.230934073432E+04   -0.58324E-04   -0.13815E-05  2929   0.340E-03    0.208E-03
RMM:  32    -0.230934074542E+04   -0.11095E-04   -0.51428E-06  2708   0.282E-03    0.100E-03
RMM:  33    -0.230934074791E+04   -0.24923E-05   -0.26135E-06  2395   0.184E-03
   1 F= -.23301576E+04 E0= -.23301576E+04  d E =-.233016E+04  mag=     7.0000
       N       E                     dE             d eps       ncg     rms          rms(c)
DAV:   1    -0.231121195756E+04   -0.18712E+01   -0.19259E+02  4608   0.597E+00    0.517E+00
RMM:   2    -0.231177167346E+04   -0.55972E+00   -0.13182E+01  5457   0.170E+00    0.317E+00
RMM:   3    -0.231201897132E+04   -0.24730E+00   -0.13243E+00  5161   0.550E-01    0.464E+00
RMM:   4    -0.231189582034E+04    0.12315E+00   -0.30958E-01  5156   0.228E-01    0.113E+00
RMM:   5    -0.231200031865E+04   -0.10450E+00   -0.18014E-01  4715   0.174E-01    0.128E+00
RMM:   6    -0.231200520651E+04   -0.48879E-02   -0.37172E-02  4960   0.105E-01    0.537E-01
RMM:   7    -0.231201052185E+04   -0.53153E-02   -0.93571E-03  4646   0.509E-02    0.260E-01
RMM:   8    -0.231201266465E+04   -0.21428E-02   -0.39320E-03  4521   0.389E-02    0.947E-02
RMM:   9    -0.231201307700E+04   -0.41235E-03   -0.66042E-04  4417   0.191E-02    0.465E-02
RMM:  10    -0.231201336248E+04   -0.28547E-03   -0.25714E-04  4041   0.114E-02    0.207E-02
RMM:  11    -0.231201345878E+04   -0.96310E-04   -0.51517E-05  3279   0.715E-03    0.115E-02
RMM:  12    -0.231201351827E+04   -0.59484E-04   -0.27508E-05  3058   0.475E-03    0.584E-03
RMM:  13    -0.231201353595E+04   -0.17679E-04   -0.13229E-05  2856   0.428E-03    0.514E-03
RMM:  14    -0.231201353713E+04   -0.11843E-05   -0.76666E-06  2833   0.342E-03
   2 F= -.23328282E+04 E0= -.23328282E+04  d E =-.267056E+01  mag=     7.0000
       N       E                     dE             d eps       ncg     rms          rms(c)
DAV:   1    -0.231201548610E+04   -0.19502E-02   -0.12189E-01  4976   0.139E-01    0.120E-01
RMM:   2    -0.231201559483E+04   -0.10874E-03   -0.62184E-03  5164   0.300E-02    0.789E-02
RMM:   3    -0.231201560303E+04   -0.81967E-05   -0.67925E-04  3216   0.116E-02    0.119E-01
RMM:   4    -0.231201548642E+04    0.11661E-03   -0.17798E-04  2925   0.618E-03    0.268E-02
RMM:   5    -0.231201547813E+04    0.82947E-05   -0.49299E-05  2840   0.316E-03
   3 F= -.23328302E+04 E0= -.23328302E+04  d E =-.267253E+01  mag=     7.0000
       N       E                     dE             d eps       ncg     rms          rms(c)
DAV:   1    -0.231224788146E+04   -0.23240E+00   -0.16344E+01  4592   0.277E+00    0.147E+00
RMM:   2    -0.231237947437E+04   -0.13159E+00   -0.17606E+00  5911   0.624E-01    0.811E-01
RMM:   3    -0.231238758501E+04   -0.81106E-02   -0.17833E-01  5545   0.247E-01    0.615E-01
RMM:   4    -0.231238555276E+04    0.20323E-02   -0.18876E-02  5480   0.570E-02    0.431E-01
RMM:   5    -0.231238412116E+04    0.14316E-02   -0.80148E-03  5395   0.425E-02    0.240E-01
RMM:   6    -0.231238376725E+04    0.35391E-03   -0.15769E-03  5296   0.202E-02    0.140E-01
RMM:   7    -0.231238363260E+04    0.13465E-03   -0.34611E-04  3373   0.109E-02    0.666E-02
RMM:   8    -0.231238361414E+04    0.18452E-04   -0.12676E-04  3018   0.632E-03    0.393E-02
RMM:   9    -0.231238361425E+04   -0.10349E-06   -0.36002E-05  2940   0.427E-03
   4 F= -.23331980E+04 E0= -.23331980E+04  d E =-.367790E+00  mag=     7.0000
       N       E                     dE             d eps       ncg     rms          rms(c)
DAV:   1    -0.231240229461E+04   -0.18680E-01   -0.32177E+00  4928   0.121E+00    0.690E-01
RMM:   2    -0.231242440441E+04   -0.22110E-01   -0.32888E-01  5911   0.265E-01    0.363E-01
RMM:   3    -0.231242601363E+04   -0.16092E-02   -0.33929E-02  5491   0.108E-01    0.273E-01
RMM:   4    -0.231242573552E+04    0.27812E-03   -0.38615E-03  5098   0.261E-02    0.210E-01
RMM:   5    -0.231242543390E+04    0.30162E-03   -0.16145E-03  4960   0.192E-02    0.110E-01
RMM:   6    -0.231242537454E+04    0.59360E-04   -0.26478E-04  3301   0.948E-03    0.703E-02
RMM:   7    -0.231242536170E+04    0.12844E-04   -0.98877E-05  3002   0.650E-03    0.517E-02
RMM:   8    -0.231242534285E+04    0.18851E-04   -0.35400E-05  2941   0.415E-03    0.915E-03
RMM:   9    -0.231242534822E+04   -0.53745E-05   -0.11718E-05  2891   0.268E-03
   5 F= -.23332398E+04 E0= -.23332398E+04  d E =-.409620E+00  mag=     7.0000
       N       E                     dE             d eps       ncg     rms          rms(c)
DAV:   1    -0.231223456880E+04    0.19077E+00   -0.15447E+01  4648   0.268E+00    0.140E+00
RMM:   2    -0.231230276400E+04   -0.68195E-01   -0.11532E+00  5832   0.552E-01    0.858E-01
RMM:   3    -0.231230174764E+04    0.10164E-02   -0.11219E-01  5407   0.212E-01    0.785E-01
RMM:   4    -0.231229670240E+04    0.50452E-02   -0.21517E-02  5676   0.685E-02    0.482E-01
RMM:   5    -0.231229432534E+04    0.23771E-02   -0.93754E-03  5371   0.445E-02    0.278E-01
RMM:   6    -0.231229409151E+04    0.23383E-03   -0.26178E-03  5083   0.253E-02    0.204E-01
RMM:   7    -0.231229371103E+04    0.38048E-03   -0.47218E-04  4014   0.117E-02    0.712E-02
RMM:   8    -0.231229366471E+04    0.46310E-04   -0.95567E-05  3027   0.663E-03    0.201E-02
RMM:   9    -0.231229366009E+04    0.46282E-05   -0.33669E-05  2978   0.492E-03
   6 F= -.23331082E+04 E0= -.23331082E+04  d E =0.131601E+00  mag=     7.0000
       N       E                     dE             d eps       ncg     rms          rms(c)
DAV:   1    -0.231243083218E+04   -0.13717E+00   -0.73038E+00  4536   0.189E+00    0.949E-01
RMM:   2    -0.231246468828E+04   -0.33856E-01   -0.55083E-01  5830   0.371E-01    0.588E-01
RMM:   3    -0.231246375988E+04    0.92840E-03   -0.50599E-02  5419   0.142E-01    0.528E-01
RMM:   4    -0.231246154315E+04    0.22167E-02   -0.97965E-03  5543   0.462E-02    0.340E-01
RMM:   5    -0.231246037513E+04    0.11680E-02   -0.46658E-03  5138   0.317E-02    0.189E-01
RMM:   6    -0.231246024329E+04    0.13184E-03   -0.11976E-03  4334   0.174E-02    0.132E-01
RMM:   7    -0.231246006671E+04    0.17657E-03   -0.20037E-04  3170   0.811E-03    0.450E-02
RMM:   8    -0.231246004346E+04    0.23252E-04   -0.54507E-05  2924   0.505E-03    0.130E-02
RMM:   9    -0.231246003897E+04    0.44929E-05   -0.15531E-05  2892   0.363E-03
   7 F= -.23332745E+04 E0= -.23332745E+04  d E =-.347153E-01  mag=     7.0000
       N       E                     dE             d eps       ncg     rms          rms(c)
DAV:   1    -0.231244279736E+04    0.17246E-01   -0.44256E+00  4512   0.196E+00    0.780E-01
RMM:   2    -0.231250406436E+04   -0.61267E-01   -0.64310E-01  5840   0.409E-01    0.526E-01
RMM:   3    -0.231250764304E+04   -0.35787E-02   -0.63481E-02  5440   0.161E-01    0.408E-01
RMM:   4    -0.231250624629E+04    0.13968E-02   -0.60321E-03  5224   0.374E-02    0.181E-01
RMM:   5    -0.231250573251E+04    0.51378E-03   -0.14381E-03  5091   0.241E-02    0.973E-02
RMM:   6    -0.231250571918E+04    0.13336E-04   -0.78110E-04  4890   0.169E-02    0.130E-01
RMM:   7    -0.231250557046E+04    0.14871E-03   -0.20580E-04  4075   0.119E-02    0.385E-02
RMM:   8    -0.231250554747E+04    0.22998E-04   -0.49975E-05  2953   0.493E-03    0.204E-02
RMM:   9    -0.231250553549E+04    0.11980E-04   -0.20075E-05  2868   0.421E-03    0.811E-03
RMM:  10    -0.231250553119E+04    0.42972E-05   -0.99034E-06  2869   0.332E-03
   8 F= -.23333190E+04 E0= -.23333190E+04  d E =-.444443E-01  mag=     7.0000
       N       E                     dE             d eps       ncg     rms          rms(c)
DAV:   1    -0.231245792268E+04    0.47613E-01   -0.44920E+00  4512   0.199E+00    0.784E-01
RMM:   2    -0.231251979508E+04   -0.61872E-01   -0.64927E-01  5846   0.420E-01    0.529E-01
RMM:   3    -0.231252359822E+04   -0.38031E-02   -0.65406E-02  5467   0.163E-01    0.415E-01
RMM:   4    -0.231252214369E+04    0.14545E-02   -0.61478E-03  5274   0.379E-02    0.183E-01
RMM:   5    -0.231252161155E+04    0.53213E-03   -0.14693E-03  5122   0.242E-02    0.985E-02
RMM:   6    -0.231252158078E+04    0.30780E-04   -0.80428E-04  4897   0.172E-02    0.128E-01
RMM:   7    -0.231252143318E+04    0.14760E-03   -0.21071E-04  4153   0.120E-02    0.401E-02
RMM:   8    -0.231252140696E+04    0.26219E-04   -0.53834E-05  2982   0.506E-03    0.213E-02
RMM:   9    -0.231252139272E+04    0.14237E-04   -0.22000E-05  2867   0.436E-03    0.855E-03
RMM:  10    -0.231252138737E+04    0.53557E-05   -0.11282E-05  2869   0.356E-03
   9 F= -.23333337E+04 E0= -.23333337E+04  d E =-.592158E-01  mag=     7.0000
       N       E                     dE             d eps       ncg     rms          rms(c)
DAV:   1    -0.231252131458E+04    0.78142E-04   -0.18939E+00  4544   0.123E+00    0.467E-01
RMM:   2    -0.231254926848E+04   -0.27954E-01   -0.28691E-01  5909   0.259E-01    0.386E-01
RMM:   3    -0.231255066771E+04   -0.13992E-02   -0.27769E-02  5448   0.994E-02    0.254E-01
RMM:   4    -0.231255020801E+04    0.45970E-03   -0.27553E-03  4784   0.225E-02    0.113E-01
RMM:   5    -0.231255003236E+04    0.17566E-03   -0.43791E-04  4387   0.136E-02    0.684E-02
RMM:   6    -0.231255003679E+04   -0.44307E-05   -0.29320E-04  4273   0.111E-02    0.858E-02
RMM:   7    -0.231254997258E+04    0.64202E-04   -0.96860E-05  3229   0.833E-03    0.197E-02
RMM:   8    -0.231254996868E+04    0.39016E-05   -0.20164E-05  2901   0.413E-03
  10 F= -.23333618E+04 E0= -.23333618E+04  d E =-.280439E-01  mag=     7.0000
       N       E                     dE             d eps       ncg     rms          rms(c)
DAV:   1    -0.231233755873E+04    0.21241E+00   -0.16062E+01  4464   0.358E+00    0.137E+00
RMM:   2    -0.231257940914E+04   -0.24185E+00   -0.24835E+00  5915   0.770E-01    0.117E+00
RMM:   3    -0.231259171376E+04   -0.12305E-01   -0.25023E-01  5565   0.295E-01    0.774E-01
RMM:   4    -0.231258746631E+04    0.42475E-02   -0.23706E-02  5321   0.657E-02    0.338E-01
RMM:   5    -0.231258579755E+04    0.16688E-02   -0.40554E-03  5201   0.385E-02    0.185E-01
RMM:   6    -0.231258550838E+04    0.28917E-03   -0.25051E-03  4960   0.296E-02    0.139E-01
RMM:   7    -0.231258535677E+04    0.15161E-03   -0.51460E-04  4578   0.201E-02    0.841E-02
RMM:   8    -0.231258528322E+04    0.73549E-04   -0.14197E-04  3412   0.672E-03    0.386E-02
RMM:   9    -0.231258526177E+04    0.21452E-04   -0.69822E-05  2912   0.613E-03    0.179E-02
RMM:  10    -0.231258525474E+04    0.70233E-05   -0.21809E-05  2921   0.429E-03
  11 F= -.23333954E+04 E0= -.23333954E+04  d E =-.616934E-01  mag=     7.0000
       N       E                     dE             d eps       ncg     rms          rms(c)
DAV:   1    -0.231258314265E+04    0.21191E-02   -0.14996E+00  4592   0.109E+00    0.376E-01
RMM:   2    -0.231260057536E+04   -0.17433E-01   -0.18105E-01  5804   0.209E-01    0.390E-01
RMM:   3    -0.231260081445E+04   -0.23910E-03   -0.17922E-02  5358   0.769E-02    0.217E-01
RMM:   4    -0.231260048307E+04    0.33138E-03   -0.18919E-03  4413   0.180E-02    0.986E-02
RMM:   5    -0.231260037098E+04    0.11209E-03   -0.34690E-04  4112   0.116E-02    0.914E-02
RMM:   6    -0.231260031678E+04    0.54197E-04   -0.26573E-04  3672   0.101E-02    0.593E-02
RMM:   7    -0.231260029017E+04    0.26617E-04   -0.67318E-05  2998   0.672E-03    0.107E-02
RMM:   8    -0.231260029190E+04   -0.17332E-05   -0.10213E-05  2879   0.388E-03
  12 F= -.23334103E+04 E0= -.23334103E+04  d E =-.149303E-01  mag=     7.0000
       N       E                     dE             d eps       ncg     rms          rms(c)
DAV:   1    -0.231259870678E+04    0.15834E-02   -0.26409E-01  4680   0.455E-01    0.159E-01
RMM:   2    -0.231260181509E+04   -0.31083E-02   -0.32254E-02  5780   0.872E-02    0.163E-01
RMM:   3    -0.231260187165E+04   -0.56563E-04   -0.32380E-03  4026   0.328E-02    0.923E-02
RMM:   4    -0.231260181135E+04    0.60305E-04   -0.32517E-04  3131   0.817E-03    0.417E-02
RMM:   5    -0.231260179090E+04    0.20453E-04   -0.63963E-05  2991   0.558E-03    0.356E-02
RMM:   6    -0.231260178574E+04    0.51575E-05   -0.47159E-05  2941   0.527E-03
  13 F= -.23334118E+04 E0= -.23334118E+04  d E =-.163806E-01  mag=     7.0000
       N       E                     dE             d eps       ncg     rms          rms(c)
DAV:   1    -0.231260223957E+04   -0.44867E-03   -0.11181E+00  4496   0.963E-01    0.320E-01
RMM:   2    -0.231261548210E+04   -0.13243E-01   -0.13440E-01  5593   0.186E-01    0.381E-01
RMM:   3    -0.231261514514E+04    0.33696E-03   -0.13096E-02  4952   0.778E-02    0.176E-01
RMM:   4    -0.231261496498E+04    0.18017E-03   -0.14213E-03  4428   0.158E-02    0.876E-02
RMM:   5    -0.231261492634E+04    0.38636E-04   -0.30268E-04  3552   0.104E-02    0.100E-01
RMM:   6    -0.231261481611E+04    0.11023E-03   -0.21891E-04  3990   0.921E-03    0.432E-02
RMM:   7    -0.231261480124E+04    0.14874E-04   -0.59057E-05  2992   0.693E-03    0.136E-02
RMM:   8    -0.231261480023E+04    0.10102E-05   -0.10514E-05  2858   0.381E-03
  14 F= -.23334246E+04 E0= -.23334246E+04  d E =-.128229E-01  mag=     7.0000
       N       E                     dE             d eps       ncg     rms          rms(c)
DAV:   1    -0.231259559876E+04    0.19202E-01   -0.21635E+00  4496   0.134E+00    0.446E-01
RMM:   2    -0.231262151311E+04   -0.25914E-01   -0.26255E-01  5645   0.261E-01    0.533E-01
RMM:   3    -0.231262074557E+04    0.76755E-03   -0.25973E-02  5157   0.105E-01    0.236E-01
RMM:   4    -0.231262041550E+04    0.33007E-03   -0.28279E-03  4824   0.218E-02    0.117E-01
RMM:   5    -0.231262031039E+04    0.10510E-03   -0.58773E-04  4368   0.145E-02    0.132E-01
RMM:   6    -0.231262014067E+04    0.16972E-03   -0.38628E-04  4408   0.115E-02    0.692E-02
RMM:   7    -0.231262010023E+04    0.40441E-04   -0.13070E-04  3278   0.867E-03    0.227E-02
RMM:   8    -0.231262009520E+04    0.50310E-05   -0.16725E-05  2878   0.453E-03
  15 F= -.23334297E+04 E0= -.23334297E+04  d E =-.178612E-01  mag=     7.0000
       N       E                     dE             d eps       ncg     rms          rms(c)
DAV:   1    -0.231261963325E+04    0.46698E-03   -0.56030E-02  4728   0.217E-01    0.707E-02
RMM:   2    -0.231262028143E+04   -0.64818E-03   -0.66811E-03  5933   0.429E-02    0.743E-02
RMM:   3    -0.231262028183E+04   -0.40466E-06   -0.63620E-04  3158   0.157E-02    0.409E-02
RMM:   4    -0.231262026936E+04    0.12470E-04   -0.65284E-05  2957   0.456E-03    0.184E-02
RMM:   5    -0.231262026572E+04    0.36480E-05   -0.15441E-05  2836   0.292E-03
  16 F= -.23334299E+04 E0= -.23334299E+04  d E =-.180722E-01  mag=     7.0000
       N       E                     dE             d eps       ncg     rms          rms(c)
DAV:   1    -0.231262253897E+04   -0.22696E-02   -0.28419E-01  4512   0.522E-01    0.156E-01
RMM:   2    -0.231262533504E+04   -0.27961E-02   -0.28313E-02  5686   0.100E-01    0.166E-01
RMM:   3    -0.231262526455E+04    0.70492E-04   -0.24465E-03  4560   0.397E-02    0.940E-02
RMM:   4    -0.231262521355E+04    0.50997E-04   -0.26809E-04  3344   0.864E-03    0.378E-02
RMM:   5    -0.231262519195E+04    0.21602E-04   -0.51303E-05  3098   0.605E-03    0.309E-02
RMM:   6    -0.231262518755E+04    0.44043E-05   -0.36017E-05  2930   0.563E-03
  17 F= -.23334346E+04 E0= -.23334346E+04  d E =-.469533E-02  mag=     7.0000
       N       E                     dE             d eps       ncg     rms          rms(c)
DAV:   1    -0.231261064147E+04    0.14550E-01   -0.25416E+00  4472   0.156E+00    0.466E-01
RMM:   2    -0.231263561550E+04   -0.24974E-01   -0.25375E-01  5611   0.299E-01    0.481E-01
RMM:   3    -0.231263503484E+04    0.58067E-03   -0.21733E-02  5166   0.116E-01    0.276E-01
RMM:   4    -0.231263456108E+04    0.47375E-03   -0.24442E-03  4946   0.250E-02    0.112E-01
RMM:   5    -0.231263432743E+04    0.23365E-03   -0.46917E-04  4804   0.164E-02    0.676E-02
RMM:   6    -0.231263428657E+04    0.40864E-04   -0.30708E-04  4433   0.135E-02    0.407E-02
RMM:   7    -0.231263427343E+04    0.13144E-04   -0.42819E-05  2985   0.730E-03    0.197E-02
RMM:   8    -0.231263426957E+04    0.38602E-05   -0.79920E-06  2862   0.297E-03
  18 F= -.23334430E+04 E0= -.23334430E+04  d E =-.130916E-01  mag=     7.0000
       N       E                     dE             d eps       ncg     rms          rms(c)
DAV:   1    -0.231263012571E+04    0.41477E-02   -0.59407E-01  4512   0.759E-01    0.226E-01
RMM:   2    -0.231263601434E+04   -0.58886E-02   -0.59629E-02  5695   0.146E-01    0.241E-01
RMM:   3    -0.231263583434E+04    0.17999E-03   -0.51091E-03  5011   0.578E-02    0.132E-01
RMM:   4    -0.231263572817E+04    0.10617E-03   -0.57592E-04  4220   0.123E-02    0.545E-02
RMM:   5    -0.231263567212E+04    0.56057E-04   -0.10942E-04  3838   0.856E-03    0.350E-02
RMM:   6    -0.231263566841E+04    0.37069E-05   -0.83982E-05  3345   0.775E-03
  19 F= -.23334440E+04 E0= -.23334440E+04  d E =-.141572E-01  mag=     7.0000
       N       E                     dE             d eps       ncg     rms          rms(c)
DAV:   1    -0.231263808382E+04   -0.24117E-02   -0.39656E-01  4496   0.624E-01    0.168E-01
RMM:   2    -0.231264088940E+04   -0.28056E-02   -0.28786E-02  5901   0.113E-01    0.150E-01
RMM:   3    -0.231264086009E+04    0.29308E-04   -0.23210E-03  5124   0.412E-02    0.105E-01
RMM:   4    -0.231264076998E+04    0.90114E-04   -0.27622E-04  3667   0.994E-03    0.400E-02
RMM:   5    -0.231264074678E+04    0.23195E-04   -0.73599E-05  3496   0.732E-03    0.316E-02
RMM:   6    -0.231264074719E+04   -0.40895E-06   -0.45678E-05  2935   0.630E-03
  20 F= -.23334487E+04 E0= -.23334487E+04  d E =-.468500E-02  mag=     7.0000
       N       E                     dE             d eps       ncg     rms          rms(c)
DAV:   1    -0.231262536747E+04    0.15379E-01   -0.35707E+00  4464   0.187E+00    0.499E-01
RMM:   2    -0.231265050017E+04   -0.25133E-01   -0.25861E-01  5568   0.334E-01    0.433E-01
RMM:   3    -0.231265039425E+04    0.10591E-03   -0.20822E-02  5161   0.130E-01    0.317E-01
RMM:   4    -0.231264955602E+04    0.83823E-03   -0.25549E-03  5112   0.290E-02    0.120E-01
RMM:   5    -0.231264930495E+04    0.25107E-03   -0.68894E-04  4925   0.199E-02    0.799E-02
RMM:   6    -0.231264932933E+04   -0.24381E-04   -0.37496E-04  4670   0.139E-02    0.939E-02
RMM:   7    -0.231264924660E+04    0.82738E-04   -0.95084E-05  3259   0.787E-03    0.160E-02
RMM:   8    -0.231264924376E+04    0.28381E-05   -0.13425E-05  2905   0.403E-03
  21 F= -.23334560E+04 E0= -.23334560E+04  d E =-.120158E-01  mag=     7.0000
       N       E                     dE             d eps       ncg     rms          rms(c)
DAV:   1    -0.231265010789E+04   -0.86130E-03   -0.84653E-01  4480   0.881E-01    0.221E-01
RMM:   2    -0.231265593613E+04   -0.58282E-02   -0.61706E-02  5559   0.151E-01    0.160E-01
RMM:   3    -0.231265614787E+04   -0.21173E-03   -0.55060E-03  4977   0.609E-02    0.134E-01
RMM:   4    -0.231265600645E+04    0.14142E-03   -0.61006E-04  4087   0.134E-02    0.605E-02
RMM:   5    -0.231265594056E+04    0.65892E-04   -0.17824E-04  3821   0.955E-03    0.307E-02
RMM:   6    -0.231265594370E+04   -0.31430E-05   -0.69282E-05  3073   0.724E-03
  22 F= -.23334619E+04 E0= -.23334619E+04  d E =-.589754E-02  mag=     7.0000
       N       E                     dE             d eps       ncg     rms          rms(c)
DAV:   1    -0.231265082903E+04    0.51115E-02   -0.11668E+00  4472   0.103E+00    0.260E-01
RMM:   2    -0.231265882123E+04   -0.79922E-02   -0.84899E-02  5560   0.178E-01    0.180E-01
RMM:   3    -0.231265915412E+04   -0.33288E-03   -0.76024E-03  5175   0.680E-02    0.157E-01
RMM:   4    -0.231265897096E+04    0.18316E-03   -0.84892E-04  4283   0.154E-02    0.750E-02
RMM:   5    -0.231265889985E+04    0.71113E-04   -0.24319E-04  3899   0.106E-02    0.600E-02
RMM:   6    -0.231265888425E+04    0.15601E-04   -0.13953E-04  3223   0.851E-03    0.447E-02
RMM:   7    -0.231265886625E+04    0.17995E-04   -0.29519E-05  2926   0.571E-03    0.134E-02
RMM:   8    -0.231265886500E+04    0.12506E-05   -0.64029E-06  2866   0.340E-03
  23 F= -.23334639E+04 E0= -.23334639E+04  d E =-.789139E-02  mag=     7.0000
       N       E                     dE             d eps       ncg     rms          rms(c)
DAV:   1    -0.231266018925E+04   -0.13230E-02   -0.15966E-01  4608   0.386E-01    0.902E-02
RMM:   2    -0.231266141592E+04   -0.12267E-02   -0.12581E-02  5635   0.666E-02    0.612E-02
RMM:   3    -0.231266147317E+04   -0.57255E-04   -0.10991E-03  3808   0.263E-02    0.513E-02
RMM:   4    -0.231266145673E+04    0.16441E-04   -0.11385E-04  3009   0.623E-03    0.256E-02
RMM:   5    -0.231266144664E+04    0.10090E-04   -0.22670E-05  2914   0.408E-03    0.173E-02
RMM:   6    -0.231266144667E+04   -0.29861E-07   -0.16907E-05  2852   0.378E-03
  24 F= -.23334662E+04 E0= -.23334662E+04  d E =-.225186E-02  mag=     7.0000
       N       E                     dE             d eps       ncg     rms          rms(c)
DAV:   1    -0.231265682671E+04    0.46199E-02   -0.14350E+00  4472   0.116E+00    0.271E-01
RMM:   2    -0.231266785579E+04   -0.11029E-01   -0.11337E-01  5418   0.198E-01    0.180E-01
RMM:   3    -0.231266834003E+04   -0.48424E-03   -0.97215E-03  4935   0.786E-02    0.148E-01
RMM:   4    -0.231266821025E+04    0.12978E-03   -0.10229E-03  4495   0.162E-02    0.769E-02
RMM:   5    -0.231266811649E+04    0.93757E-04   -0.20078E-04  3889   0.107E-02    0.463E-02
RMM:   6    -0.231266812098E+04   -0.44856E-05   -0.13935E-04  3556   0.883E-03    0.570E-02
RMM:   7    -0.231266809592E+04    0.25059E-04   -0.39666E-05  2952   0.617E-03    0.150E-02
RMM:   8    -0.231266809412E+04    0.17991E-05   -0.79746E-06  2870   0.317E-03
  25 F= -.23334719E+04 E0= -.23334719E+04  d E =-.793045E-02  mag=     7.0000
       N       E                     dE             d eps       ncg     rms          rms(c)
DAV:   1    -0.231263124532E+04    0.36851E-01   -0.57534E+00  4464   0.232E+00    0.544E-01
RMM:   2    -0.231267562315E+04   -0.44378E-01   -0.45439E-01  5486   0.398E-01    0.390E-01
RMM:   3    -0.231267756438E+04   -0.19412E-02   -0.42017E-02  5122   0.159E-01    0.309E-01
RMM:   4    -0.231267698007E+04    0.58431E-03   -0.41722E-03  5434   0.326E-02    0.154E-01
RMM:   5    -0.231267658978E+04    0.39029E-03   -0.79730E-04  4587   0.200E-02    0.832E-02
RMM:   6    -0.231267653569E+04    0.54096E-04   -0.50178E-04  4595   0.159E-02    0.541E-02
RMM:   7    -0.231267652251E+04    0.13179E-04   -0.87096E-05  3173   0.951E-03    0.399E-02
RMM:   8    -0.231267650911E+04    0.13391E-04   -0.21569E-05  2900   0.377E-03    0.138E-02
RMM:   9    -0.231267650677E+04    0.23423E-05   -0.84988E-06  2865   0.268E-03
  26 F= -.23334784E+04 E0= -.23334784E+04  d E =-.145018E-01  mag=     7.0000
       N       E                     dE             d eps       ncg     rms          rms(c)
DAV:   1    -0.231266766880E+04    0.88403E-02   -0.13415E+00  4464   0.112E+00    0.261E-01
RMM:   2    -0.231267794023E+04   -0.10271E-01   -0.10513E-01  5486   0.191E-01    0.184E-01
RMM:   3    -0.231267840269E+04   -0.46246E-03   -0.96182E-03  5000   0.762E-02    0.150E-01
RMM:   4    -0.231267825846E+04    0.14422E-03   -0.96549E-04  4451   0.157E-02    0.741E-02
RMM:   5    -0.231267816296E+04    0.95502E-04   -0.18628E-04  3875   0.104E-02    0.380E-02
RMM:   6    -0.231267815501E+04    0.79462E-05   -0.10786E-04  3719   0.851E-03    0.301E-02
RMM:   7    -0.231267814983E+04    0.51807E-05   -0.21480E-05  2877   0.569E-03
  27 F= -.23334792E+04 E0= -.23334792E+04  d E =-.153022E-01  mag=     7.0000
       N       E                     dE             d eps       ncg     rms          rms(c)
DAV:   1    -0.231268296157E+04   -0.48066E-02   -0.21962E-01  4624   0.424E-01    0.151E-01
RMM:   2    -0.231268380947E+04   -0.84790E-03   -0.12537E-02  5534   0.767E-02    0.812E-02
RMM:   3    -0.231268377103E+04    0.38435E-04   -0.10936E-03  4443   0.294E-02    0.799E-02
RMM:   4    -0.231268372707E+04    0.43959E-04   -0.21528E-04  3326   0.932E-03    0.499E-02
RMM:   5    -0.231268369751E+04    0.29561E-04   -0.93201E-05  3223   0.713E-03    0.192E-02
RMM:   6    -0.231268369861E+04   -0.11015E-05   -0.22089E-05  2902   0.523E-03
  28 F= -.23334847E+04 E0= -.23334847E+04  d E =-.545805E-02  mag=     7.0000
       N       E                     dE             d eps       ncg     rms          rms(c)
DAV:   1    -0.231268423705E+04   -0.53954E-03   -0.75717E-02  4688   0.249E-01    0.885E-02
RMM:   2    -0.231268454155E+04   -0.30450E-03   -0.43765E-03  5599   0.458E-02    0.459E-02
RMM:   3    -0.231268452088E+04    0.20666E-04   -0.37881E-04  3586   0.172E-02    0.340E-02
RMM:   4    -0.231268452142E+04   -0.53665E-06   -0.77051E-05  2931   0.571E-03
  29 F= -.23334855E+04 E0= -.23334855E+04  d E =-.622903E-02  mag=     7.0000
       N       E                     dE             d eps       ncg     rms          rms(c)
DAV:   1    -0.231268640505E+04   -0.18842E-02   -0.90903E-02  4512   0.315E-01    0.112E-01
RMM:   2    -0.231268709720E+04   -0.69214E-03   -0.81022E-03  5757   0.603E-02    0.505E-02
RMM:   3    -0.231268712898E+04   -0.31781E-04   -0.90037E-04  4294   0.281E-02    0.408E-02
RMM:   4    -0.231268713129E+04   -0.23129E-05   -0.10650E-04  3023   0.703E-03    0.462E-02
RMM:   5    -0.231268710756E+04    0.23727E-04   -0.37861E-05  2939   0.546E-03    0.121E-02
RMM:   6    -0.231268710719E+04    0.37080E-06   -0.13519E-05  2891   0.456E-03
  30 F= -.23334880E+04 E0= -.23334880E+04  d E =-.254637E-02  mag=     7.0000
       N       E                     dE             d eps       ncg     rms          rms(c)
DAV:   1    -0.231268691581E+04    0.19176E-03   -0.22371E-01  4528   0.494E-01    0.175E-01
RMM:   2    -0.231268861384E+04   -0.16980E-02   -0.19781E-02  5669   0.940E-02    0.767E-02
RMM:   3    -0.231268867451E+04   -0.60675E-04   -0.20893E-03  4838   0.428E-02    0.472E-02
RMM:   4    -0.231268865746E+04    0.17053E-04   -0.27760E-04  4250   0.116E-02    0.422E-02
RMM:   5    -0.231268864723E+04    0.10225E-04   -0.72580E-05  3025   0.816E-03    0.354E-02
RMM:   6    -0.231268863698E+04    0.10251E-04   -0.21551E-05  2884   0.448E-03    0.738E-03
RMM:   7    -0.231268863651E+04    0.47096E-06   -0.56833E-06  2848   0.325E-03
  31 F= -.23334895E+04 E0= -.23334895E+04  d E =-.401393E-02  mag=     7.0000
       N       E                     dE             d eps       ncg     rms          rms(c)
DAV:   1    -0.231268926200E+04   -0.62502E-03   -0.48908E-02  4720   0.228E-01    0.731E-02
RMM:   2    -0.231268970941E+04   -0.44741E-03   -0.48567E-03  5703   0.431E-02    0.397E-02
RMM:   3    -0.231268974222E+04   -0.32809E-04   -0.50515E-04  3453   0.185E-02    0.437E-02
RMM:   4    -0.231268972702E+04    0.15206E-04   -0.54191E-05  2913   0.477E-03    0.182E-02
RMM:   5    -0.231268972194E+04    0.50790E-05   -0.19413E-05  2917   0.363E-03
  32 F= -.23334906E+04 E0= -.23334906E+04  d E =-.113789E-02  mag=     7.0000
       N       E                     dE             d eps       ncg     rms          rms(c)
DAV:   1    -0.231268674062E+04    0.29864E-02   -0.43464E-01  4472   0.680E-01    0.219E-01
RMM:   2    -0.231269072081E+04   -0.39802E-02   -0.43450E-02  5735   0.128E-01    0.106E-01
RMM:   3    -0.231269095893E+04   -0.23812E-03   -0.42900E-03  5040   0.536E-02    0.951E-02
RMM:   4    -0.231269089924E+04    0.59692E-04   -0.46679E-04  3910   0.119E-02    0.603E-02
RMM:   5    -0.231269084426E+04    0.54973E-04   -0.15525E-04  3986   0.973E-03    0.281E-02
RMM:   6    -0.231269084062E+04    0.36408E-05   -0.47693E-05  3060   0.679E-03
  33 F= -.23334919E+04 E0= -.23334919E+04  d E =-.241334E-02  mag=     7.0000
       N       E                     dE             d eps       ncg     rms          rms(c)
DAV:   1    -0.231269122501E+04   -0.38075E-03   -0.26703E-02  4832   0.163E-01    0.463E-02
RMM:   2    -0.231269144121E+04   -0.21620E-03   -0.24186E-03  5895   0.321E-02    0.273E-02
RMM:   3    -0.231269146057E+04   -0.19359E-04   -0.26123E-04  3021   0.118E-02    0.287E-02
RMM:   4    -0.231269145537E+04    0.52046E-05   -0.29058E-05  2923   0.385E-03
  34 F= -.23334926E+04 E0= -.23334926E+04  d E =-.676280E-03  mag=     7.0000
       N       E                     dE             d eps       ncg     rms          rms(c)
DAV:   1    -0.231269029768E+04    0.11629E-02   -0.24195E-01  4480   0.489E-01    0.133E-01
RMM:   2    -0.231269225212E+04   -0.19544E-02   -0.21452E-02  5626   0.885E-02    0.709E-02
RMM:   3    -0.231269235740E+04   -0.10528E-03   -0.19606E-03  4447   0.356E-02    0.527E-02
RMM:   4    -0.231269234744E+04    0.99587E-05   -0.23133E-04  3138   0.800E-03    0.446E-02
RMM:   5    -0.231269232647E+04    0.20971E-04   -0.61182E-05  2963   0.619E-03    0.232E-02
RMM:   6    -0.231269232362E+04    0.28494E-05   -0.23821E-05  2904   0.494E-03
  35 F= -.23334936E+04 E0= -.23334936E+04  d E =-.172937E-02  mag=     7.0000
       N       E                     dE             d eps       ncg     rms          rms(c)
DAV:   1    -0.231269213730E+04    0.18917E-03   -0.18570E-02  4784   0.136E-01    0.382E-02
RMM:   2    -0.231269228969E+04   -0.15239E-03   -0.16726E-03  5731   0.263E-02    0.228E-02
RMM:   3    -0.231269230325E+04   -0.13562E-04   -0.17724E-04  2961   0.101E-02    0.236E-02
RMM:   4    -0.231269229983E+04    0.34171E-05   -0.20131E-05  2910   0.319E-03
  36 F= -.23334936E+04 E0= -.23334936E+04  d E =-.175719E-02  mag=     7.0000
       N       E                     dE             d eps       ncg     rms          rms(c)
DAV:   1    -0.231269291853E+04   -0.61528E-03   -0.71347E-02  4480   0.270E-01    0.687E-02
RMM:   2    -0.231269344106E+04   -0.52254E-03   -0.54576E-03  5548   0.473E-02    0.386E-02
RMM:   3    -0.231269346548E+04   -0.24414E-04   -0.46586E-04  3515   0.192E-02    0.339E-02
RMM:   4    -0.231269345714E+04    0.83418E-05   -0.52480E-05  2931   0.483E-03
  37 F= -.23334949E+04 E0= -.23334949E+04  d E =-.120496E-02  mag=     7.0000
       N       E                     dE             d eps       ncg     rms          rms(c)
DAV:   1    -0.231269095305E+04    0.25124E-02   -0.64201E-01  4464   0.810E-01    0.208E-01
RMM:   2    -0.231269571072E+04   -0.47577E-02   -0.49492E-02  5326   0.141E-01    0.137E-01
RMM:   3    -0.231269593452E+04   -0.22380E-03   -0.40189E-03  4765   0.569E-02    0.142E-01
RMM:   4    -0.231269574981E+04    0.18471E-03   -0.45080E-04  4130   0.125E-02    0.561E-02
RMM:   5    -0.231269570427E+04    0.45547E-04   -0.15389E-04  4070   0.979E-03    0.354E-02
RMM:   6    -0.231269570328E+04    0.98429E-06   -0.75594E-05  3081   0.748E-03
  38 F= -.23334972E+04 E0= -.23334972E+04  d E =-.359496E-02  mag=     7.0000
       N       E                     dE             d eps       ncg     rms          rms(c)
DAV:   1    -0.231267559663E+04    0.20108E-01   -0.25738E+00  4464   0.162E+00    0.419E-01
RMM:   2    -0.231269474949E+04   -0.19153E-01   -0.19943E-01  5392   0.284E-01    0.256E-01
RMM:   3    -0.231269567413E+04   -0.92465E-03   -0.15955E-02  5018   0.106E-01    0.267E-01
RMM:   4    -0.231269503410E+04    0.64003E-03   -0.18325E-03  5057   0.243E-02    0.113E-01
RMM:   5    -0.231269487512E+04    0.15898E-03   -0.51673E-04  4841   0.167E-02    0.832E-02
RMM:   6    -0.231269484078E+04    0.34338E-04   -0.31627E-04  4456   0.126E-02    0.653E-02
RMM:   7    -0.231269479845E+04    0.42337E-04   -0.69746E-05  3445   0.755E-03    0.147E-02
RMM:   8    -0.231269479432E+04    0.41280E-05   -0.11284E-05  2881   0.436E-03
  39 F= -.23334966E+04 E0= -.23334966E+04  d E =-.297801E-02  mag=     7.0000
       N       E                     dE             d eps       ncg     rms          rms(c)
DAV:   1    -0.231269035520E+04    0.44432E-02   -0.77699E-01  4464   0.893E-01    0.230E-01
RMM:   2    -0.231269610019E+04   -0.57450E-02   -0.59675E-02  5485   0.157E-01    0.143E-01
RMM:   3    -0.231269636891E+04   -0.26872E-03   -0.50648E-03  4983   0.596E-02    0.136E-01
RMM:   4    -0.231269621289E+04    0.15602E-03   -0.55335E-04  4174   0.134E-02    0.608E-02
RMM:   5    -0.231269615826E+04    0.54628E-04   -0.16419E-04  4031   0.103E-02    0.326E-02
RMM:   6    -0.231269616096E+04   -0.26956E-05   -0.78217E-05  3227   0.768E-03
  40 F= -.23334978E+04 E0= -.23334978E+04  d E =-.418361E-02  mag=     7.0000
       N       E                     dE             d eps       ncg     rms          rms(c)
DAV:   1    -0.231269616175E+04   -0.34902E-05   -0.28821E-01  4464   0.530E-01    0.133E-01
RMM:   2    -0.231269793554E+04   -0.17738E-02   -0.18527E-02  5690   0.891E-02    0.113E-01
RMM:   3    -0.231269794884E+04   -0.13300E-04   -0.15823E-03  4391   0.351E-02    0.856E-02
RMM:   4    -0.231269787383E+04    0.75007E-04   -0.17732E-04  3257   0.853E-03    0.351E-02
RMM:   5    -0.231269785048E+04    0.23348E-04   -0.64652E-05  3276   0.661E-03    0.175E-02
RMM:   6    -0.231269785109E+04   -0.60581E-06   -0.21952E-05  2911   0.542E-03
  41 F= -.23334994E+04 E0= -.23334994E+04  d E =-.160366E-02  mag=     7.0000
       N       E                     dE             d eps       ncg     rms          rms(c)
DAV:   1    -0.231269576097E+04    0.20895E-02   -0.44054E-01  4464   0.656E-01    0.164E-01
RMM:   2    -0.231269843379E+04   -0.26728E-02   -0.28256E-02  5304   0.108E-01    0.119E-01
RMM:   3    -0.231269851001E+04   -0.76219E-04   -0.24267E-03  4591   0.434E-02    0.104E-01
RMM:   4    -0.231269840618E+04    0.10383E-03   -0.27985E-04  3609   0.985E-03    0.449E-02
RMM:   5    -0.231269837223E+04    0.33948E-04   -0.93103E-05  3435   0.760E-03    0.172E-02
RMM:   6    -0.231269837063E+04    0.16023E-05   -0.24691E-05  2950   0.571E-03
  42 F= -.23334999E+04 E0= -.23334999E+04  d E =-.201723E-02  mag=     7.0000
       N       E                     dE             d eps       ncg     rms          rms(c)
DAV:   1    -0.231269879046E+04   -0.41822E-03   -0.67259E-02  4656   0.260E-01    0.643E-02
RMM:   2    -0.231269920169E+04   -0.41123E-03   -0.42691E-03  5657   0.438E-02    0.480E-02
RMM:   3    -0.231269921617E+04   -0.14483E-04   -0.36803E-04  3455   0.172E-02    0.405E-02
RMM:   4    -0.231269920170E+04    0.14471E-04   -0.41928E-05  2919   0.464E-03    0.177E-02
RMM:   5    -0.231269919833E+04    0.33719E-05   -0.12913E-05  2884   0.316E-03
  43 F= -.23335006E+04 E0= -.23335006E+04  d E =-.789934E-03  mag=     7.0000
       N       E                     dE             d eps       ncg     rms          rms(c)
DAV:   1    -0.231269742709E+04    0.17746E-02   -0.60811E-01  4464   0.779E-01    0.189E-01
RMM:   2    -0.231270114326E+04   -0.37162E-02   -0.38285E-02  5292   0.127E-01    0.151E-01
RMM:   3    -0.231270121798E+04   -0.74729E-04   -0.32482E-03  4765   0.509E-02    0.116E-01
RMM:   4    -0.231270108253E+04    0.13545E-03   -0.36860E-04  3976   0.114E-02    0.511E-02
RMM:   5    -0.231270104003E+04    0.42509E-04   -0.12314E-04  3773   0.918E-03    0.201E-02
RMM:   6    -0.231270104121E+04   -0.11881E-05   -0.38141E-05  3057   0.656E-03
  44 F= -.23335024E+04 E0= -.23335024E+04  d E =-.252079E-02  mag=     7.0000
       N       E                     dE             d eps       ncg     rms          rms(c)
DAV:   1    -0.231268750555E+04    0.13534E-01   -0.24376E+00  4464   0.156E+00    0.379E-01
RMM:   2    -0.231270233880E+04   -0.14833E-01   -0.15371E-01  5241   0.252E-01    0.280E-01
RMM:   3    -0.231270272476E+04   -0.38596E-03   -0.12700E-02  4921   0.945E-02    0.232E-01
RMM:   4    -0.231270221196E+04    0.51279E-03   -0.14807E-03  4914   0.221E-02    0.105E-01
RMM:   5    -0.231270205892E+04    0.15305E-03   -0.48258E-04  4639   0.166E-02    0.540E-02
RMM:   6    -0.231270207701E+04   -0.18090E-04   -0.23090E-04  4238   0.115E-02    0.710E-02
RMM:   7    -0.231270203544E+04    0.41573E-04   -0.54774E-05  3019   0.650E-03    0.133E-02
RMM:   8    -0.231270203307E+04    0.23615E-05   -0.12501E-05  2892   0.341E-03
  45 F= -.23335031E+04 E0= -.23335031E+04  d E =-.329399E-02  mag=     7.0000
       N       E                     dE             d eps       ncg     rms          rms(c)
DAV:   1    -0.231270212585E+04   -0.90418E-04   -0.33575E-01  4560   0.572E-01    0.140E-01
RMM:   2    -0.231270423404E+04   -0.21082E-02   -0.21619E-02  5396   0.932E-02    0.113E-01
RMM:   3    -0.231270427613E+04   -0.42088E-04   -0.17827E-03  4445   0.378E-02    0.844E-02
RMM:   4    -0.231270421261E+04    0.63520E-04   -0.21338E-04  3334   0.845E-03    0.394E-02
RMM:   5    -0.231270418897E+04    0.23645E-04   -0.69512E-05  3217   0.695E-03    0.161E-02
RMM:   6    -0.231270419113E+04   -0.21643E-05   -0.24879E-05  2957   0.544E-03
  46 F= -.23335053E+04 E0= -.23335053E+04  d E =-.210613E-02  mag=     7.0000
       N       E                     dE             d eps       ncg     rms          rms(c)
DAV:   1    -0.231268842243E+04    0.15767E-01   -0.30151E+00  4464   0.171E+00    0.421E-01
RMM:   2    -0.231270745523E+04   -0.19033E-01   -0.19570E-01  5260   0.278E-01    0.345E-01
RMM:   3    -0.231270782208E+04   -0.36685E-03   -0.16569E-02  4892   0.105E-01    0.256E-01
RMM:   4    -0.231270721490E+04    0.60718E-03   -0.19541E-03  4954   0.241E-02    0.119E-01
RMM:   5    -0.231270699278E+04    0.22213E-03   -0.64538E-04  4766   0.189E-02    0.483E-02
RMM:   6    -0.231270699426E+04   -0.14797E-05   -0.20775E-04  4371   0.118E-02    0.457E-02
RMM:   7    -0.231270697885E+04    0.15410E-04   -0.41619E-05  2965   0.602E-03    0.180E-02
RMM:   8    -0.231270697406E+04    0.47919E-05   -0.10642E-05  2891   0.318E-03
  47 F= -.23335079E+04 E0= -.23335079E+04  d E =-.473460E-02  mag=     7.0000
       N       E                     dE             d eps       ncg     rms          rms(c)
DAV:   1    -0.231270614834E+04    0.83051E-03   -0.56930E-01  4544   0.733E-01    0.195E-01
RMM:   2    -0.231270996453E+04   -0.38162E-02   -0.39933E-02  5362   0.121E-01    0.166E-01
RMM:   3    -0.231271003788E+04   -0.73348E-04   -0.35339E-03  4694   0.507E-02    0.124E-01
RMM:   4    -0.231270989998E+04    0.13790E-03   -0.41750E-04  3852   0.110E-02    0.522E-02
RMM:   5    -0.231270985308E+04    0.46897E-04   -0.13633E-04  3699   0.900E-03    0.203E-02
RMM:   6    -0.231270985221E+04    0.87755E-06   -0.32965E-05  3013   0.611E-03
  48 F= -.23335106E+04 E0= -.23335106E+04  d E =-.276455E-02  mag=     7.0000
       N       E                     dE             d eps       ncg     rms          rms(c)
DAV:   1    -0.231270487156E+04    0.49815E-02   -0.85116E-01  4464   0.897E-01    0.240E-01
RMM:   2    -0.231271062665E+04   -0.57551E-02   -0.60036E-02  5372   0.148E-01    0.209E-01
RMM:   3    -0.231271071678E+04   -0.90140E-04   -0.52562E-03  4920   0.577E-02    0.152E-01
RMM:   4    -0.231271050823E+04    0.20855E-03   -0.63238E-04  4168   0.132E-02    0.638E-02
RMM:   5    -0.231271044131E+04    0.66916E-04   -0.20113E-04  4037   0.106E-02    0.291E-02
RMM:   6    -0.231271044523E+04   -0.39208E-05   -0.60445E-05  3156   0.730E-03
  49 F= -.23335111E+04 E0= -.23335111E+04  d E =-.321693E-02  mag=     7.0000
       N       E                     dE             d eps       ncg     rms          rms(c)
DAV:   1    -0.231271008739E+04    0.35393E-03   -0.80878E-02  4672   0.277E-01    0.734E-02
RMM:   2    -0.231271062757E+04   -0.54018E-03   -0.56039E-03  5860   0.475E-02    0.717E-02
RMM:   3    -0.231271062796E+04   -0.39539E-06   -0.49759E-04  3478   0.175E-02    0.485E-02
RMM:   4    -0.231271060567E+04    0.22288E-04   -0.56131E-05  2927   0.507E-03    0.190E-02
RMM:   5    -0.231271060189E+04    0.37797E-05   -0.19853E-05  2917   0.358E-03
  50 F= -.23335113E+04 E0= -.23335113E+04  d E =-.341690E-02  mag=     7.0000
       N       E                     dE             d eps       ncg     rms          rms(c)
DAV:   1    -0.231271035357E+04    0.25210E-03   -0.21024E-01  4496   0.451E-01    0.127E-01
RMM:   2    -0.231271218782E+04   -0.18342E-02   -0.18709E-02  5564   0.767E-02    0.107E-01
RMM:   3    -0.231271225550E+04   -0.67681E-04   -0.17942E-03  4157   0.338E-02    0.760E-02
RMM:   4    -0.231271221025E+04    0.45252E-04   -0.18509E-04  3051   0.725E-03    0.313E-02
RMM:   5    -0.231271219393E+04    0.16318E-04   -0.40366E-05  2977   0.530E-03    0.177E-02
RMM:   6    -0.231271219612E+04   -0.21869E-05   -0.28226E-05  2908   0.509E-03
  51 F= -.23335129E+04 E0= -.23335129E+04  d E =-.155874E-02  mag=     7.0000
       N       E                     dE             d eps       ncg     rms          rms(c)
DAV:   1    -0.231269835235E+04    0.13842E-01   -0.18811E+00  4464   0.135E+00    0.378E-01
RMM:   2    -0.231271483042E+04   -0.16478E-01   -0.16864E-01  5232   0.228E-01    0.319E-01
RMM:   3    -0.231271530293E+04   -0.47251E-03   -0.15931E-02  4793   0.101E-01    0.215E-01
RMM:   4    -0.231271495333E+04    0.34960E-03   -0.16695E-03  4795   0.202E-02    0.965E-02
RMM:   5    -0.231271480550E+04    0.14783E-03   -0.38067E-04  4451   0.145E-02    0.509E-02
RMM:   6    -0.231271481186E+04   -0.63591E-05   -0.19351E-04  4258   0.104E-02    0.542E-02
RMM:   7    -0.231271478617E+04    0.25692E-04   -0.54318E-05  2973   0.708E-03    0.231E-02
RMM:   8    -0.231271478092E+04    0.52454E-05   -0.12052E-05  2884   0.351E-03
  52 F= -.23335153E+04 E0= -.23335153E+04  d E =-.402772E-02  mag=     7.0000
       N       E                     dE             d eps       ncg     rms          rms(c)
DAV:   1    -0.231271399551E+04    0.79065E-03   -0.10174E-01  4688   0.313E-01    0.868E-02
RMM:   2    -0.231271487621E+04   -0.88070E-03   -0.91105E-03  5622   0.539E-02    0.644E-02
RMM:   3    -0.231271491842E+04   -0.42210E-04   -0.85741E-04  3714   0.234E-02    0.489E-02
RMM:   4    -0.231271490117E+04    0.17248E-04   -0.89378E-05  2940   0.539E-03    0.228E-02
RMM:   5    -0.231271489287E+04    0.83024E-05   -0.21718E-05  2879   0.397E-03
  53 F= -.23335154E+04 E0= -.23335154E+04  d E =-.411073E-02  mag=     7.0000
       N       E                     dE             d eps       ncg     rms          rms(c)
DAV:   1    -0.231271233641E+04    0.25648E-02   -0.46583E-01  4472   0.665E-01    0.192E-01
RMM:   2    -0.231271655138E+04   -0.42150E-02   -0.44287E-02  5689   0.117E-01    0.144E-01
RMM:   3    -0.231271674284E+04   -0.19147E-03   -0.39817E-03  4782   0.453E-02    0.112E-01
RMM:   4    -0.231271664668E+04    0.96169E-04   -0.44996E-04  3378   0.104E-02    0.529E-02
RMM:   5    -0.231271660766E+04    0.39010E-04   -0.10798E-04  3312   0.792E-03    0.244E-02
RMM:   6    -0.231271660705E+04    0.61165E-06   -0.41636E-05  2989   0.626E-03
  54 F= -.23335171E+04 E0= -.23335171E+04  d E =-.171938E-02  mag=     7.0000
       N       E                     dE             d eps       ncg     rms          rms(c)
DAV:   1    -0.231271519574E+04    0.14119E-02   -0.14957E-01  4544   0.377E-01    0.110E-01
RMM:   2    -0.231271656393E+04   -0.13682E-02   -0.14346E-02  5819   0.677E-02    0.828E-02
RMM:   3    -0.231271663203E+04   -0.68102E-04   -0.13172E-03  3980   0.260E-02    0.648E-02
RMM:   4    -0.231271659845E+04    0.33579E-04   -0.14920E-04  2985   0.661E-03    0.310E-02
RMM:   5    -0.231271658680E+04    0.11653E-04   -0.34424E-05  2945   0.472E-03    0.180E-02
RMM:   6    -0.231271658751E+04   -0.71403E-06   -0.20040E-05  2881   0.429E-03
  55 F= -.23335171E+04 E0= -.23335171E+04  d E =-.170155E-02  mag=     7.0000
       N       E                     dE             d eps       ncg     rms          rms(c)
DAV:   1    -0.231271643009E+04    0.15671E-03   -0.27830E-02  4592   0.163E-01    0.477E-02
RMM:   2    -0.231271668657E+04   -0.25648E-03   -0.26382E-03  5688   0.294E-02    0.465E-02
RMM:   3    -0.231271668944E+04   -0.28636E-05   -0.23643E-04  2996   0.116E-02    0.295E-02
RMM:   4    -0.231271668189E+04    0.75497E-05   -0.27332E-05  2883   0.339E-03
  56 F= -.23335172E+04 E0= -.23335172E+04  d E =-.179531E-02  mag=     7.0000
       N       E                     dE             d eps       ncg     rms          rms(c)
DAV:   1    -0.231271601139E+04    0.67804E-03   -0.19830E-01  4480   0.445E-01    0.133E-01
RMM:   2    -0.231271818053E+04   -0.21691E-02   -0.21841E-02  5573   0.816E-02    0.117E-01
RMM:   3    -0.231271823332E+04   -0.52791E-04   -0.18732E-03  4174   0.315E-02    0.809E-02
RMM:   4    -0.231271818001E+04    0.53310E-04   -0.20246E-04  3032   0.755E-03    0.314E-02
RMM:   5    -0.231271816467E+04    0.15348E-04   -0.35764E-05  2949   0.513E-03    0.186E-02
RMM:   6    -0.231271816531E+04   -0.64436E-06   -0.24286E-05  2916   0.480E-03
  57 F= -.23335187E+04 E0= -.23335187E+04  d E =-.144899E-02  mag=     7.0000
       N       E                     dE             d eps       ncg     rms          rms(c)
DAV:   1    -0.231270103376E+04    0.17131E-01   -0.17728E+00  4464   0.133E+00    0.393E-01
RMM:   2    -0.231272040269E+04   -0.19369E-01   -0.19586E-01  5399   0.243E-01    0.336E-01
RMM:   3    -0.231272091291E+04   -0.51022E-03   -0.17005E-02  5017   0.938E-02    0.237E-01
RMM:   4    -0.231272050384E+04    0.40907E-03   -0.18803E-03  4796   0.208E-02    0.984E-02
RMM:   5    -0.231272037159E+04    0.13225E-03   -0.33374E-04  4455   0.140E-02    0.612E-02
RMM:   6    -0.231272037780E+04   -0.62051E-05   -0.22389E-04  4202   0.104E-02    0.654E-02
RMM:   7    -0.231272033739E+04    0.40401E-04   -0.68486E-05  3024   0.759E-03    0.210E-02
RMM:   8    -0.231272033273E+04    0.46693E-05   -0.12122E-05  2880   0.387E-03
  58 F= -.23335207E+04 E0= -.23335207E+04  d E =-.350779E-02  mag=     7.0000
       N       E                     dE             d eps       ncg     rms          rms(c)
DAV:   1    -0.231272011389E+04    0.22351E-03   -0.19915E-01  4544   0.449E-01    0.140E-01
RMM:   2    -0.231272216953E+04   -0.20556E-02   -0.21387E-02  5667   0.836E-02    0.974E-02
RMM:   3    -0.231272226128E+04   -0.91756E-04   -0.17834E-03  4220   0.331E-02    0.888E-02
RMM:   4    -0.231272219644E+04    0.64846E-04   -0.21447E-04  3057   0.817E-03    0.336E-02
RMM:   5    -0.231272217744E+04    0.19000E-04   -0.51717E-05  3073   0.585E-03    0.158E-02
RMM:   6    -0.231272217713E+04    0.30761E-06   -0.24255E-05  2914   0.533E-03
  59 F= -.23335225E+04 E0= -.23335225E+04  d E =-.182512E-02  mag=     7.0000
       N       E                     dE             d eps       ncg     rms          rms(c)
DAV:   1    -0.231271790011E+04    0.42773E-02   -0.50326E-01  4472   0.714E-01    0.223E-01
RMM:   2    -0.231272311138E+04   -0.52113E-02   -0.54326E-02  5465   0.131E-01    0.154E-01
RMM:   3    -0.231272334408E+04   -0.23270E-03   -0.45107E-03  4872   0.514E-02    0.143E-01
RMM:   4    -0.231272317148E+04    0.17260E-03   -0.54891E-04  3840   0.120E-02    0.540E-02
RMM:   5    -0.231272312019E+04    0.51292E-04   -0.13330E-04  3771   0.877E-03    0.252E-02
RMM:   6    -0.231272311827E+04    0.19205E-05   -0.62117E-05  3236   0.713E-03
  60 F= -.23335234E+04 E0= -.23335234E+04  d E =-.273587E-02  mag=     7.0000
       N       E                     dE             d eps       ncg     rms          rms(c)
DAV:   1    -0.231272288013E+04    0.24006E-03   -0.11982E-01  4640   0.347E-01    0.107E-01
RMM:   2    -0.231272413058E+04   -0.12504E-02   -0.13217E-02  5924   0.666E-02    0.610E-02
RMM:   3    -0.231272420389E+04   -0.73315E-04   -0.11513E-03  3768   0.247E-02    0.537E-02
RMM:   4    -0.231272418444E+04    0.19450E-04   -0.13512E-04  2959   0.641E-03    0.307E-02
RMM:   5    -0.231272417316E+04    0.11285E-04   -0.26733E-05  2883   0.436E-03    0.175E-02
RMM:   6    -0.231272417212E+04    0.10380E-05   -0.21334E-05  2907   0.422E-03
  61 F= -.23335245E+04 E0= -.23335245E+04  d E =-.109132E-02  mag=     7.0000
       N       E                     dE             d eps       ncg     rms          rms(c)
DAV:   1    -0.231272063559E+04    0.35376E-02   -0.39671E-01  4472   0.632E-01    0.194E-01
RMM:   2    -0.231272476929E+04   -0.41337E-02   -0.43342E-02  5609   0.117E-01    0.121E-01
RMM:   3    -0.231272500302E+04   -0.23373E-03   -0.37127E-03  4747   0.466E-02    0.108E-01
RMM:   4    -0.231272491135E+04    0.91669E-04   -0.44434E-04  3397   0.105E-02    0.515E-02
RMM:   5    -0.231272487573E+04    0.35619E-04   -0.85371E-05  3180   0.760E-03    0.271E-02
RMM:   6    -0.231272487703E+04   -0.12931E-05   -0.63501E-05  3160   0.686E-03
  62 F= -.23335253E+04 E0= -.23335253E+04  d E =-.186516E-02  mag=     7.0000
       N       E                     dE             d eps       ncg     rms          rms(c)
DAV:   1    -0.231272542825E+04   -0.55252E-03   -0.38940E-02  4808   0.203E-01    0.707E-02
RMM:   2    -0.231272584705E+04   -0.41880E-03   -0.44905E-03  6055   0.421E-02    0.315E-02
RMM:   3    -0.231272586970E+04   -0.22655E-04   -0.41163E-04  3274   0.157E-02    0.221E-02
RMM:   4    -0.231272586934E+04    0.36808E-06   -0.46276E-05  2936   0.441E-03
  63 F= -.23335263E+04 E0= -.23335263E+04  d E =-.102955E-02  mag=     7.0000
       N       E                     dE             d eps       ncg     rms          rms(c)
DAV:   1    -0.231272323725E+04    0.26325E-02   -0.35088E-01  4512   0.608E-01    0.212E-01
RMM:   2    -0.231272698197E+04   -0.37447E-02   -0.40000E-02  5633   0.118E-01    0.114E-01
RMM:   3    -0.231272719164E+04   -0.20968E-03   -0.35522E-03  5014   0.496E-02    0.108E-01
RMM:   4    -0.231272708749E+04    0.10415E-03   -0.44260E-04  3968   0.118E-02    0.567E-02
RMM:   5    -0.231272703867E+04    0.48815E-04   -0.12815E-04  3892   0.943E-03    0.217E-02
RMM:   6    -0.231272703099E+04    0.76827E-05   -0.41755E-05  3248   0.639E-03
  64 F= -.23335276E+04 E0= -.23335276E+04  d E =-.230360E-02  mag=     7.0000
       N       E                     dE             d eps       ncg     rms          rms(c)
DAV:   1    -0.231272724819E+04   -0.20951E-03   -0.54170E-02  4792   0.225E-01    0.805E-02
RMM:   2    -0.231272789357E+04   -0.64539E-03   -0.68546E-03  6134   0.472E-02    0.589E-02
RMM:   3    -0.231272792921E+04   -0.35632E-04   -0.63037E-04  3302   0.171E-02    0.541E-02
RMM:   4    -0.231272790326E+04    0.25943E-04   -0.75534E-05  2946   0.533E-03    0.204E-02
RMM:   5    -0.231272789651E+04    0.67496E-05   -0.24700E-05  2939   0.358E-03
  65 F= -.23335285E+04 E0= -.23335285E+04  d E =-.879732E-03  mag=     7.0000
       N       E                     dE             d eps       ncg     rms          rms(c)
DAV:   1    -0.231272731275E+04    0.59051E-03   -0.76447E-02  4544   0.267E-01    0.962E-02
RMM:   2    -0.231272821768E+04   -0.90493E-03   -0.96339E-03  5975   0.536E-02    0.702E-02
RMM:   3    -0.231272826789E+04   -0.50207E-04   -0.91722E-04  3585   0.214E-02    0.599E-02
RMM:   4    -0.231272823253E+04    0.35361E-04   -0.10620E-04  3003   0.622E-03    0.247E-02
RMM:   5    -0.231272822208E+04    0.10448E-04   -0.30912E-05  2933   0.435E-03    0.104E-02
RMM:   6    -0.231272822131E+04    0.77521E-06   -0.10028E-05  2862   0.382E-03
  66 F= -.23335288E+04 E0= -.23335288E+04  d E =-.122157E-02  mag=     7.0000
       N       E                     dE             d eps       ncg     rms          rms(c)
DAV:   1    -0.231272854022E+04   -0.31814E-03   -0.29014E-02  4608   0.175E-01    0.611E-02
RMM:   2    -0.231272888698E+04   -0.34675E-03   -0.36669E-03  5942   0.351E-02    0.327E-02
RMM:   3    -0.231272891111E+04   -0.24132E-04   -0.34580E-04  3176   0.143E-02    0.292E-02
RMM:   4    -0.231272890444E+04    0.66706E-05   -0.37500E-05  2918   0.396E-03
  67 F= -.23335295E+04 E0= -.23335295E+04  d E =-.706448E-03  mag=     7.0000
       N       E                     dE             d eps       ncg     rms          rms(c)
DAV:   1    -0.231272674514E+04    0.21660E-02   -0.26025E-01  4480   0.523E-01    0.183E-01
RMM:   2    -0.231272985007E+04   -0.31049E-02   -0.32690E-02  5493   0.102E-01    0.113E-01
RMM:   3    -0.231273005562E+04   -0.20555E-03   -0.31550E-03  4649   0.481E-02    0.105E-01
RMM:   4    -0.231272995387E+04    0.10175E-03   -0.36224E-04  3759   0.102E-02    0.468E-02
RMM:   5    -0.231272992171E+04    0.32160E-04   -0.95483E-05  3481   0.796E-03    0.236E-02
RMM:   6    -0.231272992367E+04   -0.19659E-05   -0.49620E-05  3018   0.630E-03
  68 F= -.23335306E+04 E0= -.23335306E+04  d E =-.179464E-02  mag=     7.0000
       N       E                     dE             d eps       ncg     rms          rms(c)
DAV:   1    -0.231272998537E+04   -0.63662E-04   -0.70344E-02  4544   0.246E-01    0.863E-02
RMM:   2    -0.231273058114E+04   -0.59577E-03   -0.69650E-03  6083   0.491E-02    0.519E-02
RMM:   3    -0.231273061224E+04   -0.31093E-04   -0.63124E-04  3336   0.169E-02    0.444E-02
RMM:   4    -0.231273059778E+04    0.14459E-04   -0.89922E-05  2967   0.538E-03    0.284E-02
RMM:   5    -0.231273058970E+04    0.80816E-05   -0.31118E-05  2922   0.398E-03
  69 F= -.23335314E+04 E0= -.23335314E+04  d E =-.746357E-03  mag=     7.0000
       N       E                     dE             d eps       ncg     rms          rms(c)
DAV:   1    -0.231273054088E+04    0.56902E-04   -0.36678E-03  5216   0.566E-02    0.230E-02
RMM:   2    -0.231273058014E+04   -0.39261E-04   -0.37934E-04  3947   0.123E-02    0.326E-02
RMM:   3    -0.231273057552E+04    0.46194E-05   -0.49431E-05  2870   0.644E-03
  70 F= -.23335314E+04 E0= -.23335314E+04  d E =-.750816E-03  mag=     7.0000
       N       E                     dE             d eps       ncg     rms          rms(c)
DAV:   1    -0.231273053761E+04    0.42526E-04   -0.57878E-02  4480   0.242E-01    0.789E-02
RMM:   2    -0.231273119640E+04   -0.65878E-03   -0.66484E-03  5735   0.457E-02    0.709E-02
RMM:   3    -0.231273121066E+04   -0.14264E-04   -0.58039E-04  3315   0.177E-02    0.480E-02
RMM:   4    -0.231273119034E+04    0.20315E-04   -0.70216E-05  2933   0.512E-03    0.203E-02
RMM:   5    -0.231273118731E+04    0.30363E-05   -0.17230E-05  2891   0.354E-03
  71 F= -.23335320E+04 E0= -.23335320E+04  d E =-.661052E-03  mag=     7.0000
       N       E                     dE             d eps       ncg     rms          rms(c)
DAV:   1    -0.231272622994E+04    0.49604E-02   -0.51967E-01  4472   0.726E-01    0.230E-01
RMM:   2    -0.231273201055E+04   -0.57806E-02   -0.59295E-02  5707   0.137E-01    0.174E-01
RMM:   3    -0.231273227400E+04   -0.26345E-03   -0.52427E-03  5141   0.516E-02    0.137E-01
RMM:   4    -0.231273210580E+04    0.16820E-03   -0.60073E-04  3941   0.124E-02    0.587E-02
RMM:   5    -0.231273206142E+04    0.44376E-04   -0.11756E-04  3662   0.900E-03    0.250E-02
RMM:   6    -0.231273205862E+04    0.28004E-05   -0.48681E-05  3181   0.684E-03
  72 F= -.23335331E+04 E0= -.23335331E+04  d E =-.167891E-02  mag=     7.0000
       N       E                     dE             d eps       ncg     rms          rms(c)
DAV:   1    -0.231273251100E+04   -0.44957E-03   -0.33481E-02  4736   0.173E-01    0.572E-02
RMM:   2    -0.231273288106E+04   -0.37006E-03   -0.37568E-03  5819   0.350E-02    0.602E-02
RMM:   3    -0.231273288088E+04    0.17755E-06   -0.33641E-04  3049   0.122E-02    0.364E-02
RMM:   4    -0.231273287100E+04    0.98810E-05   -0.39795E-05  2925   0.426E-03
  73 F= -.23335339E+04 E0= -.23335339E+04  d E =-.831407E-03  mag=     7.0000
       N       E                     dE             d eps       ncg     rms          rms(c)
DAV:   1    -0.231273073627E+04    0.21446E-02   -0.30159E-01  4472   0.520E-01    0.163E-01
RMM:   2    -0.231273389523E+04   -0.31590E-02   -0.33026E-02  5538   0.948E-02    0.137E-01
RMM:   3    -0.231273401681E+04   -0.12158E-03   -0.29434E-03  4392   0.406E-02    0.107E-01
RMM:   4    -0.231273393203E+04    0.84777E-04   -0.35430E-04  3141   0.902E-03    0.459E-02
RMM:   5    -0.231273390507E+04    0.26963E-04   -0.93050E-05  3146   0.650E-03    0.270E-02
RMM:   6    -0.231273390963E+04   -0.45570E-05   -0.47843E-05  2944   0.570E-03
  74 F= -.23335350E+04 E0= -.23335350E+04  d E =-.192679E-02  mag=     7.0000
       N       E                     dE             d eps       ncg     rms          rms(c)
DAV:   1    -0.231273399370E+04   -0.88632E-04   -0.60515E-02  4608   0.244E-01    0.781E-02
RMM:   2    -0.231273464905E+04   -0.65534E-03   -0.67355E-03  5684   0.461E-02    0.571E-02
RMM:   3    -0.231273468577E+04   -0.36725E-04   -0.64576E-04  3438   0.191E-02    0.457E-02
RMM:   4    -0.231273467022E+04    0.15548E-04   -0.71799E-05  2933   0.502E-03    0.209E-02
RMM:   5    -0.231273466712E+04    0.31064E-05   -0.14967E-05  2866   0.322E-03
  75 F= -.23335358E+04 E0= -.23335358E+04  d E =-.813335E-03  mag=     7.0000
       N       E                     dE             d eps       ncg     rms          rms(c)
DAV:   1    -0.231273022165E+04    0.44486E-02   -0.54727E-01  4472   0.733E-01    0.232E-01
RMM:   2    -0.231273615241E+04   -0.59308E-02   -0.60453E-02  5514   0.135E-01    0.185E-01
RMM:   3    -0.231273639226E+04   -0.23985E-03   -0.55043E-03  4957   0.541E-02    0.139E-01
RMM:   4    -0.231273622307E+04    0.16919E-03   -0.61289E-04  4063   0.123E-02    0.595E-02
RMM:   5    -0.231273617916E+04    0.43910E-04   -0.12574E-04  3662   0.911E-03    0.277E-02
RMM:   6    -0.231273618151E+04   -0.23536E-05   -0.56884E-05  3108   0.702E-03
  76 F= -.23335375E+04 E0= -.23335375E+04  d E =-.249326E-02  mag=     7.0000
       N       E                     dE             d eps       ncg     rms          rms(c)
DAV:   1    -0.231271182059E+04    0.24359E-01   -0.21936E+00  4464   0.147E+00    0.466E-01
RMM:   2    -0.231273565663E+04   -0.23836E-01   -0.24254E-01  5552   0.271E-01    0.376E-01
RMM:   3    -0.231273658295E+04   -0.92631E-03   -0.22174E-02  5195   0.105E-01    0.278E-01
RMM:   4    -0.231273592892E+04    0.65403E-03   -0.24600E-03  5001   0.241E-02    0.118E-01
RMM:   5    -0.231273576320E+04    0.16572E-03   -0.48505E-04  4860   0.165E-02    0.603E-02
RMM:   6    -0.231273577600E+04   -0.12801E-04   -0.25216E-04  4491   0.115E-02    0.580E-02
RMM:   7    -0.231273574856E+04    0.27439E-04   -0.67598E-05  2982   0.756E-03    0.284E-02
RMM:   8    -0.231273574067E+04    0.78895E-05   -0.13605E-05  2886   0.353E-03
  77 F= -.23335374E+04 E0= -.23335374E+04  d E =-.237489E-02  mag=     7.0000
       N       E                     dE             d eps       ncg     rms          rms(c)
DAV:   1    -0.231273081857E+04    0.49300E-02   -0.52696E-01  4464   0.719E-01    0.227E-01
RMM:   2    -0.231273649588E+04   -0.56773E-02   -0.57804E-02  5550   0.132E-01    0.182E-01
RMM:   3    -0.231273673904E+04   -0.24316E-03   -0.52165E-03  4979   0.521E-02    0.142E-01
RMM:   4    -0.231273656040E+04    0.17864E-03   -0.58980E-04  3913   0.121E-02    0.567E-02
RMM:   5    -0.231273652957E+04    0.30831E-04   -0.12190E-04  3537   0.866E-03    0.415E-02
RMM:   6    -0.231273652985E+04   -0.28567E-06   -0.85045E-05  3016   0.729E-03
  78 F= -.23335380E+04 E0= -.23335380E+04  d E =-.300748E-02  mag=     7.0000
       N       E                     dE             d eps       ncg     rms          rms(c)
DAV:   1    -0.231273630198E+04    0.22758E-03   -0.10907E-01  4528   0.311E-01    0.961E-02
RMM:   2    -0.231273749805E+04   -0.11961E-02   -0.12167E-02  6115   0.593E-02    0.936E-02
RMM:   3    -0.231273752664E+04   -0.28588E-04   -0.11156E-03  3480   0.210E-02    0.557E-02
RMM:   4    -0.231273750154E+04    0.25092E-04   -0.12173E-04  2955   0.608E-03    0.263E-02
RMM:   5    -0.231273749435E+04    0.71910E-05   -0.25712E-05  2913   0.405E-03
  79 F= -.23335390E+04 E0= -.23335390E+04  d E =-.103611E-02  mag=     7.0000
       N       E                     dE             d eps       ncg     rms          rms(c)
DAV:   1    -0.231272766502E+04    0.98365E-02   -0.97211E-01  4464   0.927E-01    0.288E-01
RMM:   2    -0.231273820840E+04   -0.10543E-01   -0.10859E-01  5659   0.170E-01    0.254E-01
RMM:   3    -0.231273865123E+04   -0.44284E-03   -0.10310E-02  5118   0.678E-02    0.170E-01
RMM:   4    -0.231273843857E+04    0.21267E-03   -0.11491E-03  4097   0.146E-02    0.818E-02
RMM:   5    -0.231273836934E+04    0.69222E-04   -0.23152E-04  3679   0.103E-02    0.415E-02
RMM:   6    -0.231273839033E+04   -0.20983E-04   -0.12387E-04  3111   0.812E-03    0.587E-02
RMM:   7    -0.231273836403E+04    0.26297E-04   -0.34375E-05  2927   0.568E-03    0.118E-02
RMM:   8    -0.231273836324E+04    0.79013E-06   -0.83460E-06  2881   0.257E-03
  80 F= -.23335401E+04 E0= -.23335401E+04  d E =-.211663E-02  mag=     7.0000
       N       E                     dE             d eps       ncg     rms          rms(c)
DAV:   1    -0.231273799480E+04    0.36923E-03   -0.12142E-01  4560   0.332E-01    0.105E-01
RMM:   2    -0.231273934402E+04   -0.13492E-02   -0.13674E-02  5636   0.610E-02    0.870E-02
RMM:   3    -0.231273940660E+04   -0.62582E-04   -0.12703E-03  3651   0.244E-02    0.610E-02
RMM:   4    -0.231273938002E+04    0.26576E-04   -0.14044E-04  2962   0.614E-03    0.276E-02
RMM:   5    -0.231273937151E+04    0.85152E-05   -0.26627E-05  2873   0.423E-03
  81 F= -.23335412E+04 E0= -.23335412E+04  d E =-.104136E-02  mag=     7.0000
       N       E                     dE             d eps       ncg     rms          rms(c)
DAV:   1    -0.231272932659E+04    0.10053E-01   -0.10885E+00  4464   0.993E-01    0.315E-01
RMM:   2    -0.231274142780E+04   -0.12101E-01   -0.12280E-01  5684   0.183E-01    0.263E-01
RMM:   3    -0.231274199860E+04   -0.57081E-03   -0.11705E-02  5220   0.743E-02    0.182E-01
RMM:   4    -0.231274173680E+04    0.26181E-03   -0.12588E-03  4529   0.160E-02    0.834E-02
RMM:   5    -0.231274166211E+04    0.74691E-04   -0.21742E-04  3922   0.109E-02    0.441E-02
RMM:   6    -0.231274167525E+04   -0.13146E-04   -0.13632E-04  3500   0.870E-03    0.462E-02
RMM:   7    -0.231274165835E+04    0.16906E-04   -0.36139E-05  2910   0.610E-03    0.173E-02
RMM:   8    -0.231274165548E+04    0.28660E-05   -0.72166E-06  2865   0.283E-03
  82 F= -.23335435E+04 E0= -.23335435E+04  d E =-.342121E-02  mag=     7.0000
       N       E                     dE             d eps       ncg     rms          rms(c)
DAV:   1    -0.231269339981E+04    0.48259E-01   -0.43707E+00  4464   0.199E+00    0.636E-01
RMM:   2    -0.231274256606E+04   -0.49166E-01   -0.49573E-01  5492   0.366E-01    0.570E-01
RMM:   3    -0.231274421360E+04   -0.16475E-02   -0.47818E-02  5069   0.153E-01    0.360E-01
RMM:   4    -0.231274326036E+04    0.95325E-03   -0.50447E-03  5209   0.315E-02    0.164E-01
RMM:   5    -0.231274296813E+04    0.29222E-03   -0.91854E-04  4985   0.207E-02    0.938E-02
RMM:   6    -0.231274302809E+04   -0.59956E-04   -0.56790E-04  4810   0.149E-02    0.101E-01
RMM:   7    -0.231274293987E+04    0.88223E-04   -0.15060E-04  3198   0.914E-03    0.348E-02
RMM:   8    -0.231274292832E+04    0.11542E-04   -0.26439E-05  2917   0.432E-03    0.145E-02
RMM:   9    -0.231274292626E+04    0.20688E-05   -0.13615E-05  2870   0.309E-03
  83 F= -.23335450E+04 E0= -.23335450E+04  d E =-.486929E-02  mag=     7.0000
       N       E                     dE             d eps       ncg     rms          rms(c)
DAV:   1    -0.231273745269E+04    0.54756E-02   -0.72197E-01  4480   0.770E-01    0.255E-01
RMM:   2    -0.231274539226E+04   -0.79396E-02   -0.81226E-02  5577   0.142E-01    0.225E-01
RMM:   3    -0.231274571596E+04   -0.32370E-03   -0.77557E-03  4897   0.580E-02    0.153E-01
RMM:   4    -0.231274553229E+04    0.18368E-03   -0.85415E-04  3754   0.126E-02    0.684E-02
RMM:   5    -0.231274547442E+04    0.57870E-04   -0.17442E-04  3434   0.884E-03    0.300E-02
RMM:   6    -0.231274548427E+04   -0.98546E-05   -0.69073E-05  2970   0.696E-03
  84 F= -.23335476E+04 E0= -.23335476E+04  d E =-.257477E-02  mag=     7.0000
       N       E                     dE             d eps       ncg     rms          rms(c)
DAV:   1    -0.231273881170E+04    0.66627E-02   -0.60431E-01  4496   0.704E-01    0.233E-01
RMM:   2    -0.231274543414E+04   -0.66224E-02   -0.68245E-02  5623   0.131E-01    0.190E-01
RMM:   3    -0.231274578386E+04   -0.34972E-03   -0.64733E-03  4979   0.517E-02    0.140E-01
RMM:   4    -0.231274563408E+04    0.14978E-03   -0.72262E-04  3497   0.114E-02    0.651E-02
RMM:   5    -0.231274559729E+04    0.36784E-04   -0.15182E-04  3235   0.791E-03    0.467E-02
RMM:   6    -0.231274559892E+04   -0.16316E-05   -0.98774E-05  2982   0.712E-03
  85 F= -.23335477E+04 E0= -.23335477E+04  d E =-.270365E-02  mag=     7.0000
       N       E                     dE             d eps       ncg     rms          rms(c)
DAV:   1    -0.231274494866E+04    0.64863E-03   -0.76131E-02  4608   0.250E-01    0.830E-02
RMM:   2    -0.231274579038E+04   -0.84172E-03   -0.85197E-03  6073   0.481E-02    0.832E-02
RMM:   3    -0.231274580891E+04   -0.18533E-04   -0.82736E-04  3260   0.177E-02    0.489E-02
RMM:   4    -0.231274578825E+04    0.20661E-04   -0.85904E-05  2963   0.520E-03    0.217E-02
RMM:   5    -0.231274578324E+04    0.50108E-05   -0.19806E-05  2871   0.342E-03
  86 F= -.23335479E+04 E0= -.23335479E+04  d E =-.288308E-02  mag=     7.0000
       N       E                     dE             d eps       ncg     rms          rms(c)
DAV:   1    -0.231274165582E+04    0.41324E-02   -0.59738E-01  4464   0.715E-01    0.250E-01
RMM:   2    -0.231274812541E+04   -0.64696E-02   -0.66486E-02  5581   0.136E-01    0.192E-01
RMM:   3    -0.231274846276E+04   -0.33735E-03   -0.64115E-03  5041   0.588E-02    0.146E-01
RMM:   4    -0.231274827476E+04    0.18800E-03   -0.72111E-04  4172   0.131E-02    0.633E-02
RMM:   5    -0.231274822356E+04    0.51203E-04   -0.14550E-04  3750   0.943E-03    0.324E-02
RMM:   6    -0.231274822836E+04   -0.48042E-05   -0.77135E-05  3136   0.734E-03
  87 F= -.23335504E+04 E0= -.23335504E+04  d E =-.253507E-02  mag=     7.0000
       N       E                     dE             d eps       ncg     rms          rms(c)
DAV:   1    -0.231273749977E+04    0.10724E-01   -0.10273E+00  4464   0.938E-01    0.327E-01
RMM:   2    -0.231274858768E+04   -0.11088E-01   -0.11502E-01  5736   0.180E-01    0.229E-01
RMM:   3    -0.231274927683E+04   -0.68915E-03   -0.10991E-02  5324   0.713E-02    0.187E-01
RMM:   4    -0.231274898019E+04    0.29664E-03   -0.12505E-03  4609   0.168E-02    0.880E-02
RMM:   5    -0.231274888969E+04    0.90500E-04   -0.25733E-04  4194   0.119E-02    0.421E-02
RMM:   6    -0.231274888971E+04   -0.25582E-07   -0.12862E-04  3781   0.883E-03    0.371E-02
RMM:   7    -0.231274887960E+04    0.10112E-04   -0.32858E-05  2900   0.612E-03    0.207E-02
RMM:   8    -0.231274887451E+04    0.50972E-05   -0.81392E-06  2866   0.282E-03
  88 F= -.23335512E+04 E0= -.23335512E+04  d E =-.329845E-02  mag=     7.0000
       N       E                     dE             d eps       ncg     rms          rms(c)
DAV:   1    -0.231274844982E+04    0.42978E-03   -0.48368E-02  4704   0.204E-01    0.708E-02
RMM:   2    -0.231274897143E+04   -0.52161E-03   -0.53875E-03  5792   0.392E-02    0.522E-02
RMM:   3    -0.231274900014E+04   -0.28716E-04   -0.49132E-04  3180   0.160E-02    0.422E-02
RMM:   4    -0.231274898385E+04    0.16289E-04   -0.57537E-05  2931   0.469E-03    0.183E-02
RMM:   5    -0.231274898005E+04    0.38090E-05   -0.13913E-05  2859   0.316E-03
  89 F= -.23335512E+04 E0= -.23335512E+04  d E =-.337867E-02  mag=     7.0000
       N       E                     dE             d eps       ncg     rms          rms(c)
DAV:   1    -0.231274825273E+04    0.73113E-03   -0.19480E-01  4480   0.382E-01    0.139E-01
RMM:   2    -0.231275024606E+04   -0.19933E-02   -0.20731E-02  5774   0.739E-02    0.106E-01
RMM:   3    -0.231275035858E+04   -0.11251E-03   -0.19583E-03  4039   0.309E-02    0.828E-02
RMM:   4    -0.231275029810E+04    0.60472E-04   -0.22564E-04  3017   0.757E-03    0.373E-02
RMM:   5    -0.231275028598E+04    0.12120E-04   -0.53345E-05  2914   0.532E-03    0.275E-02
RMM:   6    -0.231275028405E+04    0.19351E-05   -0.33208E-05  2914   0.482E-03
  90 F= -.23335526E+04 E0= -.23335526E+04  d E =-.133970E-02  mag=     7.0000
       N       E                     dE             d eps       ncg     rms          rms(c)
DAV:   1    -0.231274529705E+04    0.49889E-02   -0.52586E-01  4464   0.628E-01    0.225E-01
RMM:   2    -0.231275071428E+04   -0.54172E-02   -0.56756E-02  5636   0.121E-01    0.154E-01
RMM:   3    -0.231275103221E+04   -0.31793E-03   -0.50394E-03  4951   0.488E-02    0.127E-01
RMM:   4    -0.231275089692E+04    0.13529E-03   -0.61574E-04  3624   0.114E-02    0.633E-02
RMM:   5    -0.231275085164E+04    0.45281E-04   -0.14064E-04  3343   0.844E-03    0.276E-02
RMM:   6    -0.231275085680E+04   -0.51533E-05   -0.58879E-05  3007   0.640E-03
  91 F= -.23335532E+04 E0= -.23335532E+04  d E =-.197226E-02  mag=     7.0000
       N       E                     dE             d eps       ncg     rms          rms(c)
DAV:   1    -0.231275096006E+04   -0.10842E-03   -0.54649E-02  4688   0.199E-01    0.714E-02
RMM:   2    -0.231275151416E+04   -0.55410E-03   -0.57664E-03  6044   0.405E-02    0.440E-02
RMM:   3    -0.231275155809E+04   -0.43931E-04   -0.56521E-04  3077   0.153E-02    0.405E-02
RMM:   4    -0.231275154753E+04    0.10560E-04   -0.63519E-05  2923   0.453E-03    0.226E-02
RMM:   5    -0.231275154387E+04    0.36553E-05   -0.13762E-05  2886   0.266E-03
  92 F= -.23335539E+04 E0= -.23335539E+04  d E =-.688145E-03  mag=     7.0000
       N       E                     dE             d eps       ncg     rms          rms(c)
DAV:   1    -0.231274780516E+04    0.37424E-02   -0.49392E-01  4464   0.599E-01    0.213E-01
RMM:   2    -0.231275285016E+04   -0.50450E-02   -0.51688E-02  5664   0.114E-01    0.166E-01
RMM:   3    -0.231275313757E+04   -0.28741E-03   -0.49400E-03  4813   0.477E-02    0.128E-01
RMM:   4    -0.231275299078E+04    0.14679E-03   -0.54733E-04  3530   0.110E-02    0.573E-02
RMM:   5    -0.231275294990E+04    0.40877E-04   -0.12004E-04  3336   0.782E-03    0.230E-02
RMM:   6    -0.231275294926E+04    0.64167E-06   -0.40870E-05  2953   0.618E-03
  93 F= -.23335553E+04 E0= -.23335553E+04  d E =-.209740E-02  mag=     7.0000
       N       E                     dE             d eps       ncg     rms          rms(c)
DAV:   1    -0.231273219055E+04    0.20759E-01   -0.19808E+00  4464   0.120E+00    0.426E-01
RMM:   2    -0.231275211558E+04   -0.19925E-01   -0.20535E-01  5628   0.228E-01    0.301E-01
RMM:   3    -0.231275339296E+04   -0.12774E-02   -0.19226E-02  5266   0.917E-02    0.248E-01
RMM:   4    -0.231275285835E+04    0.53461E-03   -0.21504E-03  4931   0.209E-02    0.116E-01
RMM:   5    -0.231275270568E+04    0.15267E-03   -0.45922E-04  4397   0.141E-02    0.468E-02
RMM:   6    -0.231275270458E+04    0.10977E-05   -0.17774E-04  4013   0.939E-03    0.334E-02
RMM:   7    -0.231275269675E+04    0.78297E-05   -0.31874E-05  2904   0.589E-03
  94 F= -.23335551E+04 E0= -.23335551E+04  d E =-.185502E-02  mag=     7.0000
       N       E                     dE             d eps       ncg     rms          rms(c)
DAV:   1    -0.231274773046E+04    0.49741E-02   -0.53580E-01  4464   0.624E-01    0.218E-01
RMM:   2    -0.231275316610E+04   -0.54356E-02   -0.56177E-02  5757   0.119E-01    0.150E-01
RMM:   3    -0.231275350629E+04   -0.34020E-03   -0.50521E-03  4929   0.461E-02    0.125E-01
RMM:   4    -0.231275337519E+04    0.13111E-03   -0.57840E-04  3468   0.110E-02    0.621E-02
RMM:   5    -0.231275333976E+04    0.35425E-04   -0.13095E-04  3173   0.786E-03    0.403E-02
RMM:   6    -0.231275334274E+04   -0.29793E-05   -0.85321E-05  2977   0.692E-03
  95 F= -.23335557E+04 E0= -.23335557E+04  d E =-.249545E-02  mag=     7.0000
       N       E                     dE             d eps       ncg     rms          rms(c)
DAV:   1    -0.231275363350E+04   -0.29373E-03   -0.10525E-01  4528   0.270E-01    0.990E-02
RMM:   2    -0.231275461690E+04   -0.98341E-03   -0.10103E-02  6064   0.538E-02    0.818E-02
RMM:   3    -0.231275465809E+04   -0.41183E-04   -0.96413E-04  3487   0.204E-02    0.615E-02
RMM:   4    -0.231275462326E+04    0.34829E-04   -0.10545E-04  2950   0.604E-03    0.261E-02
RMM:   5    -0.231275461544E+04    0.78174E-05   -0.28651E-05  2912   0.421E-03
  96 F= -.23335570E+04 E0= -.23335570E+04  d E =-.128926E-02  mag=     7.0000
       N       E                     dE             d eps       ncg     rms          rms(c)
DAV:   1    -0.231274776056E+04    0.68627E-02   -0.93846E-01  4464   0.806E-01    0.294E-01
RMM:   2    -0.231275646924E+04   -0.87087E-02   -0.90332E-02  5694   0.154E-01    0.214E-01
RMM:   3    -0.231275697325E+04   -0.50402E-03   -0.81681E-03  5101   0.635E-02    0.187E-01
RMM:   4    -0.231275667507E+04    0.29818E-03   -0.99402E-04  4370   0.150E-02    0.811E-02
RMM:   5    -0.231275660697E+04    0.68105E-04   -0.25766E-04  4021   0.109E-02    0.497E-02
RMM:   6    -0.231275661410E+04   -0.71330E-05   -0.14393E-04  3176   0.846E-03    0.555E-02
RMM:   7    -0.231275658735E+04    0.26751E-04   -0.32479E-05  2930   0.579E-03    0.100E-02
RMM:   8    -0.231275658498E+04    0.23684E-05   -0.79345E-06  2874   0.291E-03
  97 F= -.23335590E+04 E0= -.23335590E+04  d E =-.330857E-02  mag=     7.0000
       N       E                     dE             d eps       ncg     rms          rms(c)
DAV:   1    -0.231275654558E+04    0.41769E-04   -0.23249E-01  4496   0.391E-01    0.148E-01
RMM:   2    -0.231275826763E+04   -0.17221E-02   -0.19141E-02  5689   0.745E-02    0.100E-01
RMM:   3    -0.231275835972E+04   -0.92091E-04   -0.17290E-03  4049   0.282E-02    0.913E-02
RMM:   4    -0.231275828100E+04    0.78727E-04   -0.23733E-04  3078   0.824E-03    0.436E-02
RMM:   5    -0.231275825673E+04    0.24266E-04   -0.80938E-05  3091   0.644E-03    0.155E-02
RMM:   6    -0.231275825711E+04   -0.38068E-06   -0.20921E-05  2912   0.490E-03
  98 F= -.23335608E+04 E0= -.23335608E+04  d E =-.175794E-02  mag=     7.0000
       N       E                     dE             d eps       ncg     rms          rms(c)
DAV:   1    -0.231275727383E+04    0.98290E-03   -0.14311E-01  4528   0.307E-01    0.117E-01
RMM:   2    -0.231275832998E+04   -0.10561E-02   -0.11770E-02  5735   0.587E-02    0.740E-02
RMM:   3    -0.231275839456E+04   -0.64578E-04   -0.10808E-03  3817   0.239E-02    0.697E-02
RMM:   4    -0.231275835223E+04    0.42323E-04   -0.14826E-04  2983   0.656E-03    0.366E-02
RMM:   5    -0.231275833787E+04    0.14367E-04   -0.50474E-05  2916   0.505E-03    0.160E-02
RMM:   6    -0.231275833930E+04   -0.14291E-05   -0.18231E-05  2895   0.428E-03
  99 F= -.23335609E+04 E0= -.23335609E+04  d E =-.190753E-02  mag=     7.0000
       N       E                     dE             d eps       ncg     rms          rms(c)
DAV:   1    -0.231275832413E+04    0.13738E-04   -0.14788E-02  4768   0.990E-02    0.378E-02
RMM:   2    -0.231275843254E+04   -0.10841E-03   -0.12055E-03  5265   0.202E-02    0.302E-02
RMM:   3    -0.231275843690E+04   -0.43559E-05   -0.11525E-04  2907   0.829E-03    0.250E-02
RMM:   4    -0.231275843040E+04    0.64958E-05   -0.15571E-05  2879   0.289E-03
 100 F= -.23335610E+04 E0= -.23335610E+04  d E =-.197713E-02  mag=     7.0000
       N       E                     dE             d eps       ncg     rms          rms(c)
DAV:   1    -0.231275829974E+04    0.13715E-03   -0.14336E-01  4472   0.294E-01    0.105E-01
RMM:   2    -0.231275944767E+04   -0.11479E-02   -0.11779E-02  5644   0.546E-02    0.914E-02
RMM:   3    -0.231275948215E+04   -0.34481E-04   -0.10191E-03  3523   0.219E-02    0.663E-02
RMM:   4    -0.231275944748E+04    0.34674E-04   -0.12270E-04  2958   0.589E-03    0.279E-02
RMM:   5    -0.231275943778E+04    0.96974E-05   -0.32886E-05  2892   0.432E-03
 101 F= -.23335620E+04 E0= -.23335620E+04  d E =-.101800E-02  mag=     7.0000
       N       E                     dE             d eps       ncg     rms          rms(c)
DAV:   1    -0.231275119309E+04    0.82544E-02   -0.12825E+00  4464   0.883E-01    0.317E-01
RMM:   2    -0.231276127981E+04   -0.10087E-01   -0.10422E-01  5752   0.164E-01    0.265E-01
RMM:   3    -0.231276171334E+04   -0.43353E-03   -0.96237E-03  5259   0.618E-02    0.195E-01
RMM:   4    -0.231276138884E+04    0.32450E-03   -0.11190E-03  4432   0.154E-02    0.885E-02
RMM:   5    -0.231276131308E+04    0.75759E-04   -0.28575E-04  4037   0.113E-02    0.500E-02
RMM:   6    -0.231276132788E+04   -0.14803E-04   -0.13498E-04  3125   0.830E-03    0.516E-02
RMM:   7    -0.231276130555E+04    0.22335E-04   -0.37073E-05  2928   0.544E-03    0.157E-02
RMM:   8    -0.231276130328E+04    0.22652E-05   -0.66114E-06  2863   0.274E-03
 102 F= -.23335639E+04 E0= -.23335639E+04  d E =-.291334E-02  mag=     7.0000
       N       E                     dE             d eps       ncg     rms          rms(c)
DAV:   1    -0.231276163236E+04   -0.32681E-03   -0.24957E-01  4496   0.369E-01    0.139E-01
RMM:   2    -0.231276326442E+04   -0.16321E-02   -0.17448E-02  5685   0.668E-02    0.128E-01
RMM:   3    -0.231276327619E+04   -0.11765E-04   -0.15454E-03  3767   0.246E-02    0.924E-02
RMM:   4    -0.231276319477E+04    0.81415E-04   -0.20400E-04  3059   0.744E-03    0.383E-02
RMM:   5    -0.231276317477E+04    0.20000E-04   -0.91571E-05  3024   0.591E-03    0.176E-02
RMM:   6    -0.231276317740E+04   -0.26324E-05   -0.19735E-05  2906   0.454E-03
 103 F= -.23335657E+04 E0= -.23335657E+04  d E =-.177128E-02  mag=     7.0000
[...]
 116 F= -.23335785E+04 E0= -.23335785E+04  d E =-.953965E-03  mag=     7.0000
       N       E                     dE             d eps       ncg     rms          rms(c)
DAV:   1    -0.231277743815E+04   -0.40761E-03   -0.23522E-02  4640   0.128E-01    0.480E-02
RMM:   2    -0.231277753808E+04   -0.99931E-04   -0.10483E-03  5515   0.244E-02    0.462E-02
RMM:   3    -0.231277753147E+04    0.66037E-05   -0.10599E-04  2979   0.943E-03    0.333E-02
RMM:   4    -0.231277751981E+04    0.11662E-04   -0.16950E-05  2894   0.379E-03    0.119E-02
RMM:   5    -0.231277751944E+04    0.36824E-06   -0.11056E-05  2880   0.276E-03
 117 F= -.23335790E+04 E0= -.23335790E+04  d E =-.486397E-03  mag=     7.0000
       N       E                     dE             d eps       ncg     rms          rms(c)
DAV:   1    -0.231277745254E+04    0.67276E-04   -0.18354E-01  4464   0.358E-01    0.128E-01
RMM:   2    -0.231277815596E+04   -0.70343E-03   -0.79872E-03  5614   0.615E-02    0.837E-02
RMM:   3    -0.231277818716E+04   -0.31199E-04   -0.69736E-04  4105   0.251E-02    0.944E-02
RMM:   4    -0.231277809651E+04    0.90648E-04   -0.13217E-04  3335   0.812E-03    0.333E-02
RMM:   5    -0.231277808133E+04    0.15186E-04   -0.68233E-05  3376   0.672E-03    0.104E-02
RMM:   6    -0.231277808097E+04    0.35380E-06   -0.10027E-05  2875   0.481E-03
 118 F= -.23335795E+04 E0= -.23335795E+04  d E =-.102842E-02  mag=     7.0000
       N       E                     dE             d eps       ncg     rms          rms(c)
DAV:   1    -0.231277853069E+04   -0.44936E-03   -0.22784E-02  4656   0.129E-01    0.433E-02
RMM:   2    -0.231277860908E+04   -0.78388E-04   -0.87002E-04  5506   0.223E-02    0.303E-02
RMM:   3    -0.231277861192E+04   -0.28432E-05   -0.79741E-05  2949   0.910E-03
 119 F= -.23335800E+04 E0= -.23335800E+04  d E =-.516028E-03  mag=     7.0000
       N       E                     dE             d eps       ncg     rms          rms(c)
DAV:   1    -0.231277887527E+04   -0.26620E-03   -0.20405E-01  4464   0.386E-01    0.134E-01
RMM:   2    -0.231277953524E+04   -0.65997E-03   -0.77518E-03  5397   0.643E-02    0.863E-02
RMM:   3    -0.231277954862E+04   -0.13387E-04   -0.66805E-04  4265   0.241E-02    0.976E-02
RMM:   4    -0.231277945255E+04    0.96069E-04   -0.14429E-04  3640   0.831E-03    0.362E-02
RMM:   5    -0.231277943540E+04    0.17156E-04   -0.74131E-05  3415   0.713E-03    0.103E-02
RMM:   6    -0.231277943511E+04    0.28998E-06   -0.10844E-05  2881   0.481E-03
 120 F= -.23335808E+04 E0= -.23335808E+04  d E =-.129297E-02  mag=     7.0000
       N       E                     dE             d eps       ncg     rms          rms(c)
DAV:   1    -0.231277998581E+04   -0.55041E-03   -0.40165E-02  4576   0.167E-01    0.595E-02
RMM:   2    -0.231278007366E+04   -0.87852E-04   -0.13547E-03  5510   0.278E-02    0.368E-02
RMM:   3    -0.231278007430E+04   -0.63928E-06   -0.12078E-04  3080   0.107E-02    0.432E-02
RMM:   4    -0.231278005642E+04    0.17878E-04   -0.29679E-05  2897   0.414E-03    0.179E-02
RMM:   5    -0.231278005304E+04    0.33794E-05   -0.16188E-05  2890   0.324E-03
 121 F= -.23335815E+04 E0= -.23335815E+04  d E =-.642731E-03  mag=     7.0000
       N       E                     dE             d eps       ncg     rms          rms(c)
DAV:   1    -0.231278015598E+04   -0.99561E-04   -0.35718E-02  4480   0.157E-01    0.553E-02
RMM:   2    -0.231278024208E+04   -0.86102E-04   -0.12074E-03  5478   0.269E-02    0.422E-02
RMM:   3    -0.231278024069E+04    0.13959E-05   -0.12528E-04  3140   0.114E-02    0.429E-02
RMM:   4    -0.231278022078E+04    0.19911E-04   -0.27221E-05  2906   0.428E-03    0.137E-02
RMM:   5    -0.231278021840E+04    0.23754E-05   -0.16086E-05  2902   0.307E-03
 122 F= -.23335816E+04 E0= -.23335816E+04  d E =-.831523E-03  mag=     7.0000
       N       E                     dE             d eps       ncg     rms          rms(c)
DAV:   1    -0.231278058387E+04   -0.36309E-03   -0.34950E-02  4512   0.162E-01    0.496E-02
RMM:   2    -0.231278068397E+04   -0.10010E-03   -0.10907E-03  5533   0.267E-02    0.426E-02
RMM:   3    -0.231278068036E+04    0.36085E-05   -0.99831E-05  3043   0.107E-02
 123 F= -.23335821E+04 E0= -.23335821E+04  d E =-.473223E-03  mag=     7.0000
       N       E                     dE             d eps       ncg     rms          rms(c)
DAV:   1    -0.231278067568E+04    0.82888E-05   -0.31375E-01  4472   0.485E-01    0.151E-01
RMM:   2    -0.231278148938E+04   -0.81370E-03   -0.96789E-03  5273   0.764E-02    0.104E-01
RMM:   3    -0.231278150107E+04   -0.11691E-04   -0.81917E-04  4540   0.285E-02    0.112E-01
RMM:   4    -0.231278138288E+04    0.11818E-03   -0.19147E-04  4041   0.954E-03    0.432E-02
RMM:   5    -0.231278136568E+04    0.17203E-04   -0.94544E-05  3603   0.818E-03    0.113E-02
RMM:   6    -0.231278136634E+04   -0.66144E-06   -0.11316E-05  2885   0.488E-03
 124 F= -.23335828E+04 E0= -.23335828E+04  d E =-.119185E-02  mag=     7.0000
       N       E                     dE             d eps       ncg     rms          rms(c)
DAV:   1    -0.231278202164E+04   -0.65596E-03   -0.50294E-02  4600   0.182E-01    0.580E-02
RMM:   2    -0.231278214613E+04   -0.12449E-03   -0.15445E-03  5339   0.297E-02    0.485E-02
RMM:   3    -0.231278214341E+04    0.27133E-05   -0.14542E-04  3155   0.117E-02    0.471E-02
RMM:   4    -0.231278212108E+04    0.22332E-04   -0.33398E-05  2925   0.429E-03    0.156E-02
RMM:   5    -0.231278211940E+04    0.16768E-05   -0.17324E-05  2898   0.310E-03
 125 F= -.23335835E+04 E0= -.23335835E+04  d E =-.712088E-03  mag=     7.0000
       N       E                     dE             d eps       ncg     rms          rms(c)
DAV:   1    -0.231278228715E+04   -0.16607E-03   -0.53913E-02  4480   0.188E-01    0.600E-02
RMM:   2    -0.231278241881E+04   -0.13166E-03   -0.16395E-03  5413   0.307E-02    0.502E-02
RMM:   3    -0.231278241358E+04    0.52259E-05   -0.15104E-04  3232   0.126E-02    0.456E-02
RMM:   4    -0.231278239089E+04    0.22687E-04   -0.36167E-05  2953   0.452E-03    0.160E-02
RMM:   5    -0.231278238794E+04    0.29592E-05   -0.17408E-05  2894   0.329E-03
 126 F= -.23335838E+04 E0= -.23335838E+04  d E =-.937632E-03  mag=     7.0000
       N       E                     dE             d eps       ncg     rms          rms(c)
DAV:   1    -0.231278287495E+04   -0.48406E-03   -0.52399E-02  4480   0.197E-01    0.600E-02
RMM:   2    -0.231278301332E+04   -0.13837E-03   -0.15841E-03  5503   0.324E-02    0.424E-02
RMM:   3    -0.231278301578E+04   -0.24543E-05   -0.13735E-04  3317   0.135E-02    0.452E-02
RMM:   4    -0.231278299566E+04    0.20116E-04   -0.29716E-05  2910   0.473E-03    0.165E-02
RMM:   5    -0.231278299320E+04    0.24660E-05   -0.18199E-05  2907   0.379E-03
 127 F= -.23335844E+04 E0= -.23335844E+04  d E =-.581049E-03  mag=     7.0000
       N       E                     dE             d eps       ncg     rms          rms(c)
DAV:   1    -0.231278273901E+04    0.25666E-03   -0.47229E-01  4464   0.591E-01    0.179E-01
RMM:   2    -0.231278396985E+04   -0.12308E-02   -0.14180E-02  5305   0.939E-02    0.125E-01
RMM:   3    -0.231278398764E+04   -0.17790E-04   -0.12163E-03  4717   0.403E-02    0.133E-01
RMM:   4    -0.231278381336E+04    0.17427E-03   -0.27193E-04  4381   0.114E-02    0.490E-02
RMM:   5    -0.231278378807E+04    0.25296E-04   -0.14204E-04  4049   0.983E-03    0.143E-02
RMM:   6    -0.231278378868E+04   -0.61489E-06   -0.16955E-05  2885   0.527E-03
 128 F= -.23335851E+04 E0= -.23335851E+04  d E =-.130239E-02  mag=     7.0000
       N       E                     dE             d eps       ncg     rms          rms(c)
DAV:   1    -0.231278451772E+04   -0.72966E-03   -0.11101E-01  4512   0.268E-01    0.845E-02
RMM:   2    -0.231278478086E+04   -0.26314E-03   -0.33969E-03  5515   0.421E-02    0.652E-02
RMM:   3    -0.231278478068E+04    0.18350E-06   -0.30735E-04  3583   0.168E-02    0.652E-02
RMM:   4    -0.231278473966E+04    0.41013E-04   -0.67310E-05  2950   0.572E-03    0.249E-02
RMM:   5    -0.231278474026E+04   -0.59261E-06   -0.40855E-05  2948   0.460E-03
 129 F= -.23335860E+04 E0= -.23335860E+04  d E =-.943520E-03  mag=     7.0000
       N       E                     dE             d eps       ncg     rms          rms(c)
DAV:   1    -0.231278479745E+04   -0.57789E-04   -0.76491E-02  4512   0.223E-01    0.694E-02
RMM:   2    -0.231278498674E+04   -0.18929E-03   -0.23736E-03  5675   0.363E-02    0.557E-02
RMM:   3    -0.231278498422E+04    0.25180E-05   -0.22146E-04  3323   0.139E-02    0.548E-02
RMM:   4    -0.231278495565E+04    0.28573E-04   -0.45922E-05  2929   0.517E-03    0.196E-02
RMM:   5    -0.231278495684E+04   -0.11907E-05   -0.28842E-05  2959   0.374E-03
 130 F= -.23335862E+04 E0= -.23335862E+04  d E =-.115354E-02  mag=     7.0000
       N       E                     dE             d eps       ncg     rms          rms(c)
DAV:   1    -0.231278570310E+04   -0.74746E-03   -0.85898E-02  4472   0.248E-01    0.827E-02
RMM:   2    -0.231278592273E+04   -0.21963E-03   -0.25221E-03  5571   0.408E-02    0.611E-02
RMM:   3    -0.231278592890E+04   -0.61664E-05   -0.25969E-04  3696   0.175E-02    0.640E-02
RMM:   4    -0.231278588911E+04    0.39784E-04   -0.52738E-05  2966   0.595E-03    0.228E-02
RMM:   5    -0.231278589043E+04   -0.13213E-05   -0.31546E-05  2923   0.470E-03
 131 F= -.23335871E+04 E0= -.23335871E+04  d E =-.887062E-03  mag=     7.0000
       N       E                     dE             d eps       ncg     rms          rms(c)
DAV:   1    -0.231278572900E+04    0.16011E-03   -0.47849E-01  4464   0.584E-01    0.193E-01
RMM:   2    -0.231278692016E+04   -0.11912E-02   -0.13982E-02  5441   0.943E-02    0.131E-01
RMM:   3    -0.231278696612E+04   -0.45960E-04   -0.13184E-03  4859   0.411E-02    0.147E-01
RMM:   4    -0.231278675062E+04    0.21550E-03   -0.30851E-04  4466   0.119E-02    0.503E-02
RMM:   5    -0.231278672343E+04    0.27190E-04   -0.14953E-04  4086   0.100E-02    0.132E-02
RMM:   6    -0.231278672188E+04    0.15452E-05   -0.14514E-05  2886   0.526E-03
 132 F= -.23335878E+04 E0= -.23335878E+04  d E =-.160657E-02  mag=     7.0000
       N       E                     dE             d eps       ncg     rms          rms(c)
DAV:   1    -0.231278748702E+04   -0.76360E-03   -0.82325E-02  4592   0.219E-01    0.775E-02
RMM:   2    -0.231278767388E+04   -0.18686E-03   -0.22528E-03  5537   0.363E-02    0.645E-02
RMM:   3    -0.231278767167E+04    0.22132E-05   -0.22188E-04  3429   0.136E-02    0.629E-02
RMM:   4    -0.231278763387E+04    0.37801E-04   -0.57361E-05  2957   0.546E-03    0.201E-02
RMM:   5    -0.231278763436E+04   -0.49708E-06   -0.26821E-05  2927   0.411E-03
 133 F= -.23335887E+04 E0= -.23335887E+04  d E =-.862578E-03  mag=     7.0000
       N       E                     dE             d eps       ncg     rms          rms(c)
DAV:   1    -0.231278780710E+04   -0.17324E-03   -0.11204E-01  4472   0.256E-01    0.893E-02
RMM:   2    -0.231278804974E+04   -0.24264E-03   -0.30287E-03  5557   0.423E-02    0.658E-02
RMM:   3    -0.231278805535E+04   -0.56057E-05   -0.29156E-04  3739   0.171E-02    0.709E-02
RMM:   4    -0.231278800568E+04    0.49662E-04   -0.75466E-05  3043   0.624E-03    0.237E-02
RMM:   5    -0.231278800123E+04    0.44570E-05   -0.31308E-05  2924   0.467E-03
 134 F= -.23335890E+04 E0= -.23335890E+04  d E =-.117019E-02  mag=     7.0000
       N       E                     dE             d eps       ncg     rms          rms(c)
DAV:   1    -0.231278869005E+04   -0.68437E-03   -0.56699E-02  4512   0.189E-01    0.698E-02
RMM:   2    -0.231278879942E+04   -0.10937E-03   -0.14594E-03  5619   0.321E-02    0.450E-02
RMM:   3    -0.231278880445E+04   -0.50343E-05   -0.15038E-04  3426   0.129E-02    0.561E-02
RMM:   4    -0.231278877439E+04    0.30065E-04   -0.40057E-05  2931   0.527E-03    0.167E-02
RMM:   5    -0.231278877204E+04    0.23517E-05   -0.21528E-05  2905   0.381E-03
 135 F= -.23335898E+04 E0= -.23335898E+04  d E =-.767898E-03  mag=     7.0000
       N       E                     dE             d eps       ncg     rms          rms(c)
DAV:   1    -0.231278906951E+04   -0.29512E-03   -0.24194E-01  4472   0.392E-01    0.144E-01
RMM:   2    -0.231278951564E+04   -0.44613E-03   -0.60570E-03  5416   0.619E-02    0.930E-02
RMM:   3    -0.231278954283E+04   -0.27184E-04   -0.61797E-04  4590   0.289E-02    0.114E-01
RMM:   4    -0.231278941615E+04    0.12668E-03   -0.18000E-04  3870   0.892E-03    0.368E-02
RMM:   5    -0.231278940650E+04    0.96421E-05   -0.82109E-05  3443   0.750E-03
 136 F= -.23335904E+04 E0= -.23335904E+04  d E =-.139612E-02  mag=     7.0000
       N       E                     dE             d eps       ncg     rms          rms(c)
DAV:   1    -0.231278992652E+04   -0.51037E-03   -0.24680E-02  4688   0.123E-01    0.473E-02
RMM:   2    -0.231278997554E+04   -0.49021E-04   -0.62797E-04  5119   0.221E-02    0.373E-02
RMM:   3    -0.231278997511E+04    0.42212E-06   -0.74501E-05  3054   0.951E-03
 137 F= -.23335910E+04 E0= -.23335910E+04  d E =-.558303E-03  mag=     7.0000
       N       E                     dE             d eps       ncg     rms          rms(c)
DAV:   1    -0.231279040396E+04   -0.42842E-03   -0.22181E-01  4472   0.367E-01    0.144E-01
RMM:   2    -0.231279073677E+04   -0.33281E-03   -0.54604E-03  5354   0.584E-02    0.881E-02
RMM:   3    -0.231279075671E+04   -0.19942E-04   -0.53656E-04  4755   0.220E-02    0.114E-01
RMM:   4    -0.231279063485E+04    0.12187E-03   -0.18929E-04  3749   0.856E-03    0.387E-02
RMM:   5    -0.231279062563E+04    0.92166E-05   -0.72843E-05  3294   0.701E-03
 138 F= -.23335916E+04 E0= -.23335916E+04  d E =-.117813E-02  mag=     7.0000
       N       E                     dE             d eps       ncg     rms          rms(c)
DAV:   1    -0.231279098236E+04   -0.34751E-03   -0.14187E-02  4728   0.914E-02    0.356E-02
RMM:   2    -0.231279101375E+04   -0.31388E-04   -0.36674E-04  4677   0.170E-02    0.301E-02
RMM:   3    -0.231279101369E+04    0.58106E-07   -0.44871E-05  2927   0.762E-03
 139 F= -.23335919E+04 E0= -.23335919E+04  d E =-.362372E-03  mag=     7.0000
       N       E                     dE             d eps       ncg     rms          rms(c)
DAV:   1    -0.231279149232E+04   -0.47857E-03   -0.12860E-01  4472   0.274E-01    0.104E-01
RMM:   2    -0.231279172957E+04   -0.23726E-03   -0.31874E-03  5255   0.442E-02    0.723E-02
RMM:   3    -0.231279174168E+04   -0.12105E-04   -0.33723E-04  3900   0.168E-02    0.884E-02
RMM:   4    -0.231279166626E+04    0.75422E-04   -0.10364E-04  3185   0.703E-03    0.268E-02
RMM:   5    -0.231279166286E+04    0.33949E-05   -0.39432E-05  3016   0.527E-03
 140 F= -.23335925E+04 E0= -.23335925E+04  d E =-.934127E-03  mag=     7.0000
       N       E                     dE             d eps       ncg     rms          rms(c)
DAV:   1    -0.231279168296E+04   -0.16702E-04   -0.14631E-02  4704   0.923E-02    0.343E-02
RMM:   2    -0.231279171517E+04   -0.32213E-04   -0.37650E-04  4731   0.170E-02    0.247E-02
RMM:   3    -0.231279171663E+04   -0.14575E-05   -0.40795E-05  2929   0.729E-03
 141 F= -.23335925E+04 E0= -.23335925E+04  d E =-.961595E-03  mag=     7.0000
       N       E                     dE             d eps       ncg     rms          rms(c)
DAV:   1    -0.231279216641E+04   -0.45124E-03   -0.16458E-02  4496   0.104E-01    0.419E-02
RMM:   2    -0.231279219753E+04   -0.31125E-04   -0.42831E-04  4793   0.185E-02    0.239E-02
RMM:   3    -0.231279219986E+04   -0.23305E-05   -0.43550E-05  2949   0.749E-03
 142 F= -.23335930E+04 E0= -.23335930E+04  d E =-.476744E-03  mag=     7.0000
       N       E                     dE             d eps       ncg     rms          rms(c)
DAV:   1    -0.231279283268E+04   -0.63515E-03   -0.14837E-01  4456   0.311E-01    0.120E-01
RMM:   2    -0.231279309136E+04   -0.25868E-03   -0.37568E-03  5284   0.508E-02    0.669E-02
RMM:   3    -0.231279308937E+04    0.19940E-05   -0.33099E-04  4546   0.180E-02    0.856E-02
RMM:   4    -0.231279302125E+04    0.68121E-04   -0.12087E-04  3309   0.717E-03    0.326E-02
RMM:   5    -0.231279300970E+04    0.11545E-04   -0.46946E-05  3128   0.592E-03    0.147E-02
RMM:   6    -0.231279300919E+04    0.51595E-06   -0.11559E-05  2863   0.477E-03
 143 F= -.23335938E+04 E0= -.23335938E+04  d E =-.126623E-02  mag=     7.0000
       N       E                     dE             d eps       ncg     rms          rms(c)
DAV:   1    -0.231279303864E+04   -0.28942E-04   -0.21756E-02  4608   0.119E-01    0.444E-02
RMM:   2    -0.231279308207E+04   -0.43427E-04   -0.55929E-04  4979   0.198E-02    0.269E-02
RMM:   3    -0.231279308388E+04   -0.18118E-05   -0.55873E-05  2992   0.919E-03
 144 F= -.23335939E+04 E0= -.23335939E+04  d E =-.133322E-02  mag=     7.0000
       N       E                     dE             d eps       ncg     rms          rms(c)
DAV:   1    -0.231279356730E+04   -0.48523E-03   -0.28774E-02  4448   0.130E-01    0.532E-02
RMM:   2    -0.231279360641E+04   -0.39103E-04   -0.76283E-04  5236   0.215E-02    0.322E-02
RMM:   3    -0.231279360647E+04   -0.67201E-07   -0.72145E-05  2995   0.900E-03
 145 F= -.23335944E+04 E0= -.23335944E+04  d E =-.547362E-03  mag=     7.0000
       N       E                     dE             d eps       ncg     rms          rms(c)
DAV:   1    -0.231279376264E+04   -0.15623E-03   -0.11664E-01  4440   0.262E-01    0.104E-01
RMM:   2    -0.231279392504E+04   -0.16240E-03   -0.30565E-03  5362   0.421E-02    0.645E-02
RMM:   3    -0.231279392751E+04   -0.24666E-05   -0.27649E-04  3963   0.163E-02    0.817E-02
RMM:   4    -0.231279386469E+04    0.62815E-04   -0.10369E-04  3074   0.674E-03    0.285E-02
RMM:   5    -0.231279385708E+04    0.76097E-05   -0.44796E-05  3014   0.514E-03
 146 F= -.23335947E+04 E0= -.23335947E+04  d E =-.848156E-03  mag=     7.0000
       N       E                     dE             d eps       ncg     rms          rms(c)
DAV:   1    -0.231279428797E+04   -0.42328E-03   -0.34516E-02  4576   0.142E-01    0.491E-02
RMM:   2    -0.231279436879E+04   -0.80819E-04   -0.92126E-04  5606   0.251E-02    0.424E-02
RMM:   3    -0.231279436529E+04    0.34971E-05   -0.92070E-05  2999   0.873E-03
 147 F= -.23335952E+04 E0= -.23335952E+04  d E =-.493524E-03  mag=     7.0000
       N       E                     dE             d eps       ncg     rms          rms(c)
DAV:   1    -0.231279473802E+04   -0.36923E-03   -0.30987E-01  4472   0.424E-01    0.151E-01
RMM:   2    -0.231279536246E+04   -0.62443E-03   -0.80903E-03  5394   0.683E-02    0.111E-01
RMM:   3    -0.231279537943E+04   -0.16970E-04   -0.72069E-04  4569   0.249E-02    0.124E-01
RMM:   4    -0.231279523419E+04    0.14524E-03   -0.20634E-04  4035   0.939E-03    0.388E-02
RMM:   5    -0.231279523363E+04    0.55462E-06   -0.92200E-05  3242   0.735E-03
 148 F= -.23335960E+04 E0= -.23335960E+04  d E =-.131841E-02  mag=     7.0000
       N       E                     dE             d eps       ncg     rms          rms(c)
DAV:   1    -0.231279612449E+04   -0.89031E-03   -0.98311E-02  4472   0.231E-01    0.894E-02
RMM:   2    -0.231279631299E+04   -0.18850E-03   -0.30165E-03  5667   0.414E-02    0.557E-02
RMM:   3    -0.231279630536E+04    0.76293E-05   -0.27421E-04  3738   0.156E-02    0.615E-02
RMM:   4    -0.231279627119E+04    0.34169E-04   -0.79070E-05  3050   0.618E-03    0.297E-02
RMM:   5    -0.231279626241E+04    0.87861E-05   -0.29372E-05  2921   0.443E-03
 149 F= -.23335970E+04 E0= -.23335970E+04  d E =-.918072E-03  mag=     7.0000
       N       E                     dE             d eps       ncg     rms          rms(c)
DAV:   1    -0.231279628944E+04   -0.18244E-04   -0.58093E-03  4896   0.564E-02    0.242E-02
RMM:   2    -0.231279630809E+04   -0.18653E-04   -0.18890E-04  3826   0.114E-02    0.318E-02
RMM:   3    -0.231279630129E+04    0.68024E-05   -0.25283E-05  2883   0.583E-03
 150 F= -.23335970E+04 E0= -.23335970E+04  d E =-.929949E-03  mag=     7.0000
