       N       E                     dE             d eps       ncg     rms          rms(c)
DAV:   1     0.126246139236E+05    0.12625E+05   -0.82770E+05  4448   0.144E+03
DAV:   2    -0.107887036257E+04   -0.13703E+05   -0.13126E+05  5312   0.329E+02
DAV:   3    -0.246780311157E+04   -0.13889E+04   -0.13763E+04  5320   0.110E+02
DAV:   4    -0.251212213134E+04   -0.44319E+02   -0.44104E+02  6648   0.293E+01
DAV:   5    -0.251297132422E+04   -0.84919E+00   -0.84789E+00  5584   0.325E+00    0.170E+02
RMM:   6    -0.148094125200E+04    0.10320E+04   -0.19386E+03  4377   0.389E+01    0.753E+01
RMM:   7    -0.167179071688E+04   -0.19085E+03   -0.30828E+02  5033   0.142E+01    0.631E+01
RMM:   8    -0.167205217450E+04   -0.26146E+00   -0.81900E+01  5192   0.811E+00    0.384E+01
RMM:   9    -0.178613378221E+04   -0.11408E+03   -0.50408E+01  4654   0.734E+00    0.292E+01
RMM:  10    -0.192731527901E+04   -0.14118E+03   -0.60865E+01  5053   0.746E+00    0.264E+01
RMM:  11    -0.199915166109E+04   -0.71836E+02   -0.32383E+01  5245   0.492E+00    0.192E+01
RMM:  12    -0.208611302984E+04   -0.86961E+02   -0.40033E+01  4876   0.501E+00    0.137E+01
RMM:  13    -0.218393153858E+04   -0.97819E+02   -0.61160E+01  4441   0.590E+00    0.101E+01
RMM:  14    -0.227214957834E+04   -0.88218E+02   -0.80808E+01  4458   0.622E+00    0.510E+00
RMM:  15    -0.229386238247E+04   -0.21713E+02   -0.21245E+01  4546   0.386E+00    0.309E+00
RMM:  16    -0.230164651233E+04   -0.77841E+01   -0.82370E+00  4732   0.194E+00    0.238E+00
RMM:  17    -0.230312967054E+04   -0.14832E+01   -0.13485E+00  4891   0.103E+00    0.387E+00
RMM:  18    -0.230316098092E+04   -0.31310E-01   -0.18788E-01  5625   0.302E-01    0.403E+00
RMM:  19    -0.230357051895E+04   -0.40954E+00   -0.15040E-01  4490   0.269E-01    0.350E+00
RMM:  20    -0.230415890893E+04   -0.58839E+00   -0.43763E-01  4391   0.338E-01    0.254E+00
RMM:  21    -0.230452718053E+04   -0.36827E+00   -0.39013E-01  4461   0.389E-01    0.150E+00
RMM:  22    -0.230476950516E+04   -0.24232E+00   -0.20890E-01  5078   0.336E-01    0.667E-01
RMM:  23    -0.230495456505E+04   -0.18506E+00   -0.10233E-01  4468   0.199E-01    0.372E-01
RMM:  24    -0.230498693575E+04   -0.32371E-01   -0.24136E-02  4643   0.118E-01    0.276E-01
RMM:  25    -0.230501650473E+04   -0.29569E-01   -0.10970E-02  4485   0.691E-02    0.200E-01
RMM:  26    -0.230503689741E+04   -0.20393E-01   -0.51649E-03  4440   0.537E-02    0.112E-01
RMM:  27    -0.230505538222E+04   -0.18485E-01   -0.54845E-03  4501   0.510E-02    0.677E-02
RMM:  28    -0.230506366852E+04   -0.82863E-02   -0.27540E-03  4518   0.386E-02    0.571E-02
RMM:  29    -0.230506772681E+04   -0.40583E-02   -0.15198E-03  4515   0.261E-02    0.284E-02
RMM:  30    -0.230506887916E+04   -0.11523E-02   -0.38807E-04  4027   0.166E-02    0.182E-02
RMM:  31    -0.230506939202E+04   -0.51286E-03   -0.13865E-04  3692   0.773E-03    0.105E-02
RMM:  32    -0.230506959923E+04   -0.20721E-03   -0.43015E-05  3325   0.654E-03    0.470E-03
RMM:  33    -0.230506968064E+04   -0.81410E-04   -0.20952E-05  3028   0.378E-03    0.271E-03
RMM:  34    -0.230506971400E+04   -0.33361E-04   -0.80845E-06  2815   0.329E-03    0.200E-03
RMM:  35    -0.230506972585E+04   -0.11856E-04   -0.49871E-06  2462   0.245E-03    0.836E-04
RMM:  36    -0.230506972924E+04   -0.33908E-05   -0.24092E-06  2434   0.199E-03
   1 F= -.23255027E+04 E0= -.23255027E+04  d E =-.232550E+04  mag=     4.0001
       N       E                     dE             d eps       ncg     rms          rms(c)
DAV:   1    -0.230698449476E+04   -0.19148E+01   -0.13167E+02  4600   0.482E+00    0.319E+00
RMM:   2    -0.230772752051E+04   -0.74303E+00   -0.93437E+00  6064   0.127E+00    0.216E+00
RMM:   3    -0.230773392340E+04   -0.64029E-02   -0.67357E-01  5603   0.408E-01    0.326E+00
RMM:   4    -0.230765947740E+04    0.74446E-01   -0.13641E-01  5889   0.133E-01    0.105E+00
RMM:   5    -0.230764762133E+04    0.11856E-01   -0.84535E-02  5366   0.103E-01    0.452E-01
RMM:   6    -0.230764574713E+04    0.18742E-02   -0.85964E-03  5333   0.476E-02    0.356E-01
RMM:   7    -0.230764461189E+04    0.11352E-02   -0.32088E-03  4993   0.245E-02    0.110E-01
RMM:   8    -0.230764457609E+04    0.35800E-04   -0.63207E-04  4322   0.146E-02    0.646E-02
RMM:   9    -0.230764452258E+04    0.53512E-04   -0.22000E-04  3945   0.901E-03    0.319E-02
RMM:  10    -0.230764449966E+04    0.22920E-04   -0.59692E-05  3190   0.689E-03    0.197E-02
RMM:  11    -0.230764449219E+04    0.74764E-05   -0.30244E-05  2929   0.548E-03
   2 F= -.23280740E+04 E0= -.23280740E+04  d E =-.257123E+01  mag=     4.0000
       N       E                     dE             d eps       ncg     rms          rms(c)
DAV:   1    -0.230788047889E+04   -0.23598E+00   -0.27977E+01  4576   0.237E+00    0.177E+00
RMM:   2    -0.230795543196E+04   -0.74953E-01   -0.17430E+00  5995   0.545E-01    0.107E+00
RMM:   3    -0.230795929988E+04   -0.38679E-02   -0.15077E-01  5558   0.195E-01    0.162E+00
RMM:   4    -0.230794233183E+04    0.16968E-01   -0.36658E-02  5786   0.681E-02    0.621E-01
RMM:   5    -0.230793835530E+04    0.39765E-02   -0.11098E-02  5202   0.409E-02    0.172E-01
RMM:   6    -0.230793813630E+04    0.21901E-03   -0.15104E-03  4781   0.222E-02    0.184E-01
RMM:   7    -0.230793792285E+04    0.21345E-03   -0.49951E-04  4204   0.119E-02    0.500E-02
RMM:   8    -0.230793790079E+04    0.22055E-04   -0.11932E-04  3157   0.747E-03    0.238E-02
RMM:   9    -0.230793789036E+04    0.10428E-04   -0.41266E-05  3128   0.545E-03    0.113E-02
RMM:  10    -0.230793788905E+04    0.13126E-05   -0.12835E-05  2845   0.436E-03
   3 F= -.23283667E+04 E0= -.23283667E+04  d E =-.286395E+01  mag=     4.0000
       N       E                     dE             d eps       ncg     rms          rms(c)
DAV:   1    -0.230795326313E+04   -0.15373E-01   -0.16172E+00  4688   0.585E-01    0.463E-01
RMM:   2    -0.230795615078E+04   -0.28877E-02   -0.10004E-01  6046   0.122E-01    0.250E-01
RMM:   3    -0.230795603557E+04    0.11522E-03   -0.10149E-02  4998   0.493E-02    0.264E-01
RMM:   4    -0.230795588836E+04    0.14720E-03   -0.22448E-03  4304   0.163E-02    0.247E-01
RMM:   5    -0.230795540380E+04    0.48456E-03   -0.66071E-04  3584   0.113E-02    0.450E-02
RMM:   6    -0.230795538878E+04    0.15018E-04   -0.12384E-04  2972   0.664E-03    0.423E-02
RMM:   7    -0.230795538192E+04    0.68566E-05   -0.31744E-05  2896   0.445E-03
   4 F= -.23283843E+04 E0= -.23283843E+04  d E =-.288158E+01  mag=     4.0000
       N       E                     dE             d eps       ncg     rms          rms(c)
DAV:   1    -0.230811600377E+04   -0.16061E+00   -0.39278E+01  4416   0.436E+00    0.206E+00
RMM:   2    -0.230853360069E+04   -0.41760E+00   -0.39327E+00  5891   0.969E-01    0.293E+00
RMM:   3    -0.230849615553E+04    0.37445E-01   -0.34479E-01  5636   0.344E-01    0.141E+00
RMM:   4    -0.230848318099E+04    0.12975E-01   -0.46767E-02  5053   0.919E-02    0.564E-01
RMM:   5    -0.230848029198E+04    0.28890E-02   -0.14285E-02  5432   0.713E-02    0.476E-01
RMM:   6    -0.230847895713E+04    0.13348E-02   -0.38124E-03  5642   0.381E-02    0.132E-01
RMM:   7    -0.230847888107E+04    0.76057E-04   -0.39122E-04  4191   0.135E-02    0.640E-02
RMM:   8    -0.230847889132E+04   -0.10243E-04   -0.14929E-04  3800   0.819E-03    0.240E-02
RMM:   9    -0.230847891295E+04   -0.21635E-04   -0.47766E-05  3163   0.626E-03    0.108E-02
RMM:  10    -0.230847892647E+04   -0.13521E-04   -0.18198E-05  2857   0.493E-03    0.912E-03
RMM:  11    -0.230847893428E+04   -0.78068E-05   -0.99644E-06  2815   0.399E-03
   5 F= -.23289063E+04 E0= -.23289063E+04  d E =-.522041E+00  mag=     4.0000
       N       E                     dE             d eps       ncg     rms          rms(c)
DAV:   1    -0.230847405745E+04    0.48690E-02   -0.58637E+00  4480   0.164E+00    0.787E-01
RMM:   2    -0.230853415315E+04   -0.60096E-01   -0.57747E-01  5872   0.376E-01    0.102E+00
RMM:   3    -0.230853195627E+04    0.21969E-02   -0.54257E-02  5526   0.143E-01    0.614E-01
RMM:   4    -0.230852950055E+04    0.24557E-02   -0.67156E-03  5028   0.362E-02    0.211E-01
RMM:   5    -0.230852900644E+04    0.49412E-03   -0.23899E-03  5291   0.276E-02    0.146E-01
RMM:   6    -0.230852890167E+04    0.10477E-03   -0.45120E-04  4930   0.152E-02    0.326E-02
RMM:   7    -0.230852891280E+04   -0.11127E-04   -0.62604E-05  3100   0.535E-03    0.187E-02
RMM:   8    -0.230852892357E+04   -0.10772E-04   -0.15837E-05  2863   0.383E-03    0.847E-03
RMM:   9    -0.230852893290E+04   -0.93284E-05   -0.88434E-06  2831   0.320E-03
   6 F= -.23289558E+04 E0= -.23289558E+04  d E =-.571529E+00  mag=     4.0000
       N       E                     dE             d eps       ncg     rms          rms(c)
DAV:   1    -0.230850533716E+04    0.23586E-01   -0.32323E+01  4432   0.369E+00    0.176E+00
RMM:   2    -0.230878068322E+04   -0.27535E+00   -0.28922E+00  5973   0.889E-01    0.219E+00
RMM:   3    -0.230877913752E+04    0.15457E-02   -0.24225E-01  5722   0.285E-01    0.154E+00
RMM:   4    -0.230876298783E+04    0.16150E-01   -0.33041E-02  5610   0.834E-02    0.445E-01
RMM:   5    -0.230876015766E+04    0.28302E-02   -0.99034E-03  5462   0.565E-02    0.223E-01
RMM:   6    -0.230875972603E+04    0.43163E-03   -0.24108E-03  5210   0.336E-02    0.135E-01
RMM:   7    -0.230875952558E+04    0.20045E-03   -0.55661E-04  4543   0.159E-02    0.405E-02
RMM:   8    -0.230875946870E+04    0.56883E-04   -0.12314E-04  4046   0.866E-03    0.244E-02
RMM:   9    -0.230875944097E+04    0.27732E-04   -0.69212E-05  3685   0.725E-03    0.145E-02
RMM:  10    -0.230875943377E+04    0.71929E-05   -0.30901E-05  3126   0.548E-03
   7 F= -.23291855E+04 E0= -.23291855E+04  d E =-.229652E+00  mag=     4.0000
       N       E                     dE             d eps       ncg     rms          rms(c)
DAV:   1    -0.230875697052E+04    0.24705E-02   -0.92474E-01  4632   0.649E-01    0.309E-01
RMM:   2    -0.230876523403E+04   -0.82635E-02   -0.85146E-02  6046   0.152E-01    0.441E-01
RMM:   3    -0.230876481056E+04    0.42347E-03   -0.65394E-03  5542   0.480E-02    0.260E-01
RMM:   4    -0.230876437167E+04    0.43889E-03   -0.93604E-04  4625   0.143E-02    0.774E-02
RMM:   5    -0.230876428428E+04    0.87392E-04   -0.22997E-04  4363   0.103E-02    0.405E-02
RMM:   6    -0.230876426861E+04    0.15675E-04   -0.71271E-05  3434   0.787E-03    0.183E-02
RMM:   7    -0.230876426556E+04    0.30442E-05   -0.19029E-05  2861   0.478E-03
   8 F= -.23291902E+04 E0= -.23291902E+04  d E =-.234337E+00  mag=     4.0000
       N       E                     dE             d eps       ncg     rms          rms(c)
DAV:   1    -0.230851352192E+04    0.25075E+00   -0.29090E+01  4400   0.369E+00    0.205E+00
RMM:   2    -0.230905991554E+04   -0.54639E+00   -0.53219E+00  6306   0.100E+00    0.326E+00
RMM:   3    -0.230904011021E+04    0.19805E-01   -0.47607E-01  5893   0.332E-01    0.140E+00
RMM:   4    -0.230903189383E+04    0.82164E-02   -0.52592E-02  5770   0.815E-02    0.478E-01
RMM:   5    -0.230903074728E+04    0.11465E-02   -0.49079E-03  4864   0.316E-02    0.240E-01
RMM:   6    -0.230903061659E+04    0.13069E-03   -0.16401E-03  5080   0.249E-02    0.146E-01
RMM:   7    -0.230903053822E+04    0.78369E-04   -0.39385E-04  4357   0.144E-02    0.845E-02
RMM:   8    -0.230903048855E+04    0.49667E-04   -0.80799E-05  3165   0.615E-03    0.191E-02
RMM:   9    -0.230903047925E+04    0.93002E-05   -0.32835E-05  2930   0.441E-03
   9 F= -.23294562E+04 E0= -.23294561E+04  d E =-.265978E+00  mag=     4.0000
       N       E                     dE             d eps       ncg     rms          rms(c)
DAV:   1    -0.230854990622E+04    0.48058E+00   -0.33735E+01  4400   0.394E+00    0.233E+00
RMM:   2    -0.230920540351E+04   -0.65550E+00   -0.61810E+00  6323   0.104E+00    0.426E+00
RMM:   3    -0.230915069839E+04    0.54705E-01   -0.61915E-01  5851   0.378E-01    0.147E+00
RMM:   4    -0.230914191042E+04    0.87880E-02   -0.65132E-02  5699   0.893E-02    0.494E-01
RMM:   5    -0.230914071026E+04    0.12002E-02   -0.55708E-03  4852   0.331E-02    0.301E-01
RMM:   6    -0.230914031330E+04    0.39696E-03   -0.20971E-03  4976   0.292E-02    0.889E-02
RMM:   7    -0.230914033624E+04   -0.22944E-04   -0.40767E-04  4500   0.143E-02    0.826E-02
RMM:   8    -0.230914028728E+04    0.48963E-04   -0.90704E-05  3174   0.649E-03    0.227E-02
RMM:   9    -0.230914027538E+04    0.11902E-04   -0.50436E-05  3075   0.495E-03    0.140E-02
RMM:  10    -0.230914027248E+04    0.28945E-05   -0.18310E-05  2849   0.434E-03
  10 F= -.23295659E+04 E0= -.23295659E+04  d E =-.375734E+00  mag=     3.9998
       N       E                     dE             d eps       ncg     rms          rms(c)
DAV:   1    -0.230904197411E+04    0.98301E-01   -0.13238E+01  4456   0.241E+00    0.122E+00
RMM:   2    -0.230929047325E+04   -0.24850E+00   -0.24820E+00  6296   0.653E-01    0.147E+00
RMM:   3    -0.230930382212E+04   -0.13349E-01   -0.24429E-01  5883   0.221E-01    0.115E+00
RMM:   4    -0.230929720296E+04    0.66192E-02   -0.24004E-02  5677   0.544E-02    0.346E-01
RMM:   5    -0.230929602112E+04    0.11818E-02   -0.30639E-03  4759   0.238E-02    0.221E-01
RMM:   6    -0.230929581553E+04    0.20559E-03   -0.25668E-03  5033   0.210E-02    0.240E-01
RMM:   7    -0.230929551834E+04    0.29719E-03   -0.61804E-04  3900   0.162E-02    0.571E-02
RMM:   8    -0.230929551094E+04    0.73967E-05   -0.73441E-05  3006   0.542E-03
  11 F= -.23297216E+04 E0= -.23297215E+04  d E =-.155647E+00  mag=     3.9998
       N       E                     dE             d eps       ncg     rms          rms(c)
DAV:   1    -0.230899624072E+04    0.29928E+00   -0.19851E+01  4400   0.286E+00    0.145E+00
RMM:   2    -0.230935835442E+04   -0.36211E+00   -0.35960E+00  6292   0.752E-01    0.173E+00
RMM:   3    -0.230937709778E+04   -0.18743E-01   -0.34240E-01  5863   0.266E-01    0.138E+00
RMM:   4    -0.230936757897E+04    0.95188E-02   -0.35532E-02  5779   0.646E-02    0.405E-01
RMM:   5    -0.230936598791E+04    0.15911E-02   -0.45966E-03  4880   0.271E-02    0.255E-01
RMM:   6    -0.230936565564E+04    0.33227E-03   -0.35297E-03  5071   0.248E-02    0.245E-01
RMM:   7    -0.230936537751E+04    0.27812E-03   -0.83932E-04  4302   0.190E-02    0.754E-02
RMM:   8    -0.230936536303E+04    0.14484E-04   -0.94302E-05  3134   0.609E-03    0.249E-02
RMM:   9    -0.230936538481E+04   -0.21779E-04   -0.60065E-05  2993   0.563E-03    0.106E-02
RMM:  10    -0.230936539437E+04   -0.95620E-05   -0.15308E-05  2853   0.384E-03
  12 F= -.23297920E+04 E0= -.23297920E+04  d E =-.226122E+00  mag=     3.9999
       N       E                     dE             d eps       ncg     rms          rms(c)
DAV:   1    -0.230939314156E+04   -0.27757E-01   -0.13245E+00  4616   0.872E-01    0.404E-01
RMM:   2    -0.230941410941E+04   -0.20968E-01   -0.21828E-01  5868   0.208E-01    0.352E-01
RMM:   3    -0.230941722034E+04   -0.31109E-02   -0.26392E-02  5457   0.999E-02    0.547E-01
RMM:   4    -0.230941576428E+04    0.14561E-02   -0.29490E-03  4976   0.215E-02    0.106E-01
RMM:   5    -0.230941561671E+04    0.14757E-03   -0.45922E-04  4252   0.123E-02    0.612E-02
RMM:   6    -0.230941557113E+04    0.45579E-04   -0.15904E-04  4203   0.972E-03    0.311E-02
RMM:   7    -0.230941556557E+04    0.55617E-05   -0.30929E-05  2958   0.636E-03
  13 F= -.23298423E+04 E0= -.23298423E+04  d E =-.502582E-01  mag=     3.9999
       N       E                     dE             d eps       ncg     rms          rms(c)
DAV:   1    -0.230934786693E+04    0.67704E-01   -0.68457E+00  4416   0.196E+00    0.920E-01
RMM:   2    -0.230945367176E+04   -0.10580E+00   -0.11121E+00  5846   0.448E-01    0.726E-01
RMM:   3    -0.230947277084E+04   -0.19099E-01   -0.14479E-01  5466   0.230E-01    0.135E+00
RMM:   4    -0.230946342523E+04    0.93456E-02   -0.14964E-02  5762   0.481E-02    0.257E-01
RMM:   5    -0.230946268966E+04    0.73557E-03   -0.25326E-03  4931   0.252E-02    0.151E-01
RMM:   6    -0.230946238785E+04    0.30181E-03   -0.11366E-03  5126   0.201E-02    0.544E-02
RMM:   7    -0.230946234807E+04    0.39784E-04   -0.18147E-04  4353   0.121E-02    0.246E-02
RMM:   8    -0.230946233872E+04    0.93448E-05   -0.43432E-05  3086   0.506E-03
  14 F= -.23298893E+04 E0= -.23298893E+04  d E =-.972964E-01  mag=     4.0000
       N       E                     dE             d eps       ncg     rms          rms(c)
DAV:   1    -0.230945891084E+04    0.34372E-02   -0.23775E+00  4432   0.109E+00    0.564E-01
RMM:   2    -0.230949227044E+04   -0.33360E-01   -0.35913E-01  5973   0.268E-01    0.774E-01
RMM:   3    -0.230949304354E+04   -0.77310E-03   -0.34424E-02  5582   0.982E-02    0.652E-01
RMM:   4    -0.230949085658E+04    0.21870E-02   -0.46265E-03  5179   0.262E-02    0.156E-01
RMM:   5    -0.230949053484E+04    0.32174E-03   -0.91335E-04  4548   0.155E-02    0.841E-02
RMM:   6    -0.230949046514E+04    0.69696E-04   -0.26210E-04  4153   0.112E-02    0.225E-02
RMM:   7    -0.230949046555E+04   -0.40968E-06   -0.46852E-05  2985   0.603E-03
  15 F= -.23299173E+04 E0= -.23299173E+04  d E =-.279916E-01  mag=     4.0000
       N       E                     dE             d eps       ncg     rms          rms(c)
DAV:   1    -0.230949019125E+04    0.27389E-03   -0.66675E-02  4944   0.182E-01    0.943E-02
RMM:   2    -0.230949109636E+04   -0.90511E-03   -0.98979E-03  5892   0.449E-02    0.122E-01
RMM:   3    -0.230949113658E+04   -0.40223E-04   -0.98155E-04  3082   0.179E-02    0.110E-01
RMM:   4    -0.230949107508E+04    0.61501E-04   -0.13233E-04  2988   0.546E-03    0.248E-02
RMM:   5    -0.230949106610E+04    0.89867E-05   -0.24020E-05  2856   0.316E-03
  16 F= -.23299179E+04 E0= -.23299179E+04  d E =-.285700E-01  mag=     4.0000
       N       E                     dE             d eps       ncg     rms          rms(c)
DAV:   1    -0.230947858372E+04    0.12491E-01   -0.23756E+00  4416   0.130E+00    0.639E-01
RMM:   2    -0.230952595026E+04   -0.47367E-01   -0.38986E-01  5880   0.305E-01    0.152E+00
RMM:   3    -0.230951447285E+04    0.11477E-01   -0.36791E-02  5480   0.112E-01    0.322E-01
RMM:   4    -0.230951418305E+04    0.28981E-03   -0.46882E-03  4695   0.273E-02    0.172E-01
RMM:   5    -0.230951396854E+04    0.21451E-03   -0.78371E-04  5076   0.197E-02    0.186E-01
RMM:   6    -0.230951371659E+04    0.25195E-03   -0.59659E-04  4996   0.149E-02    0.544E-02
RMM:   7    -0.230951369345E+04    0.23137E-04   -0.54347E-05  3103   0.842E-03    0.137E-02
RMM:   8    -0.230951368641E+04    0.70349E-05   -0.13423E-05  2856   0.361E-03
  17 F= -.23299401E+04 E0= -.23299401E+04  d E =-.222479E-01  mag=     4.0000
       N       E                     dE             d eps       ncg     rms          rms(c)
DAV:   1    -0.230950832253E+04    0.53709E-02   -0.55102E-01  4528   0.629E-01    0.305E-01
RMM:   2    -0.230951920116E+04   -0.10879E-01   -0.89857E-02  5898   0.148E-01    0.722E-01
RMM:   3    -0.230951662874E+04    0.25724E-02   -0.81792E-03  5246   0.546E-02    0.156E-01
RMM:   4    -0.230951656866E+04    0.60081E-04   -0.10949E-03  4342   0.135E-02    0.828E-02
RMM:   5    -0.230951651524E+04    0.53416E-04   -0.18544E-04  3965   0.100E-02    0.911E-02
RMM:   6    -0.230951645429E+04    0.60949E-04   -0.14826E-04  3987   0.861E-03    0.258E-02
RMM:   7    -0.230951644909E+04    0.51988E-05   -0.16691E-05  2846   0.559E-03
  18 F= -.23299427E+04 E0= -.23299427E+04  d E =-.248244E-01  mag=     4.0000
       N       E                     dE             d eps       ncg     rms          rms(c)
DAV:   1    -0.230951185903E+04    0.45953E-02   -0.13028E+00  4416   0.830E-01    0.455E-01
RMM:   2    -0.230954223958E+04   -0.30381E-01   -0.24527E-01  6096   0.213E-01    0.126E+00
RMM:   3    -0.230953419103E+04    0.80485E-02   -0.23113E-02  5477   0.745E-02    0.201E-01
RMM:   4    -0.230953425748E+04   -0.66449E-04   -0.28372E-03  4513   0.175E-02    0.123E-01
RMM:   5    -0.230953417005E+04    0.87434E-04   -0.29022E-04  3775   0.101E-02    0.123E-01
RMM:   6    -0.230953407088E+04    0.99174E-04   -0.34144E-04  4137   0.108E-02    0.382E-02
RMM:   7    -0.230953406716E+04    0.37173E-05   -0.39078E-05  2876   0.607E-03
  19 F= -.23299600E+04 E0= -.23299600E+04  d E =-.172854E-01  mag=     4.0000
       N       E                     dE             d eps       ncg     rms          rms(c)
DAV:   1    -0.230946218939E+04    0.71881E-01   -0.49693E+00  4416   0.162E+00    0.900E-01
RMM:   2    -0.230958228063E+04   -0.12009E+00   -0.95960E-01  6118   0.431E-01    0.252E+00
RMM:   3    -0.230954760081E+04    0.34680E-01   -0.89441E-02  5628   0.147E-01    0.363E-01
RMM:   4    -0.230954798509E+04   -0.38428E-03   -0.11451E-02  5041   0.350E-02    0.244E-01
RMM:   5    -0.230954765922E+04    0.32587E-03   -0.11369E-03  4842   0.188E-02    0.250E-01
RMM:   6    -0.230954723914E+04    0.42008E-03   -0.13373E-03  4961   0.192E-02    0.772E-02
RMM:   7    -0.230954721989E+04    0.19249E-04   -0.15082E-04  3318   0.986E-03    0.300E-02
RMM:   8    -0.230954721628E+04    0.36133E-05   -0.26754E-05  2858   0.424E-03
  20 F= -.23299725E+04 E0= -.23299725E+04  d E =-.297358E-01  mag=     4.0000
       N       E                     dE             d eps       ncg     rms          rms(c)
DAV:   1    -0.230952824252E+04    0.18977E-01   -0.22012E+00  4448   0.112E+00    0.526E-01
RMM:   2    -0.230957055657E+04   -0.42314E-01   -0.37970E-01  6031   0.264E-01    0.118E+00
RMM:   3    -0.230956543133E+04    0.51252E-02   -0.38946E-02  5770   0.983E-02    0.326E-01
RMM:   4    -0.230956516908E+04    0.26225E-03   -0.42925E-03  4822   0.217E-02    0.145E-01
RMM:   5    -0.230956499320E+04    0.17588E-03   -0.52826E-04  4398   0.130E-02    0.147E-01
RMM:   6    -0.230956487517E+04    0.11803E-03   -0.54409E-04  4427   0.137E-02    0.706E-02
RMM:   7    -0.230956483980E+04    0.35368E-04   -0.50605E-05  3011   0.747E-03    0.112E-02
RMM:   8    -0.230956483675E+04    0.30506E-05   -0.11040E-05  2848   0.311E-03
  21 F= -.23299898E+04 E0= -.23299898E+04  d E =-.173678E-01  mag=     4.0000
       N       E                     dE             d eps       ncg     rms          rms(c)
DAV:   1    -0.230952781270E+04    0.37027E-01   -0.26353E+00  4408   0.123E+00    0.573E-01
RMM:   2    -0.230957813014E+04   -0.50317E-01   -0.45464E-01  6007   0.290E-01    0.126E+00
RMM:   3    -0.230957233706E+04    0.57931E-02   -0.46770E-02  5775   0.109E-01    0.354E-01
RMM:   4    -0.230957201529E+04    0.32176E-03   -0.51122E-03  4875   0.238E-02    0.156E-01
RMM:   5    -0.230957180443E+04    0.21086E-03   -0.62702E-04  4544   0.143E-02    0.157E-01
RMM:   6    -0.230957166392E+04    0.14052E-03   -0.63807E-04  4511   0.146E-02    0.755E-02
RMM:   7    -0.230957162172E+04    0.42197E-04   -0.57791E-05  3078   0.801E-03    0.123E-02
RMM:   8    -0.230957161744E+04    0.42761E-05   -0.13527E-05  2855   0.329E-03
  22 F= -.23299963E+04 E0= -.23299963E+04  d E =-.238414E-01  mag=     3.9999
       N       E                     dE             d eps       ncg     rms          rms(c)
DAV:   1    -0.230956061513E+04    0.11007E-01   -0.13266E+00  4528   0.813E-01    0.374E-01
RMM:   2    -0.230958327961E+04   -0.22664E-01   -0.23329E-01  6248   0.200E-01    0.514E-01
RMM:   3    -0.230958422021E+04   -0.94060E-03   -0.21905E-02  5624   0.681E-02    0.374E-01
RMM:   4    -0.230958354176E+04    0.67845E-03   -0.25216E-03  4157   0.172E-02    0.107E-01
RMM:   5    -0.230958337615E+04    0.16561E-03   -0.33942E-04  3669   0.920E-03    0.617E-02
RMM:   6    -0.230958334992E+04    0.26233E-04   -0.23754E-04  3757   0.889E-03    0.500E-02
RMM:   7    -0.230958333819E+04    0.11721E-04   -0.35220E-05  2850   0.563E-03    0.116E-02
RMM:   8    -0.230958333689E+04    0.13000E-05   -0.72194E-06  2803   0.289E-03
  23 F= -.23300078E+04 E0= -.23300078E+04  d E =-.115447E-01  mag=     3.9999
       N       E                     dE             d eps       ncg     rms          rms(c)
DAV:   1    -0.230957860942E+04    0.47288E-02   -0.37724E-01  4592   0.432E-01    0.199E-01
RMM:   2    -0.230958498425E+04   -0.63748E-02   -0.65601E-02  6148   0.105E-01    0.274E-01
RMM:   3    -0.230958524369E+04   -0.25944E-03   -0.60725E-03  4815   0.354E-02    0.200E-01
RMM:   4    -0.230958504801E+04    0.19568E-03   -0.71409E-04  3212   0.954E-03    0.566E-02
RMM:   5    -0.230958500111E+04    0.46897E-04   -0.94942E-05  2983   0.546E-03    0.322E-02
RMM:   6    -0.230958499451E+04    0.65982E-05   -0.63343E-05  3121   0.512E-03
  24 F= -.23300094E+04 E0= -.23300094E+04  d E =-.131018E-01  mag=     3.9999
       N       E                     dE             d eps       ncg     rms          rms(c)
DAV:   1    -0.230957454085E+04    0.10460E-01   -0.10812E+00  4448   0.814E-01    0.365E-01
RMM:   2    -0.230959482513E+04   -0.20284E-01   -0.20968E-01  5988   0.197E-01    0.462E-01
RMM:   3    -0.230959599715E+04   -0.11720E-02   -0.20398E-02  5634   0.726E-02    0.366E-01
RMM:   4    -0.230959533703E+04    0.66012E-03   -0.22563E-03  4601   0.185E-02    0.957E-02
RMM:   5    -0.230959523606E+04    0.10096E-03   -0.27986E-04  3682   0.953E-03    0.573E-02
RMM:   6    -0.230959520707E+04    0.28998E-04   -0.18460E-04  4158   0.938E-03    0.509E-02
RMM:   7    -0.230959519133E+04    0.15736E-04   -0.38592E-05  2866   0.706E-03    0.146E-02
RMM:   8    -0.230959518885E+04    0.24812E-05   -0.77619E-06  2826   0.307E-03
  25 F= -.23300195E+04 E0= -.23300194E+04  d E =-.100528E-01  mag=     3.9999
       N       E                     dE             d eps       ncg     rms          rms(c)
DAV:   1    -0.230950339337E+04    0.91798E-01   -0.49972E+00  4416   0.175E+00    0.785E-01
RMM:   2    -0.230959819693E+04   -0.94804E-01   -0.97545E-01  6014   0.424E-01    0.102E+00
RMM:   3    -0.230960306562E+04   -0.48687E-02   -0.98928E-02  5780   0.155E-01    0.755E-01
RMM:   4    -0.230960029292E+04    0.27727E-02   -0.10331E-02  5427   0.386E-02    0.208E-01
RMM:   5    -0.230959982541E+04    0.46751E-03   -0.12481E-03  4745   0.191E-02    0.126E-01
RMM:   6    -0.230959966700E+04    0.15841E-03   -0.84484E-04  4867   0.175E-02    0.107E-01
RMM:   7    -0.230959960124E+04    0.65757E-04   -0.19250E-04  3931   0.126E-02    0.373E-02
RMM:   8    -0.230959958690E+04    0.14340E-04   -0.28193E-05  2854   0.429E-03    0.111E-02
RMM:   9    -0.230959958276E+04    0.41370E-05   -0.17759E-05  2865   0.349E-03
  26 F= -.23300235E+04 E0= -.23300235E+04  d E =-.140821E-01  mag=     4.0000
       N       E                     dE             d eps       ncg     rms          rms(c)
DAV:   1    -0.230959077023E+04    0.88167E-02   -0.51920E-01  4512   0.560E-01    0.247E-01
RMM:   2    -0.230960025942E+04   -0.94892E-02   -0.10010E-01  6071   0.137E-01    0.246E-01
RMM:   3    -0.230960119131E+04   -0.93189E-03   -0.96656E-03  5419   0.494E-02    0.280E-01
RMM:   4    -0.230960079193E+04    0.39938E-03   -0.10816E-03  3500   0.130E-02    0.684E-02
RMM:   5    -0.230960074446E+04    0.47470E-04   -0.15680E-04  3136   0.731E-03    0.410E-02
RMM:   6    -0.230960073563E+04    0.88332E-05   -0.91323E-05  3483   0.699E-03
  27 F= -.23300248E+04 E0= -.23300248E+04  d E =-.153615E-01  mag=     4.0000
       N       E                     dE             d eps       ncg     rms          rms(c)
DAV:   1    -0.230958837056E+04    0.12374E-01   -0.97458E-01  4440   0.751E-01    0.322E-01
RMM:   2    -0.230960842719E+04   -0.20057E-01   -0.21022E-01  6289   0.183E-01    0.337E-01
RMM:   3    -0.230961024764E+04   -0.18205E-02   -0.21074E-02  5589   0.717E-02    0.339E-01
RMM:   4    -0.230960973441E+04    0.51323E-03   -0.21726E-03  3906   0.168E-02    0.102E-01
RMM:   5    -0.230960962972E+04    0.10469E-03   -0.23714E-04  3140   0.810E-03    0.638E-02
RMM:   6    -0.230960959618E+04    0.33544E-04   -0.22188E-04  4150   0.861E-03    0.710E-02
RMM:   7    -0.230960956660E+04    0.29580E-04   -0.64755E-05  2879   0.716E-03    0.143E-02
RMM:   8    -0.230960956473E+04    0.18662E-05   -0.97366E-06  2847   0.299E-03
  28 F= -.23300335E+04 E0= -.23300335E+04  d E =-.871438E-02  mag=     4.0000
       N       E                     dE             d eps       ncg     rms          rms(c)
DAV:   1    -0.230948662003E+04    0.12295E+00   -0.58383E+00  4400   0.184E+00    0.799E-01
RMM:   2    -0.230960786305E+04   -0.12124E+00   -0.12659E+00  6097   0.445E-01    0.914E-01
RMM:   3    -0.230961877136E+04   -0.10908E-01   -0.14257E-01  5664   0.189E-01    0.828E-01
RMM:   4    -0.230961563402E+04    0.31373E-02   -0.13423E-02  5588   0.408E-02    0.259E-01
RMM:   5    -0.230961503184E+04    0.60217E-03   -0.15564E-03  4559   0.175E-02    0.158E-01
RMM:   6    -0.230961475904E+04    0.27280E-03   -0.12886E-03  4984   0.180E-02    0.136E-01
RMM:   7    -0.230961467047E+04    0.88570E-04   -0.36674E-04  4065   0.142E-02    0.470E-02
RMM:   8    -0.230961465521E+04    0.15260E-04   -0.43097E-05  2885   0.487E-03    0.149E-02
RMM:   9    -0.230961465488E+04    0.33186E-06   -0.23925E-05  2861   0.383E-03
  29 F= -.23300382E+04 E0= -.23300382E+04  d E =-.134390E-01  mag=     4.0000
       N       E                     dE             d eps       ncg     rms          rms(c)
DAV:   1    -0.230960364175E+04    0.11013E-01   -0.54921E-01  4464   0.562E-01    0.241E-01
RMM:   2    -0.230961482281E+04   -0.11181E-01   -0.11871E-01  6118   0.139E-01    0.200E-01
RMM:   3    -0.230961602877E+04   -0.12060E-02   -0.11705E-02  5323   0.510E-02    0.261E-01
RMM:   4    -0.230961572652E+04    0.30225E-03   -0.12500E-03  3347   0.125E-02    0.795E-02
RMM:   5    -0.230961566411E+04    0.62408E-04   -0.13520E-04  2978   0.660E-03    0.486E-02
RMM:   6    -0.230961564957E+04    0.14538E-04   -0.10873E-04  3360   0.630E-03    0.465E-02
RMM:   7    -0.230961564049E+04    0.90813E-05   -0.30924E-05  2851   0.573E-03
  30 F= -.23300393E+04 E0= -.23300393E+04  d E =-.145495E-01  mag=     4.0000
       N       E                     dE             d eps       ncg     rms          rms(c)
DAV:   1    -0.230961327451E+04    0.23751E-02   -0.41962E-01  4464   0.547E-01    0.212E-01
RMM:   2    -0.230961973734E+04   -0.64628E-02   -0.71042E-02  5861   0.112E-01    0.121E-01
RMM:   3    -0.230962027661E+04   -0.53927E-03   -0.59666E-03  5190   0.424E-02    0.153E-01
RMM:   4    -0.230962021134E+04    0.65264E-04   -0.74980E-04  3251   0.103E-02    0.856E-02
RMM:   5    -0.230962014159E+04    0.69754E-04   -0.12771E-04  3288   0.756E-03    0.412E-02
RMM:   6    -0.230962012173E+04    0.19854E-04   -0.93116E-05  3600   0.736E-03    0.179E-02
RMM:   7    -0.230962011900E+04    0.27299E-05   -0.13358E-05  2832   0.545E-03
  31 F= -.23300437E+04 E0= -.23300437E+04  d E =-.441203E-02  mag=     4.0000
       N       E                     dE             d eps       ncg     rms          rms(c)
DAV:   1    -0.230960820055E+04    0.11921E-01   -0.86389E-01  4432   0.784E-01    0.306E-01
RMM:   2    -0.230962160255E+04   -0.13402E-01   -0.14706E-01  5851   0.161E-01    0.209E-01
RMM:   3    -0.230962295448E+04   -0.13519E-02   -0.12962E-02  5416   0.648E-02    0.308E-01
RMM:   4    -0.230962252496E+04    0.42951E-03   -0.16342E-03  4225   0.158E-02    0.107E-01
RMM:   5    -0.230962240417E+04    0.12079E-03   -0.27087E-04  4021   0.105E-02    0.592E-02
RMM:   6    -0.230962236205E+04    0.42125E-04   -0.18897E-04  4128   0.954E-03    0.279E-02
RMM:   7    -0.230962235433E+04    0.77167E-05   -0.25357E-05  2861   0.724E-03
  32 F= -.23300458E+04 E0= -.23300458E+04  d E =-.653487E-02  mag=     4.0000
       N       E                     dE             d eps       ncg     rms          rms(c)
DAV:   1    -0.230962259932E+04   -0.23727E-03   -0.12384E-01  4688   0.253E-01    0.983E-02
RMM:   2    -0.230962470275E+04   -0.21034E-02   -0.23324E-02  6055   0.542E-02    0.585E-02
RMM:   3    -0.230962486718E+04   -0.16443E-03   -0.18043E-03  3364   0.195E-02    0.479E-02
RMM:   4    -0.230962487870E+04   -0.11514E-04   -0.22763E-04  2903   0.516E-03    0.506E-02
RMM:   5    -0.230962485977E+04    0.18930E-04   -0.26025E-05  2868   0.291E-03    0.209E-02
RMM:   6    -0.230962485606E+04    0.37023E-05   -0.25562E-05  2854   0.298E-03
  33 F= -.23300483E+04 E0= -.23300483E+04  d E =-.245940E-02  mag=     4.0000
       N       E                     dE             d eps       ncg     rms          rms(c)
DAV:   1    -0.230960985537E+04    0.15004E-01   -0.11119E+00  4400   0.757E-01    0.292E-01
RMM:   2    -0.230962863513E+04   -0.18780E-01   -0.20760E-01  6181   0.160E-01    0.176E-01
RMM:   3    -0.230963025874E+04   -0.16236E-02   -0.17629E-02  5038   0.588E-02    0.158E-01
RMM:   4    -0.230963031941E+04   -0.60666E-04   -0.20248E-03  3217   0.125E-02    0.139E-01
RMM:   5    -0.230963017334E+04    0.14606E-03   -0.22522E-04  3066   0.742E-03    0.685E-02
RMM:   6    -0.230963012769E+04    0.45654E-04   -0.26725E-04  3673   0.804E-03    0.201E-02
RMM:   7    -0.230963012716E+04    0.52684E-06   -0.26048E-05  2851   0.577E-03
  34 F= -.23300534E+04 E0= -.23300534E+04  d E =-.758714E-02  mag=     4.0000
       N       E                     dE             d eps       ncg     rms          rms(c)
DAV:   1    -0.230954913035E+04    0.80997E-01   -0.44461E+00  4400   0.151E+00    0.582E-01
RMM:   2    -0.230962368490E+04   -0.74555E-01   -0.82451E-01  6254   0.324E-01    0.349E-01
RMM:   3    -0.230963107904E+04   -0.73941E-02   -0.83411E-02  5520   0.118E-01    0.254E-01
RMM:   4    -0.230963135376E+04   -0.27472E-03   -0.81489E-03  4356   0.249E-02    0.257E-01
RMM:   5    -0.230963104210E+04    0.31166E-03   -0.79194E-04  3682   0.122E-02    0.186E-01
RMM:   6    -0.230963070442E+04    0.33768E-03   -0.10593E-03  4467   0.148E-02    0.534E-02
RMM:   7    -0.230963070893E+04   -0.45079E-05   -0.17372E-04  3273   0.996E-03    0.386E-02
RMM:   8    -0.230963069611E+04    0.12816E-04   -0.34704E-05  2872   0.458E-03    0.147E-02
RMM:   9    -0.230963069455E+04    0.15599E-05   -0.14763E-05  2845   0.335E-03
  35 F= -.23300536E+04 E0= -.23300536E+04  d E =-.779545E-02  mag=     4.0000
       N       E                     dE             d eps       ncg     rms          rms(c)
DAV:   1    -0.230961412542E+04    0.16571E-01   -0.98697E-01  4400   0.715E-01    0.277E-01
RMM:   2    -0.230963090822E+04   -0.16783E-01   -0.18360E-01  6139   0.150E-01    0.236E-01
RMM:   3    -0.230963249680E+04   -0.15886E-02   -0.15889E-02  5182   0.535E-02    0.279E-01
RMM:   4    -0.230963219470E+04    0.30209E-03   -0.19093E-03  3337   0.137E-02    0.108E-01
RMM:   5    -0.230963209096E+04    0.10374E-03   -0.20056E-04  3092   0.706E-03    0.630E-02
RMM:   6    -0.230963205399E+04    0.36973E-04   -0.20054E-04  3616   0.765E-03    0.256E-02
RMM:   7    -0.230963205234E+04    0.16446E-05   -0.28613E-05  2857   0.569E-03
  36 F= -.23300552E+04 E0= -.23300552E+04  d E =-.933428E-02  mag=     4.0000
       N       E                     dE             d eps       ncg     rms          rms(c)
DAV:   1    -0.230963223389E+04   -0.17990E-03   -0.13724E-01  4512   0.274E-01    0.103E-01
RMM:   2    -0.230963462116E+04   -0.23873E-02   -0.25831E-02  6006   0.586E-02    0.593E-02
RMM:   3    -0.230963480612E+04   -0.18496E-03   -0.21127E-03  3442   0.213E-02    0.379E-02
RMM:   4    -0.230963481730E+04   -0.11181E-04   -0.24088E-04  2932   0.532E-03    0.444E-02
RMM:   5    -0.230963480654E+04    0.10764E-04   -0.26302E-05  2816   0.313E-03    0.295E-02
RMM:   6    -0.230963479845E+04    0.80902E-05   -0.28548E-05  2879   0.315E-03
  37 F= -.23300579E+04 E0= -.23300579E+04  d E =-.268605E-02  mag=     4.0000
       N       E                     dE             d eps       ncg     rms          rms(c)
DAV:   1    -0.230961808714E+04    0.16719E-01   -0.12339E+00  4400   0.820E-01    0.314E-01
RMM:   2    -0.230963950325E+04   -0.21416E-01   -0.23372E-01  6047   0.175E-01    0.181E-01
RMM:   3    -0.230964139216E+04   -0.18889E-02   -0.21058E-02  5210   0.663E-02    0.120E-01
RMM:   4    -0.230964148070E+04   -0.88542E-04   -0.22305E-03  3496   0.137E-02    0.123E-01
RMM:   5    -0.230964141891E+04    0.61792E-04   -0.22141E-04  3022   0.788E-03    0.101E-01
RMM:   6    -0.230964133132E+04    0.87588E-04   -0.24444E-04  3912   0.823E-03    0.280E-02
RMM:   7    -0.230964133569E+04   -0.43633E-05   -0.39047E-05  2863   0.629E-03
  38 F= -.23300642E+04 E0= -.23300642E+04  d E =-.902440E-02  mag=     4.0000
       N       E                     dE             d eps       ncg     rms          rms(c)
DAV:   1    -0.230955291504E+04    0.88416E-01   -0.49359E+00  4400   0.164E+00    0.628E-01
RMM:   2    -0.230963839933E+04   -0.85484E-01   -0.93424E-01  6142   0.358E-01    0.368E-01
RMM:   3    -0.230964677250E+04   -0.83732E-02   -0.94369E-02  5545   0.132E-01    0.250E-01
RMM:   4    -0.230964697530E+04   -0.20280E-03   -0.92600E-03  4808   0.278E-02    0.201E-01
RMM:   5    -0.230964696271E+04    0.12589E-04   -0.99798E-04  4249   0.146E-02    0.257E-01
RMM:   6    -0.230964646899E+04    0.49373E-03   -0.93818E-04  4751   0.145E-02    0.735E-02
RMM:   7    -0.230964647692E+04   -0.79298E-05   -0.20310E-04  3609   0.984E-03    0.497E-02
RMM:   8    -0.230964645961E+04    0.17308E-04   -0.43129E-05  2871   0.551E-03    0.164E-02
RMM:   9    -0.230964645803E+04    0.15734E-05   -0.18964E-05  2861   0.346E-03
  39 F= -.23300688E+04 E0= -.23300688E+04  d E =-.136667E-01  mag=     4.0000
       N       E                     dE             d eps       ncg     rms          rms(c)
DAV:   1    -0.230964585909E+04    0.60052E-03   -0.31492E-02  4752   0.132E-01    0.511E-02
RMM:   2    -0.230964641638E+04   -0.55729E-03   -0.60061E-03  5822   0.286E-02    0.454E-02
RMM:   3    -0.230964646810E+04   -0.51718E-04   -0.49156E-04  2970   0.106E-02    0.550E-02
RMM:   4    -0.230964645420E+04    0.13896E-04   -0.62138E-05  2874   0.357E-03    0.168E-02
RMM:   5    -0.230964645109E+04    0.31193E-05   -0.73431E-06  2713   0.170E-03
  40 F= -.23300689E+04 E0= -.23300689E+04  d E =-.137021E-01  mag=     4.0000
       N       E                     dE             d eps       ncg     rms          rms(c)
DAV:   1    -0.230964584899E+04    0.60522E-03   -0.99619E-02  4480   0.229E-01    0.998E-02
RMM:   2    -0.230964789508E+04   -0.20461E-02   -0.21268E-02  6106   0.549E-02    0.132E-01
RMM:   3    -0.230964802283E+04   -0.12775E-03   -0.19696E-03  3366   0.207E-02    0.102E-01
RMM:   4    -0.230964797509E+04    0.47739E-04   -0.22037E-04  2934   0.612E-03    0.302E-02
RMM:   5    -0.230964796303E+04    0.12054E-04   -0.27853E-05  2861   0.319E-03    0.180E-02
RMM:   6    -0.230964796049E+04    0.25379E-05   -0.19912E-05  2870   0.325E-03
  41 F= -.23300703E+04 E0= -.23300703E+04  d E =-.145065E-02  mag=     4.0000
       N       E                     dE             d eps       ncg     rms          rms(c)
DAV:   1    -0.230963169338E+04    0.16270E-01   -0.88991E-01  4400   0.684E-01    0.298E-01
RMM:   2    -0.230964974258E+04   -0.18049E-01   -0.19070E-01  6055   0.165E-01    0.344E-01
RMM:   3    -0.230965131056E+04   -0.15680E-02   -0.18478E-02  5391   0.643E-02    0.325E-01
RMM:   4    -0.230965080938E+04    0.50118E-03   -0.20201E-03  3761   0.153E-02    0.943E-02
RMM:   5    -0.230965070468E+04    0.10470E-03   -0.24107E-04  3321   0.834E-03    0.586E-02
RMM:   6    -0.230965068095E+04    0.23728E-04   -0.20582E-04  3797   0.858E-03    0.379E-02
RMM:   7    -0.230965067392E+04    0.70393E-05   -0.29125E-05  2860   0.599E-03
  42 F= -.23300729E+04 E0= -.23300729E+04  d E =-.397598E-02  mag=     4.0000
       N       E                     dE             d eps       ncg     rms          rms(c)
DAV:   1    -0.230964704685E+04    0.36341E-02   -0.18446E-01  4496   0.312E-01    0.136E-01
RMM:   2    -0.230965080450E+04   -0.37577E-02   -0.39757E-02  6167   0.758E-02    0.156E-01
RMM:   3    -0.230965111775E+04   -0.31325E-03   -0.37496E-03  4070   0.289E-02    0.143E-01
RMM:   4    -0.230965102512E+04    0.92631E-04   -0.42031E-04  2973   0.788E-03    0.433E-02
RMM:   5    -0.230965100440E+04    0.20719E-04   -0.50990E-05  2907   0.438E-03    0.272E-02
RMM:   6    -0.230965100085E+04    0.35460E-05   -0.42509E-05  2900   0.439E-03
  43 F= -.23300731E+04 E0= -.23300731E+04  d E =-.421146E-02  mag=     4.0000
       N       E                     dE             d eps       ncg     rms          rms(c)
DAV:   1    -0.230964716408E+04    0.38403E-02   -0.24996E-01  4408   0.363E-01    0.164E-01
RMM:   2    -0.230965252252E+04   -0.53584E-02   -0.56395E-02  6222   0.897E-02    0.202E-01
RMM:   3    -0.230965291946E+04   -0.39694E-03   -0.54406E-03  4280   0.343E-02    0.170E-01
RMM:   4    -0.230965278858E+04    0.13087E-03   -0.59133E-04  3075   0.872E-03    0.484E-02
RMM:   5    -0.230965276151E+04    0.27078E-04   -0.59937E-05  2919   0.441E-03    0.305E-02
RMM:   6    -0.230965275513E+04    0.63766E-05   -0.51694E-05  2922   0.448E-03
  44 F= -.23300748E+04 E0= -.23300748E+04  d E =-.168343E-02  mag=     4.0000
       N       E                     dE             d eps       ncg     rms          rms(c)
DAV:   1    -0.230964354194E+04    0.92196E-02   -0.44892E-01  4400   0.487E-01    0.219E-01
RMM:   2    -0.230965317745E+04   -0.96355E-02   -0.10137E-01  6252   0.122E-01    0.267E-01
RMM:   3    -0.230965391581E+04   -0.73836E-03   -0.99754E-03  4879   0.459E-02    0.226E-01
RMM:   4    -0.230965368356E+04    0.23225E-03   -0.10687E-03  3276   0.111E-02    0.654E-02
RMM:   5    -0.230965363366E+04    0.49895E-04   -0.10499E-04  2981   0.565E-03    0.418E-02
RMM:   6    -0.230965362079E+04    0.12868E-04   -0.96944E-05  3096   0.581E-03    0.318E-02
RMM:   7    -0.230965361631E+04    0.44864E-05   -0.19098E-05  2849   0.479E-03
  45 F= -.23300755E+04 E0= -.23300755E+04  d E =-.244185E-02  mag=     4.0000
       N       E                     dE             d eps       ncg     rms          rms(c)
DAV:   1    -0.230965033520E+04    0.32856E-02   -0.22186E-01  4512   0.393E-01    0.170E-01
RMM:   2    -0.230965517416E+04   -0.48390E-02   -0.48102E-02  6023   0.952E-02    0.275E-01
RMM:   3    -0.230965517358E+04    0.58251E-06   -0.48690E-03  4616   0.364E-02    0.132E-01
RMM:   4    -0.230965510778E+04    0.65799E-04   -0.51990E-04  3007   0.858E-03    0.438E-02
RMM:   5    -0.230965507954E+04    0.28236E-04   -0.58673E-05  2939   0.504E-03    0.317E-02
RMM:   6    -0.230965507060E+04    0.89427E-05   -0.49065E-05  2948   0.561E-03
  46 F= -.23300770E+04 E0= -.23300770E+04  d E =-.145079E-02  mag=     4.0000
       N       E                     dE             d eps       ncg     rms          rms(c)
DAV:   1    -0.230964138312E+04    0.13696E-01   -0.67957E-01  4400   0.688E-01    0.297E-01
RMM:   2    -0.230965611019E+04   -0.14727E-01   -0.14687E-01  5886   0.165E-01    0.469E-01
RMM:   3    -0.230965622215E+04   -0.11196E-03   -0.15027E-02  5377   0.632E-02    0.237E-01
RMM:   4    -0.230965599554E+04    0.22661E-03   -0.15858E-03  4081   0.140E-02    0.768E-02
RMM:   5    -0.230965590646E+04    0.89078E-04   -0.16675E-04  3433   0.802E-03    0.529E-02
RMM:   6    -0.230965588177E+04    0.24692E-04   -0.15287E-04  3829   0.877E-03    0.136E-02
RMM:   7    -0.230965588119E+04    0.58109E-06   -0.14285E-05  2850   0.538E-03
  47 F= -.23300778E+04 E0= -.23300778E+04  d E =-.224481E-02  mag=     4.0000
       N       E                     dE             d eps       ncg     rms          rms(c)
DAV:   1    -0.230965266916E+04    0.32126E-02   -0.21823E-01  4496   0.394E-01    0.169E-01
RMM:   2    -0.230965767412E+04   -0.50050E-02   -0.46037E-02  6110   0.933E-02    0.374E-01
RMM:   3    -0.230965714784E+04    0.52628E-03   -0.47372E-03  4603   0.337E-02    0.879E-02
RMM:   4    -0.230965714672E+04    0.11133E-05   -0.51760E-04  3032   0.782E-03    0.451E-02
RMM:   5    -0.230965713134E+04    0.15383E-04   -0.58020E-05  2917   0.476E-03    0.509E-02
RMM:   6    -0.230965711276E+04    0.18580E-04   -0.66217E-05  2922   0.553E-03    0.158E-02
RMM:   7    -0.230965711120E+04    0.15604E-05   -0.85346E-06  2842   0.365E-03
  48 F= -.23300791E+04 E0= -.23300791E+04  d E =-.130204E-02  mag=     4.0000
       N       E                     dE             d eps       ncg     rms          rms(c)
DAV:   1    -0.230963920713E+04    0.17906E-01   -0.91841E-01  4400   0.808E-01    0.342E-01
RMM:   2    -0.230965987793E+04   -0.20671E-01   -0.19284E-01  6148   0.190E-01    0.725E-01
RMM:   3    -0.230965812858E+04    0.17493E-02   -0.19937E-02  5571   0.677E-02    0.189E-01
RMM:   4    -0.230965809487E+04    0.33709E-04   -0.21463E-03  4342   0.150E-02    0.907E-02
RMM:   5    -0.230965802007E+04    0.74803E-04   -0.22706E-04  3618   0.899E-03    0.973E-02
RMM:   6    -0.230965795310E+04    0.66969E-04   -0.28456E-04  3930   0.101E-02    0.341E-02
RMM:   7    -0.230965794397E+04    0.91259E-05   -0.27144E-05  2878   0.558E-03
  49 F= -.23300800E+04 E0= -.23300800E+04  d E =-.226780E-02  mag=     4.0000
       N       E                     dE             d eps       ncg     rms          rms(c)
DAV:   1    -0.230965551935E+04    0.24337E-02   -0.20264E-01  4528   0.385E-01    0.171E-01
RMM:   2    -0.230966021741E+04   -0.46981E-02   -0.39811E-02  6092   0.890E-02    0.436E-01
RMM:   3    -0.230965925991E+04    0.95750E-03   -0.40932E-03  4736   0.332E-02    0.694E-02
RMM:   4    -0.230965926751E+04   -0.76009E-05   -0.51747E-04  3057   0.765E-03    0.435E-02
RMM:   5    -0.230965925707E+04    0.10432E-04   -0.58463E-05  2905   0.489E-03    0.588E-02
RMM:   6    -0.230965923092E+04    0.26159E-04   -0.62728E-05  2922   0.549E-03    0.910E-03
RMM:   7    -0.230965923091E+04    0.25320E-08   -0.83559E-06  2836   0.363E-03
  50 F= -.23300814E+04 E0= -.23300814E+04  d E =-.137769E-02  mag=     4.0000
       N       E                     dE             d eps       ncg     rms          rms(c)
DAV:   1    -0.230965271872E+04    0.65122E-02   -0.38277E-01  4400   0.530E-01    0.232E-01
RMM:   2    -0.230966151042E+04   -0.87917E-02   -0.74965E-02  6111   0.121E-01    0.584E-01
RMM:   3    -0.230965982101E+04    0.16894E-02   -0.77356E-03  5218   0.447E-02    0.960E-02
RMM:   4    -0.230965983137E+04   -0.10361E-04   -0.98085E-04  3346   0.101E-02    0.593E-02
RMM:   5    -0.230965980887E+04    0.22496E-04   -0.11079E-04  3076   0.645E-03    0.802E-02
RMM:   6    -0.230965975970E+04    0.49168E-04   -0.12001E-04  3144   0.720E-03    0.129E-02
RMM:   7    -0.230965975937E+04    0.32930E-06   -0.13654E-05  2849   0.444E-03
  51 F= -.23300821E+04 E0= -.23300821E+04  d E =-.202488E-02  mag=     4.0000
       N       E                     dE             d eps       ncg     rms          rms(c)
DAV:   1    -0.230965583460E+04    0.39251E-02   -0.28511E-01  4408   0.458E-01    0.201E-01
RMM:   2    -0.230966237221E+04   -0.65376E-02   -0.55953E-02  6140   0.107E-01    0.502E-01
RMM:   3    -0.230966113457E+04    0.12376E-02   -0.57454E-03  5070   0.390E-02    0.842E-02
RMM:   4    -0.230966114313E+04   -0.85582E-05   -0.70618E-04  3136   0.887E-03    0.508E-02
RMM:   5    -0.230966112597E+04    0.17159E-04   -0.78134E-05  3018   0.573E-03    0.674E-02
RMM:   6    -0.230966109247E+04    0.33498E-04   -0.92193E-05  2962   0.674E-03    0.105E-02
RMM:   7    -0.230966109236E+04    0.11825E-06   -0.11947E-05  2847   0.422E-03
  52 F= -.23300835E+04 E0= -.23300835E+04  d E =-.145562E-02  mag=     4.0000
       N       E                     dE             d eps       ncg     rms          rms(c)
DAV:   1    -0.230965584657E+04    0.52459E-02   -0.30445E-01  4400   0.473E-01    0.207E-01
RMM:   2    -0.230966278185E+04   -0.69353E-02   -0.59620E-02  6147   0.111E-01    0.512E-01
RMM:   3    -0.230966150160E+04    0.12802E-02   -0.61310E-03  5089   0.397E-02    0.872E-02
RMM:   4    -0.230966150920E+04   -0.76057E-05   -0.74866E-04  3167   0.916E-03    0.522E-02
RMM:   5    -0.230966149073E+04    0.18476E-04   -0.83643E-05  3040   0.593E-03    0.691E-02
RMM:   6    -0.230966145555E+04    0.35174E-04   -0.97582E-05  2979   0.692E-03    0.111E-02
RMM:   7    -0.230966145533E+04    0.22320E-06   -0.12430E-05  2850   0.431E-03
  53 F= -.23300840E+04 E0= -.23300840E+04  d E =-.194113E-02  mag=     4.0000
       N       E                     dE             d eps       ncg     rms          rms(c)
DAV:   1    -0.230965811058E+04    0.33450E-02   -0.24931E-01  4424   0.413E-01    0.190E-01
RMM:   2    -0.230966401901E+04   -0.59084E-02   -0.49523E-02  6161   0.990E-02    0.490E-01
RMM:   3    -0.230966278777E+04    0.12312E-02   -0.49920E-03  4902   0.349E-02    0.758E-02
RMM:   4    -0.230966279387E+04   -0.61009E-05   -0.62186E-04  3088   0.842E-03    0.471E-02
RMM:   5    -0.230966278345E+04    0.10420E-04   -0.68689E-05  2950   0.530E-03    0.653E-02
RMM:   6    -0.230966275200E+04    0.31456E-04   -0.81968E-05  2949   0.627E-03    0.953E-03
RMM:   7    -0.230966275174E+04    0.26196E-06   -0.94972E-06  2835   0.393E-03
  54 F= -.23300854E+04 E0= -.23300854E+04  d E =-.140130E-02  mag=     4.0000
       N       E                     dE             d eps       ncg     rms          rms(c)
DAV:   1    -0.230964952083E+04    0.13231E-01   -0.74683E-01  4400   0.717E-01    0.329E-01
RMM:   2    -0.230966731625E+04   -0.17795E-01   -0.14903E-01  6125   0.172E-01    0.849E-01
RMM:   3    -0.230966355643E+04    0.37598E-02   -0.14999E-02  5543   0.595E-02    0.131E-01
RMM:   4    -0.230966356604E+04   -0.96069E-05   -0.18657E-03  4095   0.139E-02    0.811E-02
RMM:   5    -0.230966353139E+04    0.34644E-04   -0.20134E-04  3516   0.852E-03    0.112E-01
RMM:   6    -0.230966343731E+04    0.94086E-04   -0.25283E-04  3833   0.952E-03    0.164E-02
RMM:   7    -0.230966343504E+04    0.22657E-05   -0.21398E-05  2854   0.516E-03
  55 F= -.23300863E+04 E0= -.23300863E+04  d E =-.226155E-02  mag=     4.0000
       N       E                     dE             d eps       ncg     rms          rms(c)
DAV:   1    -0.230965879136E+04    0.46459E-02   -0.30892E-01  4472   0.454E-01    0.200E-01
RMM:   2    -0.230966569947E+04   -0.69081E-02   -0.61186E-02  6149   0.110E-01    0.463E-01
RMM:   3    -0.230966472347E+04    0.97600E-03   -0.59303E-03  5042   0.370E-02    0.924E-02
RMM:   4    -0.230966471756E+04    0.59153E-05   -0.69562E-04  3104   0.865E-03    0.518E-02
RMM:   5    -0.230966469728E+04    0.20271E-04   -0.80299E-05  2999   0.524E-03    0.649E-02
RMM:   6    -0.230966466701E+04    0.30279E-04   -0.88328E-05  2920   0.625E-03    0.128E-02
RMM:   7    -0.230966466655E+04    0.45610E-06   -0.99680E-06  2850   0.373E-03
  56 F= -.23300876E+04 E0= -.23300876E+04  d E =-.129682E-02  mag=     4.0000
       N       E                     dE             d eps       ncg     rms          rms(c)
DAV:   1    -0.230965769538E+04    0.69716E-02   -0.38760E-01  4400   0.509E-01    0.224E-01
RMM:   2    -0.230966636737E+04   -0.86720E-02   -0.76690E-02  6148   0.123E-01    0.518E-01
RMM:   3    -0.230966514375E+04    0.12236E-02   -0.74909E-03  5171   0.415E-02    0.102E-01
RMM:   4    -0.230966513935E+04    0.44051E-05   -0.88259E-04  3194   0.949E-03    0.582E-02
RMM:   5    -0.230966511442E+04    0.24924E-04   -0.10094E-04  3056   0.576E-03    0.735E-02
RMM:   6    -0.230966507486E+04    0.39567E-04   -0.11181E-04  2970   0.685E-03    0.142E-02
RMM:   7    -0.230966507429E+04    0.56589E-06   -0.11876E-05  2848   0.407E-03
  57 F= -.23300881E+04 E0= -.23300881E+04  d E =-.177649E-02  mag=     4.0000
       N       E                     dE             d eps       ncg     rms          rms(c)
DAV:   1    -0.230966112925E+04    0.39456E-02   -0.26760E-01  4424   0.423E-01    0.188E-01
RMM:   2    -0.230966723819E+04   -0.61089E-02   -0.53347E-02  6130   0.102E-01    0.443E-01
RMM:   3    -0.230966630832E+04    0.92987E-03   -0.51119E-03  4868   0.348E-02    0.827E-02
RMM:   4    -0.230966630790E+04    0.41700E-06   -0.62401E-04  3061   0.823E-03    0.483E-02
RMM:   5    -0.230966629236E+04    0.15540E-04   -0.68940E-05  2946   0.505E-03    0.619E-02
RMM:   6    -0.230966626422E+04    0.28140E-04   -0.74768E-05  2937   0.584E-03    0.119E-02
RMM:   7    -0.230966626379E+04    0.43408E-06   -0.86590E-06  2836   0.357E-03
  58 F= -.23300893E+04 E0= -.23300893E+04  d E =-.122766E-02  mag=     4.0000
       N       E                     dE             d eps       ncg     rms          rms(c)
DAV:   1    -0.230965112006E+04    0.15144E-01   -0.82834E-01  4400   0.745E-01    0.332E-01
RMM:   2    -0.230967022771E+04   -0.19108E-01   -0.16611E-01  6095   0.181E-01    0.791E-01
RMM:   3    -0.230966718322E+04    0.30445E-02   -0.15924E-02  5541   0.608E-02    0.144E-01
RMM:   4    -0.230966718358E+04   -0.35540E-06   -0.19767E-03  3849   0.138E-02    0.853E-02
RMM:   5    -0.230966713279E+04    0.50783E-04   -0.21108E-04  3442   0.836E-03    0.109E-01
RMM:   6    -0.230966704255E+04    0.90243E-04   -0.23971E-04  3593   0.928E-03    0.202E-02
RMM:   7    -0.230966704075E+04    0.18018E-05   -0.23216E-05  2863   0.500E-03
  59 F= -.23300901E+04 E0= -.23300901E+04  d E =-.207103E-02  mag=     4.0000
       N       E                     dE             d eps       ncg     rms          rms(c)
DAV:   1    -0.230966516413E+04    0.18784E-02   -0.14638E-01  4544   0.326E-01    0.141E-01
RMM:   2    -0.230966837260E+04   -0.32085E-02   -0.29015E-02  6059   0.789E-02    0.296E-01
RMM:   3    -0.230966800499E+04    0.36761E-03   -0.27449E-03  4249   0.277E-02    0.738E-02
RMM:   4    -0.230966799145E+04    0.13542E-04   -0.31196E-04  2981   0.683E-03    0.364E-02
RMM:   5    -0.230966797855E+04    0.12900E-04   -0.42616E-05  2901   0.440E-03    0.395E-02
RMM:   6    -0.230966796738E+04    0.11166E-04   -0.37245E-05  2865   0.475E-03    0.106E-02
RMM:   7    -0.230966796666E+04    0.72226E-06   -0.49949E-06  2802   0.309E-03
  60 F= -.23300911E+04 E0= -.23300911E+04  d E =-.949662E-03  mag=     4.0000
       N       E                     dE             d eps       ncg     rms          rms(c)
DAV:   1    -0.230965761572E+04    0.10352E-01   -0.57603E-01  4400   0.648E-01    0.279E-01
RMM:   2    -0.230967024249E+04   -0.12627E-01   -0.11409E-01  6036   0.157E-01    0.586E-01
RMM:   3    -0.230966878844E+04    0.14540E-02   -0.10819E-02  5456   0.527E-02    0.144E-01
RMM:   4    -0.230966872945E+04    0.58987E-04   -0.12264E-03  3872   0.120E-02    0.710E-02
RMM:   5    -0.230966867630E+04    0.53154E-04   -0.16207E-04  3465   0.793E-03    0.781E-02
RMM:   6    -0.230966862992E+04    0.46372E-04   -0.15104E-04  3411   0.834E-03    0.217E-02
RMM:   7    -0.230966862596E+04    0.39635E-05   -0.15636E-05  2853   0.490E-03
  61 F= -.23300918E+04 E0= -.23300918E+04  d E =-.165625E-02  mag=     4.0000
       N       E                     dE             d eps       ncg     rms          rms(c)
DAV:   1    -0.230966565018E+04    0.29797E-02   -0.20781E-01  4416   0.389E-01    0.167E-01
RMM:   2    -0.230967020063E+04   -0.45504E-02   -0.39636E-02  6101   0.935E-02    0.383E-01
RMM:   3    -0.230966949372E+04    0.70690E-03   -0.37567E-03  4496   0.318E-02    0.758E-02
RMM:   4    -0.230966948785E+04    0.58699E-05   -0.45827E-04  3037   0.770E-03    0.435E-02
RMM:   5    -0.230966947273E+04    0.15123E-04   -0.64008E-05  2915   0.529E-03    0.535E-02
RMM:   6    -0.230966945090E+04    0.21832E-04   -0.54159E-05  2921   0.547E-03    0.122E-02
RMM:   7    -0.230966944984E+04    0.10605E-05   -0.69720E-06  2832   0.342E-03
  62 F= -.23300927E+04 E0= -.23300927E+04  d E =-.875620E-03  mag=     4.0000
       N       E                     dE             d eps       ncg     rms          rms(c)
DAV:   1    -0.230966649678E+04    0.29541E-02   -0.17083E-01  4400   0.353E-01    0.151E-01
RMM:   2    -0.230967025067E+04   -0.37539E-02   -0.32708E-02  6083   0.846E-02    0.348E-01
RMM:   3    -0.230966967224E+04    0.57844E-03   -0.30852E-03  4271   0.288E-02    0.691E-02
RMM:   4    -0.230966966585E+04    0.63831E-05   -0.37581E-04  2989   0.710E-03    0.393E-02
RMM:   5    -0.230966965297E+04    0.12883E-04   -0.52640E-05  2896   0.485E-03    0.486E-02
RMM:   6    -0.230966963478E+04    0.18192E-04   -0.45131E-05  2913   0.499E-03    0.111E-02
RMM:   7    -0.230966963385E+04    0.93169E-06   -0.57347E-06  2820   0.312E-03
  63 F= -.23300929E+04 E0= -.23300929E+04  d E =-.110654E-02  mag=     4.0000
       N       E                     dE             d eps       ncg     rms          rms(c)
DAV:   1    -0.230966835122E+04    0.12836E-02   -0.11687E-01  4448   0.296E-01    0.120E-01
RMM:   2    -0.230967063888E+04   -0.22877E-02   -0.20583E-02  6103   0.702E-02    0.257E-01
RMM:   3    -0.230967034700E+04    0.29188E-03   -0.19070E-03  3727   0.230E-02    0.623E-02
RMM:   4    -0.230967033800E+04    0.90052E-05   -0.22546E-04  2943   0.614E-03    0.311E-02
RMM:   5    -0.230967032845E+04    0.95499E-05   -0.33703E-05  2879   0.407E-03
  64 F= -.23300936E+04 E0= -.23300936E+04  d E =-.738874E-03  mag=     4.0000
       N       E                     dE             d eps       ncg     rms          rms(c)
DAV:   1    -0.230966579985E+04    0.45381E-02   -0.29173E-01  4400   0.468E-01    0.192E-01
RMM:   2    -0.230967159153E+04   -0.57917E-02   -0.51309E-02  6123   0.111E-01    0.428E-01
RMM:   3    -0.230967074630E+04    0.84522E-03   -0.47384E-03  4850   0.361E-02    0.947E-02
RMM:   4    -0.230967072503E+04    0.21274E-04   -0.56190E-04  3114   0.874E-03    0.484E-02
RMM:   5    -0.230967070395E+04    0.21078E-04   -0.83907E-05  3046   0.610E-03    0.550E-02
RMM:   6    -0.230967068176E+04    0.22196E-04   -0.58864E-05  2931   0.602E-03    0.135E-02
RMM:   7    -0.230967068049E+04    0.12641E-05   -0.77174E-06  2829   0.382E-03
  65 F= -.23300940E+04 E0= -.23300940E+04  d E =-.116121E-02  mag=     4.0000
       N       E                     dE             d eps       ncg     rms          rms(c)
DAV:   1    -0.230967001200E+04    0.66976E-03   -0.93610E-02  4416   0.267E-01    0.104E-01
RMM:   2    -0.230967163521E+04   -0.16232E-02   -0.14185E-02  6021   0.607E-02    0.227E-01
RMM:   3    -0.230967139825E+04    0.23696E-03   -0.13366E-03  3617   0.212E-02    0.503E-02
RMM:   4    -0.230967139300E+04    0.52448E-05   -0.16329E-04  2937   0.556E-03    0.266E-02
RMM:   5    -0.230967138709E+04    0.59155E-05   -0.28018E-05  2873   0.386E-03
  66 F= -.23300948E+04 E0= -.23300948E+04  d E =-.744441E-03  mag=     4.0000
       N       E                     dE             d eps       ncg     rms          rms(c)
DAV:   1    -0.230966096387E+04    0.10429E-01   -0.76497E-01  4400   0.763E-01    0.300E-01
RMM:   2    -0.230967448533E+04   -0.13521E-01   -0.11634E-01  5993   0.173E-01    0.680E-01
RMM:   3    -0.230967225207E+04    0.22333E-02   -0.11042E-02  5469   0.585E-02    0.138E-01
RMM:   4    -0.230967221540E+04    0.36664E-04   -0.13530E-03  4229   0.132E-02    0.764E-02
RMM:   5    -0.230967217299E+04    0.42413E-04   -0.22569E-04  3893   0.983E-03    0.946E-02
RMM:   6    -0.230967210797E+04    0.65014E-04   -0.15558E-04  3545   0.853E-03    0.209E-02
RMM:   7    -0.230967210509E+04    0.28858E-05   -0.17161E-05  2859   0.514E-03
  67 F= -.23300956E+04 E0= -.23300956E+04  d E =-.157217E-02  mag=     4.0000
       N       E                     dE             d eps       ncg     rms          rms(c)
DAV:   1    -0.230967085960E+04    0.12484E-02   -0.14601E-01  4400   0.317E-01    0.117E-01
RMM:   2    -0.230967304345E+04   -0.21839E-02   -0.20547E-02  5999   0.708E-02    0.220E-01
RMM:   3    -0.230967290673E+04    0.13672E-03   -0.19884E-03  3797   0.242E-02    0.756E-02
RMM:   4    -0.230967288796E+04    0.18767E-04   -0.22291E-04  2971   0.635E-03    0.315E-02
RMM:   5    -0.230967287530E+04    0.12667E-04   -0.38011E-05  2894   0.423E-03    0.266E-02
RMM:   6    -0.230967287147E+04    0.38303E-05   -0.20281E-05  2870   0.402E-03
  68 F= -.23300964E+04 E0= -.23300964E+04  d E =-.806774E-03  mag=     4.0000
       N       E                     dE             d eps       ncg     rms          rms(c)
DAV:   1    -0.230966004546E+04    0.12830E-01   -0.97560E-01  4400   0.820E-01    0.302E-01
RMM:   2    -0.230967473937E+04   -0.14694E-01   -0.13751E-01  5941   0.182E-01    0.580E-01
RMM:   3    -0.230967367031E+04    0.10691E-02   -0.13388E-02  5389   0.596E-02    0.186E-01
RMM:   4    -0.230967356302E+04    0.10729E-03   -0.15076E-03  4305   0.137E-02    0.810E-02
RMM:   5    -0.230967347900E+04    0.84018E-04   -0.24013E-04  3876   0.956E-03    0.743E-02
RMM:   6    -0.230967344533E+04    0.33676E-04   -0.14917E-04  3300   0.858E-03    0.243E-02
RMM:   7    -0.230967344076E+04    0.45617E-05   -0.15191E-05  2849   0.507E-03
  69 F= -.23300971E+04 E0= -.23300971E+04  d E =-.148514E-02  mag=     4.0000
       N       E                     dE             d eps       ncg     rms          rms(c)
DAV:   1    -0.230967251237E+04    0.93295E-03   -0.11208E-01  4560   0.272E-01    0.993E-02
RMM:   2    -0.230967412775E+04   -0.16154E-02   -0.15457E-02  6015   0.591E-02    0.178E-01
RMM:   3    -0.230967406803E+04    0.59714E-04   -0.14826E-03  3535   0.210E-02    0.722E-02
RMM:   4    -0.230967404655E+04    0.21480E-04   -0.16200E-04  2929   0.576E-03    0.268E-02
RMM:   5    -0.230967403574E+04    0.10815E-04   -0.29431E-05  2892   0.365E-03    0.173E-02
RMM:   6    -0.230967403433E+04    0.14141E-05   -0.10956E-05  2846   0.323E-03
  70 F= -.23300977E+04 E0= -.23300977E+04  d E =-.619058E-03  mag=     4.0000
       N       E                     dE             d eps       ncg     rms          rms(c)
DAV:   1    -0.230966254389E+04    0.11492E-01   -0.88467E-01  4400   0.763E-01    0.280E-01
RMM:   2    -0.230967538620E+04   -0.12842E-01   -0.12192E-01  5926   0.165E-01    0.514E-01
RMM:   3    -0.230967474833E+04    0.63787E-03   -0.11774E-02  5367   0.567E-02    0.190E-01
RMM:   4    -0.230967460201E+04    0.14632E-03   -0.12918E-03  3852   0.128E-02    0.747E-02
RMM:   5    -0.230967451314E+04    0.88872E-04   -0.22568E-04  3804   0.896E-03    0.535E-02
RMM:   6    -0.230967449562E+04    0.17515E-04   -0.92058E-05  3088   0.765E-03    0.140E-02
RMM:   7    -0.230967449462E+04    0.10033E-05   -0.12453E-05  2845   0.477E-03
  71 F= -.23300983E+04 E0= -.23300983E+04  d E =-.115535E-02  mag=     4.0000
       N       E                     dE             d eps       ncg     rms          rms(c)
DAV:   1    -0.230967249864E+04    0.19970E-02   -0.20138E-01  4432   0.357E-01    0.128E-01
RMM:   2    -0.230967535049E+04   -0.28518E-02   -0.28828E-02  6045   0.784E-02    0.162E-01
RMM:   3    -0.230967552552E+04   -0.17504E-03   -0.29219E-03  4102   0.282E-02    0.135E-01
RMM:   4    -0.230967543429E+04    0.91230E-04   -0.30577E-04  2994   0.761E-03    0.366E-02
RMM:   5    -0.230967541418E+04    0.20113E-04   -0.51203E-05  2942   0.472E-03    0.198E-02
RMM:   6    -0.230967541232E+04    0.18537E-05   -0.22572E-05  2865   0.417E-03
  72 F= -.23300992E+04 E0= -.23300992E+04  d E =-.920376E-03  mag=     4.0000
       N       E                     dE             d eps       ncg     rms          rms(c)
DAV:   1    -0.230965039171E+04    0.25022E-01   -0.18107E+00  4432   0.107E+00    0.388E-01
RMM:   2    -0.230967631457E+04   -0.25923E-01   -0.26029E-01  5948   0.236E-01    0.521E-01
RMM:   3    -0.230967747270E+04   -0.11581E-02   -0.26927E-02  5551   0.815E-02    0.370E-01
RMM:   4    -0.230967680260E+04    0.67011E-03   -0.27667E-03  4803   0.194E-02    0.111E-01
RMM:   5    -0.230967661035E+04    0.19224E-03   -0.45057E-04  4217   0.121E-02    0.614E-02
RMM:   6    -0.230967658642E+04    0.23938E-04   -0.23209E-04  4002   0.952E-03    0.422E-02
RMM:   7    -0.230967657584E+04    0.10575E-04   -0.30737E-05  2865   0.656E-03    0.109E-02
RMM:   8    -0.230967657559E+04    0.24794E-06   -0.11084E-05  2859   0.304E-03
  73 F= -.23301004E+04 E0= -.23301004E+04  d E =-.210100E-02  mag=     4.0000
       N       E                     dE             d eps       ncg     rms          rms(c)
DAV:   1    -0.230967413144E+04    0.24444E-02   -0.23645E-01  4464   0.391E-01    0.149E-01
RMM:   2    -0.230967762385E+04   -0.34924E-02   -0.36690E-02  5972   0.890E-02    0.104E-01
RMM:   3    -0.230967800118E+04   -0.37733E-03   -0.37643E-03  4379   0.328E-02    0.158E-01
RMM:   4    -0.230967787895E+04    0.12223E-03   -0.39874E-04  3014   0.848E-03    0.441E-02
RMM:   5    -0.230967785206E+04    0.26896E-04   -0.68442E-05  2955   0.538E-03    0.237E-02
RMM:   6    -0.230967784722E+04    0.48319E-05   -0.31004E-05  2894   0.492E-03
  74 F= -.23301016E+04 E0= -.23301016E+04  d E =-.121866E-02  mag=     4.0000
       N       E                     dE             d eps       ncg     rms          rms(c)
DAV:   1    -0.230966623634E+04    0.11616E-01   -0.78301E-01  4416   0.712E-01    0.272E-01
RMM:   2    -0.230967789954E+04   -0.11663E-01   -0.12227E-01  5875   0.162E-01    0.206E-01
RMM:   3    -0.230967916192E+04   -0.12624E-02   -0.12708E-02  5372   0.599E-02    0.301E-01
RMM:   4    -0.230967870504E+04    0.45688E-03   -0.13414E-03  3664   0.144E-02    0.813E-02
RMM:   5    -0.230967861475E+04    0.90294E-04   -0.24427E-04  3673   0.921E-03    0.460E-02
RMM:   6    -0.230967859389E+04    0.20859E-04   -0.11952E-04  3574   0.776E-03    0.172E-02
RMM:   7    -0.230967859200E+04    0.18915E-05   -0.15458E-05  2840   0.559E-03
  75 F= -.23301022E+04 E0= -.23301022E+04  d E =-.187118E-02  mag=     4.0000
       N       E                     dE             d eps       ncg     rms          rms(c)
DAV:   1    -0.230967257019E+04    0.60237E-02   -0.41573E-01  4400   0.506E-01    0.187E-01
RMM:   2    -0.230967890710E+04   -0.63369E-02   -0.66987E-02  6091   0.115E-01    0.995E-02
RMM:   3    -0.230967946217E+04   -0.55506E-03   -0.69583E-03  4679   0.417E-02    0.927E-02
RMM:   4    -0.230967948610E+04   -0.23926E-04   -0.68875E-04  3049   0.903E-03    0.808E-02
RMM:   5    -0.230967942672E+04    0.59372E-04   -0.97464E-05  2959   0.575E-03    0.376E-02
RMM:   6    -0.230967941057E+04    0.16152E-04   -0.74351E-05  3010   0.542E-03    0.106E-02
RMM:   7    -0.230967941122E+04   -0.65293E-06   -0.96991E-06  2832   0.435E-03
  76 F= -.23301030E+04 E0= -.23301030E+04  d E =-.746258E-03  mag=     4.0000
       N       E                     dE             d eps       ncg     rms          rms(c)
DAV:   1    -0.230967847980E+04    0.93078E-03   -0.57166E-02  4608   0.188E-01    0.699E-02
RMM:   2    -0.230967936626E+04   -0.88646E-03   -0.93748E-03  6074   0.434E-02    0.364E-02
RMM:   3    -0.230967943998E+04   -0.73724E-04   -0.95357E-04  3136   0.158E-02    0.234E-02
RMM:   4    -0.230967944618E+04   -0.62023E-05   -0.96786E-05  2913   0.404E-03
  77 F= -.23301030E+04 E0= -.23301030E+04  d E =-.755014E-03  mag=     4.0000
       N       E                     dE             d eps       ncg     rms          rms(c)
DAV:   1    -0.230967656215E+04    0.28778E-02   -0.23082E-01  4400   0.396E-01    0.142E-01
RMM:   2    -0.230968005363E+04   -0.34915E-02   -0.36805E-02  6006   0.884E-02    0.910E-02
RMM:   3    -0.230968041503E+04   -0.36140E-03   -0.38123E-03  4157   0.321E-02    0.143E-01
RMM:   4    -0.230968032299E+04    0.92042E-04   -0.38909E-04  3009   0.800E-03    0.469E-02
RMM:   5    -0.230968029165E+04    0.31345E-04   -0.61660E-05  2943   0.509E-03    0.238E-02
RMM:   6    -0.230968028561E+04    0.60369E-05   -0.32882E-05  2909   0.480E-03
  78 F= -.23301038E+04 E0= -.23301038E+04  d E =-.792035E-03  mag=     4.0000
       N       E                     dE             d eps       ncg     rms          rms(c)
DAV:   1    -0.230967415939E+04    0.61323E-02   -0.39919E-01  4400   0.522E-01    0.191E-01
RMM:   2    -0.230968021312E+04   -0.60537E-02   -0.64237E-02  5848   0.116E-01    0.105E-01
RMM:   3    -0.230968078449E+04   -0.57138E-03   -0.64952E-03  4903   0.445E-02    0.146E-01
RMM:   4    -0.230968072342E+04    0.61072E-04   -0.66189E-04  3059   0.937E-03    0.645E-02
RMM:   5    -0.230968067188E+04    0.51543E-04   -0.90196E-05  2971   0.601E-03    0.322E-02
RMM:   6    -0.230968065904E+04    0.12841E-04   -0.62094E-05  3023   0.590E-03    0.957E-03
RMM:   7    -0.230968065861E+04    0.42707E-06   -0.96248E-06  2828   0.467E-03
  79 F= -.23301041E+04 E0= -.23301041E+04  d E =-.110532E-02  mag=     4.0000
       N       E                     dE             d eps       ncg     rms          rms(c)
DAV:   1    -0.230967973288E+04    0.92615E-03   -0.10832E-01  4448   0.292E-01    0.105E-01
RMM:   2    -0.230968129963E+04   -0.15668E-02   -0.16627E-02  6005   0.636E-02    0.530E-02
RMM:   3    -0.230968145267E+04   -0.15304E-03   -0.16843E-03  3720   0.235E-02    0.820E-02
RMM:   4    -0.230968143020E+04    0.22470E-04   -0.17383E-04  2936   0.596E-03    0.326E-02
RMM:   5    -0.230968141803E+04    0.12168E-04   -0.21267E-05  2868   0.345E-03    0.158E-02
RMM:   6    -0.230968141496E+04    0.30745E-05   -0.15069E-05  2875   0.347E-03
  80 F= -.23301048E+04 E0= -.23301048E+04  d E =-.725861E-03  mag=     4.0000
       N       E                     dE             d eps       ncg     rms          rms(c)
DAV:   1    -0.230967181396E+04    0.96041E-02   -0.66875E-01  4400   0.726E-01    0.260E-01
RMM:   2    -0.230968148769E+04   -0.96737E-02   -0.10261E-01  5896   0.156E-01    0.138E-01
RMM:   3    -0.230968247893E+04   -0.99124E-03   -0.10589E-02  5243   0.567E-02    0.227E-01
RMM:   4    -0.230968227214E+04    0.20679E-03   -0.10787E-03  3407   0.126E-02    0.786E-02
RMM:   5    -0.230968219584E+04    0.76298E-04   -0.14366E-04  3265   0.809E-03    0.402E-02
RMM:   6    -0.230968217322E+04    0.22617E-04   -0.10452E-04  3838   0.784E-03    0.125E-02
RMM:   7    -0.230968217262E+04    0.60048E-06   -0.13161E-05  2839   0.545E-03
  81 F= -.23301055E+04 E0= -.23301055E+04  d E =-.140970E-02  mag=     4.0000
       N       E                     dE             d eps       ncg     rms          rms(c)
DAV:   1    -0.230968001481E+04    0.21584E-02   -0.18911E-01  4480   0.387E-01    0.143E-01
RMM:   2    -0.230968291405E+04   -0.28992E-02   -0.30688E-02  5967   0.866E-02    0.767E-02
RMM:   3    -0.230968323432E+04   -0.32027E-03   -0.31699E-03  4273   0.322E-02    0.138E-01
RMM:   4    -0.230968315187E+04    0.82449E-04   -0.32580E-04  2985   0.776E-03    0.399E-02
RMM:   5    -0.230968313302E+04    0.18852E-04   -0.36576E-05  2880   0.451E-03    0.213E-02
RMM:   6    -0.230968312713E+04    0.58907E-05   -0.25971E-05  2897   0.466E-03
  82 F= -.23301064E+04 E0= -.23301064E+04  d E =-.898729E-03  mag=     4.0000
       N       E                     dE             d eps       ncg     rms          rms(c)
DAV:   1    -0.230967906523E+04    0.40678E-02   -0.26913E-01  4400   0.461E-01    0.171E-01
RMM:   2    -0.230968320690E+04   -0.41417E-02   -0.43758E-02  5918   0.103E-01    0.101E-01
RMM:   3    -0.230968370847E+04   -0.50156E-03   -0.46188E-03  4667   0.385E-02    0.191E-01
RMM:   4    -0.230968353186E+04    0.17660E-03   -0.46691E-04  3043   0.919E-03    0.455E-02
RMM:   5    -0.230968350632E+04    0.25541E-04   -0.65159E-05  2908   0.551E-03    0.253E-02
RMM:   6    -0.230968349716E+04    0.91678E-05   -0.37797E-05  2945   0.553E-03
  83 F= -.23301067E+04 E0= -.23301067E+04  d E =-.120312E-02  mag=     4.0000
       N       E                     dE             d eps       ncg     rms          rms(c)
DAV:   1    -0.230968139571E+04    0.21106E-02   -0.16176E-01  4480   0.362E-01    0.135E-01
RMM:   2    -0.230968401347E+04   -0.26178E-02   -0.27634E-02  6114   0.823E-02    0.664E-02
RMM:   3    -0.230968425846E+04   -0.24500E-03   -0.27358E-03  4257   0.297E-02    0.103E-01
RMM:   4    -0.230968422707E+04    0.31387E-04   -0.28513E-04  2961   0.716E-03    0.400E-02
RMM:   5    -0.230968420822E+04    0.18856E-04   -0.32049E-05  2883   0.428E-03    0.195E-02
RMM:   6    -0.230968420307E+04    0.51471E-05   -0.21073E-05  2884   0.441E-03
  84 F= -.23301074E+04 E0= -.23301074E+04  d E =-.684274E-03  mag=     4.0000
       N       E                     dE             d eps       ncg     rms          rms(c)
DAV:   1    -0.230968213018E+04    0.20780E-02   -0.13022E-01  4416   0.325E-01    0.122E-01
RMM:   2    -0.230968423264E+04   -0.21025E-02   -0.22197E-02  6125   0.733E-02    0.591E-02
RMM:   3    -0.230968442678E+04   -0.19415E-03   -0.21960E-03  3957   0.262E-02    0.888E-02
RMM:   4    -0.230968440494E+04    0.21844E-04   -0.22786E-04  2942   0.655E-03    0.368E-02
RMM:   5    -0.230968438918E+04    0.15760E-04   -0.25956E-05  2872   0.390E-03    0.175E-02
RMM:   6    -0.230968438463E+04    0.45483E-05   -0.17161E-05  2883   0.402E-03
  85 F= -.23301076E+04 E0= -.23301076E+04  d E =-.847235E-03  mag=     4.0000
       N       E                     dE             d eps       ncg     rms          rms(c)
DAV:   1    -0.230968236489E+04    0.20243E-02   -0.14793E-01  4432   0.345E-01    0.128E-01
RMM:   2    -0.230968483114E+04   -0.24662E-02   -0.26176E-02  6135   0.766E-02    0.703E-02
RMM:   3    -0.230968505137E+04   -0.22024E-03   -0.26490E-03  4113   0.282E-02    0.781E-02
RMM:   4    -0.230968503473E+04    0.16645E-04   -0.27003E-04  2944   0.701E-03    0.480E-02
RMM:   5    -0.230968501511E+04    0.19614E-04   -0.36546E-05  2881   0.445E-03    0.204E-02
RMM:   6    -0.230968501082E+04    0.42897E-05   -0.23140E-05  2890   0.407E-03
  86 F= -.23301081E+04 E0= -.23301081E+04  d E =-.578731E-03  mag=     4.0000
       N       E                     dE             d eps       ncg     rms          rms(c)
DAV:   1    -0.230968433551E+04    0.67961E-03   -0.42843E-02  4624   0.185E-01    0.694E-02
RMM:   2    -0.230968505454E+04   -0.71903E-03   -0.76088E-03  6173   0.422E-02    0.440E-02
RMM:   3    -0.230968512243E+04   -0.67891E-04   -0.75338E-04  3159   0.146E-02    0.558E-02
RMM:   4    -0.230968510826E+04    0.14167E-04   -0.82395E-05  2897   0.450E-03    0.239E-02
RMM:   5    -0.230968510291E+04    0.53524E-05   -0.10748E-05  2838   0.256E-03
  87 F= -.23301082E+04 E0= -.23301082E+04  d E =-.645670E-03  mag=     4.0000
       N       E                     dE             d eps       ncg     rms          rms(c)
DAV:   1    -0.230968367222E+04    0.14360E-02   -0.10997E-01  4416   0.299E-01    0.110E-01
RMM:   2    -0.230968564063E+04   -0.19684E-02   -0.20837E-02  6069   0.674E-02    0.524E-02
RMM:   3    -0.230968579188E+04   -0.15125E-03   -0.20401E-03  3681   0.233E-02    0.326E-02
RMM:   4    -0.230968580819E+04   -0.16310E-04   -0.20538E-04  2911   0.589E-03    0.478E-02
RMM:   5    -0.230968579241E+04    0.15787E-04   -0.22777E-05  2841   0.350E-03    0.212E-02
RMM:   6    -0.230968578868E+04    0.37215E-05   -0.15703E-05  2868   0.314E-03
  88 F= -.23301088E+04 E0= -.23301088E+04  d E =-.610870E-03  mag=     4.0000
       N       E                     dE             d eps       ncg     rms          rms(c)
DAV:   1    -0.230968235141E+04    0.34410E-02   -0.19821E-01  4400   0.401E-01    0.148E-01
RMM:   2    -0.230968589291E+04   -0.35415E-02   -0.37396E-02  5927   0.895E-02    0.790E-02
RMM:   3    -0.230968618944E+04   -0.29653E-03   -0.36868E-03  4366   0.335E-02    0.785E-02
RMM:   4    -0.230968618313E+04    0.63074E-05   -0.37511E-04  2987   0.746E-03    0.562E-02
RMM:   5    -0.230968615547E+04    0.27656E-04   -0.47555E-05  2865   0.504E-03    0.250E-02
RMM:   6    -0.230968614930E+04    0.61735E-05   -0.31609E-05  2948   0.450E-03
  89 F= -.23301091E+04 E0= -.23301091E+04  d E =-.872352E-03  mag=     4.0000
       N       E                     dE             d eps       ncg     rms          rms(c)
DAV:   1    -0.230968360637E+04    0.25491E-02   -0.16743E-01  4424   0.369E-01    0.135E-01
RMM:   2    -0.230968677272E+04   -0.31663E-02   -0.33133E-02  6140   0.836E-02    0.866E-02
RMM:   3    -0.230968706309E+04   -0.29037E-03   -0.32375E-03  4198   0.301E-02    0.107E-01
RMM:   4    -0.230968701155E+04    0.51536E-04   -0.33564E-04  2978   0.748E-03    0.455E-02
RMM:   5    -0.230968699038E+04    0.21178E-04   -0.39200E-05  2892   0.443E-03    0.214E-02
RMM:   6    -0.230968698563E+04    0.47505E-05   -0.26196E-05  2906   0.418E-03
  90 F= -.23301098E+04 E0= -.23301098E+04  d E =-.740211E-03  mag=     4.0000
       N       E                     dE             d eps       ncg     rms          rms(c)
DAV:   1    -0.230967477415E+04    0.12216E-01   -0.63917E-01  4400   0.721E-01    0.263E-01
RMM:   2    -0.230968682982E+04   -0.12056E-01   -0.12613E-01  6040   0.163E-01    0.169E-01
RMM:   3    -0.230968803015E+04   -0.12003E-02   -0.13148E-02  5386   0.608E-02    0.217E-01
RMM:   4    -0.230968780289E+04    0.22726E-03   -0.13029E-03  3345   0.134E-02    0.876E-02
RMM:   5    -0.230968772164E+04    0.81245E-04   -0.14823E-04  3115   0.793E-03    0.425E-02
RMM:   6    -0.230968769763E+04    0.24016E-04   -0.11611E-04  3804   0.772E-03    0.175E-02
RMM:   7    -0.230968769636E+04    0.12654E-05   -0.13933E-05  2842   0.555E-03
  91 F= -.23301103E+04 E0= -.23301103E+04  d E =-.126717E-02  mag=     4.0000
       N       E                     dE             d eps       ncg     rms          rms(c)
DAV:   1    -0.230968280964E+04    0.48880E-02   -0.28996E-01  4440   0.486E-01    0.180E-01
RMM:   2    -0.230968833175E+04   -0.55221E-02   -0.58123E-02  6059   0.112E-01    0.971E-02
RMM:   3    -0.230968877521E+04   -0.44347E-03   -0.54732E-03  4700   0.389E-02    0.939E-02
RMM:   4    -0.230968876428E+04    0.10931E-04   -0.56713E-04  3029   0.868E-03    0.668E-02
RMM:   5    -0.230968872422E+04    0.40065E-04   -0.71617E-05  2897   0.583E-03    0.329E-02
RMM:   6    -0.230968871337E+04    0.10844E-04   -0.51679E-05  3054   0.525E-03    0.184E-02
RMM:   7    -0.230968871200E+04    0.13749E-05   -0.96108E-06  2824   0.452E-03
  92 F= -.23301113E+04 E0= -.23301113E+04  d E =-.960146E-03  mag=     4.0000
       N       E                     dE             d eps       ncg     rms          rms(c)
DAV:   1    -0.230968069560E+04    0.80178E-02   -0.41520E-01  4400   0.581E-01    0.215E-01
RMM:   2    -0.230968859302E+04   -0.78974E-02   -0.83047E-02  6092   0.135E-01    0.119E-01
RMM:   3    -0.230968924341E+04   -0.65039E-03   -0.78684E-03  5077   0.461E-02    0.123E-01
RMM:   4    -0.230968920729E+04    0.36124E-04   -0.81469E-04  3105   0.103E-02    0.782E-02
RMM:   5    -0.230968914905E+04    0.58242E-04   -0.10116E-04  2926   0.684E-03    0.377E-02
RMM:   6    -0.230968913334E+04    0.15705E-04   -0.76236E-05  3308   0.625E-03    0.202E-02
RMM:   7    -0.230968913134E+04    0.20011E-05   -0.12703E-05  2829   0.513E-03
  93 F= -.23301117E+04 E0= -.23301117E+04  d E =-.131636E-02  mag=     4.0000
       N       E                     dE             d eps       ncg     rms          rms(c)
DAV:   1    -0.230968394276E+04    0.51906E-02   -0.31640E-01  4416   0.507E-01    0.185E-01
RMM:   2    -0.230968977886E+04   -0.58361E-02   -0.61425E-02  6051   0.116E-01    0.101E-01
RMM:   3    -0.230969024118E+04   -0.46232E-03   -0.58124E-03  4808   0.403E-02    0.944E-02
RMM:   4    -0.230969023196E+04    0.92182E-05   -0.59225E-04  3028   0.893E-03    0.711E-02
RMM:   5    -0.230969018875E+04    0.43211E-04   -0.79753E-05  2911   0.603E-03    0.350E-02
RMM:   6    -0.230969017683E+04    0.11924E-04   -0.54941E-05  3038   0.539E-03    0.181E-02
RMM:   7    -0.230969017581E+04    0.10117E-05   -0.10359E-05  2832   0.465E-03
  94 F= -.23301126E+04 E0= -.23301126E+04  d E =-.964816E-03  mag=     4.0000
       N       E                     dE             d eps       ncg     rms          rms(c)
DAV:   1    -0.230968600837E+04    0.41685E-02   -0.22687E-01  4432   0.430E-01    0.157E-01
RMM:   2    -0.230969018670E+04   -0.41783E-02   -0.44006E-02  6095   0.984E-02    0.857E-02
RMM:   3    -0.230969053991E+04   -0.35321E-03   -0.43993E-03  4405   0.348E-02    0.813E-02
RMM:   4    -0.230969053245E+04    0.74615E-05   -0.43151E-04  2999   0.790E-03    0.603E-02
RMM:   5    -0.230969050153E+04    0.30924E-04   -0.56409E-05  2897   0.518E-03    0.291E-02
RMM:   6    -0.230969049239E+04    0.91367E-05   -0.40113E-05  2946   0.467E-03
  95 F= -.23301129E+04 E0= -.23301129E+04  d E =-.121560E-02  mag=     4.0000
[...]
RMM:   3    -0.230977567267E+04   -0.85078E-03   -0.87726E-03  5257   0.543E-02    0.189E-01
RMM:   4    -0.230977548488E+04    0.18778E-03   -0.87559E-04  3313   0.120E-02    0.677E-02
RMM:   5    -0.230977543576E+04    0.49123E-04   -0.12529E-04  3228   0.769E-03    0.357E-02
RMM:   6    -0.230977542561E+04    0.10151E-04   -0.61943E-05  3145   0.696E-03    0.998E-03
RMM:   7    -0.230977542622E+04   -0.61089E-06   -0.10035E-05  2830   0.521E-03
 175 F= -.23302129E+04 E0= -.23302129E+04  d E =-.130846E-02  mag=     4.0000
       N       E                     dE             d eps       ncg     rms          rms(c)
DAV:   1    -0.230977129714E+04    0.41285E-02   -0.29351E-01  4448   0.496E-01    0.169E-01
RMM:   2    -0.230977580113E+04   -0.45040E-02   -0.47520E-02  5965   0.103E-01    0.113E-01
RMM:   3    -0.230977629316E+04   -0.49203E-03   -0.50213E-03  4723   0.427E-02    0.144E-01
RMM:   4    -0.230977618410E+04    0.10906E-03   -0.50365E-04  3057   0.961E-03    0.510E-02
RMM:   5    -0.230977615530E+04    0.28797E-04   -0.71041E-05  2946   0.610E-03    0.266E-02
RMM:   6    -0.230977614968E+04    0.56238E-05   -0.35071E-05  2888   0.570E-03
 176 F= -.23302132E+04 E0= -.23302132E+04  d E =-.157355E-02  mag=     4.0000
       N       E                     dE             d eps       ncg     rms          rms(c)
DAV:   1    -0.230976995797E+04    0.61973E-02   -0.50528E-01  4416   0.651E-01    0.215E-01
RMM:   2    -0.230977732809E+04   -0.73701E-02   -0.78636E-02  5872   0.133E-01    0.115E-01
RMM:   3    -0.230977800272E+04   -0.67463E-03   -0.80961E-03  5183   0.511E-02    0.974E-02
RMM:   4    -0.230977804919E+04   -0.46476E-04   -0.84193E-04  3203   0.110E-02    0.934E-02
RMM:   5    -0.230977796311E+04    0.86084E-04   -0.11690E-04  3097   0.723E-03    0.356E-02
RMM:   6    -0.230977795114E+04    0.11966E-04   -0.65049E-05  3235   0.674E-03    0.857E-03
RMM:   7    -0.230977795128E+04   -0.13888E-06   -0.89662E-06  2828   0.498E-03
 177 F= -.23302144E+04 E0= -.23302144E+04  d E =-.125880E-02  mag=     4.0000
       N       E                     dE             d eps       ncg     rms          rms(c)
DAV:   1    -0.230977344511E+04    0.45060E-02   -0.30084E-01  4408   0.503E-01    0.166E-01
RMM:   2    -0.230977785749E+04   -0.44124E-02   -0.47016E-02  5950   0.103E-01    0.879E-02
RMM:   3    -0.230977824785E+04   -0.39036E-03   -0.47836E-03  4705   0.397E-02    0.677E-02
RMM:   4    -0.230977828780E+04   -0.39942E-04   -0.50545E-04  3018   0.895E-03    0.772E-02
RMM:   5    -0.230977823101E+04    0.56785E-04   -0.73402E-05  2909   0.591E-03    0.275E-02
RMM:   6    -0.230977822318E+04    0.78295E-05   -0.41364E-05  2929   0.545E-03
 178 F= -.23302143E+04 E0= -.23302143E+04  d E =-.110915E-02  mag=     4.0000
       N       E                     dE             d eps       ncg     rms          rms(c)
DAV:   1    -0.230977652095E+04    0.17101E-02   -0.10494E-01  4480   0.297E-01    0.965E-02
RMM:   2    -0.230977805381E+04   -0.15329E-02   -0.16280E-02  6207   0.629E-02    0.530E-02
RMM:   3    -0.230977819587E+04   -0.14207E-03   -0.17134E-03  3620   0.234E-02    0.504E-02
RMM:   4    -0.230977819837E+04   -0.24923E-05   -0.17011E-04  2934   0.609E-03    0.391E-02
RMM:   5    -0.230977818263E+04    0.15738E-04   -0.24295E-05  2883   0.370E-03    0.163E-02
RMM:   6    -0.230977817986E+04    0.27696E-05   -0.14144E-05  2852   0.347E-03
 179 F= -.23302145E+04 E0= -.23302145E+04  d E =-.131437E-02  mag=     4.0000
       N       E                     dE             d eps       ncg     rms          rms(c)
DAV:   1    -0.230977256387E+04    0.56188E-02   -0.45980E-01  4408   0.620E-01    0.201E-01
RMM:   2    -0.230977942096E+04   -0.68571E-02   -0.72648E-02  5967   0.127E-01    0.111E-01
RMM:   3    -0.230978006310E+04   -0.64213E-03   -0.75612E-03  5129   0.501E-02    0.101E-01
RMM:   4    -0.230978008477E+04   -0.21675E-04   -0.75211E-04  3120   0.107E-02    0.858E-02
RMM:   5    -0.230978001154E+04    0.73227E-04   -0.94312E-05  2993   0.666E-03    0.358E-02
RMM:   6    -0.230977999576E+04    0.15789E-04   -0.69681E-05  3366   0.680E-03    0.997E-03
RMM:   7    -0.230977999575E+04    0.97498E-08   -0.91737E-06  2833   0.494E-03
 180 F= -.23302158E+04 E0= -.23302158E+04  d E =-.135322E-02  mag=     4.0000
       N       E                     dE             d eps       ncg     rms          rms(c)
DAV:   1    -0.230976701818E+04    0.12978E-01   -0.86949E-01  4400   0.853E-01    0.278E-01
RMM:   2    -0.230978001548E+04   -0.12997E-01   -0.13794E-01  5934   0.174E-01    0.152E-01
RMM:   3    -0.230978121263E+04   -0.11972E-02   -0.14259E-02  5353   0.697E-02    0.126E-01
RMM:   4    -0.230978129105E+04   -0.78420E-04   -0.14307E-03  3695   0.144E-02    0.125E-01
RMM:   5    -0.230978114553E+04    0.14553E-03   -0.18969E-04  3311   0.893E-03    0.512E-02
RMM:   6    -0.230978111389E+04    0.31631E-04   -0.13921E-04  4004   0.849E-03    0.160E-02
RMM:   7    -0.230978111252E+04    0.13742E-05   -0.17443E-05  2843   0.633E-03
 181 F= -.23302163E+04 E0= -.23302163E+04  d E =-.182635E-02  mag=     4.0000
       N       E                     dE             d eps       ncg     rms          rms(c)
DAV:   1    -0.230977241081E+04    0.87031E-02   -0.64638E-01  4400   0.729E-01    0.236E-01
RMM:   2    -0.230978228284E+04   -0.98720E-02   -0.10432E-01  5956   0.149E-01    0.127E-01
RMM:   3    -0.230978314035E+04   -0.85751E-03   -0.10375E-02  5260   0.578E-02    0.773E-02
RMM:   4    -0.230978317374E+04   -0.33390E-04   -0.97851E-04  3544   0.120E-02    0.652E-02
RMM:   5    -0.230978317932E+04   -0.55776E-05   -0.13800E-04  3017   0.768E-03    0.830E-02
RMM:   6    -0.230978312354E+04    0.55780E-04   -0.94322E-05  3158   0.693E-03    0.188E-02
RMM:   7    -0.230978312232E+04    0.12229E-05   -0.18250E-05  2876   0.467E-03
 182 F= -.23302178E+04 E0= -.23302178E+04  d E =-.149734E-02  mag=     4.0000
       N       E                     dE             d eps       ncg     rms          rms(c)
DAV:   1    -0.230976377894E+04    0.19345E-01   -0.12465E+00  4400   0.101E+00    0.328E-01
RMM:   2    -0.230978280312E+04   -0.19024E-01   -0.20093E-01  5917   0.207E-01    0.178E-01
RMM:   3    -0.230978453827E+04   -0.17352E-02   -0.20984E-02  5367   0.821E-02    0.109E-01
RMM:   4    -0.230978461067E+04   -0.72405E-04   -0.19305E-03  4298   0.166E-02    0.959E-02
RMM:   5    -0.230978460108E+04    0.95903E-05   -0.25573E-04  3259   0.968E-03    0.109E-01
RMM:   6    -0.230978450185E+04    0.99232E-04   -0.18547E-04  3964   0.881E-03    0.268E-02
RMM:   7    -0.230978449842E+04    0.34338E-05   -0.32921E-05  2894   0.596E-03
 183 F= -.23302185E+04 E0= -.23302185E+04  d E =-.214957E-02  mag=     4.0000
       N       E                     dE             d eps       ncg     rms          rms(c)
DAV:   1    -0.230977989173E+04    0.46101E-02   -0.42092E-01  4416   0.610E-01    0.210E-01
RMM:   2    -0.230978596044E+04   -0.60687E-02   -0.64507E-02  5900   0.125E-01    0.104E-01
RMM:   3    -0.230978644903E+04   -0.48858E-03   -0.63703E-03  5194   0.481E-02    0.632E-02
RMM:   4    -0.230978645470E+04   -0.56735E-05   -0.61505E-04  3682   0.108E-02    0.475E-02
RMM:   5    -0.230978645068E+04    0.40156E-05   -0.11738E-04  3113   0.846E-03    0.534E-02
RMM:   6    -0.230978642978E+04    0.20901E-04   -0.47855E-05  2921   0.613E-03    0.248E-02
RMM:   7    -0.230978642552E+04    0.42592E-05   -0.95544E-06  2832   0.426E-03
 184 F= -.23302199E+04 E0= -.23302199E+04  d E =-.146094E-02  mag=     4.0000
       N       E                     dE             d eps       ncg     rms          rms(c)
DAV:   1    -0.230978431605E+04    0.21137E-02   -0.16887E-01  4512   0.387E-01    0.133E-01
RMM:   2    -0.230978676834E+04   -0.24523E-02   -0.25986E-02  5831   0.799E-02    0.691E-02
RMM:   3    -0.230978696325E+04   -0.19491E-03   -0.25050E-03  4378   0.300E-02    0.518E-02
RMM:   4    -0.230978696789E+04   -0.46424E-05   -0.25973E-04  2971   0.735E-03    0.472E-02
RMM:   5    -0.230978694875E+04    0.19140E-04   -0.53999E-05  2885   0.561E-03    0.269E-02
RMM:   6    -0.230978694192E+04    0.68329E-05   -0.24847E-05  2886   0.478E-03
 185 F= -.23302201E+04 E0= -.23302201E+04  d E =-.167961E-02  mag=     4.0000
       N       E                     dE             d eps       ncg     rms          rms(c)
DAV:   1    -0.230978147907E+04    0.54697E-02   -0.44982E-01  4408   0.621E-01    0.211E-01
RMM:   2    -0.230978800424E+04   -0.65252E-02   -0.69098E-02  5951   0.128E-01    0.110E-01
RMM:   3    -0.230978859600E+04   -0.59175E-03   -0.72319E-03  5114   0.486E-02    0.117E-01
RMM:   4    -0.230978858007E+04    0.15924E-04   -0.70478E-04  3082   0.106E-02    0.753E-02
RMM:   5    -0.230978851959E+04    0.60481E-04   -0.10296E-04  3101   0.703E-03    0.321E-02
RMM:   6    -0.230978851038E+04    0.92141E-05   -0.50635E-05  3000   0.663E-03
 186 F= -.23302212E+04 E0= -.23302212E+04  d E =-.110779E-02  mag=     4.0000
       N       E                     dE             d eps       ncg     rms          rms(c)
DAV:   1    -0.230978446964E+04    0.40500E-02   -0.26454E-01  4448   0.476E-01    0.162E-01
RMM:   2    -0.230978831071E+04   -0.38411E-02   -0.40707E-02  6132   0.993E-02    0.851E-02
RMM:   3    -0.230978866851E+04   -0.35781E-03   -0.43654E-03  4692   0.376E-02    0.889E-02
RMM:   4    -0.230978866386E+04    0.46525E-05   -0.42106E-04  2982   0.862E-03    0.590E-02
RMM:   5    -0.230978862828E+04    0.35575E-04   -0.62881E-05  2936   0.545E-03    0.254E-02
RMM:   6    -0.230978862238E+04    0.59048E-05   -0.29531E-05  2889   0.519E-03
 187 F= -.23302210E+04 E0= -.23302210E+04  d E =-.863595E-03  mag=     4.0000
       N       E                     dE             d eps       ncg     rms          rms(c)
DAV:   1    -0.230978685640E+04    0.17719E-02   -0.11661E-01  4432   0.315E-01    0.106E-01
RMM:   2    -0.230978853453E+04   -0.16781E-02   -0.17730E-02  6184   0.664E-02    0.533E-02
RMM:   3    -0.230978867257E+04   -0.13804E-03   -0.17998E-03  3792   0.251E-02    0.473E-02
RMM:   4    -0.230978868125E+04   -0.86830E-05   -0.18028E-04  2922   0.628E-03    0.439E-02
RMM:   5    -0.230978866094E+04    0.20313E-04   -0.26780E-05  2879   0.389E-03    0.159E-02
RMM:   6    -0.230978865827E+04    0.26707E-05   -0.13700E-05  2863   0.370E-03
 188 F= -.23302213E+04 E0= -.23302213E+04  d E =-.113482E-02  mag=     4.0000
       N       E                     dE             d eps       ncg     rms          rms(c)
DAV:   1    -0.230978692287E+04    0.17381E-02   -0.17679E-01  4408   0.391E-01    0.132E-01
RMM:   2    -0.230978958116E+04   -0.26583E-02   -0.28034E-02  6118   0.826E-02    0.632E-02
RMM:   3    -0.230978980618E+04   -0.22503E-03   -0.28532E-03  4211   0.308E-02    0.386E-02
RMM:   4    -0.230978982493E+04   -0.18750E-04   -0.27098E-04  2917   0.726E-03    0.442E-02
RMM:   5    -0.230978981043E+04    0.14503E-04   -0.34470E-05  2863   0.464E-03    0.278E-02
RMM:   6    -0.230978980518E+04    0.52521E-05   -0.21742E-05  2865   0.390E-03
 189 F= -.23302222E+04 E0= -.23302222E+04  d E =-.891912E-03  mag=     4.0000
       N       E                     dE             d eps       ncg     rms          rms(c)
DAV:   1    -0.230977881338E+04    0.10997E-01   -0.73872E-01  4400   0.798E-01    0.272E-01
RMM:   2    -0.230978994445E+04   -0.11131E-01   -0.11760E-01  5943   0.166E-01    0.130E-01
RMM:   3    -0.230979088085E+04   -0.93640E-03   -0.11918E-02  5275   0.602E-02    0.843E-02
RMM:   4    -0.230979099149E+04   -0.11064E-03   -0.11853E-03  3764   0.137E-02    0.108E-01
RMM:   5    -0.230979089145E+04    0.10004E-03   -0.16259E-04  3099   0.864E-03    0.485E-02
RMM:   6    -0.230979087599E+04    0.15459E-04   -0.87818E-05  3683   0.693E-03    0.190E-02
RMM:   7    -0.230979087406E+04    0.19335E-05   -0.11452E-05  2844   0.514E-03
 190 F= -.23302227E+04 E0= -.23302227E+04  d E =-.143421E-02  mag=     4.0000
       N       E                     dE             d eps       ncg     rms          rms(c)
DAV:   1    -0.230978754580E+04    0.33302E-02   -0.26741E-01  4408   0.473E-01    0.160E-01
RMM:   2    -0.230979177917E+04   -0.42334E-02   -0.44465E-02  6001   0.100E-01    0.786E-02
RMM:   3    -0.230979215050E+04   -0.37134E-03   -0.46183E-03  4516   0.376E-02    0.534E-02
RMM:   4    -0.230979219527E+04   -0.44763E-04   -0.44482E-04  2942   0.851E-03    0.680E-02
RMM:   5    -0.230979215457E+04    0.40692E-04   -0.56817E-05  2895   0.526E-03    0.277E-02
RMM:   6    -0.230979214901E+04    0.55601E-05   -0.34736E-05  2887   0.478E-03
 191 F= -.23302237E+04 E0= -.23302237E+04  d E =-.100197E-02  mag=     4.0000
       N       E                     dE             d eps       ncg     rms          rms(c)
DAV:   1    -0.230977124391E+04    0.20911E-01   -0.13048E+00  4400   0.105E+00    0.353E-01
RMM:   2    -0.230979190435E+04   -0.20660E-01   -0.21694E-01  5906   0.221E-01    0.176E-01
RMM:   3    -0.230979371768E+04   -0.18133E-02   -0.22412E-02  5457   0.786E-02    0.147E-01
RMM:   4    -0.230979385789E+04   -0.14021E-03   -0.21637E-03  3926   0.169E-02    0.140E-01
RMM:   5    -0.230979367158E+04    0.18630E-03   -0.27531E-04  3735   0.101E-02    0.591E-02
RMM:   6    -0.230979363849E+04    0.33091E-04   -0.15852E-04  4047   0.906E-03    0.213E-02
RMM:   7    -0.230979363628E+04    0.22164E-05   -0.24371E-05  2842   0.687E-03
 192 F= -.23302246E+04 E0= -.23302246E+04  d E =-.187746E-02  mag=     4.0000
       N       E                     dE             d eps       ncg     rms          rms(c)
DAV:   1    -0.230979054121E+04    0.30973E-02   -0.29464E-01  4440   0.519E-01    0.180E-01
RMM:   2    -0.230979485336E+04   -0.43121E-02   -0.45695E-02  5921   0.108E-01    0.856E-02
RMM:   3    -0.230979516274E+04   -0.30937E-03   -0.44344E-03  5011   0.415E-02    0.503E-02
RMM:   4    -0.230979516523E+04   -0.24927E-05   -0.41565E-04  3366   0.919E-03    0.324E-02
RMM:   5    -0.230979515168E+04    0.13547E-04   -0.54022E-05  3059   0.691E-03    0.994E-03
RMM:   6    -0.230979515274E+04   -0.10613E-05   -0.12004E-05  2857   0.476E-03
 193 F= -.23302258E+04 E0= -.23302258E+04  d E =-.122722E-02  mag=     4.0000
       N       E                     dE             d eps       ncg     rms          rms(c)
DAV:   1    -0.230979114210E+04    0.40096E-02   -0.29871E-01  4464   0.522E-01    0.181E-01
RMM:   2    -0.230979550525E+04   -0.43631E-02   -0.46154E-02  6014   0.109E-01    0.880E-02
RMM:   3    -0.230979582610E+04   -0.32086E-03   -0.45419E-03  5058   0.400E-02    0.566E-02
RMM:   4    -0.230979584039E+04   -0.14290E-04   -0.43783E-04  3190   0.908E-03    0.570E-02
RMM:   5    -0.230979582085E+04    0.19544E-04   -0.87330E-05  2897   0.678E-03    0.401E-02
RMM:   6    -0.230979580651E+04    0.14345E-04   -0.35159E-05  2969   0.549E-03    0.141E-02
RMM:   7    -0.230979580558E+04    0.92176E-06   -0.73062E-06  2826   0.430E-03
 194 F= -.23302262E+04 E0= -.23302262E+04  d E =-.158585E-02  mag=     4.0000
       N       E                     dE             d eps       ncg     rms          rms(c)
DAV:   1    -0.230979127437E+04    0.45321E-02   -0.37283E-01  4400   0.572E-01    0.188E-01
RMM:   2    -0.230979664245E+04   -0.53681E-02   -0.56595E-02  5985   0.118E-01    0.116E-01
RMM:   3    -0.230979704261E+04   -0.40016E-03   -0.52709E-03  5173   0.430E-02    0.103E-01
RMM:   4    -0.230979700189E+04    0.40720E-04   -0.54723E-04  3037   0.101E-02    0.624E-02
RMM:   5    -0.230979695956E+04    0.42334E-04   -0.10418E-04  3019   0.718E-03    0.327E-02
RMM:   6    -0.230979695140E+04    0.81559E-05   -0.50455E-05  3005   0.617E-03
 195 F= -.23302270E+04 E0= -.23302270E+04  d E =-.844695E-03  mag=     4.0000
       N       E                     dE             d eps       ncg     rms          rms(c)
DAV:   1    -0.230979669850E+04    0.26106E-03   -0.19880E-02  4688   0.132E-01    0.451E-02
RMM:   2    -0.230979698952E+04   -0.29103E-03   -0.30839E-03  5973   0.294E-02    0.296E-02
RMM:   3    -0.230979701484E+04   -0.25311E-04   -0.30614E-04  2944   0.107E-02    0.302E-02
RMM:   4    -0.230979700978E+04    0.50592E-05   -0.32928E-05  2880   0.338E-03
 196 F= -.23302270E+04 E0= -.23302270E+04  d E =-.832760E-03  mag=     4.0000
       N       E                     dE             d eps       ncg     rms          rms(c)
DAV:   1    -0.230979519562E+04    0.18192E-02   -0.18547E-01  4408   0.406E-01    0.130E-01
RMM:   2    -0.230979776935E+04   -0.25737E-02   -0.27218E-02  5977   0.822E-02    0.762E-02
RMM:   3    -0.230979796059E+04   -0.19124E-03   -0.25828E-03  4351   0.303E-02    0.646E-02
RMM:   4    -0.230979795277E+04    0.78184E-05   -0.26592E-04  2959   0.741E-03    0.467E-02
RMM:   5    -0.230979793088E+04    0.21889E-04   -0.55714E-05  2859   0.547E-03    0.251E-02
RMM:   6    -0.230979792575E+04    0.51316E-05   -0.25494E-05  2896   0.473E-03
 197 F= -.23302277E+04 E0= -.23302277E+04  d E =-.732885E-03  mag=     4.0000
       N       E                     dE             d eps       ncg     rms          rms(c)
DAV:   1    -0.230979298585E+04    0.49450E-02   -0.37044E-01  4400   0.573E-01    0.185E-01
RMM:   2    -0.230979811783E+04   -0.51320E-02   -0.54468E-02  5785   0.116E-01    0.101E-01
RMM:   3    -0.230979848962E+04   -0.37179E-03   -0.50898E-03  5056   0.448E-02    0.754E-02
RMM:   4    -0.230979849703E+04   -0.74096E-05   -0.51815E-04  3149   0.946E-03    0.650E-02
RMM:   5    -0.230979846039E+04    0.36643E-04   -0.10068E-04  2916   0.700E-03    0.392E-02
RMM:   6    -0.230979844705E+04    0.13342E-04   -0.48782E-05  3038   0.591E-03    0.174E-02
RMM:   7    -0.230979844486E+04    0.21922E-05   -0.87250E-06  2830   0.468E-03
 198 F= -.23302280E+04 E0= -.23302280E+04  d E =-.991400E-03  mag=     4.0000
       N       E                     dE             d eps       ncg     rms          rms(c)
DAV:   1    -0.230979764852E+04    0.79852E-03   -0.12394E-01  4440   0.344E-01    0.111E-01
RMM:   2    -0.230979920029E+04   -0.15518E-02   -0.16368E-02  5967   0.682E-02    0.666E-02
RMM:   3    -0.230979932181E+04   -0.12153E-03   -0.15433E-03  4102   0.262E-02    0.682E-02
RMM:   4    -0.230979929506E+04    0.26751E-04   -0.16055E-04  2940   0.665E-03    0.327E-02
RMM:   5    -0.230979928299E+04    0.12077E-04   -0.33173E-05  2853   0.474E-03    0.168E-02
RMM:   6    -0.230979928138E+04    0.16103E-05   -0.15864E-05  2864   0.416E-03
 199 F= -.23302287E+04 E0= -.23302287E+04  d E =-.731580E-03  mag=     4.0000
       N       E                     dE             d eps       ncg     rms          rms(c)
DAV:   1    -0.230979242124E+04    0.68617E-02   -0.57427E-01  4400   0.741E-01    0.238E-01
RMM:   2    -0.230979959483E+04   -0.71736E-02   -0.75870E-02  5825   0.146E-01    0.131E-01
RMM:   3    -0.230980013042E+04   -0.53558E-03   -0.71698E-03  5274   0.547E-02    0.124E-01
RMM:   4    -0.230980006871E+04    0.61704E-04   -0.74049E-04  3724   0.123E-02    0.750E-02
RMM:   5    -0.230980000965E+04    0.59060E-04   -0.15452E-04  3514   0.928E-03    0.387E-02
RMM:   6    -0.230979999874E+04    0.10914E-04   -0.73465E-05  3619   0.718E-03    0.181E-02
RMM:   7    -0.230979999617E+04    0.25716E-05   -0.10856E-05  2839   0.530E-03
 200 F= -.23302292E+04 E0= -.23302292E+04  d E =-.121702E-02  mag=     4.0000
       N       E                     dE             d eps       ncg     rms          rms(c)
DAV:   1    -0.230979785185E+04    0.21469E-02   -0.23547E-01  4440   0.470E-01    0.143E-01
RMM:   2    -0.230980071766E+04   -0.28658E-02   -0.30264E-02  6013   0.920E-02    0.884E-02
RMM:   3    -0.230980094091E+04   -0.22325E-03   -0.28986E-03  4781   0.336E-02    0.842E-02
RMM:   4    -0.230980090456E+04    0.36353E-04   -0.29697E-04  2974   0.815E-03    0.455E-02
RMM:   5    -0.230980088197E+04    0.22592E-04   -0.60044E-05  2886   0.595E-03    0.228E-02
RMM:   6    -0.230980087932E+04    0.26467E-05   -0.28852E-05  2882   0.518E-03
 201 F= -.23302300E+04 E0= -.23302300E+04  d E =-.734556E-03  mag=     4.0000
