       N       E                     dE             d eps       ncg     rms          rms(c)
DAV:   1     0.124738861033E+05    0.12474E+05   -0.82183E+05  4416   0.143E+03
DAV:   2    -0.110668407084E+04   -0.13581E+05   -0.13041E+05  5376   0.329E+02
DAV:   3    -0.248127114257E+04   -0.13746E+04   -0.13636E+04  5272   0.108E+02
DAV:   4    -0.251926596353E+04   -0.37995E+02   -0.37831E+02  6360   0.251E+01
DAV:   5    -0.251997302129E+04   -0.70706E+00   -0.70616E+00  5480   0.283E+00    0.171E+02
RMM:   6    -0.147566522502E+04    0.10443E+04   -0.19627E+03  4363   0.391E+01    0.740E+01
RMM:   7    -0.163308010053E+04   -0.15741E+03   -0.27735E+02  4895   0.139E+01    0.536E+01
RMM:   8    -0.168712457924E+04   -0.54044E+02   -0.72217E+01  4944   0.743E+00    0.393E+01
RMM:   9    -0.179979371150E+04   -0.11267E+03   -0.58700E+01  4718   0.764E+00    0.267E+01
RMM:  10    -0.194646017406E+04   -0.14667E+03   -0.57730E+01  4696   0.698E+00    0.176E+01
RMM:  11    -0.207069638939E+04   -0.12424E+03   -0.63812E+01  4510   0.627E+00    0.135E+01
RMM:  12    -0.220893105483E+04   -0.13823E+03   -0.11156E+02  4501   0.783E+00    0.827E+00
RMM:  13    -0.228906175082E+04   -0.80131E+02   -0.75454E+01  4477   0.598E+00    0.531E+00
RMM:  14    -0.230497830359E+04   -0.15917E+02   -0.16634E+01  4847   0.348E+00    0.485E+00
RMM:  15    -0.230686871183E+04   -0.18904E+01   -0.34473E+00  5482   0.124E+00    0.500E+00
RMM:  16    -0.230790786228E+04   -0.10392E+01   -0.54856E-01  4508   0.533E-01    0.477E+00
RMM:  17    -0.231003379418E+04   -0.21259E+01   -0.82578E-01  4347   0.649E-01    0.376E+00
RMM:  18    -0.231217252771E+04   -0.21387E+01   -0.14063E+00  4363   0.852E-01    0.395E+00
RMM:  19    -0.231367737461E+04   -0.15048E+01   -0.12081E+00  4367   0.842E-01    0.407E+00
RMM:  20    -0.231489621061E+04   -0.12188E+01   -0.55766E-01  4644   0.505E-01    0.224E+00
RMM:  21    -0.231497612693E+04   -0.79916E-01   -0.65212E-02  4881   0.196E-01    0.220E+00
RMM:  22    -0.231503477660E+04   -0.58650E-01   -0.65590E-02  4355   0.149E-01    0.177E+00
RMM:  23    -0.231524638217E+04   -0.21161E+00   -0.15441E-01  4350   0.254E-01    0.473E-01
RMM:  24    -0.231531577494E+04   -0.69393E-01   -0.33310E-02  4356   0.190E-01    0.327E-01
RMM:  25    -0.231534209034E+04   -0.26315E-01   -0.18157E-02  4395   0.121E-01    0.163E-01
RMM:  26    -0.231535569253E+04   -0.13602E-01   -0.60052E-03  4585   0.654E-02    0.104E-01
RMM:  27    -0.231536367791E+04   -0.79854E-02   -0.26516E-03  4441   0.435E-02    0.607E-02
RMM:  28    -0.231537212897E+04   -0.84511E-02   -0.29995E-03  4355   0.424E-02    0.418E-02
RMM:  29    -0.231537554751E+04   -0.34185E-02   -0.13035E-03  4372   0.363E-02    0.307E-02
RMM:  30    -0.231537726311E+04   -0.17156E-02   -0.73451E-04  4078   0.220E-02    0.174E-02
RMM:  31    -0.231537784883E+04   -0.58572E-03   -0.27887E-04  3812   0.183E-02    0.101E-02
RMM:  32    -0.231537804246E+04   -0.19363E-03   -0.10450E-04  3597   0.903E-03    0.711E-03
RMM:  33    -0.231537814123E+04   -0.98767E-04   -0.44739E-05  3376   0.749E-03    0.348E-03
RMM:  34    -0.231537819456E+04   -0.53329E-04   -0.26407E-05  3114   0.507E-03    0.289E-03
RMM:  35    -0.231537821475E+04   -0.20195E-04   -0.94512E-06  2826   0.353E-03    0.143E-03
RMM:  36    -0.231537822577E+04   -0.11021E-04   -0.51366E-06  2455   0.241E-03    0.108E-03
RMM:  37    -0.231537822805E+04   -0.22771E-05   -0.20305E-06  2309   0.180E-03
   1 F= -.23355393E+04 E0= -.23355393E+04  d E =-.233554E+04  mag=     2.9999
       N       E                     dE             d eps       ncg     rms          rms(c)
DAV:   1    -0.231536586660E+04    0.12359E-01   -0.88301E+00  4920   0.155E+00    0.106E+00
RMM:   2    -0.231550319792E+04   -0.13733E+00   -0.12669E+00  6001   0.399E-01    0.191E+00
RMM:   3    -0.231551382412E+04   -0.10626E-01   -0.10726E-01  5405   0.151E-01    0.199E+00
RMM:   4    -0.231551537853E+04   -0.15544E-02   -0.14393E-02  5038   0.320E-02    0.199E+00
RMM:   5    -0.231551680011E+04   -0.14216E-02   -0.41648E-04  3156   0.971E-03    0.221E+00
RMM:   6    -0.231550713337E+04    0.96667E-02   -0.91691E-03  4498   0.380E-02    0.123E+00
RMM:   7    -0.231550149341E+04    0.56400E-02   -0.80638E-03  4988   0.402E-02    0.846E-01
RMM:   8    -0.231549922478E+04    0.22686E-02   -0.50848E-03  4408   0.271E-02    0.958E-01
RMM:   9    -0.231549465459E+04    0.45702E-02   -0.67428E-03  4407   0.284E-02    0.124E+00
RMM:  10    -0.231549023294E+04    0.44217E-02   -0.37606E-03  4150   0.241E-02    0.147E+00
RMM:  11    -0.231549146577E+04   -0.12328E-02   -0.19290E-04  3270   0.827E-03    0.141E+00
RMM:  12    -0.231549317473E+04   -0.17090E-02   -0.24331E-03  3995   0.171E-02    0.116E+00
RMM:  13    -0.231550242494E+04   -0.92502E-02   -0.31738E-02  4566   0.610E-02    0.532E-01
RMM:  14    -0.231550656428E+04   -0.41393E-02   -0.16337E-02  4371   0.499E-02    0.685E-01
RMM:  15    -0.231550832756E+04   -0.17633E-02   -0.52046E-03  4569   0.234E-02    0.871E-01
RMM:  16    -0.231550763813E+04    0.68942E-03   -0.26460E-04  3548   0.102E-02    0.799E-01
RMM:  17    -0.231550728698E+04    0.35116E-03   -0.34528E-04  3376   0.795E-03    0.864E-01
RMM:  18    -0.231550619127E+04    0.10957E-02   -0.11261E-03  3899   0.121E-02    0.828E-01
RMM:  19    -0.231550211818E+04    0.40731E-02   -0.11848E-02  4510   0.380E-02    0.810E-01
RMM:  20    -0.231550211182E+04    0.63527E-05   -0.10271E-03  3444   0.199E-02    0.829E-01
RMM:  21    -0.231550164821E+04    0.46362E-03   -0.43760E-04  3289   0.666E-03    0.836E-01
RMM:  22    -0.231550176130E+04   -0.11310E-03   -0.33878E-05  2783   0.477E-03    0.845E-01
RMM:  23    -0.231550179430E+04   -0.32994E-04   -0.87285E-06  2453   0.169E-03    0.847E-01
RMM:  24    -0.231550225081E+04   -0.45652E-03   -0.53171E-05  2736   0.321E-03    0.867E-01
RMM:  25    -0.231550416056E+04   -0.19097E-02   -0.81742E-04  3755   0.124E-02    0.108E+00
RMM:  26    -0.231550413862E+04    0.21937E-04   -0.10049E-04  2904   0.604E-03    0.108E+00
RMM:  27    -0.231550404109E+04    0.97530E-04   -0.22071E-05  2601   0.296E-03    0.106E+00
RMM:  28    -0.231550502529E+04   -0.98419E-03   -0.50494E-04  3438   0.815E-03    0.109E+00
RMM:  29    -0.231550454724E+04    0.47805E-03   -0.90236E-05  2855   0.527E-03    0.105E+00
RMM:  30    -0.231550228193E+04    0.22653E-02   -0.27355E-03  3898   0.197E-02    0.100E+00
RMM:  31    -0.231549916814E+04    0.31138E-02   -0.61152E-03  4155   0.312E-02    0.114E+00
RMM:  32    -0.231549963814E+04   -0.47000E-03   -0.33484E-04  3262   0.115E-02    0.108E+00
RMM:  33    -0.231550044110E+04   -0.80296E-03   -0.85076E-04  3650   0.122E-02    0.979E-01
RMM:  34    -0.231550149276E+04   -0.10517E-02   -0.14019E-03  3855   0.152E-02    0.878E-01
RMM:  35    -0.231550237280E+04   -0.88004E-03   -0.15202E-03  3844   0.150E-02    0.793E-01
RMM:  36    -0.231550170374E+04    0.66906E-03   -0.29044E-04  3299   0.811E-03    0.836E-01
RMM:  37    -0.231550141621E+04    0.28752E-03   -0.96047E-05  2842   0.471E-03    0.857E-01
RMM:  38    -0.231550156644E+04   -0.15023E-03   -0.79031E-06  2299   0.233E-03    0.852E-01
RMM:  39    -0.231550305207E+04   -0.14856E-02   -0.20172E-03  3883   0.159E-02    0.777E-01
RMM:  40    -0.231550697781E+04   -0.39257E-02   -0.11593E-02  4469   0.382E-02    0.865E-01
RMM:  41    -0.231550240810E+04    0.45697E-02   -0.11803E-02  4536   0.396E-02    0.693E-01
RMM:  42    -0.231549695543E+04    0.54527E-02   -0.14218E-02  4516   0.409E-02    0.104E+00
RMM:  43    -0.231549436693E+04    0.25885E-02   -0.46816E-03  4177   0.275E-02    0.124E+00
RMM:  44    -0.231549809272E+04   -0.37258E-02   -0.20489E-03  3939   0.179E-02    0.997E-01
RMM:  45    -0.231549652842E+04    0.15643E-02   -0.61778E-04  3529   0.101E-02    0.108E+00
RMM:  46    -0.231550069207E+04   -0.41636E-02   -0.68594E-03  4293   0.294E-02    0.773E-01
RMM:  47    -0.231550477722E+04   -0.40852E-02   -0.13917E-02  4605   0.431E-02    0.653E-01
RMM:  48    -0.231550910359E+04   -0.43264E-02   -0.14358E-02  4660   0.417E-02    0.943E-01
RMM:  49    -0.231551077324E+04   -0.16697E-02   -0.33769E-03  4372   0.235E-02    0.108E+00
RMM:  50    -0.231551105172E+04   -0.27848E-03   -0.60642E-04  3441   0.943E-03    0.110E+00
RMM:  51    -0.231551055274E+04    0.49897E-03   -0.44780E-05  2875   0.501E-03    0.105E+00
RMM:  52    -0.231551013384E+04    0.41891E-03   -0.64369E-05  2809   0.352E-03    0.101E+00
RMM:  53    -0.231551024506E+04   -0.11123E-03   -0.48043E-06  2385   0.187E-03    0.103E+00
RMM:  54    -0.231551016453E+04    0.80537E-04   -0.27719E-06  1986   0.961E-04    0.102E+00
RMM:  55    -0.231550783356E+04    0.23310E-02   -0.19437E-03  3908   0.139E-02    0.778E-01
RMM:  56    -0.231550551726E+04    0.23163E-02   -0.31589E-03  4190   0.203E-02    0.663E-01
RMM:  57    -0.231550336609E+04    0.21512E-02   -0.47872E-03  4438   0.228E-02    0.648E-01
RMM:  58    -0.231550172117E+04    0.16449E-02   -0.28764E-03  4041   0.187E-02    0.694E-01
RMM:  59    -0.231550031014E+04    0.14110E-02   -0.17645E-03  4082   0.155E-02    0.767E-01
RMM:  60    -0.231550004430E+04    0.26585E-03   -0.21133E-04  3138   0.707E-03    0.775E-01
RMM:  61    -0.231549964745E+04    0.39685E-03   -0.10185E-04  2939   0.459E-03    0.794E-01
RMM:  62    -0.231549779765E+04    0.18498E-02   -0.17709E-03  3966   0.151E-02    0.936E-01
RMM:  63    -0.231549829097E+04   -0.49332E-03   -0.91547E-05  2875   0.703E-03    0.908E-01
RMM:  64    -0.231549897362E+04   -0.68265E-03   -0.17556E-04  2998   0.517E-03    0.861E-01
RMM:  65    -0.231550039963E+04   -0.14260E-02   -0.93247E-04  3714   0.107E-02    0.763E-01
RMM:  66    -0.231550367193E+04   -0.32723E-02   -0.66279E-03  4317   0.274E-02    0.654E-01
RMM:  67    -0.231550650296E+04   -0.28310E-02   -0.68519E-03  4472   0.308E-02    0.740E-01
RMM:  68    -0.231550802507E+04   -0.15221E-02   -0.25050E-03  4158   0.182E-02    0.879E-01
RMM:  69    -0.231550944224E+04   -0.14172E-02   -0.15143E-03  3931   0.121E-02    0.104E+00
RMM:  70    -0.231550939612E+04    0.46114E-04   -0.12136E-04  2915   0.710E-03    0.102E+00
RMM:  71    -0.231550947209E+04   -0.75963E-04   -0.27310E-05  2780   0.321E-03    0.104E+00
RMM:  72    -0.231551089224E+04   -0.14202E-02   -0.58402E-04  3571   0.833E-03    0.118E+00
RMM:  73    -0.231551090677E+04   -0.14533E-04   -0.63253E-05  2796   0.562E-03    0.116E+00
RMM:  74    -0.231551099365E+04   -0.86882E-04   -0.24265E-05  2615   0.237E-03    0.118E+00
RMM:  75    -0.231551088550E+04    0.10816E-03   -0.34133E-06  2464   0.189E-03    0.117E+00
RMM:  76    -0.231551030877E+04    0.57672E-03   -0.79573E-05  2698   0.312E-03    0.110E+00
RMM:  77    -0.231551140161E+04   -0.10928E-02   -0.33091E-04  3054   0.637E-03    0.121E+00
RMM:  78    -0.231551110412E+04    0.29748E-03   -0.19465E-05  2562   0.346E-03    0.115E+00
RMM:  79    -0.231551133704E+04   -0.23292E-03   -0.23261E-05  2371   0.209E-03    0.118E+00
RMM:  80    -0.231551131975E+04    0.17292E-04   -0.27609E-06  2142   0.159E-03    0.117E+00
RMM:  81    -0.231551144592E+04   -0.12617E-03   -0.47660E-06  2014   0.113E-03    0.119E+00
RMM:  82    -0.231551188572E+04   -0.43979E-03   -0.10501E-04  2933   0.358E-03    0.120E+00
RMM:  83    -0.231551060594E+04    0.12798E-02   -0.32739E-04  3156   0.653E-03    0.105E+00
RMM:  84    -0.231550830889E+04    0.22971E-02   -0.16910E-03  3906   0.137E-02    0.823E-01
RMM:  85    -0.231550592016E+04    0.23887E-02   -0.31006E-03  4106   0.200E-02    0.648E-01
RMM:  86    -0.231550299075E+04    0.29294E-02   -0.72458E-03  4463   0.284E-02    0.601E-01
RMM:  87    -0.231549827044E+04    0.47203E-02   -0.13005E-02  4614   0.406E-02    0.875E-01
RMM:  88    -0.231549472301E+04    0.35474E-02   -0.57994E-03  4437   0.297E-02    0.114E+00
RMM:  89    -0.231549125919E+04    0.34638E-02   -0.34639E-03  4418   0.215E-02    0.138E+00
RMM:  90    -0.231549027948E+04    0.97972E-03   -0.57624E-04  3564   0.115E-02    0.145E+00
RMM:  91    -0.231549111844E+04   -0.83896E-03   -0.74961E-05  2900   0.448E-03    0.139E+00
RMM:  92    -0.231549252887E+04   -0.14104E-02   -0.36227E-04  3244   0.669E-03    0.129E+00
RMM:  93    -0.231549767270E+04   -0.51438E-02   -0.57152E-03  4273   0.264E-02    0.920E-01
RMM:  94    -0.231549913602E+04   -0.14633E-02   -0.15659E-03  3789   0.172E-02    0.811E-01
RMM:  95    -0.231550059585E+04   -0.14598E-02   -0.16472E-03  4046   0.130E-02    0.718E-01
RMM:  96    -0.231550258386E+04   -0.19880E-02   -0.24555E-03  3996   0.184E-02    0.641E-01
RMM:  97    -0.231550375795E+04   -0.11741E-02   -0.17105E-03  3963   0.146E-02    0.627E-01
RMM:  98    -0.231550388903E+04   -0.13108E-03   -0.23686E-04  3096   0.705E-03    0.623E-01
RMM:  99    -0.231550381927E+04    0.69756E-04   -0.14905E-05  2706   0.306E-03    0.622E-01
RMM: 100    -0.231550382896E+04   -0.96914E-05   -0.21418E-06  2513   0.185E-03
   2 F= -.23356647E+04 E0= -.23356594E+04  d E =-.125371E+00  mag=     2.9942
       N       E                     dE             d eps       ncg     rms          rms(c)
DAV:   1    -0.231535987198E+04    0.14395E+00   -0.17048E+01  4448   0.218E+00    0.760E+00
RMM:   2    -0.231556008813E+04   -0.20022E+00   -0.56445E+00  5156   0.881E-01    0.439E+00
RMM:   3    -0.231560404063E+04   -0.43953E-01   -0.66430E-01  4679   0.457E-01    0.230E+00
RMM:   4    -0.231569237289E+04   -0.88332E-01   -0.40450E-01  4706   0.306E-01    0.191E+00
RMM:   5    -0.231575635003E+04   -0.63977E-01   -0.12175E-01  4680   0.179E-01    0.191E+00
RMM:   6    -0.231578943414E+04   -0.33084E-01   -0.21842E-02  4707   0.725E-02    0.184E+00
RMM:   7    -0.231582267404E+04   -0.33240E-01   -0.31110E-02  4553   0.691E-02    0.149E+00
RMM:   8    -0.231585637514E+04   -0.33701E-01   -0.79914E-02  4489   0.128E-01    0.620E-01
RMM:   9    -0.231588580097E+04   -0.29426E-01   -0.25304E-02  4617   0.893E-02    0.318E-01
RMM:  10    -0.231591153861E+04   -0.25738E-01   -0.98569E-03  4762   0.464E-02    0.192E-01
RMM:  11    -0.231593151610E+04   -0.19977E-01   -0.28297E-03  4332   0.330E-02    0.132E-01
RMM:  12    -0.231594872013E+04   -0.17204E-01   -0.23790E-03  4330   0.294E-02    0.846E-02
RMM:  13    -0.231595636097E+04   -0.76408E-02   -0.10676E-03  4223   0.233E-02    0.585E-02
RMM:  14    -0.231596286610E+04   -0.65051E-02   -0.13341E-03  4165   0.215E-02    0.317E-02
RMM:  15    -0.231596407934E+04   -0.12132E-02   -0.29045E-04  3779   0.156E-02    0.220E-02
RMM:  16    -0.231596481421E+04   -0.73487E-03   -0.19184E-04  3679   0.747E-03    0.220E-02
RMM:  17    -0.231596497905E+04   -0.16483E-03   -0.36165E-05  3127   0.675E-03    0.101E-02
RMM:  18    -0.231596505175E+04   -0.72702E-04   -0.21620E-05  2937   0.345E-03    0.394E-03
RMM:  19    -0.231596508907E+04   -0.37315E-04   -0.10589E-05  2787   0.322E-03    0.302E-03
RMM:  20    -0.231596509195E+04   -0.28822E-05   -0.32770E-06  2544   0.241E-03
   3 F= -.23361254E+04 E0= -.23361254E+04  d E =-.586118E+00  mag=     1.0006
       N       E                     dE             d eps       ncg     rms          rms(c)
DAV:   1    -0.231438540568E+04    0.15797E+01   -0.70275E+01  4376   0.477E+00    0.236E+00
RMM:   2    -0.231555603753E+04   -0.11706E+01   -0.12100E+01  6212   0.150E+00    0.157E+00
RMM:   3    -0.231560348002E+04   -0.47442E-01   -0.90797E-01  5597   0.492E-01    0.118E+00
RMM:   4    -0.231560413178E+04   -0.65176E-03   -0.16342E-01  5785   0.109E-01    0.827E-01
RMM:   5    -0.231559645131E+04    0.76805E-02   -0.30160E-02  5165   0.711E-02    0.408E-01
RMM:   6    -0.231559558680E+04    0.86452E-03   -0.46574E-03  4901   0.441E-02    0.183E-01
RMM:   7    -0.231559582504E+04   -0.23825E-03   -0.15687E-03  4744   0.228E-02    0.133E-01
RMM:   8    -0.231559572074E+04    0.10430E-03   -0.38642E-04  4261   0.142E-02    0.748E-02
RMM:   9    -0.231559569053E+04    0.30218E-04   -0.41637E-04  4273   0.109E-02    0.353E-02
RMM:  10    -0.231559572466E+04   -0.34129E-04   -0.10773E-04  3251   0.638E-03    0.227E-02
RMM:  11    -0.231559573500E+04   -0.10343E-04   -0.26938E-05  2852   0.487E-03    0.114E-02
RMM:  12    -0.231559576077E+04   -0.25768E-04   -0.22763E-05  2862   0.403E-03    0.673E-03
RMM:  13    -0.231559578284E+04   -0.22071E-04   -0.14957E-05  2827   0.423E-03    0.409E-03
RMM:  14    -0.231559579337E+04   -0.10529E-04   -0.10140E-05  2791   0.382E-03    0.285E-03
RMM:  15    -0.231559579966E+04   -0.62960E-05   -0.65486E-06  2784   0.318E-03
   4 F= -.23357544E+04 E0= -.23357544E+04  d E =-.215115E+00  mag=     1.0000
       N       E                     dE             d eps       ncg     rms          rms(c)
DAV:   1    -0.231502106565E+04    0.57473E+00   -0.46517E+01  4376   0.444E+00    0.223E+00
RMM:   2    -0.231596526401E+04   -0.94420E+00   -0.99588E+00  6067   0.132E+00    0.146E+00
RMM:   3    -0.231600171840E+04   -0.36454E-01   -0.10284E+00  5601   0.464E-01    0.108E+00
RMM:   4    -0.231600094119E+04    0.77721E-03   -0.11512E-01  5531   0.936E-02    0.723E-01
RMM:   5    -0.231599659381E+04    0.43474E-02   -0.14387E-02  5378   0.509E-02    0.484E-01
RMM:   6    -0.231599386539E+04    0.27284E-02   -0.12162E-02  5284   0.573E-02    0.105E-01
RMM:   7    -0.231599380795E+04    0.57437E-04   -0.13487E-03  4823   0.224E-02    0.803E-02
RMM:   8    -0.231599372586E+04    0.82096E-04   -0.32487E-04  4312   0.106E-02    0.432E-02
RMM:   9    -0.231599372558E+04    0.27689E-06   -0.15017E-04  3237   0.769E-03    0.257E-02
RMM:  10    -0.231599374307E+04   -0.17495E-04   -0.48616E-05  3124   0.488E-03    0.166E-02
RMM:  11    -0.231599376703E+04   -0.23954E-04   -0.35034E-05  3061   0.521E-03    0.867E-03
RMM:  12    -0.231599377869E+04   -0.11663E-04   -0.13432E-05  2815   0.439E-03    0.632E-03
RMM:  13    -0.231599378633E+04   -0.76412E-05   -0.77901E-06  2793   0.333E-03
   5 F= -.23361539E+04 E0= -.23361539E+04  d E =-.614579E+00  mag=     1.0000
       N       E                     dE             d eps       ncg     rms          rms(c)
DAV:   1    -0.231602956950E+04   -0.35791E-01   -0.31089E+00  4432   0.122E+00    0.567E-01
RMM:   2    -0.231606784267E+04   -0.38273E-01   -0.40575E-01  5692   0.312E-01    0.305E-01
RMM:   3    -0.231606975507E+04   -0.19124E-02   -0.31091E-02  5125   0.117E-01    0.208E-01
RMM:   4    -0.231606974687E+04    0.82037E-05   -0.57988E-03  4978   0.289E-02    0.117E-01
RMM:   5    -0.231606964946E+04    0.97413E-04   -0.66176E-04  4516   0.197E-02    0.524E-02
RMM:   6    -0.231606963522E+04    0.14237E-04   -0.14638E-04  3766   0.725E-03    0.329E-02
RMM:   7    -0.231606962166E+04    0.13555E-04   -0.38326E-05  2979   0.569E-03    0.177E-02
RMM:   8    -0.231606962088E+04    0.78743E-06   -0.22011E-05  2848   0.341E-03
   6 F= -.23362293E+04 E0= -.23362293E+04  d E =-.754152E-01  mag=     1.0000
       N       E                     dE             d eps       ncg     rms          rms(c)
DAV:   1    -0.231604517943E+04    0.24442E-01   -0.41218E+00  4400   0.146E+00    0.652E-01
RMM:   2    -0.231610117170E+04   -0.55992E-01   -0.59535E-01  5803   0.377E-01    0.357E-01
RMM:   3    -0.231610302350E+04   -0.18518E-02   -0.39383E-02  5346   0.116E-01    0.248E-01
RMM:   4    -0.231610290627E+04    0.11723E-03   -0.84724E-03  5181   0.339E-02    0.143E-01
RMM:   5    -0.231610272327E+04    0.18301E-03   -0.11467E-03  4733   0.222E-02    0.628E-02
RMM:   6    -0.231610268808E+04    0.35183E-04   -0.17343E-04  3943   0.783E-03    0.400E-02
RMM:   7    -0.231610266580E+04    0.22284E-04   -0.57912E-05  3045   0.641E-03    0.208E-02
RMM:   8    -0.231610266505E+04    0.75193E-06   -0.28766E-05  2907   0.402E-03
   7 F= -.23362618E+04 E0= -.23362618E+04  d E =-.107959E+00  mag=     1.0000
       N       E                     dE             d eps       ncg     rms          rms(c)
DAV:   1    -0.231617688028E+04   -0.74214E-01   -0.18773E+00  4416   0.953E-01    0.384E-01
RMM:   2    -0.231618628179E+04   -0.94015E-02   -0.10985E-01  5844   0.202E-01    0.228E-01
RMM:   3    -0.231618645308E+04   -0.17129E-03   -0.86151E-03  4960   0.552E-02    0.151E-01
RMM:   4    -0.231618630771E+04    0.14538E-03   -0.21335E-03  4964   0.246E-02    0.623E-02
RMM:   5    -0.231618625572E+04    0.51985E-04   -0.22747E-04  4449   0.140E-02    0.241E-02
RMM:   6    -0.231618624519E+04    0.10535E-04   -0.46105E-05  3145   0.521E-03    0.157E-02
RMM:   7    -0.231618624042E+04    0.47666E-05   -0.12798E-05  2808   0.379E-03
   8 F= -.23363452E+04 E0= -.23363452E+04  d E =-.834077E-01  mag=     1.0000
       N       E                     dE             d eps       ncg     rms          rms(c)
DAV:   1    -0.231621732025E+04   -0.31075E-01   -0.80387E+00  4376   0.195E+00    0.787E-01
RMM:   2    -0.231625760074E+04   -0.40280E-01   -0.46781E-01  5813   0.389E-01    0.463E-01
RMM:   3    -0.231625839642E+04   -0.79568E-03   -0.34751E-02  4947   0.108E-01    0.320E-01
RMM:   4    -0.231625804086E+04    0.35556E-03   -0.80749E-03  5009   0.474E-02    0.184E-01
RMM:   5    -0.231625753860E+04    0.50226E-03   -0.19162E-03  5097   0.302E-02    0.742E-02
RMM:   6    -0.231625748888E+04    0.49719E-04   -0.25563E-04  4362   0.119E-02    0.401E-02
RMM:   7    -0.231625747891E+04    0.99652E-05   -0.65732E-05  3088   0.714E-03
   9 F= -.23364162E+04 E0= -.23364162E+04  d E =-.154364E+00  mag=     1.0000
       N       E                     dE             d eps       ncg     rms          rms(c)
DAV:   1    -0.231629188431E+04   -0.34395E-01   -0.19858E+00  4416   0.127E+00    0.572E-01
RMM:   2    -0.231630203763E+04   -0.10153E-01   -0.12308E-01  5694   0.238E-01    0.261E-01
RMM:   3    -0.231630170615E+04    0.33148E-03   -0.10148E-02  5032   0.789E-02    0.178E-01
RMM:   4    -0.231630133104E+04    0.37511E-03   -0.18978E-03  5043   0.266E-02    0.103E-01
RMM:   5    -0.231630114746E+04    0.18358E-03   -0.66306E-04  4846   0.222E-02    0.339E-02
RMM:   6    -0.231630113211E+04    0.15349E-04   -0.86199E-05  4036   0.798E-03    0.231E-02
RMM:   7    -0.231630112290E+04    0.92080E-05   -0.18846E-05  2845   0.525E-03
  10 F= -.23364601E+04 E0= -.23364601E+04  d E =-.438889E-01  mag=     1.0000
       N       E                     dE             d eps       ncg     rms          rms(c)
DAV:   1    -0.231630601848E+04   -0.48864E-02   -0.23249E+00  4388   0.137E+00    0.614E-01
RMM:   2    -0.231631787225E+04   -0.11854E-01   -0.14478E-01  5701   0.252E-01    0.281E-01
RMM:   3    -0.231631738743E+04    0.48482E-03   -0.11540E-02  5093   0.820E-02    0.191E-01
RMM:   4    -0.231631687979E+04    0.50764E-03   -0.22135E-03  5008   0.282E-02    0.112E-01
RMM:   5    -0.231631657948E+04    0.30031E-03   -0.83892E-04  4984   0.243E-02    0.379E-02
RMM:   6    -0.231631653885E+04    0.40626E-04   -0.11323E-04  4368   0.873E-03    0.263E-02
RMM:   7    -0.231631652132E+04    0.17530E-04   -0.26435E-05  2920   0.593E-03    0.189E-02
RMM:   8    -0.231631650092E+04    0.20401E-04   -0.23724E-05  2850   0.387E-03    0.107E-02
RMM:   9    -0.231631648987E+04    0.11049E-04   -0.14934E-05  2833   0.385E-03    0.612E-03
RMM:  10    -0.231631648675E+04    0.31222E-05   -0.10169E-05  2795   0.379E-03
  11 F= -.23364757E+04 E0= -.23364757E+04  d E =-.595240E-01  mag=     1.0000
       N       E                     dE             d eps       ncg     rms          rms(c)
DAV:   1    -0.231633431192E+04   -0.17822E-01   -0.94786E-01  4432   0.669E-01    0.318E-01
RMM:   2    -0.231633748313E+04   -0.31712E-02   -0.42093E-02  5701   0.134E-01    0.205E-01
RMM:   3    -0.231633718153E+04    0.30160E-03   -0.37629E-03  5263   0.446E-02    0.129E-01
RMM:   4    -0.231633705689E+04    0.12463E-03   -0.87150E-04  4607   0.158E-02    0.695E-02
RMM:   5    -0.231633700014E+04    0.56752E-04   -0.14232E-04  3845   0.112E-02    0.254E-02
RMM:   6    -0.231633700144E+04   -0.13011E-05   -0.35312E-05  3052   0.493E-03
  12 F= -.23364966E+04 E0= -.23364966E+04  d E =-.208967E-01  mag=     1.0000
       N       E                     dE             d eps       ncg     rms          rms(c)
DAV:   1    -0.231633984585E+04   -0.28457E-02   -0.62001E-01  4416   0.546E-01    0.255E-01
RMM:   2    -0.231634202517E+04   -0.21793E-02   -0.28565E-02  5734   0.111E-01    0.164E-01
RMM:   3    -0.231634183574E+04    0.18944E-03   -0.25306E-03  5175   0.362E-02    0.105E-01
RMM:   4    -0.231634174974E+04    0.85993E-04   -0.56771E-04  4427   0.131E-02    0.583E-02
RMM:   5    -0.231634170362E+04    0.46123E-04   -0.10096E-04  3517   0.926E-03    0.218E-02
RMM:   6    -0.231634170259E+04    0.10280E-05   -0.28536E-05  2964   0.482E-03
  13 F= -.23365016E+04 E0= -.23365016E+04  d E =-.259175E-01  mag=     1.0000
       N       E                     dE             d eps       ncg     rms          rms(c)
DAV:   1    -0.231634548721E+04   -0.37836E-02   -0.32315E-01  4544   0.542E-01    0.225E-01
RMM:   2    -0.231634742931E+04   -0.19421E-02   -0.23164E-02  5764   0.997E-02    0.952E-02
RMM:   3    -0.231634742033E+04    0.89794E-05   -0.24046E-03  4824   0.422E-02    0.554E-02
RMM:   4    -0.231634736662E+04    0.53711E-04   -0.40402E-04  4382   0.130E-02    0.261E-02
RMM:   5    -0.231634734515E+04    0.21464E-04   -0.59209E-05  3626   0.895E-03    0.126E-02
RMM:   6    -0.231634733894E+04    0.62158E-05   -0.17232E-05  2831   0.478E-03
  14 F= -.23365072E+04 E0= -.23365072E+04  d E =-.556992E-02  mag=     1.0000
       N       E                     dE             d eps       ncg     rms          rms(c)
DAV:   1    -0.231634733380E+04    0.11353E-04   -0.14559E-01  4696   0.364E-01    0.150E-01
RMM:   2    -0.231634822280E+04   -0.88900E-03   -0.10602E-02  5777   0.684E-02    0.641E-02
RMM:   3    -0.231634821495E+04    0.78457E-05   -0.10832E-03  4641   0.280E-02    0.381E-02
RMM:   4    -0.231634818526E+04    0.29687E-04   -0.17878E-04  3891   0.907E-03    0.183E-02
RMM:   5    -0.231634817258E+04    0.12687E-04   -0.31554E-05  3087   0.658E-03    0.908E-03
RMM:   6    -0.231634816876E+04    0.38129E-05   -0.11108E-05  2808   0.425E-03
  15 F= -.23365080E+04 E0= -.23365080E+04  d E =-.635531E-02  mag=     1.0000
       N       E                     dE             d eps       ncg     rms          rms(c)
DAV:   1    -0.231634974390E+04   -0.15713E-02   -0.25221E-01  4432   0.397E-01    0.167E-01
RMM:   2    -0.231635274240E+04   -0.29985E-02   -0.32315E-02  6009   0.829E-02    0.990E-02
RMM:   3    -0.231635289819E+04   -0.15578E-03   -0.33762E-03  4374   0.289E-02    0.573E-02
RMM:   4    -0.231635289202E+04    0.61656E-05   -0.42263E-04  3406   0.817E-03    0.316E-02
RMM:   5    -0.231635288222E+04    0.97986E-05   -0.51620E-05  3027   0.620E-03
  16 F= -.23365126E+04 E0= -.23365126E+04  d E =-.463999E-02  mag=     1.0000
       N       E                     dE             d eps       ncg     rms          rms(c)
DAV:   1    -0.231633283972E+04    0.20052E-01   -0.20703E+00  4388   0.114E+00    0.483E-01
RMM:   2    -0.231635753014E+04   -0.24690E-01   -0.26695E-01  5947   0.242E-01    0.290E-01
RMM:   3    -0.231635862162E+04   -0.10915E-02   -0.28020E-02  5571   0.833E-02    0.168E-01
RMM:   4    -0.231635854433E+04    0.77296E-04   -0.35759E-03  4670   0.219E-02    0.926E-02
RMM:   5    -0.231635844903E+04    0.95297E-04   -0.50752E-04  4479   0.156E-02    0.455E-02
RMM:   6    -0.231635842723E+04    0.21796E-04   -0.11609E-04  3606   0.827E-03    0.248E-02
RMM:   7    -0.231635842121E+04    0.60277E-05   -0.26439E-05  2870   0.521E-03
  17 F= -.23365180E+04 E0= -.23365180E+04  d E =-.996899E-02  mag=     1.0000
       N       E                     dE             d eps       ncg     rms          rms(c)
DAV:   1    -0.231635953468E+04   -0.11074E-02   -0.22450E-01  4512   0.356E-01    0.147E-01
RMM:   2    -0.231636248991E+04   -0.29552E-02   -0.30848E-02  6039   0.734E-02    0.885E-02
RMM:   3    -0.231636268098E+04   -0.19106E-03   -0.28258E-03  4037   0.248E-02    0.559E-02
RMM:   4    -0.231636268323E+04   -0.22513E-05   -0.36819E-04  3113   0.692E-03    0.352E-02
RMM:   5    -0.231636267332E+04    0.99043E-05   -0.70050E-05  2979   0.581E-03
  18 F= -.23365223E+04 E0= -.23365223E+04  d E =-.430687E-02  mag=     1.0000
       N       E                     dE             d eps       ncg     rms          rms(c)
DAV:   1    -0.231634176353E+04    0.20920E-01   -0.20139E+00  4420   0.107E+00    0.442E-01
RMM:   2    -0.231636817016E+04   -0.26407E-01   -0.27676E-01  6170   0.226E-01    0.261E-01
RMM:   3    -0.231636979973E+04   -0.16296E-02   -0.25162E-02  5531   0.696E-02    0.162E-01
RMM:   4    -0.231636980574E+04   -0.60129E-05   -0.32583E-03  4476   0.184E-02    0.953E-02
RMM:   5    -0.231636973589E+04    0.69847E-04   -0.37679E-04  4076   0.135E-02    0.332E-02
RMM:   6    -0.231636975073E+04   -0.14832E-04   -0.70326E-05  3016   0.652E-03    0.279E-02
RMM:   7    -0.231636974578E+04    0.49408E-05   -0.16624E-05  2828   0.408E-03
  19 F= -.23365295E+04 E0= -.23365295E+04  d E =-.115394E-01  mag=     1.0000
       N       E                     dE             d eps       ncg     rms          rms(c)
DAV:   1    -0.231636707075E+04    0.26800E-02   -0.22558E-01  4512   0.359E-01    0.148E-01
RMM:   2    -0.231637004570E+04   -0.29750E-02   -0.31118E-02  5939   0.741E-02    0.901E-02
RMM:   3    -0.231637023567E+04   -0.18997E-03   -0.28678E-03  4110   0.266E-02    0.563E-02
RMM:   4    -0.231637023762E+04   -0.19494E-05   -0.37104E-04  3178   0.700E-03    0.358E-02
RMM:   5    -0.231637022716E+04    0.10453E-04   -0.73970E-05  3019   0.594E-03    0.135E-02
RMM:   6    -0.231637022761E+04   -0.44814E-06   -0.10226E-05  2796   0.389E-03
  20 F= -.23365300E+04 E0= -.23365300E+04  d E =-.120734E-01  mag=     1.0000
       N       E                     dE             d eps       ncg     rms          rms(c)
DAV:   1    -0.231636810283E+04    0.21243E-02   -0.45230E-01  4432   0.550E-01    0.233E-01
RMM:   2    -0.231637457937E+04   -0.64765E-02   -0.69555E-02  5569   0.112E-01    0.119E-01
RMM:   3    -0.231637520090E+04   -0.62153E-03   -0.83690E-03  4785   0.564E-02    0.720E-02
RMM:   4    -0.231637523207E+04   -0.31175E-04   -0.92332E-04  4227   0.119E-02    0.449E-02
RMM:   5    -0.231637521489E+04    0.17182E-04   -0.89579E-05  3194   0.831E-03    0.254E-02
RMM:   6    -0.231637521086E+04    0.40291E-05   -0.27541E-05  2837   0.449E-03
  21 F= -.23365352E+04 E0= -.23365352E+04  d E =-.512619E-02  mag=     1.0000
       N       E                     dE             d eps       ncg     rms          rms(c)
DAV:   1    -0.231634607358E+04    0.29141E-01   -0.21154E+00  4420   0.119E+00    0.503E-01
RMM:   2    -0.231637633860E+04   -0.30265E-01   -0.32521E-01  5788   0.246E-01    0.259E-01
RMM:   3    -0.231637930900E+04   -0.29704E-02   -0.39932E-02  5146   0.118E-01    0.169E-01
RMM:   4    -0.231637948754E+04   -0.17854E-03   -0.46350E-03  5056   0.253E-02    0.115E-01
RMM:   5    -0.231637928833E+04    0.19921E-03   -0.53532E-04  4677   0.156E-02    0.585E-02
RMM:   6    -0.231637926194E+04    0.26394E-04   -0.13808E-04  3916   0.863E-03    0.320E-02
RMM:   7    -0.231637925045E+04    0.11489E-04   -0.34120E-05  2947   0.620E-03    0.175E-02
RMM:   8    -0.231637924306E+04    0.73837E-05   -0.17430E-05  2817   0.366E-03
  22 F= -.23365395E+04 E0= -.23365395E+04  d E =-.946853E-02  mag=     1.0000
       N       E                     dE             d eps       ncg     rms          rms(c)
DAV:   1    -0.231637327382E+04    0.59766E-02   -0.54935E-01  4496   0.548E-01    0.249E-01
RMM:   2    -0.231638279922E+04   -0.95254E-02   -0.10140E-01  5800   0.122E-01    0.138E-01
RMM:   3    -0.231638382678E+04   -0.10276E-02   -0.12804E-02  4645   0.685E-02    0.902E-02
RMM:   4    -0.231638389876E+04   -0.71983E-04   -0.13167E-03  3909   0.120E-02    0.640E-02
RMM:   5    -0.231638385022E+04    0.48534E-04   -0.15890E-04  3420   0.752E-03    0.316E-02
RMM:   6    -0.231638384735E+04    0.28701E-05   -0.37694E-05  2861   0.525E-03
  23 F= -.23365442E+04 E0= -.23365442E+04  d E =-.471110E-02  mag=     1.0000
       N       E                     dE             d eps       ncg     rms          rms(c)
DAV:   1    -0.231633533151E+04    0.48519E-01   -0.27080E+00  4388   0.122E+00    0.552E-01
RMM:   2    -0.231638243319E+04   -0.47102E-01   -0.50237E-01  5957   0.271E-01    0.309E-01
RMM:   3    -0.231638732624E+04   -0.48931E-02   -0.62240E-02  5288   0.115E-01    0.219E-01
RMM:   4    -0.231638756592E+04   -0.23968E-03   -0.63458E-03  4989   0.252E-02    0.153E-01
RMM:   5    -0.231638730053E+04    0.26539E-03   -0.73697E-04  4560   0.136E-02    0.767E-02
RMM:   6    -0.231638728260E+04    0.17935E-04   -0.22125E-04  4023   0.102E-02    0.338E-02
RMM:   7    -0.231638727514E+04    0.74570E-05   -0.34055E-05  2908   0.586E-03
  24 F= -.23365479E+04 E0= -.23365479E+04  d E =-.838418E-02  mag=     1.0000
       N       E                     dE             d eps       ncg     rms          rms(c)
DAV:   1    -0.231637858576E+04    0.86968E-02   -0.71931E-01  4464   0.617E-01    0.273E-01
RMM:   2    -0.231639054515E+04   -0.11959E-01   -0.12589E-01  5932   0.136E-01    0.154E-01
RMM:   3    -0.231639147978E+04   -0.93463E-03   -0.11767E-02  5216   0.488E-02    0.979E-02
RMM:   4    -0.231639152286E+04   -0.43080E-04   -0.14927E-03  4147   0.126E-02    0.609E-02
RMM:   5    -0.231639148973E+04    0.33123E-04   -0.17498E-04  3500   0.848E-03    0.327E-02
RMM:   6    -0.231639147979E+04    0.99450E-05   -0.53231E-05  2918   0.587E-03
  25 F= -.23365521E+04 E0= -.23365521E+04  d E =-.422458E-02  mag=     1.0000
       N       E                     dE             d eps       ncg     rms          rms(c)
DAV:   1    -0.231636670316E+04    0.24787E-01   -0.15012E+00  4404   0.892E-01    0.396E-01
RMM:   2    -0.231639154347E+04   -0.24840E-01   -0.26233E-01  6040   0.199E-01    0.222E-01
RMM:   3    -0.231639352282E+04   -0.19794E-02   -0.25073E-02  5426   0.655E-02    0.145E-01
RMM:   4    -0.231639363225E+04   -0.10943E-03   -0.31839E-03  4467   0.178E-02    0.946E-02
RMM:   5    -0.231639354430E+04    0.87947E-04   -0.38158E-04  4162   0.114E-02    0.518E-02
RMM:   6    -0.231639352073E+04    0.23577E-04   -0.12780E-04  3341   0.792E-03    0.211E-02
RMM:   7    -0.231639351445E+04    0.62748E-05   -0.20403E-05  2856   0.487E-03
  26 F= -.23365542E+04 E0= -.23365542E+04  d E =-.629223E-02  mag=     1.0000
       N       E                     dE             d eps       ncg     rms          rms(c)
DAV:   1    -0.231637708373E+04    0.16437E-01   -0.12005E+00  4412   0.856E-01    0.381E-01
RMM:   2    -0.231639742142E+04   -0.20338E-01   -0.21479E-01  5889   0.192E-01    0.206E-01
RMM:   3    -0.231639865670E+04   -0.12353E-02   -0.17907E-02  5388   0.653E-02    0.128E-01
RMM:   4    -0.231639869870E+04   -0.42002E-04   -0.24907E-03  4447   0.165E-02    0.768E-02
RMM:   5    -0.231639865476E+04    0.43937E-04   -0.26394E-04  4144   0.118E-02    0.391E-02
RMM:   6    -0.231639864503E+04    0.97370E-05   -0.86894E-05  3153   0.723E-03
  27 F= -.23365592E+04 E0= -.23365592E+04  d E =-.502125E-02  mag=     1.0000
       N       E                     dE             d eps       ncg     rms          rms(c)
DAV:   1    -0.231638385698E+04    0.14798E-01   -0.88290E-01  4396   0.736E-01    0.327E-01
RMM:   2    -0.231639865766E+04   -0.14801E-01   -0.15659E-01  5975   0.167E-01    0.177E-01
RMM:   3    -0.231639955991E+04   -0.90225E-03   -0.13021E-02  5431   0.562E-02    0.109E-01
RMM:   4    -0.231639958760E+04   -0.27694E-04   -0.17940E-03  4322   0.141E-02    0.653E-02
RMM:   5    -0.231639954929E+04    0.38312E-04   -0.19916E-04  3894   0.101E-02    0.295E-02
RMM:   6    -0.231639954271E+04    0.65790E-05   -0.54439E-05  2963   0.665E-03
  28 F= -.23365600E+04 E0= -.23365600E+04  d E =-.582781E-02  mag=     1.0000
       N       E                     dE             d eps       ncg     rms          rms(c)
DAV:   1    -0.231637731143E+04    0.22238E-01   -0.13194E+00  4388   0.840E-01    0.398E-01
RMM:   2    -0.231640134692E+04   -0.24035E-01   -0.25377E-01  6041   0.196E-01    0.227E-01
RMM:   3    -0.231640322976E+04   -0.18828E-02   -0.24908E-02  5432   0.701E-02    0.147E-01
RMM:   4    -0.231640337109E+04   -0.14134E-03   -0.33946E-03  4388   0.173E-02    0.954E-02
RMM:   5    -0.231640329874E+04    0.72355E-04   -0.35308E-04  4026   0.107E-02    0.544E-02
RMM:   6    -0.231640327263E+04    0.26113E-04   -0.12552E-04  3277   0.817E-03    0.163E-02
RMM:   7    -0.231640326953E+04    0.30931E-05   -0.21303E-05  2861   0.481E-03
  29 F= -.23365636E+04 E0= -.23365636E+04  d E =-.360369E-02  mag=     1.0000
       N       E                     dE             d eps       ncg     rms          rms(c)
DAV:   1    -0.231640022010E+04    0.30525E-02   -0.16893E-01  4552   0.301E-01    0.141E-01
RMM:   2    -0.231640327788E+04   -0.30578E-02   -0.32281E-02  5870   0.684E-02    0.799E-02
RMM:   3    -0.231640352069E+04   -0.24281E-03   -0.30777E-03  3908   0.294E-02    0.509E-02
RMM:   4    -0.231640353608E+04   -0.15397E-04   -0.40117E-04  3043   0.672E-03    0.320E-02
RMM:   5    -0.231640353038E+04    0.57094E-05   -0.43693E-05  2990   0.471E-03
  30 F= -.23365638E+04 E0= -.23365638E+04  d E =-.382327E-02  mag=     1.0000
       N       E                     dE             d eps       ncg     rms          rms(c)
DAV:   1    -0.231640040527E+04    0.31308E-02   -0.42990E-01  4400   0.614E-01    0.261E-01
RMM:   2    -0.231640539127E+04   -0.49860E-02   -0.54527E-02  5656   0.120E-01    0.118E-01
RMM:   3    -0.231640580127E+04   -0.40999E-03   -0.68977E-03  4827   0.606E-02    0.705E-02
RMM:   4    -0.231640580504E+04   -0.37787E-05   -0.78819E-04  4520   0.144E-02    0.440E-02
RMM:   5    -0.231640577710E+04    0.27949E-04   -0.11184E-04  3746   0.105E-02    0.188E-02
RMM:   6    -0.231640577051E+04    0.65883E-05   -0.22126E-05  2847   0.453E-03
  31 F= -.23365662E+04 E0= -.23365662E+04  d E =-.236918E-02  mag=     1.0000
       N       E                     dE             d eps       ncg     rms          rms(c)
DAV:   1    -0.231640557396E+04    0.20314E-03   -0.16604E-02  5256   0.121E-01    0.513E-02
RMM:   2    -0.231640577049E+04   -0.19653E-03   -0.21667E-03  5692   0.255E-02    0.244E-02
RMM:   3    -0.231640578343E+04   -0.12934E-04   -0.25525E-04  3052   0.127E-02    0.153E-02
RMM:   4    -0.231640578161E+04    0.18189E-05   -0.32319E-05  2851   0.353E-03
  32 F= -.23365662E+04 E0= -.23365662E+04  d E =-.240572E-02  mag=     1.0000
       N       E                     dE             d eps       ncg     rms          rms(c)
DAV:   1    -0.231640384730E+04    0.19361E-02   -0.33362E-01  4400   0.505E-01    0.194E-01
RMM:   2    -0.231640800074E+04   -0.41534E-02   -0.44325E-02  5707   0.979E-02    0.106E-01
RMM:   3    -0.231640829584E+04   -0.29510E-03   -0.46303E-03  4803   0.425E-02    0.655E-02
RMM:   4    -0.231640829692E+04   -0.10837E-05   -0.54722E-04  4063   0.101E-02    0.377E-02
RMM:   5    -0.231640828261E+04    0.14312E-04   -0.79692E-05  3116   0.785E-03    0.157E-02
RMM:   6    -0.231640828135E+04    0.12631E-05   -0.14338E-05  2817   0.399E-03
  33 F= -.23365689E+04 E0= -.23365689E+04  d E =-.265369E-02  mag=     1.0000
       N       E                     dE             d eps       ncg     rms          rms(c)
DAV:   1    -0.231640445482E+04    0.38278E-02   -0.34364E-01  4400   0.512E-01    0.197E-01
RMM:   2    -0.231640872546E+04   -0.42706E-02   -0.45568E-02  5769   0.100E-01    0.108E-01
RMM:   3    -0.231640901514E+04   -0.28968E-03   -0.46828E-03  4833   0.415E-02    0.665E-02
RMM:   4    -0.231640901121E+04    0.39254E-05   -0.56552E-04  4104   0.103E-02    0.373E-02
RMM:   5    -0.231640899597E+04    0.15242E-04   -0.80681E-05  3143   0.809E-03    0.169E-02
RMM:   6    -0.231640899398E+04    0.19914E-05   -0.16277E-05  2818   0.399E-03
  34 F= -.23365698E+04 E0= -.23365698E+04  d E =-.352632E-02  mag=     1.0000
       N       E                     dE             d eps       ncg     rms          rms(c)
DAV:   1    -0.231640873675E+04    0.25922E-03   -0.25318E-01  4400   0.461E-01    0.173E-01
RMM:   2    -0.231641115495E+04   -0.24182E-02   -0.25873E-02  5708   0.841E-02    0.875E-02
RMM:   3    -0.231641130063E+04   -0.14568E-03   -0.26696E-03  4879   0.342E-02    0.546E-02
RMM:   4    -0.231641129215E+04    0.84850E-05   -0.35569E-04  4002   0.913E-03    0.259E-02
RMM:   5    -0.231641128796E+04    0.41826E-05   -0.32903E-05  2891   0.696E-03
  35 F= -.23365721E+04 E0= -.23365721E+04  d E =-.231792E-02  mag=     1.0000
       N       E                     dE             d eps       ncg     rms          rms(c)
DAV:   1    -0.231640701084E+04    0.42813E-02   -0.52700E-01  4376   0.666E-01    0.250E-01
RMM:   2    -0.231641207352E+04   -0.50627E-02   -0.54177E-02  5617   0.122E-01    0.126E-01
RMM:   3    -0.231641237612E+04   -0.30260E-03   -0.55598E-03  5022   0.465E-02    0.781E-02
RMM:   4    -0.231641235429E+04    0.21834E-04   -0.68422E-04  4295   0.130E-02    0.377E-02
RMM:   5    -0.231641234778E+04    0.65096E-05   -0.70883E-05  3275   0.946E-03
  36 F= -.23365732E+04 E0= -.23365732E+04  d E =-.341691E-02  mag=     1.0000
       N       E                     dE             d eps       ncg     rms          rms(c)
DAV:   1    -0.231641162387E+04    0.73042E-03   -0.28550E-01  4448   0.474E-01    0.171E-01
RMM:   2    -0.231641450656E+04   -0.28827E-02   -0.30406E-02  5671   0.864E-02    0.931E-02
RMM:   3    -0.231641469671E+04   -0.19015E-03   -0.29679E-03  4672   0.343E-02    0.614E-02
RMM:   4    -0.231641470484E+04   -0.81280E-05   -0.42009E-04  3802   0.918E-03    0.379E-02
RMM:   5    -0.231641468692E+04    0.17915E-04   -0.61055E-05  3058   0.679E-03    0.140E-02
RMM:   6    -0.231641468735E+04   -0.42707E-06   -0.11104E-05  2813   0.401E-03
  37 F= -.23365755E+04 E0= -.23365755E+04  d E =-.232475E-02  mag=     1.0000
       N       E                     dE             d eps       ncg     rms          rms(c)
DAV:   1    -0.231640485196E+04    0.98350E-02   -0.10947E+00  4376   0.928E-01    0.332E-01
RMM:   2    -0.231641583431E+04   -0.10982E-01   -0.11595E-01  5681   0.168E-01    0.179E-01
RMM:   3    -0.231641647695E+04   -0.64264E-03   -0.10545E-02  5092   0.625E-02    0.115E-01
RMM:   4    -0.231641646955E+04    0.73982E-05   -0.14340E-03  4513   0.168E-02    0.625E-02
RMM:   5    -0.231641643669E+04    0.32858E-04   -0.17445E-04  3936   0.121E-02    0.234E-02
RMM:   6    -0.231641643530E+04    0.13969E-05   -0.33560E-05  2862   0.463E-03
  38 F= -.23365772E+04 E0= -.23365772E+04  d E =-.404973E-02  mag=     1.0000
       N       E                     dE             d eps       ncg     rms          rms(c)
DAV:   1    -0.231641241782E+04    0.40189E-02   -0.51789E-01  4388   0.637E-01    0.253E-01
RMM:   2    -0.231641842659E+04   -0.60088E-02   -0.64520E-02  5657   0.123E-01    0.130E-01
RMM:   3    -0.231641875452E+04   -0.32793E-03   -0.58036E-03  4956   0.499E-02    0.804E-02
RMM:   4    -0.231641875136E+04    0.31596E-05   -0.81515E-04  4250   0.128E-02    0.430E-02
RMM:   5    -0.231641873403E+04    0.17332E-04   -0.94346E-05  3367   0.976E-03    0.137E-02
RMM:   6    -0.231641873394E+04    0.82393E-07   -0.19092E-05  2835   0.439E-03
  39 F= -.23365795E+04 E0= -.23365795E+04  d E =-.229091E-02  mag=     1.0000
       N       E                     dE             d eps       ncg     rms          rms(c)
DAV:   1    -0.231641785106E+04    0.88296E-03   -0.88122E-02  4544   0.263E-01    0.104E-01
RMM:   2    -0.231641886532E+04   -0.10143E-02   -0.10903E-02  5848   0.512E-02    0.534E-02
RMM:   3    -0.231641892840E+04   -0.63082E-04   -0.10379E-03  3748   0.213E-02    0.334E-02
RMM:   4    -0.231641892878E+04   -0.37355E-06   -0.13857E-04  3024   0.588E-03    0.195E-02
RMM:   5    -0.231641892436E+04    0.44171E-05   -0.21757E-05  2864   0.460E-03
  40 F= -.23365797E+04 E0= -.23365797E+04  d E =-.247913E-02  mag=     1.0000
       N       E                     dE             d eps       ncg     rms          rms(c)
DAV:   1    -0.231641706921E+04    0.18596E-02   -0.23766E-01  4376   0.435E-01    0.182E-01
RMM:   2    -0.231641996344E+04   -0.28942E-02   -0.31652E-02  5772   0.884E-02    0.887E-02
RMM:   3    -0.231642013752E+04   -0.17408E-03   -0.29375E-03  4872   0.362E-02    0.552E-02
RMM:   4    -0.231642012935E+04    0.81668E-05   -0.42122E-04  4057   0.999E-03    0.265E-02
RMM:   5    -0.231642012345E+04    0.59064E-05   -0.38697E-05  2940   0.746E-03
  41 F= -.23365809E+04 E0= -.23365809E+04  d E =-.121372E-02  mag=     1.0000
       N       E                     dE             d eps       ncg     rms          rms(c)
DAV:   1    -0.231641877700E+04    0.13524E-02   -0.10102E-01  4480   0.284E-01    0.119E-01
RMM:   2    -0.231642000669E+04   -0.12297E-02   -0.13461E-02  5733   0.581E-02    0.586E-02
RMM:   3    -0.231642008592E+04   -0.79226E-04   -0.13045E-03  4144   0.244E-02    0.371E-02
RMM:   4    -0.231642008359E+04    0.23280E-05   -0.18077E-04  3322   0.682E-03    0.207E-02
RMM:   5    -0.231642007801E+04    0.55865E-05   -0.25578E-05  2872   0.548E-03
  42 F= -.23365809E+04 E0= -.23365809E+04  d E =-.117852E-02  mag=     1.0000
       N       E                     dE             d eps       ncg     rms          rms(c)
DAV:   1    -0.231641991616E+04    0.16743E-03   -0.21888E-02  4592   0.131E-01    0.546E-02
RMM:   2    -0.231642016659E+04   -0.25043E-03   -0.27529E-03  5839   0.274E-02    0.280E-02
RMM:   3    -0.231642018098E+04   -0.14387E-04   -0.27073E-04  2989   0.109E-02    0.184E-02
RMM:   4    -0.231642018008E+04    0.89603E-06   -0.38229E-05  2851   0.362E-03
  43 F= -.23365810E+04 E0= -.23365810E+04  d E =-.127581E-02  mag=     1.0000
       N       E                     dE             d eps       ncg     rms          rms(c)
DAV:   1    -0.231641806421E+04    0.21168E-02   -0.23249E-01  4376   0.410E-01    0.166E-01
RMM:   2    -0.231642092945E+04   -0.28652E-02   -0.30874E-02  5775   0.843E-02    0.884E-02
RMM:   3    -0.231642114976E+04   -0.22031E-03   -0.31384E-03  4654   0.321E-02    0.587E-02
RMM:   4    -0.231642114687E+04    0.28907E-05   -0.39258E-04  3829   0.855E-03    0.305E-02
RMM:   5    -0.231642114108E+04    0.57898E-05   -0.47859E-05  2956   0.656E-03
  44 F= -.23365820E+04 E0= -.23365820E+04  d E =-.100515E-02  mag=     1.0000
       N       E                     dE             d eps       ncg     rms          rms(c)
DAV:   1    -0.231641918313E+04    0.19637E-02   -0.15352E-01  4400   0.334E-01    0.136E-01
RMM:   2    -0.231642109502E+04   -0.19119E-02   -0.20634E-02  5801   0.695E-02    0.713E-02
RMM:   3    -0.231642125318E+04   -0.15816E-03   -0.21678E-03  4301   0.273E-02    0.476E-02
RMM:   4    -0.231642125176E+04    0.14231E-05   -0.27470E-04  3361   0.732E-03    0.238E-02
RMM:   5    -0.231642124875E+04    0.30064E-05   -0.28462E-05  2917   0.527E-03
  45 F= -.23365821E+04 E0= -.23365821E+04  d E =-.114923E-02  mag=     1.0000
       N       E                     dE             d eps       ncg     rms          rms(c)
DAV:   1    -0.231641986583E+04    0.13859E-02   -0.18843E-01  4388   0.376E-01    0.144E-01
RMM:   2    -0.231642194650E+04   -0.20807E-02   -0.22654E-02  5839   0.767E-02    0.740E-02
RMM:   3    -0.231642211200E+04   -0.16549E-03   -0.22818E-03  4507   0.293E-02    0.489E-02
RMM:   4    -0.231642211507E+04   -0.30687E-05   -0.27483E-04  3452   0.757E-03    0.260E-02
RMM:   5    -0.231642211334E+04    0.17305E-05   -0.40186E-05  2921   0.621E-03
  46 F= -.23365830E+04 E0= -.23365830E+04  d E =-.863053E-03  mag=     1.0000
       N       E                     dE             d eps       ncg     rms          rms(c)
DAV:   1    -0.231641934762E+04    0.27674E-02   -0.24896E-01  4376   0.433E-01    0.166E-01
RMM:   2    -0.231642211893E+04   -0.27713E-02   -0.30114E-02  5831   0.887E-02    0.855E-02
RMM:   3    -0.231642234460E+04   -0.22566E-03   -0.31517E-03  4728   0.326E-02    0.572E-02
RMM:   4    -0.231642234536E+04   -0.75856E-06   -0.39012E-04  3692   0.859E-03    0.280E-02
RMM:   5    -0.231642234372E+04    0.16310E-05   -0.36381E-05  2905   0.628E-03
  47 F= -.23365832E+04 E0= -.23365832E+04  d E =-.109195E-02  mag=     1.0000
       N       E                     dE             d eps       ncg     rms          rms(c)
DAV:   1    -0.231642139796E+04    0.94739E-03   -0.19989E-01  4420   0.410E-01    0.145E-01
RMM:   2    -0.231642311242E+04   -0.17145E-02   -0.18936E-02  5754   0.774E-02    0.710E-02
RMM:   3    -0.231642322181E+04   -0.10939E-03   -0.18175E-03  4623   0.286E-02    0.462E-02
RMM:   4    -0.231642321724E+04    0.45736E-05   -0.25320E-04  3717   0.820E-03    0.221E-02
RMM:   5    -0.231642321571E+04    0.15230E-05   -0.26572E-05  2887   0.602E-03
  48 F= -.23365840E+04 E0= -.23365840E+04  d E =-.813396E-03  mag=     1.0000
       N       E                     dE             d eps       ncg     rms          rms(c)
DAV:   1    -0.231642280163E+04    0.41560E-03   -0.57546E-02  4480   0.220E-01    0.782E-02
RMM:   2    -0.231642329755E+04   -0.49592E-03   -0.54716E-03  5725   0.421E-02    0.382E-02
RMM:   3    -0.231642332985E+04   -0.32301E-04   -0.52640E-04  3659   0.166E-02    0.246E-02
RMM:   4    -0.231642332789E+04    0.19620E-05   -0.69395E-05  2859   0.464E-03
  49 F= -.23365841E+04 E0= -.23365841E+04  d E =-.894419E-03  mag=     1.0000
       N       E                     dE             d eps       ncg     rms          rms(c)
DAV:   1    -0.231642352051E+04   -0.19065E-03   -0.10777E-01  4400   0.330E-01    0.117E-01
RMM:   2    -0.231642409321E+04   -0.57271E-03   -0.66013E-03  5524   0.558E-02    0.511E-02
RMM:   3    -0.231642409629E+04   -0.30788E-05   -0.52428E-04  4334   0.228E-02    0.315E-02
RMM:   4    -0.231642408996E+04    0.63270E-05   -0.11290E-04  3673   0.743E-03    0.173E-02
RMM:   5    -0.231642408648E+04    0.34830E-05   -0.18326E-05  2841   0.588E-03
  50 F= -.23365848E+04 E0= -.23365848E+04  d E =-.709748E-03  mag=     1.0000
       N       E                     dE             d eps       ncg     rms          rms(c)
DAV:   1    -0.231642396396E+04    0.12601E-03   -0.45417E-02  4464   0.214E-01    0.758E-02
RMM:   2    -0.231642420981E+04   -0.24585E-03   -0.28094E-03  5529   0.369E-02    0.336E-02
RMM:   3    -0.231642421099E+04   -0.11823E-05   -0.22167E-04  3525   0.148E-02    0.208E-02
RMM:   4    -0.231642420722E+04    0.37738E-05   -0.46568E-05  2952   0.511E-03
  51 F= -.23365849E+04 E0= -.23365849E+04  d E =-.799025E-03  mag=     1.0000
       N       E                     dE             d eps       ncg     rms          rms(c)
DAV:   1    -0.231642463978E+04   -0.42879E-03   -0.56616E-02  4400   0.231E-01    0.700E-02
RMM:   2    -0.231642490334E+04   -0.26357E-03   -0.29752E-03  5671   0.384E-02    0.369E-02
RMM:   3    -0.231642490812E+04   -0.47780E-05   -0.25357E-04  3616   0.146E-02    0.239E-02
RMM:   4    -0.231642490646E+04    0.16626E-05   -0.46405E-05  2890   0.495E-03
  52 F= -.23365856E+04 E0= -.23365856E+04  d E =-.652180E-03  mag=     1.0000
       N       E                     dE             d eps       ncg     rms          rms(c)
DAV:   1    -0.231642377881E+04    0.11293E-02   -0.40387E-01  4376   0.618E-01    0.186E-01
RMM:   2    -0.231642565833E+04   -0.18795E-02   -0.21185E-02  5395   0.986E-02    0.978E-02
RMM:   3    -0.231642568396E+04   -0.25628E-04   -0.17196E-03  4738   0.392E-02    0.611E-02
RMM:   4    -0.231642567355E+04    0.10409E-04   -0.37030E-04  4250   0.125E-02    0.355E-02
RMM:   5    -0.231642565720E+04    0.16345E-04   -0.60146E-05  3100   0.831E-03    0.118E-02
RMM:   6    -0.231642565618E+04    0.10242E-05   -0.10332E-05  2818   0.330E-03
  53 F= -.23365862E+04 E0= -.23365862E+04  d E =-.127952E-02  mag=     1.0000
       N       E                     dE             d eps       ncg     rms          rms(c)
DAV:   1    -0.231642610898E+04   -0.45178E-03   -0.44984E-02  4592   0.204E-01    0.633E-02
RMM:   2    -0.231642630865E+04   -0.19967E-03   -0.22492E-03  5536   0.337E-02    0.326E-02
RMM:   3    -0.231642631214E+04   -0.34958E-05   -0.19789E-04  3407   0.138E-02    0.201E-02
RMM:   4    -0.231642631095E+04    0.11935E-05   -0.39996E-05  2877   0.472E-03
  54 F= -.23365868E+04 E0= -.23365868E+04  d E =-.619767E-03  mag=     1.0000
       N       E                     dE             d eps       ncg     rms          rms(c)
DAV:   1    -0.231642559076E+04    0.72139E-03   -0.40344E-01  4376   0.611E-01    0.188E-01
RMM:   2    -0.231642736697E+04   -0.17762E-02   -0.20119E-02  5425   0.983E-02    0.962E-02
RMM:   3    -0.231642737450E+04   -0.75358E-05   -0.16014E-03  4781   0.353E-02    0.587E-02
RMM:   4    -0.231642735927E+04    0.15227E-04   -0.35713E-04  4190   0.125E-02    0.317E-02
RMM:   5    -0.231642734603E+04    0.13242E-04   -0.52240E-05  3043   0.807E-03    0.103E-02
RMM:   6    -0.231642734435E+04    0.16788E-05   -0.89817E-06  2816   0.304E-03
  55 F= -.23365878E+04 E0= -.23365878E+04  d E =-.155150E-02  mag=     1.0000
       N       E                     dE             d eps       ncg     rms          rms(c)
DAV:   1    -0.231642795992E+04   -0.61388E-03   -0.68928E-02  4480   0.251E-01    0.890E-02
RMM:   2    -0.231642833885E+04   -0.37894E-03   -0.43821E-03  5670   0.451E-02    0.431E-02
RMM:   3    -0.231642834270E+04   -0.38498E-05   -0.34746E-04  3956   0.178E-02    0.260E-02
RMM:   4    -0.231642833861E+04    0.40930E-05   -0.73138E-05  3341   0.615E-03
  56 F= -.23365887E+04 E0= -.23365887E+04  d E =-.977292E-03  mag=     1.0000
       N       E                     dE             d eps       ncg     rms          rms(c)
DAV:   1    -0.231642752483E+04    0.81787E-03   -0.27486E-01  4376   0.501E-01    0.178E-01
RMM:   2    -0.231642904736E+04   -0.15225E-02   -0.17603E-02  5744   0.902E-02    0.861E-02
RMM:   3    -0.231642904627E+04    0.10917E-05   -0.12524E-03  4900   0.322E-02    0.514E-02
RMM:   4    -0.231642902575E+04    0.20523E-04   -0.26910E-04  4150   0.113E-02    0.216E-02
RMM:   5    -0.231642902408E+04    0.16653E-05   -0.27302E-05  2885   0.744E-03
  57 F= -.23365894E+04 E0= -.23365894E+04  d E =-.163072E-02  mag=     1.0000
       N       E                     dE             d eps       ncg     rms          rms(c)
DAV:   1    -0.231642924013E+04   -0.21438E-03   -0.71023E-02  4512   0.240E-01    0.849E-02
RMM:   2    -0.231642971780E+04   -0.47767E-03   -0.53506E-03  5731   0.443E-02    0.437E-02
RMM:   3    -0.231642973271E+04   -0.14915E-04   -0.39195E-04  3482   0.152E-02    0.274E-02
RMM:   4    -0.231642973243E+04    0.28500E-06   -0.66352E-05  2916   0.534E-03
  58 F= -.23365901E+04 E0= -.23365901E+04  d E =-.687840E-03  mag=     1.0000
       N       E                     dE             d eps       ncg     rms          rms(c)
DAV:   1    -0.231642626092E+04    0.34718E-02   -0.63859E-01  4376   0.719E-01    0.252E-01
RMM:   2    -0.231643053955E+04   -0.42786E-02   -0.48177E-02  5570   0.130E-01    0.130E-01
RMM:   3    -0.231643065603E+04   -0.11648E-03   -0.33899E-03  4972   0.494E-02    0.834E-02
RMM:   4    -0.231643064851E+04    0.75228E-05   -0.57370E-04  4232   0.139E-02    0.475E-02
RMM:   5    -0.231643062429E+04    0.24215E-04   -0.11616E-04  3447   0.936E-03    0.157E-02
RMM:   6    -0.231643062246E+04    0.18275E-05   -0.16064E-05  2832   0.420E-03
  59 F= -.23365909E+04 E0= -.23365909E+04  d E =-.152019E-02  mag=     1.0000
       N       E                     dE             d eps       ncg     rms          rms(c)
DAV:   1    -0.231643106770E+04   -0.44341E-03   -0.15576E-01  4400   0.350E-01    0.129E-01
RMM:   2    -0.231643196319E+04   -0.89550E-03   -0.10262E-02  5697   0.633E-02    0.661E-02
RMM:   3    -0.231643197993E+04   -0.16736E-04   -0.76671E-04  4447   0.257E-02    0.401E-02
RMM:   4    -0.231643197418E+04    0.57492E-05   -0.15436E-04  3731   0.813E-03    0.169E-02
RMM:   5    -0.231643197345E+04    0.72694E-06   -0.19995E-05  2848   0.579E-03
  60 F= -.23365922E+04 E0= -.23365922E+04  d E =-.128577E-02  mag=     1.0000
       N       E                     dE             d eps       ncg     rms          rms(c)
DAV:   1    -0.231643068376E+04    0.12904E-02   -0.35694E-01  4376   0.530E-01    0.196E-01
RMM:   2    -0.231643274875E+04   -0.20650E-02   -0.23647E-02  5556   0.950E-02    0.100E-01
RMM:   3    -0.231643277509E+04   -0.26342E-04   -0.16800E-03  4796   0.333E-02    0.603E-02
RMM:   4    -0.231643275586E+04    0.19231E-04   -0.35317E-04  4150   0.117E-02    0.222E-02
RMM:   5    -0.231643275529E+04    0.57215E-06   -0.25909E-05  2867   0.786E-03
  61 F= -.23365929E+04 E0= -.23365929E+04  d E =-.197189E-02  mag=     1.0000
       N       E                     dE             d eps       ncg     rms          rms(c)
DAV:   1    -0.231643340061E+04   -0.64475E-03   -0.21951E-01  4376   0.399E-01    0.146E-01
RMM:   2    -0.231643441046E+04   -0.10098E-02   -0.11883E-02  5591   0.690E-02    0.779E-02
RMM:   3    -0.231643442143E+04   -0.10978E-04   -0.89256E-04  4407   0.227E-02    0.471E-02
RMM:   4    -0.231643441285E+04    0.85816E-05   -0.19332E-04  3932   0.849E-03    0.176E-02
RMM:   5    -0.231643441056E+04    0.22955E-05   -0.17589E-05  2849   0.574E-03
  62 F= -.23365944E+04 E0= -.23365944E+04  d E =-.157003E-02  mag=     1.0000
       N       E                     dE             d eps       ncg     rms          rms(c)
DAV:   1    -0.231643194996E+04    0.24629E-02   -0.80993E-01  4376   0.767E-01    0.280E-01
RMM:   2    -0.231643566306E+04   -0.37131E-02   -0.43747E-02  5552   0.134E-01    0.148E-01
RMM:   3    -0.231643570902E+04   -0.45963E-04   -0.34751E-03  4955   0.443E-02    0.899E-02
RMM:   4    -0.231643566982E+04    0.39200E-04   -0.72201E-04  4453   0.156E-02    0.316E-02
RMM:   5    -0.231643566298E+04    0.68401E-05   -0.52288E-05  3017   0.957E-03
  63 F= -.23365955E+04 E0= -.23365955E+04  d E =-.266694E-02  mag=     1.0000
       N       E                     dE             d eps       ncg     rms          rms(c)
DAV:   1    -0.231643651649E+04   -0.84667E-03   -0.25083E-01  4392   0.407E-01    0.148E-01
RMM:   2    -0.231643726401E+04   -0.74752E-03   -0.93580E-03  5535   0.684E-02    0.803E-02
RMM:   3    -0.231643726013E+04    0.38761E-05   -0.75326E-04  4334   0.204E-02    0.467E-02
RMM:   4    -0.231643725144E+04    0.86951E-05   -0.16956E-04  3923   0.853E-03    0.172E-02
RMM:   5    -0.231643724890E+04    0.25341E-05   -0.17972E-05  2832   0.552E-03
  64 F= -.23365971E+04 E0= -.23365971E+04  d E =-.152817E-02  mag=     1.0000
       N       E                     dE             d eps       ncg     rms          rms(c)
DAV:   1    -0.231643605924E+04    0.11922E-02   -0.79930E-01  4376   0.728E-01    0.263E-01
RMM:   2    -0.231643839974E+04   -0.23405E-02   -0.29554E-02  5536   0.122E-01    0.143E-01
RMM:   3    -0.231643837671E+04    0.23026E-04   -0.24352E-03  4825   0.381E-02    0.828E-02
RMM:   4    -0.231643834300E+04    0.33712E-04   -0.55576E-04  4475   0.146E-02    0.290E-02
RMM:   5    -0.231643833380E+04    0.92000E-05   -0.45445E-05  2963   0.877E-03
  65 F= -.23365981E+04 E0= -.23365981E+04  d E =-.251928E-02  mag=     1.0000
       N       E                     dE             d eps       ncg     rms          rms(c)
DAV:   1    -0.231643930476E+04   -0.96176E-03   -0.43214E-01  4408   0.526E-01    0.197E-01
RMM:   2    -0.231644036736E+04   -0.10626E-02   -0.13704E-02  5572   0.883E-02    0.103E-01
RMM:   3    -0.231644032269E+04    0.44670E-04   -0.10436E-03  4552   0.263E-02    0.559E-02
RMM:   4    -0.231644030959E+04    0.13107E-04   -0.27609E-04  4165   0.115E-02    0.170E-02
RMM:   5    -0.231644030939E+04    0.19613E-06   -0.21294E-05  2879   0.670E-03
  66 F= -.23366000E+04 E0= -.23366000E+04  d E =-.192293E-02  mag=     1.0000
       N       E                     dE             d eps       ncg     rms          rms(c)
DAV:   1    -0.231644000788E+04    0.30170E-03   -0.42535E-01  4408   0.522E-01    0.195E-01
RMM:   2    -0.231644106591E+04   -0.10580E-02   -0.13594E-02  5589   0.874E-02    0.102E-01
RMM:   3    -0.231644101656E+04    0.49350E-04   -0.96268E-04  4570   0.267E-02    0.562E-02
RMM:   4    -0.231644100546E+04    0.11107E-04   -0.29683E-04  4208   0.116E-02    0.240E-02
RMM:   5    -0.231644099941E+04    0.60464E-05   -0.33377E-05  2909   0.695E-03
  67 F= -.23366006E+04 E0= -.23366006E+04  d E =-.256688E-02  mag=     1.0000
       N       E                     dE             d eps       ncg     rms          rms(c)
DAV:   1    -0.231644172861E+04   -0.72315E-03   -0.56402E-01  4376   0.596E-01    0.230E-01
RMM:   2    -0.231644339817E+04   -0.16696E-02   -0.20572E-02  5683   0.104E-01    0.123E-01
RMM:   3    -0.231644334551E+04    0.52668E-04   -0.14869E-03  4708   0.307E-02    0.702E-02
RMM:   4    -0.231644332908E+04    0.16423E-04   -0.38046E-04  4398   0.130E-02    0.302E-02
RMM:   5    -0.231644331953E+04    0.95516E-05   -0.57076E-05  3038   0.778E-03
  68 F= -.23366029E+04 E0= -.23366029E+04  d E =-.228318E-02  mag=     1.0000
       N       E                     dE             d eps       ncg     rms          rms(c)
DAV:   1    -0.231644283338E+04    0.49570E-03   -0.36632E-01  4376   0.481E-01    0.186E-01
RMM:   2    -0.231644393228E+04   -0.10989E-02   -0.13440E-02  5686   0.851E-02    0.100E-01
RMM:   3    -0.231644389320E+04    0.39071E-04   -0.89006E-04  4700   0.233E-02    0.566E-02
RMM:   4    -0.231644387920E+04    0.14000E-04   -0.24225E-04  4105   0.103E-02    0.210E-02
RMM:   5    -0.231644387545E+04    0.37585E-05   -0.28015E-05  2920   0.647E-03
  69 F= -.23366034E+04 E0= -.23366034E+04  d E =-.281558E-02  mag=     1.0000
       N       E                     dE             d eps       ncg     rms          rms(c)
DAV:   1    -0.231644372879E+04    0.15042E-03   -0.65722E-01  4376   0.644E-01    0.250E-01
RMM:   2    -0.231644620753E+04   -0.24787E-02   -0.29183E-02  5713   0.117E-01    0.137E-01
RMM:   3    -0.231644617728E+04    0.30251E-04   -0.20577E-03  4882   0.341E-02    0.790E-02
RMM:   4    -0.231644616164E+04    0.15636E-04   -0.48601E-04  4529   0.137E-02    0.356E-02
RMM:   5    -0.231644614783E+04    0.13815E-04   -0.73262E-05  3093   0.858E-03    0.159E-02
RMM:   6    -0.231644614545E+04    0.23758E-05   -0.11752E-05  2812   0.331E-03
  70 F= -.23366057E+04 E0= -.23366057E+04  d E =-.226622E-02  mag=     1.0000
       N       E                     dE             d eps       ncg     rms          rms(c)
DAV:   1    -0.231644538603E+04    0.76180E-03   -0.34806E-01  4400   0.469E-01    0.182E-01
RMM:   2    -0.231644669496E+04   -0.13089E-02   -0.15449E-02  5744   0.845E-02    0.100E-01
RMM:   3    -0.231644667789E+04    0.17068E-04   -0.11160E-03  4694   0.259E-02    0.580E-02
RMM:   4    -0.231644666718E+04    0.10709E-04   -0.25907E-04  4171   0.101E-02    0.268E-02
RMM:   5    -0.231644665840E+04    0.87820E-05   -0.39829E-05  2936   0.678E-03
  71 F= -.23366062E+04 E0= -.23366062E+04  d E =-.278262E-02  mag=     1.0000
       N       E                     dE             d eps       ncg     rms          rms(c)
DAV:   1    -0.231644690532E+04   -0.23813E-03   -0.57641E-01  4376   0.589E-01    0.228E-01
RMM:   2    -0.231644921552E+04   -0.23102E-02   -0.26667E-02  5662   0.103E-01    0.129E-01
RMM:   3    -0.231644922802E+04   -0.12500E-04   -0.21079E-03  4789   0.354E-02    0.705E-02
RMM:   4    -0.231644921962E+04    0.83923E-05   -0.42719E-04  4252   0.120E-02    0.232E-02
RMM:   5    -0.231644922186E+04   -0.22349E-05   -0.31973E-05  2913   0.760E-03
  72 F= -.23366088E+04 E0= -.23366088E+04  d E =-.253923E-02  mag=     1.0000
       N       E                     dE             d eps       ncg     rms          rms(c)
DAV:   1    -0.231644609178E+04    0.31278E-02   -0.11064E+00  4376   0.815E-01    0.315E-01
RMM:   2    -0.231645051620E+04   -0.44244E-02   -0.51146E-02  5631   0.143E-01    0.178E-01
RMM:   3    -0.231645054159E+04   -0.25398E-04   -0.41340E-03  4779   0.504E-02    0.983E-02
RMM:   4    -0.231645052897E+04    0.12626E-04   -0.84952E-04  4697   0.169E-02    0.369E-02
RMM:   5    -0.231645052529E+04    0.36807E-05   -0.82935E-05  3184   0.103E-02
  73 F= -.23366100E+04 E0= -.23366100E+04  d E =-.382367E-02  mag=     1.0000
       N       E                     dE             d eps       ncg     rms          rms(c)
DAV:   1    -0.231645155113E+04   -0.10222E-02   -0.43113E-01  4408   0.488E-01    0.191E-01
RMM:   2    -0.231645286176E+04   -0.13106E-02   -0.15424E-02  5541   0.804E-02    0.111E-01
RMM:   3    -0.231645285243E+04    0.93323E-05   -0.12325E-03  4581   0.291E-02    0.594E-02
RMM:   4    -0.231645285347E+04   -0.10436E-05   -0.28992E-04  4032   0.101E-02    0.240E-02
RMM:   5    -0.231645285022E+04    0.32572E-05   -0.32628E-05  2905   0.633E-03
  74 F= -.23366123E+04 E0= -.23366123E+04  d E =-.226768E-02  mag=     1.0000
       N       E                     dE             d eps       ncg     rms          rms(c)
DAV:   1    -0.231644661957E+04    0.62339E-02   -0.29902E+00  4376   0.128E+00    0.501E-01
RMM:   2    -0.231645547780E+04   -0.88582E-02   -0.10572E-01  5502   0.211E-01    0.292E-01
RMM:   3    -0.231645540830E+04    0.69497E-04   -0.94970E-03  4752   0.802E-02    0.153E-01
RMM:   4    -0.231645539259E+04    0.15712E-04   -0.19157E-03  4745   0.261E-02    0.544E-02
RMM:   5    -0.231645539430E+04   -0.17073E-05   -0.20844E-04  3894   0.158E-02    0.261E-02
RMM:   6    -0.231645538412E+04    0.10179E-04   -0.35373E-05  2897   0.447E-03    0.144E-02
RMM:   7    -0.231645537947E+04    0.46493E-05   -0.13637E-05  2833   0.330E-03
  75 F= -.23366147E+04 E0= -.23366147E+04  d E =-.468540E-02  mag=     1.0000
       N       E                     dE             d eps       ncg     rms          rms(c)
DAV:   1    -0.231645688510E+04   -0.15010E-02   -0.64678E-01  4376   0.570E-01    0.230E-01
RMM:   2    -0.231645828112E+04   -0.13960E-02   -0.17674E-02  5539   0.889E-02    0.133E-01
RMM:   3    -0.231645821144E+04    0.69680E-04   -0.13746E-03  4571   0.313E-02    0.648E-02
RMM:   4    -0.231645821521E+04   -0.37718E-05   -0.33442E-04  4119   0.116E-02    0.225E-02
RMM:   5    -0.231645821625E+04   -0.10407E-05   -0.29622E-05  2890   0.655E-03
  76 F= -.23366175E+04 E0= -.23366175E+04  d E =-.278848E-02  mag=     1.0000
       N       E                     dE             d eps       ncg     rms          rms(c)
DAV:   1    -0.231645811743E+04    0.97780E-04   -0.11175E+00  4376   0.750E-01    0.303E-01
RMM:   2    -0.231646057023E+04   -0.24528E-02   -0.30756E-02  5524   0.118E-01    0.175E-01
RMM:   3    -0.231646044657E+04    0.12366E-03   -0.25052E-03  4664   0.389E-02    0.849E-02
RMM:   4    -0.231646044728E+04   -0.70539E-06   -0.56170E-04  4232   0.153E-02    0.261E-02
RMM:   5    -0.231646045231E+04   -0.50325E-05   -0.51649E-05  2982   0.817E-03
  77 F= -.23366197E+04 E0= -.23366197E+04  d E =-.498106E-02  mag=     1.0000
       N       E                     dE             d eps       ncg     rms          rms(c)
DAV:   1    -0.231645059529E+04    0.98520E-02   -0.44681E+00  4376   0.150E+00    0.602E-01
RMM:   2    -0.231646053576E+04   -0.99405E-02   -0.12454E-01  5511   0.234E-01    0.350E-01
RMM:   3    -0.231645998986E+04    0.54590E-03   -0.10428E-02  4743   0.772E-02    0.170E-01
RMM:   4    -0.231645998982E+04    0.34517E-07   -0.23348E-03  4654   0.310E-02    0.557E-02
RMM:   5    -0.231646000443E+04   -0.14608E-04   -0.25448E-04  4070   0.162E-02    0.262E-02
RMM:   6    -0.231645999483E+04    0.96062E-05   -0.43218E-05  2937   0.496E-03
  78 F= -.23366192E+04 E0= -.23366192E+04  d E =-.450394E-02  mag=     1.0000
       N       E                     dE             d eps       ncg     rms          rms(c)
DAV:   1    -0.231645789112E+04    0.21133E-02   -0.15639E+00  4392   0.884E-01    0.356E-01
RMM:   2    -0.231646121448E+04   -0.33234E-02   -0.42745E-02  5486   0.138E-01    0.206E-01
RMM:   3    -0.231646103148E+04    0.18300E-03   -0.34167E-03  4724   0.516E-02    0.101E-01
RMM:   4    -0.231646104308E+04   -0.11597E-04   -0.82187E-04  4549   0.179E-02    0.417E-02
RMM:   5    -0.231646103165E+04    0.11427E-04   -0.10253E-04  3139   0.104E-02    0.167E-02
RMM:   6    -0.231646102898E+04    0.26754E-05   -0.17985E-05  2841   0.350E-03
  79 F= -.23366203E+04 E0= -.23366203E+04  d E =-.553897E-02  mag=     1.0000
       N       E                     dE             d eps       ncg     rms          rms(c)
DAV:   1    -0.231646215096E+04   -0.11193E-02   -0.13226E+00  4376   0.787E-01    0.324E-01
RMM:   2    -0.231646501082E+04   -0.28599E-02   -0.36823E-02  5532   0.124E-01    0.190E-01
RMM:   3    -0.231646484091E+04    0.16991E-03   -0.31674E-03  4646   0.437E-02    0.898E-02
RMM:   4    -0.231646485423E+04   -0.13325E-04   -0.68416E-04  4235   0.174E-02    0.326E-02
RMM:   5    -0.231646485322E+04    0.10086E-05   -0.84780E-05  3119   0.901E-03
  80 F= -.23366242E+04 E0= -.23366242E+04  d E =-.392306E-02  mag=     1.0000
       N       E                     dE             d eps       ncg     rms          rms(c)
DAV:   1    -0.231646116580E+04    0.36884E-02   -0.27117E+00  4376   0.112E+00    0.467E-01
RMM:   2    -0.231646718785E+04   -0.60220E-02   -0.76183E-02  5521   0.177E-01    0.275E-01
RMM:   3    -0.231646683641E+04    0.35144E-03   -0.63321E-03  4711   0.609E-02    0.130E-01
RMM:   4    -0.231646686201E+04   -0.25592E-04   -0.13903E-03  4600   0.242E-02    0.457E-02
RMM:   5    -0.231646686329E+04   -0.12873E-05   -0.16332E-04  3631   0.128E-02    0.210E-02
RMM:   6    -0.231646685627E+04    0.70257E-05   -0.29528E-05  2892   0.444E-03
  81 F= -.23366264E+04 E0= -.23366264E+04  d E =-.611365E-02  mag=     1.0000
       N       E                     dE             d eps       ncg     rms          rms(c)
DAV:   1    -0.231646554577E+04    0.13175E-02   -0.19061E+00  4376   0.945E-01    0.398E-01
RMM:   2    -0.231647088464E+04   -0.53389E-02   -0.65119E-02  5635   0.155E-01    0.233E-01
RMM:   3    -0.231647090464E+04   -0.20001E-04   -0.62790E-03  4777   0.570E-02    0.124E-01
RMM:   4    -0.231647094103E+04   -0.36392E-04   -0.11729E-03  4504   0.197E-02    0.588E-02
RMM:   5    -0.231647090942E+04    0.31609E-04   -0.22701E-04  3491   0.116E-02    0.231E-02
RMM:   6    -0.231647090302E+04    0.63977E-05   -0.30279E-05  2848   0.425E-03
  82 F= -.23366307E+04 E0= -.23366307E+04  d E =-.433589E-02  mag=     1.0000
       N       E                     dE             d eps       ncg     rms          rms(c)
DAV:   1    -0.231646927860E+04    0.16308E-02   -0.10401E+00  4376   0.697E-01    0.294E-01
RMM:   2    -0.231647220523E+04   -0.29266E-02   -0.35629E-02  5619   0.114E-01    0.172E-01
RMM:   3    -0.231647220444E+04    0.79164E-06   -0.32801E-03  4721   0.440E-02    0.911E-02
RMM:   4    -0.231647222393E+04   -0.19492E-04   -0.63737E-04  4264   0.147E-02    0.423E-02
RMM:   5    -0.231647220777E+04    0.16156E-04   -0.11938E-04  3127   0.876E-03    0.171E-02
RMM:   6    -0.231647220430E+04    0.34742E-05   -0.16941E-05  2822   0.339E-03
  83 F= -.23366323E+04 E0= -.23366323E+04  d E =-.587242E-02  mag=     1.0000
       N       E                     dE             d eps       ncg     rms          rms(c)
DAV:   1    -0.231645880260E+04    0.13405E-01   -0.41497E+00  4376   0.139E+00    0.586E-01
RMM:   2    -0.231647042703E+04   -0.11624E-01   -0.14245E-01  5585   0.227E-01    0.344E-01
RMM:   3    -0.231647051929E+04   -0.92263E-04   -0.14400E-02  4809   0.879E-02    0.187E-01
RMM:   4    -0.231647059384E+04   -0.74549E-04   -0.27083E-03  4845   0.291E-02    0.913E-02
RMM:   5    -0.231647050309E+04    0.90746E-04   -0.54004E-04  4216   0.174E-02    0.356E-02
RMM:   6    -0.231647048641E+04    0.16684E-04   -0.62983E-05  2937   0.558E-03    0.163E-02
RMM:   7    -0.231647048290E+04    0.35060E-05   -0.18136E-05  2863   0.344E-03
  84 F= -.23366311E+04 E0= -.23366311E+04  d E =-.467546E-02  mag=     1.0000
       N       E                     dE             d eps       ncg     rms          rms(c)
DAV:   1    -0.231646589602E+04    0.45904E-02   -0.22847E+00  4376   0.103E+00    0.433E-01
RMM:   2    -0.231647234928E+04   -0.64533E-02   -0.78736E-02  5562   0.168E-01    0.252E-01
RMM:   3    -0.231647227905E+04    0.70226E-04   -0.64441E-03  4815   0.628E-02    0.127E-01
RMM:   4    -0.231647230152E+04   -0.22466E-04   -0.13584E-03  4612   0.206E-02    0.401E-02
RMM:   5    -0.231647231227E+04   -0.10750E-04   -0.10126E-04  3204   0.113E-02    0.190E-02
RMM:   6    -0.231647230881E+04    0.34626E-05   -0.22663E-05  2858   0.357E-03
  85 F= -.23366325E+04 E0= -.23366325E+04  d E =-.610518E-02  mag=     1.0000
       N       E                     dE             d eps       ncg     rms          rms(c)
DAV:   1    -0.231646728589E+04    0.50264E-02   -0.22881E+00  4376   0.103E+00    0.434E-01
RMM:   2    -0.231647563870E+04   -0.83528E-02   -0.98615E-02  5599   0.177E-01    0.259E-01
RMM:   3    -0.231647585511E+04   -0.21641E-03   -0.10152E-02  4821   0.728E-02    0.147E-01
RMM:   4    -0.231647588595E+04   -0.30834E-04   -0.17731E-03  4658   0.226E-02    0.724E-02
RMM:   5    -0.231647583121E+04    0.54733E-04   -0.35453E-04  3912   0.140E-02    0.294E-02
RMM:   6    -0.231647581906E+04    0.12154E-04   -0.40793E-05  2875   0.476E-03    0.130E-02
RMM:   7    -0.231647581625E+04    0.28109E-05   -0.12170E-05  2844   0.301E-03
  86 F= -.23366364E+04 E0= -.23366364E+04  d E =-.386673E-02  mag=     1.0000
       N       E                     dE             d eps       ncg     rms          rms(c)
DAV:   1    -0.231647447620E+04    0.13429E-02   -0.43170E-01  4432   0.446E-01    0.189E-01
RMM:   2    -0.231647605664E+04   -0.15804E-02   -0.18577E-02  5577   0.761E-02    0.113E-01
RMM:   3    -0.231647607641E+04   -0.19761E-04   -0.16822E-03  4461   0.323E-02    0.624E-02
RMM:   4    -0.231647608305E+04   -0.66465E-05   -0.33130E-04  3888   0.101E-02    0.287E-02
RMM:   5    -0.231647607496E+04    0.80871E-05   -0.51491E-05  2977   0.666E-03
  87 F= -.23366368E+04 E0= -.23366368E+04  d E =-.429245E-02  mag=     1.0000
       N       E                     dE             d eps       ncg     rms          rms(c)
DAV:   1    -0.231647209370E+04    0.39893E-02   -0.14360E+00  4376   0.854E-01    0.354E-01
RMM:   2    -0.231647867931E+04   -0.65856E-02   -0.75170E-02  5572   0.152E-01    0.206E-01
RMM:   3    -0.231647889599E+04   -0.21668E-03   -0.70233E-03  4868   0.618E-02    0.118E-01
RMM:   4    -0.231647888980E+04    0.61964E-05   -0.12328E-03  4567   0.183E-02    0.466E-02
RMM:   5    -0.231647888515E+04    0.46431E-05   -0.13483E-04  3428   0.116E-02    0.211E-02
RMM:   6    -0.231647887901E+04    0.61420E-05   -0.25964E-05  2852   0.388E-03
  88 F= -.23366398E+04 E0= -.23366398E+04  d E =-.303630E-02  mag=     1.0000
       N       E                     dE             d eps       ncg     rms          rms(c)
DAV:   1    -0.231647784321E+04    0.10419E-02   -0.26259E-01  4480   0.367E-01    0.151E-01
RMM:   2    -0.231647905925E+04   -0.12160E-02   -0.13824E-02  5726   0.663E-02    0.880E-02
RMM:   3    -0.231647909984E+04   -0.40592E-04   -0.12824E-03  4398   0.269E-02    0.508E-02
RMM:   4    -0.231647909904E+04    0.80549E-06   -0.23391E-04  3619   0.842E-03    0.210E-02
RMM:   5    -0.231647909641E+04    0.26275E-05   -0.30258E-05  2931   0.543E-03
  89 F= -.23366401E+04 E0= -.23366401E+04  d E =-.335799E-02  mag=     1.0000
       N       E                     dE             d eps       ncg     rms          rms(c)
DAV:   1    -0.231647623413E+04    0.28649E-02   -0.11449E+00  4376   0.830E-01    0.328E-01
RMM:   2    -0.231648154093E+04   -0.53068E-02   -0.61066E-02  5610   0.146E-01    0.182E-01
RMM:   3    -0.231648165834E+04   -0.11741E-03   -0.52933E-03  4954   0.556E-02    0.108E-01
RMM:   4    -0.231648162305E+04    0.35295E-04   -0.93270E-04  4513   0.168E-02    0.409E-02
RMM:   5    -0.231648161896E+04    0.40858E-05   -0.80525E-05  3214   0.110E-02
  90 F= -.23366428E+04 E0= -.23366428E+04  d E =-.262217E-02  mag=     1.0000
       N       E                     dE             d eps       ncg     rms          rms(c)
DAV:   1    -0.231648043689E+04    0.11862E-02   -0.26158E-01  4432   0.397E-01    0.157E-01
RMM:   2    -0.231648166142E+04   -0.12245E-02   -0.13946E-02  5694   0.717E-02    0.878E-02
RMM:   3    -0.231648169704E+04   -0.35623E-04   -0.12783E-03  4445   0.238E-02    0.518E-02
RMM:   4    -0.231648169007E+04    0.69759E-05   -0.22635E-04  3750   0.882E-03    0.200E-02
RMM:   5    -0.231648168848E+04    0.15876E-05   -0.22347E-05  2876   0.549E-03
  91 F= -.23366429E+04 E0= -.23366429E+04  d E =-.274333E-02  mag=     1.0000
       N       E                     dE             d eps       ncg     rms          rms(c)
DAV:   1    -0.231647856860E+04    0.31215E-02   -0.12689E+00  4376   0.875E-01    0.326E-01
RMM:   2    -0.231648338674E+04   -0.48181E-02   -0.55959E-02  5607   0.146E-01    0.187E-01
RMM:   3    -0.231648340812E+04   -0.21380E-04   -0.45387E-03  4965   0.517E-02    0.107E-01
RMM:   4    -0.231648337860E+04    0.29525E-04   -0.90714E-04  4513   0.168E-02    0.377E-02
RMM:   5    -0.231648337576E+04    0.28429E-05   -0.67052E-05  3116   0.101E-02
  92 F= -.23366447E+04 E0= -.23366447E+04  d E =-.179338E-02  mag=     1.0000
       N       E                     dE             d eps       ncg     rms          rms(c)
DAV:   1    -0.231648322024E+04    0.15836E-03   -0.41303E-02  4776   0.159E-01    0.601E-02
RMM:   2    -0.231648337837E+04   -0.15813E-03   -0.17884E-03  5626   0.277E-02    0.347E-02
RMM:   3    -0.231648338218E+04   -0.38098E-05   -0.16314E-04  3015   0.967E-03    0.198E-02
RMM:   4    -0.231648338206E+04    0.12568E-06   -0.32270E-05  2855   0.373E-03
  93 F= -.23366447E+04 E0= -.23366447E+04  d E =-.182059E-02  mag=     1.0000
       N       E                     dE             d eps       ncg     rms          rms(c)
DAV:   1    -0.231648296915E+04    0.41303E-03   -0.65428E-01  4376   0.716E-01    0.265E-01
RMM:   2    -0.231648511525E+04   -0.21461E-02   -0.25618E-02  5349   0.114E-01    0.129E-01
RMM:   3    -0.231648504469E+04    0.70560E-04   -0.20096E-03  4681   0.452E-02    0.735E-02
RMM:   4    -0.231648502944E+04    0.15250E-04   -0.52188E-04  4606   0.157E-02    0.380E-02
RMM:   5    -0.231648501207E+04    0.17363E-04   -0.81037E-05  3261   0.110E-02    0.132E-02
RMM:   6    -0.231648500951E+04    0.25647E-05   -0.13591E-05  2819   0.320E-03
  94 F= -.23366466E+04 E0= -.23366466E+04  d E =-.188198E-02  mag=     1.0000
       N       E                     dE             d eps       ncg     rms          rms(c)
DAV:   1    -0.231648494533E+04    0.66742E-04   -0.19688E-02  4880   0.125E-01    0.462E-02
RMM:   2    -0.231648501222E+04   -0.66887E-04   -0.79007E-04  5480   0.211E-02    0.229E-02
RMM:   3    -0.231648500972E+04    0.25010E-05   -0.59725E-05  2890   0.865E-03
  95 F= -.23366466E+04 E0= -.23366466E+04  d E =-.192687E-02  mag=     1.0000
       N       E                     dE             d eps       ncg     rms          rms(c)
DAV:   1    -0.231648420329E+04    0.80893E-03   -0.52726E-01  4388   0.650E-01    0.231E-01
RMM:   2    -0.231648639916E+04   -0.21959E-02   -0.25628E-02  5548   0.107E-01    0.119E-01
RMM:   3    -0.231648639026E+04    0.89006E-05   -0.20484E-03  4834   0.362E-02    0.703E-02
RMM:   4    -0.231648636810E+04    0.22159E-04   -0.40622E-04  4358   0.129E-02    0.313E-02
RMM:   5    -0.231648635973E+04    0.83684E-05   -0.50298E-05  3003   0.901E-03
  96 F= -.23366483E+04 E0= -.23366483E+04  d E =-.170941E-02  mag=     1.0000
       N       E                     dE             d eps       ncg     rms          rms(c)
DAV:   1    -0.231648570956E+04    0.65854E-03   -0.12228E-01  4480   0.313E-01    0.112E-01
RMM:   2    -0.231648622966E+04   -0.52011E-03   -0.59990E-03  5539   0.531E-02    0.583E-02
RMM:   3    -0.231648622979E+04   -0.12486E-06   -0.50585E-04  3966   0.179E-02    0.348E-02
RMM:   4    -0.231648622246E+04    0.73341E-05   -0.91137E-05  3465   0.688E-03
  97 F= -.23366484E+04 E0= -.23366484E+04  d E =-.174754E-02  mag=     1.0000
[...]
RMM:   5    -0.231649276561E+04    0.45113E-05   -0.24278E-05  2901   0.641E-03
 111 F= -.23366561E+04 E0= -.23366561E+04  d E =-.920449E-03  mag=     1.0000
       N       E                     dE             d eps       ncg     rms          rms(c)
DAV:   1    -0.231649218514E+04    0.58498E-03   -0.11338E-01  4432   0.319E-01    0.101E-01
RMM:   2    -0.231649277409E+04   -0.58895E-03   -0.64395E-03  5355   0.518E-02    0.520E-02
RMM:   3    -0.231649278532E+04   -0.11224E-04   -0.52862E-04  3949   0.207E-02    0.312E-02
RMM:   4    -0.231649278047E+04    0.48466E-05   -0.94270E-05  3617   0.681E-03
 112 F= -.23366562E+04 E0= -.23366562E+04  d E =-.107513E-02  mag=     1.0000
       N       E                     dE             d eps       ncg     rms          rms(c)
DAV:   1    -0.231649183601E+04    0.94931E-03   -0.28579E-01  4388   0.514E-01    0.170E-01
RMM:   2    -0.231649350746E+04   -0.16715E-02   -0.18326E-02  5627   0.866E-02    0.830E-02
RMM:   3    -0.231649358567E+04   -0.78206E-04   -0.18528E-03  4721   0.420E-02    0.509E-02
RMM:   4    -0.231649358453E+04    0.11375E-05   -0.28146E-04  4110   0.103E-02    0.297E-02
RMM:   5    -0.231649357323E+04    0.11300E-04   -0.46913E-05  2978   0.751E-03    0.943E-03
RMM:   6    -0.231649357303E+04    0.19639E-06   -0.83507E-06  2810   0.339E-03
 113 F= -.23366572E+04 E0= -.23366572E+04  d E =-.965863E-03  mag=     1.0000
       N       E                     dE             d eps       ncg     rms          rms(c)
DAV:   1    -0.231649327194E+04    0.30129E-03   -0.52119E-02  4544   0.220E-01    0.720E-02
RMM:   2    -0.231649357838E+04   -0.30644E-03   -0.33477E-03  5550   0.372E-02    0.352E-02
RMM:   3    -0.231649359247E+04   -0.14098E-04   -0.33506E-04  3621   0.188E-02    0.215E-02
RMM:   4    -0.231649359186E+04    0.61380E-06   -0.52277E-05  2904   0.503E-03
 114 F= -.23366573E+04 E0= -.23366573E+04  d E =-.105922E-02  mag=     1.0000
       N       E                     dE             d eps       ncg     rms          rms(c)
DAV:   1    -0.231649341505E+04    0.17742E-03   -0.19023E-01  4400   0.430E-01    0.144E-01
RMM:   2    -0.231649432163E+04   -0.90658E-03   -0.10296E-02  5595   0.717E-02    0.682E-02
RMM:   3    -0.231649432412E+04   -0.24961E-05   -0.84051E-04  4630   0.282E-02    0.403E-02
RMM:   4    -0.231649431454E+04    0.95808E-05   -0.17637E-04  4080   0.983E-03    0.196E-02
RMM:   5    -0.231649431080E+04    0.37452E-05   -0.21956E-05  2872   0.666E-03
 115 F= -.23366581E+04 E0= -.23366581E+04  d E =-.799929E-03  mag=     1.0000
       N       E                     dE             d eps       ncg     rms          rms(c)
DAV:   1    -0.231649423714E+04    0.77399E-04   -0.16392E-02  4928   0.126E-01    0.429E-02
RMM:   2    -0.231649431797E+04   -0.80822E-04   -0.90600E-04  5503   0.223E-02    0.209E-02
RMM:   3    -0.231649431855E+04   -0.58881E-06   -0.78100E-05  2884   0.953E-03
 116 F= -.23366581E+04 E0= -.23366581E+04  d E =-.831789E-03  mag=     1.0000
       N       E                     dE             d eps       ncg     rms          rms(c)
DAV:   1    -0.231649435248E+04   -0.34517E-04   -0.15080E-01  4400   0.370E-01    0.121E-01
RMM:   2    -0.231649492028E+04   -0.56780E-03   -0.65202E-03  5400   0.587E-02    0.585E-02
RMM:   3    -0.231649490634E+04    0.13935E-04   -0.47430E-04  4359   0.194E-02    0.349E-02
RMM:   4    -0.231649490225E+04    0.40955E-05   -0.12573E-04  3927   0.815E-03    0.204E-02
RMM:   5    -0.231649489617E+04    0.60795E-05   -0.21252E-05  2856   0.566E-03
 117 F= -.23366588E+04 E0= -.23366588E+04  d E =-.642497E-03  mag=     1.0000
       N       E                     dE             d eps       ncg     rms          rms(c)
DAV:   1    -0.231649480269E+04    0.99557E-04   -0.28937E-02  4560   0.162E-01    0.530E-02
RMM:   2    -0.231649491721E+04   -0.11452E-03   -0.12902E-03  5361   0.268E-02    0.255E-02
RMM:   3    -0.231649491509E+04    0.21130E-05   -0.91997E-05  2986   0.102E-02
 118 F= -.23366588E+04 E0= -.23366588E+04  d E =-.690240E-03  mag=     1.0000
       N       E                     dE             d eps       ncg     rms          rms(c)
DAV:   1    -0.231649500946E+04   -0.92256E-04   -0.12983E-01  4400   0.344E-01    0.110E-01
RMM:   2    -0.231649547218E+04   -0.46272E-03   -0.53908E-03  5382   0.543E-02    0.542E-02
RMM:   3    -0.231649545861E+04    0.13571E-04   -0.40167E-04  4293   0.207E-02    0.315E-02
RMM:   4    -0.231649545033E+04    0.82778E-05   -0.11050E-04  3971   0.787E-03    0.112E-02
RMM:   5    -0.231649545032E+04    0.10230E-07   -0.82916E-06  2812   0.514E-03
 119 F= -.23366594E+04 E0= -.23366594E+04  d E =-.613895E-03  mag=     1.0000
       N       E                     dE             d eps       ncg     rms          rms(c)
DAV:   1    -0.231649537629E+04    0.74040E-04   -0.27592E-02  4560   0.159E-01    0.503E-02
RMM:   2    -0.231649547929E+04   -0.10300E-03   -0.11866E-03  5278   0.258E-02    0.250E-02
RMM:   3    -0.231649547569E+04    0.35993E-05   -0.86139E-05  2930   0.981E-03
 120 F= -.23366595E+04 E0= -.23366595E+04  d E =-.675699E-03  mag=     1.0000
       N       E                     dE             d eps       ncg     rms          rms(c)
DAV:   1    -0.231649554764E+04   -0.68348E-04   -0.10541E-01  4400   0.324E-01    0.115E-01
RMM:   2    -0.231649596427E+04   -0.41663E-03   -0.49278E-03  5479   0.532E-02    0.508E-02
RMM:   3    -0.231649595090E+04    0.13369E-04   -0.40003E-04  4261   0.210E-02    0.294E-02
RMM:   4    -0.231649594233E+04    0.85676E-05   -0.10077E-04  3935   0.774E-03    0.109E-02
RMM:   5    -0.231649594192E+04    0.41578E-06   -0.85996E-06  2803   0.524E-03
 121 F= -.23366600E+04 E0= -.23366600E+04  d E =-.533064E-03  mag=     1.0000
       N       E                     dE             d eps       ncg     rms          rms(c)
DAV:   1    -0.231649590638E+04    0.35951E-04   -0.91843E-03  5000   0.962E-02    0.339E-02
RMM:   2    -0.231649594498E+04   -0.38595E-04   -0.44898E-04  5280   0.167E-02    0.153E-02
RMM:   3    -0.231649594345E+04    0.15275E-05   -0.36665E-05  2833   0.703E-03
 122 F= -.23366601E+04 E0= -.23366601E+04  d E =-.554367E-03  mag=     1.0000
       N       E                     dE             d eps       ncg     rms          rms(c)
DAV:   1    -0.231649586199E+04    0.82986E-04   -0.82152E-02  4400   0.286E-01    0.106E-01
RMM:   2    -0.231649629679E+04   -0.43479E-03   -0.49771E-03  5479   0.484E-02    0.468E-02
RMM:   3    -0.231649629183E+04    0.49514E-05   -0.37840E-04  3883   0.183E-02    0.275E-02
RMM:   4    -0.231649628538E+04    0.64565E-05   -0.86035E-05  3813   0.685E-03
 123 F= -.23366605E+04 E0= -.23366605E+04  d E =-.396341E-03  mag=     1.0000
       N       E                     dE             d eps       ncg     rms          rms(c)
DAV:   1    -0.231649626240E+04    0.29429E-04   -0.28357E-03  5392   0.537E-02    0.213E-02
RMM:   2    -0.231649627923E+04   -0.16830E-04   -0.19562E-04  4669   0.109E-02    0.104E-02
RMM:   3    -0.231649627911E+04    0.12768E-06   -0.17356E-05  2756   0.521E-03
 124 F= -.23366605E+04 E0= -.23366605E+04  d E =-.400394E-03  mag=     1.0000
       N       E                     dE             d eps       ncg     rms          rms(c)
DAV:   1    -0.231649611085E+04    0.16838E-03   -0.81103E-02  4400   0.282E-01    0.101E-01
RMM:   2    -0.231649657828E+04   -0.46744E-03   -0.52729E-03  5502   0.488E-02    0.468E-02
RMM:   3    -0.231649658195E+04   -0.36711E-05   -0.44880E-04  3836   0.197E-02    0.280E-02
RMM:   4    -0.231649657520E+04    0.67510E-05   -0.85770E-05  3696   0.687E-03
 125 F= -.23366608E+04 E0= -.23366608E+04  d E =-.376646E-03  mag=     1.0000
       N       E                     dE             d eps       ncg     rms          rms(c)
DAV:   1    -0.231649653862E+04    0.43340E-04   -0.36489E-03  5336   0.603E-02    0.231E-02
RMM:   2    -0.231649656196E+04   -0.23346E-04   -0.26845E-04  5034   0.123E-02    0.116E-02
RMM:   3    -0.231649656209E+04   -0.12726E-06   -0.23061E-05  2798   0.565E-03
 126 F= -.23366608E+04 E0= -.23366608E+04  d E =-.380982E-03  mag=     1.0000
       N       E                     dE             d eps       ncg     rms          rms(c)
DAV:   1    -0.231649653471E+04    0.27247E-04   -0.76340E-02  4400   0.272E-01    0.957E-02
RMM:   2    -0.231649691356E+04   -0.37884E-03   -0.43418E-03  5562   0.460E-02    0.434E-02
RMM:   3    -0.231649690978E+04    0.37802E-05   -0.30700E-04  3675   0.153E-02    0.257E-02
RMM:   4    -0.231649690422E+04    0.55517E-05   -0.67128E-05  3434   0.640E-03
 127 F= -.23366613E+04 E0= -.23366613E+04  d E =-.426480E-03  mag=     1.0000
       N       E                     dE             d eps       ncg     rms          rms(c)
DAV:   1    -0.231649678159E+04    0.12818E-03   -0.22640E-02  4528   0.148E-01    0.526E-02
RMM:   2    -0.231649689768E+04   -0.11609E-03   -0.13228E-03  5865   0.274E-02    0.240E-02
RMM:   3    -0.231649689808E+04   -0.39539E-06   -0.10884E-04  2995   0.101E-02    0.144E-02
RMM:   4    -0.231649689602E+04    0.20547E-05   -0.18476E-05  2840   0.348E-03
 128 F= -.23366613E+04 E0= -.23366613E+04  d E =-.464673E-03  mag=     1.0000
       N       E                     dE             d eps       ncg     rms          rms(c)
DAV:   1    -0.231649694981E+04   -0.51738E-04   -0.58087E-02  4400   0.233E-01    0.781E-02
RMM:   2    -0.231649723184E+04   -0.28202E-03   -0.32127E-03  5694   0.403E-02    0.372E-02
RMM:   3    -0.231649722896E+04    0.28756E-05   -0.20925E-04  3597   0.146E-02    0.221E-02
RMM:   4    -0.231649722486E+04    0.40948E-05   -0.46255E-05  3013   0.546E-03
 129 F= -.23366617E+04 E0= -.23366617E+04  d E =-.362728E-03  mag=     1.0000
       N       E                     dE             d eps       ncg     rms          rms(c)
DAV:   1    -0.231649712042E+04    0.10854E-03   -0.29923E-02  4480   0.168E-01    0.565E-02
RMM:   2    -0.231649726756E+04   -0.14714E-03   -0.16717E-03  5812   0.301E-02    0.273E-02
RMM:   3    -0.231649726608E+04    0.14827E-05   -0.11250E-04  3160   0.110E-02    0.163E-02
RMM:   4    -0.231649726370E+04    0.23775E-05   -0.23760E-05  2839   0.403E-03
 130 F= -.23366617E+04 E0= -.23366617E+04  d E =-.426206E-03  mag=     1.0000
       N       E                     dE             d eps       ncg     rms          rms(c)
DAV:   1    -0.231649739090E+04   -0.12482E-03   -0.57258E-02  4400   0.236E-01    0.847E-02
RMM:   2    -0.231649763088E+04   -0.23997E-03   -0.28061E-03  5665   0.409E-02    0.382E-02
RMM:   3    -0.231649762097E+04    0.99041E-05   -0.19594E-04  3696   0.158E-02    0.219E-02
RMM:   4    -0.231649761505E+04    0.59249E-05   -0.51614E-05  3328   0.596E-03
 131 F= -.23366621E+04 E0= -.23366621E+04  d E =-.358936E-03  mag=     1.0000
       N       E                     dE             d eps       ncg     rms          rms(c)
DAV:   1    -0.231649760040E+04    0.20569E-04   -0.69534E-03  5168   0.826E-02    0.302E-02
RMM:   2    -0.231649763091E+04   -0.30507E-04   -0.35732E-04  5232   0.160E-02    0.141E-02
RMM:   3    -0.231649762973E+04    0.11830E-05   -0.26846E-05  2820   0.680E-03
 132 F= -.23366621E+04 E0= -.23366621E+04  d E =-.376376E-03  mag=     1.0000
       N       E                     dE             d eps       ncg     rms          rms(c)
DAV:   1    -0.231649782515E+04   -0.19424E-03   -0.49245E-02  4400   0.216E-01    0.790E-02
RMM:   2    -0.231649800449E+04   -0.17934E-03   -0.21404E-03  5486   0.359E-02    0.364E-02
RMM:   3    -0.231649799674E+04    0.77473E-05   -0.16589E-04  3375   0.124E-02    0.209E-02
RMM:   4    -0.231649799533E+04    0.14072E-05   -0.51486E-05  3259   0.582E-03
 133 F= -.23366625E+04 E0= -.23366625E+04  d E =-.371998E-03  mag=     1.0000
       N       E                     dE             d eps       ncg     rms          rms(c)
DAV:   1    -0.231649796863E+04    0.28112E-04   -0.19932E-02  4576   0.138E-01    0.510E-02
RMM:   2    -0.231649804636E+04   -0.77734E-04   -0.90626E-04  5677   0.252E-02    0.237E-02
RMM:   3    -0.231649804392E+04    0.24386E-05   -0.74418E-05  2972   0.948E-03
 134 F= -.23366625E+04 E0= -.23366625E+04  d E =-.424911E-03  mag=     1.0000
       N       E                     dE             d eps       ncg     rms          rms(c)
DAV:   1    -0.231649820872E+04   -0.16236E-03   -0.51781E-02  4400   0.220E-01    0.827E-02
RMM:   2    -0.231649839378E+04   -0.18507E-03   -0.22542E-03  5436   0.366E-02    0.387E-02
RMM:   3    -0.231649838116E+04    0.12628E-04   -0.16826E-04  3548   0.134E-02    0.225E-02
RMM:   4    -0.231649837658E+04    0.45741E-05   -0.52507E-05  3333   0.616E-03
 135 F= -.23366629E+04 E0= -.23366629E+04  d E =-.339025E-03  mag=     1.0000
       N       E                     dE             d eps       ncg     rms          rms(c)
DAV:   1    -0.231649836572E+04    0.15433E-04   -0.67996E-03  5120   0.802E-02    0.304E-02
RMM:   2    -0.231649839155E+04   -0.25824E-04   -0.31447E-04  4978   0.153E-02    0.145E-02
RMM:   3    -0.231649839035E+04    0.11969E-05   -0.27954E-05  2829   0.717E-03
 136 F= -.23366629E+04 E0= -.23366629E+04  d E =-.355220E-03  mag=     1.0000
       N       E                     dE             d eps       ncg     rms          rms(c)
DAV:   1    -0.231649851618E+04   -0.12463E-03   -0.44490E-02  4394   0.207E-01    0.798E-02
RMM:   2    -0.231649868300E+04   -0.16682E-03   -0.20413E-03  5556   0.351E-02    0.350E-02
RMM:   3    -0.231649867334E+04    0.96555E-05   -0.14614E-04  3327   0.120E-02    0.216E-02
RMM:   4    -0.231649867074E+04    0.26075E-05   -0.39701E-05  2985   0.554E-03
 137 F= -.23366632E+04 E0= -.23366632E+04  d E =-.296888E-03  mag=     1.0000
       N       E                     dE             d eps       ncg     rms          rms(c)
DAV:   1    -0.231649864720E+04    0.26149E-04   -0.75667E-03  5120   0.856E-02    0.331E-02
RMM:   2    -0.231649867754E+04   -0.30347E-04   -0.36416E-04  5165   0.163E-02    0.146E-02
RMM:   3    -0.231649867649E+04    0.10569E-05   -0.28427E-05  2826   0.734E-03
 138 F= -.23366632E+04 E0= -.23366632E+04  d E =-.309600E-03  mag=     1.0000
       N       E                     dE             d eps       ncg     rms          rms(c)
DAV:   1    -0.231649874765E+04   -0.70104E-04   -0.37040E-02  4394   0.184E-01    0.671E-02
RMM:   2    -0.231649893545E+04   -0.18780E-03   -0.21739E-03  5661   0.326E-02    0.311E-02
RMM:   3    -0.231649893308E+04    0.23672E-05   -0.15439E-04  3156   0.105E-02    0.187E-02
RMM:   4    -0.231649893038E+04    0.27028E-05   -0.35723E-05  2877   0.465E-03
 139 F= -.23366635E+04 E0= -.23366635E+04  d E =-.284270E-03  mag=     1.0000
       N       E                     dE             d eps       ncg     rms          rms(c)
DAV:   1    -0.231649883174E+04    0.10134E-03   -0.25023E-02  4432   0.151E-01    0.552E-02
RMM:   2    -0.231649895909E+04   -0.12735E-03   -0.14710E-03  5757   0.274E-02    0.256E-02
RMM:   3    -0.231649895845E+04    0.63740E-06   -0.11046E-04  3107   0.114E-02    0.154E-02
RMM:   4    -0.231649895605E+04    0.23997E-05   -0.22303E-05  2836   0.376E-03
 140 F= -.23366635E+04 E0= -.23366635E+04  d E =-.335095E-03  mag=     1.0000
       N       E                     dE             d eps       ncg     rms          rms(c)
DAV:   1    -0.231649899747E+04   -0.39014E-04   -0.37622E-02  4400   0.188E-01    0.716E-02
RMM:   2    -0.231649924037E+04   -0.24290E-03   -0.27564E-03  5782   0.348E-02    0.317E-02
RMM:   3    -0.231649924235E+04   -0.19808E-05   -0.19004E-04  3330   0.130E-02    0.191E-02
RMM:   4    -0.231649923995E+04    0.23935E-05   -0.37422E-05  2867   0.464E-03
 141 F= -.23366638E+04 E0= -.23366638E+04  d E =-.298128E-03  mag=     1.0000
       N       E                     dE             d eps       ncg     rms          rms(c)
DAV:   1    -0.231649912044E+04    0.12191E-03   -0.26781E-02  4528   0.158E-01    0.607E-02
RMM:   2    -0.231649929424E+04   -0.17381E-03   -0.19680E-03  5836   0.297E-02    0.273E-02
RMM:   3    -0.231649929661E+04   -0.23661E-05   -0.14808E-04  3210   0.121E-02    0.168E-02
RMM:   4    -0.231649929474E+04    0.18743E-05   -0.27055E-05  2838   0.398E-03
 142 F= -.23366639E+04 E0= -.23366639E+04  d E =-.364955E-03  mag=     1.0000
       N       E                     dE             d eps       ncg     rms          rms(c)
DAV:   1    -0.231649934957E+04   -0.52956E-04   -0.34336E-02  4400   0.181E-01    0.708E-02
RMM:   2    -0.231649958574E+04   -0.23617E-03   -0.26826E-03  5781   0.345E-02    0.324E-02
RMM:   3    -0.231649958588E+04   -0.14111E-06   -0.19747E-04  3386   0.142E-02    0.196E-02
RMM:   4    -0.231649958277E+04    0.31091E-05   -0.39420E-05  2917   0.503E-03
 143 F= -.23366642E+04 E0= -.23366642E+04  d E =-.275664E-03  mag=     1.0000
       N       E                     dE             d eps       ncg     rms          rms(c)
DAV:   1    -0.231649956858E+04    0.17294E-04   -0.52312E-03  5208   0.707E-02    0.283E-02
RMM:   2    -0.231649960457E+04   -0.35988E-04   -0.41495E-04  5440   0.148E-02    0.138E-02
RMM:   3    -0.231649960564E+04   -0.10658E-05   -0.41377E-05  2827   0.647E-03
 144 F= -.23366642E+04 E0= -.23366642E+04  d E =-.293643E-03  mag=     1.0000
       N       E                     dE             d eps       ncg     rms          rms(c)
DAV:   1    -0.231649970254E+04   -0.97969E-04   -0.28078E-02  4400   0.169E-01    0.695E-02
RMM:   2    -0.231649985546E+04   -0.15292E-03   -0.17835E-03  5654   0.313E-02    0.295E-02
RMM:   3    -0.231649985262E+04    0.28403E-05   -0.14433E-04  3117   0.107E-02    0.176E-02
RMM:   4    -0.231649985142E+04    0.12049E-05   -0.35080E-05  2909   0.474E-03
 145 F= -.23366644E+04 E0= -.23366644E+04  d E =-.243483E-03  mag=     1.0000
       N       E                     dE             d eps       ncg     rms          rms(c)
DAV:   1    -0.231649983362E+04    0.19000E-04   -0.62760E-03  5168   0.802E-02    0.330E-02
RMM:   2    -0.231649986872E+04   -0.35092E-04   -0.40467E-04  5461   0.162E-02    0.141E-02
RMM:   3    -0.231649986892E+04   -0.20386E-06   -0.38509E-05  2818   0.704E-03
 146 F= -.23366644E+04 E0= -.23366644E+04  d E =-.259878E-03  mag=     1.0000
       N       E                     dE             d eps       ncg     rms          rms(c)
DAV:   1    -0.231649995259E+04   -0.83871E-04   -0.29876E-02  4400   0.172E-01    0.668E-02
RMM:   2    -0.231650007580E+04   -0.12321E-03   -0.14780E-03  5618   0.307E-02    0.299E-02
RMM:   3    -0.231650006981E+04    0.59911E-05   -0.11166E-04  3129   0.106E-02    0.187E-02
RMM:   4    -0.231650006643E+04    0.33824E-05   -0.27703E-05  2867   0.499E-03
 147 F= -.23366647E+04 E0= -.23366647E+04  d E =-.221048E-03  mag=     1.0000
       N       E                     dE             d eps       ncg     rms          rms(c)
DAV:   1    -0.231650004885E+04    0.20955E-04   -0.42136E-03  5288   0.648E-02    0.253E-02
RMM:   2    -0.231650006710E+04   -0.18244E-04   -0.21616E-04  5125   0.128E-02    0.116E-02
RMM:   3    -0.231650006688E+04    0.21474E-06   -0.20707E-05  2798   0.575E-03
 148 F= -.23366647E+04 E0= -.23366647E+04  d E =-.230523E-03  mag=     1.0000
       N       E                     dE             d eps       ncg     rms          rms(c)
DAV:   1    -0.231650019142E+04   -0.12433E-03   -0.24208E-02  4394   0.151E-01    0.586E-02
RMM:   2    -0.231650026507E+04   -0.73650E-04   -0.92150E-04  5594   0.264E-02    0.258E-02
RMM:   3    -0.231650025824E+04    0.68381E-05   -0.62281E-05  3008   0.845E-03
 149 F= -.23366649E+04 E0= -.23366649E+04  d E =-.216299E-03  mag=     1.0000
       N       E                     dE             d eps       ncg     rms          rms(c)
DAV:   1    -0.231650024223E+04    0.22839E-04   -0.10211E-02  4768   0.982E-02    0.405E-02
RMM:   2    -0.231650027116E+04   -0.28925E-04   -0.39398E-04  5379   0.177E-02    0.198E-02
RMM:   3    -0.231650026840E+04    0.27567E-05   -0.34172E-05  2848   0.799E-03
 150 F= -.23366649E+04 E0= -.23366649E+04  d E =-.242998E-03  mag=     1.0000
