       N       E                     dE             d eps       ncg     rms          rms(c)
DAV:   1     0.124697988724E+05    0.12470E+05   -0.82084E+05  4416   0.143E+03
DAV:   2    -0.109487529981E+04   -0.13565E+05   -0.13024E+05  5360   0.329E+02
DAV:   3    -0.247341178902E+04   -0.13785E+04   -0.13673E+04  5288   0.108E+02
DAV:   4    -0.251195812636E+04   -0.38546E+02   -0.38374E+02  6312   0.255E+01
DAV:   5    -0.251272439012E+04   -0.76626E+00   -0.76529E+00  5520   0.290E+00    0.171E+02
RMM:   6    -0.148970743156E+04    0.10230E+04   -0.19900E+03  4363   0.393E+01    0.770E+01
RMM:   7    -0.163900584882E+04   -0.14930E+03   -0.29253E+02  5018   0.145E+01    0.575E+01
RMM:   8    -0.168344087774E+04   -0.44435E+02   -0.82966E+01  5066   0.873E+00    0.397E+01
RMM:   9    -0.178957568965E+04   -0.10613E+03   -0.55749E+01  4604   0.725E+00    0.282E+01
RMM:  10    -0.193405075480E+04   -0.14448E+03   -0.60463E+01  4808   0.704E+00    0.184E+01
RMM:  11    -0.205626619128E+04   -0.12222E+03   -0.58573E+01  4476   0.627E+00    0.138E+01
RMM:  12    -0.218264307413E+04   -0.12638E+03   -0.91833E+01  4588   0.734E+00    0.914E+00
RMM:  13    -0.227178829953E+04   -0.89145E+02   -0.81183E+01  4479   0.639E+00    0.919E+00
RMM:  14    -0.227660592317E+04   -0.48176E+01   -0.74966E+00  4707   0.326E+00    0.756E+00
RMM:  15    -0.229232826269E+04   -0.15722E+02   -0.11658E+01  4362   0.224E+00    0.476E+00
RMM:  16    -0.229914002516E+04   -0.68118E+01   -0.40208E+00  4348   0.148E+00    0.340E+00
RMM:  17    -0.230447506392E+04   -0.53350E+01   -0.30664E+00  4457   0.122E+00    0.180E+00
RMM:  18    -0.230582724884E+04   -0.13522E+01   -0.70781E-01  4604   0.726E-01    0.152E+00
RMM:  19    -0.230610790812E+04   -0.28066E+00   -0.18374E-01  4672   0.248E-01    0.888E-01
RMM:  20    -0.230627915143E+04   -0.17124E+00   -0.78569E-02  4378   0.200E-01    0.745E-01
RMM:  21    -0.230632197202E+04   -0.42821E-01   -0.21249E-02  4787   0.108E-01    0.360E-01
RMM:  22    -0.230638199237E+04   -0.60020E-01   -0.20445E-02  4382   0.921E-02    0.435E-01
RMM:  23    -0.230640777906E+04   -0.25787E-01   -0.10841E-02  4622   0.709E-02    0.453E-01
RMM:  24    -0.230642997415E+04   -0.22195E-01   -0.14189E-02  4480   0.612E-02    0.404E-01
RMM:  25    -0.230643854929E+04   -0.85751E-02   -0.49411E-03  4384   0.479E-02    0.456E-01
RMM:  26    -0.230643718785E+04    0.13614E-02   -0.44613E-04  4148   0.134E-02    0.451E-01
RMM:  27    -0.230644979916E+04   -0.12611E-01   -0.10058E-02  4269   0.415E-02    0.369E-01
RMM:  28    -0.230646094779E+04   -0.11149E-01   -0.91429E-03  4356   0.431E-02    0.416E-01
RMM:  29    -0.230646695680E+04   -0.60090E-02   -0.35578E-03  4471   0.316E-02    0.499E-01
RMM:  30    -0.230646559541E+04    0.13614E-02   -0.61397E-04  4037   0.140E-02    0.487E-01
RMM:  31    -0.230645884588E+04    0.67495E-02   -0.19060E-02  4308   0.547E-02    0.547E-01
RMM:  32    -0.230644386474E+04    0.14981E-01   -0.52043E-02  4339   0.904E-02    0.104E+00
RMM:  33    -0.230645391636E+04   -0.10052E-01   -0.99765E-03  4222   0.560E-02    0.823E-01
RMM:  34    -0.230646274114E+04   -0.88248E-02   -0.16386E-02  4269   0.498E-02    0.783E-01
RMM:  35    -0.230648378785E+04   -0.21047E-01   -0.39690E-02  4360   0.772E-02    0.176E+00
RMM:  36    -0.230648049382E+04    0.32940E-02   -0.28546E-03  4127   0.473E-02    0.135E+00
RMM:  37    -0.230646830857E+04    0.12185E-01   -0.15194E-02  4290   0.495E-02    0.781E-01
RMM:  38    -0.230646053257E+04    0.77760E-02   -0.18464E-02  4264   0.571E-02    0.992E-01
RMM:  39    -0.230645017591E+04    0.10357E-01   -0.23604E-02  4669   0.619E-02    0.123E+00
RMM:  40    -0.230643980428E+04    0.10372E-01   -0.17295E-02  4445   0.566E-02    0.146E+00
RMM:  41    -0.230644943819E+04   -0.96339E-02   -0.67002E-03  4149   0.355E-02    0.115E+00
RMM:  42    -0.230645766338E+04   -0.82252E-02   -0.10635E-02  4242   0.396E-02    0.912E-01
RMM:  43    -0.230647667309E+04   -0.19010E-01   -0.59965E-02  4335   0.850E-02    0.789E-01
RMM:  44    -0.230648801436E+04   -0.11341E-01   -0.19484E-02  4322   0.638E-02    0.128E+00
RMM:  45    -0.230649597649E+04   -0.79621E-02   -0.80753E-03  4607   0.336E-02    0.169E+00
RMM:  46    -0.230649859974E+04   -0.26233E-02   -0.11568E-03  4054   0.204E-02    0.180E+00
RMM:  47    -0.230649758999E+04    0.10097E-02   -0.98015E-05  3097   0.738E-03    0.183E+00
RMM:  48    -0.230650058172E+04   -0.29917E-02   -0.55226E-04  4057   0.104E-02    0.232E+00
RMM:  49    -0.230650028930E+04    0.29243E-03   -0.14607E-04  3174   0.949E-03    0.243E+00
RMM:  50    -0.230649874705E+04    0.15422E-02   -0.14648E-04  3024   0.644E-03    0.240E+00
RMM:  51    -0.230648629927E+04    0.12448E-01   -0.55046E-03  4053   0.271E-02    0.169E+00
RMM:  52    -0.230648626919E+04    0.30074E-04   -0.56434E-04  3513   0.171E-02    0.163E+00
RMM:  53    -0.230648110694E+04    0.51623E-02   -0.28766E-03  3894   0.185E-02    0.142E+00
RMM:  54    -0.230646700214E+04    0.14105E-01   -0.36960E-02  4246   0.701E-02    0.129E+00
RMM:  55    -0.230646376968E+04    0.32325E-02   -0.64020E-03  4082   0.477E-02    0.123E+00
RMM:  56    -0.230646370053E+04    0.69153E-04   -0.24764E-03  3912   0.155E-02    0.130E+00
RMM:  57    -0.230646340015E+04    0.30038E-03   -0.26306E-04  3299   0.118E-02    0.134E+00
RMM:  58    -0.230646057199E+04    0.28282E-02   -0.14550E-03  3902   0.140E-02    0.132E+00
RMM:  59    -0.230644475947E+04    0.15813E-01   -0.29749E-02  4303   0.648E-02    0.151E+00
RMM:  60    -0.230643986059E+04    0.48989E-02   -0.53551E-03  4083   0.446E-02    0.156E+00
RMM:  61    -0.230643670340E+04    0.31572E-02   -0.34961E-03  4143   0.196E-02    0.160E+00
RMM:  62    -0.230643556940E+04    0.11340E-02   -0.51102E-04  3433   0.155E-02    0.163E+00
RMM:  63    -0.230643622578E+04   -0.65638E-03   -0.53238E-05  2828   0.379E-03    0.162E+00
RMM:  64    -0.230643604446E+04    0.18132E-03   -0.84229E-06  2658   0.219E-03    0.163E+00
RMM:  65    -0.230643555958E+04    0.48488E-03   -0.21570E-05  2616   0.226E-03    0.163E+00
RMM:  66    -0.230644432688E+04   -0.87673E-02   -0.77869E-03  4036   0.303E-02    0.142E+00
RMM:  67    -0.230644938803E+04   -0.50612E-02   -0.49060E-03  3939   0.283E-02    0.122E+00
RMM:  68    -0.230645893657E+04   -0.95485E-02   -0.17301E-02  4257   0.493E-02    0.857E-01
RMM:  69    -0.230646399399E+04   -0.50574E-02   -0.76962E-03  4101   0.455E-02    0.716E-01
RMM:  70    -0.230646830825E+04   -0.43143E-02   -0.82811E-03  4201   0.305E-02    0.620E-01
RMM:  71    -0.230647375176E+04   -0.54435E-02   -0.67687E-03  4138   0.349E-02    0.618E-01
RMM:  72    -0.230647792975E+04   -0.41780E-02   -0.44669E-03  4299   0.270E-02    0.705E-01
RMM:  73    -0.230647740573E+04    0.52403E-03   -0.30324E-04  3429   0.142E-02    0.700E-01
RMM:  74    -0.230647741421E+04   -0.84881E-05   -0.34504E-05  2863   0.386E-03
   1 F= -.23265837E+04 E0= -.23265799E+04  d E =-.232658E+04  mag=     2.1255
       N       E                     dE             d eps       ncg     rms          rms(c)
DAV:   1    -0.230625164689E+04    0.22576E+00   -0.94672E+01  4432   0.668E+00    0.346E+00
RMM:   2    -0.230816844089E+04   -0.19168E+01   -0.16469E+01  6544   0.181E+00    0.576E+00
RMM:   3    -0.230819560276E+04   -0.27162E-01   -0.13027E+00  5899   0.502E-01    0.491E+00
RMM:   4    -0.230808665276E+04    0.10895E+00   -0.44380E-01  5381   0.243E-01    0.367E+00
RMM:   5    -0.230803641097E+04    0.50242E-01   -0.10100E-01  5465   0.144E-01    0.279E+00
RMM:   6    -0.230802855988E+04    0.78511E-02   -0.14064E-01  4826   0.170E-01    0.251E+00
RMM:   7    -0.230804130902E+04   -0.12749E-01   -0.49993E-02  4589   0.141E-01    0.175E+00
RMM:   8    -0.230809438464E+04   -0.53076E-01   -0.69403E-02  4426   0.116E-01    0.101E+00
RMM:   9    -0.230813941498E+04   -0.45030E-01   -0.48812E-02  4521   0.107E-01    0.431E-01
RMM:  10    -0.230816619512E+04   -0.26780E-01   -0.18774E-02  4613   0.672E-02    0.331E-01
RMM:  11    -0.230819607091E+04   -0.29876E-01   -0.13210E-02  4464   0.602E-02    0.218E-01
RMM:  12    -0.230822442399E+04   -0.28353E-01   -0.80041E-03  4466   0.541E-02    0.152E-01
RMM:  13    -0.230824161323E+04   -0.17189E-01   -0.51751E-03  4521   0.421E-02    0.908E-02
RMM:  14    -0.230824986053E+04   -0.82473E-02   -0.30306E-03  4385   0.330E-02    0.557E-02
RMM:  15    -0.230825220202E+04   -0.23415E-02   -0.50806E-04  4235   0.171E-02    0.336E-02
RMM:  16    -0.230825420213E+04   -0.20001E-02   -0.29418E-04  3858   0.107E-02    0.211E-02
RMM:  17    -0.230825538352E+04   -0.11814E-02   -0.16886E-04  3724   0.928E-03    0.153E-02
RMM:  18    -0.230825575804E+04   -0.37452E-03   -0.54152E-05  3357   0.554E-03    0.107E-02
RMM:  19    -0.230825598753E+04   -0.22949E-03   -0.39329E-05  3219   0.471E-03    0.553E-03
RMM:  20    -0.230825603396E+04   -0.46433E-04   -0.12918E-05  2830   0.388E-03    0.368E-03
RMM:  21    -0.230825604506E+04   -0.11096E-04   -0.64569E-06  2528   0.268E-03    0.196E-03
RMM:  22    -0.230825604757E+04   -0.25138E-05   -0.30422E-06  2477   0.226E-03
   2 F= -.23283637E+04 E0= -.23283637E+04  d E =-.177999E+01  mag=    -0.0003
       N       E                     dE             d eps       ncg     rms          rms(c)
DAV:   1    -0.228815850623E+04    0.20098E+02   -0.98611E+02  4360   0.215E+01    0.807E+00
RMM:   2    -0.231028315440E+04   -0.22125E+02   -0.22261E+02  6517   0.765E+00    0.665E+00
RMM:   3    -0.230749145616E+04    0.27917E+01   -0.97162E+00  4649   0.250E+00    0.407E+00
RMM:   4    -0.230735994851E+04    0.13151E+00   -0.22397E+00  5714   0.581E-01    0.263E+00
RMM:   5    -0.230727452018E+04    0.85428E-01   -0.43945E-01  5710   0.403E-01    0.127E+00
RMM:   6    -0.230726039290E+04    0.14127E-01   -0.18475E-01  5889   0.209E-01    0.526E-01
RMM:   7    -0.230725373926E+04    0.66536E-02   -0.11839E-02  5400   0.821E-02    0.255E-01
RMM:   8    -0.230725218449E+04    0.15548E-02   -0.90242E-03  5280   0.463E-02    0.927E-02
RMM:   9    -0.230725189216E+04    0.29233E-03   -0.61989E-04  4604   0.271E-02    0.521E-02
RMM:  10    -0.230725175603E+04    0.13613E-03   -0.56138E-04  4697   0.150E-02    0.330E-02
RMM:  11    -0.230725170729E+04    0.48740E-04   -0.18357E-04  4612   0.121E-02    0.174E-02
RMM:  12    -0.230725173271E+04   -0.25424E-04   -0.73430E-05  3842   0.655E-03    0.130E-02
RMM:  13    -0.230725176593E+04   -0.33213E-04   -0.49015E-05  3494   0.677E-03    0.508E-03
RMM:  14    -0.230725178396E+04   -0.18031E-04   -0.15900E-05  2853   0.438E-03    0.407E-03
RMM:  15    -0.230725179230E+04   -0.83458E-05   -0.61431E-06  2793   0.354E-03
   3 F= -.23273722E+04 E0= -.23273722E+04  d E =-.788426E+00  mag=    -0.0000
       N       E                     dE             d eps       ncg     rms          rms(c)
DAV:   1    -0.229821175157E+04    0.90400E+01   -0.45140E+02  4396   0.189E+01    0.767E+00
RMM:   2    -0.231475073604E+04   -0.16539E+02   -0.16078E+02  6475   0.532E+00    0.121E+01
RMM:   3    -0.230961951747E+04    0.51312E+01   -0.79547E+00  5530   0.149E+00    0.499E+00
RMM:   4    -0.230929724357E+04    0.32227E+00   -0.19521E+00  5787   0.404E-01    0.267E+00
RMM:   5    -0.230920047223E+04    0.96771E-01   -0.12003E-01  5368   0.214E-01    0.185E+00
RMM:   6    -0.230915329317E+04    0.47179E-01   -0.16441E-01  5291   0.193E-01    0.601E-01
RMM:   7    -0.230914860971E+04    0.46835E-02   -0.14387E-02  5183   0.118E-01    0.373E-01
RMM:   8    -0.230914583098E+04    0.27787E-02   -0.55505E-03  4940   0.350E-02    0.997E-02
RMM:   9    -0.230914559256E+04    0.23842E-03   -0.70965E-04  4523   0.241E-02    0.623E-02
RMM:  10    -0.230914550050E+04    0.92058E-04   -0.42419E-04  4433   0.116E-02    0.487E-02
RMM:  11    -0.230914545674E+04    0.43756E-04   -0.60649E-05  3463   0.859E-03    0.123E-02
RMM:  12    -0.230914545984E+04   -0.31005E-05   -0.83240E-05  3883   0.626E-03
   4 F= -.23292553E+04 E0= -.23292553E+04  d E =-.267153E+01  mag=    -0.0000
       N       E                     dE             d eps       ncg     rms          rms(c)
DAV:   1    -0.230766192093E+04    0.14835E+01   -0.10089E+02  4376   0.717E+00    0.280E+00
RMM:   2    -0.230946894731E+04   -0.18070E+01   -0.18637E+01  6536   0.245E+00    0.253E+00
RMM:   3    -0.230933266530E+04    0.13628E+00   -0.12503E+00  5471   0.695E-01    0.122E+00
RMM:   4    -0.230932794131E+04    0.47240E-02   -0.26601E-01  5367   0.167E-01    0.753E-01
RMM:   5    -0.230932445853E+04    0.34828E-02   -0.40521E-02  5695   0.121E-01    0.617E-01
RMM:   6    -0.230931768039E+04    0.67781E-02   -0.17502E-02  6168   0.742E-02    0.180E-01
RMM:   7    -0.230931726498E+04    0.41540E-03   -0.21714E-03  5059   0.183E-02    0.950E-02
RMM:   8    -0.230931702110E+04    0.24388E-03   -0.46453E-04  4617   0.144E-02    0.222E-02
RMM:   9    -0.230931699502E+04    0.26074E-04   -0.16617E-04  4039   0.772E-03    0.245E-02
RMM:  10    -0.230931697492E+04    0.20107E-04   -0.36307E-05  3030   0.609E-03    0.578E-03
RMM:  11    -0.230931697357E+04    0.13444E-05   -0.17722E-05  2834   0.410E-03
   5 F= -.23294307E+04 E0= -.23294307E+04  d E =-.284697E+01  mag=    -0.0000
       N       E                     dE             d eps       ncg     rms          rms(c)
DAV:   1    -0.230908592346E+04    0.23105E+00   -0.17449E+01  4432   0.334E+00    0.115E+00
RMM:   2    -0.230939960611E+04   -0.31368E+00   -0.33420E+00  6506   0.901E-01    0.677E-01
RMM:   3    -0.230941770745E+04   -0.18101E-01   -0.33390E-01  5920   0.240E-01    0.686E-01
RMM:   4    -0.230941670926E+04    0.99819E-03   -0.36400E-02  6095   0.626E-02    0.417E-01
RMM:   5    -0.230941424374E+04    0.24655E-02   -0.44672E-03  5028   0.287E-02    0.243E-01
RMM:   6    -0.230941350781E+04    0.73593E-03   -0.45954E-03  5448   0.396E-02    0.768E-02
RMM:   7    -0.230941337845E+04    0.12936E-03   -0.48642E-04  4672   0.143E-02    0.449E-02
RMM:   8    -0.230941332027E+04    0.58180E-04   -0.21325E-04  3436   0.926E-03    0.140E-02
RMM:   9    -0.230941331279E+04    0.74773E-05   -0.56455E-05  2921   0.484E-03
   6 F= -.23295252E+04 E0= -.23295252E+04  d E =-.294146E+01  mag=    -0.0000
       N       E                     dE             d eps       ncg     rms          rms(c)
DAV:   1    -0.230847182657E+04    0.94149E+00   -0.84677E+01  4360   0.782E+00    0.314E+00
RMM:   2    -0.231021501103E+04   -0.17432E+01   -0.18555E+01  6518   0.257E+00    0.242E+00
RMM:   3    -0.231010735007E+04    0.10766E+00   -0.12758E+00  5179   0.710E-01    0.116E+00
RMM:   4    -0.231010253888E+04    0.48112E-02   -0.24381E-01  5297   0.169E-01    0.726E-01
RMM:   5    -0.231009613144E+04    0.64074E-02   -0.34054E-02  5535   0.118E-01    0.478E-01
RMM:   6    -0.231009192518E+04    0.42063E-02   -0.13397E-02  6150   0.729E-02    0.146E-01
RMM:   7    -0.231009154117E+04    0.38401E-03   -0.18951E-03  5149   0.203E-02    0.956E-02
RMM:   8    -0.231009128107E+04    0.26010E-03   -0.58174E-04  4750   0.168E-02    0.239E-02
RMM:   9    -0.231009125079E+04    0.30283E-04   -0.12562E-04  3998   0.780E-03    0.124E-02
RMM:  10    -0.231009124708E+04    0.37083E-05   -0.35227E-05  3228   0.699E-03
   7 F= -.23302057E+04 E0= -.23302057E+04  d E =-.680459E+00  mag=    -0.0000
       N       E                     dE             d eps       ncg     rms          rms(c)
DAV:   1    -0.231006966685E+04    0.21584E-01   -0.16845E+00  4896   0.117E+00    0.441E-01
RMM:   2    -0.231010224667E+04   -0.32580E-01   -0.35251E-01  6478   0.347E-01    0.297E-01
RMM:   3    -0.231010277497E+04   -0.52829E-03   -0.29853E-02  5574   0.916E-02    0.165E-01
RMM:   4    -0.231010266886E+04    0.10610E-03   -0.39951E-03  4739   0.206E-02    0.108E-01
RMM:   5    -0.231010245448E+04    0.21438E-03   -0.77277E-04  5250   0.184E-02    0.286E-02
RMM:   6    -0.231010244150E+04    0.12982E-04   -0.10316E-04  3507   0.758E-03    0.118E-02
RMM:   7    -0.231010243566E+04    0.58439E-05   -0.23000E-05  2936   0.465E-03
   8 F= -.23302173E+04 E0= -.23302173E+04  d E =-.692073E+00  mag=    -0.0000
       N       E                     dE             d eps       ncg     rms          rms(c)
DAV:   1    -0.231010271548E+04   -0.27398E-03   -0.37681E+01  4376   0.515E+00    0.203E+00
RMM:   2    -0.231064669502E+04   -0.54398E+00   -0.60386E+00  6450   0.156E+00    0.169E+00
RMM:   3    -0.231062137828E+04    0.25317E-01   -0.47860E-01  6143   0.364E-01    0.874E-01
RMM:   4    -0.231061777476E+04    0.36035E-02   -0.69550E-02  5114   0.939E-02    0.541E-01
RMM:   5    -0.231061475077E+04    0.30240E-02   -0.17095E-02  5046   0.833E-02    0.175E-01
RMM:   6    -0.231061436787E+04    0.38290E-03   -0.31491E-03  5361   0.437E-02    0.109E-01
RMM:   7    -0.231061416057E+04    0.20730E-03   -0.42761E-04  4148   0.119E-02    0.562E-02
RMM:   8    -0.231061408651E+04    0.74067E-04   -0.39480E-04  4148   0.129E-02    0.134E-02
RMM:   9    -0.231061408552E+04    0.98199E-06   -0.79829E-05  2989   0.566E-03
   9 F= -.23307290E+04 E0= -.23307290E+04  d E =-.511774E+00  mag=    -0.0000
       N       E                     dE             d eps       ncg     rms          rms(c)
DAV:   1    -0.231061325038E+04    0.83612E-03   -0.66812E-01  4720   0.666E-01    0.252E-01
RMM:   2    -0.231062144488E+04   -0.81945E-02   -0.91769E-02  6436   0.176E-01    0.197E-01
RMM:   3    -0.231062149878E+04   -0.53898E-04   -0.82264E-03  5365   0.439E-02    0.110E-01
RMM:   4    -0.231062142764E+04    0.71136E-04   -0.10322E-03  4424   0.130E-02    0.720E-02
RMM:   5    -0.231062137334E+04    0.54307E-04   -0.28558E-04  4080   0.117E-02    0.147E-02
RMM:   6    -0.231062136901E+04    0.43254E-05   -0.28665E-05  2921   0.522E-03
  10 F= -.23307364E+04 E0= -.23307364E+04  d E =-.519128E+00  mag=    -0.0000
       N       E                     dE             d eps       ncg     rms          rms(c)
DAV:   1    -0.231071869133E+04   -0.97318E-01   -0.84985E+00  4400   0.278E+00    0.974E-01
RMM:   2    -0.231074966053E+04   -0.30969E-01   -0.40606E-01  5844   0.525E-01    0.400E-01
RMM:   3    -0.231074779616E+04    0.18644E-02   -0.29605E-02  4860   0.159E-01    0.236E-01
RMM:   4    -0.231074704700E+04    0.74916E-03   -0.10687E-02  5288   0.682E-02    0.135E-01
RMM:   5    -0.231074661242E+04    0.43458E-03   -0.11477E-03  5463   0.365E-02    0.535E-02
RMM:   6    -0.231074649881E+04    0.11361E-03   -0.19888E-04  4305   0.834E-03    0.282E-02
RMM:   7    -0.231074642389E+04    0.74922E-04   -0.10693E-04  4173   0.921E-03    0.115E-02
RMM:   8    -0.231074640468E+04    0.19212E-04   -0.28001E-05  3208   0.519E-03    0.725E-03
RMM:   9    -0.231074639844E+04    0.62426E-05   -0.21719E-05  2926   0.519E-03
  11 F= -.23308622E+04 E0= -.23308622E+04  d E =-.125789E+00  mag=     0.0000
       N       E                     dE             d eps       ncg     rms          rms(c)
DAV:   1    -0.231075409302E+04   -0.76883E-02   -0.18350E+00  4592   0.129E+00    0.451E-01
RMM:   2    -0.231076071384E+04   -0.66208E-02   -0.86585E-02  5881   0.241E-01    0.186E-01
RMM:   3    -0.231076032211E+04    0.39172E-03   -0.64566E-03  4811   0.790E-02    0.109E-01
RMM:   4    -0.231076010655E+04    0.21556E-03   -0.22529E-03  5156   0.320E-02    0.359E-02
RMM:   5    -0.231076006219E+04    0.44363E-04   -0.15697E-04  4536   0.164E-02    0.280E-02
RMM:   6    -0.231076003973E+04    0.22454E-04   -0.35095E-05  2913   0.447E-03    0.136E-02
RMM:   7    -0.231076002317E+04    0.16563E-04   -0.28297E-05  2989   0.445E-03    0.576E-03
RMM:   8    -0.231076001936E+04    0.38058E-05   -0.82253E-06  2788   0.428E-03
  12 F= -.23308762E+04 E0= -.23308762E+04  d E =-.139774E+00  mag=     0.0000
       N       E                     dE             d eps       ncg     rms          rms(c)
DAV:   1    -0.231084532030E+04   -0.85297E-01   -0.72720E+00  4388   0.250E+00    0.660E-01
RMM:   2    -0.231086364336E+04   -0.18323E-01   -0.23387E-01  5815   0.406E-01    0.389E-01
RMM:   3    -0.231086316900E+04    0.47436E-03   -0.20335E-02  5672   0.130E-01    0.288E-01
RMM:   4    -0.231086220196E+04    0.96704E-03   -0.38460E-03  5403   0.397E-02    0.161E-01
RMM:   5    -0.231086193317E+04    0.26879E-03   -0.17634E-03  4861   0.300E-02    0.279E-02
RMM:   6    -0.231086189962E+04    0.33551E-04   -0.12970E-04  4148   0.128E-02    0.157E-02
RMM:   7    -0.231086189379E+04    0.58340E-05   -0.28602E-05  3008   0.457E-03
  13 F= -.23309793E+04 E0= -.23309793E+04  d E =-.103162E+00  mag=    -0.0000
       N       E                     dE             d eps       ncg     rms          rms(c)
DAV:   1    -0.231087992386E+04   -0.18024E-01   -0.12672E+01  4376   0.329E+00    0.871E-01
RMM:   2    -0.231091181748E+04   -0.31894E-01   -0.41037E-01  5793   0.532E-01    0.508E-01
RMM:   3    -0.231091098017E+04    0.83731E-03   -0.33925E-02  5630   0.173E-01    0.377E-01
RMM:   4    -0.231090927855E+04    0.17016E-02   -0.63898E-03  5478   0.527E-02    0.209E-01
RMM:   5    -0.231090883382E+04    0.44473E-03   -0.32589E-03  4818   0.389E-02    0.364E-02
RMM:   6    -0.231090877191E+04    0.61906E-04   -0.20035E-04  4580   0.170E-02    0.209E-02
RMM:   7    -0.231090876156E+04    0.10355E-04   -0.46845E-05  3319   0.530E-03    0.898E-03
RMM:   8    -0.231090875786E+04    0.36949E-05   -0.95123E-06  2808   0.409E-03
  14 F= -.23310279E+04 E0= -.23310279E+04  d E =-.151764E+00  mag=     0.0000
       N       E                     dE             d eps       ncg     rms          rms(c)
DAV:   1    -0.231096723109E+04   -0.58470E-01   -0.67811E+00  4432   0.254E+00    0.663E-01
RMM:   2    -0.231099224561E+04   -0.25015E-01   -0.29855E-01  6063   0.433E-01    0.360E-01
RMM:   3    -0.231099179329E+04    0.45232E-03   -0.20484E-02  5405   0.124E-01    0.228E-01
RMM:   4    -0.231099142648E+04    0.36681E-03   -0.37838E-03  4846   0.394E-02    0.128E-01
RMM:   5    -0.231099127961E+04    0.14687E-03   -0.12527E-03  5069   0.303E-02    0.654E-02
RMM:   6    -0.231099119653E+04    0.83081E-04   -0.10792E-04  3560   0.852E-03    0.174E-02
RMM:   7    -0.231099119171E+04    0.48254E-05   -0.34354E-05  2930   0.570E-03
  15 F= -.23311110E+04 E0= -.23311110E+04  d E =-.830698E-01  mag=     0.0000
       N       E                     dE             d eps       ncg     rms          rms(c)
DAV:   1    -0.231099437087E+04   -0.31743E-02   -0.67401E+00  4400   0.253E+00    0.655E-01
RMM:   2    -0.231101947019E+04   -0.25099E-01   -0.29777E-01  6051   0.431E-01    0.356E-01
RMM:   3    -0.231101897965E+04    0.49055E-03   -0.20378E-02  5399   0.125E-01    0.228E-01
RMM:   4    -0.231101864396E+04    0.33568E-03   -0.35833E-03  4980   0.386E-02    0.147E-01
RMM:   5    -0.231101842321E+04    0.22075E-03   -0.14657E-03  5273   0.310E-02    0.619E-02
RMM:   6    -0.231101835032E+04    0.72890E-04   -0.10584E-04  3605   0.866E-03    0.177E-02
RMM:   7    -0.231101834598E+04    0.43384E-05   -0.32807E-05  2918   0.574E-03
  16 F= -.23311389E+04 E0= -.23311389E+04  d E =-.110918E+00  mag=     0.0000
       N       E                     dE             d eps       ncg     rms          rms(c)
DAV:   1    -0.231105969973E+04   -0.41349E-01   -0.58451E+00  4388   0.229E+00    0.707E-01
RMM:   2    -0.231108333888E+04   -0.23639E-01   -0.26425E-01  5969   0.459E-01    0.633E-01
RMM:   3    -0.231107740485E+04    0.59340E-02   -0.21165E-02  5825   0.119E-01    0.282E-01
RMM:   4    -0.231107610145E+04    0.13034E-02   -0.30753E-03  4767   0.379E-02    0.146E-01
RMM:   5    -0.231107574922E+04    0.35223E-03   -0.14682E-03  4907   0.314E-02    0.298E-02
RMM:   6    -0.231107570936E+04    0.39862E-04   -0.16463E-04  4802   0.152E-02    0.155E-02
RMM:   7    -0.231107569137E+04    0.17984E-04   -0.39969E-05  3210   0.556E-03    0.637E-03
RMM:   8    -0.231107568732E+04    0.40556E-05   -0.10331E-05  2808   0.415E-03
  17 F= -.23311965E+04 E0= -.23311965E+04  d E =-.576148E-01  mag=    -0.0000
       N       E                     dE             d eps       ncg     rms          rms(c)
DAV:   1    -0.231107956515E+04   -0.38738E-02   -0.42637E+00  4432   0.196E+00    0.605E-01
RMM:   2    -0.231109691735E+04   -0.17352E-01   -0.19342E-01  5966   0.387E-01    0.558E-01
RMM:   3    -0.231109225638E+04    0.46610E-02   -0.15457E-02  5848   0.102E-01    0.243E-01
RMM:   4    -0.231109127650E+04    0.97988E-03   -0.22945E-03  4729   0.321E-02    0.124E-01
RMM:   5    -0.231109100834E+04    0.26817E-03   -0.10446E-03  4912   0.265E-02    0.265E-02
RMM:   6    -0.231109097594E+04    0.32399E-04   -0.11497E-04  4628   0.129E-02    0.136E-02
RMM:   7    -0.231109096079E+04    0.15143E-04   -0.37643E-05  3157   0.559E-03    0.515E-03
RMM:   8    -0.231109095880E+04    0.19923E-05   -0.92932E-06  2799   0.397E-03
  18 F= -.23312120E+04 E0= -.23312120E+04  d E =-.731278E-01  mag=    -0.0000
       N       E                     dE             d eps       ncg     rms          rms(c)
DAV:   1    -0.231108758446E+04    0.33763E-02   -0.56736E+00  4376   0.215E+00    0.676E-01
RMM:   2    -0.231114576540E+04   -0.58181E-01   -0.61560E-01  6520   0.499E-01    0.595E-01
RMM:   3    -0.231114174818E+04    0.40172E-02   -0.42380E-02  6057   0.113E-01    0.293E-01
RMM:   4    -0.231114101777E+04    0.73040E-03   -0.66434E-03  4686   0.313E-02    0.171E-01
RMM:   5    -0.231114069059E+04    0.32718E-03   -0.19855E-03  5070   0.305E-02    0.385E-02
RMM:   6    -0.231114065346E+04    0.37136E-04   -0.22601E-04  4345   0.112E-02    0.237E-02
RMM:   7    -0.231114063718E+04    0.16282E-04   -0.33489E-05  2923   0.446E-03    0.846E-03
RMM:   8    -0.231114063475E+04    0.24255E-05   -0.13792E-05  2830   0.317E-03
  19 F= -.23312621E+04 E0= -.23312621E+04  d E =-.501473E-01  mag=    -0.0000
       N       E                     dE             d eps       ncg     rms          rms(c)
DAV:   1    -0.231100460215E+04    0.13604E+00   -0.17926E+01  4376   0.384E+00    0.120E+00
RMM:   2    -0.231119042326E+04   -0.18582E+00   -0.19754E+00  6491   0.940E-01    0.103E+00
RMM:   3    -0.231117727243E+04    0.13151E-01   -0.13333E-01  5990   0.215E-01    0.517E-01
RMM:   4    -0.231117502615E+04    0.22463E-02   -0.21845E-02  4744   0.581E-02    0.299E-01
RMM:   5    -0.231117405956E+04    0.96659E-03   -0.63010E-03  5167   0.557E-02    0.705E-02
RMM:   6    -0.231117393789E+04    0.12167E-03   -0.77491E-04  5226   0.198E-02    0.467E-02
RMM:   7    -0.231117387805E+04    0.59836E-04   -0.12698E-04  3372   0.742E-03    0.146E-02
RMM:   8    -0.231117387070E+04    0.73518E-05   -0.38948E-05  2959   0.481E-03
  20 F= -.23312962E+04 E0= -.23312962E+04  d E =-.842222E-01  mag=     0.0000
       N       E                     dE             d eps       ncg     rms          rms(c)
DAV:   1    -0.231116986045E+04    0.40176E-02   -0.47204E+00  4388   0.206E+00    0.622E-01
RMM:   2    -0.231122220569E+04   -0.52345E-01   -0.57430E-01  6490   0.473E-01    0.434E-01
RMM:   3    -0.231122295939E+04   -0.75371E-03   -0.46613E-02  5840   0.115E-01    0.276E-01
RMM:   4    -0.231122253379E+04    0.42561E-03   -0.57319E-03  4994   0.302E-02    0.176E-01
RMM:   5    -0.231122217008E+04    0.36371E-03   -0.21444E-03  5272   0.304E-02    0.470E-02
RMM:   6    -0.231122211806E+04    0.52020E-04   -0.17938E-04  3978   0.103E-02    0.188E-02
RMM:   7    -0.231122210782E+04    0.10236E-04   -0.46173E-05  2983   0.477E-03    0.761E-03
RMM:   8    -0.231122210735E+04    0.47206E-06   -0.87030E-06  2808   0.344E-03
  21 F= -.23313449E+04 E0= -.23313449E+04  d E =-.486937E-01  mag=     0.0000
       N       E                     dE             d eps       ncg     rms          rms(c)
DAV:   1    -0.231106311944E+04    0.15899E+00   -0.18178E+01  4376   0.406E+00    0.122E+00
RMM:   2    -0.231126758723E+04   -0.20447E+00   -0.22449E+00  6510   0.966E-01    0.840E-01
RMM:   3    -0.231126988572E+04   -0.22985E-02   -0.17523E-01  5811   0.232E-01    0.528E-01
RMM:   4    -0.231126828486E+04    0.16009E-02   -0.22037E-02  4835   0.594E-02    0.318E-01
RMM:   5    -0.231126711904E+04    0.11658E-02   -0.66938E-03  5285   0.581E-02    0.743E-02
RMM:   6    -0.231126700582E+04    0.11323E-03   -0.63112E-04  5353   0.180E-02    0.344E-02
RMM:   7    -0.231126697382E+04    0.31996E-04   -0.15135E-04  3697   0.695E-03    0.154E-02
RMM:   8    -0.231126697121E+04    0.26064E-05   -0.27928E-05  2872   0.567E-03
  22 F= -.23313907E+04 E0= -.23313907E+04  d E =-.945199E-01  mag=    -0.0000
       N       E                     dE             d eps       ncg     rms          rms(c)
DAV:   1    -0.231128893048E+04   -0.21957E-01   -0.72769E+00  4376   0.246E+00    0.702E-01
RMM:   2    -0.231133176704E+04   -0.42837E-01   -0.48035E-01  5891   0.466E-01    0.402E-01
RMM:   3    -0.231133291442E+04   -0.11474E-02   -0.47270E-02  5476   0.132E-01    0.260E-01
RMM:   4    -0.231133237402E+04    0.54040E-03   -0.50555E-03  5066   0.395E-02    0.143E-01
RMM:   5    -0.231133224924E+04    0.12478E-03   -0.16661E-03  5003   0.316E-02    0.744E-02
RMM:   6    -0.231133214067E+04    0.10858E-03   -0.18968E-04  4159   0.107E-02    0.188E-02
RMM:   7    -0.231133212946E+04    0.11206E-04   -0.40877E-05  2937   0.569E-03    0.829E-03
RMM:   8    -0.231133212651E+04    0.29539E-05   -0.14570E-05  2828   0.370E-03
  23 F= -.23314562E+04 E0= -.23314562E+04  d E =-.655255E-01  mag=    -0.0000
       N       E                     dE             d eps       ncg     rms          rms(c)
DAV:   1    -0.231127365575E+04    0.58474E-01   -0.17158E+01  4376   0.377E+00    0.107E+00
RMM:   2    -0.231137371634E+04   -0.10006E+00   -0.11227E+00  5914   0.706E-01    0.608E-01
RMM:   3    -0.231137599718E+04   -0.22808E-02   -0.10220E-01  5441   0.201E-01    0.394E-01
RMM:   4    -0.231137473703E+04    0.12601E-02   -0.11933E-02  4948   0.608E-02    0.201E-01
RMM:   5    -0.231137450205E+04    0.23499E-03   -0.34990E-03  5173   0.462E-02    0.117E-01
RMM:   6    -0.231137423173E+04    0.27032E-03   -0.46178E-04  4883   0.160E-02    0.301E-02
RMM:   7    -0.231137420181E+04    0.29925E-04   -0.10049E-04  3567   0.764E-03    0.126E-02
RMM:   8    -0.231137419396E+04    0.78493E-05   -0.27252E-05  2920   0.500E-03
  24 F= -.23314990E+04 E0= -.23314990E+04  d E =-.108252E+00  mag=     0.0000
       N       E                     dE             d eps       ncg     rms          rms(c)
DAV:   1    -0.231135570742E+04    0.18494E-01   -0.93420E+00  4376   0.271E+00    0.805E-01
RMM:   2    -0.231142247365E+04   -0.66766E-01   -0.74171E-01  6196   0.508E-01    0.486E-01
RMM:   3    -0.231142443791E+04   -0.19643E-02   -0.69692E-02  5428   0.139E-01    0.313E-01
RMM:   4    -0.231142366614E+04    0.77177E-03   -0.89638E-03  4908   0.463E-02    0.132E-01
RMM:   5    -0.231142354147E+04    0.12467E-03   -0.12461E-03  4686   0.287E-02    0.734E-02
RMM:   6    -0.231142346074E+04    0.80731E-04   -0.34672E-04  4498   0.134E-02    0.352E-02
RMM:   7    -0.231142343179E+04    0.28941E-04   -0.45956E-05  2923   0.593E-03    0.145E-02
RMM:   8    -0.231142342329E+04    0.85018E-05   -0.42023E-05  3035   0.449E-03
  25 F= -.23315488E+04 E0= -.23315488E+04  d E =-.498765E-01  mag=    -0.0000
       N       E                     dE             d eps       ncg     rms          rms(c)
DAV:   1    -0.231139388432E+04    0.29547E-01   -0.58180E+00  4376   0.214E+00    0.633E-01
RMM:   2    -0.231143507457E+04   -0.41190E-01   -0.45803E-01  6145   0.397E-01    0.381E-01
RMM:   3    -0.231143628131E+04   -0.12067E-02   -0.43329E-02  5398   0.110E-01    0.245E-01
RMM:   4    -0.231143581049E+04    0.47082E-03   -0.56399E-03  4919   0.371E-02    0.102E-01
RMM:   5    -0.231143574414E+04    0.66354E-04   -0.80264E-04  4658   0.223E-02    0.687E-02
RMM:   6    -0.231143566693E+04    0.77210E-04   -0.24237E-04  4053   0.112E-02    0.259E-02
RMM:   7    -0.231143565042E+04    0.16509E-04   -0.32894E-05  2892   0.501E-03    0.118E-02
RMM:   8    -0.231143564391E+04    0.65084E-05   -0.22906E-05  2894   0.387E-03
  26 F= -.23315616E+04 E0= -.23315616E+04  d E =-.626418E-01  mag=    -0.0000
       N       E                     dE             d eps       ncg     rms          rms(c)
DAV:   1    -0.231135454936E+04    0.81101E-01   -0.10215E+01  4376   0.290E+00    0.930E-01
RMM:   2    -0.231148557265E+04   -0.13102E+00   -0.14239E+00  6432   0.671E-01    0.707E-01
RMM:   3    -0.231148637751E+04   -0.80486E-03   -0.10921E-01  5771   0.166E-01    0.430E-01
RMM:   4    -0.231148527565E+04    0.11019E-02   -0.12099E-02  4985   0.408E-02    0.276E-01
RMM:   5    -0.231148454623E+04    0.72942E-03   -0.51000E-03  5453   0.431E-02    0.671E-02
RMM:   6    -0.231148443550E+04    0.11073E-03   -0.34549E-04  4647   0.151E-02    0.286E-02
RMM:   7    -0.231148440752E+04    0.27986E-04   -0.10343E-04  3320   0.580E-03    0.121E-02
RMM:   8    -0.231148440482E+04    0.26901E-05   -0.17465E-05  2826   0.426E-03
  27 F= -.23316111E+04 E0= -.23316111E+04  d E =-.494483E-01  mag=    -0.0000
       N       E                     dE             d eps       ncg     rms          rms(c)
DAV:   1    -0.231130728655E+04    0.17712E+00   -0.15726E+01  4376   0.361E+00    0.115E+00
RMM:   2    -0.231151068407E+04   -0.20340E+00   -0.22165E+00  6461   0.858E-01    0.840E-01
RMM:   3    -0.231151329948E+04   -0.26154E-02   -0.17798E-01  5816   0.210E-01    0.514E-01
RMM:   4    -0.231151195205E+04    0.13474E-02   -0.19962E-02  4857   0.504E-02    0.327E-01
RMM:   5    -0.231151091896E+04    0.10331E-02   -0.71326E-03  5396   0.544E-02    0.860E-02
RMM:   6    -0.231151077673E+04    0.14223E-03   -0.63303E-04  5314   0.175E-02    0.384E-02
RMM:   7    -0.231151072754E+04    0.49188E-04   -0.15226E-04  3599   0.673E-03    0.189E-02
RMM:   8    -0.231151072096E+04    0.65837E-05   -0.34643E-05  2950   0.583E-03
  28 F= -.23316383E+04 E0= -.23316383E+04  d E =-.767271E-01  mag=     0.0000
       N       E                     dE             d eps       ncg     rms          rms(c)
DAV:   1    -0.231147288117E+04    0.37846E-01   -0.10067E+01  4376   0.290E+00    0.961E-01
RMM:   2    -0.231157216552E+04   -0.99284E-01   -0.10806E+00  6395   0.669E-01    0.804E-01
RMM:   3    -0.231156633452E+04    0.58310E-02   -0.80051E-02  5823   0.162E-01    0.411E-01
RMM:   4    -0.231156507583E+04    0.12587E-02   -0.10491E-02  4815   0.420E-02    0.246E-01
RMM:   5    -0.231156452573E+04    0.55010E-03   -0.38443E-03  4991   0.448E-02    0.457E-02
RMM:   6    -0.231156446005E+04    0.65674E-04   -0.39375E-04  4905   0.144E-02    0.258E-02
RMM:   7    -0.231156443413E+04    0.25920E-04   -0.93763E-05  3314   0.690E-03    0.834E-03
RMM:   8    -0.231156443173E+04    0.24012E-05   -0.15205E-05  2845   0.365E-03
  29 F= -.23316923E+04 E0= -.23316923E+04  d E =-.539210E-01  mag=    -0.0000
       N       E                     dE             d eps       ncg     rms          rms(c)
DAV:   1    -0.231147472763E+04    0.89706E-01   -0.12377E+01  4376   0.321E+00    0.107E+00
RMM:   2    -0.231159639606E+04   -0.12167E+00   -0.13249E+00  6378   0.736E-01    0.894E-01
RMM:   3    -0.231158914597E+04    0.72501E-02   -0.98764E-02  5832   0.181E-01    0.458E-01
RMM:   4    -0.231158757241E+04    0.15736E-02   -0.12943E-02  4799   0.469E-02    0.273E-01
RMM:   5    -0.231158689288E+04    0.67953E-03   -0.46847E-03  5041   0.494E-02    0.507E-02
RMM:   6    -0.231158680926E+04    0.83619E-04   -0.47542E-04  5096   0.154E-02    0.286E-02
RMM:   7    -0.231158677654E+04    0.32717E-04   -0.11330E-04  3430   0.741E-03    0.929E-03
RMM:   8    -0.231158677283E+04    0.37127E-05   -0.19545E-05  2899   0.402E-03
  30 F= -.23317149E+04 E0= -.23317149E+04  d E =-.765676E-01  mag=     0.0000
       N       E                     dE             d eps       ncg     rms          rms(c)
DAV:   1    -0.231153281500E+04    0.53962E-01   -0.14567E+01  4376   0.348E+00    0.108E+00
RMM:   2    -0.231164716229E+04   -0.11435E+00   -0.12326E+00  6323   0.764E-01    0.936E-01
RMM:   3    -0.231163813342E+04    0.90289E-02   -0.81453E-02  5845   0.180E-01    0.490E-01
RMM:   4    -0.231163581022E+04    0.23232E-02   -0.11618E-02  4800   0.492E-02    0.272E-01
RMM:   5    -0.231163508878E+04    0.72144E-03   -0.45399E-03  5171   0.485E-02    0.461E-02
RMM:   6    -0.231163500736E+04    0.81425E-04   -0.37256E-04  5149   0.159E-02    0.245E-02
RMM:   7    -0.231163498552E+04    0.21835E-04   -0.67377E-05  3250   0.651E-03    0.923E-03
RMM:   8    -0.231163498251E+04    0.30063E-05   -0.13506E-05  2882   0.395E-03
  31 F= -.23317634E+04 E0= -.23317634E+04  d E =-.485216E-01  mag=     0.0000
       N       E                     dE             d eps       ncg     rms          rms(c)
DAV:   1    -0.231155144816E+04    0.83537E-01   -0.14363E+01  4376   0.346E+00    0.108E+00
RMM:   2    -0.231166288002E+04   -0.11143E+00   -0.12038E+00  6284   0.754E-01    0.919E-01
RMM:   3    -0.231165477334E+04    0.81067E-02   -0.80839E-02  5812   0.180E-01    0.489E-01
RMM:   4    -0.231165244647E+04    0.23269E-02   -0.11329E-02  4833   0.490E-02    0.268E-01
RMM:   5    -0.231165173333E+04    0.71314E-03   -0.43446E-03  5197   0.470E-02    0.449E-02
RMM:   6    -0.231165165264E+04    0.80687E-04   -0.35392E-04  5183   0.160E-02    0.242E-02
RMM:   7    -0.231165163097E+04    0.21672E-04   -0.67011E-05  3298   0.655E-03    0.910E-03
RMM:   8    -0.231165162829E+04    0.26821E-05   -0.14616E-05  2894   0.407E-03
  32 F= -.23317804E+04 E0= -.23317804E+04  d E =-.655157E-01  mag=    -0.0000
       N       E                     dE             d eps       ncg     rms          rms(c)
DAV:   1    -0.231162828549E+04    0.23345E-01   -0.81347E+00  4400   0.266E+00    0.796E-01
RMM:   2    -0.231169486378E+04   -0.66578E-01   -0.72221E-01  6338   0.571E-01    0.560E-01
RMM:   3    -0.231169417141E+04    0.69237E-03   -0.54284E-02  5692   0.138E-01    0.353E-01
RMM:   4    -0.231169311321E+04    0.10582E-02   -0.71293E-03  4873   0.370E-02    0.195E-01
RMM:   5    -0.231169273577E+04    0.37744E-03   -0.22836E-03  5199   0.352E-02    0.467E-02
RMM:   6    -0.231169269967E+04    0.36098E-04   -0.21181E-04  4194   0.105E-02    0.199E-02
RMM:   7    -0.231169268886E+04    0.10811E-04   -0.45517E-05  3017   0.533E-03    0.772E-03
RMM:   8    -0.231169268815E+04    0.70871E-06   -0.90255E-06  2824   0.342E-03
  33 F= -.23318219E+04 E0= -.23318219E+04  d E =-.414731E-01  mag=    -0.0000
       N       E                     dE             d eps       ncg     rms          rms(c)
DAV:   1    -0.231146721136E+04    0.22548E+00   -0.33004E+01  4376   0.537E+00    0.159E+00
RMM:   2    -0.231174368380E+04   -0.27647E+00   -0.30063E+00  6384   0.118E+00    0.111E+00
RMM:   3    -0.231174038592E+04    0.32979E-02   -0.22262E-01  5663   0.284E-01    0.690E-01
RMM:   4    -0.231173631312E+04    0.40728E-02   -0.27278E-02  4780   0.745E-02    0.375E-01
RMM:   5    -0.231173517309E+04    0.11400E-02   -0.87974E-03  5326   0.681E-02    0.827E-02
RMM:   6    -0.231173504285E+04    0.13024E-03   -0.81147E-04  5445   0.200E-02    0.386E-02
RMM:   7    -0.231173500440E+04    0.38450E-04   -0.17354E-04  3741   0.778E-03    0.165E-02
RMM:   8    -0.231173500034E+04    0.40582E-05   -0.29647E-05  2933   0.564E-03
  34 F= -.23318651E+04 E0= -.23318651E+04  d E =-.846334E-01  mag=    -0.0000
       N       E                     dE             d eps       ncg     rms          rms(c)
DAV:   1    -0.231172311646E+04    0.11888E-01   -0.16604E+00  4624   0.120E+00    0.354E-01
RMM:   2    -0.231173668860E+04   -0.13572E-01   -0.14769E-01  6345   0.257E-01    0.246E-01
RMM:   3    -0.231173669701E+04   -0.84177E-05   -0.10590E-02  5460   0.604E-02    0.159E-01
RMM:   4    -0.231173649078E+04    0.20624E-03   -0.14491E-03  4704   0.172E-02    0.922E-02
RMM:   5    -0.231173640130E+04    0.89479E-04   -0.50461E-04  4795   0.162E-02    0.209E-02
RMM:   6    -0.231173639399E+04    0.73067E-05   -0.46104E-05  3084   0.560E-03
  35 F= -.23318666E+04 E0= -.23318666E+04  d E =-.862179E-01  mag=    -0.0000
       N       E                     dE             d eps       ncg     rms          rms(c)
DAV:   1    -0.231170796748E+04    0.28434E-01   -0.13507E+01  4376   0.341E+00    0.104E+00
RMM:   2    -0.231178553194E+04   -0.77564E-01   -0.86128E-01  6208   0.714E-01    0.720E-01
RMM:   3    -0.231178299647E+04    0.25355E-02   -0.57098E-02  5756   0.169E-01    0.470E-01
RMM:   4    -0.231178070547E+04    0.22910E-02   -0.88621E-03  5055   0.507E-02    0.242E-01
RMM:   5    -0.231178011649E+04    0.58898E-03   -0.31423E-03  5214   0.425E-02    0.422E-02
RMM:   6    -0.231178007871E+04    0.37783E-04   -0.30269E-04  4513   0.131E-02    0.222E-02
RMM:   7    -0.231178006185E+04    0.16858E-04   -0.57024E-05  3230   0.643E-03    0.758E-03
RMM:   8    -0.231178006105E+04    0.79427E-06   -0.11574E-05  2822   0.420E-03
  36 F= -.23319105E+04 E0= -.23319105E+04  d E =-.438361E-01  mag=     0.0000
       N       E                     dE             d eps       ncg     rms          rms(c)
DAV:   1    -0.231175394102E+04    0.26121E-01   -0.67518E+00  4376   0.240E+00    0.728E-01
RMM:   2    -0.231179232037E+04   -0.38379E-01   -0.42690E-01  6209   0.498E-01    0.501E-01
RMM:   3    -0.231179131641E+04    0.10040E-02   -0.28830E-02  5756   0.117E-01    0.331E-01
RMM:   4    -0.231179016587E+04    0.11505E-02   -0.44652E-03  5022   0.358E-02    0.173E-01
RMM:   5    -0.231178984876E+04    0.31711E-03   -0.16043E-03  5231   0.302E-02    0.306E-02
RMM:   6    -0.231178983114E+04    0.17625E-04   -0.15229E-04  3742   0.918E-03    0.158E-02
RMM:   7    -0.231178982356E+04    0.75739E-05   -0.28239E-05  2891   0.513E-03
  37 F= -.23319204E+04 E0= -.23319204E+04  d E =-.537075E-01  mag=    -0.0000
       N       E                     dE             d eps       ncg     rms          rms(c)
DAV:   1    -0.231179765037E+04   -0.78192E-02   -0.93374E+00  4376   0.278E+00    0.875E-01
RMM:   2    -0.231184052360E+04   -0.42873E-01   -0.47021E-01  6035   0.585E-01    0.703E-01
RMM:   3    -0.231183486494E+04    0.56587E-02   -0.31004E-02  5760   0.142E-01    0.389E-01
RMM:   4    -0.231183293224E+04    0.19327E-02   -0.47422E-03  4836   0.434E-02    0.185E-01
RMM:   5    -0.231183260709E+04    0.32516E-03   -0.19152E-03  5017   0.352E-02    0.285E-02
RMM:   6    -0.231183257129E+04    0.35799E-04   -0.14700E-04  4582   0.128E-02    0.168E-02
RMM:   7    -0.231183255887E+04    0.12421E-04   -0.32725E-05  3078   0.554E-03    0.558E-03
RMM:   8    -0.231183255716E+04    0.17109E-05   -0.71633E-06  2804   0.366E-03
  38 F= -.23319629E+04 E0= -.23319629E+04  d E =-.425187E-01  mag=    -0.0000
       N       E                     dE             d eps       ncg     rms          rms(c)
DAV:   1    -0.231181940932E+04    0.13150E-01   -0.67865E+00  4376   0.238E+00    0.745E-01
RMM:   2    -0.231185036492E+04   -0.30956E-01   -0.33978E-01  6026   0.492E-01    0.597E-01
RMM:   3    -0.231184637271E+04    0.39922E-02   -0.22071E-02  5731   0.117E-01    0.336E-01
RMM:   4    -0.231184488686E+04    0.14859E-02   -0.33912E-03  4816   0.379E-02    0.159E-01
RMM:   5    -0.231184464287E+04    0.24399E-03   -0.14270E-03  4979   0.302E-02    0.243E-02
RMM:   6    -0.231184461681E+04    0.26055E-04   -0.12494E-04  4279   0.118E-02    0.149E-02
RMM:   7    -0.231184460661E+04    0.10201E-04   -0.27808E-05  2997   0.510E-03    0.523E-03
RMM:   8    -0.231184460517E+04    0.14417E-05   -0.64547E-06  2800   0.340E-03
  39 F= -.23319747E+04 E0= -.23319747E+04  d E =-.543615E-01  mag=    -0.0000
       N       E                     dE             d eps       ncg     rms          rms(c)
DAV:   1    -0.231180233524E+04    0.42271E-01   -0.10836E+01  4376   0.305E+00    0.931E-01
RMM:   2    -0.231190017517E+04   -0.97840E-01   -0.10368E+00  6357   0.692E-01    0.815E-01
RMM:   3    -0.231189163802E+04    0.85372E-02   -0.59721E-02  5683   0.149E-01    0.402E-01
RMM:   4    -0.231189015911E+04    0.14789E-02   -0.87591E-03  4527   0.420E-02    0.216E-01
RMM:   5    -0.231188975308E+04    0.40603E-03   -0.27540E-03  4924   0.397E-02    0.424E-02
RMM:   6    -0.231188971166E+04    0.41423E-04   -0.32678E-04  4668   0.154E-02    0.279E-02
RMM:   7    -0.231188969100E+04    0.20656E-04   -0.42564E-05  3094   0.490E-03    0.888E-03
RMM:   8    -0.231188968860E+04    0.24013E-05   -0.17123E-05  2860   0.352E-03
  40 F= -.23320196E+04 E0= -.23320196E+04  d E =-.449017E-01  mag=    -0.0000
       N       E                     dE             d eps       ncg     rms          rms(c)
DAV:   1    -0.231165553488E+04    0.23416E+00   -0.33277E+01  4376   0.535E+00    0.161E+00
RMM:   2    -0.231195281784E+04   -0.29728E+00   -0.31684E+00  6357   0.122E+00    0.131E+00
RMM:   3    -0.231193184204E+04    0.20976E-01   -0.20625E-01  5668   0.271E-01    0.686E-01
RMM:   4    -0.231192816280E+04    0.36792E-02   -0.31166E-02  4519   0.753E-02    0.370E-01
RMM:   5    -0.231192686138E+04    0.13014E-02   -0.89963E-03  4937   0.738E-02    0.683E-02
RMM:   6    -0.231192673693E+04    0.12444E-03   -0.11138E-03  5266   0.235E-02    0.483E-02
RMM:   7    -0.231192667088E+04    0.66054E-04   -0.19315E-04  3938   0.910E-03    0.158E-02
RMM:   8    -0.231192666635E+04    0.45265E-05   -0.30317E-05  2899   0.478E-03
  41 F= -.23320562E+04 E0= -.23320562E+04  d E =-.815036E-01  mag=     0.0000
       N       E                     dE             d eps       ncg     rms          rms(c)
DAV:   1    -0.231179211030E+04    0.13456E+00   -0.18713E+01  4376   0.407E+00    0.127E+00
RMM:   2    -0.231198374084E+04   -0.19163E+00   -0.20496E+00  6285   0.930E-01    0.878E-01
RMM:   3    -0.231197941271E+04    0.43281E-02   -0.14707E-01  5517   0.222E-01    0.510E-01
RMM:   4    -0.231197745553E+04    0.19572E-02   -0.19715E-02  4487   0.580E-02    0.285E-01
RMM:   5    -0.231197665271E+04    0.80282E-03   -0.49761E-03  5027   0.542E-02    0.482E-02
RMM:   6    -0.231197659885E+04    0.53863E-04   -0.58535E-04  4907   0.175E-02    0.294E-02
RMM:   7    -0.231197657272E+04    0.26128E-04   -0.10474E-04  3416   0.668E-03    0.128E-02
RMM:   8    -0.231197657005E+04    0.26673E-05   -0.16381E-05  2826   0.414E-03
  42 F= -.23321060E+04 E0= -.23321060E+04  d E =-.497550E-01  mag=    -0.0000
       N       E                     dE             d eps       ncg     rms          rms(c)
DAV:   1    -0.231195317987E+04    0.23393E-01   -0.28656E+00  4528   0.159E+00    0.493E-01
RMM:   2    -0.231198194277E+04   -0.28763E-01   -0.30816E-01  6258   0.354E-01    0.323E-01
RMM:   3    -0.231198188184E+04    0.60928E-04   -0.22922E-02  5447   0.842E-02    0.197E-01
RMM:   4    -0.231198159105E+04    0.29079E-03   -0.30574E-03  4605   0.225E-02    0.114E-01
RMM:   5    -0.231198145075E+04    0.14030E-03   -0.81295E-04  4852   0.215E-02    0.199E-02
RMM:   6    -0.231198143977E+04    0.10975E-04   -0.70007E-05  3294   0.723E-03    0.111E-02
RMM:   7    -0.231198143560E+04    0.41756E-05   -0.21018E-05  2873   0.422E-03
  43 F= -.23321108E+04 E0= -.23321108E+04  d E =-.545689E-01  mag=    -0.0000
       N       E                     dE             d eps       ncg     rms          rms(c)
DAV:   1    -0.231194856672E+04    0.32873E-01   -0.11722E+01  4376   0.314E+00    0.935E-01
RMM:   2    -0.231202298913E+04   -0.74422E-01   -0.81126E-01  6070   0.622E-01    0.654E-01
RMM:   3    -0.231202036826E+04    0.26209E-02   -0.58772E-02  5735   0.156E-01    0.391E-01
RMM:   4    -0.231201886785E+04    0.15004E-02   -0.80039E-03  4846   0.468E-02    0.213E-01
RMM:   5    -0.231201843722E+04    0.43064E-03   -0.24518E-03  4868   0.393E-02    0.430E-02
RMM:   6    -0.231201839833E+04    0.38884E-04   -0.22688E-04  4553   0.146E-02    0.200E-02
RMM:   7    -0.231201838881E+04    0.95250E-05   -0.47773E-05  3092   0.555E-03
  44 F= -.23321475E+04 E0= -.23321475E+04  d E =-.367044E-01  mag=    -0.0000
       N       E                     dE             d eps       ncg     rms          rms(c)
DAV:   1    -0.231196508577E+04    0.53313E-01   -0.10991E+01  4376   0.303E+00    0.905E-01
RMM:   2    -0.231203406884E+04   -0.68983E-01   -0.75293E-01  6068   0.598E-01    0.627E-01
RMM:   3    -0.231203198553E+04    0.20833E-02   -0.55390E-02  5762   0.151E-01    0.381E-01
RMM:   4    -0.231203055149E+04    0.14340E-02   -0.76218E-03  4892   0.460E-02    0.208E-01
RMM:   5    -0.231203011830E+04    0.43319E-03   -0.22790E-03  4834   0.377E-02    0.421E-02
RMM:   6    -0.231203008389E+04    0.34416E-04   -0.23015E-04  4555   0.145E-02    0.198E-02
RMM:   7    -0.231203007348E+04    0.10406E-04   -0.45206E-05  3096   0.541E-03    0.777E-03
RMM:   8    -0.231203007189E+04    0.15870E-05   -0.89899E-06  2808   0.359E-03
  45 F= -.23321590E+04 E0= -.23321590E+04  d E =-.482061E-01  mag=    -0.0000
       N       E                     dE             d eps       ncg     rms          rms(c)
DAV:   1    -0.231201538979E+04    0.14684E-01   -0.67605E+00  4400   0.232E+00    0.690E-01
RMM:   2    -0.231206027521E+04   -0.44885E-01   -0.49143E-01  6112   0.447E-01    0.452E-01
RMM:   3    -0.231206047363E+04   -0.19842E-03   -0.42365E-02  5695   0.116E-01    0.284E-01
RMM:   4    -0.231205981744E+04    0.65619E-03   -0.49982E-03  4884   0.336E-02    0.158E-01
RMM:   5    -0.231205961775E+04    0.19968E-03   -0.13771E-03  4848   0.279E-02    0.427E-02
RMM:   6    -0.231205959181E+04    0.25949E-04   -0.15224E-04  3865   0.101E-02    0.163E-02
RMM:   7    -0.231205958496E+04    0.68418E-05   -0.28638E-05  2886   0.471E-03
  46 F= -.23321884E+04 E0= -.23321884E+04  d E =-.293933E-01  mag=     0.0000
       N       E                     dE             d eps       ncg     rms          rms(c)
DAV:   1    -0.231190712530E+04    0.15247E+00   -0.27205E+01  4376   0.466E+00    0.138E+00
RMM:   2    -0.231208888901E+04   -0.18176E+00   -0.19911E+00  6068   0.905E-01    0.903E-01
RMM:   3    -0.231209034202E+04   -0.14530E-02   -0.18508E-01  5700   0.245E-01    0.558E-01
RMM:   4    -0.231208791381E+04    0.24282E-02   -0.19085E-02  4819   0.674E-02    0.307E-01
RMM:   5    -0.231208731114E+04    0.60267E-03   -0.55246E-03  4933   0.560E-02    0.951E-02
RMM:   6    -0.231208716847E+04    0.14267E-03   -0.56613E-04  4976   0.201E-02    0.347E-02
RMM:   7    -0.231208714217E+04    0.26304E-04   -0.14506E-04  3788   0.781E-03    0.163E-02
RMM:   8    -0.231208713583E+04    0.63348E-05   -0.19102E-05  2842   0.495E-03
  47 F= -.23322158E+04 E0= -.23322158E+04  d E =-.567981E-01  mag=     0.0000
       N       E                     dE             d eps       ncg     rms          rms(c)
DAV:   1    -0.231207028378E+04    0.16858E-01   -0.44683E+00  4432   0.194E+00    0.623E-01
RMM:   2    -0.231211031259E+04   -0.40029E-01   -0.43798E-01  6010   0.388E-01    0.362E-01
RMM:   3    -0.231211151982E+04   -0.12072E-02   -0.39460E-02  5197   0.120E-01    0.223E-01
RMM:   4    -0.231211125385E+04    0.26597E-03   -0.46801E-03  4716   0.306E-02    0.128E-01
RMM:   5    -0.231211109454E+04    0.15931E-03   -0.10709E-03  4856   0.268E-02    0.503E-02
RMM:   6    -0.231211105347E+04    0.41065E-04   -0.13434E-04  4016   0.909E-03    0.177E-02
RMM:   7    -0.231211104721E+04    0.62649E-05   -0.34264E-05  2900   0.558E-03
  48 F= -.23322397E+04 E0= -.23322397E+04  d E =-.238940E-01  mag=    -0.0000
       N       E                     dE             d eps       ncg     rms          rms(c)
DAV:   1    -0.231207096543E+04    0.40088E-01   -0.54083E+00  4376   0.213E+00    0.681E-01
RMM:   2    -0.231211970939E+04   -0.48744E-01   -0.53347E-01  5992   0.428E-01    0.393E-01
RMM:   3    -0.231212108818E+04   -0.13788E-02   -0.47579E-02  5323   0.130E-01    0.241E-01
RMM:   4    -0.231212076381E+04    0.32436E-03   -0.55045E-03  4689   0.335E-02    0.133E-01
RMM:   5    -0.231212059536E+04    0.16846E-03   -0.11870E-03  4860   0.283E-02    0.475E-02
RMM:   6    -0.231212055445E+04    0.40902E-04   -0.15997E-04  4159   0.957E-03    0.193E-02
RMM:   7    -0.231212054651E+04    0.79443E-05   -0.41478E-05  2927   0.582E-03
  49 F= -.23322492E+04 E0= -.23322492E+04  d E =-.333812E-01  mag=    -0.0000
       N       E                     dE             d eps       ncg     rms          rms(c)
DAV:   1    -0.231210027563E+04    0.20279E-01   -0.52091E+00  4400   0.213E+00    0.695E-01
RMM:   2    -0.231214239339E+04   -0.42118E-01   -0.46706E-01  5974   0.407E-01    0.406E-01
RMM:   3    -0.231214334501E+04   -0.95162E-03   -0.45907E-02  5452   0.126E-01    0.241E-01
RMM:   4    -0.231214291261E+04    0.43241E-03   -0.46297E-03  4838   0.323E-02    0.141E-01
RMM:   5    -0.231214276042E+04    0.15219E-03   -0.11546E-03  4855   0.276E-02    0.458E-02
RMM:   6    -0.231214273103E+04    0.29389E-04   -0.13219E-04  4109   0.981E-03    0.174E-02
RMM:   7    -0.231214272625E+04    0.47799E-05   -0.35019E-05  2931   0.548E-03
  50 F= -.23322712E+04 E0= -.23322712E+04  d E =-.220164E-01  mag=    -0.0000
       N       E                     dE             d eps       ncg     rms          rms(c)
DAV:   1    -0.231210370826E+04    0.39023E-01   -0.59267E+00  4376   0.226E+00    0.740E-01
RMM:   2    -0.231215122809E+04   -0.47520E-01   -0.52832E-01  5961   0.431E-01    0.427E-01
RMM:   3    -0.231215244378E+04   -0.12157E-02   -0.52482E-02  5485   0.134E-01    0.255E-01
RMM:   4    -0.231215196897E+04    0.47481E-03   -0.52392E-03  4852   0.343E-02    0.149E-01
RMM:   5    -0.231215179318E+04    0.17579E-03   -0.13074E-03  4867   0.294E-02    0.516E-02
RMM:   6    -0.231215175292E+04    0.40257E-04   -0.15721E-04  4205   0.106E-02    0.191E-02
RMM:   7    -0.231215174515E+04    0.77718E-05   -0.43136E-05  2968   0.580E-03
  51 F= -.23322800E+04 E0= -.23322800E+04  d E =-.308534E-01  mag=    -0.0000
       N       E                     dE             d eps       ncg     rms          rms(c)
DAV:   1    -0.231212853957E+04    0.23213E-01   -0.72105E+00  4388   0.246E+00    0.756E-01
RMM:   2    -0.231217572278E+04   -0.47183E-01   -0.52662E-01  5656   0.451E-01    0.481E-01
RMM:   3    -0.231217577815E+04   -0.55367E-04   -0.51470E-02  5523   0.140E-01    0.287E-01
RMM:   4    -0.231217509043E+04    0.68772E-03   -0.55776E-03  4895   0.398E-02    0.165E-01
RMM:   5    -0.231217488043E+04    0.20999E-03   -0.15118E-03  4786   0.310E-02    0.470E-02
RMM:   6    -0.231217484774E+04    0.32697E-04   -0.15004E-04  4151   0.119E-02    0.182E-02
RMM:   7    -0.231217484176E+04    0.59806E-05   -0.38402E-05  2956   0.520E-03
  52 F= -.23323029E+04 E0= -.23323029E+04  d E =-.228297E-01  mag=    -0.0000
       N       E                     dE             d eps       ncg     rms          rms(c)
DAV:   1    -0.231216349361E+04    0.11354E-01   -0.24065E+00  4464   0.142E+00    0.434E-01
RMM:   2    -0.231217903878E+04   -0.15545E-01   -0.17381E-01  5674   0.256E-01    0.274E-01
RMM:   3    -0.231217918068E+04   -0.14190E-03   -0.17347E-02  5473   0.817E-02    0.167E-01
RMM:   4    -0.231217893564E+04    0.24505E-03   -0.18221E-03  4882   0.233E-02    0.972E-02
RMM:   5    -0.231217885901E+04    0.76624E-04   -0.50964E-04  4536   0.180E-02    0.262E-02
RMM:   6    -0.231217884944E+04    0.95712E-05   -0.55361E-05  3131   0.719E-03
  53 F= -.23323067E+04 E0= -.23323067E+04  d E =-.266798E-01  mag=    -0.0000
       N       E                     dE             d eps       ncg     rms          rms(c)
DAV:   1    -0.231215599015E+04    0.22869E-01   -0.69933E+00  4376   0.253E+00    0.734E-01
RMM:   2    -0.231219574018E+04   -0.39750E-01   -0.44580E-01  5756   0.428E-01    0.394E-01
RMM:   3    -0.231219645335E+04   -0.71317E-03   -0.38264E-02  5108   0.132E-01    0.243E-01
RMM:   4    -0.231219608029E+04    0.37306E-03   -0.47721E-03  4804   0.390E-02    0.147E-01
RMM:   5    -0.231219590499E+04    0.17530E-03   -0.14141E-03  4934   0.323E-02    0.638E-02
RMM:   6    -0.231219583732E+04    0.67670E-04   -0.16313E-04  4053   0.988E-03    0.191E-02
RMM:   7    -0.231219582914E+04    0.81769E-05   -0.36525E-05  2906   0.669E-03
  54 F= -.23323236E+04 E0= -.23323236E+04  d E =-.169036E-01  mag=    -0.0000
       N       E                     dE             d eps       ncg     rms          rms(c)
DAV:   1    -0.231219099964E+04    0.48377E-02   -0.11922E+00  4560   0.104E+00    0.300E-01
RMM:   2    -0.231219765690E+04   -0.66573E-02   -0.74966E-02  5716   0.175E-01    0.158E-01
RMM:   3    -0.231219778427E+04   -0.12737E-03   -0.62243E-03  5002   0.579E-02    0.981E-02
RMM:   4    -0.231219774081E+04    0.43464E-04   -0.90202E-04  4633   0.169E-02    0.637E-02
RMM:   5    -0.231219769022E+04    0.50586E-04   -0.24585E-04  4183   0.138E-02    0.238E-02
RMM:   6    -0.231219768031E+04    0.99107E-05   -0.29666E-05  2888   0.472E-03
  55 F= -.23323254E+04 E0= -.23323254E+04  d E =-.187194E-01  mag=    -0.0000
       N       E                     dE             d eps       ncg     rms          rms(c)
DAV:   1    -0.231218210197E+04    0.15588E-01   -0.62477E+00  4376   0.241E+00    0.655E-01
RMM:   2    -0.231221136961E+04   -0.29268E-01   -0.33306E-01  5532   0.385E-01    0.351E-01
RMM:   3    -0.231221151894E+04   -0.14933E-03   -0.25619E-02  4873   0.135E-01    0.209E-01
RMM:   4    -0.231221122665E+04    0.29229E-03   -0.44156E-03  4458   0.428E-02    0.597E-02
RMM:   5    -0.231221120116E+04    0.25492E-04   -0.34981E-04  4350   0.275E-02    0.331E-02
RMM:   6    -0.231221119272E+04    0.84377E-05   -0.91273E-05  3519   0.655E-03
  56 F= -.23323388E+04 E0= -.23323388E+04  d E =-.134270E-01  mag=    -0.0000
       N       E                     dE             d eps       ncg     rms          rms(c)
DAV:   1    -0.231221068940E+04    0.51176E-03   -0.15458E-01  5040   0.379E-01    0.103E-01
RMM:   2    -0.231221143564E+04   -0.74624E-03   -0.83820E-03  5737   0.613E-02    0.557E-02
RMM:   3    -0.231221145038E+04   -0.14742E-04   -0.70478E-04  4127   0.215E-02    0.339E-02
RMM:   4    -0.231221144918E+04    0.12047E-05   -0.12312E-04  3658   0.752E-03    0.209E-02
RMM:   5    -0.231221144243E+04    0.67435E-05   -0.22889E-05  2862   0.524E-03
  57 F= -.23323391E+04 E0= -.23323391E+04  d E =-.136632E-01  mag=    -0.0000
       N       E                     dE             d eps       ncg     rms          rms(c)
DAV:   1    -0.231220804156E+04    0.34076E-02   -0.48129E+00  4376   0.208E+00    0.538E-01
RMM:   2    -0.231222459854E+04   -0.16557E-01   -0.19060E-01  5403   0.326E-01    0.300E-01
RMM:   3    -0.231222436766E+04    0.23088E-03   -0.15940E-02  5066   0.105E-01    0.184E-01
RMM:   4    -0.231222417367E+04    0.19400E-03   -0.27008E-03  4796   0.347E-02    0.110E-01
RMM:   5    -0.231222403527E+04    0.13839E-03   -0.71257E-04  4686   0.249E-02    0.451E-02
RMM:   6    -0.231222399461E+04    0.40664E-04   -0.68208E-05  3391   0.687E-03    0.142E-02
RMM:   7    -0.231222398982E+04    0.47915E-05   -0.21801E-05  2874   0.505E-03
  58 F= -.23323514E+04 E0= -.23323514E+04  d E =-.122828E-01  mag=     0.0000
       N       E                     dE             d eps       ncg     rms          rms(c)
DAV:   1    -0.231222197208E+04    0.20225E-02   -0.10941E+00  4400   0.992E-01    0.256E-01
RMM:   2    -0.231222568716E+04   -0.37151E-02   -0.42934E-02  5366   0.155E-01    0.142E-01
RMM:   3    -0.231222565180E+04    0.35359E-04   -0.39651E-03  4996   0.545E-02    0.863E-02
RMM:   4    -0.231222560011E+04    0.51689E-04   -0.65095E-04  4596   0.171E-02    0.430E-02
RMM:   5    -0.231222558168E+04    0.18436E-04   -0.12572E-04  3371   0.117E-02    0.233E-02
RMM:   6    -0.231222557076E+04    0.10923E-04   -0.17588E-05  2824   0.407E-03    0.729E-03
RMM:   7    -0.231222556949E+04    0.12613E-05   -0.57410E-06  2810   0.279E-03
  59 F= -.23323528E+04 E0= -.23323528E+04  d E =-.137351E-01  mag=     0.0000
       N       E                     dE             d eps       ncg     rms          rms(c)
DAV:   1    -0.231222324593E+04    0.23248E-02   -0.47690E+00  4376   0.206E+00    0.532E-01
RMM:   2    -0.231223771809E+04   -0.14472E-01   -0.16852E-01  5454   0.322E-01    0.298E-01
RMM:   3    -0.231223726925E+04    0.44884E-03   -0.12279E-02  5040   0.100E-01    0.194E-01
RMM:   4    -0.231223697589E+04    0.29335E-03   -0.22888E-03  4898   0.327E-02    0.130E-01
RMM:   5    -0.231223676249E+04    0.21341E-03   -0.87117E-04  4886   0.258E-02    0.310E-02
RMM:   6    -0.231223674474E+04    0.17747E-04   -0.10017E-04  3446   0.708E-03    0.139E-02
RMM:   7    -0.231223673854E+04    0.62044E-05   -0.16837E-05  2840   0.537E-03
  60 F= -.23323637E+04 E0= -.23323637E+04  d E =-.108754E-01  mag=     0.0000
       N       E                     dE             d eps       ncg     rms          rms(c)
DAV:   1    -0.231223628071E+04    0.46403E-03   -0.50546E-01  4528   0.670E-01    0.173E-01
RMM:   2    -0.231223779922E+04   -0.15185E-02   -0.17761E-02  5477   0.105E-01    0.971E-02
RMM:   3    -0.231223775732E+04    0.41902E-04   -0.13407E-03  4800   0.359E-02    0.640E-02
RMM:   4    -0.231223772365E+04    0.33669E-04   -0.24186E-04  4317   0.110E-02    0.436E-02
RMM:   5    -0.231223769865E+04    0.24997E-04   -0.96466E-05  3398   0.927E-03    0.924E-03
RMM:   6    -0.231223769712E+04    0.15260E-05   -0.15366E-05  2832   0.428E-03
  61 F= -.23323646E+04 E0= -.23323646E+04  d E =-.117361E-01  mag=     0.0000
       N       E                     dE             d eps       ncg     rms          rms(c)
DAV:   1    -0.231223799702E+04   -0.29837E-03   -0.24579E+00  4376   0.148E+00    0.388E-01
RMM:   2    -0.231224666154E+04   -0.86645E-02   -0.98944E-02  5484   0.236E-01    0.213E-01
RMM:   3    -0.231224653644E+04    0.12510E-03   -0.73410E-03  4684   0.877E-02    0.137E-01
RMM:   4    -0.231224651753E+04    0.18911E-04   -0.15163E-03  4814   0.260E-02    0.107E-01
RMM:   5    -0.231224634335E+04    0.17417E-03   -0.50343E-04  4611   0.196E-02    0.201E-02
RMM:   6    -0.231224633625E+04    0.71027E-05   -0.73537E-05  2987   0.521E-03
  62 F= -.23323729E+04 E0= -.23323729E+04  d E =-.831715E-02  mag=     0.0000
       N       E                     dE             d eps       ncg     rms          rms(c)
DAV:   1    -0.231224474569E+04    0.15977E-02   -0.97920E-01  4400   0.937E-01    0.246E-01
RMM:   2    -0.231224818961E+04   -0.34439E-02   -0.39373E-02  5484   0.149E-01    0.134E-01
RMM:   3    -0.231224811747E+04    0.72136E-04   -0.27091E-03  4754   0.494E-02    0.856E-02
RMM:   4    -0.231224811516E+04    0.23081E-05   -0.60954E-04  4669   0.166E-02    0.678E-02
RMM:   5    -0.231224804128E+04    0.73886E-04   -0.19177E-04  3970   0.119E-02    0.125E-02
RMM:   6    -0.231224803837E+04    0.29044E-05   -0.31611E-05  2862   0.409E-03
  63 F= -.23323744E+04 E0= -.23323744E+04  d E =-.981007E-02  mag=    -0.0000
       N       E                     dE             d eps       ncg     rms          rms(c)
DAV:   1    -0.231225161627E+04   -0.35750E-02   -0.17018E+00  4388   0.124E+00    0.323E-01
RMM:   2    -0.231225598962E+04   -0.43734E-02   -0.51852E-02  4976   0.181E-01    0.171E-01
RMM:   3    -0.231225566783E+04    0.32179E-03   -0.31239E-03  4690   0.683E-02    0.101E-01
RMM:   4    -0.231225567056E+04   -0.27260E-05   -0.10381E-03  4663   0.233E-02    0.706E-02
RMM:   5    -0.231225558317E+04    0.87383E-04   -0.19248E-04  3811   0.154E-02    0.163E-02
RMM:   6    -0.231225557684E+04    0.63343E-05   -0.31554E-05  2924   0.378E-03
  64 F= -.23323817E+04 E0= -.23323817E+04  d E =-.729256E-02  mag=    -0.0000
       N       E                     dE             d eps       ncg     rms          rms(c)
DAV:   1    -0.231225046607E+04    0.51171E-02   -0.45136E+00  4376   0.202E+00    0.529E-01
RMM:   2    -0.231226177677E+04   -0.11311E-01   -0.13508E-01  4937   0.293E-01    0.277E-01
RMM:   3    -0.231226088366E+04    0.89311E-03   -0.81465E-03  4676   0.108E-01    0.163E-01
RMM:   4    -0.231226086542E+04    0.18245E-04   -0.27768E-03  4662   0.376E-02    0.108E-01
RMM:   5    -0.231226065640E+04    0.20902E-03   -0.47817E-04  4325   0.247E-02    0.276E-02
RMM:   6    -0.231226063672E+04    0.19684E-04   -0.74688E-05  3405   0.568E-03    0.128E-02
RMM:   7    -0.231226063317E+04    0.35504E-05   -0.95501E-06  2834   0.455E-03
  65 F= -.23323863E+04 E0= -.23323863E+04  d E =-.119324E-01  mag=     0.0000
       N       E                     dE             d eps       ncg     rms          rms(c)
DAV:   1    -0.231226336926E+04   -0.27325E-02   -0.18220E+00  4400   0.127E+00    0.319E-01
RMM:   2    -0.231226888189E+04   -0.55126E-02   -0.64218E-02  5315   0.192E-01    0.183E-01
RMM:   3    -0.231226867061E+04    0.21128E-03   -0.42518E-03  4710   0.694E-02    0.110E-01
RMM:   4    -0.231226869102E+04   -0.20413E-04   -0.11486E-03  4629   0.232E-02    0.812E-02
RMM:   5    -0.231226857224E+04    0.11879E-03   -0.25075E-04  3915   0.160E-02    0.168E-02
RMM:   6    -0.231226856688E+04    0.53618E-05   -0.38282E-05  2925   0.369E-03
  66 F= -.23323941E+04 E0= -.23323941E+04  d E =-.780865E-02  mag=    -0.0000
       N       E                     dE             d eps       ncg     rms          rms(c)
DAV:   1    -0.231226245695E+04    0.61153E-02   -0.39108E+00  4376   0.185E+00    0.468E-01
RMM:   2    -0.231227437549E+04   -0.11919E-01   -0.13856E-01  5269   0.281E-01    0.269E-01
RMM:   3    -0.231227390048E+04    0.47501E-03   -0.91145E-03  4765   0.993E-02    0.164E-01
RMM:   4    -0.231227397223E+04   -0.71746E-04   -0.24144E-03  4709   0.342E-02    0.131E-01
RMM:   5    -0.231227367338E+04    0.29884E-03   -0.62562E-04  4461   0.233E-02    0.238E-02
RMM:   6    -0.231227366093E+04    0.12456E-04   -0.93940E-05  3216   0.541E-03    0.124E-02
RMM:   7    -0.231227365765E+04    0.32731E-05   -0.10750E-05  2808   0.408E-03
  67 F= -.23323990E+04 E0= -.23323990E+04  d E =-.127113E-01  mag=    -0.0000
       N       E                     dE             d eps       ncg     rms          rms(c)
DAV:   1    -0.231227699045E+04   -0.33295E-02   -0.21404E+00  4376   0.137E+00    0.385E-01
RMM:   2    -0.231228251218E+04   -0.55217E-02   -0.66039E-02  5432   0.216E-01    0.214E-01
RMM:   3    -0.231228219731E+04    0.31487E-03   -0.44889E-03  5045   0.706E-02    0.149E-01
RMM:   4    -0.231228195864E+04    0.23867E-03   -0.99471E-04  4828   0.222E-02    0.875E-02
RMM:   5    -0.231228187918E+04    0.79457E-04   -0.43231E-04  4623   0.182E-02    0.178E-02
RMM:   6    -0.231228187211E+04    0.70704E-05   -0.44859E-05  2934   0.580E-03
  68 F= -.23324070E+04 E0= -.23324070E+04  d E =-.802829E-02  mag=    -0.0000
       N       E                     dE             d eps       ncg     rms          rms(c)
DAV:   1    -0.231228052891E+04    0.13503E-02   -0.18951E+00  4400   0.129E+00    0.363E-01
RMM:   2    -0.231228548073E+04   -0.49518E-02   -0.59044E-02  5406   0.204E-01    0.202E-01
RMM:   3    -0.231228517645E+04    0.30428E-03   -0.37982E-03  5071   0.568E-02    0.139E-01
RMM:   4    -0.231228496714E+04    0.20932E-03   -0.87224E-04  4831   0.207E-02    0.829E-02
RMM:   5    -0.231228489267E+04    0.74466E-04   -0.39141E-04  4614   0.169E-02    0.171E-02
RMM:   6    -0.231228488522E+04    0.74508E-05   -0.40285E-05  2918   0.567E-03
  69 F= -.23324099E+04 E0= -.23324099E+04  d E =-.108636E-01  mag=    -0.0000
       N       E                     dE             d eps       ncg     rms          rms(c)
DAV:   1    -0.231228765549E+04   -0.27628E-02   -0.21228E+00  4376   0.135E+00    0.376E-01
RMM:   2    -0.231229265881E+04   -0.50033E-02   -0.61016E-02  5391   0.216E-01    0.225E-01
RMM:   3    -0.231229228399E+04    0.37482E-03   -0.38668E-03  5115   0.647E-02    0.162E-01
RMM:   4    -0.231229197198E+04    0.31200E-03   -0.10259E-03  4828   0.228E-02    0.842E-02
RMM:   5    -0.231229190623E+04    0.65754E-04   -0.41006E-04  4550   0.176E-02    0.163E-02
RMM:   6    -0.231229189701E+04    0.92224E-05   -0.37148E-05  2930   0.604E-03
  70 F= -.23324166E+04 E0= -.23324166E+04  d E =-.670257E-02  mag=     0.0000
       N       E                     dE             d eps       ncg     rms          rms(c)
DAV:   1    -0.231229175048E+04    0.15575E-03   -0.62306E-01  4448   0.731E-01    0.204E-01
RMM:   2    -0.231229322126E+04   -0.14708E-02   -0.17955E-02  5354   0.117E-01    0.122E-01
RMM:   3    -0.231229309902E+04    0.12224E-03   -0.11214E-03  4934   0.341E-02    0.878E-02
RMM:   4    -0.231229300620E+04    0.92828E-04   -0.30302E-04  4364   0.125E-02    0.456E-02
RMM:   5    -0.231229298548E+04    0.20717E-04   -0.11996E-04  3697   0.988E-03    0.888E-03
RMM:   6    -0.231229298292E+04    0.25586E-05   -0.12447E-05  2835   0.443E-03
  71 F= -.23324175E+04 E0= -.23324175E+04  d E =-.761828E-02  mag=     0.0000
       N       E                     dE             d eps       ncg     rms          rms(c)
DAV:   1    -0.231229485481E+04   -0.18693E-02   -0.21120E+00  4376   0.134E+00    0.367E-01
RMM:   2    -0.231230012808E+04   -0.52733E-02   -0.64168E-02  5438   0.208E-01    0.208E-01
RMM:   3    -0.231229975111E+04    0.37697E-03   -0.35852E-03  4756   0.631E-02    0.125E-01
RMM:   4    -0.231229972532E+04    0.25786E-04   -0.11256E-03  4786   0.236E-02    0.907E-02
RMM:   5    -0.231229959478E+04    0.13054E-03   -0.34351E-04  4224   0.176E-02    0.178E-02
RMM:   6    -0.231229958704E+04    0.77396E-05   -0.42830E-05  2910   0.394E-03
  72 F= -.23324239E+04 E0= -.23324239E+04  d E =-.640601E-02  mag=    -0.0000
       N       E                     dE             d eps       ncg     rms          rms(c)
DAV:   1    -0.231229780911E+04    0.17857E-02   -0.17379E+00  4376   0.122E+00    0.333E-01
RMM:   2    -0.231230229558E+04   -0.44865E-02   -0.54162E-02  5408   0.189E-01    0.190E-01
RMM:   3    -0.231230190704E+04    0.38854E-03   -0.29686E-03  4749   0.577E-02    0.113E-01
RMM:   4    -0.231230188526E+04    0.21775E-04   -0.95855E-04  4800   0.215E-02    0.809E-02
RMM:   5    -0.231230177770E+04    0.10756E-03   -0.28264E-04  4078   0.162E-02    0.170E-02
RMM:   6    -0.231230177058E+04    0.71185E-05   -0.35406E-05  2894   0.373E-03
  73 F= -.23324259E+04 E0= -.23324259E+04  d E =-.840378E-02  mag=    -0.0000
       N       E                     dE             d eps       ncg     rms          rms(c)
DAV:   1    -0.231230483562E+04   -0.30579E-02   -0.16430E+00  4376   0.114E+00    0.328E-01
RMM:   2    -0.231230870409E+04   -0.38685E-02   -0.47659E-02  5456   0.177E-01    0.186E-01
RMM:   3    -0.231230829639E+04    0.40769E-03   -0.27347E-03  4644   0.554E-02    0.101E-01
RMM:   4    -0.231230825663E+04    0.39766E-04   -0.94310E-04  4695   0.219E-02    0.428E-02
RMM:   5    -0.231230821880E+04    0.37826E-04   -0.11571E-04  3364   0.131E-02    0.178E-02
RMM:   6    -0.231230821040E+04    0.84049E-05   -0.17646E-05  2837   0.381E-03
  74 F= -.23324322E+04 E0= -.23324322E+04  d E =-.632547E-02  mag=     0.0000
       N       E                     dE             d eps       ncg     rms          rms(c)
DAV:   1    -0.231230782032E+04    0.39849E-03   -0.13704E+00  4400   0.104E+00    0.299E-01
RMM:   2    -0.231231098415E+04   -0.31638E-02   -0.39183E-02  5466   0.161E-01    0.170E-01
RMM:   3    -0.231231071885E+04    0.26530E-03   -0.22450E-03  4671   0.467E-02    0.929E-02
RMM:   4    -0.231231069511E+04    0.23733E-04   -0.86970E-04  4669   0.202E-02    0.438E-02
RMM:   5    -0.231231065042E+04    0.44695E-04   -0.10794E-04  3326   0.125E-02    0.161E-02
RMM:   6    -0.231231064271E+04    0.77053E-05   -0.17520E-05  2846   0.352E-03
  75 F= -.23324345E+04 E0= -.23324345E+04  d E =-.865392E-02  mag=     0.0000
       N       E                     dE             d eps       ncg     rms          rms(c)
DAV:   1    -0.231231387228E+04   -0.32219E-02   -0.10918E+00  4376   0.908E-01    0.291E-01
RMM:   2    -0.231231632982E+04   -0.24575E-02   -0.31534E-02  5424   0.147E-01    0.159E-01
RMM:   3    -0.231231618747E+04    0.14235E-03   -0.22298E-03  4895   0.433E-02    0.102E-01
RMM:   4    -0.231231613297E+04    0.54506E-04   -0.63713E-04  4814   0.173E-02    0.709E-02
RMM:   5    -0.231231606384E+04    0.69127E-04   -0.20824E-04  4018   0.130E-02    0.124E-02
RMM:   6    -0.231231605955E+04    0.42887E-05   -0.25419E-05  2878   0.398E-03
  76 F= -.23324398E+04 E0= -.23324398E+04  d E =-.520881E-02  mag=     0.0000
       N       E                     dE             d eps       ncg     rms          rms(c)
DAV:   1    -0.231231545909E+04    0.60475E-03   -0.13974E+00  4376   0.103E+00    0.329E-01
RMM:   2    -0.231231862070E+04   -0.31616E-02   -0.40560E-02  5385   0.167E-01    0.179E-01
RMM:   3    -0.231231843758E+04    0.18312E-03   -0.28948E-03  4886   0.510E-02    0.116E-01
RMM:   4    -0.231231836086E+04    0.76716E-04   -0.81477E-04  4926   0.198E-02    0.799E-02
RMM:   5    -0.231231827201E+04    0.88849E-04   -0.27143E-04  4236   0.146E-02    0.142E-02
RMM:   6    -0.231231826608E+04    0.59312E-05   -0.32965E-05  2898   0.442E-03
  77 F= -.23324417E+04 E0= -.23324417E+04  d E =-.718076E-02  mag=     0.0000
       N       E                     dE             d eps       ncg     rms          rms(c)
DAV:   1    -0.231232012381E+04   -0.18518E-02   -0.79132E-01  4400   0.766E-01    0.237E-01
RMM:   2    -0.231232252516E+04   -0.24013E-02   -0.29128E-02  5561   0.127E-01    0.136E-01
RMM:   3    -0.231232249234E+04    0.32818E-04   -0.20535E-03  4906   0.399E-02    0.899E-02
RMM:   4    -0.231232245227E+04    0.40070E-04   -0.45425E-04  4481   0.137E-02    0.588E-02
RMM:   5    -0.231232241079E+04    0.41474E-04   -0.16004E-04  3404   0.101E-02    0.108E-02
RMM:   6    -0.231232240756E+04    0.32318E-05   -0.17208E-05  2848   0.410E-03
  78 F= -.23324457E+04 E0= -.23324457E+04  d E =-.397687E-02  mag=     0.0000
       N       E                     dE             d eps       ncg     rms          rms(c)
DAV:   1    -0.231230867234E+04    0.13738E-01   -0.66640E+00  4376   0.222E+00    0.686E-01
RMM:   2    -0.231232891210E+04   -0.20240E-01   -0.24630E-01  5616   0.365E-01    0.395E-01
RMM:   3    -0.231232858247E+04    0.32963E-03   -0.15705E-02  5016   0.107E-01    0.272E-01
RMM:   4    -0.231232813311E+04    0.44936E-03   -0.37477E-03  5138   0.389E-02    0.173E-01
RMM:   5    -0.231232779625E+04    0.33686E-03   -0.13315E-03  4878   0.275E-02    0.293E-02
RMM:   6    -0.231232776723E+04    0.29017E-04   -0.12221E-04  3294   0.804E-03    0.155E-02
RMM:   7    -0.231232776211E+04    0.51188E-05   -0.22959E-05  2887   0.517E-03
  79 F= -.23324506E+04 E0= -.23324506E+04  d E =-.886106E-02  mag=     0.0000
       N       E                     dE             d eps       ncg     rms          rms(c)
DAV:   1    -0.231232874393E+04   -0.97670E-03   -0.13532E+00  4376   0.989E-01    0.301E-01
RMM:   2    -0.231233361343E+04   -0.48695E-02   -0.57644E-02  5613   0.167E-01    0.175E-01
RMM:   3    -0.231233357996E+04    0.33463E-04   -0.39195E-03  4854   0.584E-02    0.109E-01
RMM:   4    -0.231233359058E+04   -0.10619E-04   -0.93923E-04  4776   0.187E-02    0.834E-02
RMM:   5    -0.231233348051E+04    0.11008E-03   -0.26697E-04  3999   0.129E-02    0.147E-02
RMM:   6    -0.231233347612E+04    0.43875E-05   -0.34996E-05  2905   0.403E-03
  80 F= -.23324562E+04 E0= -.23324562E+04  d E =-.563285E-02  mag=     0.0000
       N       E                     dE             d eps       ncg     rms          rms(c)
DAV:   1    -0.231232961663E+04    0.38639E-02   -0.20565E+00  4376   0.122E+00    0.372E-01
RMM:   2    -0.231233711366E+04   -0.74970E-02   -0.88536E-02  5591   0.206E-01    0.217E-01
RMM:   3    -0.231233705829E+04    0.55368E-04   -0.60025E-03  4889   0.672E-02    0.136E-01
RMM:   4    -0.231233707512E+04   -0.16829E-04   -0.14508E-03  4913   0.229E-02    0.105E-01
RMM:   5    -0.231233689856E+04    0.17655E-03   -0.41233E-04  4442   0.157E-02    0.185E-02
RMM:   6    -0.231233689103E+04    0.75296E-05   -0.53298E-05  2933   0.448E-03
  81 F= -.23324595E+04 E0= -.23324595E+04  d E =-.895536E-02  mag=     0.0000
       N       E                     dE             d eps       ncg     rms          rms(c)
DAV:   1    -0.231233644951E+04    0.44905E-03   -0.18499E-01  4592   0.366E-01    0.112E-01
RMM:   2    -0.231233713112E+04   -0.68160E-03   -0.80185E-03  5583   0.628E-02    0.657E-02
RMM:   3    -0.231233712539E+04    0.57267E-05   -0.57040E-04  4157   0.220E-02    0.393E-02
RMM:   4    -0.231233712697E+04   -0.15849E-05   -0.13734E-04  3461   0.744E-03    0.273E-02
RMM:   5    -0.231233711341E+04    0.13562E-04   -0.32546E-05  2894   0.535E-03    0.684E-03
RMM:   6    -0.231233711248E+04    0.93575E-06   -0.48814E-06  2799   0.239E-03
  82 F= -.23324597E+04 E0= -.23324597E+04  d E =-.915100E-02  mag=    -0.0000
       N       E                     dE             d eps       ncg     rms          rms(c)
DAV:   1    -0.231233887894E+04   -0.17655E-02   -0.13106E+00  4376   0.987E-01    0.319E-01
RMM:   2    -0.231234238537E+04   -0.35064E-02   -0.43425E-02  5495   0.161E-01    0.170E-01
RMM:   3    -0.231234220607E+04    0.17930E-03   -0.30017E-03  4737   0.476E-02    0.974E-02
RMM:   4    -0.231234222361E+04   -0.17542E-04   -0.87749E-04  4841   0.198E-02    0.724E-02
RMM:   5    -0.231234213155E+04    0.92067E-04   -0.19046E-04  3669   0.130E-02    0.158E-02
RMM:   6    -0.231234212574E+04    0.58049E-05   -0.29886E-05  2914   0.366E-03
  83 F= -.23324647E+04 E0= -.23324647E+04  d E =-.495624E-02  mag=     0.0000
       N       E                     dE             d eps       ncg     rms          rms(c)
DAV:   1    -0.231234077430E+04    0.13572E-02   -0.12188E+00  4376   0.952E-01    0.308E-01
RMM:   2    -0.231234405543E+04   -0.32811E-02   -0.40521E-02  5509   0.155E-01    0.165E-01
RMM:   3    -0.231234389445E+04    0.16098E-03   -0.28190E-03  4744   0.484E-02    0.946E-02
RMM:   4    -0.231234390990E+04   -0.15450E-04   -0.81837E-04  4861   0.192E-02    0.705E-02
RMM:   5    -0.231234382229E+04    0.87619E-04   -0.17889E-04  3631   0.128E-02    0.154E-02
RMM:   6    -0.231234381687E+04    0.54118E-05   -0.28623E-05  2914   0.365E-03
  84 F= -.23324663E+04 E0= -.23324663E+04  d E =-.659954E-02  mag=    -0.0000
       N       E                     dE             d eps       ncg     rms          rms(c)
DAV:   1    -0.231234606460E+04   -0.22423E-02   -0.10877E+00  4376   0.895E-01    0.278E-01
RMM:   2    -0.231234853794E+04   -0.24733E-02   -0.30756E-02  5381   0.144E-01    0.155E-01
RMM:   3    -0.231234839748E+04    0.14046E-03   -0.21729E-03  4731   0.453E-02    0.901E-02
RMM:   4    -0.231234841392E+04   -0.16440E-04   -0.64060E-04  4737   0.177E-02    0.729E-02
RMM:   5    -0.231234832574E+04    0.88182E-04   -0.17279E-04  3410   0.121E-02    0.116E-02
RMM:   6    -0.231234832228E+04    0.34575E-05   -0.30179E-05  2900   0.390E-03
  85 F= -.23324706E+04 E0= -.23324706E+04  d E =-.426991E-02  mag=    -0.0000
       N       E                     dE             d eps       ncg     rms          rms(c)
DAV:   1    -0.231234810227E+04    0.22347E-03   -0.71416E-01  4400   0.725E-01    0.225E-01
RMM:   2    -0.231234972905E+04   -0.16268E-02   -0.20216E-02  5440   0.117E-01    0.125E-01
RMM:   3    -0.231234963590E+04    0.93150E-04   -0.14527E-03  4726   0.391E-02    0.734E-02
RMM:   4    -0.231234964606E+04   -0.10165E-04   -0.42303E-04  4446   0.146E-02    0.597E-02
RMM:   5    -0.231234958665E+04    0.59410E-04   -0.11635E-04  3106   0.103E-02    0.934E-03
RMM:   6    -0.231234958425E+04    0.23994E-05   -0.20912E-05  2872   0.367E-03
  86 F= -.23324717E+04 E0= -.23324717E+04  d E =-.534715E-02  mag=    -0.0000
       N       E                     dE             d eps       ncg     rms          rms(c)
DAV:   1    -0.231234968221E+04   -0.95557E-04   -0.10399E+00  4376   0.931E-01    0.297E-01
RMM:   2    -0.231235366092E+04   -0.39787E-02   -0.46541E-02  5662   0.161E-01    0.151E-01
RMM:   3    -0.231235358000E+04    0.80925E-04   -0.30874E-03  4741   0.554E-02    0.887E-02
RMM:   4    -0.231235356644E+04    0.13558E-04   -0.82487E-04  4805   0.191E-02    0.519E-02
RMM:   5    -0.231235351237E+04    0.54069E-04   -0.13013E-04  3389   0.120E-02    0.166E-02
RMM:   6    -0.231235350520E+04    0.71725E-05   -0.18239E-05  2868   0.347E-03
[...]
 159 F= -.23325225E+04 E0= -.23325225E+04  d E =-.197134E-03  mag=     0.0000
       N       E                     dE             d eps       ncg     rms          rms(c)
DAV:   1    -0.231239852916E+04    0.50948E-04   -0.58129E-03  4872   0.752E-02    0.277E-02
RMM:   2    -0.231239857050E+04   -0.41341E-04   -0.46890E-04  5324   0.156E-02    0.154E-02
RMM:   3    -0.231239857038E+04    0.11592E-06   -0.39893E-05  2858   0.631E-03
 160 F= -.23325225E+04 E0= -.23325225E+04  d E =-.201722E-03  mag=    -0.0000
       N       E                     dE             d eps       ncg     rms          rms(c)
DAV:   1    -0.231239852583E+04    0.44673E-04   -0.33404E-02  4400   0.176E-01    0.626E-02
RMM:   2    -0.231239873147E+04   -0.20564E-03   -0.23366E-03  5774   0.351E-02    0.315E-02
RMM:   3    -0.231239872753E+04    0.39383E-05   -0.15998E-04  3068   0.936E-03    0.204E-02
RMM:   4    -0.231239872421E+04    0.33162E-05   -0.29140E-05  2870   0.442E-03
 161 F= -.23325227E+04 E0= -.23325227E+04  d E =-.190358E-03  mag=     0.0000
       N       E                     dE             d eps       ncg     rms          rms(c)
DAV:   1    -0.231239859639E+04    0.13114E-03   -0.20881E-02  4400   0.139E-01    0.491E-02
RMM:   2    -0.231239872416E+04   -0.12777E-03   -0.14483E-03  5741   0.271E-02    0.263E-02
RMM:   3    -0.231239872182E+04    0.23333E-05   -0.97681E-05  3052   0.105E-02
 162 F= -.23325227E+04 E0= -.23325227E+04  d E =-.216980E-03  mag=     0.0000
       N       E                     dE             d eps       ncg     rms          rms(c)
DAV:   1    -0.231239874365E+04   -0.19494E-04   -0.27704E-02  4388   0.156E-01    0.571E-02
RMM:   2    -0.231239889925E+04   -0.15560E-03   -0.17898E-03  5783   0.315E-02    0.303E-02
RMM:   3    -0.231239889411E+04    0.51347E-05   -0.12128E-04  2998   0.853E-03    0.193E-02
RMM:   4    -0.231239889102E+04    0.30928E-05   -0.23873E-05  2868   0.412E-03
 163 F= -.23325229E+04 E0= -.23325229E+04  d E =-.192958E-03  mag=     0.0000
       N       E                     dE             d eps       ncg     rms          rms(c)
DAV:   1    -0.231239876451E+04    0.12960E-03   -0.28988E-02  4408   0.160E-01    0.559E-02
RMM:   2    -0.231239892575E+04   -0.16124E-03   -0.18282E-03  5716   0.309E-02    0.313E-02
RMM:   3    -0.231239891957E+04    0.61812E-05   -0.11797E-04  3196   0.116E-02    0.229E-02
RMM:   4    -0.231239891232E+04    0.72475E-05   -0.20882E-05  2874   0.403E-03
 164 F= -.23325229E+04 E0= -.23325229E+04  d E =-.238577E-03  mag=     0.0000
       N       E                     dE             d eps       ncg     rms          rms(c)
DAV:   1    -0.231239891859E+04    0.98148E-06   -0.31300E-02  4376   0.168E-01    0.610E-02
RMM:   2    -0.231239910807E+04   -0.18948E-03   -0.21894E-03  5645   0.333E-02    0.306E-02
RMM:   3    -0.231239910486E+04    0.32150E-05   -0.15578E-04  3296   0.133E-02    0.215E-02
RMM:   4    -0.231239910002E+04    0.48389E-05   -0.27362E-05  2879   0.444E-03
 165 F= -.23325231E+04 E0= -.23325231E+04  d E =-.204034E-03  mag=    -0.0000
       N       E                     dE             d eps       ncg     rms          rms(c)
DAV:   1    -0.231239903643E+04    0.68431E-04   -0.12556E-02  4560   0.106E-01    0.388E-02
RMM:   2    -0.231239911323E+04   -0.76806E-04   -0.89039E-04  5572   0.214E-02    0.208E-02
RMM:   3    -0.231239911139E+04    0.18441E-05   -0.60321E-05  2969   0.892E-03
 166 F= -.23325231E+04 E0= -.23325231E+04  d E =-.225735E-03  mag=     0.0000
       N       E                     dE             d eps       ncg     rms          rms(c)
DAV:   1    -0.231239907873E+04    0.34505E-04   -0.35741E-02  4376   0.179E-01    0.671E-02
RMM:   2    -0.231239929335E+04   -0.21462E-03   -0.24738E-03  5817   0.358E-02    0.333E-02
RMM:   3    -0.231239928784E+04    0.55079E-05   -0.17560E-04  3137   0.975E-03    0.195E-02
RMM:   4    -0.231239928417E+04    0.36758E-05   -0.33198E-05  2909   0.450E-03
 167 F= -.23325234E+04 E0= -.23325234E+04  d E =-.206655E-03  mag=     0.0000
       N       E                     dE             d eps       ncg     rms          rms(c)
DAV:   1    -0.231239922672E+04    0.61122E-04   -0.10630E-02  4560   0.973E-02    0.362E-02
RMM:   2    -0.231239929158E+04   -0.64856E-04   -0.73539E-04  5542   0.196E-02    0.196E-02
RMM:   3    -0.231239928961E+04    0.19645E-05   -0.46848E-05  2931   0.775E-03
 168 F= -.23325234E+04 E0= -.23325234E+04  d E =-.230547E-03  mag=     0.0000
       N       E                     dE             d eps       ncg     rms          rms(c)
DAV:   1    -0.231239932324E+04   -0.31667E-04   -0.39371E-02  4376   0.185E-01    0.692E-02
RMM:   2    -0.231239949700E+04   -0.17375E-03   -0.20687E-03  5743   0.356E-02    0.339E-02
RMM:   3    -0.231239948673E+04    0.10268E-04   -0.13993E-04  3123   0.959E-03    0.198E-02
RMM:   4    -0.231239948333E+04    0.34028E-05   -0.34131E-05  2954   0.481E-03
 169 F= -.23325236E+04 E0= -.23325236E+04  d E =-.228604E-03  mag=    -0.0000
       N       E                     dE             d eps       ncg     rms          rms(c)
DAV:   1    -0.231239941541E+04    0.71321E-04   -0.15248E-02  4432   0.115E-01    0.424E-02
RMM:   2    -0.231239948298E+04   -0.67573E-04   -0.79307E-04  5570   0.222E-02    0.223E-02
RMM:   3    -0.231239948040E+04    0.25838E-05   -0.60360E-05  2931   0.881E-03
 170 F= -.23325236E+04 E0= -.23325236E+04  d E =-.247451E-03  mag=    -0.0000
       N       E                     dE             d eps       ncg     rms          rms(c)
DAV:   1    -0.231239952907E+04   -0.46085E-04   -0.31997E-02  4360   0.157E-01    0.596E-02
RMM:   2    -0.231239967079E+04   -0.14172E-03   -0.16675E-03  5708   0.311E-02    0.316E-02
RMM:   3    -0.231239966460E+04    0.61892E-05   -0.11649E-04  3021   0.860E-03    0.190E-02
RMM:   4    -0.231239966244E+04    0.21597E-05   -0.25994E-05  2890   0.420E-03
 171 F= -.23325238E+04 E0= -.23325238E+04  d E =-.198476E-03  mag=    -0.0000
       N       E                     dE             d eps       ncg     rms          rms(c)
DAV:   1    -0.231239960792E+04    0.56681E-04   -0.18538E-02  4384   0.119E-01    0.436E-02
RMM:   2    -0.231239968952E+04   -0.81606E-04   -0.93938E-04  5522   0.228E-02    0.245E-02
RMM:   3    -0.231239968703E+04    0.24966E-05   -0.67170E-05  2975   0.924E-03
 172 F= -.23325239E+04 E0= -.23325239E+04  d E =-.235574E-03  mag=     0.0000
       N       E                     dE             d eps       ncg     rms          rms(c)
DAV:   1    -0.231239974523E+04   -0.55709E-04   -0.39278E-02  4376   0.184E-01    0.737E-02
RMM:   2    -0.231239994957E+04   -0.20434E-03   -0.24475E-03  5741   0.375E-02    0.365E-02
RMM:   3    -0.231239993872E+04    0.10851E-04   -0.16577E-04  3167   0.103E-02    0.227E-02
RMM:   4    -0.231239993377E+04    0.49453E-05   -0.36628E-05  2940   0.513E-03
 173 F= -.23325241E+04 E0= -.23325241E+04  d E =-.235119E-03  mag=     0.0000
       N       E                     dE             d eps       ncg     rms          rms(c)
DAV:   1    -0.231239991274E+04    0.25978E-04   -0.59644E-03  4880   0.716E-02    0.286E-02
RMM:   2    -0.231239994378E+04   -0.31045E-04   -0.37321E-04  5198   0.148E-02    0.160E-02
RMM:   3    -0.231239994207E+04    0.17159E-05   -0.28450E-05  2871   0.634E-03
 174 F= -.23325241E+04 E0= -.23325241E+04  d E =-.238763E-03  mag=     0.0000
       N       E                     dE             d eps       ncg     rms          rms(c)
DAV:   1    -0.231239988013E+04    0.63654E-04   -0.32227E-02  4376   0.166E-01    0.655E-02
RMM:   2    -0.231240014071E+04   -0.26058E-03   -0.29584E-03  5810   0.361E-02    0.340E-02
RMM:   3    -0.231240013906E+04    0.16573E-05   -0.21886E-04  3094   0.101E-02    0.220E-02
RMM:   4    -0.231240013488E+04    0.41774E-05   -0.36155E-05  2875   0.450E-03
 175 F= -.23325243E+04 E0= -.23325243E+04  d E =-.183704E-03  mag=    -0.0000
       N       E                     dE             d eps       ncg     rms          rms(c)
DAV:   1    -0.231240008205E+04    0.57010E-04   -0.87960E-03  4608   0.864E-02    0.344E-02
RMM:   2    -0.231240015238E+04   -0.70334E-04   -0.80037E-04  5496   0.185E-02    0.201E-02
RMM:   3    -0.231240015152E+04    0.86374E-06   -0.60939E-05  2937   0.786E-03
 176 F= -.23325243E+04 E0= -.23325243E+04  d E =-.195408E-03  mag=    -0.0000
       N       E                     dE             d eps       ncg     rms          rms(c)
DAV:   1    -0.231240007750E+04    0.74876E-04   -0.36011E-02  4376   0.177E-01    0.699E-02
RMM:   2    -0.231240035317E+04   -0.27567E-03   -0.31325E-03  5842   0.380E-02    0.356E-02
RMM:   3    -0.231240035031E+04    0.28667E-05   -0.23125E-04  3123   0.102E-02    0.225E-02
RMM:   4    -0.231240034600E+04    0.43024E-05   -0.40221E-05  2890   0.474E-03
 177 F= -.23325245E+04 E0= -.23325245E+04  d E =-.203933E-03  mag=     0.0000
       N       E                     dE             d eps       ncg     rms          rms(c)
DAV:   1    -0.231240030334E+04    0.46964E-04   -0.60117E-03  4800   0.723E-02    0.290E-02
RMM:   2    -0.231240034876E+04   -0.45417E-04   -0.51940E-04  5268   0.154E-02    0.170E-02
RMM:   3    -0.231240034775E+04    0.10113E-05   -0.41894E-05  2891   0.671E-03
 178 F= -.23325245E+04 E0= -.23325245E+04  d E =-.209499E-03  mag=     0.0000
       N       E                     dE             d eps       ncg     rms          rms(c)
DAV:   1    -0.231240031419E+04    0.34569E-04   -0.35538E-02  4376   0.176E-01    0.689E-02
RMM:   2    -0.231240052422E+04   -0.21003E-03   -0.24394E-03  5770   0.362E-02    0.343E-02
RMM:   3    -0.231240051752E+04    0.66985E-05   -0.17777E-04  3135   0.102E-02    0.214E-02
RMM:   4    -0.231240051339E+04    0.41309E-05   -0.34565E-05  2911   0.482E-03
 179 F= -.23325247E+04 E0= -.23325247E+04  d E =-.189397E-03  mag=     0.0000
       N       E                     dE             d eps       ncg     rms          rms(c)
DAV:   1    -0.231240048525E+04    0.32273E-04   -0.31254E-03  5096   0.522E-02    0.211E-02
RMM:   2    -0.231240050416E+04   -0.18909E-04   -0.21884E-04  4499   0.109E-02    0.122E-02
RMM:   3    -0.231240050343E+04    0.73070E-06   -0.16753E-05  2830   0.533E-03
 180 F= -.23325247E+04 E0= -.23325247E+04  d E =-.186593E-03  mag=     0.0000
       N       E                     dE             d eps       ncg     rms          rms(c)
DAV:   1    -0.231240051873E+04   -0.14573E-04   -0.30421E-02  4376   0.158E-01    0.611E-02
RMM:   2    -0.231240067585E+04   -0.15711E-03   -0.18437E-03  5727   0.319E-02    0.309E-02
RMM:   3    -0.231240067027E+04    0.55724E-05   -0.13834E-04  3066   0.967E-03    0.192E-02
RMM:   4    -0.231240066706E+04    0.32092E-05   -0.27930E-05  2884   0.446E-03
 181 F= -.23325249E+04 E0= -.23325249E+04  d E =-.166693E-03  mag=    -0.0000
       N       E                     dE             d eps       ncg     rms          rms(c)
DAV:   1    -0.231240065216E+04    0.18118E-04   -0.32903E-03  4928   0.519E-02    0.207E-02
RMM:   2    -0.231240066966E+04   -0.17503E-04   -0.20572E-04  4420   0.107E-02    0.120E-02
RMM:   3    -0.231240066896E+04    0.69979E-06   -0.16509E-05  2820   0.520E-03
 182 F= -.23325249E+04 E0= -.23325249E+04  d E =-.169595E-03  mag=    -0.0000
       N       E                     dE             d eps       ncg     rms          rms(c)
DAV:   1    -0.231240075487E+04   -0.85212E-04   -0.26068E-02  4376   0.153E-01    0.617E-02
RMM:   2    -0.231240087693E+04   -0.12206E-03   -0.14790E-03  5671   0.302E-02    0.285E-02
RMM:   3    -0.231240086937E+04    0.75625E-05   -0.10869E-04  3062   0.952E-03    0.169E-02
RMM:   4    -0.231240086703E+04    0.23407E-05   -0.25297E-05  2885   0.445E-03
 183 F= -.23325250E+04 E0= -.23325250E+04  d E =-.189452E-03  mag=     0.0000
       N       E                     dE             d eps       ncg     rms          rms(c)
DAV:   1    -0.231240085786E+04    0.11510E-04   -0.46555E-03  4832   0.647E-02    0.265E-02
RMM:   2    -0.231240088042E+04   -0.22564E-04   -0.26886E-04  4903   0.133E-02    0.136E-02
RMM:   3    -0.231240087985E+04    0.57698E-06   -0.24463E-05  2842   0.622E-03
 184 F= -.23325251E+04 E0= -.23325251E+04  d E =-.198546E-03  mag=     0.0000
       N       E                     dE             d eps       ncg     rms          rms(c)
DAV:   1    -0.231240090648E+04   -0.26058E-04   -0.25419E-02  4376   0.149E-01    0.580E-02
RMM:   2    -0.231240104336E+04   -0.13688E-03   -0.16042E-03  5732   0.299E-02    0.286E-02
RMM:   3    -0.231240103705E+04    0.63035E-05   -0.11319E-04  3019   0.842E-03    0.166E-02
RMM:   4    -0.231240103476E+04    0.22968E-05   -0.25355E-05  2865   0.419E-03
 185 F= -.23325252E+04 E0= -.23325252E+04  d E =-.147011E-03  mag=     0.0000
       N       E                     dE             d eps       ncg     rms          rms(c)
DAV:   1    -0.231240102959E+04    0.74660E-05   -0.12517E-03  5200   0.331E-02    0.137E-02
RMM:   2    -0.231240103662E+04   -0.70302E-05   -0.82207E-05  3475   0.702E-03
 186 F= -.23325252E+04 E0= -.23325252E+04  d E =-.147071E-03  mag=     0.0000
       N       E                     dE             d eps       ncg     rms          rms(c)
DAV:   1    -0.231240108370E+04   -0.54109E-04   -0.21962E-02  4376   0.137E-01    0.543E-02
RMM:   2    -0.231240119042E+04   -0.10672E-03   -0.12670E-03  5814   0.281E-02    0.279E-02
RMM:   3    -0.231240118665E+04    0.37725E-05   -0.10533E-04  3128   0.103E-02    0.199E-02
RMM:   4    -0.231240118192E+04    0.47312E-05   -0.19824E-05  2858   0.420E-03
 187 F= -.23325254E+04 E0= -.23325254E+04  d E =-.152044E-03  mag=    -0.0000
       N       E                     dE             d eps       ncg     rms          rms(c)
DAV:   1    -0.231240115254E+04    0.34104E-04   -0.64080E-03  4576   0.742E-02    0.285E-02
RMM:   2    -0.231240118396E+04   -0.31418E-04   -0.37097E-04  5129   0.149E-02    0.140E-02
RMM:   3    -0.231240118302E+04    0.93807E-06   -0.28238E-05  2837   0.622E-03
 188 F= -.23325254E+04 E0= -.23325254E+04  d E =-.156831E-03  mag=    -0.0000
       N       E                     dE             d eps       ncg     rms          rms(c)
DAV:   1    -0.231240119672E+04   -0.12760E-04   -0.25767E-02  4376   0.145E-01    0.565E-02
RMM:   2    -0.231240132881E+04   -0.13209E-03   -0.15454E-03  5757   0.290E-02    0.277E-02
RMM:   3    -0.231240132392E+04    0.48892E-05   -0.10911E-04  3015   0.842E-03    0.158E-02
RMM:   4    -0.231240132175E+04    0.21657E-05   -0.22118E-05  2854   0.385E-03
 189 F= -.23325255E+04 E0= -.23325255E+04  d E =-.151410E-03  mag=    -0.0000
       N       E                     dE             d eps       ncg     rms          rms(c)
DAV:   1    -0.231240130020E+04    0.23717E-04   -0.56547E-03  4640   0.676E-02    0.266E-02
RMM:   2    -0.231240132862E+04   -0.28420E-04   -0.32838E-04  4939   0.138E-02    0.146E-02
RMM:   3    -0.231240132825E+04    0.37470E-06   -0.31302E-05  2869   0.637E-03
 190 F= -.23325255E+04 E0= -.23325255E+04  d E =-.163845E-03  mag=    -0.0000
       N       E                     dE             d eps       ncg     rms          rms(c)
DAV:   1    -0.231240134099E+04   -0.12367E-04   -0.29481E-02  4376   0.156E-01    0.636E-02
RMM:   2    -0.231240149573E+04   -0.15474E-03   -0.18343E-03  5741   0.320E-02    0.314E-02
RMM:   3    -0.231240148870E+04    0.70236E-05   -0.12471E-04  3056   0.882E-03    0.204E-02
RMM:   4    -0.231240148477E+04    0.39320E-05   -0.27507E-05  2885   0.457E-03
 191 F= -.23325257E+04 E0= -.23325257E+04  d E =-.166559E-03  mag=     0.0000
       N       E                     dE             d eps       ncg     rms          rms(c)
DAV:   1    -0.231240146831E+04    0.20393E-04   -0.27291E-03  4928   0.476E-02    0.196E-02
RMM:   2    -0.231240148257E+04   -0.14258E-04   -0.16946E-04  4226   0.994E-03    0.108E-02
RMM:   3    -0.231240148213E+04    0.44015E-06   -0.13853E-05  2800   0.505E-03
 192 F= -.23325257E+04 E0= -.23325257E+04  d E =-.167015E-03  mag=    -0.0000
       N       E                     dE             d eps       ncg     rms          rms(c)
DAV:   1    -0.231240143692E+04    0.45650E-04   -0.28539E-02  4376   0.152E-01    0.617E-02
RMM:   2    -0.231240160760E+04   -0.17068E-03   -0.19861E-03  5753   0.318E-02    0.310E-02
RMM:   3    -0.231240160209E+04    0.55043E-05   -0.14537E-04  3066   0.980E-03    0.200E-02
RMM:   4    -0.231240159825E+04    0.38444E-05   -0.28418E-05  2880   0.448E-03
 193 F= -.23325258E+04 E0= -.23325258E+04  d E =-.137525E-03  mag=    -0.0000
       N       E                     dE             d eps       ncg     rms          rms(c)
DAV:   1    -0.231240158247E+04    0.19621E-04   -0.11264E-03  5072   0.304E-02    0.129E-02
RMM:   2    -0.231240158930E+04   -0.68301E-05   -0.81634E-05  3387   0.664E-03
 194 F= -.23325258E+04 E0= -.23325258E+04  d E =-.132934E-03  mag=    -0.0000
       N       E                     dE             d eps       ncg     rms          rms(c)
DAV:   1    -0.231240158895E+04   -0.64808E-05   -0.20325E-02  4376   0.125E-01    0.511E-02
RMM:   2    -0.231240170876E+04   -0.11980E-03   -0.13844E-03  5768   0.270E-02    0.282E-02
RMM:   3    -0.231240170575E+04    0.30019E-05   -0.11229E-04  3040   0.992E-03    0.196E-02
RMM:   4    -0.231240170133E+04    0.44245E-05   -0.19306E-05  2857   0.393E-03
 195 F= -.23325260E+04 E0= -.23325260E+04  d E =-.126604E-03  mag=    -0.0000
       N       E                     dE             d eps       ncg     rms          rms(c)
DAV:   1    -0.231240166984E+04    0.35917E-04   -0.50813E-03  4576   0.623E-02    0.249E-02
RMM:   2    -0.231240169979E+04   -0.29951E-04   -0.34746E-04  4851   0.133E-02    0.135E-02
RMM:   3    -0.231240169955E+04    0.23704E-06   -0.28067E-05  2848   0.577E-03
 196 F= -.23325260E+04 E0= -.23325260E+04  d E =-.132207E-03  mag=    -0.0000
       N       E                     dE             d eps       ncg     rms          rms(c)
DAV:   1    -0.231240174367E+04   -0.43877E-04   -0.23424E-02  4376   0.138E-01    0.558E-02
RMM:   2    -0.231240185550E+04   -0.11184E-03   -0.13447E-03  5689   0.277E-02    0.274E-02
RMM:   3    -0.231240184776E+04    0.77443E-05   -0.98724E-05  3003   0.840E-03
 197 F= -.23325261E+04 E0= -.23325261E+04  d E =-.155995E-03  mag=    -0.0000
       N       E                     dE             d eps       ncg     rms          rms(c)
DAV:   1    -0.231240183158E+04    0.23917E-04   -0.31337E-03  4960   0.505E-02    0.220E-02
RMM:   2    -0.231240184514E+04   -0.13555E-04   -0.17908E-04  4301   0.103E-02    0.119E-02
RMM:   3    -0.231240184478E+04    0.36013E-06   -0.18980E-05  2825   0.532E-03
 198 F= -.23325261E+04 E0= -.23325261E+04  d E =-.155941E-03  mag=     0.0000
       N       E                     dE             d eps       ncg     rms          rms(c)
DAV:   1    -0.231240190578E+04   -0.60644E-04   -0.21431E-02  4376   0.133E-01    0.528E-02
RMM:   2    -0.231240198715E+04   -0.81372E-04   -0.99497E-04  5541   0.250E-02    0.268E-02
RMM:   3    -0.231240198178E+04    0.53707E-05   -0.76384E-05  2971   0.888E-03
 199 F= -.23325263E+04 E0= -.23325263E+04  d E =-.142061E-03  mag=     0.0000
       N       E                     dE             d eps       ncg     rms          rms(c)
DAV:   1    -0.231240196014E+04    0.27014E-04   -0.60200E-03  4560   0.703E-02    0.328E-02
RMM:   2    -0.231240198056E+04   -0.20422E-04   -0.29093E-04  4953   0.137E-02    0.180E-02
RMM:   3    -0.231240197914E+04    0.14174E-05   -0.29487E-05  2864   0.619E-03
 200 F= -.23325263E+04 E0= -.23325263E+04  d E =-.142117E-03  mag=     0.0000
       N       E                     dE             d eps       ncg     rms          rms(c)
DAV:   1    -0.231240201424E+04   -0.33677E-04   -0.21268E-02  4376   0.130E-01    0.522E-02
RMM:   2    -0.231240210251E+04   -0.88273E-04   -0.10643E-03  5555   0.249E-02    0.276E-02
RMM:   3    -0.231240209924E+04    0.32709E-05   -0.95274E-05  3028   0.950E-03
 201 F= -.23325264E+04 E0= -.23325264E+04  d E =-.133336E-03  mag=     0.0000
