       N       E                     dE             d eps       ncg     rms          rms(c)
DAV:   1     0.123842496734E+05    0.12384E+05   -0.83724E+05  4640   0.141E+03
DAV:   2    -0.125133036557E+04   -0.13636E+05   -0.13097E+05  4960   0.321E+02
DAV:   3    -0.248915158768E+04   -0.12378E+04   -0.12272E+04  5440   0.105E+02
DAV:   4    -0.251718700430E+04   -0.28035E+02   -0.27889E+02  5840   0.194E+01
DAV:   5    -0.251788317490E+04   -0.69617E+00   -0.69493E+00  5760   0.262E+00    0.170E+02
RMM:   6    -0.148677445945E+04    0.10311E+04   -0.19049E+03  4504   0.375E+01    0.721E+01
RMM:   7    -0.165949260485E+04   -0.17272E+03   -0.28172E+02  5082   0.138E+01    0.514E+01
RMM:   8    -0.170961735652E+04   -0.50125E+02   -0.62626E+01  5225   0.778E+00    0.427E+01
RMM:   9    -0.178810536748E+04   -0.78488E+02   -0.62198E+01  5094   0.737E+00    0.329E+01
RMM:  10    -0.193545217945E+04   -0.14735E+03   -0.61433E+01  5358   0.739E+00    0.210E+01
RMM:  11    -0.202151714215E+04   -0.86065E+02   -0.35305E+01  5134   0.468E+00    0.209E+01
RMM:  12    -0.207007538659E+04   -0.48558E+02   -0.17031E+01  5208   0.329E+00    0.140E+01
RMM:  13    -0.219239789375E+04   -0.12232E+03   -0.81756E+01  4598   0.658E+00    0.102E+01
RMM:  14    -0.227700890705E+04   -0.84611E+02   -0.73964E+01  4565   0.592E+00    0.667E+00
RMM:  15    -0.230032594287E+04   -0.23317E+02   -0.21725E+01  4932   0.386E+00    0.359E+00
RMM:  16    -0.231047843254E+04   -0.10152E+02   -0.10489E+01  4726   0.204E+00    0.253E+00
RMM:  17    -0.231322004194E+04   -0.27416E+01   -0.25843E+00  4937   0.121E+00    0.172E+00
RMM:  18    -0.231453729900E+04   -0.13173E+01   -0.15738E+00  4792   0.634E-01    0.813E-01
RMM:  19    -0.231482466256E+04   -0.28736E+00   -0.40864E-01  4754   0.445E-01    0.768E-01
RMM:  20    -0.231492059157E+04   -0.95929E-01   -0.12241E-01  4934   0.175E-01    0.319E-01
RMM:  21    -0.231495184577E+04   -0.31254E-01   -0.24329E-02  4739   0.119E-01    0.190E-01
RMM:  22    -0.231497451300E+04   -0.22667E-01   -0.96768E-03  4540   0.696E-02    0.103E-01
RMM:  23    -0.231499066405E+04   -0.16151E-01   -0.52443E-03  4500   0.553E-02    0.647E-02
RMM:  24    -0.231499913845E+04   -0.84744E-02   -0.26341E-03  4604   0.399E-02    0.417E-02
RMM:  25    -0.231500475997E+04   -0.56215E-02   -0.18578E-03  4559   0.311E-02    0.275E-02
RMM:  26    -0.231500684941E+04   -0.20894E-02   -0.76072E-04  4353   0.224E-02    0.194E-02
RMM:  27    -0.231500745865E+04   -0.60924E-03   -0.23561E-04  4090   0.119E-02    0.104E-02
RMM:  28    -0.231500770771E+04   -0.24906E-03   -0.70075E-05  3688   0.817E-03    0.614E-03
RMM:  29    -0.231500782854E+04   -0.12083E-03   -0.33458E-05  3384   0.570E-03    0.354E-03
RMM:  30    -0.231500788081E+04   -0.52273E-04   -0.15971E-05  3046   0.449E-03    0.202E-03
RMM:  31    -0.231500790054E+04   -0.19731E-04   -0.81550E-06  2921   0.329E-03    0.106E-03
RMM:  32    -0.231500790715E+04   -0.66064E-05   -0.45409E-06  2589   0.247E-03
   1 F= -.23358532E+04 E0= -.23358530E+04  d E =-.333289E-03  mag=     5.9971
       N       E                     dE             d eps       ncg     rms          rms(c)
DAV:   1    -0.231498363374E+04    0.24267E-01   -0.19912E+00  4480   0.716E-01    0.280E-01
RMM:   2    -0.231498308477E+04    0.54897E-03   -0.87587E-03  3740   0.402E-02    0.160E-01
RMM:   3    -0.231498322161E+04   -0.13683E-03   -0.20694E-03  4841   0.210E-02    0.260E-01
RMM:   4    -0.231498263016E+04    0.59145E-03   -0.73279E-04  4145   0.111E-02    0.392E-02
RMM:   5    -0.231498264469E+04   -0.14529E-04   -0.10073E-04  2967   0.484E-03    0.175E-02
RMM:   6    -0.231498264618E+04   -0.14923E-05   -0.16581E-05  2633   0.297E-03
   2 F= -.23358280E+04 E0= -.23358278E+04  d E =-.245224E-03  mag=     5.9976
       N       E                     dE             d eps       ncg     rms          rms(c)
DAV:   1    -0.231502095271E+04   -0.38308E-01   -0.79321E+00  4480   0.140E+00    0.559E-01
RMM:   2    -0.231501758948E+04    0.33632E-02   -0.26418E-02  3972   0.786E-02    0.313E-01
RMM:   3    -0.231501819582E+04   -0.60634E-03   -0.80281E-03  5101   0.466E-02    0.512E-01
RMM:   4    -0.231501592803E+04    0.22678E-02   -0.28890E-03  4975   0.222E-02    0.707E-02
RMM:   5    -0.231501596652E+04   -0.38497E-04   -0.32858E-04  3400   0.815E-03    0.346E-02
RMM:   6    -0.231501597192E+04   -0.53967E-05   -0.63896E-05  3010   0.514E-03
   3 F= -.23358612E+04 E0= -.23358610E+04  d E =-.435429E-03  mag=     5.9968
       N       E                     dE             d eps       ncg     rms          rms(c)
DAV:   1    -0.231494763609E+04    0.68330E-01   -0.41343E+00  4640   0.105E+00    0.429E-01
RMM:   2    -0.231494550216E+04    0.21339E-02   -0.15413E-02  3861   0.582E-02    0.238E-01
RMM:   3    -0.231494578584E+04   -0.28369E-03   -0.56203E-03  4982   0.331E-02    0.384E-01
RMM:   4    -0.231494443356E+04    0.13523E-02   -0.15131E-03  4566   0.177E-02    0.468E-02
RMM:   5    -0.231494445458E+04   -0.21021E-04   -0.19941E-04  3207   0.541E-03    0.272E-02
RMM:   6    -0.231494445536E+04   -0.78413E-06   -0.40172E-05  2763   0.395E-03
   4 F= -.23357898E+04 E0= -.23357896E+04  d E =-.333064E-03  mag=     5.9969
       N       E                     dE             d eps       ncg     rms          rms(c)
DAV:   1    -0.231503780371E+04   -0.93349E-01   -0.85078E+00  4480   0.147E+00    0.637E-01
RMM:   2    -0.231503264078E+04    0.51629E-02   -0.29745E-02  3958   0.762E-02    0.348E-01
RMM:   3    -0.231503052706E+04    0.21137E-02   -0.13296E-02  4646   0.472E-02    0.124E-01
RMM:   4    -0.231503055063E+04   -0.23568E-04   -0.16237E-03  4729   0.199E-02    0.161E-01
RMM:   5    -0.231503027889E+04    0.27174E-03   -0.23839E-04  3349   0.726E-03    0.308E-02
RMM:   6    -0.231503024543E+04    0.33458E-04   -0.11704E-04  3217   0.449E-03    0.216E-02
RMM:   7    -0.231503024764E+04   -0.22130E-05   -0.31916E-05  2859   0.418E-03
   5 F= -.23358755E+04 E0= -.23358753E+04  d E =-.329965E-03  mag=     5.9971
       N       E                     dE             d eps       ncg     rms          rms(c)
DAV:   1    -0.231497486407E+04    0.55381E-01   -0.42351E+00  4480   0.986E-01    0.412E-01
RMM:   2    -0.231497288934E+04    0.19747E-02   -0.15699E-02  3877   0.569E-02    0.217E-01
RMM:   3    -0.231497190238E+04    0.98696E-03   -0.31126E-03  4671   0.288E-02    0.905E-02
RMM:   4    -0.231497202067E+04   -0.11829E-03   -0.97787E-04  4506   0.129E-02    0.113E-01
RMM:   5    -0.231497189029E+04    0.13038E-03   -0.16499E-04  3347   0.676E-03    0.251E-02
RMM:   6    -0.231497188563E+04    0.46612E-05   -0.26447E-05  2789   0.311E-03
   6 F= -.23358176E+04 E0= -.23358173E+04  d E =-.544957E-03  mag=     5.9958
       N       E                     dE             d eps       ncg     rms          rms(c)
DAV:   1    -0.231502686801E+04   -0.54978E-01   -0.84608E+00  4480   0.135E+00    0.559E-01
RMM:   2    -0.231502338688E+04    0.34811E-02   -0.36066E-02  4123   0.825E-02    0.292E-01
RMM:   3    -0.231502213901E+04    0.12479E-02   -0.46602E-03  4363   0.392E-02    0.247E-01
RMM:   4    -0.231502215698E+04   -0.17966E-04   -0.30823E-03  4804   0.229E-02    0.259E-01
RMM:   5    -0.231502158237E+04    0.57461E-03   -0.70638E-04  4304   0.138E-02    0.403E-02
RMM:   6    -0.231502157830E+04    0.40704E-05   -0.95992E-05  3076   0.496E-03
   7 F= -.23358664E+04 E0= -.23358663E+04  d E =-.202912E-03  mag=     5.9974
       N       E                     dE             d eps       ncg     rms          rms(c)
DAV:   1    -0.231499801565E+04    0.23567E-01   -0.25172E+00  4480   0.719E-01    0.352E-01
RMM:   2    -0.231499673100E+04    0.12846E-02   -0.13079E-02  3952   0.505E-02    0.200E-01
RMM:   3    -0.231499695727E+04   -0.22626E-03   -0.28194E-03  4567   0.281E-02    0.307E-01
RMM:   4    -0.231499602964E+04    0.92763E-03   -0.11450E-03  4263   0.147E-02    0.710E-02
RMM:   5    -0.231499603052E+04   -0.87739E-06   -0.24939E-04  3725   0.685E-03    0.321E-02
RMM:   6    -0.231499603415E+04   -0.36331E-05   -0.50066E-05  2799   0.445E-03
   8 F= -.23358416E+04 E0= -.23358414E+04  d E =-.361026E-03  mag=     5.9971
       N       E                     dE             d eps       ncg     rms          rms(c)
DAV:   1    -0.231501444542E+04   -0.18415E-01   -0.12011E+00  4800   0.488E-01    0.366E-01
RMM:   2    -0.231501353236E+04    0.91306E-03   -0.65502E-03  4054   0.319E-02    0.215E-01
RMM:   3    -0.231501412594E+04   -0.59358E-03   -0.23445E-03  4692   0.225E-02    0.314E-01
RMM:   4    -0.231501325573E+04    0.87021E-03   -0.93671E-04  4422   0.134E-02    0.589E-02
RMM:   5    -0.231501324688E+04    0.88457E-05   -0.81335E-05  2960   0.489E-03
   9 F= -.23358583E+04 E0= -.23358581E+04  d E =-.317135E-03  mag=     5.9972
       N       E                     dE             d eps       ncg     rms          rms(c)
DAV:   1    -0.231502638400E+04   -0.13128E-01   -0.59996E-01  4720   0.343E-01    0.253E-01
RMM:   2    -0.231502615295E+04    0.23106E-03   -0.33948E-03  3915   0.247E-02    0.177E-01
RMM:   3    -0.231502651327E+04   -0.36033E-03   -0.13548E-03  4503   0.156E-02    0.262E-01
RMM:   4    -0.231502592772E+04    0.58556E-03   -0.54719E-04  3770   0.110E-02    0.403E-02
RMM:   5    -0.231502593098E+04   -0.32598E-05   -0.68125E-05  2993   0.446E-03
  10 F= -.23358707E+04 E0= -.23358705E+04  d E =-.303663E-03  mag=     5.9973
       N       E                     dE             d eps       ncg     rms          rms(c)
DAV:   1    -0.231497855921E+04    0.47369E-01   -0.12078E+00  5120   0.497E-01    0.537E-01
RMM:   2    -0.231497388520E+04    0.46740E-02   -0.18353E-02  4365   0.538E-02    0.292E-01
RMM:   3    -0.231497425173E+04   -0.36653E-03   -0.41312E-03  4703   0.325E-02    0.402E-01
RMM:   4    -0.231497299719E+04    0.12545E-02   -0.18297E-03  4661   0.181E-02    0.131E-01
RMM:   5    -0.231497288081E+04    0.11638E-03   -0.24475E-04  3676   0.779E-03    0.386E-02
RMM:   6    -0.231497290017E+04   -0.19360E-04   -0.76673E-05  2970   0.509E-03    0.472E-02
RMM:   7    -0.231497287962E+04    0.20555E-04   -0.31637E-05  2664   0.341E-03    0.164E-02
RMM:   8    -0.231497287696E+04    0.26571E-05   -0.55060E-06  2409   0.185E-03
  11 F= -.23358187E+04 E0= -.23358185E+04  d E =-.364020E-03  mag=     5.9969
       N       E                     dE             d eps       ncg     rms          rms(c)
DAV:   1    -0.231500939594E+04   -0.36516E-01   -0.60574E-01  4880   0.359E-01    0.362E-01
RMM:   2    -0.231500752221E+04    0.18737E-02   -0.76149E-03  4167   0.344E-02    0.201E-01
RMM:   3    -0.231500784266E+04   -0.32045E-03   -0.20499E-03  4319   0.228E-02    0.291E-01
RMM:   4    -0.231500713662E+04    0.70603E-03   -0.95602E-04  4166   0.133E-02    0.803E-02
RMM:   5    -0.231500708593E+04    0.50696E-04   -0.10624E-04  3209   0.575E-03    0.218E-02
RMM:   6    -0.231500708598E+04   -0.55457E-07   -0.19019E-05  2694   0.317E-03
  12 F= -.23358523E+04 E0= -.23358521E+04  d E =-.391905E-03  mag=     5.9967
       N       E                     dE             d eps       ncg     rms          rms(c)
DAV:   1    -0.231500386006E+04    0.32259E-02   -0.11923E+00  4720   0.477E-01    0.343E-01
RMM:   2    -0.231500353718E+04    0.32288E-03   -0.61370E-03  3914   0.310E-02    0.202E-01
RMM:   3    -0.231500398796E+04   -0.45079E-03   -0.19003E-03  4868   0.202E-02    0.289E-01
RMM:   4    -0.231500328850E+04    0.69947E-03   -0.83313E-04  4177   0.120E-02    0.503E-02
RMM:   5    -0.231500327586E+04    0.12640E-04   -0.79183E-05  2982   0.506E-03    0.159E-02
RMM:   6    -0.231500327784E+04   -0.19814E-05   -0.15791E-05  2766   0.263E-03
  13 F= -.23358486E+04 E0= -.23358485E+04  d E =-.286832E-03  mag=     5.9972
       N       E                     dE             d eps       ncg     rms          rms(c)
DAV:   1    -0.231501466062E+04   -0.11385E-01   -0.61298E-01  4640   0.361E-01    0.256E-01
RMM:   2    -0.231501453982E+04    0.12080E-03   -0.28525E-03  3615   0.223E-02    0.160E-01
RMM:   3    -0.231501504705E+04   -0.50722E-03   -0.13730E-03  4881   0.148E-02    0.279E-01
RMM:   4    -0.231501436107E+04    0.68598E-03   -0.58970E-04  3911   0.108E-02    0.217E-02
RMM:   5    -0.231501435903E+04    0.20374E-05   -0.70125E-05  2784   0.366E-03
  14 F= -.23358598E+04 E0= -.23358596E+04  d E =-.348174E-03  mag=     5.9971
       N       E                     dE             d eps       ncg     rms          rms(c)
DAV:   1    -0.231499722813E+04    0.17133E-01   -0.12369E+00  4480   0.484E-01    0.392E-01
RMM:   2    -0.231499649519E+04    0.73294E-03   -0.64670E-03  3956   0.313E-02    0.233E-01
RMM:   3    -0.231499725060E+04   -0.75542E-03   -0.26672E-03  4829   0.235E-02    0.351E-01
RMM:   4    -0.231499617119E+04    0.10794E-02   -0.10416E-03  4390   0.137E-02    0.435E-02
RMM:   5    -0.231499617066E+04    0.52332E-06   -0.10056E-04  2956   0.464E-03    0.220E-02
RMM:   6    -0.231499617518E+04   -0.45181E-05   -0.27863E-05  2686   0.307E-03
  15 F= -.23358413E+04 E0= -.23358411E+04  d E =-.315513E-03  mag=     5.9972
       N       E                     dE             d eps       ncg     rms          rms(c)
DAV:   1    -0.231501083827E+04   -0.14668E-01   -0.64400E-01  4880   0.346E-01    0.407E-01
RMM:   2    -0.231500826793E+04    0.25703E-02   -0.95572E-03  4269   0.364E-02    0.215E-01
RMM:   3    -0.231500831383E+04   -0.45895E-04   -0.19222E-03  4337   0.216E-02    0.248E-01
RMM:   4    -0.231500786166E+04    0.45217E-03   -0.10234E-03  4250   0.135E-02    0.121E-01
RMM:   5    -0.231500773682E+04    0.12483E-03   -0.13655E-04  3363   0.651E-03    0.237E-02
RMM:   6    -0.231500774172E+04   -0.48944E-05   -0.33666E-05  2726   0.359E-03
  16 F= -.23358536E+04 E0= -.23358534E+04  d E =-.371025E-03  mag=     5.9969
       N       E                     dE             d eps       ncg     rms          rms(c)
DAV:   1    -0.231499231103E+04    0.15426E-01   -0.13039E+00  4960   0.506E-01    0.603E-01
RMM:   2    -0.231498636499E+04    0.59460E-02   -0.21526E-02  4543   0.577E-02    0.312E-01
RMM:   3    -0.231498613205E+04    0.23294E-03   -0.36545E-03  4207   0.348E-02    0.309E-01
RMM:   4    -0.231498568146E+04    0.45059E-03   -0.21879E-03  4698   0.200E-02    0.213E-01
RMM:   5    -0.231498528824E+04    0.39322E-03   -0.35687E-04  4068   0.103E-02    0.342E-02
RMM:   6    -0.231498529185E+04   -0.36022E-05   -0.68075E-05  2979   0.462E-03
  17 F= -.23358300E+04 E0= -.23358299E+04  d E =-.303810E-03  mag=     5.9972
       N       E                     dE             d eps       ncg     rms          rms(c)
DAV:   1    -0.231499129555E+04   -0.60073E-02   -0.62920E-01  4640   0.340E-01    0.290E-01
RMM:   2    -0.231499078621E+04    0.50935E-03   -0.41430E-03  4212   0.263E-02    0.169E-01
RMM:   3    -0.231499095706E+04   -0.17085E-03   -0.97693E-04  4337   0.154E-02    0.202E-01
RMM:   4    -0.231499065238E+04    0.30467E-03   -0.62363E-04  3969   0.111E-02    0.873E-02
RMM:   5    -0.231499060776E+04    0.44624E-04   -0.68423E-05  3105   0.505E-03    0.170E-02
RMM:   6    -0.231499060655E+04    0.12095E-05   -0.13746E-05  2611   0.267E-03
  18 F= -.23358358E+04 E0= -.23358356E+04  d E =-.380247E-03  mag=     5.9969
       N       E                     dE             d eps       ncg     rms          rms(c)
DAV:   1    -0.231501924206E+04   -0.28634E-01   -0.12510E+00  4640   0.477E-01    0.416E-01
RMM:   2    -0.231501822471E+04    0.10174E-02   -0.87609E-03  4021   0.359E-02    0.237E-01
RMM:   3    -0.231501847289E+04   -0.24818E-03   -0.23873E-03  4760   0.243E-02    0.282E-01
RMM:   4    -0.231501783974E+04    0.63315E-03   -0.10009E-03  4321   0.129E-02    0.807E-02
RMM:   5    -0.231501779196E+04    0.47785E-04   -0.99834E-05  3096   0.584E-03    0.188E-02
RMM:   6    -0.231501779409E+04   -0.21301E-05   -0.21075E-05  2814   0.292E-03
  19 F= -.23358632E+04 E0= -.23358630E+04  d E =-.289378E-03  mag=     5.9973
       N       E                     dE             d eps       ncg     rms          rms(c)
DAV:   1    -0.231503354966E+04   -0.15758E-01   -0.56522E-01  4480   0.376E-01    0.272E-01
RMM:   2    -0.231503308266E+04    0.46701E-03   -0.54785E-03  4286   0.321E-02    0.201E-01
RMM:   3    -0.231503331769E+04   -0.23503E-03   -0.17670E-03  4595   0.193E-02    0.278E-01
RMM:   4    -0.231503265325E+04    0.66445E-03   -0.58520E-04  3880   0.115E-02    0.535E-02
RMM:   5    -0.231503264654E+04    0.67096E-05   -0.11599E-04  3235   0.545E-03    0.180E-02
RMM:   6    -0.231503264644E+04    0.97396E-07   -0.13981E-05  2785   0.344E-03
  20 F= -.23358773E+04 E0= -.23358771E+04  d E =-.367679E-03  mag=     5.9970
       N       E                     dE             d eps       ncg     rms          rms(c)
DAV:   1    -0.231498504024E+04    0.47606E-01   -0.99927E-01  4480   0.473E-01    0.304E-01
RMM:   2    -0.231498482310E+04    0.21714E-03   -0.92195E-03  4574   0.427E-02    0.267E-01
RMM:   3    -0.231498455206E+04    0.27104E-03   -0.22075E-03  4654   0.231E-02    0.280E-01
RMM:   4    -0.231498389253E+04    0.65953E-03   -0.60220E-04  3838   0.124E-02    0.709E-02
RMM:   5    -0.231498388485E+04    0.76816E-05   -0.21511E-04  3517   0.718E-03    0.321E-02
RMM:   6    -0.231498388448E+04    0.36831E-06   -0.40075E-05  2895   0.468E-03
  21 F= -.23358298E+04 E0= -.23358297E+04  d E =-.301790E-03  mag=     5.9972
       N       E                     dE             d eps       ncg     rms          rms(c)
DAV:   1    -0.231501306175E+04   -0.29177E-01   -0.49987E-01  4480   0.333E-01    0.172E-01
RMM:   2    -0.231501306692E+04   -0.51713E-05   -0.35120E-03  4124   0.257E-02    0.127E-01
RMM:   3    -0.231501308984E+04   -0.22920E-04   -0.68166E-04  4074   0.130E-02    0.176E-01
RMM:   4    -0.231501283795E+04    0.25189E-03   -0.23423E-04  3338   0.769E-03    0.372E-02
RMM:   5    -0.231501284219E+04   -0.42410E-05   -0.70368E-05  3045   0.434E-03
  22 F= -.23358581E+04 E0= -.23358579E+04  d E =-.321333E-03  mag=     5.9972
       N       E                     dE             d eps       ncg     rms          rms(c)
DAV:   1    -0.231499989190E+04    0.12946E-01   -0.10060E+00  4480   0.463E-01    0.148E-01
RMM:   2    -0.231500017389E+04   -0.28199E-03   -0.17266E-03  3563   0.200E-02    0.104E-01
RMM:   3    -0.231500032737E+04   -0.15348E-03   -0.44204E-04  3983   0.911E-03    0.141E-01
RMM:   4    -0.231500017211E+04    0.15526E-03   -0.22099E-04  3318   0.707E-03    0.254E-02
RMM:   5    -0.231500018376E+04   -0.11646E-04   -0.31413E-05  2733   0.329E-03    0.175E-02
RMM:   6    -0.231500018171E+04    0.20461E-05   -0.62526E-06  2286   0.201E-03
  23 F= -.23358455E+04 E0= -.23358454E+04  d E =-.342767E-03  mag=     5.9971
       N       E                     dE             d eps       ncg     rms          rms(c)
DAV:   1    -0.231503082538E+04   -0.30642E-01   -0.50696E-01  4480   0.335E-01    0.133E-01
RMM:   2    -0.231503111351E+04   -0.28813E-03   -0.22737E-03  3885   0.216E-02    0.157E-01
RMM:   3    -0.231503092406E+04    0.18945E-03   -0.42798E-04  3422   0.116E-02    0.820E-02
RMM:   4    -0.231503090086E+04    0.23200E-04   -0.15607E-04  3390   0.572E-03    0.248E-02
RMM:   5    -0.231503090872E+04   -0.78577E-05   -0.33032E-05  2651   0.422E-03
  24 F= -.23358760E+04 E0= -.23358758E+04  d E =-.342480E-03  mag=     5.9971
       N       E                     dE             d eps       ncg     rms          rms(c)
DAV:   1    -0.231497758674E+04    0.53314E-01   -0.10044E+00  4480   0.466E-01    0.211E-01
RMM:   2    -0.231497829121E+04   -0.70446E-03   -0.57366E-03  4204   0.343E-02    0.278E-01
RMM:   3    -0.231497760154E+04    0.68967E-03   -0.11275E-03  4265   0.169E-02    0.119E-01
RMM:   4    -0.231497750764E+04    0.93896E-04   -0.37360E-04  4060   0.836E-03    0.443E-02
RMM:   5    -0.231497751919E+04   -0.11544E-04   -0.82888E-05  2954   0.593E-03    0.515E-02
RMM:   6    -0.231497749734E+04    0.21844E-04   -0.24559E-05  2536   0.290E-03    0.109E-02
RMM:   7    -0.231497749580E+04    0.15428E-05   -0.79858E-06  2368   0.168E-03
  25 F= -.23358230E+04 E0= -.23358228E+04  d E =-.328227E-03  mag=     5.9971
       N       E                     dE             d eps       ncg     rms          rms(c)
DAV:   1    -0.231500670950E+04   -0.29212E-01   -0.56537E-01  4480   0.345E-01    0.185E-01
RMM:   2    -0.231500680536E+04   -0.95864E-04   -0.31037E-03  4127   0.276E-02    0.170E-01
RMM:   3    -0.231500667463E+04    0.13073E-03   -0.69549E-04  4083   0.144E-02    0.145E-01
RMM:   4    -0.231500648273E+04    0.19190E-03   -0.32977E-04  4211   0.865E-03    0.297E-02
RMM:   5    -0.231500648846E+04   -0.57390E-05   -0.46666E-05  3002   0.436E-03
  26 F= -.23358518E+04 E0= -.23358516E+04  d E =-.481956E-03  mag=     5.9963
       N       E                     dE             d eps       ncg     rms          rms(c)
DAV:   1    -0.231500633567E+04    0.14706E-03   -0.11521E+00  4480   0.419E-01    0.288E-01
RMM:   2    -0.231500614014E+04    0.19553E-03   -0.56845E-03  4462   0.342E-02    0.265E-01
RMM:   3    -0.231500590905E+04    0.23108E-03   -0.17903E-03  4579   0.199E-02    0.248E-01
RMM:   4    -0.231500533481E+04    0.57424E-03   -0.58652E-04  4278   0.119E-02    0.602E-02
RMM:   5    -0.231500531897E+04    0.15842E-04   -0.13161E-04  3355   0.738E-03    0.370E-02
RMM:   6    -0.231500531490E+04    0.40713E-05   -0.39667E-05  2961   0.449E-03
  27 F= -.23358505E+04 E0= -.23358504E+04  d E =-.230215E-03  mag=     5.9974
       N       E                     dE             d eps       ncg     rms          rms(c)
DAV:   1    -0.231500753728E+04   -0.22183E-02   -0.58347E-01  4480   0.293E-01    0.187E-01
RMM:   2    -0.231500742894E+04    0.10834E-03   -0.19671E-03  4129   0.200E-02    0.124E-01
RMM:   3    -0.231500755271E+04   -0.12377E-03   -0.71103E-04  3946   0.125E-02    0.190E-01
RMM:   4    -0.231500722230E+04    0.33042E-03   -0.34012E-04  3630   0.861E-03    0.339E-02
RMM:   5    -0.231500722432E+04   -0.20253E-05   -0.60570E-05  3018   0.477E-03
  28 F= -.23358525E+04 E0= -.23358523E+04  d E =-.343788E-03  mag=     5.9972
       N       E                     dE             d eps       ncg     rms          rms(c)
DAV:   1    -0.231500839356E+04   -0.11713E-02   -0.11685E+00  4480   0.406E-01    0.255E-01
RMM:   2    -0.231500810695E+04    0.28661E-03   -0.20199E-03  4014   0.200E-02    0.145E-01
RMM:   3    -0.231500792144E+04    0.18551E-03   -0.60217E-04  3947   0.132E-02    0.104E-01
RMM:   4    -0.231500797424E+04   -0.52801E-04   -0.52593E-04  3945   0.980E-03    0.121E-01
RMM:   5    -0.231500783421E+04    0.14003E-03   -0.14048E-04  3262   0.617E-03    0.112E-02
RMM:   6    -0.231500783260E+04    0.16108E-05   -0.15697E-05  2760   0.276E-03
  29 F= -.23358531E+04 E0= -.23358529E+04  d E =-.327355E-03  mag=     5.9972
       N       E                     dE             d eps       ncg     rms          rms(c)
DAV:   1    -0.231501629975E+04   -0.84655E-02   -0.59030E-01  4480   0.295E-01    0.219E-01
RMM:   2    -0.231501666537E+04   -0.36562E-03   -0.32609E-03  4860   0.235E-02    0.299E-01
RMM:   3    -0.231501583971E+04    0.82566E-03   -0.10353E-03  4283   0.147E-02    0.118E-01
RMM:   4    -0.231501568507E+04    0.15464E-03   -0.33051E-04  4082   0.756E-03    0.451E-02
RMM:   5    -0.231501570360E+04   -0.18523E-04   -0.97816E-05  3056   0.562E-03    0.589E-02
RMM:   6    -0.231501567413E+04    0.29465E-04   -0.28871E-05  2788   0.354E-03    0.805E-03
RMM:   7    -0.231501567323E+04    0.90197E-06   -0.54067E-06  2547   0.167E-03
  30 F= -.23358612E+04 E0= -.23358610E+04  d E =-.390860E-03  mag=     5.9968
       N       E                     dE             d eps       ncg     rms          rms(c)
DAV:   1    -0.231499535148E+04    0.20323E-01   -0.11715E+00  4480   0.425E-01    0.337E-01
RMM:   2    -0.231499693416E+04   -0.15827E-02   -0.98625E-03  5236   0.403E-02    0.548E-01
RMM:   3    -0.231499395917E+04    0.29750E-02   -0.28103E-03  4958   0.236E-02    0.159E-01
RMM:   4    -0.231499365531E+04    0.30386E-03   -0.87564E-04  4620   0.120E-02    0.721E-02
RMM:   5    -0.231499368022E+04   -0.24903E-04   -0.20952E-04  3323   0.722E-03    0.876E-02
RMM:   6    -0.231499361328E+04    0.66934E-04   -0.60113E-05  2906   0.472E-03    0.130E-02
RMM:   7    -0.231499361023E+04    0.30549E-05   -0.11606E-05  2731   0.216E-03
  31 F= -.23358387E+04 E0= -.23358386E+04  d E =-.284427E-03  mag=     5.9973
