       N       E                     dE             d eps       ncg     rms          rms(c)
DAV:   1     0.128849961717E+05    0.12885E+05   -0.83377E+05  4488   0.144E+03
DAV:   2    -0.105156237716E+04   -0.13937E+05   -0.13328E+05  5088   0.330E+02
DAV:   3    -0.247373452841E+04   -0.14222E+04   -0.14073E+04  5408   0.112E+02
DAV:   4    -0.251720826820E+04   -0.43474E+02   -0.43244E+02  6728   0.289E+01
DAV:   5    -0.251796271457E+04   -0.75445E+00   -0.75307E+00  5880   0.331E+00    0.170E+02
RMM:   6    -0.148904626681E+04    0.10289E+04   -0.19364E+03  4423   0.384E+01    0.722E+01
RMM:   7    -0.165176331404E+04   -0.16272E+03   -0.29026E+02  4996   0.142E+01    0.471E+01
RMM:   8    -0.170918774957E+04   -0.57424E+02   -0.33180E+01  5214   0.657E+00    0.377E+01
RMM:   9    -0.183344165229E+04   -0.12425E+03   -0.63691E+01  5078   0.771E+00    0.392E+01
RMM:  10    -0.191886372476E+04   -0.85422E+02   -0.49672E+01  5373   0.642E+00    0.244E+01
RMM:  11    -0.198511778176E+04   -0.66254E+02   -0.25774E+01  5242   0.426E+00    0.222E+01
RMM:  12    -0.205858210533E+04   -0.73464E+02   -0.26687E+01  4942   0.408E+00    0.155E+01
RMM:  13    -0.215108787201E+04   -0.92506E+02   -0.48139E+01  4441   0.538E+00    0.116E+01
RMM:  14    -0.225664446909E+04   -0.10556E+03   -0.91366E+01  4602   0.680E+00    0.109E+01
RMM:  15    -0.228270971413E+04   -0.26065E+02   -0.20541E+01  4612   0.404E+00    0.720E+00
RMM:  16    -0.230480302947E+04   -0.22093E+02   -0.21938E+01  4403   0.294E+00    0.434E+00
RMM:  17    -0.231001326578E+04   -0.52102E+01   -0.44392E+00  4592   0.212E+00    0.258E+00
RMM:  18    -0.231154284566E+04   -0.15296E+01   -0.18362E+00  5207   0.752E-01    0.133E+00
RMM:  19    -0.231189706546E+04   -0.35422E+00   -0.44303E-01  4847   0.483E-01    0.113E+00
RMM:  20    -0.231199760543E+04   -0.10054E+00   -0.99140E-02  5102   0.227E-01    0.635E-01
RMM:  21    -0.231203889648E+04   -0.41291E-01   -0.24605E-02  4811   0.109E-01    0.298E-01
RMM:  22    -0.231207418027E+04   -0.35284E-01   -0.14521E-02  4487   0.881E-02    0.156E-01
RMM:  23    -0.231209584733E+04   -0.21667E-01   -0.74515E-03  4563   0.712E-02    0.117E-01
RMM:  24    -0.231210758553E+04   -0.11738E-01   -0.45522E-03  4551   0.558E-02    0.618E-02
RMM:  25    -0.231211701725E+04   -0.94317E-02   -0.33385E-03  4492   0.473E-02    0.422E-02
RMM:  26    -0.231212160514E+04   -0.45879E-02   -0.16747E-03  4656   0.350E-02    0.236E-02
RMM:  27    -0.231212344924E+04   -0.18441E-02   -0.76920E-04  4193   0.210E-02    0.157E-02
RMM:  28    -0.231212388615E+04   -0.43691E-03   -0.18014E-04  3872   0.131E-02    0.858E-03
RMM:  29    -0.231212411109E+04   -0.22494E-03   -0.67888E-05  3552   0.668E-03    0.540E-03
RMM:  30    -0.231212421233E+04   -0.10124E-03   -0.25762E-05  3158   0.562E-03    0.269E-03
RMM:  31    -0.231212426596E+04   -0.53633E-04   -0.14782E-05  2945   0.366E-03    0.204E-03
RMM:  32    -0.231212428175E+04   -0.15793E-04   -0.66916E-06  2815   0.309E-03    0.976E-04
RMM:  33    -0.231212428498E+04   -0.32244E-05   -0.32443E-06  2397   0.211E-03
   1 F= -.23329117E+04 E0= -.23329117E+04  d E =-.233291E+04  mag=     5.0000
       N       E                     dE             d eps       ncg     rms          rms(c)
DAV:   1    -0.231211877366E+04    0.55081E-02   -0.65843E+00  5120   0.199E+00    0.748E-01
RMM:   2    -0.231225603004E+04   -0.13726E+00   -0.14416E+00  6273   0.526E-01    0.492E-01
RMM:   3    -0.231226834533E+04   -0.12315E-01   -0.15904E-01  5630   0.243E-01    0.421E-01
RMM:   4    -0.231226851240E+04   -0.16707E-03   -0.13511E-02  5832   0.412E-02    0.362E-01
RMM:   5    -0.231226731239E+04    0.12000E-02   -0.23876E-03  5569   0.247E-02    0.188E-01
RMM:   6    -0.231226701072E+04    0.30167E-03   -0.14986E-03  5026   0.193E-02    0.891E-02
RMM:   7    -0.231226700361E+04    0.71092E-05   -0.44198E-04  4048   0.138E-02    0.860E-02
RMM:   8    -0.231226691298E+04    0.90628E-04   -0.81696E-05  2995   0.623E-03    0.314E-02
RMM:   9    -0.231226690045E+04    0.12530E-04   -0.70699E-05  2995   0.506E-03    0.893E-03
RMM:  10    -0.231226690173E+04   -0.12776E-05   -0.14084E-05  2898   0.343E-03
   2 F= -.23330531E+04 E0= -.23330531E+04  d E =-.141369E+00  mag=     5.0000
       N       E                     dE             d eps       ncg     rms          rms(c)
DAV:   1    -0.231219180909E+04    0.75091E-01   -0.51604E+00  4688   0.178E+00    0.671E-01
RMM:   2    -0.231230213534E+04   -0.11033E+00   -0.11611E+00  6156   0.470E-01    0.451E-01
RMM:   3    -0.231231238748E+04   -0.10252E-01   -0.12843E-01  5510   0.240E-01    0.370E-01
RMM:   4    -0.231231228943E+04    0.98046E-04   -0.10662E-02  5690   0.372E-02    0.287E-01
RMM:   5    -0.231231163878E+04    0.65066E-03   -0.22936E-03  5536   0.240E-02    0.222E-01
RMM:   6    -0.231231145455E+04    0.18423E-03   -0.12918E-03  4816   0.172E-02    0.168E-01
RMM:   7    -0.231231118453E+04    0.27002E-03   -0.53332E-04  4655   0.126E-02    0.448E-02
RMM:   8    -0.231231116236E+04    0.22170E-04   -0.68101E-05  2985   0.670E-03    0.279E-02
RMM:   9    -0.231231115550E+04    0.68632E-05   -0.42169E-05  2932   0.457E-03
   3 F= -.23330965E+04 E0= -.23330965E+04  d E =-.184736E+00  mag=     5.0000
       N       E                     dE             d eps       ncg     rms          rms(c)
DAV:   1    -0.231231467772E+04   -0.35154E-02   -0.33184E+00  4624   0.192E+00    0.767E-01
RMM:   2    -0.231233179420E+04   -0.17116E-01   -0.21035E-01  5706   0.372E-01    0.352E-01
RMM:   3    -0.231233160655E+04    0.18765E-03   -0.20055E-02  5244   0.156E-01    0.345E-01
RMM:   4    -0.231233009841E+04    0.15081E-02   -0.39459E-03  5699   0.465E-02    0.191E-01
RMM:   5    -0.231232996549E+04    0.13293E-03   -0.18040E-03  4884   0.330E-02    0.244E-01
RMM:   6    -0.231232952857E+04    0.43691E-03   -0.80823E-04  4810   0.205E-02    0.746E-02
RMM:   7    -0.231232946230E+04    0.66270E-04   -0.12617E-04  4068   0.111E-02    0.251E-02
RMM:   8    -0.231232944601E+04    0.16292E-04   -0.38483E-05  3189   0.634E-03    0.151E-02
RMM:   9    -0.231232943826E+04    0.77526E-05   -0.20039E-05  2951   0.486E-03
   4 F= -.23331145E+04 E0= -.23331145E+04  d E =-.180481E-01  mag=     5.0000
       N       E                     dE             d eps       ncg     rms          rms(c)
DAV:   1    -0.231233000330E+04   -0.55729E-03   -0.13271E-01  4796   0.388E-01    0.154E-01
RMM:   2    -0.231233070087E+04   -0.69757E-03   -0.84688E-03  5777   0.758E-02    0.716E-02
RMM:   3    -0.231233070466E+04   -0.37906E-05   -0.82972E-04  4863   0.307E-02    0.754E-02
RMM:   4    -0.231233063488E+04    0.69779E-04   -0.15117E-04  3700   0.974E-03    0.436E-02
RMM:   5    -0.231233063317E+04    0.17123E-05   -0.75924E-05  3223   0.759E-03
   5 F= -.23331158E+04 E0= -.23331158E+04  d E =-.192898E-01  mag=     5.0000
       N       E                     dE             d eps       ncg     rms          rms(c)
DAV:   1    -0.231231283591E+04    0.17799E-01   -0.22324E+00  4544   0.147E+00    0.445E-01
RMM:   2    -0.231234618541E+04   -0.33350E-01   -0.35557E-01  6316   0.323E-01    0.258E-01
RMM:   3    -0.231234858119E+04   -0.23958E-02   -0.32872E-02  5767   0.108E-01    0.227E-01
RMM:   4    -0.231234832265E+04    0.25854E-03   -0.32037E-03  5209   0.256E-02    0.159E-01
RMM:   5    -0.231234820891E+04    0.11374E-03   -0.58738E-04  4581   0.133E-02    0.153E-01
RMM:   6    -0.231234800406E+04    0.20485E-03   -0.51992E-04  4561   0.140E-02    0.508E-02
RMM:   7    -0.231234798790E+04    0.16159E-04   -0.74388E-05  3377   0.809E-03    0.190E-02
RMM:   8    -0.231234798539E+04    0.25126E-05   -0.14960E-05  2889   0.442E-03
   6 F= -.23331332E+04 E0= -.23331332E+04  d E =-.174390E-01  mag=     5.0000
       N       E                     dE             d eps       ncg     rms          rms(c)
DAV:   1    -0.231219272262E+04    0.15527E+00   -0.10567E+01  4512   0.320E+00    0.967E-01
RMM:   2    -0.231234954196E+04   -0.15682E+00   -0.16744E+00  6289   0.694E-01    0.564E-01
RMM:   3    -0.231236119393E+04   -0.11652E-01   -0.15766E-01  5844   0.233E-01    0.486E-01
RMM:   4    -0.231235960715E+04    0.15868E-02   -0.14977E-02  6053   0.557E-02    0.274E-01
RMM:   5    -0.231235904896E+04    0.55819E-03   -0.29768E-03  4982   0.311E-02    0.290E-01
RMM:   6    -0.231235863801E+04    0.41095E-03   -0.17114E-03  5099   0.248E-02    0.177E-01
RMM:   7    -0.231235840055E+04    0.23746E-03   -0.38798E-04  4764   0.134E-02    0.469E-02
RMM:   8    -0.231235837690E+04    0.23650E-04   -0.75186E-05  3120   0.840E-03    0.153E-02
RMM:   9    -0.231235837370E+04    0.31954E-05   -0.24488E-05  2927   0.421E-03
   7 F= -.23331437E+04 E0= -.23331437E+04  d E =-.278928E-01  mag=     5.0000
       N       E                     dE             d eps       ncg     rms          rms(c)
DAV:   1    -0.231235540938E+04    0.29675E-02   -0.70262E-01  4640   0.812E-01    0.240E-01
RMM:   2    -0.231236611731E+04   -0.10708E-01   -0.11347E-01  6354   0.180E-01    0.158E-01
RMM:   3    -0.231236682451E+04   -0.70720E-03   -0.10705E-02  5558   0.584E-02    0.117E-01
RMM:   4    -0.231236675538E+04    0.69133E-04   -0.10270E-03  3875   0.140E-02    0.785E-02
RMM:   5    -0.231236673883E+04    0.16550E-04   -0.17291E-04  3345   0.846E-03    0.890E-02
RMM:   6    -0.231236667716E+04    0.61664E-04   -0.14723E-04  3594   0.849E-03    0.321E-02
RMM:   7    -0.231236667259E+04    0.45719E-05   -0.26864E-05  2932   0.569E-03
   8 F= -.23331517E+04 E0= -.23331517E+04  d E =-.807445E-02  mag=     5.0000
       N       E                     dE             d eps       ncg     rms          rms(c)
DAV:   1    -0.231227901705E+04    0.87660E-01   -0.63179E+00  4512   0.244E+00    0.717E-01
RMM:   2    -0.231237500948E+04   -0.95992E-01   -0.10190E+00  6364   0.532E-01    0.469E-01
RMM:   3    -0.231238199307E+04   -0.69836E-02   -0.97593E-02  5899   0.176E-01    0.382E-01
RMM:   4    -0.231238103853E+04    0.95454E-03   -0.93257E-03  5915   0.424E-02    0.222E-01
RMM:   5    -0.231238093198E+04    0.10654E-03   -0.16128E-03  4954   0.214E-02    0.271E-01
RMM:   6    -0.231238041343E+04    0.51855E-03   -0.12909E-03  5291   0.205E-02    0.109E-01
RMM:   7    -0.231238033821E+04    0.75221E-04   -0.21001E-04  4347   0.112E-02    0.300E-02
RMM:   8    -0.231238033105E+04    0.71614E-05   -0.36341E-05  2937   0.620E-03
   9 F= -.23331647E+04 E0= -.23331647E+04  d E =-.209903E-01  mag=     5.0000
       N       E                     dE             d eps       ncg     rms          rms(c)
DAV:   1    -0.231237463822E+04    0.57000E-02   -0.40099E-01  4784   0.615E-01    0.183E-01
RMM:   2    -0.231238077576E+04   -0.61375E-02   -0.64839E-02  6335   0.136E-01    0.127E-01
RMM:   3    -0.231238115809E+04   -0.38233E-03   -0.61540E-03  5188   0.435E-02    0.898E-02
RMM:   4    -0.231238111313E+04    0.44963E-04   -0.58667E-04  3392   0.108E-02    0.586E-02
RMM:   5    -0.231238110585E+04    0.72764E-05   -0.99842E-05  3016   0.686E-03
  10 F= -.23331652E+04 E0= -.23331652E+04  d E =-.215617E-01  mag=     5.0000
       N       E                     dE             d eps       ncg     rms          rms(c)
DAV:   1    -0.231238500367E+04   -0.38905E-02   -0.18475E-01  4576   0.451E-01    0.195E-01
RMM:   2    -0.231238719377E+04   -0.21901E-02   -0.24355E-02  6098   0.967E-02    0.875E-02
RMM:   3    -0.231238736380E+04   -0.17003E-03   -0.28320E-03  5129   0.403E-02    0.101E-01
RMM:   4    -0.231238730652E+04    0.57283E-04   -0.27259E-04  3236   0.998E-03    0.575E-02
RMM:   5    -0.231238728312E+04    0.23394E-04   -0.11066E-04  3501   0.794E-03    0.378E-02
RMM:   6    -0.231238727073E+04    0.12397E-04   -0.53486E-05  3046   0.653E-03    0.216E-02
RMM:   7    -0.231238726502E+04    0.57043E-05   -0.11995E-05  2869   0.432E-03
  11 F= -.23331713E+04 E0= -.23331713E+04  d E =-.607519E-02  mag=     5.0000
       N       E                     dE             d eps       ncg     rms          rms(c)
DAV:   1    -0.231238366898E+04    0.36017E-02   -0.67267E-01  4512   0.862E-01    0.368E-01
RMM:   2    -0.231239163159E+04   -0.79626E-02   -0.88555E-02  5996   0.183E-01    0.152E-01
RMM:   3    -0.231239211237E+04   -0.48079E-03   -0.97145E-03  5492   0.774E-02    0.129E-01
RMM:   4    -0.231239212918E+04   -0.16810E-04   -0.10974E-03  4890   0.185E-02    0.137E-01
RMM:   5    -0.231239196576E+04    0.16342E-03   -0.35374E-04  4315   0.131E-02    0.702E-02
RMM:   6    -0.231239193812E+04    0.27639E-04   -0.17460E-04  3850   0.925E-03    0.439E-02
RMM:   7    -0.231239191625E+04    0.21877E-04   -0.36100E-05  2907   0.627E-03    0.112E-02
RMM:   8    -0.231239191447E+04    0.17810E-05   -0.98544E-06  2875   0.349E-03
  12 F= -.23331758E+04 E0= -.23331758E+04  d E =-.105639E-01  mag=     5.0000
       N       E                     dE             d eps       ncg     rms          rms(c)
DAV:   1    -0.231239237397E+04   -0.45772E-03   -0.16388E-01  4544   0.399E-01    0.135E-01
RMM:   2    -0.231239461868E+04   -0.22447E-02   -0.24307E-02  6082   0.864E-02    0.691E-02
RMM:   3    -0.231239478264E+04   -0.16396E-03   -0.26399E-03  4482   0.347E-02    0.477E-02
RMM:   4    -0.231239478793E+04   -0.52827E-05   -0.25734E-04  3091   0.820E-03    0.532E-02
RMM:   5    -0.231239476214E+04    0.25790E-04   -0.71801E-05  3017   0.648E-03    0.292E-02
RMM:   6    -0.231239475916E+04    0.29759E-05   -0.29051E-05  2961   0.535E-03
  13 F= -.23331789E+04 E0= -.23331789E+04  d E =-.309387E-02  mag=     5.0000
       N       E                     dE             d eps       ncg     rms          rms(c)
DAV:   1    -0.231238956584E+04    0.51963E-02   -0.45709E-01  4512   0.667E-01    0.226E-01
RMM:   2    -0.231239582006E+04   -0.62542E-02   -0.67826E-02  5997   0.143E-01    0.113E-01
RMM:   3    -0.231239625941E+04   -0.43935E-03   -0.72881E-03  5208   0.556E-02    0.688E-02
RMM:   4    -0.231239623262E+04    0.26791E-04   -0.74062E-04  4319   0.141E-02    0.542E-02
RMM:   5    -0.231239624321E+04   -0.10594E-04   -0.16126E-04  3365   0.951E-03    0.778E-02
RMM:   6    -0.231239619411E+04    0.49102E-04   -0.62848E-05  3006   0.621E-03    0.161E-02
RMM:   7    -0.231239619253E+04    0.15784E-05   -0.20023E-05  2893   0.476E-03
  14 F= -.23331807E+04 E0= -.23331807E+04  d E =-.494679E-02  mag=     5.0000
       N       E                     dE             d eps       ncg     rms          rms(c)
DAV:   1    -0.231239528871E+04    0.90540E-03   -0.20930E-01  4512   0.442E-01    0.132E-01
RMM:   2    -0.231239835889E+04   -0.30702E-02   -0.32698E-02  6221   0.965E-02    0.804E-02
RMM:   3    -0.231239865386E+04   -0.29497E-03   -0.36926E-03  4702   0.365E-02    0.909E-02
RMM:   4    -0.231239861754E+04    0.36317E-04   -0.31978E-04  2986   0.829E-03    0.457E-02
RMM:   5    -0.231239859031E+04    0.27234E-04   -0.56468E-05  3036   0.570E-03    0.249E-02
RMM:   6    -0.231239858849E+04    0.18213E-05   -0.41730E-05  2949   0.552E-03
  15 F= -.23331834E+04 E0= -.23331834E+04  d E =-.271715E-02  mag=     5.0000
       N       E                     dE             d eps       ncg     rms          rms(c)
DAV:   1    -0.231237192596E+04    0.26664E-01   -0.18791E+00  4480   0.133E+00    0.395E-01
RMM:   2    -0.231239950701E+04   -0.27581E-01   -0.29387E-01  6133   0.288E-01    0.233E-01
RMM:   3    -0.231240200916E+04   -0.25022E-02   -0.32881E-02  5722   0.108E-01    0.240E-01
RMM:   4    -0.231240185265E+04    0.15651E-03   -0.28498E-03  4959   0.227E-02    0.147E-01
RMM:   5    -0.231240158361E+04    0.26904E-03   -0.49403E-04  4560   0.142E-02    0.700E-02
RMM:   6    -0.231240155294E+04    0.30671E-04   -0.30378E-04  4296   0.126E-02    0.490E-02
RMM:   7    -0.231240153120E+04    0.21738E-04   -0.74829E-05  3326   0.711E-03    0.260E-02
RMM:   8    -0.231240152294E+04    0.82600E-05   -0.13505E-05  2889   0.433E-03
  16 F= -.23331873E+04 E0= -.23331873E+04  d E =-.661590E-02  mag=     5.0000
       N       E                     dE             d eps       ncg     rms          rms(c)
DAV:   1    -0.231239709231E+04    0.44389E-02   -0.46272E-01  4560   0.646E-01    0.195E-01
RMM:   2    -0.231240426617E+04   -0.71739E-02   -0.75316E-02  6352   0.143E-01    0.148E-01
RMM:   3    -0.231240492099E+04   -0.65483E-03   -0.80419E-03  5417   0.499E-02    0.167E-01
RMM:   4    -0.231240476140E+04    0.15959E-03   -0.71384E-04  3362   0.118E-02    0.640E-02
RMM:   5    -0.231240470132E+04    0.60084E-04   -0.15204E-04  3592   0.819E-03    0.320E-02
RMM:   6    -0.231240469722E+04    0.41028E-05   -0.59243E-05  3125   0.703E-03
  17 F= -.23331909E+04 E0= -.23331909E+04  d E =-.355966E-02  mag=     5.0000
       N       E                     dE             d eps       ncg     rms          rms(c)
DAV:   1    -0.231237806806E+04    0.26633E-01   -0.17126E+00  4480   0.124E+00    0.376E-01
RMM:   2    -0.231240457681E+04   -0.26509E-01   -0.27993E-01  6262   0.272E-01    0.259E-01
RMM:   3    -0.231240701723E+04   -0.24404E-02   -0.30311E-02  5810   0.957E-02    0.289E-01
RMM:   4    -0.231240662266E+04    0.39457E-03   -0.26453E-03  4874   0.215E-02    0.132E-01
RMM:   5    -0.231240638668E+04    0.23598E-03   -0.52507E-04  4423   0.137E-02    0.634E-02
RMM:   6    -0.231240636647E+04    0.20217E-04   -0.20563E-04  4275   0.112E-02    0.427E-02
RMM:   7    -0.231240635463E+04    0.11839E-04   -0.59340E-05  2973   0.660E-03    0.263E-02
RMM:   8    -0.231240634658E+04    0.80511E-05   -0.13465E-05  2868   0.426E-03
  18 F= -.23331933E+04 E0= -.23331933E+04  d E =-.594265E-02  mag=     5.0000
       N       E                     dE             d eps       ncg     rms          rms(c)
DAV:   1    -0.231239748714E+04    0.88675E-02   -0.63478E-01  4496   0.745E-01    0.237E-01
RMM:   2    -0.231240817569E+04   -0.10689E-01   -0.11163E-01  6362   0.170E-01    0.189E-01
RMM:   3    -0.231240916223E+04   -0.98653E-03   -0.12256E-02  5622   0.588E-02    0.188E-01
RMM:   4    -0.231240897165E+04    0.19058E-03   -0.10587E-03  3603   0.133E-02    0.788E-02
RMM:   5    -0.231240891024E+04    0.61413E-04   -0.19790E-04  3527   0.860E-03    0.583E-02
RMM:   6    -0.231240888317E+04    0.27063E-04   -0.13927E-04  3481   0.796E-03    0.352E-02
RMM:   7    -0.231240887133E+04    0.11842E-04   -0.39532E-05  2964   0.590E-03    0.200E-02
RMM:   8    -0.231240886851E+04    0.28216E-05   -0.88836E-06  2868   0.397E-03
  19 F= -.23331961E+04 E0= -.23331961E+04  d E =-.284826E-02  mag=     5.0000
       N       E                     dE             d eps       ncg     rms          rms(c)
DAV:   1    -0.231237142663E+04    0.37445E-01   -0.21703E+00  4440   0.138E+00    0.439E-01
RMM:   2    -0.231240801312E+04   -0.36586E-01   -0.38168E-01  6303   0.311E-01    0.360E-01
RMM:   3    -0.231241131847E+04   -0.33054E-02   -0.42176E-02  5924   0.109E-01    0.346E-01
RMM:   4    -0.231241067492E+04    0.64356E-03   -0.36310E-03  5239   0.242E-02    0.145E-01
RMM:   5    -0.231241045226E+04    0.22265E-03   -0.67461E-04  4608   0.141E-02    0.103E-01
RMM:   6    -0.231241037496E+04    0.77305E-04   -0.43864E-04  4640   0.124E-02    0.673E-02
RMM:   7    -0.231241032756E+04    0.47403E-04   -0.12444E-04  3438   0.821E-03    0.368E-02
RMM:   8    -0.231241031636E+04    0.11199E-04   -0.22891E-05  2891   0.518E-03    0.105E-02
RMM:   9    -0.231241031473E+04    0.16236E-05   -0.75568E-06  2866   0.302E-03
  20 F= -.23331982E+04 E0= -.23331982E+04  d E =-.488712E-02  mag=     5.0000
       N       E                     dE             d eps       ncg     rms          rms(c)
DAV:   1    -0.231240735253E+04    0.29638E-02   -0.29518E-01  4656   0.485E-01    0.160E-01
RMM:   2    -0.231241251936E+04   -0.51668E-02   -0.54215E-02  6332   0.113E-01    0.117E-01
RMM:   3    -0.231241301204E+04   -0.49268E-03   -0.61348E-03  4893   0.407E-02    0.103E-01
RMM:   4    -0.231241298128E+04    0.30762E-04   -0.55237E-04  3051   0.894E-03    0.586E-02
RMM:   5    -0.231241295484E+04    0.26432E-04   -0.89722E-05  2992   0.570E-03    0.458E-02
RMM:   6    -0.231241293330E+04    0.21543E-04   -0.66652E-05  3023   0.540E-03    0.234E-02
RMM:   7    -0.231241292999E+04    0.33108E-05   -0.24978E-05  2951   0.451E-03
  21 F= -.23332010E+04 E0= -.23332010E+04  d E =-.281740E-02  mag=     5.0000
       N       E                     dE             d eps       ncg     rms          rms(c)
DAV:   1    -0.231236777900E+04    0.45154E-01   -0.26530E+00  4456   0.146E+00    0.482E-01
RMM:   2    -0.231241440789E+04   -0.46629E-01   -0.48876E-01  6434   0.339E-01    0.378E-01
RMM:   3    -0.231241876256E+04   -0.43547E-02   -0.55490E-02  5932   0.122E-01    0.318E-01
RMM:   4    -0.231241843328E+04    0.32928E-03   -0.49605E-03  5116   0.260E-02    0.176E-01
RMM:   5    -0.231241818990E+04    0.24338E-03   -0.80466E-04  4632   0.143E-02    0.133E-01
RMM:   6    -0.231241801832E+04    0.17158E-03   -0.59162E-04  4754   0.130E-02    0.734E-02
RMM:   7    -0.231241797453E+04    0.43790E-04   -0.19405E-04  3802   0.896E-03    0.435E-02
RMM:   8    -0.231241795854E+04    0.15990E-04   -0.31071E-05  2896   0.551E-03    0.125E-02
RMM:   9    -0.231241795699E+04    0.15497E-05   -0.96714E-06  2881   0.309E-03
  22 F= -.23332066E+04 E0= -.23332066E+04  d E =-.843959E-02  mag=     5.0000
       N       E                     dE             d eps       ncg     rms          rms(c)
DAV:   1    -0.231221438872E+04    0.20357E+00   -0.10625E+01  4448   0.292E+00    0.974E-01
RMM:   2    -0.231240329825E+04   -0.18891E+00   -0.19683E+00  6395   0.683E-01    0.858E-01
RMM:   3    -0.231241937417E+04   -0.16076E-01   -0.22591E-01  6013   0.247E-01    0.651E-01
RMM:   4    -0.231241777555E+04    0.15986E-02   -0.19808E-02  5891   0.528E-02    0.352E-01
RMM:   5    -0.231241677174E+04    0.10038E-02   -0.31837E-03  5460   0.277E-02    0.257E-01
RMM:   6    -0.231241612942E+04    0.64233E-03   -0.24441E-03  5437   0.245E-02    0.155E-01
RMM:   7    -0.231241591541E+04    0.21401E-03   -0.81332E-04  4987   0.168E-02    0.832E-02
RMM:   8    -0.231241585971E+04    0.55698E-04   -0.13700E-04  3243   0.831E-03    0.384E-02
RMM:   9    -0.231241584525E+04    0.14455E-04   -0.41179E-05  2904   0.557E-03    0.105E-02
RMM:  10    -0.231241584605E+04   -0.79912E-06   -0.16821E-05  2892   0.356E-03
  23 F= -.23332056E+04 E0= -.23332056E+04  d E =-.745991E-02  mag=     5.0000
       N       E                     dE             d eps       ncg     rms          rms(c)
DAV:   1    -0.231235781059E+04    0.58035E-01   -0.32494E+00  4448   0.163E+00    0.524E-01
RMM:   2    -0.231241410706E+04   -0.56296E-01   -0.59463E-01  6420   0.383E-01    0.329E-01
RMM:   3    -0.231241971776E+04   -0.56107E-02   -0.69658E-02  5853   0.135E-01    0.281E-01
RMM:   4    -0.231241960452E+04    0.11325E-03   -0.61193E-03  5160   0.274E-02    0.200E-01
RMM:   5    -0.231241931510E+04    0.28942E-03   -0.88583E-04  4338   0.147E-02    0.161E-01
RMM:   6    -0.231241908772E+04    0.22739E-03   -0.73776E-04  4838   0.146E-02    0.882E-02
RMM:   7    -0.231241901614E+04    0.71573E-04   -0.31497E-04  4301   0.104E-02    0.439E-02
RMM:   8    -0.231241900115E+04    0.14995E-04   -0.44465E-05  2987   0.619E-03    0.225E-02
RMM:   9    -0.231241899624E+04    0.49101E-05   -0.20886E-05  2908   0.395E-03
  24 F= -.23332082E+04 E0= -.23332082E+04  d E =-.999540E-02  mag=     5.0000
       N       E                     dE             d eps       ncg     rms          rms(c)
DAV:   1    -0.231240509641E+04    0.13905E-01   -0.86700E-01  4464   0.798E-01    0.290E-01
RMM:   2    -0.231242103095E+04   -0.15935E-01   -0.16803E-01  6334   0.191E-01    0.172E-01
RMM:   3    -0.231242251979E+04   -0.14888E-02   -0.19028E-02  5670   0.711E-02    0.117E-01
RMM:   4    -0.231242254296E+04   -0.23164E-04   -0.17831E-03  3880   0.156E-02    0.972E-02
RMM:   5    -0.231242245230E+04    0.90652E-04   -0.25020E-04  3676   0.923E-03    0.875E-02
RMM:   6    -0.231242241077E+04    0.41534E-04   -0.20692E-04  3448   0.848E-03    0.598E-02
RMM:   7    -0.231242238353E+04    0.27245E-04   -0.67044E-05  3076   0.653E-03    0.146E-02
RMM:   8    -0.231242238091E+04    0.26176E-05   -0.95967E-06  2864   0.444E-03
  25 F= -.23332117E+04 E0= -.23332117E+04  d E =-.357156E-02  mag=     5.0000
       N       E                     dE             d eps       ncg     rms          rms(c)
DAV:   1    -0.231240069395E+04    0.21690E-01   -0.11446E+00  4456   0.916E-01    0.335E-01
RMM:   2    -0.231242177232E+04   -0.21078E-01   -0.22220E-01  6335   0.220E-01    0.202E-01
RMM:   3    -0.231242373689E+04   -0.19646E-02   -0.25168E-02  5707   0.820E-02    0.135E-01
RMM:   4    -0.231242375744E+04   -0.20557E-04   -0.23566E-03  4234   0.178E-02    0.105E-01
RMM:   5    -0.231242362976E+04    0.12769E-03   -0.33592E-04  4209   0.106E-02    0.851E-02
RMM:   6    -0.231242361319E+04    0.16572E-04   -0.25776E-04  3568   0.918E-03    0.810E-02
RMM:   7    -0.231242356552E+04    0.47666E-04   -0.89175E-05  3093   0.693E-03    0.210E-02
RMM:   8    -0.231242356046E+04    0.50663E-05   -0.12485E-05  2877   0.451E-03
  26 F= -.23332131E+04 E0= -.23332131E+04  d E =-.495484E-02  mag=     5.0000
       N       E                     dE             d eps       ncg     rms          rms(c)
DAV:   1    -0.231240029864E+04    0.23267E-01   -0.12366E+00  4448   0.909E-01    0.343E-01
RMM:   2    -0.231242512839E+04   -0.24830E-01   -0.26079E-01  6378   0.225E-01    0.212E-01
RMM:   3    -0.231242765575E+04   -0.25274E-02   -0.30120E-02  5736   0.848E-02    0.194E-01
RMM:   4    -0.231242758982E+04    0.65934E-04   -0.27444E-03  4067   0.182E-02    0.139E-01
RMM:   5    -0.231242744057E+04    0.14925E-03   -0.36148E-04  3697   0.972E-03    0.101E-01
RMM:   6    -0.231242734063E+04    0.99940E-04   -0.32137E-04  4172   0.996E-03    0.553E-02
RMM:   7    -0.231242731371E+04    0.26923E-04   -0.10786E-04  3180   0.727E-03    0.139E-02
RMM:   8    -0.231242731143E+04    0.22782E-05   -0.11405E-05  2880   0.477E-03
  27 F= -.23332169E+04 E0= -.23332169E+04  d E =-.374420E-02  mag=     5.0000
       N       E                     dE             d eps       ncg     rms          rms(c)
DAV:   1    -0.231238959535E+04    0.37718E-01   -0.17663E+00  4440   0.109E+00    0.410E-01
RMM:   2    -0.231242512680E+04   -0.35531E-01   -0.37309E-01  6370   0.269E-01    0.255E-01
RMM:   3    -0.231242877561E+04   -0.36488E-02   -0.43229E-02  5786   0.100E-01    0.240E-01
RMM:   4    -0.231242864843E+04    0.12718E-03   -0.39383E-03  4571   0.218E-02    0.166E-01
RMM:   5    -0.231242843136E+04    0.21707E-03   -0.51116E-04  4069   0.112E-02    0.118E-01
RMM:   6    -0.231242829200E+04    0.13936E-03   -0.46124E-04  4533   0.114E-02    0.680E-02
RMM:   7    -0.231242824728E+04    0.44718E-04   -0.16208E-04  3494   0.840E-03    0.173E-02
RMM:   8    -0.231242824308E+04    0.42029E-05   -0.15817E-05  2891   0.509E-03
  28 F= -.23332178E+04 E0= -.23332178E+04  d E =-.464744E-02  mag=     5.0000
       N       E                     dE             d eps       ncg     rms          rms(c)
DAV:   1    -0.231239743924E+04    0.30808E-01   -0.14826E+00  4440   0.988E-01    0.361E-01
RMM:   2    -0.231242789915E+04   -0.30460E-01   -0.31978E-01  6403   0.242E-01    0.218E-01
RMM:   3    -0.231243085041E+04   -0.29513E-02   -0.36003E-02  5681   0.901E-02    0.161E-01
RMM:   4    -0.231243096158E+04   -0.11117E-03   -0.32099E-03  4060   0.188E-02    0.148E-01
RMM:   5    -0.231243076321E+04    0.19837E-03   -0.38303E-04  3680   0.939E-03    0.107E-01
RMM:   6    -0.231243067523E+04    0.87978E-04   -0.33212E-04  3888   0.948E-03    0.675E-02
RMM:   7    -0.231243063639E+04    0.38846E-04   -0.13366E-04  3264   0.743E-03    0.186E-02
RMM:   8    -0.231243063376E+04    0.26325E-05   -0.13488E-05  2893   0.480E-03
  29 F= -.23332204E+04 E0= -.23332204E+04  d E =-.257580E-02  mag=     5.0000
       N       E                     dE             d eps       ncg     rms          rms(c)
DAV:   1    -0.231235834242E+04    0.72294E-01   -0.32138E+00  4432   0.145E+00    0.532E-01
RMM:   2    -0.231242446961E+04   -0.66127E-01   -0.69437E-01  6440   0.355E-01    0.324E-01
RMM:   3    -0.231243092171E+04   -0.64521E-02   -0.79452E-02  5772   0.131E-01    0.227E-01
RMM:   4    -0.231243116643E+04   -0.24473E-03   -0.68702E-03  5017   0.277E-02    0.206E-01
RMM:   5    -0.231243078266E+04    0.38378E-03   -0.81229E-04  4451   0.129E-02    0.161E-01
RMM:   6    -0.231243060311E+04    0.17954E-03   -0.72999E-04  4559   0.127E-02    0.107E-01
RMM:   7    -0.231243050368E+04    0.99437E-04   -0.31719E-04  3972   0.981E-03    0.358E-02
RMM:   8    -0.231243049220E+04    0.11478E-04   -0.33380E-05  2939   0.568E-03    0.134E-02
RMM:   9    -0.231243048921E+04    0.29860E-05   -0.12905E-05  2897   0.351E-03
  30 F= -.23332204E+04 E0= -.23332204E+04  d E =-.265841E-02  mag=     5.0000
       N       E                     dE             d eps       ncg     rms          rms(c)
DAV:   1    -0.231241538406E+04    0.15108E-01   -0.70277E-01  4448   0.680E-01    0.248E-01
RMM:   2    -0.231242984954E+04   -0.14465E-01   -0.15163E-01  6392   0.168E-01    0.157E-01
RMM:   3    -0.231243128751E+04   -0.14380E-02   -0.17272E-02  5352   0.638E-02    0.137E-01
RMM:   4    -0.231243127118E+04    0.16333E-04   -0.15231E-03  3350   0.130E-02    0.100E-01
RMM:   5    -0.231243117793E+04    0.93250E-04   -0.20694E-04  3135   0.736E-03    0.693E-02
RMM:   6    -0.231243113453E+04    0.43397E-04   -0.18046E-04  3358   0.726E-03    0.473E-02
RMM:   7    -0.231243111630E+04    0.18235E-04   -0.69813E-05  3065   0.601E-03    0.159E-02
RMM:   8    -0.231243111407E+04    0.22292E-05   -0.10084E-05  2890   0.388E-03
  31 F= -.23332210E+04 E0= -.23332210E+04  d E =-.318391E-02  mag=     5.0000
       N       E                     dE             d eps       ncg     rms          rms(c)
DAV:   1    -0.231242777144E+04    0.33449E-02   -0.29740E-01  4496   0.546E-01    0.196E-01
RMM:   2    -0.231243251637E+04   -0.47449E-02   -0.49387E-02  5992   0.120E-01    0.162E-01
RMM:   3    -0.231243292345E+04   -0.40708E-03   -0.53992E-03  5512   0.501E-02    0.175E-01
RMM:   4    -0.231243270152E+04    0.22193E-03   -0.54938E-04  3830   0.118E-02    0.509E-02
RMM:   5    -0.231243266134E+04    0.40180E-04   -0.14233E-04  3709   0.862E-03    0.372E-02
RMM:   6    -0.231243265401E+04    0.73366E-05   -0.76485E-05  3051   0.712E-03
  32 F= -.23332229E+04 E0= -.23332229E+04  d E =-.194317E-02  mag=     5.0000
       N       E                     dE             d eps       ncg     rms          rms(c)
DAV:   1    -0.231242701961E+04    0.56417E-02   -0.30901E-01  4464   0.558E-01    0.201E-01
RMM:   2    -0.231243191939E+04   -0.48998E-02   -0.51948E-02  6085   0.123E-01    0.135E-01
RMM:   3    -0.231243237900E+04   -0.45961E-03   -0.54989E-03  5643   0.474E-02    0.166E-01
RMM:   4    -0.231243219061E+04    0.18839E-03   -0.57478E-04  3563   0.115E-02    0.576E-02
RMM:   5    -0.231243214528E+04    0.45325E-04   -0.14991E-04  3793   0.852E-03    0.414E-02
RMM:   6    -0.231243213408E+04    0.11200E-04   -0.86685E-05  3088   0.752E-03    0.293E-02
RMM:   7    -0.231243212342E+04    0.10666E-04   -0.24016E-05  2902   0.551E-03    0.122E-02
RMM:   8    -0.231243212133E+04    0.20817E-05   -0.74597E-06  2856   0.387E-03
  33 F= -.23332228E+04 E0= -.23332228E+04  d E =-.181918E-02  mag=     5.0000
       N       E                     dE             d eps       ncg     rms          rms(c)
DAV:   1    -0.231243135751E+04    0.76590E-03   -0.78427E-02  4544   0.281E-01    0.100E-01
RMM:   2    -0.231243259426E+04   -0.12367E-02   -0.12962E-02  6060   0.621E-02    0.761E-02
RMM:   3    -0.231243271170E+04   -0.11744E-03   -0.14200E-03  3968   0.254E-02    0.894E-02
RMM:   4    -0.231243265415E+04    0.57549E-04   -0.14413E-04  2931   0.688E-03    0.268E-02
RMM:   5    -0.231243264379E+04    0.10358E-04   -0.41173E-05  2942   0.499E-03    0.195E-02
RMM:   6    -0.231243264207E+04    0.17156E-05   -0.21892E-05  2900   0.461E-03
  34 F= -.23332231E+04 E0= -.23332231E+04  d E =-.213537E-02  mag=     5.0000
       N       E                     dE             d eps       ncg     rms          rms(c)
DAV:   1    -0.231242706498E+04    0.55788E-02   -0.37061E-01  4480   0.579E-01    0.198E-01
RMM:   2    -0.231243392073E+04   -0.68558E-02   -0.68122E-02  6170   0.129E-01    0.250E-01
RMM:   3    -0.231243405769E+04   -0.13696E-03   -0.70834E-03  5442   0.500E-02    0.151E-01
RMM:   4    -0.231243393218E+04    0.12551E-03   -0.75927E-04  3566   0.116E-02    0.575E-02
RMM:   5    -0.231243390690E+04    0.25281E-04   -0.11051E-04  3005   0.707E-03    0.539E-02
RMM:   6    -0.231243386517E+04    0.41729E-04   -0.97997E-05  3356   0.708E-03    0.241E-02
RMM:   7    -0.231243386154E+04    0.36237E-05   -0.34383E-05  2961   0.587E-03
  35 F= -.23332248E+04 E0= -.23332248E+04  d E =-.166780E-02  mag=     5.0000
       N       E                     dE             d eps       ncg     rms          rms(c)
DAV:   1    -0.231241290422E+04    0.20961E-01   -0.10805E+00  4464   0.988E-01    0.338E-01
RMM:   2    -0.231243277430E+04   -0.19870E-01   -0.19927E-01  6147   0.218E-01    0.404E-01
RMM:   3    -0.231243340390E+04   -0.62961E-03   -0.20691E-02  5830   0.876E-02    0.268E-01
RMM:   4    -0.231243300629E+04    0.39761E-03   -0.22495E-03  5009   0.196E-02    0.101E-01
RMM:   5    -0.231243293282E+04    0.73470E-04   -0.31972E-04  3652   0.109E-02    0.926E-02
RMM:   6    -0.231243281133E+04    0.12149E-03   -0.27644E-04  4415   0.104E-02    0.399E-02
RMM:   7    -0.231243280082E+04    0.10506E-04   -0.89980E-05  3366   0.824E-03    0.163E-02
RMM:   8    -0.231243279816E+04    0.26688E-05   -0.13247E-05  2882   0.473E-03
  36 F= -.23332245E+04 E0= -.23332245E+04  d E =-.136251E-02  mag=     5.0000
       N       E                     dE             d eps       ncg     rms          rms(c)
DAV:   1    -0.231242795050E+04    0.48503E-02   -0.32314E-01  4480   0.540E-01    0.185E-01
RMM:   2    -0.231243391974E+04   -0.59692E-02   -0.59405E-02  6229   0.120E-01    0.230E-01
RMM:   3    -0.231243404309E+04   -0.12335E-03   -0.62710E-03  5415   0.462E-02    0.143E-01
RMM:   4    -0.231243393175E+04    0.11134E-03   -0.67792E-04  3406   0.109E-02    0.564E-02
RMM:   5    -0.231243390662E+04    0.25128E-04   -0.97246E-05  2969   0.661E-03    0.502E-02
RMM:   6    -0.231243386902E+04    0.37599E-04   -0.89569E-05  3279   0.677E-03    0.210E-02
RMM:   7    -0.231243386705E+04    0.19731E-05   -0.29220E-05  2939   0.564E-03
  37 F= -.23332251E+04 E0= -.23332251E+04  d E =-.201831E-02  mag=     5.0000
       N       E                     dE             d eps       ncg     rms          rms(c)
DAV:   1    -0.231242768991E+04    0.61791E-02   -0.45680E-01  4480   0.663E-01    0.213E-01
RMM:   2    -0.231243524183E+04   -0.75519E-02   -0.76135E-02  6086   0.139E-01    0.223E-01
RMM:   3    -0.231243548208E+04   -0.24025E-03   -0.74584E-03  5379   0.525E-02    0.166E-01
RMM:   4    -0.231243532450E+04    0.15758E-03   -0.89660E-04  3724   0.124E-02    0.771E-02
RMM:   5    -0.231243527470E+04    0.49798E-04   -0.13738E-04  3008   0.729E-03    0.556E-02
RMM:   6    -0.231243522606E+04    0.48640E-04   -0.11939E-04  3785   0.779E-03    0.232E-02
RMM:   7    -0.231243522315E+04    0.29120E-05   -0.39877E-05  2990   0.648E-03
  38 F= -.23332268E+04 E0= -.23332268E+04  d E =-.169106E-02  mag=     5.0000
       N       E                     dE             d eps       ncg     rms          rms(c)
DAV:   1    -0.231242805702E+04    0.71690E-02   -0.43263E-01  4480   0.644E-01    0.210E-01
RMM:   2    -0.231243524742E+04   -0.71904E-02   -0.72719E-02  6158   0.137E-01    0.219E-01
RMM:   3    -0.231243547831E+04   -0.23089E-03   -0.71439E-03  5402   0.534E-02    0.164E-01
RMM:   4    -0.231243532905E+04    0.14927E-03   -0.87022E-04  3651   0.124E-02    0.770E-02
RMM:   5    -0.231243528066E+04    0.48391E-04   -0.13402E-04  2987   0.729E-03    0.540E-02
RMM:   6    -0.231243523662E+04    0.44038E-04   -0.11028E-04  3726   0.766E-03    0.227E-02
RMM:   7    -0.231243523415E+04    0.24708E-05   -0.38841E-05  2986   0.635E-03
  39 F= -.23332271E+04 E0= -.23332271E+04  d E =-.202403E-02  mag=     5.0000
       N       E                     dE             d eps       ncg     rms          rms(c)
DAV:   1    -0.231242899899E+04    0.62376E-02   -0.44205E-01  4480   0.652E-01    0.199E-01
RMM:   2    -0.231243604650E+04   -0.70475E-02   -0.72607E-02  6238   0.137E-01    0.176E-01
RMM:   3    -0.231243638039E+04   -0.33390E-03   -0.72509E-03  5371   0.524E-02    0.119E-01
RMM:   4    -0.231243630511E+04    0.75278E-04   -0.85210E-04  3491   0.118E-02    0.813E-02
RMM:   5    -0.231243626136E+04    0.43755E-04   -0.10736E-04  2931   0.644E-03    0.557E-02
RMM:   6    -0.231243621538E+04    0.45974E-04   -0.10823E-04  3552   0.723E-03    0.217E-02
RMM:   7    -0.231243621274E+04    0.26427E-05   -0.40042E-05  2985   0.618E-03
  40 F= -.23332283E+04 E0= -.23332283E+04  d E =-.120089E-02  mag=     5.0000
       N       E                     dE             d eps       ncg     rms          rms(c)
DAV:   1    -0.231243284058E+04    0.33748E-02   -0.20783E-01  4512   0.447E-01    0.137E-01
RMM:   2    -0.231243616304E+04   -0.33225E-02   -0.34266E-02  6312   0.947E-02    0.122E-01
RMM:   3    -0.231243632009E+04   -0.15705E-03   -0.34147E-03  4610   0.353E-02    0.832E-02
RMM:   4    -0.231243628410E+04    0.35990E-04   -0.40523E-04  3101   0.873E-03    0.569E-02
RMM:   5    -0.231243626255E+04    0.21551E-04   -0.52272E-05  2905   0.486E-03    0.379E-02
RMM:   6    -0.231243624064E+04    0.21905E-04   -0.49458E-05  2981   0.514E-03    0.150E-02
RMM:   7    -0.231243623929E+04    0.13545E-05   -0.20642E-05  2905   0.463E-03
  41 F= -.23332285E+04 E0= -.23332285E+04  d E =-.137767E-02  mag=     5.0000
       N       E                     dE             d eps       ncg     rms          rms(c)
DAV:   1    -0.231243438184E+04    0.18588E-02   -0.17429E-01  4448   0.414E-01    0.134E-01
RMM:   2    -0.231243696581E+04   -0.25840E-02   -0.27119E-02  6105   0.874E-02    0.950E-02
RMM:   3    -0.231243716239E+04   -0.19658E-03   -0.28626E-03  4739   0.349E-02    0.772E-02
RMM:   4    -0.231243713444E+04    0.27954E-04   -0.30857E-04  3016   0.834E-03    0.466E-02
RMM:   5    -0.231243712709E+04    0.73462E-05   -0.56510E-05  2954   0.555E-03
  42 F= -.23332295E+04 E0= -.23332295E+04  d E =-.100020E-02  mag=     5.0000
       N       E                     dE             d eps       ncg     rms          rms(c)
DAV:   1    -0.231243574304E+04    0.13914E-02   -0.93181E-02  4576   0.303E-01    0.986E-02
RMM:   2    -0.231243712868E+04   -0.13856E-02   -0.14533E-02  6192   0.636E-02    0.741E-02
RMM:   3    -0.231243722661E+04   -0.97925E-04   -0.15808E-03  3926   0.252E-02    0.543E-02
RMM:   4    -0.231243720635E+04    0.20257E-04   -0.16000E-04  2954   0.708E-03    0.311E-02
RMM:   5    -0.231243720514E+04    0.12142E-05   -0.47213E-05  2953   0.537E-03
  43 F= -.23332297E+04 E0= -.23332297E+04  d E =-.116034E-02  mag=     5.0000
       N       E                     dE             d eps       ncg     rms          rms(c)
DAV:   1    -0.231243470085E+04    0.25055E-02   -0.22082E-01  4480   0.458E-01    0.137E-01
RMM:   2    -0.231243779762E+04   -0.30968E-02   -0.32767E-02  6175   0.944E-02    0.848E-02
RMM:   3    -0.231243803659E+04   -0.23897E-03   -0.31852E-03  4632   0.361E-02    0.675E-02
RMM:   4    -0.231243802778E+04    0.88106E-05   -0.36856E-04  2999   0.860E-03    0.450E-02
RMM:   5    -0.231243801769E+04    0.10091E-04   -0.58627E-05  2950   0.565E-03    0.442E-02
RMM:   6    -0.231243800121E+04    0.16482E-04   -0.47070E-05  2915   0.536E-03    0.224E-02
RMM:   7    -0.231243799823E+04    0.29843E-05   -0.13979E-05  2898   0.416E-03
  44 F= -.23332306E+04 E0= -.23332306E+04  d E =-.906947E-03  mag=     5.0000
       N       E                     dE             d eps       ncg     rms          rms(c)
DAV:   1    -0.231243390926E+04    0.40920E-02   -0.28534E-01  4480   0.520E-01    0.157E-01
RMM:   2    -0.231243790660E+04   -0.39973E-02   -0.42164E-02  6138   0.107E-01    0.105E-01
RMM:   3    -0.231243826885E+04   -0.36225E-03   -0.43418E-03  4946   0.419E-02    0.111E-01
RMM:   4    -0.231243821891E+04    0.49948E-04   -0.51582E-04  3047   0.971E-03    0.516E-02
RMM:   5    -0.231243819931E+04    0.19592E-04   -0.70957E-05  3025   0.597E-03    0.435E-02
RMM:   6    -0.231243817696E+04    0.22358E-04   -0.68708E-05  2979   0.638E-03    0.193E-02
RMM:   7    -0.231243817384E+04    0.31187E-05   -0.18723E-05  2910   0.483E-03
  45 F= -.23332309E+04 E0= -.23332309E+04  d E =-.121093E-02  mag=     5.0000
       N       E                     dE             d eps       ncg     rms          rms(c)
DAV:   1    -0.231243423013E+04    0.39468E-02   -0.28833E-01  4480   0.528E-01    0.163E-01
RMM:   2    -0.231243850684E+04   -0.42767E-02   -0.45403E-02  6194   0.112E-01    0.878E-02
RMM:   3    -0.231243886567E+04   -0.35883E-03   -0.47992E-03  4979   0.433E-02    0.526E-02
RMM:   4    -0.231243887256E+04   -0.68953E-05   -0.48978E-04  3116   0.940E-03    0.461E-02
RMM:   5    -0.231243884625E+04    0.26315E-04   -0.84614E-05  2989   0.725E-03    0.235E-02
RMM:   6    -0.231243884137E+04    0.48782E-05   -0.33565E-05  2989   0.561E-03
  46 F= -.23332317E+04 E0= -.23332317E+04  d E =-.824461E-03  mag=     5.0000
       N       E                     dE             d eps       ncg     rms          rms(c)
DAV:   1    -0.231243753104E+04    0.13152E-02   -0.80215E-02  4544   0.279E-01    0.869E-02
RMM:   2    -0.231243873115E+04   -0.12001E-02   -0.12751E-02  6186   0.597E-02    0.500E-02
RMM:   3    -0.231243883636E+04   -0.10521E-03   -0.13516E-03  3670   0.214E-02    0.426E-02
RMM:   4    -0.231243883584E+04    0.52075E-06   -0.14797E-04  2935   0.555E-03    0.309E-02
RMM:   5    -0.231243882907E+04    0.67767E-05   -0.20353E-05  2901   0.329E-03
  47 F= -.23332318E+04 E0= -.23332318E+04  d E =-.894934E-03  mag=     5.0000
       N       E                     dE             d eps       ncg     rms          rms(c)
DAV:   1    -0.231243601354E+04    0.28223E-02   -0.19661E-01  4480   0.448E-01    0.148E-01
RMM:   2    -0.231243909158E+04   -0.30780E-02   -0.31885E-02  6131   0.973E-02    0.117E-01
RMM:   3    -0.231243931447E+04   -0.22289E-03   -0.34082E-03  4627   0.359E-02    0.107E-01
RMM:   4    -0.231243923453E+04    0.79937E-04   -0.37999E-04  3064   0.919E-03    0.544E-02
RMM:   5    -0.231243921687E+04    0.17659E-04   -0.66327E-05  2917   0.561E-03    0.403E-02
RMM:   6    -0.231243919663E+04    0.20242E-04   -0.57745E-05  3045   0.588E-03    0.125E-02
RMM:   7    -0.231243919687E+04   -0.23859E-06   -0.12270E-05  2897   0.457E-03
  48 F= -.23332324E+04 E0= -.23332324E+04  d E =-.640209E-03  mag=     5.0000
       N       E                     dE             d eps       ncg     rms          rms(c)
DAV:   1    -0.231243733780E+04    0.18588E-02   -0.10634E-01  4480   0.329E-01    0.109E-01
RMM:   2    -0.231243899459E+04   -0.16568E-02   -0.17323E-02  6208   0.726E-02    0.755E-02
RMM:   3    -0.231243913155E+04   -0.13696E-03   -0.18376E-03  3975   0.273E-02    0.744E-02
RMM:   4    -0.231243909568E+04    0.35871E-04   -0.20739E-04  2955   0.740E-03    0.389E-02
RMM:   5    -0.231243908648E+04    0.92004E-05   -0.34167E-05  2899   0.419E-03
  49 F= -.23332325E+04 E0= -.23332325E+04  d E =-.729641E-03  mag=     5.0000
       N       E                     dE             d eps       ncg     rms          rms(c)
DAV:   1    -0.231243607462E+04    0.30211E-02   -0.21333E-01  4472   0.472E-01    0.155E-01
RMM:   2    -0.231243934121E+04   -0.32666E-02   -0.32745E-02  6128   0.106E-01    0.152E-01
RMM:   3    -0.231243939467E+04   -0.53458E-04   -0.32677E-03  4777   0.381E-02    0.104E-01
RMM:   4    -0.231243932615E+04    0.68517E-04   -0.40588E-04  3194   0.968E-03    0.635E-02
RMM:   5    -0.231243929737E+04    0.28784E-04   -0.77740E-05  2917   0.614E-03    0.406E-02
RMM:   6    -0.231243927617E+04    0.21202E-04   -0.64611E-05  3342   0.640E-03    0.121E-02
RMM:   7    -0.231243927646E+04   -0.28985E-06   -0.13651E-05  2897   0.500E-03
  50 F= -.23332330E+04 E0= -.23332330E+04  d E =-.506809E-03  mag=     5.0000
       N       E                     dE             d eps       ncg     rms          rms(c)
DAV:   1    -0.231243870066E+04    0.57551E-03   -0.30924E-02  4704   0.180E-01    0.601E-02
RMM:   2    -0.231243917693E+04   -0.47626E-03   -0.48215E-03  6142   0.408E-02    0.546E-02
RMM:   3    -0.231243918943E+04   -0.12508E-04   -0.47920E-04  3153   0.150E-02    0.398E-02
RMM:   4    -0.231243917970E+04    0.97291E-05   -0.61934E-05  2923   0.471E-03
  51 F= -.23332330E+04 E0= -.23332330E+04  d E =-.530425E-03  mag=     5.0000
       N       E                     dE             d eps       ncg     rms          rms(c)
DAV:   1    -0.231243677283E+04    0.24166E-02   -0.17019E-01  4448   0.412E-01    0.135E-01
RMM:   2    -0.231243965643E+04   -0.28836E-02   -0.28385E-02  6234   0.934E-02    0.146E-01
RMM:   3    -0.231243965285E+04    0.35777E-05   -0.28142E-03  4270   0.314E-02    0.880E-02
RMM:   4    -0.231243962171E+04    0.31141E-04   -0.35111E-04  3073   0.836E-03    0.648E-02
RMM:   5    -0.231243959027E+04    0.31435E-04   -0.60690E-05  2896   0.516E-03    0.350E-02
RMM:   6    -0.231243957329E+04    0.16977E-04   -0.52013E-05  3056   0.561E-03    0.129E-02
RMM:   7    -0.231243957319E+04    0.10783E-06   -0.15320E-05  2890   0.452E-03
  52 F= -.23332337E+04 E0= -.23332337E+04  d E =-.631124E-03  mag=     5.0000
       N       E                     dE             d eps       ncg     rms          rms(c)
DAV:   1    -0.231243363310E+04    0.59402E-02   -0.35342E-01  4432   0.594E-01    0.201E-01
RMM:   2    -0.231243968191E+04   -0.60488E-02   -0.59617E-02  6257   0.137E-01    0.215E-01
RMM:   3    -0.231243959749E+04    0.84421E-04   -0.57245E-03  5228   0.461E-02    0.116E-01
RMM:   4    -0.231243954818E+04    0.49309E-04   -0.71985E-04  3462   0.112E-02    0.909E-02
RMM:   5    -0.231243948648E+04    0.61694E-04   -0.11168E-04  2935   0.671E-03    0.471E-02
RMM:   6    -0.231243945652E+04    0.29966E-04   -0.83611E-05  3533   0.694E-03    0.196E-02
RMM:   7    -0.231243945480E+04    0.17210E-05   -0.29557E-05  2912   0.594E-03
  53 F= -.23332339E+04 E0= -.23332339E+04  d E =-.853661E-03  mag=     5.0000
       N       E                     dE             d eps       ncg     rms          rms(c)
DAV:   1    -0.231243687476E+04    0.25818E-02   -0.16647E-01  4456   0.399E-01    0.139E-01
RMM:   2    -0.231243982002E+04   -0.29453E-02   -0.29270E-02  6300   0.942E-02    0.143E-01
RMM:   3    -0.231243980165E+04    0.18376E-04   -0.28266E-03  4447   0.328E-02    0.769E-02
RMM:   4    -0.231243978317E+04    0.18472E-04   -0.35846E-04  3090   0.863E-03    0.633E-02
RMM:   5    -0.231243975433E+04    0.28843E-04   -0.55949E-05  2889   0.514E-03    0.333E-02
RMM:   6    -0.231243974001E+04    0.14319E-04   -0.37514E-05  2954   0.501E-03    0.143E-02
RMM:   7    -0.231243973894E+04    0.10757E-05   -0.16856E-05  2867   0.452E-03
  54 F= -.23332344E+04 E0= -.23332344E+04  d E =-.545892E-03  mag=     5.0000
       N       E                     dE             d eps       ncg     rms          rms(c)
DAV:   1    -0.231243796861E+04    0.17714E-02   -0.95701E-02  4560   0.302E-01    0.105E-01
RMM:   2    -0.231243966360E+04   -0.16950E-02   -0.16841E-02  6284   0.717E-02    0.108E-01
RMM:   3    -0.231243965430E+04    0.92985E-05   -0.16283E-03  3926   0.251E-02    0.585E-02
RMM:   4    -0.231243964343E+04    0.10877E-04   -0.20663E-04  2991   0.702E-03    0.482E-02
RMM:   5    -0.231243962675E+04    0.16678E-04   -0.32866E-05  2881   0.404E-03    0.252E-02
RMM:   6    -0.231243961834E+04    0.84119E-05   -0.21429E-05  2893   0.386E-03
  55 F= -.23332345E+04 E0= -.23332345E+04  d E =-.623328E-03  mag=     5.0000
       N       E                     dE             d eps       ncg     rms          rms(c)
DAV:   1    -0.231243640166E+04    0.32251E-02   -0.19576E-01  4440   0.423E-01    0.150E-01
RMM:   2    -0.231243996518E+04   -0.35635E-02   -0.35880E-02  6251   0.980E-02    0.137E-01
RMM:   3    -0.231244005939E+04   -0.94202E-04   -0.36343E-03  4489   0.342E-02    0.824E-02
RMM:   4    -0.231244002370E+04    0.35688E-04   -0.40069E-04  3129   0.876E-03    0.624E-02
RMM:   5    -0.231243999738E+04    0.26318E-04   -0.58241E-05  2887   0.496E-03    0.366E-02
RMM:   6    -0.231243998092E+04    0.16461E-04   -0.40243E-05  2946   0.489E-03    0.143E-02
RMM:   7    -0.231243998011E+04    0.80574E-06   -0.17847E-05  2881   0.434E-03
  56 F= -.23332352E+04 E0= -.23332352E+04  d E =-.682230E-03  mag=     5.0000
       N       E                     dE             d eps       ncg     rms          rms(c)
DAV:   1    -0.231243420242E+04    0.57785E-02   -0.30584E-01  4432   0.529E-01    0.187E-01
RMM:   2    -0.231243978971E+04   -0.55873E-02   -0.56227E-02  6282   0.125E-01    0.172E-01
RMM:   3    -0.231243994012E+04   -0.15041E-03   -0.56520E-03  5112   0.438E-02    0.106E-01
RMM:   4    -0.231243988589E+04    0.54229E-04   -0.63775E-04  3337   0.106E-02    0.806E-02
RMM:   5    -0.231243983995E+04    0.45935E-04   -0.91872E-05  2905   0.600E-03    0.452E-02
RMM:   6    -0.231243981309E+04    0.26864E-04   -0.65128E-05  3125   0.618E-03    0.178E-02
RMM:   7    -0.231243981161E+04    0.14743E-05   -0.29253E-05  2908   0.538E-03
  57 F= -.23332354E+04 E0= -.23332354E+04  d E =-.912908E-03  mag=     5.0000
       N       E                     dE             d eps       ncg     rms          rms(c)
DAV:   1    -0.231243638759E+04    0.34255E-02   -0.20770E-01  4472   0.429E-01    0.153E-01
RMM:   2    -0.231244004685E+04   -0.36593E-02   -0.37305E-02  6314   0.101E-01    0.127E-01
RMM:   3    -0.231244018730E+04   -0.14045E-03   -0.36624E-03  4593   0.364E-02    0.835E-02
RMM:   4    -0.231244014744E+04    0.39863E-04   -0.42747E-04  3142   0.925E-03    0.633E-02
RMM:   5    -0.231244012058E+04    0.26855E-04   -0.59002E-05  2897   0.506E-03    0.373E-02
RMM:   6    -0.231244010318E+04    0.17402E-04   -0.44041E-05  2944   0.504E-03    0.133E-02
RMM:   7    -0.231244010304E+04    0.13587E-06   -0.17398E-05  2900   0.434E-03
  58 F= -.23332361E+04 E0= -.23332361E+04  d E =-.662462E-03  mag=     5.0000
       N       E                     dE             d eps       ncg     rms          rms(c)
DAV:   1    -0.231243658861E+04    0.35146E-02   -0.18539E-01  4480   0.405E-01    0.144E-01
RMM:   2    -0.231243985492E+04   -0.32663E-02   -0.33282E-02  6279   0.952E-02    0.120E-01
RMM:   3    -0.231243998580E+04   -0.13087E-03   -0.32733E-03  4494   0.346E-02    0.797E-02
RMM:   4    -0.231243994903E+04    0.36767E-04   -0.38192E-04  3103   0.884E-03    0.598E-02
RMM:   5    -0.231243992483E+04    0.24195E-04   -0.53661E-05  2897   0.481E-03    0.354E-02
RMM:   6    -0.231243990890E+04    0.15934E-04   -0.39782E-05  2930   0.478E-03    0.125E-02
RMM:   7    -0.231243990865E+04    0.25294E-06   -0.15569E-05  2899   0.411E-03
  59 F= -.23332362E+04 E0= -.23332362E+04  d E =-.818311E-03  mag=     5.0000
       N       E                     dE             d eps       ncg     rms          rms(c)
DAV:   1    -0.231243791102E+04    0.19979E-02   -0.12483E-01  4480   0.331E-01    0.122E-01
RMM:   2    -0.231244007741E+04   -0.21664E-02   -0.22297E-02  6217   0.780E-02    0.935E-02
RMM:   3    -0.231244017087E+04   -0.93464E-04   -0.20869E-03  4168   0.284E-02    0.613E-02
RMM:   4    -0.231244014289E+04    0.27981E-04   -0.25404E-04  3037   0.786E-03    0.459E-02
RMM:   5    -0.231244013117E+04    0.11726E-04   -0.38539E-05  2891   0.444E-03    0.335E-02
RMM:   6    -0.231244011871E+04    0.12463E-04   -0.32562E-05  2895   0.444E-03    0.961E-03
RMM:   7    -0.231244011884E+04   -0.13903E-06   -0.93270E-06  2880   0.358E-03
  60 F= -.23332368E+04 E0= -.23332368E+04  d E =-.523117E-03  mag=     5.0000
       N       E                     dE             d eps       ncg     rms          rms(c)
DAV:   1    -0.231243859508E+04    0.15236E-02   -0.77917E-02  4560   0.262E-01    0.969E-02
RMM:   2    -0.231243995153E+04   -0.13564E-02   -0.13949E-02  6163   0.618E-02    0.743E-02
RMM:   3    -0.231244000971E+04   -0.58175E-04   -0.13030E-03  3733   0.227E-02    0.485E-02
RMM:   4    -0.231243999215E+04    0.17560E-04   -0.15916E-04  2976   0.659E-03    0.364E-02
RMM:   5    -0.231243998493E+04    0.72178E-05   -0.24796E-05  2875   0.365E-03
  61 F= -.23332369E+04 E0= -.23332369E+04  d E =-.636549E-03  mag=     5.0000
       N       E                     dE             d eps       ncg     rms          rms(c)
DAV:   1    -0.231243771179E+04    0.22804E-02   -0.14941E-01  4472   0.365E-01    0.133E-01
RMM:   2    -0.231244031427E+04   -0.26025E-02   -0.26699E-02  6114   0.842E-02    0.101E-01
RMM:   3    -0.231244043694E+04   -0.12266E-03   -0.25005E-03  4222   0.313E-02    0.671E-02
RMM:   4    -0.231244040084E+04    0.36099E-04   -0.30803E-04  3053   0.831E-03    0.479E-02
RMM:   5    -0.231244039031E+04    0.10529E-04   -0.49757E-05  2894   0.477E-03    0.418E-02
RMM:   6    -0.231244037243E+04    0.17876E-04   -0.45910E-05  2924   0.495E-03    0.104E-02
RMM:   7    -0.231244037255E+04   -0.11674E-06   -0.10753E-05  2894   0.387E-03
  62 F= -.23332374E+04 E0= -.23332374E+04  d E =-.561927E-03  mag=     5.0000
       N       E                     dE             d eps       ncg     rms          rms(c)
DAV:   1    -0.231243832807E+04    0.20444E-02   -0.11166E-01  4480   0.315E-01    0.117E-01
RMM:   2    -0.231244028763E+04   -0.19596E-02   -0.20073E-02  6160   0.732E-02    0.898E-02
RMM:   3    -0.231244036843E+04   -0.80804E-04   -0.18647E-03  3985   0.273E-02    0.555E-02
RMM:   4    -0.231244034366E+04    0.24778E-04   -0.23274E-04  2996   0.746E-03    0.410E-02
RMM:   5    -0.231244033475E+04    0.89058E-05   -0.33201E-05  2883   0.416E-03
  63 F= -.23332376E+04 E0= -.23332376E+04  d E =-.674385E-03  mag=     5.0000
       N       E                     dE             d eps       ncg     rms          rms(c)
DAV:   1    -0.231243882063E+04    0.15230E-02   -0.10190E-01  4496   0.294E-01    0.104E-01
RMM:   2    -0.231244069167E+04   -0.18710E-02   -0.19054E-02  6198   0.685E-02    0.872E-02
RMM:   3    -0.231244077496E+04   -0.83291E-04   -0.18124E-03  3675   0.249E-02    0.554E-02
RMM:   4    -0.231244075588E+04    0.19086E-04   -0.22267E-04  2974   0.687E-03    0.403E-02
RMM:   5    -0.231244074720E+04    0.86791E-05   -0.28973E-05  2882   0.360E-03
  64 F= -.23332380E+04 E0= -.23332380E+04  d E =-.487759E-03  mag=     5.0000
       N       E                     dE             d eps       ncg     rms          rms(c)
DAV:   1    -0.231243140361E+04    0.93523E-02   -0.50655E-01  4464   0.653E-01    0.235E-01
RMM:   2    -0.231244070905E+04   -0.93054E-02   -0.94698E-02  6175   0.151E-01    0.195E-01
RMM:   3    -0.231244111473E+04   -0.40567E-03   -0.89311E-03  5309   0.543E-02    0.123E-01
RMM:   4    -0.231244101520E+04    0.99525E-04   -0.11001E-03  3586   0.127E-02    0.895E-02
RMM:   5    -0.231244096732E+04    0.47883E-04   -0.12933E-04  2956   0.676E-03    0.690E-02
RMM:   6    -0.231244091035E+04    0.56972E-04   -0.14957E-04  3620   0.801E-03    0.204E-02
RMM:   7    -0.231244091003E+04    0.31764E-06   -0.35739E-05  2968   0.585E-03
  65 F= -.23332384E+04 E0= -.23332384E+04  d E =-.818930E-03  mag=     5.0000
       N       E                     dE             d eps       ncg     rms          rms(c)
DAV:   1    -0.231243851573E+04    0.23946E-02   -0.15315E-01  4488   0.363E-01    0.133E-01
RMM:   2    -0.231244125679E+04   -0.27411E-02   -0.27823E-02  6211   0.844E-02    0.112E-01
RMM:   3    -0.231244134950E+04   -0.92716E-04   -0.25991E-03  4087   0.307E-02    0.702E-02
RMM:   4    -0.231244131782E+04    0.31680E-04   -0.33180E-04  3033   0.817E-03    0.529E-02
RMM:   5    -0.231244129956E+04    0.18262E-04   -0.42397E-05  2892   0.435E-03    0.344E-02
RMM:   6    -0.231244128397E+04    0.15588E-04   -0.41282E-05  2907   0.449E-03    0.114E-02
RMM:   7    -0.231244128416E+04   -0.18993E-06   -0.12702E-05  2870   0.364E-03
  66 F= -.23332389E+04 E0= -.23332389E+04  d E =-.534414E-03  mag=     5.0000
       N       E                     dE             d eps       ncg     rms          rms(c)
DAV:   1    -0.231243633018E+04    0.49538E-02   -0.27461E-01  4464   0.487E-01    0.178E-01
RMM:   2    -0.231244123611E+04   -0.49059E-02   -0.49733E-02  6134   0.113E-01    0.149E-01
RMM:   3    -0.231244140717E+04   -0.17106E-03   -0.46372E-03  4714   0.407E-02    0.925E-02
RMM:   4    -0.231244134746E+04    0.59711E-04   -0.58366E-04  3190   0.999E-03    0.682E-02
RMM:   5    -0.231244131733E+04    0.30126E-04   -0.72220E-05  2901   0.546E-03    0.471E-02
RMM:   6    -0.231244128804E+04    0.29291E-04   -0.74040E-05  3056   0.589E-03    0.150E-02
RMM:   7    -0.231244128779E+04    0.24633E-06   -0.21682E-05  2919   0.464E-03
  67 F= -.23332391E+04 E0= -.23332391E+04  d E =-.753228E-03  mag=     5.0000
       N       E                     dE             d eps       ncg     rms          rms(c)
DAV:   1    -0.231243962155E+04    0.16665E-02   -0.10733E-01  4512   0.311E-01    0.117E-01
RMM:   2    -0.231244150659E+04   -0.18850E-02   -0.19031E-02  6176   0.733E-02    0.102E-01
RMM:   3    -0.231244155614E+04   -0.49557E-04   -0.17699E-03  3941   0.271E-02    0.712E-02
RMM:   4    -0.231244152203E+04    0.34109E-04   -0.23270E-04  3006   0.756E-03    0.483E-02
RMM:   5    -0.231244150590E+04    0.16138E-04   -0.39129E-05  2891   0.437E-03    0.294E-02
RMM:   6    -0.231244149525E+04    0.10648E-04   -0.33021E-05  2905   0.456E-03    0.906E-03
RMM:   7    -0.231244149560E+04   -0.34877E-06   -0.88794E-06  2879   0.369E-03
  68 F= -.23332396E+04 E0= -.23332396E+04  d E =-.463393E-03  mag=     5.0000
       N       E                     dE             d eps       ncg     rms          rms(c)
DAV:   1    -0.231244026181E+04    0.12334E-02   -0.63808E-02  4544   0.240E-01    0.902E-02
RMM:   2    -0.231244138390E+04   -0.11221E-02   -0.11321E-02  6106   0.567E-02    0.783E-02
RMM:   3    -0.231244141418E+04   -0.30281E-04   -0.10532E-03  3557   0.211E-02    0.544E-02
RMM:   4    -0.231244139421E+04    0.19976E-04   -0.13840E-04  2956   0.611E-03    0.372E-02
RMM:   5    -0.231244138471E+04    0.94930E-05   -0.23672E-05  2876   0.341E-03
  69 F= -.23332397E+04 E0= -.23332397E+04  d E =-.549711E-03  mag=     5.0000
       N       E                     dE             d eps       ncg     rms          rms(c)
DAV:   1    -0.231243994936E+04    0.14448E-02   -0.89702E-02  4480   0.293E-01    0.107E-01
RMM:   2    -0.231244146468E+04   -0.15153E-02   -0.15244E-02  6078   0.670E-02    0.967E-02
RMM:   3    -0.231244151492E+04   -0.50249E-04   -0.14823E-03  3877   0.253E-02    0.778E-02
RMM:   4    -0.231244147362E+04    0.41308E-04   -0.18151E-04  2983   0.711E-03    0.403E-02
RMM:   5    -0.231244146211E+04    0.11506E-04   -0.35765E-05  2897   0.419E-03    0.272E-02
RMM:   6    -0.231244145384E+04    0.82659E-05   -0.25939E-05  2891   0.426E-03
  70 F= -.23332400E+04 E0= -.23332400E+04  d E =-.353345E-03  mag=     5.0000
       N       E                     dE             d eps       ncg     rms          rms(c)
DAV:   1    -0.231244000655E+04    0.14556E-02   -0.74354E-02  4496   0.266E-01    0.996E-02
RMM:   2    -0.231244127136E+04   -0.12648E-02   -0.12744E-02  6111   0.605E-02    0.862E-02
RMM:   3    -0.231244130486E+04   -0.33502E-04   -0.12174E-03  3677   0.221E-02    0.644E-02
RMM:   4    -0.231244127566E+04    0.29200E-04   -0.15251E-04  2971   0.646E-03    0.394E-02
RMM:   5    -0.231244126469E+04    0.10977E-04   -0.28626E-05  2874   0.371E-03    0.235E-02
RMM:   6    -0.231244125820E+04    0.64856E-05   -0.19265E-05  2883   0.363E-03
  71 F= -.23332401E+04 E0= -.23332401E+04  d E =-.416196E-03  mag=     5.0000
       N       E                     dE             d eps       ncg     rms          rms(c)
DAV:   1    -0.231244003937E+04    0.12253E-02   -0.71547E-02  4480   0.255E-01    0.928E-02
RMM:   2    -0.231244132010E+04   -0.12807E-02   -0.12856E-02  6240   0.584E-02    0.873E-02
RMM:   3    -0.231244134572E+04   -0.25624E-04   -0.12471E-03  3573   0.216E-02    0.602E-02
RMM:   4    -0.231244132471E+04    0.21010E-04   -0.15244E-04  2959   0.627E-03    0.380E-02
RMM:   5    -0.231244131396E+04    0.10751E-04   -0.24807E-05  2878   0.350E-03    0.220E-02
RMM:   6    -0.231244130804E+04    0.59205E-05   -0.16233E-05  2875   0.336E-03
  72 F= -.23332404E+04 E0= -.23332404E+04  d E =-.318611E-03  mag=     5.0000
       N       E                     dE             d eps       ncg     rms          rms(c)
DAV:   1    -0.231243842575E+04    0.28882E-02   -0.14810E-01  4472   0.367E-01    0.133E-01
RMM:   2    -0.231244108153E+04   -0.26558E-02   -0.26622E-02  6265   0.838E-02    0.127E-01
RMM:   3    -0.231244113017E+04   -0.48640E-04   -0.25715E-03  4104   0.292E-02    0.872E-02
RMM:   4    -0.231244108629E+04    0.43883E-04   -0.31404E-04  3050   0.817E-03    0.548E-02
RMM:   5    -0.231244106342E+04    0.22865E-04   -0.49602E-05  2894   0.470E-03    0.316E-02
RMM:   6    -0.231244105047E+04    0.12950E-04   -0.33842E-05  2910   0.474E-03    0.114E-02
RMM:   7    -0.231244105010E+04    0.36941E-06   -0.12749E-05  2889   0.406E-03
  73 F= -.23332405E+04 E0= -.23332405E+04  d E =-.447119E-03  mag=     5.0000
       N       E                     dE             d eps       ncg     rms          rms(c)
DAV:   1    -0.231243930257E+04    0.17479E-02   -0.11232E-01  4472   0.329E-01    0.121E-01
RMM:   2    -0.231244117722E+04   -0.18746E-02   -0.18779E-02  6125   0.747E-02    0.108E-01
RMM:   3    -0.231244120186E+04   -0.24640E-04   -0.18011E-03  4108   0.275E-02    0.738E-02
RMM:   4    -0.231244116556E+04    0.36294E-04   -0.22745E-04  3021   0.759E-03    0.516E-02
RMM:   5    -0.231244114546E+04    0.20103E-04   -0.41337E-05  2890   0.446E-03    0.267E-02
RMM:   6    -0.231244113583E+04    0.96338E-05   -0.27021E-05  2896   0.432E-03
  74 F= -.23332409E+04 E0= -.23332409E+04  d E =-.402658E-03  mag=     5.0000
       N       E                     dE             d eps       ncg     rms          rms(c)
DAV:   1    -0.231243978054E+04    0.13649E-02   -0.70963E-02  4544   0.262E-01    0.973E-02
RMM:   2    -0.231244097135E+04   -0.11908E-02   -0.11936E-02  6146   0.587E-02    0.860E-02
RMM:   3    -0.231244098602E+04   -0.14672E-04   -0.11380E-03  3659   0.211E-02    0.578E-02
RMM:   4    -0.231244096208E+04    0.23943E-04   -0.14217E-04  2976   0.634E-03    0.405E-02
RMM:   5    -0.231244095029E+04    0.11783E-04   -0.26474E-05  2866   0.362E-03    0.216E-02
RMM:   6    -0.231244094415E+04    0.61405E-05   -0.16852E-05  2880   0.344E-03
  75 F= -.23332410E+04 E0= -.23332410E+04  d E =-.463875E-03  mag=     5.0000
       N       E                     dE             d eps       ncg     rms          rms(c)
DAV:   1    -0.231243909502E+04    0.18553E-02   -0.11188E-01  4464   0.326E-01    0.121E-01
RMM:   2    -0.231244103919E+04   -0.19442E-02   -0.19375E-02  6165   0.735E-02    0.111E-01
RMM:   3    -0.231244104483E+04   -0.56475E-05   -0.17956E-03  4075   0.272E-02    0.656E-02
RMM:   4    -0.231244101558E+04    0.29259E-04   -0.23046E-04  3028   0.750E-03    0.506E-02
RMM:   5    -0.231244099793E+04    0.17649E-04   -0.38334E-05  2878   0.440E-03    0.277E-02
RMM:   6    -0.231244098850E+04    0.94253E-05   -0.25528E-05  2886   0.424E-03
  76 F= -.23332413E+04 E0= -.23332413E+04  d E =-.329324E-03  mag=     5.0000
       N       E                     dE             d eps       ncg     rms          rms(c)
DAV:   1    -0.231244023583E+04    0.76210E-03   -0.36012E-02  4592   0.185E-01    0.698E-02
RMM:   2    -0.231244086689E+04   -0.63106E-03   -0.62933E-03  6199   0.422E-02    0.635E-02
RMM:   3    -0.231244086709E+04   -0.20298E-06   -0.57851E-04  3149   0.148E-02    0.363E-02
RMM:   4    -0.231244085756E+04    0.95355E-05   -0.73664E-05  2935   0.492E-03
  77 F= -.23332414E+04 E0= -.23332414E+04  d E =-.360778E-03  mag=     5.0000
       N       E                     dE             d eps       ncg     rms          rms(c)
DAV:   1    -0.231243891236E+04    0.19547E-02   -0.11823E-01  4472   0.337E-01    0.124E-01
RMM:   2    -0.231244094878E+04   -0.20364E-02   -0.20359E-02  6070   0.759E-02    0.111E-01
RMM:   3    -0.231244099324E+04   -0.44457E-04   -0.19610E-03  4091   0.292E-02    0.804E-02
RMM:   4    -0.231244095342E+04    0.39821E-04   -0.25952E-04  3023   0.785E-03    0.567E-02
RMM:   5    -0.231244092995E+04    0.23468E-04   -0.47524E-05  2905   0.479E-03    0.312E-02
RMM:   6    -0.231244091672E+04    0.13238E-04   -0.41670E-05  2924   0.524E-03    0.963E-03
RMM:   7    -0.231244091686E+04   -0.14876E-06   -0.10886E-05  2894   0.414E-03
  78 F= -.23332417E+04 E0= -.23332417E+04  d E =-.316057E-03  mag=     5.0000
       N       E                     dE             d eps       ncg     rms          rms(c)
DAV:   1    -0.231244056672E+04    0.35000E-03   -0.15302E-02  4768   0.121E-01    0.458E-02
RMM:   2    -0.231244083388E+04   -0.26716E-03   -0.26888E-03  5934   0.287E-02    0.394E-02
RMM:   3    -0.231244083702E+04   -0.31434E-05   -0.25229E-04  2939   0.111E-02    0.228E-02
RMM:   4    -0.231244083339E+04    0.36288E-05   -0.32821E-05  2918   0.347E-03
  79 F= -.23332417E+04 E0= -.23332417E+04  d E =-.325176E-03  mag=     5.0000
       N       E                     dE             d eps       ncg     rms          rms(c)
DAV:   1    -0.231243848106E+04    0.23560E-02   -0.13374E-01  4472   0.357E-01    0.129E-01
RMM:   2    -0.231244083952E+04   -0.23585E-02   -0.23782E-02  6075   0.811E-02    0.114E-01
RMM:   3    -0.231244091397E+04   -0.74452E-04   -0.22994E-03  4137   0.300E-02    0.831E-02
RMM:   4    -0.231244086940E+04    0.44579E-04   -0.29689E-04  3030   0.801E-03    0.561E-02
RMM:   5    -0.231244084642E+04    0.22979E-04   -0.48437E-05  2905   0.469E-03    0.333E-02
RMM:   6    -0.231244083057E+04    0.15848E-04   -0.45944E-05  2937   0.528E-03    0.100E-02
RMM:   7    -0.231244083046E+04    0.10928E-06   -0.11574E-05  2898   0.414E-03
  80 F= -.23332420E+04 E0= -.23332420E+04  d E =-.315264E-03  mag=     5.0000
       N       E                     dE             d eps       ncg     rms          rms(c)
DAV:   1    -0.231244039752E+04    0.43305E-03   -0.17974E-02  4736   0.131E-01    0.487E-02
RMM:   2    -0.231244071888E+04   -0.32136E-03   -0.32629E-03  6007   0.310E-02    0.411E-02
RMM:   3    -0.231244072638E+04   -0.74992E-05   -0.30586E-04  2974   0.115E-02    0.253E-02
RMM:   4    -0.231244072191E+04    0.44717E-05   -0.39197E-05  2916   0.368E-03
  81 F= -.23332420E+04 E0= -.23332420E+04  d E =-.323735E-03  mag=     5.0000
       N       E                     dE             d eps       ncg     rms          rms(c)
DAV:   1    -0.231243793906E+04    0.27873E-02   -0.15474E-01  4464   0.385E-01    0.140E-01
RMM:   2    -0.231244066640E+04   -0.27273E-02   -0.27704E-02  6080   0.873E-02    0.115E-01
RMM:   3    -0.231244080348E+04   -0.13708E-03   -0.28028E-03  4282   0.327E-02    0.947E-02
RMM:   4    -0.231244073982E+04    0.63659E-04   -0.33867E-04  3049   0.854E-03    0.563E-02
RMM:   5    -0.231244071677E+04    0.23046E-04   -0.55028E-05  2914   0.496E-03    0.365E-02
RMM:   6    -0.231244069872E+04    0.18050E-04   -0.56337E-05  2972   0.564E-03    0.106E-02
RMM:   7    -0.231244069899E+04   -0.26784E-06   -0.13279E-05  2907   0.434E-03
  82 F= -.23332423E+04 E0= -.23332423E+04  d E =-.311956E-03  mag=     5.0000
       N       E                     dE             d eps       ncg     rms          rms(c)
DAV:   1    -0.231244044853E+04    0.25019E-03   -0.91082E-03  4928   0.934E-02    0.351E-02
RMM:   2    -0.231244061268E+04   -0.16415E-03   -0.16773E-03  5714   0.224E-02    0.280E-02
RMM:   3    -0.231244061953E+04   -0.68520E-05   -0.16569E-04  2904   0.880E-03    0.195E-02
RMM:   4    -0.231244061699E+04    0.25457E-05   -0.20676E-05  2904   0.285E-03
  83 F= -.23332423E+04 E0= -.23332423E+04  d E =-.311574E-03  mag=     5.0000
       N       E                     dE             d eps       ncg     rms          rms(c)
DAV:   1    -0.231243823442E+04    0.23851E-02   -0.12899E-01  4464   0.344E-01    0.128E-01
RMM:   2    -0.231244055348E+04   -0.23191E-02   -0.23730E-02  6086   0.793E-02    0.997E-02
RMM:   3    -0.231244068814E+04   -0.13466E-03   -0.24170E-03  4072   0.295E-02    0.839E-02
RMM:   4    -0.231244063674E+04    0.51403E-04   -0.28464E-04  3015   0.797E-03    0.499E-02
RMM:   5    -0.231244061955E+04    0.17192E-04   -0.45585E-05  2908   0.456E-03    0.339E-02
RMM:   6    -0.231244060442E+04    0.15129E-04   -0.44788E-05  2913   0.503E-03    0.988E-03
RMM:   7    -0.231244060444E+04   -0.21028E-07   -0.10656E-05  2883   0.396E-03
  84 F= -.23332426E+04 E0= -.23332426E+04  d E =-.258071E-03  mag=     5.0000
       N       E                     dE             d eps       ncg     rms          rms(c)
DAV:   1    -0.231244041891E+04    0.18551E-03   -0.65345E-03  4896   0.775E-02    0.300E-02
RMM:   2    -0.231244053890E+04   -0.11999E-03   -0.12350E-03  5400   0.190E-02    0.233E-02
RMM:   3    -0.231244054473E+04   -0.58270E-05   -0.12473E-04  2892   0.777E-03    0.164E-02
RMM:   4    -0.231244054275E+04    0.19754E-05   -0.15203E-05  2892   0.253E-03
  85 F= -.23332426E+04 E0= -.23332426E+04  d E =-.257584E-03  mag=     5.0000
       N       E                     dE             d eps       ncg     rms          rms(c)
DAV:   1    -0.231243806142E+04    0.24833E-02   -0.13042E-01  4464   0.338E-01    0.128E-01
RMM:   2    -0.231244044636E+04   -0.23849E-02   -0.24436E-02  6069   0.786E-02    0.995E-02
RMM:   3    -0.231244058123E+04   -0.13487E-03   -0.24479E-03  4089   0.295E-02    0.802E-02
RMM:   4    -0.231244053525E+04    0.45989E-04   -0.29081E-04  3025   0.791E-03    0.503E-02
RMM:   5    -0.231244051847E+04    0.16779E-04   -0.43910E-05  2906   0.441E-03    0.340E-02
RMM:   6    -0.231244050356E+04    0.14901E-04   -0.43191E-05  2906   0.485E-03    0.101E-02
RMM:   7    -0.231244050348E+04    0.83965E-07   -0.10440E-05  2892   0.379E-03
  86 F= -.23332428E+04 E0= -.23332428E+04  d E =-.257214E-03  mag=     5.0000
       N       E                     dE             d eps       ncg     rms          rms(c)
DAV:   1    -0.231244036913E+04    0.13444E-03   -0.41133E-03  4992   0.601E-02    0.237E-02
RMM:   2    -0.231244044566E+04   -0.76538E-04   -0.78966E-04  4598   0.150E-02    0.184E-02
RMM:   3    -0.231244044944E+04   -0.37733E-05   -0.81073E-05  2873   0.695E-03
  87 F= -.23332428E+04 E0= -.23332428E+04  d E =-.256106E-03  mag=     5.0000
       N       E                     dE             d eps       ncg     rms          rms(c)
DAV:   1    -0.231243797915E+04    0.24665E-02   -0.13193E-01  4464   0.346E-01    0.133E-01
RMM:   2    -0.231244034220E+04   -0.23631E-02   -0.24142E-02  6040   0.806E-02    0.102E-01
RMM:   3    -0.231244043621E+04   -0.94005E-04   -0.23340E-03  4225   0.302E-02    0.619E-02
RMM:   4    -0.231244039865E+04    0.37561E-04   -0.27526E-04  3067   0.803E-03    0.410E-02
RMM:   5    -0.231244039220E+04    0.64464E-05   -0.43938E-05  2895   0.481E-03
  88 F= -.23332431E+04 E0= -.23332431E+04  d E =-.248486E-03  mag=     5.0000
       N       E                     dE             d eps       ncg     rms          rms(c)
DAV:   1    -0.231244025580E+04    0.14285E-03   -0.33184E-03  5320   0.553E-02    0.214E-02
RMM:   2    -0.231244031484E+04   -0.59036E-04   -0.63245E-04  4310   0.135E-02    0.149E-02
RMM:   3    -0.231244031953E+04   -0.46910E-05   -0.68163E-05  2869   0.674E-03
  89 F= -.23332431E+04 E0= -.23332431E+04  d E =-.226226E-03  mag=     5.0000
       N       E                     dE             d eps       ncg     rms          rms(c)
DAV:   1    -0.231243819827E+04    0.21166E-02   -0.10754E-01  4464   0.303E-01    0.115E-01
RMM:   2    -0.231244026881E+04   -0.20705E-02   -0.20952E-02  6197   0.726E-02    0.951E-02
RMM:   3    -0.231244033774E+04   -0.68930E-04   -0.19653E-03  3845   0.254E-02    0.531E-02
RMM:   4    -0.231244031736E+04    0.20387E-04   -0.23468E-04  3022   0.718E-03    0.385E-02
RMM:   5    -0.231244031106E+04    0.62954E-05   -0.31405E-05  2870   0.404E-03
  90 F= -.23332433E+04 E0= -.23332433E+04  d E =-.239006E-03  mag=     5.0000
       N       E                     dE             d eps       ncg     rms          rms(c)
DAV:   1    -0.231243984213E+04    0.47522E-03   -0.18239E-02  4576   0.125E-01    0.462E-02
RMM:   2    -0.231244019004E+04   -0.34791E-03   -0.35727E-03  5955   0.302E-02    0.368E-02
RMM:   3    -0.231244020858E+04   -0.18540E-04   -0.34329E-04  2952   0.113E-02    0.270E-02
RMM:   4    -0.231244020356E+04    0.50179E-05   -0.40952E-05  2913   0.365E-03
  91 F= -.23332433E+04 E0= -.23332433E+04  d E =-.235094E-03  mag=     5.0000
       N       E                     dE             d eps       ncg     rms          rms(c)
DAV:   1    -0.231243789424E+04    0.23143E-02   -0.12477E-01  4464   0.337E-01    0.128E-01
RMM:   2    -0.231244015413E+04   -0.22599E-02   -0.22878E-02  6090   0.783E-02    0.106E-01
RMM:   3    -0.231244025374E+04   -0.99601E-04   -0.22025E-03  4080   0.286E-02    0.888E-02
RMM:   4    -0.231244020022E+04    0.53514E-04   -0.28128E-04  3033   0.800E-03    0.536E-02
RMM:   5    -0.231244017945E+04    0.20770E-04   -0.49918E-05  2920   0.473E-03    0.326E-02
RMM:   6    -0.231244016529E+04    0.14166E-04   -0.40939E-05  2918   0.509E-03    0.991E-03
RMM:   7    -0.231244016555E+04   -0.26384E-06   -0.12225E-05  2901   0.412E-03
  92 F= -.23332435E+04 E0= -.23332435E+04  d E =-.240812E-03  mag=     5.0000
       N       E                     dE             d eps       ncg     rms          rms(c)
DAV:   1    -0.231244002498E+04    0.14031E-03   -0.44957E-03  5080   0.641E-02    0.255E-02
RMM:   2    -0.231244010839E+04   -0.83413E-04   -0.84697E-04  4912   0.160E-02    0.206E-02
RMM:   3    -0.231244011078E+04   -0.23884E-05   -0.82687E-05  2885   0.696E-03
  93 F= -.23332435E+04 E0= -.23332435E+04  d E =-.239202E-03  mag=     5.0000
       N       E                     dE             d eps       ncg     rms          rms(c)
DAV:   1    -0.231243810684E+04    0.20015E-02   -0.10137E-01  4464   0.297E-01    0.114E-01
RMM:   2    -0.231244005903E+04   -0.19522E-02   -0.19655E-02  6112   0.720E-02    0.100E-01
RMM:   3    -0.231244008899E+04   -0.29960E-04   -0.18064E-03  3878   0.254E-02    0.518E-02
RMM:   4    -0.231244006831E+04    0.20677E-04   -0.21639E-04  3032   0.704E-03    0.361E-02
RMM:   5    -0.231244006393E+04    0.43780E-05   -0.30672E-05  2876   0.405E-03
  94 F= -.23332438E+04 E0= -.23332438E+04  d E =-.226961E-03  mag=     5.0000
       N       E                     dE             d eps       ncg     rms          rms(c)
DAV:   1    -0.231243973126E+04    0.33705E-03   -0.11474E-02  4768   0.100E-01    0.368E-02
RMM:   2    -0.231243994549E+04   -0.21423E-03   -0.22328E-03  5793   0.246E-02    0.262E-02
RMM:   3    -0.231243995938E+04   -0.13883E-04   -0.21119E-04  2911   0.917E-03    0.227E-02
RMM:   4    -0.231243995595E+04    0.34292E-05   -0.25441E-05  2912   0.308E-03
  95 F= -.23332438E+04 E0= -.23332438E+04  d E =-.212814E-03  mag=     5.0000
       N       E                     dE             d eps       ncg     rms          rms(c)
DAV:   1    -0.231243824947E+04    0.17099E-02   -0.90407E-02  4464   0.284E-01    0.108E-01
RMM:   2    -0.231243992028E+04   -0.16708E-02   -0.16801E-02  6146   0.669E-02    0.974E-02
RMM:   3    -0.231243998100E+04   -0.60718E-04   -0.16240E-03  3751   0.239E-02    0.804E-02
RMM:   4    -0.231243994000E+04    0.41007E-04   -0.20722E-04  2959   0.706E-03    0.449E-02
RMM:   5    -0.231243992438E+04    0.15614E-04   -0.37017E-05  2912   0.412E-03    0.276E-02
RMM:   6    -0.231243991444E+04    0.99392E-05   -0.30698E-05  2900   0.443E-03
  96 F= -.23332440E+04 E0= -.23332440E+04  d E =-.199744E-03  mag=     5.0000
       N       E                     dE             d eps       ncg     rms          rms(c)
DAV:   1    -0.231243956771E+04    0.35667E-03   -0.13387E-02  4720   0.110E-01    0.440E-02
RMM:   2    -0.231243982099E+04   -0.25328E-03   -0.25608E-03  5906   0.267E-02    0.381E-02
RMM:   3    -0.231243982598E+04   -0.49908E-05   -0.23769E-04  2958   0.971E-03    0.251E-02
RMM:   4    -0.231243982155E+04    0.44316E-05   -0.30803E-05  2912   0.339E-03
  97 F= -.23332440E+04 E0= -.23332440E+04  d E =-.200485E-03  mag=     5.0000
       N       E                     dE             d eps       ncg     rms          rms(c)
DAV:   1    -0.231243803851E+04    0.17875E-02   -0.94842E-02  4464   0.292E-01    0.110E-01
RMM:   2    -0.231243977951E+04   -0.17410E-02   -0.17483E-02  6064   0.686E-02    0.969E-02
RMM:   3    -0.231243982880E+04   -0.49282E-04   -0.16603E-03  3854   0.254E-02    0.713E-02
RMM:   4    -0.231243979733E+04    0.31468E-04   -0.20990E-04  2973   0.715E-03    0.478E-02
RMM:   5    -0.231243978076E+04    0.16569E-04   -0.38173E-05  2900   0.416E-03    0.291E-02
RMM:   6    -0.231243977029E+04    0.10471E-04   -0.33281E-05  2907   0.451E-03    0.865E-03
RMM:   7    -0.231243977045E+04   -0.16512E-06   -0.89932E-06  2888   0.362E-03
  98 F= -.23332442E+04 E0= -.23332442E+04  d E =-.211691E-03  mag=     5.0000
       N       E                     dE             d eps       ncg     rms          rms(c)
DAV:   1    -0.231243958129E+04    0.18900E-03   -0.64799E-03  4848   0.763E-02    0.299E-02
RMM:   2    -0.231243970169E+04   -0.12040E-03   -0.12169E-03  5371   0.189E-02    0.254E-02
RMM:   3    -0.231243970456E+04   -0.28674E-05   -0.11748E-04  2906   0.772E-03    0.156E-02
RMM:   4    -0.231243970303E+04    0.15265E-05   -0.14660E-05  2890   0.247E-03
  99 F= -.23332442E+04 E0= -.23332442E+04  d E =-.213166E-03  mag=     5.0000
       N       E                     dE             d eps       ncg     rms          rms(c)
DAV:   1    -0.231243832985E+04    0.13747E-02   -0.76063E-02  4464   0.267E-01    0.104E-01
RMM:   2    -0.231243963933E+04   -0.13095E-02   -0.13319E-02  6007   0.617E-02    0.816E-02
RMM:   3    -0.231243968415E+04   -0.44819E-04   -0.12455E-03  3783   0.234E-02    0.635E-02
RMM:   4    -0.231243965271E+04    0.31443E-04   -0.16040E-04  2968   0.684E-03    0.434E-02
RMM:   5    -0.231243963994E+04    0.12770E-04   -0.33267E-05  2902   0.405E-03    0.272E-02
RMM:   6    -0.231243963087E+04    0.90632E-05   -0.27582E-05  2894   0.423E-03
 100 F= -.23332444E+04 E0= -.23332444E+04  d E =-.181450E-03  mag=     5.0000
       N       E                     dE             d eps       ncg     rms          rms(c)
DAV:   1    -0.231243959150E+04    0.48438E-04   -0.65899E-04  5176   0.255E-02    0.111E-02
RMM:   2    -0.231243960341E+04   -0.11906E-04   -0.12689E-04  3286   0.665E-03    0.799E-03
RMM:   3    -0.231243960400E+04   -0.59746E-06   -0.13398E-05  2660   0.392E-03
 101 F= -.23332444E+04 E0= -.23332444E+04  d E =-.179056E-03  mag=     5.0000
       N       E                     dE             d eps       ncg     rms          rms(c)
DAV:   1    -0.231243836184E+04    0.12416E-02   -0.69157E-02  4472   0.253E-01    0.962E-02
RMM:   2    -0.231243955650E+04   -0.11947E-02   -0.12157E-02  6004   0.586E-02    0.747E-02
RMM:   3    -0.231243958870E+04   -0.32199E-04   -0.10910E-03  3681   0.220E-02    0.446E-02
RMM:   4    -0.231243956878E+04    0.19922E-04   -0.13307E-04  2967   0.634E-03    0.286E-02
RMM:   5    -0.231243956681E+04    0.19742E-05   -0.24583E-05  2871   0.380E-03
 102 F= -.23332445E+04 E0= -.23332445E+04  d E =-.178217E-03  mag=     5.0000
       N       E                     dE             d eps       ncg     rms          rms(c)
DAV:   1    -0.231243944347E+04    0.12531E-03   -0.34550E-03  5048   0.569E-02    0.214E-02
RMM:   2    -0.231243950218E+04   -0.58707E-04   -0.61988E-04  4385   0.138E-02    0.146E-02
[...]
RMM:   2    -0.231243818023E+04   -0.11945E-04   -0.77037E-05  3117   0.552E-03    0.292E-02
RMM:   3    -0.231243817378E+04    0.64467E-05   -0.11947E-05  2506   0.329E-03
 155 F= -.23332470E+04 E0= -.23332470E+04  d E =-.331866E-04  mag=     5.0000
       N       E                     dE             d eps       ncg     rms          rms(c)
DAV:   1    -0.231243808532E+04    0.94903E-04   -0.65827E-03  4472   0.791E-02    0.304E-02
RMM:   2    -0.231243816612E+04   -0.80793E-04   -0.86111E-04  5533   0.177E-02    0.178E-02
RMM:   3    -0.231243817054E+04   -0.44217E-05   -0.80211E-05  2891   0.740E-03
 156 F= -.23332471E+04 E0= -.23332471E+04  d E =-.500809E-04  mag=     5.0000
       N       E                     dE             d eps       ncg     rms          rms(c)
DAV:   1    -0.231243810706E+04    0.59053E-04   -0.24935E-03  4624   0.488E-02    0.220E-02
RMM:   2    -0.231243814020E+04   -0.33135E-04   -0.34702E-04  4039   0.113E-02    0.200E-02
RMM:   3    -0.231243814266E+04   -0.24643E-05   -0.44271E-05  2868   0.551E-03
 157 F= -.23332471E+04 E0= -.23332471E+04  d E =-.552053E-04  mag=     5.0000
       N       E                     dE             d eps       ncg     rms          rms(c)
DAV:   1    -0.231243804156E+04    0.98644E-04   -0.63452E-03  4472   0.759E-02    0.314E-02
RMM:   2    -0.231243813307E+04   -0.91513E-04   -0.91701E-04  5481   0.180E-02    0.306E-02
RMM:   3    -0.231243813100E+04    0.20674E-05   -0.91002E-05  2905   0.717E-03
 158 F= -.23332471E+04 E0= -.23332471E+04  d E =-.459185E-04  mag=     5.0000
       N       E                     dE             d eps       ncg     rms          rms(c)
DAV:   1    -0.231243805132E+04    0.81747E-04   -0.31822E-03  4528   0.537E-02    0.249E-02
RMM:   2    -0.231243810105E+04   -0.49729E-04   -0.47674E-04  4342   0.128E-02    0.307E-02
RMM:   3    -0.231243809777E+04    0.32786E-05   -0.56886E-05  2877   0.576E-03
 159 F= -.23332471E+04 E0= -.23332471E+04  d E =-.536644E-04  mag=     5.0000
       N       E                     dE             d eps       ncg     rms          rms(c)
DAV:   1    -0.231243799852E+04    0.10253E-03   -0.69783E-03  4472   0.817E-02    0.352E-02
RMM:   2    -0.231243810015E+04   -0.10163E-03   -0.99900E-04  5645   0.195E-02    0.380E-02
RMM:   3    -0.231243809360E+04    0.65492E-05   -0.10240E-04  2916   0.769E-03    0.191E-02
RMM:   4    -0.231243809146E+04    0.21439E-05   -0.14793E-05  2892   0.268E-03
 160 F= -.23332472E+04 E0= -.23332472E+04  d E =-.502286E-04  mag=     5.0000
       N       E                     dE             d eps       ncg     rms          rms(c)
DAV:   1    -0.231243802992E+04    0.63678E-04   -0.23739E-03  4592   0.477E-02    0.217E-02
RMM:   2    -0.231243806360E+04   -0.33682E-04   -0.32517E-04  4072   0.111E-02    0.278E-02
RMM:   3    -0.231243806216E+04    0.14440E-05   -0.41202E-05  2862   0.572E-03
 161 F= -.23332472E+04 E0= -.23332472E+04  d E =-.541985E-04  mag=     5.0000
       N       E                     dE             d eps       ncg     rms          rms(c)
DAV:   1    -0.231243795884E+04    0.10476E-03   -0.60230E-03  4472   0.744E-02    0.303E-02
RMM:   2    -0.231243804662E+04   -0.87774E-04   -0.91271E-04  5430   0.177E-02    0.230E-02
RMM:   3    -0.231243805019E+04   -0.35719E-05   -0.88272E-05  2907   0.700E-03
 162 F= -.23332472E+04 E0= -.23332472E+04  d E =-.395734E-04  mag=     5.0000
       N       E                     dE             d eps       ncg     rms          rms(c)
DAV:   1    -0.231243800603E+04    0.40591E-04   -0.12763E-03  5024   0.344E-02    0.165E-02
RMM:   2    -0.231243802505E+04   -0.19023E-04   -0.20750E-04  3551   0.843E-03    0.119E-02
RMM:   3    -0.231243802713E+04   -0.20847E-05   -0.25488E-05  2783   0.447E-03
 163 F= -.23332472E+04 E0= -.23332472E+04  d E =-.404467E-04  mag=     5.0000
       N       E                     dE             d eps       ncg     rms          rms(c)
DAV:   1    -0.231243793265E+04    0.92399E-04   -0.67543E-03  4472   0.803E-02    0.331E-02
RMM:   2    -0.231243803046E+04   -0.97809E-04   -0.99790E-04  5653   0.191E-02    0.320E-02
RMM:   3    -0.231243803224E+04   -0.17781E-05   -0.10311E-04  2909   0.799E-03    0.242E-02
RMM:   4    -0.231243802912E+04    0.31231E-05   -0.15106E-05  2881   0.261E-03
 164 F= -.23332473E+04 E0= -.23332473E+04  d E =-.518953E-04  mag=     5.0000
       N       E                     dE             d eps       ncg     rms          rms(c)
DAV:   1    -0.231243799830E+04    0.33939E-04   -0.91437E-04  4824   0.297E-02    0.151E-02
RMM:   2    -0.231243801258E+04   -0.14281E-04   -0.13649E-04  3365   0.722E-03    0.189E-02
RMM:   3    -0.231243801106E+04    0.15188E-05   -0.17230E-05  2696   0.411E-03
 165 F= -.23332473E+04 E0= -.23332473E+04  d E =-.524228E-04  mag=     5.0000
       N       E                     dE             d eps       ncg     rms          rms(c)
DAV:   1    -0.231243793359E+04    0.78996E-04   -0.62187E-03  4472   0.758E-02    0.300E-02
RMM:   2    -0.231243802004E+04   -0.86452E-04   -0.92138E-04  5622   0.180E-02    0.185E-02
RMM:   3    -0.231243802606E+04   -0.60227E-05   -0.86897E-05  2892   0.752E-03
 166 F= -.23332473E+04 E0= -.23332473E+04  d E =-.454828E-04  mag=     5.0000
       N       E                     dE             d eps       ncg     rms          rms(c)
DAV:   1    -0.231243801648E+04    0.35617E-05   -0.17028E-04  5272   0.126E-02    0.123E-02
RMM:   2    -0.231243802219E+04   -0.57183E-05   -0.35382E-05  2727   0.352E-03
 167 F= -.23332473E+04 E0= -.23332473E+04  d E =-.464449E-04  mag=     5.0000
       N       E                     dE             d eps       ncg     rms          rms(c)
DAV:   1    -0.231243797739E+04    0.39088E-04   -0.54902E-03  4472   0.755E-02    0.296E-02
RMM:   2    -0.231243804242E+04   -0.65030E-04   -0.70011E-04  5384   0.173E-02    0.170E-02
RMM:   3    -0.231243804657E+04   -0.41569E-05   -0.69615E-05  2875   0.777E-03
 168 F= -.23332474E+04 E0= -.23332474E+04  d E =-.394363E-04  mag=     5.0000
       N       E                     dE             d eps       ncg     rms          rms(c)
DAV:   1    -0.231243802719E+04    0.15229E-04   -0.88039E-04  5032   0.305E-02    0.156E-02
RMM:   2    -0.231243803843E+04   -0.11238E-04   -0.12250E-04  3333   0.739E-03    0.149E-02
RMM:   3    -0.231243803901E+04   -0.58512E-06   -0.16838E-05  2694   0.433E-03
 169 F= -.23332474E+04 E0= -.23332474E+04  d E =-.379755E-04  mag=     5.0000
       N       E                     dE             d eps       ncg     rms          rms(c)
DAV:   1    -0.231243796645E+04    0.71981E-04   -0.52378E-03  4472   0.716E-02    0.284E-02
RMM:   2    -0.231243803593E+04   -0.69488E-04   -0.70892E-04  5469   0.166E-02    0.271E-02
RMM:   3    -0.231243803658E+04   -0.64986E-06   -0.73345E-05  2883   0.726E-03
 170 F= -.23332474E+04 E0= -.23332474E+04  d E =-.409549E-04  mag=     5.0000
       N       E                     dE             d eps       ncg     rms          rms(c)
DAV:   1    -0.231243802166E+04    0.14273E-04   -0.25271E-04  5232   0.157E-02    0.141E-02
RMM:   2    -0.231243803168E+04   -0.10022E-04   -0.53468E-05  2895   0.437E-03    0.295E-02
RMM:   3    -0.231243802377E+04    0.79132E-05   -0.11354E-05  2391   0.293E-03
 171 F= -.23332474E+04 E0= -.23332474E+04  d E =-.375126E-04  mag=     5.0000
       N       E                     dE             d eps       ncg     rms          rms(c)
DAV:   1    -0.231243795734E+04    0.74338E-04   -0.44915E-03  4480   0.658E-02    0.277E-02
RMM:   2    -0.231243801832E+04   -0.60976E-04   -0.60944E-04  5198   0.151E-02    0.290E-02
RMM:   3    -0.231243801566E+04    0.26655E-05   -0.62704E-05  2878   0.672E-03
 172 F= -.23332475E+04 E0= -.23332475E+04  d E =-.377028E-04  mag=     5.0000
       N       E                     dE             d eps       ncg     rms          rms(c)
DAV:   1    -0.231243799345E+04    0.24874E-04   -0.48918E-04  4944   0.218E-02    0.146E-02
RMM:   2    -0.231243800544E+04   -0.11990E-04   -0.85575E-05  3168   0.571E-03    0.265E-02
RMM:   3    -0.231243799935E+04    0.60906E-05   -0.12931E-05  2511   0.330E-03
 173 F= -.23332475E+04 E0= -.23332475E+04  d E =-.366557E-04  mag=     5.0000
       N       E                     dE             d eps       ncg     rms          rms(c)
DAV:   1    -0.231243794049E+04    0.64947E-04   -0.49387E-03  4468   0.698E-02    0.295E-02
RMM:   2    -0.231243800399E+04   -0.63502E-04   -0.64159E-04  5356   0.161E-02    0.287E-02
RMM:   3    -0.231243800166E+04    0.23347E-05   -0.66310E-05  2889   0.719E-03
 174 F= -.23332475E+04 E0= -.23332475E+04  d E =-.426650E-04  mag=     5.0000
       N       E                     dE             d eps       ncg     rms          rms(c)
DAV:   1    -0.231243797381E+04    0.30181E-04   -0.86787E-04  5000   0.293E-02    0.172E-02
RMM:   2    -0.231243799016E+04   -0.16347E-04   -0.13196E-04  3364   0.730E-03    0.272E-02
RMM:   3    -0.231243798452E+04    0.56333E-05   -0.18017E-05  2708   0.390E-03
 175 F= -.23332475E+04 E0= -.23332475E+04  d E =-.426318E-04  mag=     5.0000
       N       E                     dE             d eps       ncg     rms          rms(c)
DAV:   1    -0.231243793715E+04    0.53003E-04   -0.44004E-03  4464   0.650E-02    0.277E-02
RMM:   2    -0.231243799390E+04   -0.56747E-04   -0.55618E-04  5133   0.151E-02    0.295E-02
RMM:   3    -0.231243798950E+04    0.43987E-05   -0.58953E-05  2885   0.698E-03
 176 F= -.23332475E+04 E0= -.23332475E+04  d E =-.370963E-04  mag=     5.0000
       N       E                     dE             d eps       ncg     rms          rms(c)
DAV:   1    -0.231243797625E+04    0.17652E-04   -0.31939E-04  5104   0.176E-02    0.139E-02
RMM:   2    -0.231243798645E+04   -0.10198E-04   -0.59179E-05  2979   0.476E-03    0.287E-02
RMM:   3    -0.231243797935E+04    0.70945E-05   -0.10702E-05  2418   0.298E-03
 177 F= -.23332475E+04 E0= -.23332475E+04  d E =-.356971E-04  mag=     5.0000
       N       E                     dE             d eps       ncg     rms          rms(c)
DAV:   1    -0.231243794505E+04    0.41395E-04   -0.40304E-03  4432   0.632E-02    0.270E-02
RMM:   2    -0.231243799354E+04   -0.48488E-04   -0.48807E-04  4985   0.143E-02    0.255E-02
RMM:   3    -0.231243799130E+04    0.22388E-05   -0.53084E-05  2879   0.676E-03
 178 F= -.23332476E+04 E0= -.23332476E+04  d E =-.371482E-04  mag=     5.0000
       N       E                     dE             d eps       ncg     rms          rms(c)
DAV:   1    -0.231243797045E+04    0.23087E-04   -0.82815E-04  4960   0.287E-02    0.154E-02
RMM:   2    -0.231243798225E+04   -0.11792E-04   -0.11082E-04  3299   0.694E-03    0.194E-02
RMM:   3    -0.231243798030E+04    0.19422E-05   -0.15455E-05  2655   0.384E-03
 179 F= -.23332476E+04 E0= -.23332476E+04  d E =-.377156E-04  mag=     5.0000
       N       E                     dE             d eps       ncg     rms          rms(c)
DAV:   1    -0.231243794137E+04    0.40874E-04   -0.37767E-03  4440   0.604E-02    0.259E-02
RMM:   2    -0.231243798902E+04   -0.47652E-04   -0.47458E-04  4848   0.141E-02    0.267E-02
RMM:   3    -0.231243798646E+04    0.25666E-05   -0.53343E-05  2871   0.687E-03
 180 F= -.23332476E+04 E0= -.23332476E+04  d E =-.342504E-04  mag=     5.0000
       N       E                     dE             d eps       ncg     rms          rms(c)
DAV:   1    -0.231243797109E+04    0.17931E-04   -0.47066E-04  4976   0.213E-02    0.149E-02
RMM:   2    -0.231243798310E+04   -0.12010E-04   -0.77096E-05  3131   0.559E-03    0.289E-02
RMM:   3    -0.231243797587E+04    0.72293E-05   -0.12427E-05  2496   0.326E-03
 181 F= -.23332476E+04 E0= -.23332476E+04  d E =-.336551E-04  mag=     5.0000
       N       E                     dE             d eps       ncg     rms          rms(c)
DAV:   1    -0.231243794658E+04    0.36526E-04   -0.35360E-03  4440   0.582E-02    0.256E-02
RMM:   2    -0.231243799051E+04   -0.43936E-04   -0.44117E-04  4757   0.134E-02    0.262E-02
RMM:   3    -0.231243798803E+04    0.24783E-05   -0.49859E-05  2863   0.655E-03
 182 F= -.23332476E+04 E0= -.23332476E+04  d E =-.359685E-04  mag=     5.0000
       N       E                     dE             d eps       ncg     rms          rms(c)
DAV:   1    -0.231243796622E+04    0.24294E-04   -0.87919E-04  4936   0.291E-02    0.166E-02
RMM:   2    -0.231243798121E+04   -0.14986E-04   -0.12557E-04  3315   0.723E-03    0.252E-02
RMM:   3    -0.231243797639E+04    0.48172E-05   -0.17483E-05  2696   0.393E-03
 183 F= -.23332476E+04 E0= -.23332476E+04  d E =-.363143E-04  mag=     5.0000
       N       E                     dE             d eps       ncg     rms          rms(c)
DAV:   1    -0.231243793965E+04    0.41552E-04   -0.40839E-03  4432   0.628E-02    0.274E-02
RMM:   2    -0.231243799058E+04   -0.50926E-04   -0.49465E-04  4908   0.145E-02    0.310E-02
RMM:   3    -0.231243798676E+04    0.38184E-05   -0.57038E-05  2878   0.696E-03
 184 F= -.23332477E+04 E0= -.23332477E+04  d E =-.394411E-04  mag=     5.0000
       N       E                     dE             d eps       ncg     rms          rms(c)
DAV:   1    -0.231243796372E+04    0.26859E-04   -0.94033E-04  4840   0.301E-02    0.184E-02
RMM:   2    -0.231243798193E+04   -0.18213E-04   -0.13343E-04  3337   0.744E-03    0.306E-02
RMM:   3    -0.231243797357E+04    0.83672E-05   -0.19935E-05  2760   0.400E-03
 185 F= -.23332477E+04 E0= -.23332477E+04  d E =-.402765E-04  mag=     5.0000
       N       E                     dE             d eps       ncg     rms          rms(c)
DAV:   1    -0.231243791074E+04    0.71197E-04   -0.43969E-03  4464   0.643E-02    0.290E-02
RMM:   2    -0.231243796561E+04   -0.54873E-04   -0.52424E-04  4957   0.147E-02    0.346E-02
RMM:   3    -0.231243795990E+04    0.57142E-05   -0.59329E-05  2878   0.697E-03
 186 F= -.23332477E+04 E0= -.23332477E+04  d E =-.344344E-04  mag=     5.0000
       N       E                     dE             d eps       ncg     rms          rms(c)
DAV:   1    -0.231243792745E+04    0.38156E-04   -0.98065E-04  4864   0.304E-02    0.192E-02
RMM:   2    -0.231243794763E+04   -0.20175E-04   -0.14227E-04  3332   0.752E-03    0.327E-02
RMM:   3    -0.231243793750E+04    0.10128E-04   -0.21960E-05  2775   0.409E-03    0.120E-02
RMM:   4    -0.231243793721E+04    0.29521E-06   -0.55485E-06  2577   0.162E-03
 187 F= -.23332477E+04 E0= -.23332477E+04  d E =-.345993E-04  mag=     5.0000
       N       E                     dE             d eps       ncg     rms          rms(c)
DAV:   1    -0.231243787520E+04    0.62301E-04   -0.49292E-03  4464   0.667E-02    0.268E-02
RMM:   2    -0.231243793215E+04   -0.56948E-04   -0.60437E-04  5195   0.152E-02    0.182E-02
RMM:   3    -0.231243793597E+04   -0.38252E-05   -0.60482E-05  2873   0.692E-03
 188 F= -.23332478E+04 E0= -.23332478E+04  d E =-.403824E-04  mag=     5.0000
       N       E                     dE             d eps       ncg     rms          rms(c)
DAV:   1    -0.231243791363E+04    0.18523E-04   -0.59310E-04  4944   0.232E-02    0.141E-02
RMM:   2    -0.231243792308E+04   -0.94552E-05   -0.85903E-05  3140   0.583E-03
 189 F= -.23332478E+04 E0= -.23332478E+04  d E =-.419386E-04  mag=     5.0000
       N       E                     dE             d eps       ncg     rms          rms(c)
DAV:   1    -0.231243788233E+04    0.31294E-04   -0.54234E-03  4464   0.718E-02    0.291E-02
RMM:   2    -0.231243794306E+04   -0.60724E-04   -0.65049E-04  5220   0.172E-02    0.186E-02
RMM:   3    -0.231243794930E+04   -0.62490E-05   -0.71982E-05  2909   0.747E-03
 190 F= -.23332478E+04 E0= -.23332478E+04  d E =-.441094E-04  mag=     5.0000
       N       E                     dE             d eps       ncg     rms          rms(c)
DAV:   1    -0.231243792063E+04    0.22429E-04   -0.16376E-03  4688   0.395E-02    0.217E-02
RMM:   2    -0.231243794514E+04   -0.24509E-04   -0.21040E-04  3656   0.954E-03    0.345E-02
RMM:   3    -0.231243793886E+04    0.62741E-05   -0.31441E-05  2856   0.506E-03
 191 F= -.23332478E+04 E0= -.23332478E+04  d E =-.435166E-04  mag=     5.0000
       N       E                     dE             d eps       ncg     rms          rms(c)
DAV:   1    -0.231243789655E+04    0.48581E-04   -0.60617E-03  4464   0.745E-02    0.311E-02
RMM:   2    -0.231243796811E+04   -0.71555E-04   -0.72881E-04  5471   0.171E-02    0.281E-02
RMM:   3    -0.231243796691E+04    0.12045E-05   -0.74976E-05  2907   0.733E-03
 192 F= -.23332478E+04 E0= -.23332478E+04  d E =-.424086E-04  mag=     5.0000
       N       E                     dE             d eps       ncg     rms          rms(c)
DAV:   1    -0.231243795780E+04    0.10309E-04   -0.23504E-04  5224   0.150E-02    0.106E-02
RMM:   2    -0.231243796043E+04   -0.26317E-05   -0.34647E-05  2743   0.378E-03
 193 F= -.23332478E+04 E0= -.23332478E+04  d E =-.388193E-04  mag=     5.0000
       N       E                     dE             d eps       ncg     rms          rms(c)
DAV:   1    -0.231243790754E+04    0.50257E-04   -0.53173E-03  4472   0.704E-02    0.306E-02
RMM:   2    -0.231243797339E+04   -0.65845E-04   -0.61302E-04  5192   0.168E-02    0.415E-02
RMM:   3    -0.231243796682E+04    0.65651E-05   -0.66235E-05  2890   0.723E-03
 194 F= -.23332479E+04 E0= -.23332479E+04  d E =-.371171E-04  mag=     5.0000
       N       E                     dE             d eps       ncg     rms          rms(c)
DAV:   1    -0.231243795855E+04    0.14837E-04   -0.10469E-04  5328   0.101E-02    0.109E-02
RMM:   2    -0.231243796107E+04   -0.25185E-05   -0.19728E-05  2580   0.288E-03
 195 F= -.23332479E+04 E0= -.23332479E+04  d E =-.355245E-04  mag=     5.0000
       N       E                     dE             d eps       ncg     rms          rms(c)
DAV:   1    -0.231243791791E+04    0.40645E-04   -0.37827E-03  4472   0.619E-02    0.254E-02
RMM:   2    -0.231243795114E+04   -0.33232E-04   -0.36978E-04  4821   0.142E-02    0.141E-02
RMM:   3    -0.231243795327E+04   -0.21282E-05   -0.39324E-05  2870   0.693E-03
 196 F= -.23332479E+04 E0= -.23332479E+04  d E =-.292679E-04  mag=     5.0000
       N       E                     dE             d eps       ncg     rms          rms(c)
DAV:   1    -0.231243794620E+04    0.49362E-05   -0.54004E-05  5040   0.814E-03    0.827E-03
RMM:   2    -0.231243794742E+04   -0.12183E-05   -0.10122E-05  2474   0.261E-03
 197 F= -.23332479E+04 E0= -.23332479E+04  d E =-.277920E-04  mag=     5.0000
       N       E                     dE             d eps       ncg     rms          rms(c)
DAV:   1    -0.231243792180E+04    0.24407E-04   -0.29308E-03  4472   0.537E-02    0.215E-02
RMM:   2    -0.231243794657E+04   -0.24772E-04   -0.27721E-04  4378   0.121E-02    0.115E-02
RMM:   3    -0.231243794906E+04   -0.24876E-05   -0.30532E-05  2855   0.638E-03
 198 F= -.23332479E+04 E0= -.23332479E+04  d E =-.274613E-04  mag=     5.0000
       N       E                     dE             d eps       ncg     rms          rms(c)
DAV:   1    -0.231243793207E+04    0.14494E-04   -0.56487E-04  4768   0.237E-02    0.136E-02
RMM:   2    -0.231243793932E+04   -0.72481E-05   -0.61554E-05  3143   0.577E-03
 199 F= -.23332479E+04 E0= -.23332479E+04  d E =-.291293E-04  mag=     5.0000
       N       E                     dE             d eps       ncg     rms          rms(c)
DAV:   1    -0.231243791477E+04    0.17303E-04   -0.19903E-03  4392   0.421E-02    0.184E-02
RMM:   2    -0.231243793424E+04   -0.19466E-04   -0.19506E-04  3782   0.104E-02    0.212E-02
RMM:   3    -0.231243793380E+04    0.43598E-06   -0.23230E-05  2802   0.537E-03
 200 F= -.23332480E+04 E0= -.23332480E+04  d E =-.218180E-04  mag=     5.0000
       N       E                     dE             d eps       ncg     rms          rms(c)
DAV:   1    -0.231243791214E+04    0.22102E-04   -0.76157E-04  4472   0.261E-02    0.132E-02
RMM:   2    -0.231243791979E+04   -0.76536E-05   -0.76080E-05  3178   0.639E-03
 201 F= -.23332480E+04 E0= -.23332480E+04  d E =-.249875E-04  mag=     5.0000
