       N       E                     dE             d eps       ncg     rms          rms(c)
DAV:   1     0.131189083118E+05    0.13119E+05   -0.84460E+05  4544   0.144E+03
DAV:   2    -0.100851415609E+04   -0.14127E+05   -0.13502E+05  4904   0.331E+02
DAV:   3    -0.248772087468E+04   -0.14792E+04   -0.14606E+04  5528   0.115E+02
DAV:   4    -0.253385110594E+04   -0.46130E+02   -0.45862E+02  6752   0.291E+01
DAV:   5    -0.253472237808E+04   -0.87127E+00   -0.86905E+00  6248   0.350E+00    0.171E+02
RMM:   6    -0.150203725152E+04    0.10327E+04   -0.19697E+03  4479   0.384E+01    0.733E+01
RMM:   7    -0.167685370133E+04   -0.17482E+03   -0.30704E+02  5157   0.147E+01    0.579E+01
RMM:   8    -0.171573976235E+04   -0.38886E+02   -0.91832E+01  5305   0.856E+00    0.477E+01
RMM:   9    -0.177609003230E+04   -0.60350E+02   -0.58999E+01  4934   0.761E+00    0.352E+01
RMM:  10    -0.190411981984E+04   -0.12803E+03   -0.67252E+01  5460   0.802E+00    0.297E+01
RMM:  11    -0.198133045646E+04   -0.77211E+02   -0.33349E+01  5433   0.522E+00    0.237E+01
RMM:  12    -0.204222380849E+04   -0.60893E+02   -0.22958E+01  5217   0.396E+00    0.197E+01
RMM:  13    -0.211823853141E+04   -0.76015E+02   -0.33052E+01  4904   0.448E+00    0.137E+01
RMM:  14    -0.222477039931E+04   -0.10653E+03   -0.75399E+01  4499   0.633E+00    0.989E+00
RMM:  15    -0.229339387778E+04   -0.68623E+02   -0.58736E+01  4805   0.564E+00    0.686E+00
RMM:  16    -0.231905869384E+04   -0.25665E+02   -0.27334E+01  4762   0.384E+00    0.406E+00
RMM:  17    -0.232531909006E+04   -0.62604E+01   -0.74159E+00  5243   0.191E+00    0.234E+00
RMM:  18    -0.232782283504E+04   -0.25037E+01   -0.23201E+00  5144   0.938E-01    0.153E+00
RMM:  19    -0.232887966228E+04   -0.10568E+01   -0.87712E-01  4725   0.587E-01    0.814E-01
RMM:  20    -0.232926589706E+04   -0.38623E+00   -0.35643E-01  4835   0.335E-01    0.576E-01
RMM:  21    -0.232935933872E+04   -0.93442E-01   -0.80454E-02  4995   0.184E-01    0.299E-01
RMM:  22    -0.232939718949E+04   -0.37851E-01   -0.20209E-02  4678   0.968E-02    0.202E-01
RMM:  23    -0.232942815623E+04   -0.30967E-01   -0.12721E-02  4510   0.860E-02    0.113E-01
RMM:  24    -0.232943982484E+04   -0.11669E-01   -0.37501E-03  4659   0.533E-02    0.771E-02
RMM:  25    -0.232944933136E+04   -0.95065E-02   -0.24387E-03  4483   0.356E-02    0.461E-02
RMM:  26    -0.232945618562E+04   -0.68543E-02   -0.19214E-03  4503   0.334E-02    0.317E-02
RMM:  27    -0.232945911712E+04   -0.29315E-02   -0.10232E-03  4416   0.239E-02    0.175E-02
RMM:  28    -0.232946005679E+04   -0.93967E-03   -0.35532E-04  4212   0.141E-02    0.111E-02
RMM:  29    -0.232946038103E+04   -0.32424E-03   -0.93375E-05  3794   0.791E-03    0.636E-03
RMM:  30    -0.232946051113E+04   -0.13009E-03   -0.27165E-05  3188   0.500E-03    0.458E-03
RMM:  31    -0.232946058389E+04   -0.72759E-04   -0.13647E-05  2944   0.359E-03    0.220E-03
RMM:  32    -0.232946061596E+04   -0.32071E-04   -0.76584E-06  2858   0.295E-03    0.235E-03
RMM:  33    -0.232946062436E+04   -0.84023E-05   -0.35555E-06  2496   0.231E-03
   1 F= -.23508666E+04 E0= -.23508666E+04  d E =-.235087E+04  mag=     4.0000
       N       E                     dE             d eps       ncg     rms          rms(c)
DAV:   1    -0.232950224132E+04   -0.41625E-01   -0.34982E+01  4944   0.516E+00    0.167E+00
RMM:   2    -0.232991314383E+04   -0.41090E+00   -0.43058E+00  6673   0.134E+00    0.163E+00
RMM:   3    -0.232992752708E+04   -0.14383E-01   -0.41186E-01  6459   0.396E-01    0.153E+00
RMM:   4    -0.232991556299E+04    0.11964E-01   -0.45277E-02  6219   0.107E-01    0.820E-01
RMM:   5    -0.232991131925E+04    0.42437E-02   -0.13217E-02  6238   0.557E-02    0.606E-01
RMM:   6    -0.232990878819E+04    0.25311E-02   -0.11734E-02  5834   0.595E-02    0.425E-01
RMM:   7    -0.232990685131E+04    0.19369E-02   -0.40435E-03  5623   0.354E-02    0.204E-01
RMM:   8    -0.232990639214E+04    0.45917E-03   -0.68788E-04  4517   0.161E-02    0.515E-02
RMM:   9    -0.232990641406E+04   -0.21922E-04   -0.14795E-04  3406   0.858E-03    0.361E-02
RMM:  10    -0.232990643302E+04   -0.18958E-04   -0.61322E-05  2987   0.617E-03    0.140E-02
RMM:  11    -0.232990644994E+04   -0.16913E-04   -0.17333E-05  2945   0.398E-03    0.695E-03
RMM:  12    -0.232990645790E+04   -0.79653E-05   -0.48749E-06  2862   0.279E-03
   2 F= -.23513579E+04 E0= -.23513579E+04  d E =-.491341E+00  mag=     3.9999
       N       E                     dE             d eps       ncg     rms          rms(c)
DAV:   1    -0.232762284508E+04    0.22836E+01   -0.21306E+02  4512   0.133E+01    0.409E+00
RMM:   2    -0.233043202105E+04   -0.28092E+01   -0.28855E+01  6595   0.343E+00    0.422E+00
RMM:   3    -0.233035884337E+04    0.73178E-01   -0.27002E+00  6272   0.107E+00    0.331E+00
RMM:   4    -0.233033036618E+04    0.28477E-01   -0.32449E-01  6421   0.276E-01    0.248E+00
RMM:   5    -0.233027713460E+04    0.53232E-01   -0.71623E-02  6414   0.134E-01    0.124E+00
RMM:   6    -0.233028084155E+04   -0.37070E-02   -0.68025E-02  5814   0.134E-01    0.137E+00
RMM:   7    -0.233025689328E+04    0.23948E-01   -0.30427E-02  5953   0.100E-01    0.376E-01
RMM:   8    -0.233025554994E+04    0.13433E-02   -0.35724E-03  5793   0.372E-02    0.124E-01
RMM:   9    -0.233025552876E+04    0.21181E-04   -0.76000E-04  4988   0.188E-02    0.692E-02
RMM:  10    -0.233025556141E+04   -0.32653E-04   -0.23156E-04  3779   0.119E-02    0.320E-02
RMM:  11    -0.233025557491E+04   -0.13491E-04   -0.52173E-05  3055   0.587E-03    0.137E-02
RMM:  12    -0.233025558288E+04   -0.79716E-05   -0.13462E-05  2925   0.420E-03
   3 F= -.23517438E+04 E0= -.23517437E+04  d E =-.877210E+00  mag=     3.9992
       N       E                     dE             d eps       ncg     rms          rms(c)
DAV:   1    -0.233028963795E+04   -0.34063E-01   -0.21483E+01  4640   0.447E+00    0.136E+00
RMM:   2    -0.233050660785E+04   -0.21697E+00   -0.22151E+00  6483   0.104E+00    0.131E+00
RMM:   3    -0.233051241122E+04   -0.58034E-02   -0.23779E-01  6357   0.342E-01    0.117E+00
RMM:   4    -0.233050128016E+04    0.11131E-01   -0.25277E-02  6184   0.881E-02    0.568E-01
RMM:   5    -0.233050045885E+04    0.82132E-03   -0.76318E-03  5928   0.460E-02    0.593E-01
RMM:   6    -0.233049779264E+04    0.26662E-02   -0.64764E-03  5397   0.470E-02    0.296E-01
RMM:   7    -0.233049685029E+04    0.94235E-03   -0.24344E-03  5157   0.350E-02    0.151E-01
RMM:   8    -0.233049654520E+04    0.30509E-03   -0.41268E-04  4828   0.129E-02    0.366E-02
RMM:   9    -0.233049650657E+04    0.38635E-04   -0.78848E-05  3296   0.760E-03    0.223E-02
RMM:  10    -0.233049648419E+04    0.22379E-04   -0.44184E-05  3105   0.574E-03    0.907E-03
RMM:  11    -0.233049647799E+04    0.61970E-05   -0.15569E-05  2921   0.455E-03
   4 F= -.23519853E+04 E0= -.23519853E+04  d E =-.241512E+00  mag=     3.9995
       N       E                     dE             d eps       ncg     rms          rms(c)
DAV:   1    -0.233009725804E+04    0.39923E+00   -0.55340E+01  4544   0.723E+00    0.216E+00
RMM:   2    -0.233066365331E+04   -0.56640E+00   -0.58194E+00  6469   0.170E+00    0.193E+00
RMM:   3    -0.233068561490E+04   -0.21962E-01   -0.63563E-01  6312   0.562E-01    0.176E+00
RMM:   4    -0.233065228883E+04    0.33326E-01   -0.64449E-02  6282   0.145E-01    0.716E-01
RMM:   5    -0.233065457116E+04   -0.22823E-02   -0.20807E-02  6121   0.745E-02    0.103E+00
RMM:   6    -0.233064749977E+04    0.70714E-02   -0.16810E-02  5763   0.723E-02    0.609E-01
RMM:   7    -0.233064423631E+04    0.32635E-02   -0.70503E-03  5634   0.519E-02    0.270E-01
RMM:   8    -0.233064334737E+04    0.88894E-03   -0.10402E-03  5450   0.204E-02    0.655E-02
RMM:   9    -0.233064323819E+04    0.10919E-03   -0.24993E-04  4318   0.112E-02    0.386E-02
RMM:  10    -0.233064318303E+04    0.55158E-04   -0.11710E-04  3976   0.894E-03    0.163E-02
RMM:  11    -0.233064316821E+04    0.14816E-04   -0.43575E-05  3380   0.581E-03    0.106E-02
RMM:  12    -0.233064316476E+04    0.34560E-05   -0.15949E-05  2935   0.484E-03
   5 F= -.23521331E+04 E0= -.23521331E+04  d E =-.389316E+00  mag=     3.9998
       N       E                     dE             d eps       ncg     rms          rms(c)
DAV:   1    -0.233074572121E+04   -0.10255E+00   -0.76496E+00  4640   0.258E+00    0.857E-01
RMM:   2    -0.233083681238E+04   -0.91091E-01   -0.95205E-01  6467   0.584E-01    0.756E-01
RMM:   3    -0.233084050800E+04   -0.36956E-02   -0.10632E-01  6281   0.222E-01    0.617E-01
RMM:   4    -0.233083592502E+04    0.45830E-02   -0.11186E-02  6099   0.568E-02    0.372E-01
RMM:   5    -0.233083586612E+04    0.58894E-04   -0.37232E-03  5675   0.286E-02    0.421E-01
RMM:   6    -0.233083435826E+04    0.15079E-02   -0.23110E-03  5299   0.274E-02    0.843E-02
RMM:   7    -0.233083437232E+04   -0.14062E-04   -0.42228E-04  4735   0.158E-02    0.602E-02
RMM:   8    -0.233083436512E+04    0.72027E-05   -0.16237E-04  3531   0.802E-03    0.492E-02
RMM:   9    -0.233083434170E+04    0.23419E-04   -0.37340E-05  2939   0.572E-03    0.180E-02
RMM:  10    -0.233083434344E+04   -0.17415E-05   -0.28398E-05  2975   0.429E-03
   6 F= -.23523231E+04 E0= -.23523231E+04  d E =-.189981E+00  mag=     3.9997
       N       E                     dE             d eps       ncg     rms          rms(c)
DAV:   1    -0.233067217343E+04    0.16217E+00   -0.25840E+01  4544   0.477E+00    0.157E+00
RMM:   2    -0.233098919445E+04   -0.31702E+00   -0.33050E+00  6452   0.109E+00    0.142E+00
RMM:   3    -0.233099893239E+04   -0.97379E-02   -0.37240E-01  6248   0.418E-01    0.110E+00
RMM:   4    -0.233098461328E+04    0.14319E-01   -0.37417E-02  6236   0.104E-01    0.701E-01
RMM:   5    -0.233098326243E+04    0.13509E-02   -0.11846E-02  5947   0.511E-02    0.670E-01
RMM:   6    -0.233097901418E+04    0.42482E-02   -0.74374E-03  5431   0.493E-02    0.156E-01
RMM:   7    -0.233097900502E+04    0.91612E-05   -0.15018E-03  5174   0.291E-02    0.106E-01
RMM:   8    -0.233097897371E+04    0.31308E-04   -0.56465E-04  4969   0.142E-02    0.865E-02
RMM:   9    -0.233097888876E+04    0.84948E-04   -0.13008E-04  3750   0.884E-03    0.310E-02
RMM:  10    -0.233097888637E+04    0.23881E-05   -0.80437E-05  3417   0.661E-03
   7 F= -.23524656E+04 E0= -.23524656E+04  d E =-.332523E+00  mag=     3.9995
       N       E                     dE             d eps       ncg     rms          rms(c)
DAV:   1    -0.233099178666E+04   -0.12898E-01   -0.13379E+01  4544   0.359E+00    0.104E+00
RMM:   2    -0.233110858857E+04   -0.11680E+00   -0.12210E+00  6311   0.742E-01    0.817E-01
RMM:   3    -0.233111686368E+04   -0.82751E-02   -0.13095E-01  6094   0.282E-01    0.918E-01
RMM:   4    -0.233110881723E+04    0.80465E-02   -0.14637E-02  6431   0.700E-02    0.408E-01
RMM:   5    -0.233110866118E+04    0.15605E-03   -0.56000E-03  5833   0.384E-02    0.422E-01
RMM:   6    -0.233110663065E+04    0.20305E-02   -0.37559E-03  5751   0.369E-02    0.112E-01
RMM:   7    -0.233110654030E+04    0.90356E-04   -0.68385E-04  5231   0.183E-02    0.482E-02
RMM:   8    -0.233110655023E+04   -0.99320E-05   -0.15332E-04  3509   0.966E-03    0.502E-02
RMM:   9    -0.233110651905E+04    0.31177E-04   -0.56359E-05  2982   0.634E-03    0.211E-02
RMM:  10    -0.233110651447E+04    0.45774E-05   -0.26961E-05  2973   0.459E-03
   8 F= -.23525923E+04 E0= -.23525923E+04  d E =-.126728E+00  mag=     3.9990
       N       E                     dE             d eps       ncg     rms          rms(c)
DAV:   1    -0.233106399525E+04    0.42524E-01   -0.88245E+00  4576   0.291E+00    0.842E-01
RMM:   2    -0.233114175551E+04   -0.77760E-01   -0.81430E-01  6308   0.608E-01    0.653E-01
RMM:   3    -0.233114716599E+04   -0.54105E-02   -0.87111E-02  6088   0.228E-01    0.724E-01
RMM:   4    -0.233114208564E+04    0.50804E-02   -0.96183E-03  6394   0.567E-02    0.334E-01
RMM:   5    -0.233114191145E+04    0.17419E-03   -0.36944E-03  5760   0.312E-02    0.338E-01
RMM:   6    -0.233114057116E+04    0.13403E-02   -0.25088E-03  5693   0.307E-02    0.885E-02
RMM:   7    -0.233114050417E+04    0.66987E-04   -0.45531E-04  5054   0.149E-02    0.364E-02
RMM:   8    -0.233114050441E+04   -0.24169E-06   -0.90464E-05  3192   0.814E-03
   9 F= -.23526256E+04 E0= -.23526255E+04  d E =-.159994E+00  mag=     3.9980
       N       E                     dE             d eps       ncg     rms          rms(c)
DAV:   1    -0.233113529344E+04    0.52107E-02   -0.16000E+01  4512   0.403E+00    0.107E+00
RMM:   2    -0.233125469679E+04   -0.11940E+00   -0.12550E+00  6253   0.770E-01    0.837E-01
RMM:   3    -0.233126411382E+04   -0.94170E-02   -0.13979E-01  6089   0.303E-01    0.930E-01
RMM:   4    -0.233125567825E+04    0.84356E-02   -0.14940E-02  6365   0.759E-02    0.461E-01
RMM:   5    -0.233125507869E+04    0.59956E-03   -0.58839E-03  5705   0.422E-02    0.401E-01
RMM:   6    -0.233125332008E+04    0.17586E-02   -0.51343E-03  5880   0.417E-02    0.157E-01
RMM:   7    -0.233125309477E+04    0.22531E-03   -0.79820E-04  5244   0.209E-02    0.613E-02
RMM:   8    -0.233125308138E+04    0.13388E-04   -0.22974E-04  3764   0.101E-02    0.591E-02
RMM:   9    -0.233125303090E+04    0.50478E-04   -0.73771E-05  3022   0.687E-03    0.249E-02
RMM:  10    -0.233125302004E+04    0.10863E-04   -0.35342E-05  2932   0.487E-03    0.100E-02
RMM:  11    -0.233125301842E+04    0.16248E-05   -0.11113E-05  2918   0.371E-03
  10 F= -.23527384E+04 E0= -.23527379E+04  d E =-.112798E+00  mag=     3.9921
       N       E                     dE             d eps       ncg     rms          rms(c)
DAV:   1    -0.233113752880E+04    0.11549E+00   -0.22013E+01  4512   0.471E+00    0.127E+00
RMM:   2    -0.233130309228E+04   -0.16556E+00   -0.17336E+00  6257   0.904E-01    0.101E+00
RMM:   3    -0.233131561194E+04   -0.12520E-01   -0.19098E-01  6146   0.354E-01    0.115E+00
RMM:   4    -0.233130304458E+04    0.12567E-01   -0.20896E-02  6356   0.897E-02    0.537E-01
RMM:   5    -0.233130220209E+04    0.84249E-03   -0.82939E-03  5817   0.498E-02    0.475E-01
RMM:   6    -0.233129968511E+04    0.25170E-02   -0.71505E-03  5883   0.489E-02    0.190E-01
RMM:   7    -0.233129934464E+04    0.34048E-03   -0.11082E-03  5319   0.251E-02    0.747E-02
RMM:   8    -0.233129933145E+04    0.13184E-04   -0.33788E-04  4297   0.117E-02    0.744E-02
RMM:   9    -0.233129925496E+04    0.76492E-04   -0.11148E-04  3229   0.789E-03    0.292E-02
RMM:  10    -0.233129923948E+04    0.15477E-04   -0.49301E-05  2982   0.555E-03    0.130E-02
RMM:  11    -0.233129923719E+04    0.22917E-05   -0.16571E-05  2928   0.436E-03
  11 F= -.23527850E+04 E0= -.23527839E+04  d E =-.159400E+00  mag=     3.9774
       N       E                     dE             d eps       ncg     rms          rms(c)
DAV:   1    -0.233114297463E+04    0.15626E+00   -0.20042E+01  4544   0.461E+00    0.140E+00
RMM:   2    -0.233139076264E+04   -0.24779E+00   -0.26149E+00  6514   0.101E+00    0.106E+00
RMM:   3    -0.233141061561E+04   -0.19853E-01   -0.27466E-01  6210   0.369E-01    0.104E+00
RMM:   4    -0.233139803622E+04    0.12579E-01   -0.29309E-02  6373   0.956E-02    0.548E-01
RMM:   5    -0.233139812265E+04   -0.86437E-04   -0.10485E-02  5750   0.470E-02    0.586E-01
RMM:   6    -0.233139490255E+04    0.32201E-02   -0.71275E-03  5877   0.451E-02    0.215E-01
RMM:   7    -0.233139458235E+04    0.32021E-03   -0.14334E-03  5454   0.250E-02    0.122E-01
RMM:   8    -0.233139443485E+04    0.14750E-03   -0.44900E-04  4121   0.125E-02    0.703E-02
RMM:   9    -0.233139434757E+04    0.87280E-04   -0.12789E-04  3585   0.762E-03    0.317E-02
RMM:  10    -0.233139432873E+04    0.18832E-04   -0.83729E-05  3079   0.659E-03    0.140E-02
RMM:  11    -0.233139432795E+04    0.78237E-06   -0.21665E-05  2965   0.473E-03
  12 F= -.23528804E+04 E0= -.23528798E+04  d E =-.953815E-01  mag=     3.9862
       N       E                     dE             d eps       ncg     rms          rms(c)
DAV:   1    -0.233136638559E+04    0.27943E-01   -0.28985E+00  4720   0.175E+00    0.520E-01
RMM:   2    -0.233140248987E+04   -0.36104E-01   -0.37629E-01  6505   0.382E-01    0.448E-01
RMM:   3    -0.233140483219E+04   -0.23423E-02   -0.38040E-02  6140   0.138E-01    0.416E-01
RMM:   4    -0.233140290853E+04    0.19237E-02   -0.41028E-03  5880   0.352E-02    0.195E-01
RMM:   5    -0.233140292125E+04   -0.12726E-04   -0.14327E-03  5108   0.193E-02    0.207E-01
RMM:   6    -0.233140243638E+04    0.48487E-03   -0.10195E-03  5463   0.184E-02    0.620E-02
RMM:   7    -0.233140240241E+04    0.33970E-04   -0.14913E-04  3708   0.980E-03    0.244E-02
RMM:   8    -0.233140239407E+04    0.83370E-05   -0.26162E-05  2981   0.474E-03
  13 F= -.23528885E+04 E0= -.23528882E+04  d E =-.103522E+00  mag=     3.9907
       N       E                     dE             d eps       ncg     rms          rms(c)
DAV:   1    -0.233116984476E+04    0.23256E+00   -0.15879E+01  4512   0.396E+00    0.133E+00
RMM:   2    -0.233146879405E+04   -0.29895E+00   -0.31255E+00  6588   0.966E-01    0.123E+00
RMM:   3    -0.233149003511E+04   -0.21241E-01   -0.35427E-01  6321   0.358E-01    0.983E-01
RMM:   4    -0.233148024276E+04    0.97923E-02   -0.36170E-02  6256   0.858E-02    0.563E-01
RMM:   5    -0.233147941518E+04    0.82758E-03   -0.82228E-03  5784   0.380E-02    0.527E-01
RMM:   6    -0.233147657027E+04    0.28449E-02   -0.65601E-03  5588   0.433E-02    0.185E-01
RMM:   7    -0.233147669325E+04   -0.12298E-03   -0.21666E-03  5429   0.298E-02    0.188E-01
RMM:   8    -0.233147620945E+04    0.48380E-03   -0.57009E-04  4543   0.135E-02    0.526E-02
RMM:   9    -0.233147614864E+04    0.60813E-04   -0.12015E-04  3410   0.694E-03    0.310E-02
RMM:  10    -0.233147613276E+04    0.15880E-04   -0.67557E-05  3041   0.638E-03    0.109E-02
RMM:  11    -0.233147613339E+04   -0.62407E-06   -0.20654E-05  2971   0.466E-03
  14 F= -.23529626E+04 E0= -.23529626E+04  d E =-.740807E-01  mag=     3.9978
       N       E                     dE             d eps       ncg     rms          rms(c)
DAV:   1    -0.233145966601E+04    0.16467E-01   -0.10314E+00  4656   0.101E+00    0.336E-01
RMM:   2    -0.233147933361E+04   -0.19668E-01   -0.20272E-01  6577   0.246E-01    0.337E-01
RMM:   3    -0.233148022232E+04   -0.88870E-03   -0.21608E-02  6015   0.926E-02    0.237E-01
RMM:   4    -0.233147968235E+04    0.53996E-03   -0.22466E-03  4856   0.211E-02    0.140E-01
RMM:   5    -0.233147962471E+04    0.57637E-04   -0.46660E-04  3458   0.113E-02    0.127E-01
RMM:   6    -0.233147942871E+04    0.19601E-03   -0.42989E-04  4888   0.127E-02    0.325E-02
RMM:   7    -0.233147943233E+04   -0.36248E-05   -0.82075E-05  3197   0.818E-03
  15 F= -.23529660E+04 E0= -.23529660E+04  d E =-.774778E-01  mag=     3.9989
       N       E                     dE             d eps       ncg     rms          rms(c)
DAV:   1    -0.233130956369E+04    0.16987E+00   -0.14535E+01  4512   0.368E+00    0.114E+00
RMM:   2    -0.233154527586E+04   -0.23571E+00   -0.25246E+00  6610   0.852E-01    0.958E-01
RMM:   3    -0.233156355521E+04   -0.18279E-01   -0.28513E-01  6358   0.319E-01    0.762E-01
RMM:   4    -0.233155839679E+04    0.51584E-02   -0.29135E-02  6257   0.775E-02    0.453E-01
RMM:   5    -0.233155779965E+04    0.59714E-03   -0.56341E-03  5662   0.321E-02    0.475E-01
RMM:   6    -0.233155562072E+04    0.21789E-02   -0.49837E-03  5537   0.380E-02    0.173E-01
RMM:   7    -0.233155563237E+04   -0.11655E-04   -0.16824E-03  5550   0.263E-02    0.145E-01
RMM:   8    -0.233155536880E+04    0.26358E-03   -0.47741E-04  4410   0.123E-02    0.498E-02
RMM:   9    -0.233155532345E+04    0.45346E-04   -0.69248E-05  3217   0.601E-03    0.325E-02
RMM:  10    -0.233155530708E+04    0.16365E-04   -0.62274E-05  2972   0.589E-03    0.906E-03
RMM:  11    -0.233155530760E+04   -0.51651E-06   -0.18154E-05  2975   0.422E-03
  16 F= -.23530428E+04 E0= -.23530427E+04  d E =-.767468E-01  mag=     3.9997
       N       E                     dE             d eps       ncg     rms          rms(c)
DAV:   1    -0.233139211432E+04    0.16319E+00   -0.10929E+01  4512   0.320E+00    0.980E-01
RMM:   2    -0.233156897219E+04   -0.17686E+00   -0.18891E+00  6607   0.737E-01    0.825E-01
RMM:   3    -0.233158238316E+04   -0.13411E-01   -0.21134E-01  6377   0.275E-01    0.645E-01
RMM:   4    -0.233157865588E+04    0.37273E-02   -0.21623E-02  6210   0.660E-02    0.392E-01
RMM:   5    -0.233157811128E+04    0.54460E-03   -0.40367E-03  5599   0.274E-02    0.395E-01
RMM:   6    -0.233157651159E+04    0.15997E-02   -0.36706E-03  5463   0.333E-02    0.143E-01
RMM:   7    -0.233157654695E+04   -0.35365E-04   -0.12518E-03  5363   0.232E-02    0.127E-01
RMM:   8    -0.233157633709E+04    0.20986E-03   -0.34119E-04  4147   0.105E-02    0.394E-02
RMM:   9    -0.233157630651E+04    0.30581E-04   -0.48851E-05  3104   0.546E-03    0.261E-02
RMM:  10    -0.233157629579E+04    0.10723E-04   -0.46377E-05  2944   0.518E-03    0.736E-03
RMM:  11    -0.233157629638E+04   -0.59135E-06   -0.12200E-05  2950   0.386E-03
  17 F= -.23530644E+04 E0= -.23530644E+04  d E =-.984108E-01  mag=     3.9999
       N       E                     dE             d eps       ncg     rms          rms(c)
DAV:   1    -0.233150408393E+04    0.72212E-01   -0.10723E+01  4512   0.310E+00    0.922E-01
RMM:   2    -0.233162823721E+04   -0.12415E+00   -0.13438E+00  6431   0.664E-01    0.678E-01
RMM:   3    -0.233163849644E+04   -0.10259E-01   -0.13868E-01  6203   0.241E-01    0.646E-01
RMM:   4    -0.233163419656E+04    0.42999E-02   -0.16772E-02  6346   0.608E-02    0.365E-01
RMM:   5    -0.233163389611E+04    0.30045E-03   -0.43112E-03  5538   0.307E-02    0.384E-01
RMM:   6    -0.233163241795E+04    0.14782E-02   -0.38370E-03  5553   0.363E-02    0.116E-01
RMM:   7    -0.233163237286E+04    0.45093E-04   -0.63148E-04  5220   0.178E-02    0.804E-02
RMM:   8    -0.233163230464E+04    0.68223E-04   -0.18503E-04  3382   0.804E-03    0.422E-02
RMM:   9    -0.233163227103E+04    0.33609E-04   -0.36210E-05  3007   0.518E-03    0.186E-02
RMM:  10    -0.233163226163E+04    0.94052E-05   -0.32734E-05  2969   0.483E-03
  18 F= -.23531212E+04 E0= -.23531212E+04  d E =-.567822E-01  mag=     4.0000
       N       E                     dE             d eps       ncg     rms          rms(c)
DAV:   1    -0.233159063714E+04    0.41634E-01   -0.43801E+00  4544   0.199E+00    0.586E-01
RMM:   2    -0.233164126295E+04   -0.50626E-01   -0.54652E-01  6410   0.422E-01    0.441E-01
RMM:   3    -0.233164533232E+04   -0.40694E-02   -0.55812E-02  6159   0.154E-01    0.425E-01
RMM:   4    -0.233164346345E+04    0.18689E-02   -0.67860E-03  6064   0.386E-02    0.230E-01
RMM:   5    -0.233164335829E+04    0.10516E-03   -0.18084E-03  5393   0.208E-02    0.242E-01
RMM:   6    -0.233164273059E+04    0.62771E-03   -0.15886E-03  5457   0.237E-02    0.678E-02
RMM:   7    -0.233164272169E+04    0.88917E-05   -0.26080E-04  4390   0.117E-02    0.540E-02
RMM:   8    -0.233164268608E+04    0.35610E-04   -0.73607E-05  3046   0.563E-03    0.242E-02
RMM:   9    -0.233164267344E+04    0.12648E-04   -0.15792E-05  2939   0.375E-03    0.113E-02
RMM:  10    -0.233164266948E+04    0.39609E-05   -0.13884E-05  2928   0.330E-03
  19 F= -.23531321E+04 E0= -.23531321E+04  d E =-.676637E-01  mag=     4.0000
       N       E                     dE             d eps       ncg     rms          rms(c)
DAV:   1    -0.233160923872E+04    0.33435E-01   -0.47890E+00  4528   0.209E+00    0.657E-01
RMM:   2    -0.233167284766E+04   -0.63609E-01   -0.68506E-01  6412   0.481E-01    0.477E-01
RMM:   3    -0.233167876402E+04   -0.59164E-02   -0.76482E-02  6220   0.178E-01    0.537E-01
RMM:   4    -0.233167594965E+04    0.28144E-02   -0.81163E-03  6296   0.414E-02    0.228E-01
RMM:   5    -0.233167580756E+04    0.14209E-03   -0.20318E-03  5473   0.225E-02    0.230E-01
RMM:   6    -0.233167517847E+04    0.62909E-03   -0.16477E-03  5666   0.238E-02    0.988E-02
RMM:   7    -0.233167513699E+04    0.41482E-04   -0.40264E-04  4821   0.131E-02    0.695E-02
RMM:   8    -0.233167508526E+04    0.51734E-04   -0.99268E-05  3023   0.686E-03    0.333E-02
RMM:   9    -0.233167506191E+04    0.23349E-04   -0.30010E-05  3008   0.413E-03    0.135E-02
RMM:  10    -0.233167505645E+04    0.54545E-05   -0.17624E-05  2931   0.369E-03
  20 F= -.23531656E+04 E0= -.23531656E+04  d E =-.335464E-01  mag=     4.0000
       N       E                     dE             d eps       ncg     rms          rms(c)
DAV:   1    -0.233159200817E+04    0.83054E-01   -0.69706E+00  4512   0.252E+00    0.792E-01
RMM:   2    -0.233168444276E+04   -0.92435E-01   -0.99579E-01  6419   0.578E-01    0.578E-01
RMM:   3    -0.233169363989E+04   -0.91971E-02   -0.11495E-01  6239   0.217E-01    0.671E-01
RMM:   4    -0.233168931710E+04    0.43228E-02   -0.12141E-02  6403   0.500E-02    0.279E-01
RMM:   5    -0.233168905596E+04    0.26114E-03   -0.28797E-03  5588   0.261E-02    0.277E-01
RMM:   6    -0.233168815223E+04    0.90373E-03   -0.24445E-03  5769   0.286E-02    0.126E-01
RMM:   7    -0.233168808321E+04    0.69020E-04   -0.67921E-04  5161   0.163E-02    0.905E-02
RMM:   8    -0.233168799683E+04    0.86379E-04   -0.16061E-04  3142   0.844E-03    0.444E-02
RMM:   9    -0.233168795761E+04    0.39223E-04   -0.46922E-05  3063   0.502E-03    0.175E-02
RMM:  10    -0.233168794810E+04    0.95127E-05   -0.31521E-05  2934   0.467E-03
  21 F= -.23531799E+04 E0= -.23531799E+04  d E =-.478164E-01  mag=     4.0000
       N       E                     dE             d eps       ncg     rms          rms(c)
DAV:   1    -0.233164202939E+04    0.45928E-01   -0.46275E+00  4544   0.207E+00    0.652E-01
RMM:   2    -0.233171266569E+04   -0.70636E-01   -0.75243E-01  6520   0.503E-01    0.492E-01
RMM:   3    -0.233171782239E+04   -0.51567E-02   -0.77164E-02  6329   0.171E-01    0.501E-01
RMM:   4    -0.233171536263E+04    0.24598E-02   -0.85881E-03  6223   0.405E-02    0.236E-01
RMM:   5    -0.233171519908E+04    0.16354E-03   -0.17255E-03  5252   0.202E-02    0.229E-01
RMM:   6    -0.233171460033E+04    0.59875E-03   -0.15201E-03  5602   0.221E-02    0.106E-01
RMM:   7    -0.233171460104E+04   -0.71547E-06   -0.52719E-04  4775   0.139E-02    0.921E-02
RMM:   8    -0.233171449675E+04    0.10430E-03   -0.12932E-04  3127   0.755E-03    0.315E-02
RMM:   9    -0.233171447644E+04    0.20307E-04   -0.27113E-05  2996   0.423E-03    0.137E-02
RMM:  10    -0.233171446990E+04    0.65424E-05   -0.18887E-05  2925   0.367E-03
  22 F= -.23532072E+04 E0= -.23532072E+04  d E =-.272934E-01  mag=     4.0000
       N       E                     dE             d eps       ncg     rms          rms(c)
DAV:   1    -0.233162854274E+04    0.85934E-01   -0.61318E+00  4512   0.238E+00    0.751E-01
RMM:   2    -0.233172236417E+04   -0.93821E-01   -0.99936E-01  6509   0.579E-01    0.568E-01
RMM:   3    -0.233172922596E+04   -0.68618E-02   -0.10230E-01  6333   0.197E-01    0.583E-01
RMM:   4    -0.233172589669E+04    0.33293E-02   -0.11471E-02  6338   0.467E-02    0.276E-01
RMM:   5    -0.233172565743E+04    0.23926E-03   -0.22551E-03  5394   0.225E-02    0.266E-01
RMM:   6    -0.233172485187E+04    0.80556E-03   -0.20405E-03  5675   0.254E-02    0.128E-01
RMM:   7    -0.233172485713E+04   -0.52613E-05   -0.76028E-04  5032   0.163E-02    0.114E-01
RMM:   8    -0.233172469794E+04    0.15919E-03   -0.18645E-04  3318   0.866E-03    0.382E-02
RMM:   9    -0.233172466816E+04    0.29782E-04   -0.39097E-05  3042   0.486E-03    0.165E-02
RMM:  10    -0.233172465769E+04    0.10463E-04   -0.27889E-05  2933   0.435E-03    0.712E-03
RMM:  11    -0.233172465579E+04    0.18979E-05   -0.83967E-06  2921   0.341E-03
  23 F= -.23532183E+04 E0= -.23532183E+04  d E =-.383612E-01  mag=     4.0000
       N       E                     dE             d eps       ncg     rms          rms(c)
DAV:   1    -0.233163119394E+04    0.93464E-01   -0.61515E+00  4512   0.238E+00    0.767E-01
RMM:   2    -0.233175039008E+04   -0.11920E+00   -0.12592E+00  6634   0.631E-01    0.539E-01
RMM:   3    -0.233175932020E+04   -0.89301E-02   -0.13200E-01  6321   0.213E-01    0.514E-01
RMM:   4    -0.233175720940E+04    0.21108E-02   -0.13519E-02  6255   0.477E-02    0.303E-01
RMM:   5    -0.233175680971E+04    0.39969E-03   -0.20219E-03  5294   0.201E-02    0.250E-01
RMM:   6    -0.233175610616E+04    0.70355E-03   -0.16052E-03  5445   0.225E-02    0.119E-01
RMM:   7    -0.233175599528E+04    0.11089E-03   -0.57260E-04  4967   0.140E-02    0.477E-02
RMM:   8    -0.233175598785E+04    0.74287E-05   -0.91797E-05  3113   0.824E-03
  24 F= -.23532499E+04 E0= -.23532499E+04  d E =-.316583E-01  mag=     4.0000
       N       E                     dE             d eps       ncg     rms          rms(c)
DAV:   1    -0.233123368725E+04    0.52231E+00   -0.26492E+01  4512   0.496E+00    0.161E+00
RMM:   2    -0.233175945336E+04   -0.52577E+00   -0.55487E+00  6649   0.136E+00    0.116E+00
RMM:   3    -0.233179541062E+04   -0.35957E-01   -0.58497E-01  6403   0.452E-01    0.102E+00
RMM:   4    -0.233178679990E+04    0.86107E-02   -0.58387E-02  6431   0.101E-01    0.634E-01
RMM:   5    -0.233178511362E+04    0.16863E-02   -0.88723E-03  5815   0.405E-02    0.534E-01
RMM:   6    -0.233178205145E+04    0.30622E-02   -0.68680E-03  5778   0.450E-02    0.256E-01
RMM:   7    -0.233178153686E+04    0.51459E-03   -0.24848E-03  5465   0.282E-02    0.105E-01
RMM:   8    -0.233178146658E+04    0.70279E-04   -0.40603E-04  4564   0.156E-02    0.682E-02
RMM:   9    -0.233178144234E+04    0.24245E-04   -0.15707E-04  3441   0.775E-03    0.646E-02
RMM:  10    -0.233178138832E+04    0.54019E-04   -0.85358E-05  2931   0.632E-03    0.180E-02
RMM:  11    -0.233178138723E+04    0.10878E-05   -0.33577E-05  2956   0.445E-03
  25 F= -.23532761E+04 E0= -.23532761E+04  d E =-.578422E-01  mag=     4.0000
       N       E                     dE             d eps       ncg     rms          rms(c)
DAV:   1    -0.233169607166E+04    0.85317E-01   -0.58575E+00  4512   0.232E+00    0.745E-01
RMM:   2    -0.233180384897E+04   -0.10778E+00   -0.11394E+00  6638   0.607E-01    0.500E-01
RMM:   3    -0.233181289154E+04   -0.90426E-02   -0.11878E-01  6278   0.208E-01    0.515E-01
RMM:   4    -0.233181072486E+04    0.21667E-02   -0.11889E-02  6123   0.471E-02    0.269E-01
RMM:   5    -0.233181037699E+04    0.34786E-03   -0.18507E-03  5292   0.202E-02    0.227E-01
RMM:   6    -0.233180989065E+04    0.48634E-03   -0.13958E-03  5252   0.207E-02    0.125E-01
RMM:   7    -0.233180976868E+04    0.12197E-03   -0.46839E-04  5004   0.131E-02    0.515E-02
RMM:   8    -0.233180977772E+04   -0.90404E-05   -0.12827E-04  3107   0.838E-03    0.560E-02
RMM:   9    -0.233180974305E+04    0.34668E-04   -0.45133E-05  2986   0.501E-03    0.189E-02
RMM:  10    -0.233180974020E+04    0.28463E-05   -0.18339E-05  2911   0.360E-03
  26 F= -.23533043E+04 E0= -.23533043E+04  d E =-.281836E-01  mag=     4.0000
       N       E                     dE             d eps       ncg     rms          rms(c)
DAV:   1    -0.233145436138E+04    0.35538E+00   -0.19366E+01  4512   0.422E+00    0.136E+00
RMM:   2    -0.233181627985E+04   -0.36192E+00   -0.38228E+00  6643   0.112E+00    0.931E-01
RMM:   3    -0.233184456754E+04   -0.28288E-01   -0.40510E-01  6335   0.383E-01    0.929E-01
RMM:   4    -0.233183719998E+04    0.73676E-02   -0.39454E-02  6452   0.865E-02    0.490E-01
RMM:   5    -0.233183600694E+04    0.11930E-02   -0.60197E-03  5782   0.351E-02    0.414E-01
RMM:   6    -0.233183441767E+04    0.15893E-02   -0.44946E-03  5806   0.363E-02    0.234E-01
RMM:   7    -0.233183395705E+04    0.46062E-03   -0.16160E-03  5542   0.232E-02    0.943E-02
RMM:   8    -0.233183398214E+04   -0.25088E-04   -0.43440E-04  4153   0.138E-02    0.101E-01
RMM:   9    -0.233183387249E+04    0.10965E-03   -0.15441E-04  3302   0.768E-03    0.379E-02
RMM:  10    -0.233183385650E+04    0.15983E-04   -0.58783E-05  2931   0.593E-03    0.156E-02
RMM:  11    -0.233183385897E+04   -0.24641E-05   -0.24431E-05  2935   0.398E-03
  27 F= -.23533282E+04 E0= -.23533282E+04  d E =-.521022E-01  mag=     4.0000
       N       E                     dE             d eps       ncg     rms          rms(c)
DAV:   1    -0.233178971080E+04    0.44146E-01   -0.49692E+00  4512   0.214E+00    0.671E-01
RMM:   2    -0.233185795719E+04   -0.68246E-01   -0.72618E-01  6453   0.509E-01    0.404E-01
RMM:   3    -0.233186329938E+04   -0.53422E-02   -0.74022E-02  6123   0.181E-01    0.446E-01
RMM:   4    -0.233186161937E+04    0.16800E-02   -0.76810E-03  6221   0.424E-02    0.221E-01
RMM:   5    -0.233186135472E+04    0.26465E-03   -0.15768E-03  5289   0.208E-02    0.198E-01
RMM:   6    -0.233186106433E+04    0.29039E-03   -0.11257E-03  5171   0.198E-02    0.114E-01
RMM:   7    -0.233186094504E+04    0.11929E-03   -0.28478E-04  4919   0.115E-02    0.414E-02
RMM:   8    -0.233186094621E+04   -0.11712E-05   -0.77790E-05  3051   0.721E-03
  28 F= -.23533548E+04 E0= -.23533548E+04  d E =-.265825E-01  mag=     4.0000
       N       E                     dE             d eps       ncg     rms          rms(c)
DAV:   1    -0.233173212788E+04    0.12882E+00   -0.99141E+00  4512   0.303E+00    0.954E-01
RMM:   2    -0.233186906792E+04   -0.13694E+00   -0.14566E+00  6422   0.721E-01    0.587E-01
RMM:   3    -0.233187973532E+04   -0.10667E-01   -0.15023E-01  6118   0.260E-01    0.637E-01
RMM:   4    -0.233187620420E+04    0.35311E-02   -0.15480E-02  6456   0.607E-02    0.313E-01
RMM:   5    -0.233187570616E+04    0.49804E-03   -0.31609E-03  5471   0.285E-02    0.286E-01
RMM:   6    -0.233187508499E+04    0.62117E-03   -0.22436E-03  5603   0.274E-02    0.160E-01
RMM:   7    -0.233187484429E+04    0.24070E-03   -0.59061E-04  5217   0.158E-02    0.593E-02
RMM:   8    -0.233187484308E+04    0.12098E-05   -0.15748E-04  3385   0.954E-03    0.578E-02
RMM:   9    -0.233187480239E+04    0.40687E-04   -0.61204E-05  3017   0.573E-03    0.218E-02
RMM:  10    -0.233187479390E+04    0.84937E-05   -0.23467E-05  2918   0.443E-03
  29 F= -.23533679E+04 E0= -.23533679E+04  d E =-.397465E-01  mag=     3.9999
       N       E                     dE             d eps       ncg     rms          rms(c)
DAV:   1    -0.233182847785E+04    0.46325E-01   -0.42296E+00  4528   0.194E+00    0.590E-01
RMM:   2    -0.233189220800E+04   -0.63730E-01   -0.66999E-01  6577   0.469E-01    0.394E-01
RMM:   3    -0.233189681636E+04   -0.46084E-02   -0.68629E-02  6265   0.165E-01    0.365E-01
RMM:   4    -0.233189561469E+04    0.12017E-02   -0.68603E-03  5975   0.380E-02    0.200E-01
RMM:   5    -0.233189546074E+04    0.15395E-03   -0.11903E-03  4974   0.166E-02    0.200E-01
RMM:   6    -0.233189510239E+04    0.35835E-03   -0.91157E-04  4783   0.175E-02    0.864E-02
RMM:   7    -0.233189505244E+04    0.49947E-04   -0.25203E-04  4509   0.102E-02    0.345E-02
RMM:   8    -0.233189505256E+04   -0.11962E-06   -0.59491E-05  2987   0.685E-03
  30 F= -.23533880E+04 E0= -.23533880E+04  d E =-.200099E-01  mag=     3.9999
       N       E                     dE             d eps       ncg     rms          rms(c)
DAV:   1    -0.233146402687E+04    0.43103E+00   -0.28149E+01  4512   0.502E+00    0.154E+00
RMM:   2    -0.233190201439E+04   -0.43799E+00   -0.45846E+00  6592   0.125E+00    0.112E+00
RMM:   3    -0.233192944389E+04   -0.27429E-01   -0.46577E-01  6346   0.429E-01    0.102E+00
RMM:   4    -0.233192003233E+04    0.94116E-02   -0.47122E-02  6495   0.100E-01    0.529E-01
RMM:   5    -0.233191904024E+04    0.99208E-03   -0.80627E-03  5815   0.400E-02    0.531E-01
RMM:   6    -0.233191636831E+04    0.26719E-02   -0.63738E-03  5676   0.439E-02    0.209E-01
RMM:   7    -0.233191617618E+04    0.19213E-03   -0.19321E-03  5234   0.256E-02    0.129E-01
RMM:   8    -0.233191609762E+04    0.78557E-04   -0.60690E-04  4259   0.156E-02    0.105E-01
RMM:   9    -0.233191595741E+04    0.14020E-03   -0.16238E-04  3544   0.833E-03    0.385E-02
RMM:  10    -0.233191593546E+04    0.21952E-04   -0.77888E-05  2983   0.652E-03    0.145E-02
RMM:  11    -0.233191593584E+04   -0.37934E-06   -0.28184E-05  2968   0.466E-03
  31 F= -.23534082E+04 E0= -.23534082E+04  d E =-.402828E-01  mag=     3.9999
       N       E                     dE             d eps       ncg     rms          rms(c)
DAV:   1    -0.233185508122E+04    0.60854E-01   -0.44731E+00  4528   0.209E+00    0.699E-01
RMM:   2    -0.233193821712E+04   -0.83136E-01   -0.84387E-01  6606   0.555E-01    0.659E-01
RMM:   3    -0.233193907245E+04   -0.85533E-03   -0.81025E-02  6365   0.183E-01    0.388E-01
RMM:   4    -0.233193750563E+04    0.15668E-02   -0.84399E-03  5931   0.436E-02    0.192E-01
RMM:   5    -0.233193734247E+04    0.16316E-03   -0.14824E-03  5614   0.240E-02    0.172E-01
RMM:   6    -0.233193709062E+04    0.25186E-03   -0.96795E-04  5400   0.188E-02    0.111E-01
RMM:   7    -0.233193697025E+04    0.12037E-03   -0.20253E-04  3885   0.970E-03    0.415E-02
RMM:   8    -0.233193695928E+04    0.10966E-04   -0.54638E-05  2956   0.587E-03    0.329E-02
RMM:   9    -0.233193694746E+04    0.11822E-04   -0.15822E-05  2912   0.321E-03    0.106E-02
RMM:  10    -0.233193694588E+04    0.15750E-05   -0.11673E-05  2913   0.281E-03
  32 F= -.23534295E+04 E0= -.23534295E+04  d E =-.212604E-01  mag=     3.9999
       N       E                     dE             d eps       ncg     rms          rms(c)
DAV:   1    -0.233186993017E+04    0.67017E-01   -0.40248E+00  4512   0.198E+00    0.662E-01
RMM:   2    -0.233194418827E+04   -0.74258E-01   -0.75390E-01  6595   0.525E-01    0.625E-01
RMM:   3    -0.233194527049E+04   -0.10822E-02   -0.72822E-02  6342   0.174E-01    0.370E-01
RMM:   4    -0.233194386157E+04    0.14089E-02   -0.75942E-03  5902   0.414E-02    0.184E-01
RMM:   5    -0.233194377009E+04    0.91485E-04   -0.13739E-03  5573   0.225E-02    0.177E-01
RMM:   6    -0.233194346456E+04    0.30552E-03   -0.90545E-04  5342   0.182E-02    0.105E-01
RMM:   7    -0.233194338923E+04    0.75332E-04   -0.20267E-04  3765   0.972E-03    0.580E-02
RMM:   8    -0.233194335422E+04    0.35013E-04   -0.60689E-05  2933   0.604E-03    0.255E-02
RMM:   9    -0.233194334557E+04    0.86502E-05   -0.14839E-05  2925   0.322E-03
  33 F= -.23534362E+04 E0= -.23534362E+04  d E =-.279251E-01  mag=     4.0000
       N       E                     dE             d eps       ncg     rms          rms(c)
DAV:   1    -0.233191308340E+04    0.30271E-01   -0.32819E+00  4544   0.183E+00    0.586E-01
RMM:   2    -0.233196463899E+04   -0.51556E-01   -0.50198E-01  6533   0.454E-01    0.726E-01
RMM:   3    -0.233196099954E+04    0.36395E-02   -0.45898E-02  6277   0.141E-01    0.303E-01
RMM:   4    -0.233196037096E+04    0.62858E-03   -0.55498E-03  5408   0.338E-02    0.182E-01
RMM:   5    -0.233196036381E+04    0.71455E-05   -0.11609E-03  5150   0.199E-02    0.199E-01
RMM:   6    -0.233195991387E+04    0.44994E-03   -0.91872E-04  5349   0.189E-02    0.980E-02
RMM:   7    -0.233195989991E+04    0.13963E-04   -0.29610E-04  3805   0.138E-02    0.774E-02
RMM:   8    -0.233195982274E+04    0.77173E-04   -0.75595E-05  3018   0.556E-03    0.161E-02
RMM:   9    -0.233195981769E+04    0.50465E-05   -0.13282E-05  2929   0.342E-03
  34 F= -.23534530E+04 E0= -.23534530E+04  d E =-.168209E-01  mag=     4.0000
       N       E                     dE             d eps       ncg     rms          rms(c)
DAV:   1    -0.233190074949E+04    0.59073E-01   -0.45553E+00  4512   0.215E+00    0.691E-01
RMM:   2    -0.233197252959E+04   -0.71780E-01   -0.69861E-01  6522   0.537E-01    0.858E-01
RMM:   3    -0.233196737109E+04    0.51585E-02   -0.63841E-02  6309   0.166E-01    0.356E-01
RMM:   4    -0.233196646781E+04    0.90328E-03   -0.77175E-03  5489   0.399E-02    0.211E-01
RMM:   5    -0.233196648522E+04   -0.17403E-04   -0.16217E-03  5344   0.233E-02    0.237E-01
RMM:   6    -0.233196585020E+04    0.63502E-03   -0.12759E-03  5475   0.221E-02    0.119E-01
RMM:   7    -0.233196582838E+04    0.21821E-04   -0.42165E-04  4154   0.156E-02    0.930E-02
RMM:   8    -0.233196571550E+04    0.11288E-03   -0.10618E-04  3101   0.616E-03    0.190E-02
RMM:   9    -0.233196570797E+04    0.75327E-05   -0.18709E-05  2940   0.401E-03
  35 F= -.23534593E+04 E0= -.23534593E+04  d E =-.231535E-01  mag=     4.0000
       N       E                     dE             d eps       ncg     rms          rms(c)
DAV:   1    -0.233195178054E+04    0.13935E-01   -0.29642E+00  4512   0.175E+00    0.496E-01
RMM:   2    -0.233198148928E+04   -0.29709E-01   -0.29760E-01  6348   0.375E-01    0.505E-01
RMM:   3    -0.233198079277E+04    0.69651E-03   -0.28924E-02  6099   0.124E-01    0.303E-01
RMM:   4    -0.233197994235E+04    0.85041E-03   -0.33306E-03  5301   0.309E-02    0.147E-01
RMM:   5    -0.233198010170E+04   -0.15934E-03   -0.10425E-03  5245   0.205E-02    0.197E-01
RMM:   6    -0.233197962779E+04    0.47391E-03   -0.73255E-04  5300   0.175E-02    0.632E-02
RMM:   7    -0.233197964476E+04   -0.16975E-04   -0.17216E-04  3363   0.110E-02    0.619E-02
RMM:   8    -0.233197959475E+04    0.50017E-04   -0.50099E-05  2954   0.506E-03    0.151E-02
RMM:   9    -0.233197959118E+04    0.35690E-05   -0.10436E-05  2924   0.286E-03
  36 F= -.23534734E+04 E0= -.23534734E+04  d E =-.141140E-01  mag=     4.0000
       N       E                     dE             d eps       ncg     rms          rms(c)
DAV:   1    -0.233195049578E+04    0.29099E-01   -0.37503E+00  4512   0.198E+00    0.559E-01
RMM:   2    -0.233198801561E+04   -0.37520E-01   -0.37588E-01  6336   0.424E-01    0.571E-01
RMM:   3    -0.233198714436E+04    0.87125E-03   -0.36851E-02  6111   0.141E-01    0.339E-01
RMM:   4    -0.233198606778E+04    0.10766E-02   -0.42249E-03  5365   0.348E-02    0.164E-01
RMM:   5    -0.233198627765E+04   -0.20987E-03   -0.13259E-03  5412   0.230E-02    0.223E-01
RMM:   6    -0.233198566683E+04    0.61082E-03   -0.92112E-04  5420   0.195E-02    0.707E-02
RMM:   7    -0.233198568762E+04   -0.20790E-04   -0.21543E-04  3576   0.119E-02    0.694E-02
RMM:   8    -0.233198562390E+04    0.63727E-04   -0.62912E-05  3005   0.538E-03    0.170E-02
RMM:   9    -0.233198561873E+04    0.51692E-05   -0.13300E-05  2927   0.313E-03
  37 F= -.23534797E+04 E0= -.23534797E+04  d E =-.204146E-01  mag=     4.0000
       N       E                     dE             d eps       ncg     rms          rms(c)
DAV:   1    -0.233198438939E+04    0.12345E-02   -0.20128E+00  4544   0.144E+00    0.367E-01
RMM:   2    -0.233199907419E+04   -0.14685E-01   -0.15687E-01  6138   0.282E-01    0.213E-01
RMM:   3    -0.233200015282E+04   -0.10786E-02   -0.16193E-02  5769   0.102E-01    0.205E-01
RMM:   4    -0.233199980643E+04    0.34639E-03   -0.18539E-03  5537   0.250E-02    0.118E-01
RMM:   5    -0.233199965641E+04    0.15002E-03   -0.70685E-04  4922   0.183E-02    0.648E-02
RMM:   6    -0.233199968143E+04   -0.25020E-04   -0.19784E-04  3501   0.116E-02    0.782E-02
RMM:   7    -0.233199961914E+04    0.62292E-04   -0.58518E-05  2981   0.545E-03    0.134E-02
RMM:   8    -0.233199961870E+04    0.44308E-06   -0.12903E-05  2935   0.357E-03
  38 F= -.23534934E+04 E0= -.23534934E+04  d E =-.136486E-01  mag=     3.9999
       N       E                     dE             d eps       ncg     rms          rms(c)
DAV:   1    -0.233198510754E+04    0.14512E-01   -0.26961E+00  4512   0.167E+00    0.426E-01
RMM:   2    -0.233200484806E+04   -0.19741E-01   -0.21064E-01  6119   0.326E-01    0.249E-01
RMM:   3    -0.233200631511E+04   -0.14670E-02   -0.21731E-02  5778   0.117E-01    0.248E-01
RMM:   4    -0.233200580658E+04    0.50852E-03   -0.24751E-03  5731   0.287E-02    0.140E-01
RMM:   5    -0.233200569656E+04    0.11003E-03   -0.97786E-04  4917   0.204E-02    0.116E-01
RMM:   6    -0.233200564343E+04    0.53127E-04   -0.38395E-04  3907   0.142E-02    0.869E-02
RMM:   7    -0.233200555438E+04    0.89048E-04   -0.77134E-05  3101   0.644E-03    0.167E-02
RMM:   8    -0.233200555510E+04   -0.71870E-06   -0.21753E-05  2955   0.421E-03
  39 F= -.23534989E+04 E0= -.23534989E+04  d E =-.191957E-01  mag=     3.9999
       N       E                     dE             d eps       ncg     rms          rms(c)
DAV:   1    -0.233198796171E+04    0.17593E-01   -0.34021E+00  4512   0.187E+00    0.473E-01
RMM:   2    -0.233201762343E+04   -0.29662E-01   -0.30666E-01  6084   0.361E-01    0.401E-01
RMM:   3    -0.233201918114E+04   -0.15577E-02   -0.31313E-02  5900   0.130E-01    0.352E-01
RMM:   4    -0.233201815744E+04    0.10237E-02   -0.34243E-03  5533   0.308E-02    0.150E-01
RMM:   5    -0.233201824779E+04   -0.90352E-04   -0.11705E-03  5340   0.211E-02    0.172E-01
RMM:   6    -0.233201786809E+04    0.37970E-03   -0.74632E-04  5401   0.167E-02    0.637E-02
RMM:   7    -0.233201785412E+04    0.13967E-04   -0.13890E-04  3358   0.922E-03    0.471E-02
RMM:   8    -0.233201782961E+04    0.24509E-04   -0.49121E-05  2925   0.537E-03    0.220E-02
RMM:   9    -0.233201782352E+04    0.60855E-05   -0.10661E-05  2936   0.304E-03
  40 F= -.23535108E+04 E0= -.23535108E+04  d E =-.119061E-01  mag=     3.9999
       N       E                     dE             d eps       ncg     rms          rms(c)
DAV:   1    -0.233200035580E+04    0.17474E-01   -0.23850E+00  4512   0.156E+00    0.394E-01
RMM:   2    -0.233202104578E+04   -0.20690E-01   -0.21450E-01  6092   0.301E-01    0.326E-01
RMM:   3    -0.233202220406E+04   -0.11583E-02   -0.21781E-02  5862   0.108E-01    0.295E-01
RMM:   4    -0.233202149683E+04    0.70724E-03   -0.23933E-03  5367   0.258E-02    0.127E-01
RMM:   5    -0.233202155462E+04   -0.57799E-04   -0.83169E-04  5088   0.179E-02    0.145E-01
RMM:   6    -0.233202128126E+04    0.27336E-03   -0.53521E-04  5230   0.144E-02    0.528E-02
RMM:   7    -0.233202126945E+04    0.11815E-04   -0.95881E-05  3184   0.810E-03    0.383E-02
RMM:   8    -0.233202125388E+04    0.15568E-04   -0.35797E-05  2919   0.488E-03    0.192E-02
RMM:   9    -0.233202124913E+04    0.47471E-05   -0.80954E-06  2927   0.277E-03
  41 F= -.23535140E+04 E0= -.23535140E+04  d E =-.150455E-01  mag=     3.9999
       N       E                     dE             d eps       ncg     rms          rms(c)
DAV:   1    -0.233198351089E+04    0.37743E-01   -0.45613E+00  4544   0.223E+00    0.597E-01
RMM:   2    -0.233203248147E+04   -0.48971E-01   -0.50572E-01  6207   0.459E-01    0.472E-01
RMM:   3    -0.233203560677E+04   -0.31253E-02   -0.50574E-02  5938   0.162E-01    0.470E-01
RMM:   4    -0.233203342906E+04    0.21777E-02   -0.52213E-03  5882   0.385E-02    0.180E-01
RMM:   5    -0.233203343089E+04   -0.18303E-05   -0.17442E-03  5234   0.239E-02    0.193E-01
RMM:   6    -0.233203301058E+04    0.42030E-03   -0.94589E-04  5368   0.188E-02    0.827E-02
RMM:   7    -0.233203296495E+04    0.45636E-04   -0.17930E-04  4154   0.105E-02    0.400E-02
RMM:   8    -0.233203295710E+04    0.78469E-05   -0.57496E-05  2963   0.618E-03
  42 F= -.23535258E+04 E0= -.23535258E+04  d E =-.118201E-01  mag=     3.9999
       N       E                     dE             d eps       ncg     rms          rms(c)
DAV:   1    -0.233201580197E+04    0.17163E-01   -0.17286E+00  4592   0.137E+00    0.369E-01
RMM:   2    -0.233203435565E+04   -0.18554E-01   -0.19159E-01  6229   0.282E-01    0.293E-01
RMM:   3    -0.233203559718E+04   -0.12415E-02   -0.19231E-02  5864   0.100E-01    0.297E-01
RMM:   4    -0.233203473830E+04    0.85888E-03   -0.19887E-03  5511   0.240E-02    0.111E-01
RMM:   5    -0.233203476028E+04   -0.21980E-04   -0.67172E-04  4818   0.154E-02    0.125E-01
RMM:   6    -0.233203457546E+04    0.18482E-03   -0.38074E-04  4804   0.123E-02    0.468E-02
RMM:   7    -0.233203456105E+04    0.14405E-04   -0.66011E-05  3202   0.741E-03    0.245E-02
RMM:   8    -0.233203455771E+04    0.33450E-05   -0.23505E-05  2915   0.481E-03
  43 F= -.23535275E+04 E0= -.23535275E+04  d E =-.135008E-01  mag=     3.9999
       N       E                     dE             d eps       ncg     rms          rms(c)
DAV:   1    -0.233197487648E+04    0.59685E-01   -0.49476E+00  4544   0.235E+00    0.635E-01
RMM:   2    -0.233204272357E+04   -0.67847E-01   -0.69798E-01  6439   0.537E-01    0.520E-01
RMM:   3    -0.233204586269E+04   -0.31391E-02   -0.71345E-02  6167   0.183E-01    0.412E-01
RMM:   4    -0.233204404897E+04    0.18137E-02   -0.71046E-03  6094   0.418E-02    0.228E-01
RMM:   5    -0.233204400369E+04    0.45281E-04   -0.17219E-03  5203   0.203E-02    0.237E-01
RMM:   6    -0.233204336835E+04    0.63534E-03   -0.12951E-03  5513   0.220E-02    0.761E-02
RMM:   7    -0.233204333078E+04    0.37571E-04   -0.21053E-04  4290   0.114E-02    0.286E-02
RMM:   8    -0.233204333082E+04   -0.48429E-07   -0.50349E-05  2996   0.588E-03
  44 F= -.23535368E+04 E0= -.23535368E+04  d E =-.937895E-02  mag=     3.9999
       N       E                     dE             d eps       ncg     rms          rms(c)
DAV:   1    -0.233203871786E+04    0.46129E-02   -0.34860E-01  4784   0.624E-01    0.171E-01
RMM:   2    -0.233204350399E+04   -0.47861E-02   -0.49172E-02  6475   0.142E-01    0.144E-01
RMM:   3    -0.233204373880E+04   -0.23481E-03   -0.50602E-03  5383   0.472E-02    0.118E-01
RMM:   4    -0.233204359360E+04    0.14520E-03   -0.50776E-04  3368   0.116E-02    0.634E-02
RMM:   5    -0.233204358736E+04    0.62370E-05   -0.12657E-04  3004   0.706E-03    0.614E-02
RMM:   6    -0.233204354087E+04    0.46493E-04   -0.10401E-04  3598   0.754E-03    0.181E-02
RMM:   7    -0.233204353942E+04    0.14529E-05   -0.18851E-05  2980   0.498E-03
  45 F= -.23535372E+04 E0= -.23535372E+04  d E =-.975372E-02  mag=     3.9999
       N       E                     dE             d eps       ncg     rms          rms(c)
DAV:   1    -0.233200976826E+04    0.33773E-01   -0.36319E+00  4512   0.197E+00    0.505E-01
RMM:   2    -0.233205152443E+04   -0.41756E-01   -0.43896E-01  6368   0.432E-01    0.388E-01
RMM:   3    -0.233205383397E+04   -0.23095E-02   -0.43784E-02  6093   0.150E-01    0.319E-01
RMM:   4    -0.233205290446E+04    0.92951E-03   -0.45980E-03  6113   0.347E-02    0.162E-01
RMM:   5    -0.233205286796E+04    0.36500E-04   -0.10936E-03  5105   0.196E-02    0.188E-01
RMM:   6    -0.233205254247E+04    0.32548E-03   -0.73705E-04  4895   0.174E-02    0.777E-02
RMM:   7    -0.233205250125E+04    0.41222E-04   -0.16510E-04  3921   0.903E-03    0.388E-02
RMM:   8    -0.233205249014E+04    0.11111E-04   -0.48711E-05  2956   0.653E-03    0.287E-02
RMM:   9    -0.233205247889E+04    0.11246E-04   -0.15636E-05  2912   0.315E-03    0.104E-02
RMM:  10    -0.233205247700E+04    0.18898E-05   -0.80606E-06  2910   0.269E-03
  46 F= -.23535465E+04 E0= -.23535464E+04  d E =-.923644E-02  mag=     3.9999
       N       E                     dE             d eps       ncg     rms          rms(c)
DAV:   1    -0.233202204885E+04    0.30430E-01   -0.28119E+00  4512   0.174E+00    0.443E-01
RMM:   2    -0.233205435842E+04   -0.32310E-01   -0.33990E-01  6339   0.378E-01    0.333E-01
RMM:   3    -0.233205606520E+04   -0.17068E-02   -0.33588E-02  6032   0.132E-01    0.274E-01
RMM:   4    -0.233205537246E+04    0.69274E-03   -0.35384E-03  5980   0.304E-02    0.142E-01
RMM:   5    -0.233205529297E+04    0.79495E-04   -0.86280E-04  5032   0.182E-02    0.154E-01
RMM:   6    -0.233205510244E+04    0.19053E-03   -0.52624E-04  4551   0.149E-02    0.756E-02
RMM:   7    -0.233205505075E+04    0.51689E-04   -0.11473E-04  3746   0.792E-03    0.250E-02
RMM:   8    -0.233205505010E+04    0.64497E-06   -0.30612E-05  2954   0.565E-03
  47 F= -.23535493E+04 E0= -.23535493E+04  d E =-.120854E-01  mag=     3.9998
       N       E                     dE             d eps       ncg     rms          rms(c)
DAV:   1    -0.233204191236E+04    0.13138E-01   -0.19773E+00  4512   0.143E+00    0.356E-01
RMM:   2    -0.233206189481E+04   -0.19982E-01   -0.21214E-01  6298   0.296E-01    0.255E-01
RMM:   3    -0.233206321183E+04   -0.13170E-02   -0.20623E-02  5952   0.104E-01    0.237E-01
RMM:   4    -0.233206279377E+04    0.41806E-03   -0.22797E-03  5596   0.235E-02    0.123E-01
RMM:   5    -0.233206280643E+04   -0.12664E-04   -0.53020E-04  4733   0.136E-02    0.140E-01
RMM:   6    -0.233206259022E+04    0.21622E-03   -0.43591E-04  4689   0.131E-02    0.437E-02
RMM:   7    -0.233206257641E+04    0.13804E-04   -0.77554E-05  3376   0.715E-03    0.205E-02
RMM:   8    -0.233206257634E+04    0.73807E-07   -0.19875E-05  2936   0.482E-03
  48 F= -.23535569E+04 E0= -.23535569E+04  d E =-.763064E-02  mag=     3.9998
       N       E                     dE             d eps       ncg     rms          rms(c)
DAV:   1    -0.233195984995E+04    0.10273E+00   -0.10463E+01  4512   0.328E+00    0.819E-01
RMM:   2    -0.233206594438E+04   -0.10609E+00   -0.11274E+00  6291   0.685E-01    0.568E-01
RMM:   3    -0.233207285994E+04   -0.69156E-02   -0.11254E-01  6060   0.242E-01    0.529E-01
RMM:   4    -0.233207069857E+04    0.21614E-02   -0.12268E-02  6419   0.545E-02    0.282E-01
RMM:   5    -0.233207061286E+04    0.85708E-04   -0.26637E-03  5487   0.284E-02    0.311E-01
RMM:   6    -0.233206964574E+04    0.96711E-03   -0.22996E-03  5735   0.282E-02    0.120E-01
RMM:   7    -0.233206950174E+04    0.14400E-03   -0.45018E-04  5032   0.140E-02    0.461E-02
RMM:   8    -0.233206949551E+04    0.62332E-05   -0.90692E-05  3096   0.780E-03
  49 F= -.23535641E+04 E0= -.23535641E+04  d E =-.148099E-01  mag=     3.9996
       N       E                     dE             d eps       ncg     rms          rms(c)
DAV:   1    -0.233203711565E+04    0.32386E-01   -0.34883E+00  4512   0.189E+00    0.496E-01
RMM:   2    -0.233207484171E+04   -0.37726E-01   -0.40270E-01  6333   0.398E-01    0.319E-01
RMM:   3    -0.233207746567E+04   -0.26240E-02   -0.40474E-02  6009   0.140E-01    0.280E-01
RMM:   4    -0.233207676760E+04    0.69806E-03   -0.43362E-03  6130   0.328E-02    0.162E-01
RMM:   5    -0.233207652403E+04    0.24357E-03   -0.95934E-04  5214   0.195E-02    0.116E-01
RMM:   6    -0.233207650319E+04    0.20836E-04   -0.63343E-04  4801   0.158E-02    0.974E-02
RMM:   7    -0.233207638608E+04    0.11711E-03   -0.14429E-04  3863   0.854E-03    0.317E-02
RMM:   8    -0.233207638594E+04    0.13997E-06   -0.40244E-05  2940   0.553E-03
  50 F= -.23535713E+04 E0= -.23535712E+04  d E =-.713579E-02  mag=     3.9995
       N       E                     dE             d eps       ncg     rms          rms(c)
DAV:   1    -0.233205610444E+04    0.20282E-01   -0.18878E+00  4512   0.139E+00    0.364E-01
RMM:   2    -0.233207647796E+04   -0.20374E-01   -0.21789E-01  6332   0.292E-01    0.227E-01
RMM:   3    -0.233207787608E+04   -0.13981E-02   -0.21506E-02  5914   0.103E-01    0.196E-01
RMM:   4    -0.233207757742E+04    0.29865E-03   -0.23536E-03  5710   0.239E-02    0.122E-01
RMM:   5    -0.233207743520E+04    0.14222E-03   -0.53283E-04  4774   0.152E-02    0.875E-02
RMM:   6    -0.233207743986E+04   -0.46522E-05   -0.32655E-04  3901   0.117E-02    0.843E-02
RMM:   7    -0.233207736111E+04    0.78747E-04   -0.86893E-05  3327   0.718E-03    0.209E-02
RMM:   8    -0.233207736030E+04    0.80586E-06   -0.22978E-05  2924   0.489E-03
  51 F= -.23535724E+04 E0= -.23535724E+04  d E =-.829659E-02  mag=     3.9993
       N       E                     dE             d eps       ncg     rms          rms(c)
DAV:   1    -0.233204052044E+04    0.36841E-01   -0.29857E+00  4544   0.173E+00    0.480E-01
RMM:   2    -0.233208161192E+04   -0.41091E-01   -0.43117E-01  6450   0.391E-01    0.357E-01
RMM:   3    -0.233208436059E+04   -0.27487E-02   -0.45687E-02  6112   0.136E-01    0.304E-01
RMM:   4    -0.233208342735E+04    0.93324E-03   -0.44186E-03  5881   0.308E-02    0.160E-01
RMM:   5    -0.233208334703E+04    0.80320E-04   -0.87363E-04  4826   0.154E-02    0.169E-01
RMM:   6    -0.233208309593E+04    0.25110E-03   -0.69254E-04  4847   0.157E-02    0.810E-02
RMM:   7    -0.233208307455E+04    0.21376E-04   -0.20624E-04  3984   0.969E-03    0.500E-02
RMM:   8    -0.233208304804E+04    0.26507E-04   -0.59503E-05  2952   0.629E-03    0.232E-02
RMM:   9    -0.233208304013E+04    0.79071E-05   -0.11125E-05  2936   0.327E-03
  52 F= -.23535783E+04 E0= -.23535782E+04  d E =-.585151E-02  mag=     3.9991
       N       E                     dE             d eps       ncg     rms          rms(c)
DAV:   1    -0.233197181508E+04    0.11123E+00   -0.78539E+00  4544   0.281E+00    0.781E-01
RMM:   2    -0.233208065349E+04   -0.10884E+00   -0.11400E+00  6443   0.638E-01    0.595E-01
RMM:   3    -0.233208769102E+04   -0.70375E-02   -0.12215E-01  6190   0.222E-01    0.510E-01
RMM:   4    -0.233208511351E+04    0.25775E-02   -0.11652E-02  6234   0.498E-02    0.267E-01
RMM:   5    -0.233208489122E+04    0.22229E-03   -0.23584E-03  5418   0.235E-02    0.272E-01
RMM:   6    -0.233208419447E+04    0.69675E-03   -0.18556E-03  5579   0.246E-02    0.129E-01
RMM:   7    -0.233208413479E+04    0.59675E-04   -0.55543E-04  4947   0.148E-02    0.806E-02
RMM:   8    -0.233208407339E+04    0.61400E-04   -0.17193E-04  3246   0.839E-03    0.429E-02
RMM:   9    -0.233208404584E+04    0.27551E-04   -0.30370E-05  2984   0.467E-03    0.181E-02
RMM:  10    -0.233208404177E+04    0.40713E-05   -0.14602E-05  2919   0.334E-03
  53 F= -.23535796E+04 E0= -.23535795E+04  d E =-.714721E-02  mag=     3.9988
       N       E                     dE             d eps       ncg     rms          rms(c)
DAV:   1    -0.233206935741E+04    0.14688E-01   -0.10900E+00  4608   0.105E+00    0.288E-01
RMM:   2    -0.233208417533E+04   -0.14818E-01   -0.15583E-01  6423   0.233E-01    0.208E-01
RMM:   3    -0.233208528847E+04   -0.11131E-02   -0.16548E-02  5810   0.825E-02    0.176E-01
RMM:   4    -0.233208498682E+04    0.30165E-03   -0.15821E-03  4861   0.188E-02    0.946E-02
RMM:   5    -0.233208495393E+04    0.32894E-04   -0.29356E-04  3704   0.975E-03    0.102E-01
RMM:   6    -0.233208487111E+04    0.82815E-04   -0.26151E-04  3753   0.101E-02    0.515E-02
RMM:   7    -0.233208486075E+04    0.10364E-04   -0.70363E-05  3162   0.683E-03    0.289E-02
RMM:   8    -0.233208485108E+04    0.96648E-05   -0.21216E-05  2917   0.481E-03
  54 F= -.23535803E+04 E0= -.23535802E+04  d E =-.784496E-02  mag=     3.9988
       N       E                     dE             d eps       ncg     rms          rms(c)
DAV:   1    -0.233204134499E+04    0.43516E-01   -0.33733E+00  4512   0.186E+00    0.538E-01
RMM:   2    -0.233208880016E+04   -0.47455E-01   -0.49993E-01  6327   0.423E-01    0.378E-01
RMM:   3    -0.233209215412E+04   -0.33540E-02   -0.52443E-02  6037   0.153E-01    0.346E-01
RMM:   4    -0.233209089607E+04    0.12580E-02   -0.51799E-03  6086   0.348E-02    0.178E-01
RMM:   5    -0.233209078880E+04    0.10726E-03   -0.12494E-03  5077   0.185E-02    0.189E-01
RMM:   6    -0.233209044937E+04    0.33944E-03   -0.86739E-04  5146   0.177E-02    0.885E-02
RMM:   7    -0.233209039534E+04    0.54024E-04   -0.22495E-04  4363   0.106E-02    0.418E-02
RMM:   8    -0.233209038189E+04    0.13458E-04   -0.63493E-05  2958   0.667E-03    0.304E-02
RMM:   9    -0.233209036649E+04    0.15391E-04   -0.16174E-05  2934   0.376E-03    0.118E-02
RMM:  10    -0.233209036291E+04    0.35813E-05   -0.87708E-06  2917   0.284E-03
  55 F= -.23535860E+04 E0= -.23535859E+04  d E =-.573752E-02  mag=     3.9987
       N       E                     dE             d eps       ncg     rms          rms(c)
DAV:   1    -0.233208863117E+04    0.17353E-02   -0.12781E-01  4768   0.361E-01    0.105E-01
RMM:   2    -0.233209041864E+04   -0.17875E-02   -0.18862E-02  6377   0.821E-02    0.723E-02
RMM:   3    -0.233209054506E+04   -0.12642E-03   -0.19454E-03  4088   0.291E-02    0.651E-02
RMM:   4    -0.233209049998E+04    0.45081E-04   -0.19681E-04  3043   0.805E-03    0.339E-02
RMM:   5    -0.233209049559E+04    0.43862E-05   -0.46842E-05  2977   0.495E-03
  56 F= -.23535862E+04 E0= -.23535861E+04  d E =-.591444E-02  mag=     3.9987
       N       E                     dE             d eps       ncg     rms          rms(c)
DAV:   1    -0.233206455464E+04    0.25945E-01   -0.20695E+00  4528   0.147E+00    0.413E-01
RMM:   2    -0.233209365716E+04   -0.29103E-01   -0.31089E-01  6355   0.324E-01    0.242E-01
RMM:   3    -0.233209602604E+04   -0.23689E-02   -0.31839E-02  5914   0.118E-01    0.218E-01
RMM:   4    -0.233209572762E+04    0.29843E-03   -0.33460E-03  5703   0.266E-02    0.140E-01
RMM:   5    -0.233209546954E+04    0.25807E-03   -0.65341E-04  4935   0.165E-02    0.730E-02
RMM:   6    -0.233209550581E+04   -0.36268E-04   -0.33183E-04  4552   0.121E-02    0.877E-02
RMM:   7    -0.233209542926E+04    0.76549E-04   -0.10510E-04  3040   0.734E-03    0.277E-02
RMM:   8    -0.233209542398E+04    0.52840E-05   -0.23147E-05  2960   0.443E-03
  57 F= -.23535912E+04 E0= -.23535912E+04  d E =-.507512E-02  mag=     3.9986
       N       E                     dE             d eps       ncg     rms          rms(c)
DAV:   1    -0.233207494684E+04    0.20482E-01   -0.14173E+00  4512   0.122E+00    0.344E-01
RMM:   2    -0.233209483690E+04   -0.19890E-01   -0.21254E-01  6326   0.267E-01    0.198E-01
RMM:   3    -0.233209646078E+04   -0.16239E-02   -0.21609E-02  5830   0.966E-02    0.178E-01
RMM:   4    -0.233209626724E+04    0.19354E-03   -0.22540E-03  5409   0.220E-02    0.117E-01
RMM:   5    -0.233209611545E+04    0.15178E-03   -0.46927E-04  4661   0.139E-02    0.759E-02
RMM:   6    -0.233209613029E+04   -0.14839E-04   -0.25504E-04  3690   0.104E-02    0.905E-02
RMM:   7    -0.233209605898E+04    0.71308E-04   -0.89860E-05  3247   0.711E-03    0.134E-02
RMM:   8    -0.233209605677E+04    0.22136E-05   -0.17110E-05  2944   0.439E-03
  58 F= -.23535920E+04 E0= -.23535919E+04  d E =-.583228E-02  mag=     3.9985
       N       E                     dE             d eps       ncg     rms          rms(c)
DAV:   1    -0.233207757746E+04    0.18482E-01   -0.14558E+00  4512   0.122E+00    0.342E-01
RMM:   2    -0.233209763340E+04   -0.20056E-01   -0.21455E-01  6304   0.264E-01    0.184E-01
RMM:   3    -0.233209927118E+04   -0.16378E-02   -0.21603E-02  5723   0.966E-02    0.154E-01
RMM:   4    -0.233209927038E+04    0.79688E-06   -0.22964E-03  4971   0.211E-02    0.128E-01
RMM:   5    -0.233209909681E+04    0.17357E-03   -0.45800E-04  4620   0.136E-02    0.841E-02
RMM:   6    -0.233209909582E+04    0.99221E-06   -0.26734E-04  3780   0.102E-02    0.783E-02
RMM:   7    -0.233209903440E+04    0.61417E-04   -0.83977E-05  3231   0.710E-03    0.152E-02
RMM:   8    -0.233209903077E+04    0.36249E-05   -0.13074E-05  2939   0.430E-03
  59 F= -.23535951E+04 E0= -.23535950E+04  d E =-.306525E-02  mag=     3.9983
       N       E                     dE             d eps       ncg     rms          rms(c)
DAV:   1    -0.233208651178E+04    0.12523E-01   -0.87261E-01  4544   0.947E-01    0.265E-01
RMM:   2    -0.233209856960E+04   -0.12058E-01   -0.12874E-01  6298   0.204E-01    0.147E-01
RMM:   3    -0.233209956295E+04   -0.99335E-03   -0.12866E-02  5676   0.742E-02    0.131E-01
RMM:   4    -0.233209950611E+04    0.56836E-04   -0.13758E-03  4115   0.166E-02    0.963E-02
RMM:   5    -0.233209941827E+04    0.87844E-04   -0.27574E-04  4080   0.111E-02    0.748E-02
RMM:   6    -0.233209939583E+04    0.22433E-04   -0.16553E-04  3268   0.863E-03    0.548E-02
RMM:   7    -0.233209936763E+04    0.28200E-04   -0.49153E-05  3070   0.633E-03    0.107E-02
RMM:   8    -0.233209936622E+04    0.14168E-05   -0.98053E-06  2924   0.412E-03
  60 F= -.23535955E+04 E0= -.23535954E+04  d E =-.347096E-02  mag=     3.9980
       N       E                     dE             d eps       ncg     rms          rms(c)
DAV:   1    -0.233209337607E+04    0.59916E-02   -0.69475E-01  4544   0.834E-01    0.239E-01
RMM:   2    -0.233210172579E+04   -0.83497E-02   -0.89114E-02  6240   0.176E-01    0.154E-01
RMM:   3    -0.233210244172E+04   -0.71593E-03   -0.88231E-03  5651   0.640E-02    0.167E-01
RMM:   4    -0.233210220740E+04    0.23432E-03   -0.98933E-04  4277   0.155E-02    0.846E-02
RMM:   5    -0.233210218695E+04    0.20455E-04   -0.28674E-04  4202   0.109E-02    0.878E-02
RMM:   6    -0.233210211404E+04    0.72906E-04   -0.15526E-04  3312   0.911E-03    0.346E-02
RMM:   7    -0.233210210234E+04    0.11704E-04   -0.34132E-05  3022   0.602E-03    0.898E-03
RMM:   8    -0.233210210095E+04    0.13892E-05   -0.76099E-06  2913   0.390E-03
  61 F= -.23535984E+04 E0= -.23535982E+04  d E =-.288714E-02  mag=     3.9977
       N       E                     dE             d eps       ncg     rms          rms(c)
DAV:   1    -0.233209478060E+04    0.73217E-02   -0.61137E-01  4576   0.782E-01    0.224E-01
RMM:   2    -0.233210213842E+04   -0.73578E-02   -0.78437E-02  6228   0.166E-01    0.145E-01
RMM:   3    -0.233210275443E+04   -0.61601E-03   -0.77303E-03  5610   0.589E-02    0.158E-01
RMM:   4    -0.233210255211E+04    0.20232E-03   -0.86846E-04  4020   0.144E-02    0.795E-02
RMM:   5    -0.233210252927E+04    0.22840E-04   -0.24971E-04  4090   0.104E-02    0.798E-02
RMM:   6    -0.233210246938E+04    0.59893E-04   -0.13629E-04  3198   0.870E-03    0.335E-02
RMM:   7    -0.233210245781E+04    0.11573E-04   -0.30939E-05  3007   0.588E-03    0.859E-03
RMM:   8    -0.233210245640E+04    0.14014E-05   -0.73558E-06  2908   0.379E-03
  62 F= -.23535989E+04 E0= -.23535987E+04  d E =-.338344E-02  mag=     3.9972
       N       E                     dE             d eps       ncg     rms          rms(c)
DAV:   1    -0.233209511497E+04    0.73428E-02   -0.86887E-01  4528   0.943E-01    0.270E-01
RMM:   2    -0.233210489475E+04   -0.97798E-02   -0.10351E-01  6211   0.194E-01    0.192E-01
RMM:   3    -0.233210564133E+04   -0.74659E-03   -0.10285E-02  5600   0.694E-02    0.190E-01
RMM:   4    -0.233210530441E+04    0.33692E-03   -0.11292E-03  4797   0.167E-02    0.894E-02
RMM:   5    -0.233210531468E+04   -0.10263E-04   -0.34693E-04  4398   0.116E-02    0.999E-02
RMM:   6    -0.233210519744E+04    0.11723E-03   -0.21056E-04  4130   0.949E-03    0.335E-02
RMM:   7    -0.233210518960E+04    0.78466E-05   -0.39228E-05  3024   0.612E-03
  63 F= -.23536016E+04 E0= -.23536014E+04  d E =-.274932E-02  mag=     3.9967
       N       E                     dE             d eps       ncg     rms          rms(c)
DAV:   1    -0.233208447229E+04    0.20725E-01   -0.17831E+00  4512   0.135E+00    0.389E-01
RMM:   2    -0.233210457793E+04   -0.20106E-01   -0.21340E-01  6234   0.279E-01    0.270E-01
RMM:   3    -0.233210616513E+04   -0.15872E-02   -0.21463E-02  5773   0.102E-01    0.269E-01
RMM:   4    -0.233210544755E+04    0.71758E-03   -0.23093E-03  5549   0.243E-02    0.126E-01
RMM:   5    -0.233210546071E+04   -0.13157E-04   -0.72845E-04  5209   0.161E-02    0.142E-01
RMM:   6    -0.233210523620E+04    0.22450E-03   -0.41016E-04  4755   0.125E-02    0.532E-02
RMM:   7    -0.233210521644E+04    0.19769E-04   -0.89383E-05  3225   0.758E-03    0.286E-02
RMM:   8    -0.233210521022E+04    0.62180E-05   -0.35796E-05  2923   0.564E-03
  64 F= -.23536016E+04 E0= -.23536014E+04  d E =-.278872E-02  mag=     3.9959
       N       E                     dE             d eps       ncg     rms          rms(c)
DAV:   1    -0.233210135035E+04    0.38661E-02   -0.38291E-01  4544   0.626E-01    0.179E-01
RMM:   2    -0.233210568296E+04   -0.43326E-02   -0.45529E-02  6250   0.129E-01    0.137E-01
RMM:   3    -0.233210596392E+04   -0.28096E-03   -0.45181E-03  5141   0.448E-02    0.123E-01
RMM:   4    -0.233210582459E+04    0.13933E-03   -0.48096E-04  3553   0.114E-02    0.601E-02
RMM:   5    -0.233210582508E+04   -0.48426E-06   -0.14463E-04  3316   0.821E-03    0.640E-02
RMM:   6    -0.233210577690E+04    0.48173E-04   -0.94987E-05  3177   0.759E-03    0.235E-02
RMM:   7    -0.233210577403E+04    0.28785E-05   -0.24221E-05  2977   0.539E-03
  65 F= -.23536022E+04 E0= -.23536020E+04  d E =-.334452E-02  mag=     3.9959
       N       E                     dE             d eps       ncg     rms          rms(c)
DAV:   1    -0.233209796644E+04    0.78105E-02   -0.10678E+00  4512   0.107E+00    0.307E-01
RMM:   2    -0.233210907323E+04   -0.11107E-01   -0.11614E-01  6062   0.212E-01    0.247E-01
RMM:   3    -0.233210968512E+04   -0.61190E-03   -0.11754E-02  5721   0.810E-02    0.213E-01
RMM:   4    -0.233210923940E+04    0.44572E-03   -0.12790E-03  5309   0.196E-02    0.999E-02
RMM:   5    -0.233210928523E+04   -0.45836E-04   -0.45869E-04  4679   0.139E-02    0.120E-01
RMM:   6    -0.233210909735E+04    0.18788E-03   -0.29551E-04  4768   0.113E-02    0.314E-02
RMM:   7    -0.233210909069E+04    0.66564E-05   -0.42347E-05  3022   0.663E-03
  66 F= -.23536054E+04 E0= -.23536052E+04  d E =-.317537E-02  mag=     3.9960
       N       E                     dE             d eps       ncg     rms          rms(c)
DAV:   1    -0.233210731241E+04    0.17849E-02   -0.18893E-01  4576   0.448E-01    0.132E-01
RMM:   2    -0.233210929290E+04   -0.19805E-02   -0.20836E-02  6093   0.900E-02    0.102E-01
RMM:   3    -0.233210941645E+04   -0.12355E-03   -0.21673E-03  4601   0.341E-02    0.889E-02
RMM:   4    -0.233210932633E+04    0.90121E-04   -0.22876E-04  3145   0.927E-03    0.399E-02
RMM:   5    -0.233210932660E+04   -0.27547E-06   -0.85167E-05  3194   0.712E-03
  67 F= -.23536056E+04 E0= -.23536053E+04  d E =-.335133E-02  mag=     3.9960
       N       E                     dE             d eps       ncg     rms          rms(c)
DAV:   1    -0.233210242026E+04    0.69061E-02   -0.94382E-01  4512   0.101E+00    0.276E-01
RMM:   2    -0.233211118001E+04   -0.87598E-02   -0.93023E-02  6127   0.194E-01    0.206E-01
RMM:   3    -0.233211171092E+04   -0.53090E-03   -0.91656E-03  5650   0.772E-02    0.194E-01
RMM:   4    -0.233211134961E+04    0.36131E-03   -0.10252E-03  5307   0.184E-02    0.874E-02
RMM:   5    -0.233211136229E+04   -0.12680E-04   -0.41050E-04  4538   0.134E-02    0.100E-01
RMM:   6    -0.233211124480E+04    0.11749E-03   -0.20251E-04  4240   0.961E-03    0.341E-02
RMM:   7    -0.233211123287E+04    0.11929E-04   -0.32818E-05  3029   0.586E-03    0.126E-02
RMM:   8    -0.233211123235E+04    0.52343E-06   -0.96171E-06  2919   0.364E-03
  68 F= -.23536076E+04 E0= -.23536074E+04  d E =-.207824E-02  mag=     3.9965
       N       E                     dE             d eps       ncg     rms          rms(c)
DAV:   1    -0.233210876006E+04    0.24728E-02   -0.25907E-01  4560   0.529E-01    0.146E-01
RMM:   2    -0.233211119849E+04   -0.24384E-02   -0.25571E-02  6101   0.102E-01    0.123E-01
RMM:   3    -0.233211132139E+04   -0.12290E-03   -0.24512E-03  4793   0.382E-02    0.111E-01
RMM:   4    -0.233211121415E+04    0.10724E-03   -0.28074E-04  3224   0.994E-03    0.477E-02
RMM:   5    -0.233211121818E+04   -0.40289E-05   -0.10403E-04  3125   0.744E-03    0.528E-02
RMM:   6    -0.233211117817E+04    0.40007E-04   -0.77454E-05  3311   0.715E-03    0.139E-02
RMM:   7    -0.233211117641E+04    0.17625E-05   -0.13937E-05  2945   0.463E-03
  69 F= -.23536077E+04 E0= -.23536075E+04  d E =-.211263E-02  mag=     3.9968
       N       E                     dE             d eps       ncg     rms          rms(c)
DAV:   1    -0.233210535036E+04    0.58278E-02   -0.82940E-01  4512   0.952E-01    0.249E-01
RMM:   2    -0.233211293784E+04   -0.75875E-02   -0.79497E-02  6124   0.182E-01    0.208E-01
RMM:   3    -0.233211340349E+04   -0.46564E-03   -0.76447E-03  5615   0.699E-02    0.204E-01
RMM:   4    -0.233211304737E+04    0.35612E-03   -0.84641E-04  4812   0.168E-02    0.784E-02
RMM:   5    -0.233211305613E+04   -0.87671E-05   -0.34279E-04  4530   0.123E-02    0.853E-02
RMM:   6    -0.233211295736E+04    0.98775E-04   -0.20636E-04  4431   0.989E-03    0.278E-02
RMM:   7    -0.233211294961E+04    0.77437E-05   -0.26241E-05  3007   0.555E-03
  70 F= -.23536096E+04 E0= -.23536094E+04  d E =-.189512E-02  mag=     3.9972
       N       E                     dE             d eps       ncg     rms          rms(c)
DAV:   1    -0.233211118337E+04    0.17740E-02   -0.20588E-01  4608   0.475E-01    0.125E-01
RMM:   2    -0.233211309062E+04   -0.19073E-02   -0.19943E-02  6124   0.913E-02    0.107E-01
RMM:   3    -0.233211319758E+04   -0.10696E-03   -0.19064E-03  4641   0.334E-02    0.102E-01
RMM:   4    -0.233211310776E+04    0.89820E-04   -0.21081E-04  3068   0.897E-03    0.395E-02
RMM:   5    -0.233211311078E+04   -0.30235E-05   -0.86556E-05  3097   0.687E-03
  71 F= -.23536098E+04 E0= -.23536096E+04  d E =-.211705E-02  mag=     3.9974
       N       E                     dE             d eps       ncg     rms          rms(c)
DAV:   1    -0.233211194339E+04    0.11644E-02   -0.35524E-01  4544   0.646E-01    0.194E-01
RMM:   2    -0.233211491403E+04   -0.29706E-02   -0.31919E-02  6190   0.128E-01    0.130E-01
RMM:   3    -0.233211519658E+04   -0.28255E-03   -0.33208E-03  5502   0.506E-02    0.170E-01
RMM:   4    -0.233211491911E+04    0.27748E-03   -0.38983E-04  4137   0.130E-02    0.535E-02
RMM:   5    -0.233211490271E+04    0.16400E-04   -0.17170E-04  4167   0.103E-02    0.488E-02
RMM:   6    -0.233211488230E+04    0.20406E-04   -0.79396E-05  2994   0.757E-03    0.268E-02
RMM:   7    -0.233211487340E+04    0.88977E-05   -0.14670E-05  2912   0.469E-03
  72 F= -.23536114E+04 E0= -.23536112E+04  d E =-.161304E-02  mag=     3.9973
       N       E                     dE             d eps       ncg     rms          rms(c)
DAV:   1    -0.233211463413E+04    0.24818E-03   -0.36487E-02  4864   0.207E-01    0.620E-02
RMM:   2    -0.233211494291E+04   -0.30879E-03   -0.33253E-03  6260   0.422E-02    0.399E-02
RMM:   3    -0.233211497130E+04   -0.28390E-04   -0.33476E-04  3372   0.161E-02    0.534E-02
RMM:   4    -0.233211494465E+04    0.26648E-04   -0.40357E-05  2938   0.538E-03    0.174E-02
RMM:   5    -0.233211494283E+04    0.18237E-05   -0.20172E-05  2947   0.387E-03
  73 F= -.23536114E+04 E0= -.23536113E+04  d E =-.163455E-02  mag=     3.9973
       N       E                     dE             d eps       ncg     rms          rms(c)
DAV:   1    -0.233211310259E+04    0.18421E-02   -0.34900E-01  4544   0.631E-01    0.163E-01
RMM:   2    -0.233211622707E+04   -0.31245E-02   -0.33102E-02  6269   0.126E-01    0.109E-01
RMM:   3    -0.233211643021E+04   -0.20315E-03   -0.31261E-03  5253   0.458E-02    0.114E-01
RMM:   4    -0.233211628004E+04    0.15017E-03   -0.34687E-04  3645   0.116E-02    0.537E-02
RMM:   5    -0.233211628297E+04   -0.29248E-05   -0.15032E-04  3585   0.876E-03    0.686E-02
RMM:   6    -0.233211623831E+04    0.44652E-04   -0.81084E-05  3073   0.745E-03    0.178E-02
RMM:   7    -0.233211623721E+04    0.11042E-05   -0.17501E-05  2957   0.503E-03
  74 F= -.23536125E+04 E0= -.23536123E+04  d E =-.111794E-02  mag=     3.9969
       N       E                     dE             d eps       ncg     rms          rms(c)
DAV:   1    -0.233211522377E+04    0.10145E-02   -0.12378E-01  4576   0.376E-01    0.980E-02
RMM:   2    -0.233211632969E+04   -0.11059E-02   -0.11812E-02  6316   0.757E-02    0.593E-02
RMM:   3    -0.233211640359E+04   -0.73898E-04   -0.11072E-03  4192   0.282E-02    0.616E-02
RMM:   4    -0.233211636345E+04    0.40133E-04   -0.12071E-04  2993   0.774E-03    0.322E-02
RMM:   5    -0.233211635780E+04    0.56505E-05   -0.50783E-05  3030   0.583E-03
  75 F= -.23536126E+04 E0= -.23536123E+04  d E =-.113367E-02  mag=     3.9966
       N       E                     dE             d eps       ncg     rms          rms(c)
DAV:   1    -0.233211548510E+04    0.87836E-03   -0.31544E-01  4512   0.589E-01    0.149E-01
RMM:   2    -0.233211759045E+04   -0.21054E-02   -0.22381E-02  6206   0.108E-01    0.100E-01
RMM:   3    -0.233211772590E+04   -0.13546E-03   -0.21222E-03  5228   0.403E-02    0.105E-01
RMM:   4    -0.233211759708E+04    0.12882E-03   -0.26114E-04  3490   0.108E-02    0.450E-02
RMM:   5    -0.233211760716E+04   -0.10079E-04   -0.12480E-04  3662   0.838E-03    0.615E-02
RMM:   6    -0.233211757347E+04    0.33695E-04   -0.69485E-05  2978   0.711E-03    0.184E-02
RMM:   7    -0.233211757098E+04    0.24857E-05   -0.97276E-06  2926   0.406E-03
  76 F= -.23536136E+04 E0= -.23536134E+04  d E =-.109405E-02  mag=     3.9961
       N       E                     dE             d eps       ncg     rms          rms(c)
DAV:   1    -0.233211697927E+04    0.59420E-03   -0.12618E-01  4576   0.372E-01    0.938E-02
RMM:   2    -0.233211782002E+04   -0.84075E-03   -0.89881E-03  6118   0.684E-02    0.562E-02
RMM:   3    -0.233211787364E+04   -0.53615E-04   -0.82444E-04  4106   0.264E-02    0.585E-02
RMM:   4    -0.233211783491E+04    0.38723E-04   -0.10031E-04  2993   0.770E-03    0.285E-02
RMM:   5    -0.233211782403E+04    0.10881E-04   -0.48930E-05  3189   0.614E-03    0.114E-02
RMM:   6    -0.233211782659E+04   -0.25533E-05   -0.12993E-05  2930   0.482E-03
  77 F= -.23536138E+04 E0= -.23536136E+04  d E =-.127465E-02  mag=     3.9958
       N       E                     dE             d eps       ncg     rms          rms(c)
DAV:   1    -0.233211672360E+04    0.11004E-02   -0.29050E-01  4544   0.582E-01    0.177E-01
RMM:   2    -0.233211900241E+04   -0.22788E-02   -0.25293E-02  6050   0.113E-01    0.829E-02
RMM:   3    -0.233211913359E+04   -0.13118E-03   -0.24504E-03  5387   0.430E-02    0.836E-02
RMM:   4    -0.233211907102E+04    0.62570E-04   -0.30283E-04  3547   0.110E-02    0.502E-02
RMM:   5    -0.233211903213E+04    0.38894E-04   -0.11282E-04  3956   0.921E-03    0.188E-02
RMM:   6    -0.233211903578E+04   -0.36550E-05   -0.30717E-05  2953   0.625E-03
  78 F= -.23536151E+04 E0= -.23536148E+04  d E =-.122685E-02  mag=     3.9958
       N       E                     dE             d eps       ncg     rms          rms(c)
DAV:   1    -0.233211615321E+04    0.28789E-02   -0.31308E-01  4544   0.604E-01    0.184E-01
RMM:   2    -0.233211862685E+04   -0.24736E-02   -0.27421E-02  6018   0.117E-01    0.865E-02
RMM:   3    -0.233211876808E+04   -0.14123E-03   -0.26652E-03  5411   0.432E-02    0.910E-02
RMM:   4    -0.233211869953E+04    0.68546E-04   -0.33433E-04  3614   0.111E-02    0.566E-02
RMM:   5    -0.233211867769E+04    0.21842E-04   -0.12276E-04  3711   0.872E-03    0.538E-02
RMM:   6    -0.233211865552E+04    0.22175E-04   -0.70497E-05  2986   0.706E-03    0.263E-02
RMM:   7    -0.233211864791E+04    0.76022E-05   -0.13613E-05  2910   0.481E-03
  79 F= -.23536147E+04 E0= -.23536145E+04  d E =-.857698E-03  mag=     3.9959
       N       E                     dE             d eps       ncg     rms          rms(c)
DAV:   1    -0.233211800588E+04    0.64963E-03   -0.13690E-01  4544   0.399E-01    0.121E-01
RMM:   2    -0.233211907128E+04   -0.10654E-02   -0.11826E-02  6071   0.777E-02    0.592E-02
RMM:   3    -0.233211914602E+04   -0.74737E-04   -0.11846E-03  4807   0.307E-02    0.655E-02
RMM:   4    -0.233211909931E+04    0.46709E-04   -0.14636E-04  3118   0.823E-03    0.332E-02
RMM:   5    -0.233211909613E+04    0.31768E-05   -0.57454E-05  3058   0.636E-03
  80 F= -.23536151E+04 E0= -.23536149E+04  d E =-.129356E-02  mag=     3.9959
       N       E                     dE             d eps       ncg     rms          rms(c)
DAV:   1    -0.233211704532E+04    0.20540E-02   -0.26751E-01  4576   0.551E-01    0.164E-01
RMM:   2    -0.233211965091E+04   -0.26056E-02   -0.28543E-02  6198   0.113E-01    0.770E-02
RMM:   3    -0.233211980400E+04   -0.15309E-03   -0.28227E-03  5401   0.427E-02    0.674E-02
RMM:   4    -0.233211979344E+04    0.10557E-04   -0.31941E-04  3242   0.102E-02    0.592E-02
RMM:   5    -0.233211976281E+04    0.30630E-04   -0.83477E-05  3041   0.719E-03    0.434E-02
RMM:   6    -0.233211975354E+04    0.92767E-05   -0.62795E-05  2977   0.650E-03
  81 F= -.23536160E+04 E0= -.23536158E+04  d E =-.860656E-03  mag=     3.9961
       N       E                     dE             d eps       ncg     rms          rms(c)
DAV:   1    -0.233211917170E+04    0.59111E-03   -0.49051E-02  4672   0.237E-01    0.718E-02
RMM:   2    -0.233211966236E+04   -0.49066E-03   -0.53672E-03  6349   0.502E-02    0.359E-02
RMM:   3    -0.233211969173E+04   -0.29368E-04   -0.53259E-04  3380   0.175E-02    0.300E-02
RMM:   4    -0.233211968819E+04    0.35426E-05   -0.62723E-05  2988   0.584E-03
[...]
       N       E                     dE             d eps       ncg     rms          rms(c)
DAV:   1    -0.233213104595E+04    0.43277E-03   -0.36477E-02  4576   0.198E-01    0.596E-02
RMM:   2    -0.233213143294E+04   -0.38699E-03   -0.42450E-03  6166   0.429E-02    0.288E-02
RMM:   3    -0.233213145466E+04   -0.21716E-04   -0.40417E-04  3212   0.151E-02    0.276E-02
RMM:   4    -0.233213145360E+04    0.10589E-05   -0.48536E-05  2977   0.446E-03
 115 F= -.23536285E+04 E0= -.23536283E+04  d E =-.394920E-03  mag=     3.9965
       N       E                     dE             d eps       ncg     rms          rms(c)
DAV:   1    -0.233213016603E+04    0.12886E-02   -0.13968E-01  4544   0.389E-01    0.120E-01
RMM:   2    -0.233213166614E+04   -0.15001E-02   -0.16248E-02  6249   0.843E-02    0.746E-02
RMM:   3    -0.233213180277E+04   -0.13663E-03   -0.15471E-03  4474   0.303E-02    0.103E-01
RMM:   4    -0.233213169625E+04    0.10652E-03   -0.18626E-04  3076   0.853E-03    0.368E-02
RMM:   5    -0.233213169813E+04   -0.18857E-05   -0.73463E-05  3105   0.622E-03
 116 F= -.23536288E+04 E0= -.23536286E+04  d E =-.348895E-03  mag=     3.9965
       N       E                     dE             d eps       ncg     rms          rms(c)
DAV:   1    -0.233213160557E+04    0.90675E-04   -0.40762E-03  5432   0.680E-02    0.241E-02
RMM:   2    -0.233213165761E+04   -0.52040E-04   -0.52848E-04  5421   0.164E-02    0.241E-02
RMM:   3    -0.233213165642E+04    0.11948E-05   -0.59327E-05  2913   0.658E-03
 117 F= -.23536288E+04 E0= -.23536286E+04  d E =-.325606E-03  mag=     3.9965
       N       E                     dE             d eps       ncg     rms          rms(c)
DAV:   1    -0.233213043581E+04    0.12218E-02   -0.12054E-01  4544   0.362E-01    0.112E-01
RMM:   2    -0.233213195590E+04   -0.15201E-02   -0.15935E-02  6268   0.818E-02    0.851E-02
RMM:   3    -0.233213205702E+04   -0.10112E-03   -0.15875E-03  4395   0.291E-02    0.919E-02
RMM:   4    -0.233213197379E+04    0.83229E-04   -0.18596E-04  3038   0.832E-03    0.400E-02
RMM:   5    -0.233213197266E+04    0.11326E-05   -0.56521E-05  2984   0.548E-03
 118 F= -.23536292E+04 E0= -.23536290E+04  d E =-.356345E-03  mag=     3.9964
       N       E                     dE             d eps       ncg     rms          rms(c)
DAV:   1    -0.233213170665E+04    0.26714E-03   -0.17556E-02  4656   0.139E-01    0.453E-02
RMM:   2    -0.233213193771E+04   -0.23106E-03   -0.24300E-03  6287   0.331E-02    0.365E-02
RMM:   3    -0.233213194911E+04   -0.11399E-04   -0.25231E-04  3011   0.117E-02    0.337E-02
RMM:   4    -0.233213193542E+04    0.13687E-04   -0.27196E-05  2950   0.457E-03    0.136E-02
RMM:   5    -0.233213193807E+04   -0.26459E-05   -0.14676E-05  2920   0.283E-03
 119 F= -.23536292E+04 E0= -.23536289E+04  d E =-.337540E-03  mag=     3.9963
       N       E                     dE             d eps       ncg     rms          rms(c)
DAV:   1    -0.233213066954E+04    0.12659E-02   -0.12041E-01  4544   0.361E-01    0.113E-01
RMM:   2    -0.233213217301E+04   -0.15035E-02   -0.15783E-02  6200   0.809E-02    0.864E-02
RMM:   3    -0.233213226869E+04   -0.95677E-04   -0.15211E-03  4497   0.291E-02    0.928E-02
RMM:   4    -0.233213218598E+04    0.82709E-04   -0.17914E-04  2993   0.820E-03    0.356E-02
RMM:   5    -0.233213218768E+04   -0.16978E-05   -0.53615E-05  2978   0.544E-03
 120 F= -.23536294E+04 E0= -.23536292E+04  d E =-.290399E-03  mag=     3.9961
       N       E                     dE             d eps       ncg     rms          rms(c)
DAV:   1    -0.233213209263E+04    0.93350E-04   -0.47349E-03  5280   0.728E-02    0.258E-02
RMM:   2    -0.233213215687E+04   -0.64245E-04   -0.65565E-04  5525   0.174E-02    0.245E-02
RMM:   3    -0.233213215797E+04   -0.10938E-05   -0.78283E-05  2915   0.711E-03
 121 F= -.23536294E+04 E0= -.23536292E+04  d E =-.269133E-03  mag=     3.9961
       N       E                     dE             d eps       ncg     rms          rms(c)
DAV:   1    -0.233213146348E+04    0.69339E-03   -0.97939E-02  4544   0.325E-01    0.105E-01
RMM:   2    -0.233213240423E+04   -0.94075E-03   -0.10006E-02  6184   0.692E-02    0.742E-02
RMM:   3    -0.233213247099E+04   -0.66757E-04   -0.93313E-04  4414   0.247E-02    0.922E-02
RMM:   4    -0.233213239245E+04    0.78540E-04   -0.12795E-04  2993   0.763E-03    0.316E-02
RMM:   5    -0.233213239770E+04   -0.52451E-05   -0.53572E-05  2999   0.581E-03
 122 F= -.23536297E+04 E0= -.23536295E+04  d E =-.282683E-03  mag=     3.9960
       N       E                     dE             d eps       ncg     rms          rms(c)
DAV:   1    -0.233213233074E+04    0.61709E-04   -0.30821E-03  5432   0.592E-02    0.209E-02
RMM:   2    -0.233213236317E+04   -0.32432E-04   -0.33950E-04  5129   0.138E-02    0.171E-02
RMM:   3    -0.233213236517E+04   -0.19911E-05   -0.42374E-05  2910   0.614E-03
 123 F= -.23536297E+04 E0= -.23536295E+04  d E =-.258073E-03  mag=     3.9960
       N       E                     dE             d eps       ncg     rms          rms(c)
DAV:   1    -0.233213167254E+04    0.69063E-03   -0.10830E-01  4544   0.337E-01    0.107E-01
RMM:   2    -0.233213261679E+04   -0.94425E-03   -0.10034E-02  6230   0.714E-02    0.733E-02
RMM:   3    -0.233213268709E+04   -0.70301E-04   -0.92283E-04  4513   0.246E-02    0.948E-02
RMM:   4    -0.233213260753E+04    0.79562E-04   -0.12677E-04  2988   0.741E-03    0.302E-02
RMM:   5    -0.233213261406E+04   -0.65316E-05   -0.52953E-05  2992   0.564E-03
 124 F= -.23536299E+04 E0= -.23536297E+04  d E =-.267148E-03  mag=     3.9960
       N       E                     dE             d eps       ncg     rms          rms(c)
DAV:   1    -0.233213248121E+04    0.12632E-03   -0.10701E-02  4800   0.107E-01    0.342E-02
RMM:   2    -0.233213257524E+04   -0.94031E-04   -0.10090E-03  6017   0.237E-02    0.209E-02
RMM:   3    -0.233213258544E+04   -0.10201E-04   -0.12211E-04  2937   0.906E-03    0.269E-02
RMM:   4    -0.233213257714E+04    0.83014E-05   -0.13424E-05  2922   0.358E-03
 125 F= -.23536299E+04 E0= -.23536297E+04  d E =-.236135E-03  mag=     3.9961
       N       E                     dE             d eps       ncg     rms          rms(c)
DAV:   1    -0.233213197275E+04    0.61268E-03   -0.76513E-02  4544   0.282E-01    0.866E-02
RMM:   2    -0.233213274171E+04   -0.76896E-03   -0.82077E-03  6359   0.624E-02    0.585E-02
RMM:   3    -0.233213280725E+04   -0.65538E-04   -0.74773E-04  3885   0.202E-02    0.799E-02
RMM:   4    -0.233213274825E+04    0.59000E-04   -0.95380E-05  2968   0.673E-03    0.237E-02
RMM:   5    -0.233213274611E+04    0.21414E-05   -0.36030E-05  3010   0.497E-03
 126 F= -.23536302E+04 E0= -.23536299E+04  d E =-.238555E-03  mag=     3.9961
       N       E                     dE             d eps       ncg     rms          rms(c)
DAV:   1    -0.233213246405E+04    0.28420E-03   -0.23838E-02  4576   0.158E-01    0.495E-02
RMM:   2    -0.233213270595E+04   -0.24190E-03   -0.25622E-03  6338   0.362E-02    0.343E-02
RMM:   3    -0.233213272460E+04   -0.18657E-04   -0.28409E-04  3095   0.125E-02    0.383E-02
RMM:   4    -0.233213270838E+04    0.16226E-04   -0.30088E-05  2933   0.472E-03    0.137E-02
RMM:   5    -0.233213271024E+04   -0.18603E-05   -0.15079E-05  2920   0.294E-03
 127 F= -.23536302E+04 E0= -.23536299E+04  d E =-.241841E-03  mag=     3.9962
       N       E                     dE             d eps       ncg     rms          rms(c)
DAV:   1    -0.233213179011E+04    0.91827E-03   -0.90372E-02  4544   0.314E-01    0.101E-01
RMM:   2    -0.233213284423E+04   -0.10541E-02   -0.11216E-02  6273   0.727E-02    0.593E-02
RMM:   3    -0.233213293016E+04   -0.85927E-04   -0.10414E-03  4184   0.252E-02    0.760E-02
RMM:   4    -0.233213286630E+04    0.63856E-04   -0.12728E-04  3008   0.762E-03    0.318E-02
RMM:   5    -0.233213286661E+04   -0.30907E-06   -0.43740E-05  2964   0.495E-03
 128 F= -.23536305E+04 E0= -.23536302E+04  d E =-.301112E-03  mag=     3.9962
       N       E                     dE             d eps       ncg     rms          rms(c)
DAV:   1    -0.233213250577E+04    0.36053E-03   -0.23363E-02  4592   0.160E-01    0.531E-02
RMM:   2    -0.233213279017E+04   -0.28441E-03   -0.29870E-03  6370   0.386E-02    0.374E-02
RMM:   3    -0.233213280996E+04   -0.19784E-04   -0.30716E-04  3136   0.133E-02    0.403E-02
RMM:   4    -0.233213278832E+04    0.21639E-04   -0.33519E-05  2942   0.524E-03    0.161E-02
RMM:   5    -0.233213279048E+04   -0.21600E-05   -0.16665E-05  2919   0.298E-03
 129 F= -.23536305E+04 E0= -.23536302E+04  d E =-.299527E-03  mag=     3.9963
       N       E                     dE             d eps       ncg     rms          rms(c)
DAV:   1    -0.233213164485E+04    0.11435E-02   -0.92259E-02  4536   0.314E-01    0.100E-01
RMM:   2    -0.233213292192E+04   -0.12771E-02   -0.13234E-02  6322   0.761E-02    0.770E-02
RMM:   3    -0.233213299464E+04   -0.72712E-04   -0.12682E-03  4161   0.260E-02    0.773E-02
RMM:   4    -0.233213292575E+04    0.68881E-04   -0.14307E-04  3061   0.779E-03    0.347E-02
RMM:   5    -0.233213292473E+04    0.10212E-05   -0.43561E-05  2963   0.472E-03
 130 F= -.23536307E+04 E0= -.23536305E+04  d E =-.281375E-03  mag=     3.9962
       N       E                     dE             d eps       ncg     rms          rms(c)
DAV:   1    -0.233213263048E+04    0.29528E-03   -0.15415E-02  4824   0.129E-01    0.423E-02
RMM:   2    -0.233213284949E+04   -0.21901E-03   -0.22792E-03  6249   0.323E-02    0.337E-02
RMM:   3    -0.233213286221E+04   -0.12721E-04   -0.23872E-04  3005   0.113E-02    0.321E-02
RMM:   4    -0.233213284926E+04    0.12952E-04   -0.25081E-05  2943   0.438E-03    0.138E-02
RMM:   5    -0.233213285078E+04   -0.15168E-05   -0.10998E-05  2889   0.240E-03
 131 F= -.23536307E+04 E0= -.23536305E+04  d E =-.268644E-03  mag=     3.9962
       N       E                     dE             d eps       ncg     rms          rms(c)
DAV:   1    -0.233213185986E+04    0.98940E-03   -0.90754E-02  4520   0.310E-01    0.101E-01
RMM:   2    -0.233213301088E+04   -0.11510E-02   -0.12007E-02  6257   0.734E-02    0.726E-02
RMM:   3    -0.233213309259E+04   -0.81709E-04   -0.11614E-03  4170   0.256E-02    0.822E-02
RMM:   4    -0.233213301724E+04    0.75351E-04   -0.13643E-04  3052   0.773E-03    0.322E-02
RMM:   5    -0.233213301695E+04    0.29555E-06   -0.41870E-05  2967   0.474E-03
 132 F= -.23536310E+04 E0= -.23536307E+04  d E =-.239444E-03  mag=     3.9962
       N       E                     dE             d eps       ncg     rms          rms(c)
DAV:   1    -0.233213285996E+04    0.15728E-03   -0.87191E-03  4824   0.971E-02    0.330E-02
RMM:   2    -0.233213297608E+04   -0.11612E-03   -0.12055E-03  6010   0.241E-02    0.264E-02
RMM:   3    -0.233213298323E+04   -0.71490E-05   -0.13766E-04  2946   0.899E-03    0.248E-02
RMM:   4    -0.233213297520E+04    0.80298E-05   -0.13776E-05  2941   0.354E-03
 133 F= -.23536309E+04 E0= -.23536307E+04  d E =-.220945E-03  mag=     3.9962
       N       E                     dE             d eps       ncg     rms          rms(c)
DAV:   1    -0.233213240325E+04    0.57997E-03   -0.69412E-02  4544   0.271E-01    0.909E-02
RMM:   2    -0.233213316557E+04   -0.76231E-03   -0.78287E-03  6240   0.602E-02    0.846E-02
RMM:   3    -0.233213319878E+04   -0.33216E-04   -0.78812E-04  3867   0.210E-02    0.819E-02
RMM:   4    -0.233213313305E+04    0.65737E-04   -0.93322E-05  2973   0.697E-03    0.232E-02
RMM:   5    -0.233213313530E+04   -0.22588E-05   -0.38529E-05  2994   0.516E-03
 134 F= -.23536312E+04 E0= -.23536309E+04  d E =-.214724E-03  mag=     3.9961
       N       E                     dE             d eps       ncg     rms          rms(c)
DAV:   1    -0.233213302053E+04    0.11251E-03   -0.71834E-03  5016   0.879E-02    0.298E-02
RMM:   2    -0.233213309914E+04   -0.78609E-04   -0.83319E-04  5900   0.208E-02    0.214E-02
RMM:   3    -0.233213310668E+04   -0.75382E-05   -0.10427E-04  2922   0.834E-03    0.235E-02
RMM:   4    -0.233213309978E+04    0.69019E-05   -0.10197E-05  2924   0.316E-03
 135 F= -.23536311E+04 E0= -.23536309E+04  d E =-.197119E-03  mag=     3.9961
       N       E                     dE             d eps       ncg     rms          rms(c)
DAV:   1    -0.233213246620E+04    0.64048E-03   -0.68130E-02  4528   0.262E-01    0.832E-02
RMM:   2    -0.233213323448E+04   -0.76829E-03   -0.80506E-03  6318   0.584E-02    0.673E-02
RMM:   3    -0.233213328113E+04   -0.46649E-04   -0.77329E-04  3806   0.199E-02    0.730E-02
RMM:   4    -0.233213323488E+04    0.46256E-04   -0.93916E-05  2973   0.630E-03    0.247E-02
RMM:   5    -0.233213323747E+04   -0.25977E-05   -0.32340E-05  2954   0.430E-03
 136 F= -.23536313E+04 E0= -.23536311E+04  d E =-.196699E-03  mag=     3.9961
       N       E                     dE             d eps       ncg     rms          rms(c)
DAV:   1    -0.233213303900E+04    0.19588E-03   -0.14043E-02  4592   0.119E-01    0.377E-02
RMM:   2    -0.233213319330E+04   -0.15430E-03   -0.16574E-03  6175   0.273E-02    0.231E-02
RMM:   3    -0.233213320771E+04   -0.14412E-04   -0.18548E-04  2966   0.102E-02    0.283E-02
RMM:   4    -0.233213319945E+04    0.82578E-05   -0.19943E-05  2947   0.362E-03
 137 F= -.23536313E+04 E0= -.23536311E+04  d E =-.185908E-03  mag=     3.9961
       N       E                     dE             d eps       ncg     rms          rms(c)
DAV:   1    -0.233213245863E+04    0.74908E-03   -0.77340E-02  4544   0.286E-01    0.950E-02
RMM:   2    -0.233213333949E+04   -0.88086E-03   -0.92059E-03  6275   0.642E-02    0.782E-02
RMM:   3    -0.233213339885E+04   -0.59364E-04   -0.89923E-04  4021   0.221E-02    0.880E-02
RMM:   4    -0.233213332545E+04    0.73407E-04   -0.11081E-04  2977   0.713E-03    0.249E-02
RMM:   5    -0.233213332846E+04   -0.30177E-05   -0.40738E-05  2983   0.523E-03
 138 F= -.23536316E+04 E0= -.23536313E+04  d E =-.222717E-03  mag=     3.9961
       N       E                     dE             d eps       ncg     rms          rms(c)
DAV:   1    -0.233213323645E+04    0.88992E-04   -0.41714E-03  5208   0.673E-02    0.233E-02
RMM:   2    -0.233213328523E+04   -0.48771E-04   -0.51949E-04  5524   0.161E-02    0.170E-02
RMM:   3    -0.233213329013E+04   -0.49076E-05   -0.65934E-05  2921   0.690E-03
 139 F= -.23536315E+04 E0= -.23536313E+04  d E =-.206740E-03  mag=     3.9962
       N       E                     dE             d eps       ncg     rms          rms(c)
DAV:   1    -0.233213245828E+04    0.82694E-03   -0.64966E-02  4544   0.260E-01    0.866E-02
RMM:   2    -0.233213333193E+04   -0.87365E-03   -0.90782E-03  6259   0.620E-02    0.704E-02
RMM:   3    -0.233213338317E+04   -0.51246E-04   -0.85317E-04  3848   0.212E-02    0.751E-02
RMM:   4    -0.233213333013E+04    0.53042E-04   -0.10647E-04  2983   0.691E-03    0.277E-02
RMM:   5    -0.233213333102E+04   -0.89128E-06   -0.33352E-05  2966   0.453E-03
 140 F= -.23536317E+04 E0= -.23536315E+04  d E =-.160163E-03  mag=     3.9962
       N       E                     dE             d eps       ncg     rms          rms(c)
DAV:   1    -0.233213330036E+04    0.29773E-04   -0.39414E-04  5344   0.219E-02    0.101E-02
RMM:   2    -0.233213330762E+04   -0.72645E-05   -0.64584E-05  3268   0.563E-03
 141 F= -.23536317E+04 E0= -.23536315E+04  d E =-.146686E-03  mag=     3.9962
       N       E                     dE             d eps       ncg     rms          rms(c)
DAV:   1    -0.233213258494E+04    0.71542E-03   -0.54896E-02  4544   0.243E-01    0.838E-02
RMM:   2    -0.233213336521E+04   -0.78026E-03   -0.80864E-03  6307   0.596E-02    0.665E-02
RMM:   3    -0.233213340992E+04   -0.44714E-04   -0.80435E-04  3820   0.216E-02    0.695E-02
RMM:   4    -0.233213336065E+04    0.49267E-04   -0.98310E-05  2976   0.685E-03    0.280E-02
RMM:   5    -0.233213335956E+04    0.10889E-05   -0.29753E-05  2953   0.422E-03
 142 F= -.23536319E+04 E0= -.23536316E+04  d E =-.169346E-03  mag=     3.9962
       N       E                     dE             d eps       ncg     rms          rms(c)
DAV:   1    -0.233213331526E+04    0.45387E-04   -0.86136E-04  5288   0.316E-02    0.127E-02
RMM:   2    -0.233213332917E+04   -0.13907E-04   -0.14339E-04  3851   0.833E-03    0.120E-02
RMM:   3    -0.233213332928E+04   -0.11137E-06   -0.18994E-05  2665   0.472E-03
 143 F= -.23536318E+04 E0= -.23536316E+04  d E =-.154665E-03  mag=     3.9962
       N       E                     dE             d eps       ncg     rms          rms(c)
DAV:   1    -0.233213258943E+04    0.73974E-03   -0.49735E-02  4544   0.227E-01    0.780E-02
RMM:   2    -0.233213333303E+04   -0.74359E-03   -0.77046E-03  6266   0.566E-02    0.632E-02
RMM:   3    -0.233213337460E+04   -0.41570E-04   -0.74716E-04  3594   0.199E-02    0.651E-02
RMM:   4    -0.233213333282E+04    0.41781E-04   -0.92917E-05  2981   0.650E-03    0.267E-02
RMM:   5    -0.233213333193E+04    0.88623E-06   -0.27110E-05  2949   0.391E-03
 144 F= -.23536319E+04 E0= -.23536317E+04  d E =-.102015E-03  mag=     3.9962
       N       E                     dE             d eps       ncg     rms          rms(c)
DAV:   1    -0.233213332923E+04    0.35865E-05   -0.24019E-04  5448   0.169E-02    0.797E-03
RMM:   2    -0.233213333350E+04   -0.42694E-05   -0.35334E-05  2953   0.454E-03
 145 F= -.23536319E+04 E0= -.23536317E+04  d E =-.977111E-04  mag=     3.9962
       N       E                     dE             d eps       ncg     rms          rms(c)
DAV:   1    -0.233213292537E+04    0.40386E-03   -0.34341E-02  4544   0.192E-01    0.661E-02
RMM:   2    -0.233213334263E+04   -0.41726E-03   -0.44544E-03  6230   0.456E-02    0.400E-02
RMM:   3    -0.233213337389E+04   -0.31262E-04   -0.42448E-04  3464   0.171E-02    0.491E-02
RMM:   4    -0.233213334852E+04    0.25366E-04   -0.52552E-05  2954   0.572E-03    0.208E-02
RMM:   5    -0.233213334866E+04   -0.14153E-06   -0.18954E-05  2934   0.353E-03
 146 F= -.23536321E+04 E0= -.23536318E+04  d E =-.116589E-03  mag=     3.9962
       N       E                     dE             d eps       ncg     rms          rms(c)
DAV:   1    -0.233213332924E+04    0.19279E-04   -0.22958E-04  5320   0.169E-02    0.883E-03
RMM:   2    -0.233213333420E+04   -0.49594E-05   -0.39253E-05  2979   0.451E-03
 147 F= -.23536320E+04 E0= -.23536318E+04  d E =-.110902E-03  mag=     3.9962
       N       E                     dE             d eps       ncg     rms          rms(c)
DAV:   1    -0.233213300816E+04    0.32108E-03   -0.29203E-02  4544   0.171E-01    0.592E-02
RMM:   2    -0.233213333573E+04   -0.32757E-03   -0.35046E-03  6254   0.402E-02    0.353E-02
RMM:   3    -0.233213336111E+04   -0.25380E-04   -0.33701E-04  3275   0.148E-02    0.449E-02
RMM:   4    -0.233213334184E+04    0.19269E-04   -0.42639E-05  2950   0.508E-03    0.186E-02
RMM:   5    -0.233213334228E+04   -0.43954E-06   -0.16875E-05  2938   0.318E-03
 148 F= -.23536321E+04 E0= -.23536319E+04  d E =-.101444E-03  mag=     3.9962
       N       E                     dE             d eps       ncg     rms          rms(c)
DAV:   1    -0.233213328786E+04    0.53986E-04   -0.19484E-03  5064   0.448E-02    0.168E-02
RMM:   2    -0.233213331117E+04   -0.23309E-04   -0.24155E-04  4251   0.111E-02    0.142E-02
RMM:   3    -0.233213331246E+04   -0.12901E-05   -0.32858E-05  2900   0.576E-03
 149 F= -.23536321E+04 E0= -.23536319E+04  d E =-.963019E-04  mag=     3.9962
       N       E                     dE             d eps       ncg     rms          rms(c)
DAV:   1    -0.233213306235E+04    0.24882E-03   -0.21194E-02  4544   0.143E-01    0.488E-02
RMM:   2    -0.233213332233E+04   -0.25998E-03   -0.27637E-03  6230   0.341E-02    0.308E-02
RMM:   3    -0.233213334178E+04   -0.19444E-04   -0.25988E-04  3044   0.122E-02    0.380E-02
RMM:   4    -0.233213332914E+04    0.12636E-04   -0.34113E-05  2954   0.424E-03    0.166E-02
RMM:   5    -0.233213332896E+04    0.17742E-06   -0.10854E-05  2914   0.250E-03
 150 F= -.23536322E+04 E0= -.23536320E+04  d E =-.103390E-03  mag=     3.9962
