       N       E                     dE             d eps       ncg     rms          rms(c)
DAV:   1     0.126355564317E+05    0.12636E+05   -0.82781E+05  4448   0.144E+03
DAV:   2    -0.108058994377E+04   -0.13716E+05   -0.13135E+05  5288   0.329E+02
DAV:   3    -0.247017936158E+04   -0.13896E+04   -0.13769E+04  5320   0.110E+02
DAV:   4    -0.251439048349E+04   -0.44211E+02   -0.43988E+02  6664   0.292E+01
DAV:   5    -0.251521143201E+04   -0.82095E+00   -0.81965E+00  5576   0.321E+00    0.171E+02
RMM:   6    -0.148292102719E+04    0.10323E+04   -0.19792E+03  4391   0.393E+01    0.755E+01
RMM:   7    -0.166339670473E+04   -0.18048E+03   -0.31348E+02  5070   0.148E+01    0.605E+01
RMM:   8    -0.168723037089E+04   -0.23834E+02   -0.83480E+01  5246   0.872E+00    0.399E+01
RMM:   9    -0.178780198487E+04   -0.10057E+03   -0.52255E+01  4720   0.757E+00    0.301E+01
RMM:  10    -0.193023780915E+04   -0.14244E+03   -0.58769E+01  5037   0.749E+00    0.245E+01
RMM:  11    -0.199972732758E+04   -0.69490E+02   -0.28542E+01  5173   0.463E+00    0.182E+01
RMM:  12    -0.209140978798E+04   -0.91682E+02   -0.41857E+01  4749   0.505E+00    0.134E+01
RMM:  13    -0.218437375911E+04   -0.92964E+02   -0.60739E+01  4440   0.590E+00    0.930E+00
RMM:  14    -0.227373129286E+04   -0.89358E+02   -0.80683E+01  4491   0.624E+00    0.480E+00
RMM:  15    -0.229662676506E+04   -0.22895E+02   -0.23462E+01  4536   0.399E+00    0.293E+00
RMM:  16    -0.230358266483E+04   -0.69559E+01   -0.86912E+00  4791   0.196E+00    0.540E+00
RMM:  17    -0.230369010017E+04   -0.10744E+00   -0.72785E-01  5332   0.862E-01    0.476E+00
RMM:  18    -0.230386036793E+04   -0.17027E+00   -0.18953E-01  5157   0.229E-01    0.460E+00
RMM:  19    -0.230498923930E+04   -0.11289E+01   -0.11494E+00  4406   0.559E-01    0.317E+00
RMM:  20    -0.230572404084E+04   -0.73480E+00   -0.55297E-01  4500   0.470E-01    0.199E+00
RMM:  21    -0.230605422816E+04   -0.33019E+00   -0.17439E-01  4905   0.296E-01    0.114E+00
RMM:  22    -0.230622997838E+04   -0.17575E+00   -0.76001E-02  4750   0.181E-01    0.690E-01
RMM:  23    -0.230634516475E+04   -0.11519E+00   -0.52663E-02  4455   0.137E-01    0.382E-01
RMM:  24    -0.230641285068E+04   -0.67686E-01   -0.25092E-02  4536   0.102E-01    0.241E-01
RMM:  25    -0.230644808699E+04   -0.35236E-01   -0.92096E-03  4749   0.674E-02    0.195E-01
RMM:  26    -0.230646958612E+04   -0.21499E-01   -0.51045E-03  4631   0.463E-02    0.137E-01
RMM:  27    -0.230648430863E+04   -0.14723E-01   -0.35235E-03  4503   0.390E-02    0.997E-02
RMM:  28    -0.230649314816E+04   -0.88395E-02   -0.27422E-03  4546   0.321E-02    0.828E-02
RMM:  29    -0.230649736611E+04   -0.42180E-02   -0.17123E-03  4309   0.245E-02    0.904E-02
RMM:  30    -0.230649726764E+04    0.98468E-04   -0.12924E-04  3576   0.100E-02    0.936E-02
RMM:  31    -0.230649905710E+04   -0.17895E-02   -0.36126E-04  3836   0.968E-03    0.931E-02
RMM:  32    -0.230650187819E+04   -0.28211E-02   -0.13659E-03  3992   0.170E-02    0.108E-01
RMM:  33    -0.230650347784E+04   -0.15996E-02   -0.15551E-03  4071   0.183E-02    0.137E-01
RMM:  34    -0.230650421546E+04   -0.73763E-03   -0.74413E-04  3793   0.116E-02    0.157E-01
RMM:  35    -0.230650316811E+04    0.10473E-02   -0.62118E-04  3451   0.102E-02    0.142E-01
RMM:  36    -0.230650253964E+04    0.62848E-03   -0.47175E-04  3225   0.821E-03    0.127E-01
RMM:  37    -0.230650190630E+04    0.63334E-03   -0.59614E-04  3347   0.894E-03    0.114E-01
RMM:  38    -0.230650109712E+04    0.80918E-03   -0.11621E-03  3642   0.121E-02    0.100E-01
RMM:  39    -0.230650086492E+04    0.23220E-03   -0.35670E-04  3076   0.844E-03    0.938E-02
RMM:  40    -0.230650023945E+04    0.62547E-03   -0.10383E-03  3543   0.108E-02    0.891E-02
RMM:  41    -0.230649946804E+04    0.77141E-03   -0.18000E-03  3642   0.140E-02    0.935E-02
RMM:  42    -0.230649761984E+04    0.18482E-02   -0.61952E-03  4005   0.254E-02    0.120E-01
RMM:  43    -0.230650028288E+04   -0.26630E-02   -0.92673E-03  4074   0.326E-02    0.643E-02
RMM:  44    -0.230650044231E+04   -0.15943E-03   -0.67655E-04  3329   0.161E-02    0.710E-02
RMM:  45    -0.230650110494E+04   -0.66263E-03   -0.13526E-03  3616   0.118E-02    0.740E-02
RMM:  46    -0.230650213543E+04   -0.10305E-02   -0.21984E-03  3657   0.150E-02    0.856E-02
RMM:  47    -0.230650092993E+04    0.12055E-02   -0.21850E-03  3696   0.161E-02    0.849E-02
RMM:  48    -0.230650047433E+04    0.45560E-03   -0.65911E-04  3148   0.103E-02    0.807E-02
RMM:  49    -0.230649990706E+04    0.56728E-03   -0.10095E-03  3479   0.107E-02    0.799E-02
RMM:  50    -0.230649915304E+04    0.75401E-03   -0.14464E-03  3528   0.127E-02    0.864E-02
RMM:  51    -0.230649979973E+04   -0.64669E-03   -0.54901E-04  3250   0.104E-02    0.709E-02
RMM:  52    -0.230650123437E+04   -0.14346E-02   -0.47234E-03  3864   0.218E-02    0.691E-02
RMM:  53    -0.230650402771E+04   -0.27933E-02   -0.11512E-02  4029   0.344E-02    0.113E-01
RMM:  54    -0.230650882788E+04   -0.48002E-02   -0.12751E-02  4198   0.383E-02    0.206E-01
RMM:  55    -0.230650789976E+04    0.92812E-03   -0.59220E-04  3602   0.177E-02    0.207E-01
RMM:  56    -0.230651077550E+04   -0.28757E-02   -0.20090E-03  3727   0.145E-02    0.255E-01
RMM:  57    -0.230651379443E+04   -0.30189E-02   -0.18141E-03  3610   0.152E-02    0.304E-01
RMM:  58    -0.230651436123E+04   -0.56680E-03   -0.31694E-04  3082   0.875E-03    0.318E-01
RMM:  59    -0.230651480449E+04   -0.44326E-03   -0.97817E-05  2874   0.463E-03    0.328E-01
RMM:  60    -0.230651484802E+04   -0.43527E-04   -0.10154E-05  2632   0.324E-03    0.330E-01
RMM:  61    -0.230651813116E+04   -0.32831E-02   -0.11122E-03  3499   0.108E-02    0.372E-01
RMM:  62    -0.230651447406E+04    0.36571E-02   -0.12628E-03  3628   0.122E-02    0.331E-01
RMM:  63    -0.230651355757E+04    0.91649E-03   -0.22146E-04  2857   0.625E-03    0.314E-01
RMM:  64    -0.230650905392E+04    0.45037E-02   -0.36200E-03  3873   0.195E-02    0.246E-01
RMM:  65    -0.230650714657E+04    0.19073E-02   -0.15939E-03  3502   0.151E-02    0.208E-01
RMM:  66    -0.230650686400E+04    0.28257E-03   -0.31526E-04  3091   0.806E-03    0.195E-01
RMM:  67    -0.230650531005E+04    0.15540E-02   -0.10866E-03  3558   0.112E-02    0.166E-01
RMM:  68    -0.230650470718E+04    0.60287E-03   -0.40070E-04  3069   0.819E-03    0.152E-01
RMM:  69    -0.230650500523E+04   -0.29805E-03   -0.36650E-05  2734   0.436E-03    0.153E-01
RMM:  70    -0.230650495089E+04    0.54340E-04   -0.51421E-06  2401   0.187E-03    0.152E-01
RMM:  71    -0.230650505439E+04   -0.10350E-03   -0.54685E-06  2358   0.159E-03    0.153E-01
RMM:  72    -0.230650493514E+04    0.11926E-03   -0.64010E-06  2077   0.117E-03    0.152E-01
RMM:  73    -0.230650497470E+04   -0.39562E-04   -0.66104E-07  1863   0.908E-04    0.152E-01
RMM:  74    -0.230650515756E+04   -0.18286E-03   -0.19900E-05  2208   0.158E-03    0.155E-01
RMM:  75    -0.230650525989E+04   -0.10233E-03   -0.82376E-06  1840   0.124E-03    0.157E-01
RMM:  76    -0.230650467949E+04    0.58040E-03   -0.16885E-04  2567   0.413E-03    0.148E-01
RMM:  77    -0.230650464166E+04    0.37828E-04   -0.11666E-05  2304   0.201E-03    0.146E-01
RMM:  78    -0.230650464741E+04   -0.57569E-05   -0.27248E-06  1985   0.109E-03
   1 F= -.23270063E+04 E0= -.23270063E+04  d E =-.232701E+04  mag=     2.0023
       N       E                     dE             d eps       ncg     rms          rms(c)
DAV:   1    -0.230496383582E+04    0.15408E+01   -0.13389E+02  4472   0.787E+00    0.415E+00
RMM:   2    -0.230807875326E+04   -0.31149E+01   -0.32471E+01  6456   0.282E+00    0.290E+00
RMM:   3    -0.230801793462E+04    0.60819E-01   -0.24318E+00  4652   0.894E-01    0.170E+00
RMM:   4    -0.230801667222E+04    0.12624E-02   -0.26646E-01  5356   0.160E-01    0.135E+00
RMM:   5    -0.230800914389E+04    0.75283E-02   -0.56787E-02  5959   0.108E-01    0.104E+00
RMM:   6    -0.230800803715E+04    0.11067E-02   -0.53788E-02  5340   0.102E-01    0.416E-01
RMM:   7    -0.230800969976E+04   -0.16626E-02   -0.74591E-03  4959   0.481E-02    0.221E-01
RMM:   8    -0.230801419883E+04   -0.44991E-02   -0.52430E-03  4577   0.327E-02    0.132E-01
RMM:   9    -0.230801633238E+04   -0.21335E-02   -0.14926E-03  4139   0.226E-02    0.598E-02
RMM:  10    -0.230801740794E+04   -0.10756E-02   -0.85003E-04  4326   0.141E-02    0.311E-02
RMM:  11    -0.230801779192E+04   -0.38398E-03   -0.18248E-04  3657   0.945E-03    0.156E-02
RMM:  12    -0.230801795855E+04   -0.16662E-03   -0.40198E-05  3099   0.465E-03    0.102E-02
RMM:  13    -0.230801808860E+04   -0.13005E-03   -0.22760E-05  2975   0.428E-03    0.632E-03
RMM:  14    -0.230801813721E+04   -0.48615E-04   -0.99965E-06  2829   0.350E-03    0.448E-03
RMM:  15    -0.230801816163E+04   -0.24421E-04   -0.72304E-06  2780   0.285E-03    0.262E-03
RMM:  16    -0.230801816923E+04   -0.76003E-05   -0.36937E-06  2604   0.245E-03
   2 F= -.23285166E+04 E0= -.23285166E+04  d E =-.151026E+01  mag=     2.0000
       N       E                     dE             d eps       ncg     rms          rms(c)
DAV:   1    -0.230800395557E+04    0.14206E-01   -0.20287E+00  4784   0.101E+00    0.500E-01
RMM:   2    -0.230804195542E+04   -0.38000E-01   -0.40430E-01  6260   0.312E-01    0.318E-01
RMM:   3    -0.230804549689E+04   -0.35415E-02   -0.51973E-02  5467   0.143E-01    0.209E-01
RMM:   4    -0.230804557401E+04   -0.77119E-04   -0.43908E-03  4797   0.233E-02    0.187E-01
RMM:   5    -0.230804524791E+04    0.32610E-03   -0.82961E-04  4412   0.138E-02    0.830E-02
RMM:   6    -0.230804520270E+04    0.45212E-04   -0.24914E-04  4091   0.946E-03    0.326E-02
RMM:   7    -0.230804520386E+04   -0.11606E-05   -0.52540E-05  2915   0.634E-03
   3 F= -.23285432E+04 E0= -.23285432E+04  d E =-.153691E+01  mag=     2.0000
       N       E                     dE             d eps       ncg     rms          rms(c)
DAV:   1    -0.230767560090E+04    0.36960E+00   -0.30952E+01  4448   0.450E+00    0.208E+00
RMM:   2    -0.230835246626E+04   -0.67687E+00   -0.68600E+00  6293   0.123E+00    0.184E+00
RMM:   3    -0.230836575054E+04   -0.13284E-01   -0.63759E-01  5334   0.411E-01    0.124E+00
RMM:   4    -0.230835761939E+04    0.81311E-02   -0.70089E-02  5888   0.102E-01    0.566E-01
RMM:   5    -0.230835531909E+04    0.23003E-02   -0.11975E-02  4948   0.490E-02    0.375E-01
RMM:   6    -0.230835545600E+04   -0.13690E-03   -0.91578E-03  5492   0.529E-02    0.225E-01
RMM:   7    -0.230835534679E+04    0.10921E-03   -0.13260E-03  5234   0.251E-02    0.746E-02
RMM:   8    -0.230835554930E+04   -0.20251E-03   -0.41932E-04  4106   0.116E-02    0.335E-02
RMM:   9    -0.230835562295E+04   -0.73645E-04   -0.12059E-04  3397   0.706E-03    0.176E-02
RMM:  10    -0.230835566814E+04   -0.45188E-04   -0.27734E-05  2921   0.514E-03    0.998E-03
RMM:  11    -0.230835569783E+04   -0.29698E-04   -0.14288E-05  2843   0.428E-03    0.658E-03
RMM:  12    -0.230835571524E+04   -0.17404E-04   -0.81855E-06  2815   0.348E-03    0.469E-03
RMM:  13    -0.230835572857E+04   -0.13331E-04   -0.75277E-06  2802   0.304E-03    0.218E-03
RMM:  14    -0.230835573231E+04   -0.37377E-05   -0.35319E-06  2689   0.260E-03
   4 F= -.23288511E+04 E0= -.23288511E+04  d E =-.307859E+00  mag=     2.0000
       N       E                     dE             d eps       ncg     rms          rms(c)
DAV:   1    -0.230810783113E+04    0.24790E+00   -0.13650E+01  4448   0.308E+00    0.137E+00
RMM:   2    -0.230841592465E+04   -0.30809E+00   -0.31767E+00  6304   0.835E-01    0.106E+00
RMM:   3    -0.230842711905E+04   -0.11194E-01   -0.28564E-01  5413   0.272E-01    0.847E-01
RMM:   4    -0.230842305938E+04    0.40597E-02   -0.31240E-02  5857   0.666E-02    0.372E-01
RMM:   5    -0.230842153704E+04    0.15223E-02   -0.55710E-03  4817   0.328E-02    0.229E-01
RMM:   6    -0.230842144809E+04    0.88954E-04   -0.34080E-03  5308   0.338E-02    0.149E-01
RMM:   7    -0.230842127770E+04    0.17039E-03   -0.55342E-04  4863   0.159E-02    0.479E-02
RMM:   8    -0.230842127125E+04    0.64502E-05   -0.16531E-04  3316   0.735E-03    0.208E-02
RMM:   9    -0.230842128114E+04   -0.98931E-05   -0.41487E-05  2923   0.472E-03
   5 F= -.23289150E+04 E0= -.23289150E+04  d E =-.371718E+00  mag=     2.0000
       N       E                     dE             d eps       ncg     rms          rms(c)
DAV:   1    -0.230832526209E+04    0.96009E-01   -0.18490E+01  4504   0.425E+00    0.160E+00
RMM:   2    -0.230851665962E+04   -0.19140E+00   -0.21299E+00  6087   0.914E-01    0.859E-01
RMM:   3    -0.230852610565E+04   -0.94460E-02   -0.19030E-01  5574   0.296E-01    0.974E-01
RMM:   4    -0.230851828140E+04    0.78243E-02   -0.23070E-02  6124   0.800E-02    0.349E-01
RMM:   5    -0.230851622176E+04    0.20596E-02   -0.72268E-03  4657   0.517E-02    0.175E-01
RMM:   6    -0.230851576935E+04    0.45240E-03   -0.22129E-03  4995   0.419E-02    0.127E-01
RMM:   7    -0.230851547824E+04    0.29111E-03   -0.61083E-04  5024   0.186E-02    0.415E-02
RMM:   8    -0.230851539146E+04    0.86786E-04   -0.16042E-04  4311   0.872E-03    0.271E-02
RMM:   9    -0.230851535358E+04    0.37879E-04   -0.62886E-05  3480   0.715E-03    0.136E-02
RMM:  10    -0.230851534365E+04    0.99219E-05   -0.26024E-05  3062   0.551E-03
   6 F= -.23290074E+04 E0= -.23290074E+04  d E =-.924571E-01  mag=     2.0000
       N       E                     dE             d eps       ncg     rms          rms(c)
DAV:   1    -0.230851493355E+04    0.42003E-03   -0.73662E-02  5280   0.269E-01    0.102E-01
RMM:   2    -0.230851567069E+04   -0.73714E-03   -0.82431E-03  6104   0.579E-02    0.488E-02
RMM:   3    -0.230851572418E+04   -0.53496E-04   -0.73540E-04  3563   0.203E-02    0.606E-02
RMM:   4    -0.230851569443E+04    0.29752E-04   -0.89199E-05  2896   0.673E-03    0.218E-02
RMM:   5    -0.230851569135E+04    0.30832E-05   -0.30609E-05  2952   0.458E-03
   7 F= -.23290079E+04 E0= -.23290079E+04  d E =-.929040E-01  mag=     2.0000
       N       E                     dE             d eps       ncg     rms          rms(c)
DAV:   1    -0.230853384859E+04   -0.18154E-01   -0.60873E+00  4416   0.228E+00    0.561E-01
RMM:   2    -0.230855931519E+04   -0.25467E-01   -0.28022E-01  5995   0.399E-01    0.320E-01
RMM:   3    -0.230856026760E+04   -0.95242E-03   -0.24434E-02  5386   0.127E-01    0.341E-01
RMM:   4    -0.230855927061E+04    0.99699E-03   -0.30101E-03  5593   0.352E-02    0.168E-01
RMM:   5    -0.230855886441E+04    0.40620E-03   -0.18778E-03  4652   0.294E-02    0.508E-02
RMM:   6    -0.230855883886E+04    0.25551E-04   -0.17149E-04  4200   0.166E-02    0.230E-02
RMM:   7    -0.230855882328E+04    0.15585E-04   -0.48006E-05  3386   0.514E-03    0.144E-02
RMM:   8    -0.230855881552E+04    0.77532E-05   -0.15567E-05  2889   0.463E-03
   8 F= -.23290509E+04 E0= -.23290509E+04  d E =-.430617E-01  mag=     2.0000
       N       E                     dE             d eps       ncg     rms          rms(c)
DAV:   1    -0.230855903264E+04   -0.20936E-03   -0.40626E-01  4672   0.587E-01    0.145E-01
RMM:   2    -0.230856072330E+04   -0.16907E-02   -0.18679E-02  6042   0.104E-01    0.856E-02
RMM:   3    -0.230856078525E+04   -0.61948E-04   -0.16499E-03  4770   0.329E-02    0.908E-02
RMM:   4    -0.230856071116E+04    0.74083E-04   -0.19993E-04  3398   0.969E-03    0.426E-02
RMM:   5    -0.230856068067E+04    0.30499E-04   -0.13691E-04  4061   0.901E-03    0.132E-02
RMM:   6    -0.230856067880E+04    0.18636E-05   -0.14936E-05  2864   0.694E-03
   9 F= -.23290528E+04 E0= -.23290528E+04  d E =-.449033E-01  mag=     2.0000
       N       E                     dE             d eps       ncg     rms          rms(c)
DAV:   1    -0.230856519419E+04   -0.45135E-02   -0.52033E+00  4416   0.222E+00    0.552E-01
RMM:   2    -0.230859880289E+04   -0.33609E-01   -0.35769E-01  6165   0.397E-01    0.479E-01
RMM:   3    -0.230859889657E+04   -0.93678E-04   -0.34425E-02  5779   0.136E-01    0.294E-01
RMM:   4    -0.230859825341E+04    0.64316E-03   -0.37970E-03  5321   0.317E-02    0.154E-01
RMM:   5    -0.230859804782E+04    0.20559E-03   -0.98530E-04  4786   0.204E-02    0.953E-02
RMM:   6    -0.230859791399E+04    0.13383E-03   -0.44620E-04  4928   0.164E-02    0.347E-02
RMM:   7    -0.230859790299E+04    0.10997E-04   -0.58364E-05  3141   0.812E-03    0.169E-02
RMM:   8    -0.230859789926E+04    0.37265E-05   -0.13575E-05  2837   0.399E-03
  10 F= -.23290904E+04 E0= -.23290904E+04  d E =-.376589E-01  mag=     2.0000
       N       E                     dE             d eps       ncg     rms          rms(c)
DAV:   1    -0.230856715424E+04    0.30749E-01   -0.73847E+00  4408   0.264E+00    0.654E-01
RMM:   2    -0.230861477002E+04   -0.47616E-01   -0.50665E-01  6118   0.471E-01    0.566E-01
RMM:   3    -0.230861488299E+04   -0.11297E-03   -0.49460E-02  5713   0.170E-01    0.339E-01
RMM:   4    -0.230861406205E+04    0.82094E-03   -0.54827E-03  5376   0.376E-02    0.182E-01
RMM:   5    -0.230861377201E+04    0.29003E-03   -0.13976E-03  4897   0.242E-02    0.114E-01
RMM:   6    -0.230861357454E+04    0.19748E-03   -0.61443E-04  5085   0.188E-02    0.433E-02
RMM:   7    -0.230861355838E+04    0.16158E-04   -0.86106E-05  3329   0.958E-03    0.206E-02
RMM:   8    -0.230861355273E+04    0.56534E-05   -0.18784E-05  2849   0.439E-03
  11 F= -.23291065E+04 E0= -.23291065E+04  d E =-.537797E-01  mag=     2.0000
       N       E                     dE             d eps       ncg     rms          rms(c)
DAV:   1    -0.230860463974E+04    0.89186E-02   -0.52612E+00  4456   0.233E+00    0.665E-01
RMM:   2    -0.230863094081E+04   -0.26301E-01   -0.28812E-01  5746   0.396E-01    0.388E-01
RMM:   3    -0.230863173445E+04   -0.79363E-03   -0.31115E-02  5172   0.164E-01    0.396E-01
RMM:   4    -0.230862992992E+04    0.18045E-02   -0.34001E-03  5452   0.400E-02    0.139E-01
RMM:   5    -0.230862945696E+04    0.47296E-03   -0.18173E-03  4973   0.305E-02    0.469E-02
RMM:   6    -0.230862941220E+04    0.44760E-04   -0.22482E-04  4777   0.163E-02    0.250E-02
RMM:   7    -0.230862939603E+04    0.16171E-04   -0.43401E-05  3263   0.554E-03    0.156E-02
RMM:   8    -0.230862938254E+04    0.13491E-04   -0.19416E-05  2925   0.505E-03    0.808E-03
RMM:   9    -0.230862937787E+04    0.46705E-05   -0.12112E-05  2820   0.397E-03
  12 F= -.23291226E+04 E0= -.23291226E+04  d E =-.160554E-01  mag=     2.0000
       N       E                     dE             d eps       ncg     rms          rms(c)
DAV:   1    -0.230862937818E+04    0.43559E-05   -0.70171E-05  4560   0.981E-03    0.452E-03
RMM:   2    -0.230862937890E+04   -0.71632E-06   -0.73484E-06  2824   0.267E-03
  13 F= -.23291226E+04 E0= -.23291226E+04  d E =-.160558E-01  mag=     2.0000
       N       E                     dE             d eps       ncg     rms          rms(c)
DAV:   1    -0.230862357866E+04    0.57995E-02   -0.41470E+00  4416   0.203E+00    0.419E-01
RMM:   2    -0.230864829157E+04   -0.24713E-01   -0.26367E-01  5859   0.344E-01    0.288E-01
RMM:   3    -0.230864966117E+04   -0.13696E-02   -0.27110E-02  5382   0.138E-01    0.215E-01
RMM:   4    -0.230864934698E+04    0.31419E-03   -0.26394E-03  5207   0.276E-02    0.125E-01
RMM:   5    -0.230864912797E+04    0.21902E-03   -0.81410E-04  4602   0.212E-02    0.565E-02
RMM:   6    -0.230864911344E+04    0.14527E-04   -0.16034E-04  4230   0.137E-02    0.218E-02
RMM:   7    -0.230864910928E+04    0.41618E-05   -0.27979E-05  2929   0.496E-03
  14 F= -.23291424E+04 E0= -.23291424E+04  d E =-.198060E-01  mag=     2.0000
       N       E                     dE             d eps       ncg     rms          rms(c)
DAV:   1    -0.230844358759E+04    0.20553E+00   -0.37293E+01  4400   0.610E+00    0.129E+00
RMM:   2    -0.230867209710E+04   -0.22851E+00   -0.24270E+00  5898   0.104E+00    0.937E-01
RMM:   3    -0.230868011670E+04   -0.80196E-02   -0.24421E-01  5472   0.391E-01    0.579E-01
RMM:   4    -0.230867791355E+04    0.22032E-02   -0.23316E-02  5280   0.807E-02    0.370E-01
RMM:   5    -0.230867615880E+04    0.17547E-02   -0.67056E-03  4836   0.608E-02    0.177E-01
RMM:   6    -0.230867589652E+04    0.26228E-03   -0.18490E-03  5094   0.396E-02    0.652E-02
RMM:   7    -0.230867584810E+04    0.48422E-04   -0.24184E-04  4222   0.140E-02    0.381E-02
RMM:   8    -0.230867582772E+04    0.20383E-04   -0.72175E-05  3385   0.650E-03    0.278E-02
RMM:   9    -0.230867581817E+04    0.95445E-05   -0.35704E-05  2886   0.552E-03
  15 F= -.23291690E+04 E0= -.23291690E+04  d E =-.464367E-01  mag=     2.0000
       N       E                     dE             d eps       ncg     rms          rms(c)
DAV:   1    -0.230867046522E+04    0.53625E-02   -0.29091E+00  4472   0.170E+00    0.412E-01
RMM:   2    -0.230869047404E+04   -0.20009E-01   -0.21068E-01  6148   0.310E-01    0.284E-01
RMM:   3    -0.230869133080E+04   -0.85676E-03   -0.20387E-02  5718   0.972E-02    0.201E-01
RMM:   4    -0.230869099465E+04    0.33615E-03   -0.20996E-03  5098   0.240E-02    0.110E-01
RMM:   5    -0.230869086513E+04    0.12952E-03   -0.55276E-04  4683   0.169E-02    0.583E-02
RMM:   6    -0.230869081343E+04    0.51703E-04   -0.21217E-04  4595   0.124E-02    0.184E-02
RMM:   7    -0.230869080995E+04    0.34821E-05   -0.24191E-05  2931   0.594E-03
  16 F= -.23291839E+04 E0= -.23291839E+04  d E =-.149020E-01  mag=     2.0000
       N       E                     dE             d eps       ncg     rms          rms(c)
DAV:   1    -0.230863100216E+04    0.59811E-01   -0.10416E+01  4464   0.322E+00    0.784E-01
RMM:   2    -0.230870274542E+04   -0.71743E-01   -0.75618E-01  6048   0.579E-01    0.546E-01
RMM:   3    -0.230870577849E+04   -0.30331E-02   -0.73847E-02  5641   0.195E-01    0.377E-01
RMM:   4    -0.230870459608E+04    0.11824E-02   -0.74903E-03  5306   0.456E-02    0.206E-01
RMM:   5    -0.230870414705E+04    0.44903E-03   -0.20551E-03  4985   0.323E-02    0.114E-01
RMM:   6    -0.230870396069E+04    0.18636E-03   -0.73761E-04  5306   0.212E-02    0.386E-02
RMM:   7    -0.230870394000E+04    0.20688E-04   -0.86751E-05  3586   0.927E-03    0.195E-02
RMM:   8    -0.230870392988E+04    0.10120E-04   -0.20116E-05  2873   0.481E-03    0.109E-02
RMM:   9    -0.230870392606E+04    0.38196E-05   -0.12607E-05  2838   0.361E-03
  17 F= -.23291968E+04 E0= -.23291968E+04  d E =-.277455E-01  mag=     2.0000
       N       E                     dE             d eps       ncg     rms          rms(c)
DAV:   1    -0.230868222231E+04    0.21708E-01   -0.43455E+00  4464   0.203E+00    0.520E-01
RMM:   2    -0.230872172479E+04   -0.39502E-01   -0.40760E-01  6077   0.389E-01    0.456E-01
RMM:   3    -0.230872269599E+04   -0.97120E-03   -0.37704E-02  5628   0.121E-01    0.288E-01
RMM:   4    -0.230872205866E+04    0.63733E-03   -0.38764E-03  5153   0.293E-02    0.136E-01
RMM:   5    -0.230872185939E+04    0.19927E-03   -0.76746E-04  4987   0.188E-02    0.880E-02
RMM:   6    -0.230872175421E+04    0.10518E-03   -0.47104E-04  4841   0.159E-02    0.354E-02
RMM:   7    -0.230872174281E+04    0.11400E-04   -0.62722E-05  3031   0.796E-03    0.150E-02
RMM:   8    -0.230872174006E+04    0.27485E-05   -0.10966E-05  2843   0.350E-03
  18 F= -.23292142E+04 E0= -.23292142E+04  d E =-.174583E-01  mag=     2.0000
       N       E                     dE             d eps       ncg     rms          rms(c)
DAV:   1    -0.230857669388E+04    0.14505E+00   -0.17569E+01  4464   0.409E+00    0.104E+00
RMM:   2    -0.230873494615E+04   -0.15825E+00   -0.16418E+00  6092   0.779E-01    0.876E-01
RMM:   3    -0.230874180632E+04   -0.68602E-02   -0.16889E-01  5684   0.253E-01    0.602E-01
RMM:   4    -0.230873871594E+04    0.30904E-02   -0.15640E-02  5370   0.599E-02    0.273E-01
RMM:   5    -0.230873786490E+04    0.85104E-03   -0.33612E-03  5154   0.398E-02    0.159E-01
RMM:   6    -0.230873759098E+04    0.27392E-03   -0.16048E-03  5345   0.283E-02    0.706E-02
RMM:   7    -0.230873752861E+04    0.62375E-04   -0.20535E-04  4128   0.128E-02    0.326E-02
RMM:   8    -0.230873751395E+04    0.14658E-04   -0.52733E-05  2903   0.594E-03    0.149E-02
RMM:   9    -0.230873751270E+04    0.12480E-05   -0.19001E-05  2879   0.392E-03
  19 F= -.23292291E+04 E0= -.23292291E+04  d E =-.323026E-01  mag=     2.0000
       N       E                     dE             d eps       ncg     rms          rms(c)
DAV:   1    -0.230868245439E+04    0.55060E-01   -0.62001E+00  4464   0.241E+00    0.668E-01
RMM:   2    -0.230875203651E+04   -0.69582E-01   -0.72654E-01  6126   0.491E-01    0.572E-01
RMM:   3    -0.230875463589E+04   -0.25994E-02   -0.68423E-02  5705   0.162E-01    0.350E-01
RMM:   4    -0.230875375578E+04    0.88010E-03   -0.70018E-03  5268   0.365E-02    0.177E-01
RMM:   5    -0.230875341686E+04    0.33892E-03   -0.11580E-03  5041   0.229E-02    0.107E-01
RMM:   6    -0.230875325377E+04    0.16309E-03   -0.68422E-04  5069   0.177E-02    0.479E-02
RMM:   7    -0.230875322659E+04    0.27179E-04   -0.82157E-05  3295   0.104E-02    0.194E-02
RMM:   8    -0.230875321938E+04    0.72086E-05   -0.21936E-05  2847   0.408E-03
  20 F= -.23292439E+04 E0= -.23292439E+04  d E =-.148346E-01  mag=     2.0000
       N       E                     dE             d eps       ncg     rms          rms(c)
DAV:   1    -0.230872010107E+04    0.33126E-01   -0.32714E+00  4448   0.175E+00    0.487E-01
RMM:   2    -0.230875691613E+04   -0.36815E-01   -0.38352E-01  6124   0.357E-01    0.425E-01
RMM:   3    -0.230875802579E+04   -0.11097E-02   -0.34728E-02  5716   0.117E-01    0.249E-01
RMM:   4    -0.230875760239E+04    0.42340E-03   -0.37348E-03  5117   0.265E-02    0.130E-01
RMM:   5    -0.230875742241E+04    0.17998E-03   -0.58302E-04  4755   0.165E-02    0.800E-02
RMM:   6    -0.230875732568E+04    0.96727E-04   -0.39706E-04  4841   0.139E-02    0.356E-02
RMM:   7    -0.230875731079E+04    0.14893E-04   -0.45381E-05  2947   0.831E-03    0.140E-02
RMM:   8    -0.230875730713E+04    0.36611E-05   -0.12112E-05  2840   0.331E-03
  21 F= -.23292473E+04 E0= -.23292473E+04  d E =-.182024E-01  mag=     2.0000
       N       E                     dE             d eps       ncg     rms          rms(c)
DAV:   1    -0.230869812093E+04    0.59190E-01   -0.77570E+00  4432   0.271E+00    0.723E-01
RMM:   2    -0.230877438719E+04   -0.76266E-01   -0.78780E-01  6118   0.523E-01    0.675E-01
RMM:   3    -0.230877592055E+04   -0.15334E-02   -0.74610E-02  5707   0.172E-01    0.362E-01
RMM:   4    -0.230877496302E+04    0.95753E-03   -0.76281E-03  5060   0.390E-02    0.180E-01
RMM:   5    -0.230877448850E+04    0.47452E-03   -0.14672E-03  4960   0.280E-02    0.879E-02
RMM:   6    -0.230877444432E+04    0.44187E-04   -0.61157E-04  4991   0.190E-02    0.416E-02
RMM:   7    -0.230877441512E+04    0.29192E-04   -0.80942E-05  3282   0.759E-03    0.225E-02
RMM:   8    -0.230877440690E+04    0.82248E-05   -0.25552E-05  2848   0.500E-03
  22 F= -.23292633E+04 E0= -.23292633E+04  d E =-.160293E-01  mag=     2.0000
       N       E                     dE             d eps       ncg     rms          rms(c)
DAV:   1    -0.230871036702E+04    0.64048E-01   -0.73096E+00  4432   0.263E+00    0.703E-01
RMM:   2    -0.230878217122E+04   -0.71804E-01   -0.74172E-01  6132   0.508E-01    0.660E-01
RMM:   3    -0.230878357617E+04   -0.14049E-02   -0.70221E-02  5722   0.167E-01    0.351E-01
RMM:   4    -0.230878267072E+04    0.90544E-03   -0.72092E-03  5040   0.379E-02    0.175E-01
RMM:   5    -0.230878222201E+04    0.44872E-03   -0.13927E-03  4961   0.273E-02    0.863E-02
RMM:   6    -0.230878217420E+04    0.47802E-04   -0.58971E-04  5009   0.185E-02    0.410E-02
RMM:   7    -0.230878214494E+04    0.29262E-04   -0.75249E-05  3268   0.750E-03    0.220E-02
RMM:   8    -0.230878213658E+04    0.83603E-05   -0.25058E-05  2842   0.495E-03
  23 F= -.23292699E+04 E0= -.23292699E+04  d E =-.225856E-01  mag=     2.0000
       N       E                     dE             d eps       ncg     rms          rms(c)
DAV:   1    -0.230871814465E+04    0.64000E-01   -0.90724E+00  4432   0.287E+00    0.751E-01
RMM:   2    -0.230880343069E+04   -0.85286E-01   -0.87586E-01  6142   0.549E-01    0.770E-01
RMM:   3    -0.230880344488E+04   -0.14192E-04   -0.86675E-02  5798   0.179E-01    0.334E-01
RMM:   4    -0.230880287925E+04    0.56563E-03   -0.91676E-03  4813   0.394E-02    0.190E-01
RMM:   5    -0.230880237553E+04    0.50372E-03   -0.16232E-03  4966   0.302E-02    0.113E-01
RMM:   6    -0.230880230094E+04    0.74585E-04   -0.70462E-04  4937   0.215E-02    0.537E-02
RMM:   7    -0.230880226065E+04    0.40297E-04   -0.68660E-05  3210   0.740E-03    0.225E-02
RMM:   8    -0.230880225277E+04    0.78719E-05   -0.23909E-05  2848   0.492E-03
  24 F= -.23292892E+04 E0= -.23292892E+04  d E =-.192936E-01  mag=     2.0000
       N       E                     dE             d eps       ncg     rms          rms(c)
DAV:   1    -0.230875828819E+04    0.43972E-01   -0.54230E+00  4432   0.222E+00    0.579E-01
RMM:   2    -0.230880899740E+04   -0.50709E-01   -0.52236E-01  6126   0.424E-01    0.586E-01
RMM:   3    -0.230880921688E+04   -0.21948E-03   -0.51273E-02  5792   0.138E-01    0.261E-01
RMM:   4    -0.230880887922E+04    0.33767E-03   -0.55295E-03  4807   0.305E-02    0.147E-01
RMM:   5    -0.230880854771E+04    0.33151E-03   -0.99114E-04  4901   0.236E-02    0.792E-02
RMM:   6    -0.230880851168E+04    0.36032E-04   -0.35755E-04  4491   0.168E-02    0.353E-02
RMM:   7    -0.230880849643E+04    0.15250E-04   -0.32086E-05  2990   0.587E-03    0.144E-02
RMM:   8    -0.230880849093E+04    0.55014E-05   -0.18267E-05  2845   0.426E-03
  25 F= -.23292947E+04 E0= -.23292947E+04  d E =-.248052E-01  mag=     2.0000
       N       E                     dE             d eps       ncg     rms          rms(c)
DAV:   1    -0.230874289960E+04    0.65597E-01   -0.82006E+00  4464   0.271E+00    0.736E-01
RMM:   2    -0.230882733795E+04   -0.84438E-01   -0.86870E-01  6152   0.528E-01    0.778E-01
RMM:   3    -0.230882693198E+04    0.40597E-03   -0.86709E-02  5774   0.177E-01    0.304E-01
RMM:   4    -0.230882671146E+04    0.22052E-03   -0.94473E-03  4824   0.370E-02    0.185E-01
RMM:   5    -0.230882631796E+04    0.39350E-03   -0.13435E-03  4883   0.267E-02    0.133E-01
RMM:   6    -0.230882620811E+04    0.10985E-03   -0.87305E-04  4895   0.222E-02    0.648E-02
RMM:   7    -0.230882616029E+04    0.47827E-04   -0.70237E-05  3193   0.736E-03    0.231E-02
RMM:   8    -0.230882615369E+04    0.65908E-05   -0.22415E-05  2860   0.454E-03
  26 F= -.23293116E+04 E0= -.23293116E+04  d E =-.169625E-01  mag=     2.0000
       N       E                     dE             d eps       ncg     rms          rms(c)
DAV:   1    -0.230872150287E+04    0.10466E+00   -0.11226E+01  4464   0.317E+00    0.869E-01
RMM:   2    -0.230883831753E+04   -0.11681E+00   -0.12013E+00  6187   0.621E-01    0.923E-01
RMM:   3    -0.230883697088E+04    0.13467E-02   -0.11721E-01  5848   0.204E-01    0.354E-01
RMM:   4    -0.230883666008E+04    0.31079E-03   -0.13041E-02  4818   0.431E-02    0.217E-01
RMM:   5    -0.230883611400E+04    0.54608E-03   -0.18708E-03  4885   0.310E-02    0.157E-01
RMM:   6    -0.230883595259E+04    0.16141E-03   -0.12175E-03  5031   0.263E-02    0.756E-02
RMM:   7    -0.230883588554E+04    0.67053E-04   -0.10430E-04  3403   0.823E-03    0.288E-02
RMM:   8    -0.230883587507E+04    0.10471E-04   -0.32133E-05  2872   0.522E-03    0.156E-02
RMM:   9    -0.230883587073E+04    0.43383E-05   -0.23364E-05  2851   0.367E-03
  27 F= -.23293203E+04 E0= -.23293203E+04  d E =-.256585E-01  mag=     2.0000
       N       E                     dE             d eps       ncg     rms          rms(c)
DAV:   1    -0.230873102264E+04    0.10485E+00   -0.11191E+01  4448   0.312E+00    0.855E-01
RMM:   2    -0.230885995629E+04   -0.12893E+00   -0.13087E+00  6195   0.629E-01    0.100E+00
RMM:   3    -0.230885650067E+04    0.34556E-02   -0.12430E-01  5748   0.204E-01    0.352E-01
RMM:   4    -0.230885645692E+04    0.43752E-04   -0.14200E-02  4761   0.429E-02    0.227E-01
RMM:   5    -0.230885609770E+04    0.35921E-03   -0.19547E-03  4980   0.301E-02    0.212E-01
RMM:   6    -0.230885564175E+04    0.45596E-03   -0.17244E-03  5319   0.273E-02    0.587E-02
RMM:   7    -0.230885560592E+04    0.35832E-04   -0.19663E-04  3435   0.917E-03    0.382E-02
RMM:   8    -0.230885558624E+04    0.19681E-04   -0.32652E-05  2862   0.504E-03    0.186E-02
RMM:   9    -0.230885557977E+04    0.64696E-05   -0.31278E-05  2857   0.385E-03
  28 F= -.23293389E+04 E0= -.23293389E+04  d E =-.185305E-01  mag=     2.0000
       N       E                     dE             d eps       ncg     rms          rms(c)
DAV:   1    -0.230871353655E+04    0.14205E+00   -0.13654E+01  4464   0.345E+00    0.950E-01
RMM:   2    -0.230887187719E+04   -0.15834E+00   -0.16065E+00  6210   0.698E-01    0.111E+00
RMM:   3    -0.230886706069E+04    0.48165E-02   -0.15151E-01  5773   0.225E-01    0.386E-01
RMM:   4    -0.230886701592E+04    0.44770E-04   -0.17516E-02  4763   0.475E-02    0.252E-01
RMM:   5    -0.230886658310E+04    0.43281E-03   -0.24161E-03  5000   0.331E-02    0.234E-01
RMM:   6    -0.230886600960E+04    0.57350E-03   -0.20893E-03  5390   0.301E-02    0.632E-02
RMM:   7    -0.230886596706E+04    0.42544E-04   -0.24947E-04  3670   0.104E-02    0.450E-02
RMM:   8    -0.230886594064E+04    0.26415E-04   -0.41816E-05  2870   0.545E-03    0.204E-02
RMM:   9    -0.230886593281E+04    0.78348E-05   -0.40482E-05  2872   0.425E-03
  29 F= -.23293477E+04 E0= -.23293477E+04  d E =-.273288E-01  mag=     2.0000
       N       E                     dE             d eps       ncg     rms          rms(c)
DAV:   1    -0.230874401992E+04    0.12192E+00   -0.12961E+01  4416   0.333E+00    0.947E-01
RMM:   2    -0.230889431436E+04   -0.15029E+00   -0.15357E+00  6226   0.685E-01    0.108E+00
RMM:   3    -0.230888934668E+04    0.49677E-02   -0.14111E-01  5906   0.213E-01    0.377E-01
RMM:   4    -0.230888905265E+04    0.29402E-03   -0.15745E-02  4737   0.456E-02    0.243E-01
RMM:   5    -0.230888852193E+04    0.53072E-03   -0.22655E-03  4948   0.331E-02    0.208E-01
RMM:   6    -0.230888810621E+04    0.41572E-03   -0.17808E-03  5237   0.293E-02    0.684E-02
RMM:   7    -0.230888804807E+04    0.58147E-04   -0.17994E-04  3645   0.930E-03    0.395E-02
RMM:   8    -0.230888802630E+04    0.21767E-04   -0.38094E-05  2860   0.548E-03    0.187E-02
RMM:   9    -0.230888801838E+04    0.79177E-05   -0.34135E-05  2878   0.410E-03
  30 F= -.23293683E+04 E0= -.23293683E+04  d E =-.206150E-01  mag=     2.0000
       N       E                     dE             d eps       ncg     rms          rms(c)
DAV:   1    -0.230874864512E+04    0.13938E+00   -0.13559E+01  4448   0.342E+00    0.970E-01
RMM:   2    -0.230890486675E+04   -0.15622E+00   -0.15986E+00  6220   0.700E-01    0.109E+00
RMM:   3    -0.230890075954E+04    0.41072E-02   -0.15582E-01  5931   0.220E-01    0.386E-01
RMM:   4    -0.230890064901E+04    0.11053E-03   -0.17576E-02  4782   0.466E-02    0.250E-01
RMM:   5    -0.230890008542E+04    0.56359E-03   -0.24714E-03  4953   0.335E-02    0.213E-01
RMM:   6    -0.230889963107E+04    0.45436E-03   -0.18547E-03  5316   0.297E-02    0.714E-02
RMM:   7    -0.230889956657E+04    0.64493E-04   -0.19730E-04  3731   0.976E-03    0.422E-02
RMM:   8    -0.230889954147E+04    0.25099E-04   -0.43054E-05  2875   0.570E-03    0.195E-02
RMM:   9    -0.230889953240E+04    0.90778E-05   -0.37680E-05  2893   0.426E-03
  31 F= -.23293781E+04 E0= -.23293781E+04  d E =-.304101E-01  mag=     2.0000
       N       E                     dE             d eps       ncg     rms          rms(c)
DAV:   1    -0.230873679856E+04    0.16274E+00   -0.15197E+01  4400   0.354E+00    0.104E+00
RMM:   2    -0.230892607636E+04   -0.18928E+00   -0.19464E+00  6238   0.739E-01    0.115E+00
RMM:   3    -0.230892374289E+04    0.23335E-02   -0.19869E-01  5948   0.236E-01    0.415E-01
RMM:   4    -0.230892383607E+04   -0.93177E-04   -0.21633E-02  4828   0.497E-02    0.273E-01
RMM:   5    -0.230892333009E+04    0.50598E-03   -0.28683E-03  5131   0.338E-02    0.236E-01
RMM:   6    -0.230892270064E+04    0.62945E-03   -0.22793E-03  5489   0.306E-02    0.667E-02
RMM:   7    -0.230892265800E+04    0.42639E-04   -0.27687E-04  3861   0.118E-02    0.496E-02
RMM:   8    -0.230892262569E+04    0.32311E-04   -0.61258E-05  2868   0.590E-03    0.193E-02
RMM:   9    -0.230892262077E+04    0.49227E-05   -0.35963E-05  2900   0.399E-03
  32 F= -.23293992E+04 E0= -.23293992E+04  d E =-.211094E-01  mag=     2.0000
       N       E                     dE             d eps       ncg     rms          rms(c)
DAV:   1    -0.230862472807E+04    0.29790E+00   -0.25352E+01  4400   0.458E+00    0.136E+00
RMM:   2    -0.230894540363E+04   -0.32068E+00   -0.32963E+00  6268   0.960E-01    0.150E+00
RMM:   3    -0.230893950358E+04    0.59001E-02   -0.33377E-01  6007   0.304E-01    0.532E-01
RMM:   4    -0.230893966086E+04   -0.15728E-03   -0.36190E-02  4844   0.642E-02    0.356E-01
RMM:   5    -0.230893894416E+04    0.71670E-03   -0.48359E-03  5187   0.431E-02    0.318E-01
RMM:   6    -0.230893774669E+04    0.11975E-02   -0.39881E-03  5524   0.402E-02    0.841E-02
RMM:   7    -0.230893769521E+04    0.51472E-04   -0.51197E-04  4505   0.155E-02    0.683E-02
RMM:   8    -0.230893763498E+04    0.60239E-04   -0.11799E-04  2948   0.740E-03    0.255E-02
RMM:   9    -0.230893762636E+04    0.86135E-05   -0.63313E-05  3010   0.491E-03
  33 F= -.23294113E+04 E0= -.23294113E+04  d E =-.331744E-01  mag=     2.0000
       N       E                     dE             d eps       ncg     rms          rms(c)
DAV:   1    -0.230884348769E+04    0.94147E-01   -0.80984E+00  4408   0.252E+00    0.758E-01
RMM:   2    -0.230895554754E+04   -0.11206E+00   -0.11567E+00  6294   0.536E-01    0.821E-01
RMM:   3    -0.230895647786E+04   -0.93032E-03   -0.12234E-01  5941   0.174E-01    0.312E-01
RMM:   4    -0.230895662495E+04   -0.14709E-03   -0.12718E-02  4957   0.355E-02    0.209E-01
RMM:   5    -0.230895626779E+04    0.35717E-03   -0.14476E-03  5066   0.222E-02    0.164E-01
RMM:   6    -0.230895597476E+04    0.29302E-03   -0.12847E-03  5190   0.223E-02    0.519E-02
RMM:   7    -0.230895594767E+04    0.27095E-04   -0.13613E-04  3182   0.900E-03    0.335E-02
RMM:   8    -0.230895593321E+04    0.14456E-04   -0.40201E-05  2851   0.500E-03    0.141E-02
RMM:   9    -0.230895593152E+04    0.16963E-05   -0.16578E-05  2865   0.278E-03
  34 F= -.23294275E+04 E0= -.23294275E+04  d E =-.162047E-01  mag=     2.0000
       N       E                     dE             d eps       ncg     rms          rms(c)
DAV:   1    -0.230793691688E+04    0.10190E+01   -0.72529E+01  4400   0.757E+00    0.241E+00
RMM:   2    -0.230908761431E+04   -0.11507E+01   -0.11431E+01  6299   0.169E+00    0.468E+00
RMM:   3    -0.230899698805E+04    0.90626E-01   -0.12368E+00  5871   0.551E-01    0.131E+00
RMM:   4    -0.230900961305E+04   -0.12625E-01   -0.15128E-01  5597   0.129E-01    0.794E-01
RMM:   5    -0.230900354608E+04    0.60670E-02   -0.11346E-02  5577   0.566E-02    0.648E-01
RMM:   6    -0.230899918572E+04    0.43604E-02   -0.13057E-02  4713   0.642E-02    0.270E-01
RMM:   7    -0.230899898123E+04    0.20449E-03   -0.35075E-03  4604   0.500E-02    0.167E-01
RMM:   8    -0.230899899346E+04   -0.12233E-04   -0.65554E-04  4498   0.149E-02    0.953E-02
RMM:   9    -0.230899888373E+04    0.10973E-03   -0.16006E-04  3335   0.113E-02    0.421E-02
RMM:  10    -0.230899887454E+04    0.91902E-05   -0.12964E-04  3393   0.639E-03    0.176E-02
RMM:  11    -0.230899887550E+04   -0.96398E-06   -0.12793E-05  2837   0.408E-03
  35 F= -.23294630E+04 E0= -.23294630E+04  d E =-.517448E-01  mag=     2.0000
       N       E                     dE             d eps       ncg     rms          rms(c)
DAV:   1    -0.230418695828E+04    0.48119E+01   -0.28762E+02  4384   0.153E+01    0.556E+00
RMM:   2    -0.231067121192E+04   -0.64843E+01   -0.59921E+01  6353   0.369E+00    0.111E+01
RMM:   3    -0.230900357718E+04    0.16676E+01   -0.51497E+00  5833   0.124E+00    0.344E+00
RMM:   4    -0.230898446394E+04    0.19113E-01   -0.76651E-01  6292   0.308E-01    0.175E+00
RMM:   5    -0.230896248767E+04    0.21976E-01   -0.64615E-02  5549   0.120E-01    0.142E+00
RMM:   6    -0.230893890807E+04    0.23580E-01   -0.44524E-02  4930   0.113E-01    0.686E-01
RMM:   7    -0.230893520990E+04    0.36982E-02   -0.17341E-02  5035   0.931E-02    0.315E-01
RMM:   8    -0.230893588282E+04   -0.67291E-03   -0.36660E-03  5098   0.406E-02    0.171E-01
RMM:   9    -0.230893583939E+04    0.43424E-04   -0.67471E-04  4505   0.244E-02    0.103E-01
RMM:  10    -0.230893576185E+04    0.77545E-04   -0.30387E-04  3906   0.990E-03    0.666E-02
RMM:  11    -0.230893576575E+04   -0.39025E-05   -0.11048E-04  3128   0.717E-03    0.502E-02
RMM:  12    -0.230893575353E+04    0.12219E-04   -0.77020E-05  2960   0.622E-03    0.170E-02
RMM:  13    -0.230893575833E+04   -0.48017E-05   -0.17426E-05  2842   0.429E-03
  36 F= -.23293839E+04 E0= -.23293839E+04  d E =0.274005E-01  mag=     2.0000
       N       E                     dE             d eps       ncg     rms          rms(c)
DAV:   1    -0.230554182435E+04    0.33939E+01   -0.21399E+02  4384   0.130E+01    0.381E+00
RMM:   2    -0.230915373193E+04   -0.36119E+01   -0.35175E+01  6337   0.289E+00    0.609E+00
RMM:   3    -0.230904061272E+04    0.11312E+00   -0.36573E+00  5967   0.869E-01    0.300E+00
RMM:   4    -0.230901545708E+04    0.25156E-01   -0.28870E-01  5871   0.207E-01    0.157E+00
RMM:   5    -0.230902133823E+04   -0.58812E-02   -0.41662E-02  5094   0.903E-02    0.120E+00
RMM:   6    -0.230901088808E+04    0.10450E-01   -0.37911E-02  5351   0.106E-01    0.771E-01
RMM:   7    -0.230900646016E+04    0.44279E-02   -0.17138E-02  5473   0.774E-02    0.317E-01
RMM:   8    -0.230900609202E+04    0.36814E-03   -0.37837E-03  4927   0.386E-02    0.133E-01
RMM:   9    -0.230900601109E+04    0.80931E-04   -0.45572E-04  4322   0.235E-02    0.669E-02
RMM:  10    -0.230900599683E+04    0.14258E-04   -0.23735E-04  3840   0.879E-03    0.359E-02
RMM:  11    -0.230900601540E+04   -0.18572E-04   -0.41488E-05  2919   0.598E-03    0.189E-02
RMM:  12    -0.230900601739E+04   -0.19909E-05   -0.10400E-05  2829   0.339E-03
  37 F= -.23294678E+04 E0= -.23294678E+04  d E =-.565437E-01  mag=     2.0000
       N       E                     dE             d eps       ncg     rms          rms(c)
DAV:   1    -0.230880857370E+04    0.19744E+00   -0.14819E+01  4400   0.334E+00    0.112E+00
RMM:   2    -0.230905377902E+04   -0.24521E+00   -0.25041E+00  6318   0.751E-01    0.132E+00
RMM:   3    -0.230904903916E+04    0.47399E-02   -0.26188E-01  5801   0.252E-01    0.445E-01
RMM:   4    -0.230904914449E+04   -0.10533E-03   -0.26324E-02  5275   0.521E-02    0.305E-01
RMM:   5    -0.230904843161E+04    0.71288E-03   -0.28750E-03  5064   0.290E-02    0.243E-01
RMM:   6    -0.230904769198E+04    0.73962E-03   -0.26572E-03  5411   0.306E-02    0.672E-02
RMM:   7    -0.230904765530E+04    0.36683E-04   -0.30058E-04  3848   0.126E-02    0.474E-02
RMM:   8    -0.230904763300E+04    0.22299E-04   -0.84341E-05  2901   0.607E-03    0.194E-02
RMM:   9    -0.230904763117E+04    0.18323E-05   -0.17813E-05  2866   0.335E-03
  38 F= -.23295051E+04 E0= -.23295051E+04  d E =-.372719E-01  mag=     2.0000
       N       E                     dE             d eps       ncg     rms          rms(c)
DAV:   1    -0.230681465246E+04    0.22330E+01   -0.13292E+02  4392   0.101E+01    0.375E+00
RMM:   2    -0.230974756596E+04   -0.29329E+01   -0.27549E+01  6366   0.247E+00    0.728E+00
RMM:   3    -0.230913063868E+04    0.61693E+00   -0.26402E+00  5578   0.831E-01    0.219E+00
RMM:   4    -0.230915223043E+04   -0.21592E-01   -0.34190E-01  6096   0.202E-01    0.121E+00
RMM:   5    -0.230914219226E+04    0.10038E-01   -0.21725E-02  5342   0.730E-02    0.103E+00
RMM:   6    -0.230913174749E+04    0.10445E-01   -0.26453E-02  4989   0.806E-02    0.532E-01
RMM:   7    -0.230913078166E+04    0.96583E-03   -0.12676E-02  5091   0.664E-02    0.395E-01
RMM:   8    -0.230913061713E+04    0.16453E-03   -0.22287E-03  5619   0.285E-02    0.216E-01
RMM:   9    -0.230913052676E+04    0.90363E-04   -0.79462E-04  4665   0.160E-02    0.115E-01
RMM:  10    -0.230913048389E+04    0.42875E-04   -0.34079E-04  3813   0.111E-02    0.480E-02
RMM:  11    -0.230913050068E+04   -0.16791E-04   -0.69889E-05  3049   0.606E-03    0.336E-02
RMM:  12    -0.230913049354E+04    0.71414E-05   -0.29892E-05  2857   0.484E-03
  39 F= -.23295765E+04 E0= -.23295765E+04  d E =-.108659E+00  mag=     2.0000
       N       E                     dE             d eps       ncg     rms          rms(c)
DAV:   1    -0.230876181153E+04    0.36869E+00   -0.22765E+01  4400   0.386E+00    0.155E+00
RMM:   2    -0.230925551619E+04   -0.49370E+00   -0.48419E+00  6407   0.103E+00    0.239E+00
RMM:   3    -0.230921181702E+04    0.43699E-01   -0.49994E-01  5391   0.341E-01    0.674E-01
RMM:   4    -0.230921142058E+04    0.39644E-03   -0.56282E-02  5808   0.768E-02    0.423E-01
RMM:   5    -0.230921001720E+04    0.14034E-02   -0.48798E-03  5412   0.336E-02    0.352E-01
RMM:   6    -0.230920840191E+04    0.16153E-02   -0.42641E-03  5382   0.342E-02    0.119E-01
RMM:   7    -0.230920838187E+04    0.20032E-04   -0.89966E-04  4561   0.197E-02    0.952E-02
RMM:   8    -0.230920831162E+04    0.70256E-04   -0.15064E-04  3384   0.753E-03    0.286E-02
RMM:   9    -0.230920832592E+04   -0.14302E-04   -0.38474E-05  2908   0.527E-03    0.209E-02
RMM:  10    -0.230920832586E+04    0.61686E-07   -0.10664E-05  2832   0.320E-03
  40 F= -.23296503E+04 E0= -.23296503E+04  d E =-.738446E-01  mag=     2.0000
       N       E                     dE             d eps       ncg     rms          rms(c)
DAV:   1    -0.230748136594E+04    0.17270E+01   -0.87749E+01  4392   0.767E+00    0.327E+00
RMM:   2    -0.230973482735E+04   -0.22535E+01   -0.21576E+01  6429   0.219E+00    0.612E+00
RMM:   3    -0.230929304773E+04    0.44178E+00   -0.19554E+00  4996   0.733E-01    0.186E+00
RMM:   4    -0.230928966231E+04    0.33854E-02   -0.27290E-01  6114   0.181E-01    0.100E+00
RMM:   5    -0.230928209111E+04    0.75712E-02   -0.19333E-02  5552   0.650E-02    0.768E-01
RMM:   6    -0.230927444211E+04    0.76490E-02   -0.16736E-02  5411   0.636E-02    0.308E-01
RMM:   7    -0.230927404108E+04    0.40103E-03   -0.35075E-03  5063   0.407E-02    0.195E-01
RMM:   8    -0.230927389020E+04    0.15088E-03   -0.96409E-04  4738   0.193E-02    0.985E-02
RMM:   9    -0.230927402008E+04   -0.12988E-03   -0.33588E-04  4155   0.136E-02    0.808E-02
RMM:  10    -0.230927399276E+04    0.27316E-04   -0.10199E-04  2986   0.671E-03    0.371E-02
RMM:  11    -0.230927398690E+04    0.58627E-05   -0.55496E-05  2897   0.462E-03
  41 F= -.23297096E+04 E0= -.23297096E+04  d E =-.133185E+00  mag=     2.0000
       N       E                     dE             d eps       ncg     rms          rms(c)
DAV:   1    -0.230875509619E+04    0.51890E+00   -0.25420E+01  4408   0.417E+00    0.177E+00
RMM:   2    -0.230937521645E+04   -0.62012E+00   -0.61517E+00  6406   0.124E+00    0.267E+00
RMM:   3    -0.230932053411E+04    0.54682E-01   -0.61882E-01  5355   0.391E-01    0.721E-01
RMM:   4    -0.230932039903E+04    0.13508E-03   -0.71486E-02  5844   0.895E-02    0.459E-01
RMM:   5    -0.230931829819E+04    0.21008E-02   -0.57000E-03  5758   0.376E-02    0.368E-01
RMM:   6    -0.230931624987E+04    0.20483E-02   -0.54694E-03  5153   0.380E-02    0.130E-01
RMM:   7    -0.230931620289E+04    0.46983E-04   -0.10457E-03  4682   0.241E-02    0.115E-01
RMM:   8    -0.230931611257E+04    0.90324E-04   -0.22052E-04  3899   0.864E-03    0.389E-02
RMM:   9    -0.230931611789E+04   -0.53225E-05   -0.46796E-05  2904   0.614E-03
  42 F= -.23297483E+04 E0= -.23297483E+04  d E =-.386190E-01  mag=     2.0000
       N       E                     dE             d eps       ncg     rms          rms(c)
DAV:   1    -0.230931465439E+04    0.14582E-02   -0.65005E-02  4960   0.212E-01    0.811E-02
RMM:   2    -0.230931607711E+04   -0.14227E-02   -0.14375E-02  6367   0.586E-02    0.102E-01
RMM:   3    -0.230931607689E+04    0.22352E-06   -0.14999E-03  3308   0.188E-02    0.336E-02
RMM:   4    -0.230931607256E+04    0.43237E-05   -0.13828E-04  2916   0.509E-03    0.220E-02
RMM:   5    -0.230931606330E+04    0.92630E-05   -0.28061E-05  2920   0.359E-03
  43 F= -.23297484E+04 E0= -.23297484E+04  d E =-.387404E-01  mag=     2.0000
       N       E                     dE             d eps       ncg     rms          rms(c)
DAV:   1    -0.230933555657E+04   -0.19484E-01   -0.16962E+00  4448   0.131E+00    0.353E-01
RMM:   2    -0.230934642588E+04   -0.10869E-01   -0.11741E-01  5985   0.233E-01    0.185E-01
RMM:   3    -0.230934702744E+04   -0.60156E-03   -0.11629E-02  5524   0.794E-02    0.179E-01
RMM:   4    -0.230934683468E+04    0.19276E-03   -0.14005E-03  5082   0.203E-02    0.991E-02
RMM:   5    -0.230934669662E+04    0.13806E-03   -0.50688E-04  4695   0.162E-02    0.512E-02
RMM:   6    -0.230934668025E+04    0.16367E-04   -0.12135E-04  3800   0.109E-02    0.253E-02
RMM:   7    -0.230934667393E+04    0.63159E-05   -0.21975E-05  2867   0.447E-03
  44 F= -.23297790E+04 E0= -.23297790E+04  d E =-.306673E-01  mag=     2.0000
       N       E                     dE             d eps       ncg     rms          rms(c)
DAV:   1    -0.230931327458E+04    0.33406E-01   -0.98292E+00  4400   0.315E+00    0.850E-01
RMM:   2    -0.230937652497E+04   -0.63250E-01   -0.68473E-01  5956   0.559E-01    0.440E-01
RMM:   3    -0.230937987273E+04   -0.33478E-02   -0.68740E-02  5531   0.193E-01    0.423E-01
RMM:   4    -0.230937892480E+04    0.94794E-03   -0.81200E-03  5786   0.485E-02    0.244E-01
RMM:   5    -0.230937804411E+04    0.88068E-03   -0.24072E-03  4792   0.343E-02    0.119E-01
RMM:   6    -0.230937796458E+04    0.79536E-04   -0.72993E-04  4854   0.247E-02    0.545E-02
RMM:   7    -0.230937793551E+04    0.29066E-04   -0.13721E-04  4010   0.965E-03    0.298E-02
RMM:   8    -0.230937792818E+04    0.73355E-05   -0.27079E-05  2912   0.570E-03
  45 F= -.23298104E+04 E0= -.23298104E+04  d E =-.620473E-01  mag=     2.0000
       N       E                     dE             d eps       ncg     rms          rms(c)
DAV:   1    -0.230939045037E+04   -0.12515E-01   -0.88245E-01  4544   0.974E-01    0.240E-01
RMM:   2    -0.230939672159E+04   -0.62712E-02   -0.67603E-02  6100   0.179E-01    0.140E-01
RMM:   3    -0.230939706274E+04   -0.34116E-03   -0.66496E-03  5360   0.607E-02    0.861E-02
RMM:   4    -0.230939704890E+04    0.13849E-04   -0.70798E-04  4581   0.140E-02    0.759E-02
RMM:   5    -0.230939700482E+04    0.44073E-04   -0.24639E-04  4197   0.115E-02    0.439E-02
RMM:   6    -0.230939698713E+04    0.17697E-04   -0.62694E-05  3306   0.684E-03    0.168E-02
RMM:   7    -0.230939698537E+04    0.17551E-05   -0.13408E-05  2840   0.492E-03
  46 F= -.23298297E+04 E0= -.23298297E+04  d E =-.192671E-01  mag=     2.0000
       N       E                     dE             d eps       ncg     rms          rms(c)
DAV:   1    -0.230937841853E+04    0.18569E-01   -0.79353E+00  4400   0.292E+00    0.717E-01
RMM:   2    -0.230943438612E+04   -0.55968E-01   -0.60609E-01  6038   0.532E-01    0.411E-01
RMM:   3    -0.230943743018E+04   -0.30441E-02   -0.62341E-02  5474   0.188E-01    0.250E-01
RMM:   4    -0.230943733268E+04    0.97498E-04   -0.64235E-03  5191   0.413E-02    0.218E-01
RMM:   5    -0.230943693325E+04    0.39943E-03   -0.20206E-03  5393   0.312E-02    0.132E-01
RMM:   6    -0.230943673555E+04    0.19770E-03   -0.54262E-04  5048   0.166E-02    0.460E-02
RMM:   7    -0.230943671804E+04    0.17507E-04   -0.80845E-05  3389   0.988E-03    0.212E-02
RMM:   8    -0.230943671523E+04    0.28135E-05   -0.24902E-05  2898   0.443E-03
  47 F= -.23298700E+04 E0= -.23298700E+04  d E =-.596185E-01  mag=     2.0000
       N       E                     dE             d eps       ncg     rms          rms(c)
DAV:   1    -0.230920203496E+04    0.23468E+00   -0.31784E+01  4400   0.584E+00    0.144E+00
RMM:   2    -0.230942810260E+04   -0.22607E+00   -0.24515E+00  6073   0.106E+00    0.854E-01
RMM:   3    -0.230944062333E+04   -0.12521E-01   -0.26576E-01  5469   0.368E-01    0.568E-01
RMM:   4    -0.230943988670E+04    0.73663E-03   -0.26688E-02  5745   0.859E-02    0.497E-01
RMM:   5    -0.230943697831E+04    0.29084E-02   -0.71863E-03  5414   0.560E-02    0.215E-01
RMM:   6    -0.230943651230E+04    0.46601E-03   -0.27468E-03  5021   0.366E-02    0.822E-02
RMM:   7    -0.230943645580E+04    0.56501E-04   -0.36114E-04  4623   0.224E-02    0.508E-02
RMM:   8    -0.230943642764E+04    0.28158E-04   -0.11605E-04  3371   0.726E-03    0.306E-02
RMM:   9    -0.230943640876E+04    0.18877E-04   -0.41995E-05  3024   0.557E-03    0.143E-02
RMM:  10    -0.230943640316E+04    0.56016E-05   -0.14725E-05  2847   0.436E-03
  48 F= -.23298709E+04 E0= -.23298709E+04  d E =-.604730E-01  mag=     2.0000
       N       E                     dE             d eps       ncg     rms          rms(c)
DAV:   1    -0.230939256542E+04    0.43843E-01   -0.79042E+00  4400   0.291E+00    0.711E-01
RMM:   2    -0.230944813452E+04   -0.55569E-01   -0.60105E-01  6076   0.532E-01    0.411E-01
RMM:   3    -0.230945138883E+04   -0.32543E-02   -0.60615E-02  5470   0.186E-01    0.312E-01
RMM:   4    -0.230945082560E+04    0.56323E-03   -0.64808E-03  5856   0.412E-02    0.221E-01
RMM:   5    -0.230945022305E+04    0.60255E-03   -0.24658E-03  5225   0.322E-02    0.100E-01
RMM:   6    -0.230945016369E+04    0.59361E-04   -0.50691E-04  5001   0.176E-02    0.586E-02
RMM:   7    -0.230945011501E+04    0.48679E-04   -0.10961E-04  3517   0.765E-03    0.295E-02
RMM:   8    -0.230945010845E+04    0.65578E-05   -0.28580E-05  2854   0.577E-03
  49 F= -.23298840E+04 E0= -.23298840E+04  d E =-.736135E-01  mag=     2.0000
       N       E                     dE             d eps       ncg     rms          rms(c)
DAV:   1    -0.230946182019E+04   -0.11705E-01   -0.37309E+00  4432   0.198E+00    0.499E-01
RMM:   2    -0.230947753288E+04   -0.15713E-01   -0.17201E-01  5751   0.329E-01    0.303E-01
RMM:   3    -0.230947746055E+04    0.72327E-04   -0.12432E-02  5230   0.112E-01    0.247E-01
RMM:   4    -0.230947678764E+04    0.67291E-03   -0.20977E-03  5514   0.310E-02    0.142E-01
RMM:   5    -0.230947649980E+04    0.28784E-03   -0.93164E-04  4982   0.238E-02    0.576E-02
RMM:   6    -0.230947646249E+04    0.37309E-04   -0.25149E-04  4694   0.140E-02    0.293E-02
RMM:   7    -0.230947644492E+04    0.17576E-04   -0.41203E-05  3111   0.625E-03    0.135E-02
RMM:   8    -0.230947643939E+04    0.55321E-05   -0.12857E-05  2857   0.409E-03
  50 F= -.23299110E+04 E0= -.23299110E+04  d E =-.269260E-01  mag=     2.0000
       N       E                     dE             d eps       ncg     rms          rms(c)
DAV:   1    -0.230946383615E+04    0.12609E-01   -0.62660E+00  4432   0.257E+00    0.648E-01
RMM:   2    -0.230949037275E+04   -0.26537E-01   -0.29042E-01  5727   0.427E-01    0.396E-01
RMM:   3    -0.230949023968E+04    0.13307E-03   -0.21552E-02  5194   0.148E-01    0.318E-01
RMM:   4    -0.230948912645E+04    0.11132E-02   -0.35918E-03  5495   0.403E-02    0.184E-01
RMM:   5    -0.230948864433E+04    0.48212E-03   -0.15233E-03  4995   0.309E-02    0.732E-02
RMM:   6    -0.230948858957E+04    0.54760E-04   -0.41737E-04  4973   0.179E-02    0.378E-02
RMM:   7    -0.230948856231E+04    0.27259E-04   -0.67846E-05  3319   0.763E-03    0.179E-02
RMM:   8    -0.230948855372E+04    0.85938E-05   -0.20566E-05  2871   0.483E-03
  51 F= -.23299238E+04 E0= -.23299238E+04  d E =-.397603E-01  mag=     2.0000
       N       E                     dE             d eps       ncg     rms          rms(c)
DAV:   1    -0.230949064471E+04   -0.20824E-02   -0.26271E+00  4480   0.164E+00    0.403E-01
RMM:   2    -0.230950795113E+04   -0.17306E-01   -0.18357E-01  5998   0.289E-01    0.295E-01
RMM:   3    -0.230950832245E+04   -0.37132E-03   -0.16600E-02  5270   0.967E-02    0.196E-01
RMM:   4    -0.230950796362E+04    0.35883E-03   -0.19417E-03  5091   0.239E-02    0.117E-01
RMM:   5    -0.230950777420E+04    0.18943E-03   -0.73213E-04  5140   0.203E-02    0.432E-02
RMM:   6    -0.230950777152E+04    0.26736E-05   -0.11435E-04  4286   0.103E-02    0.213E-02
RMM:   7    -0.230950776831E+04    0.32109E-05   -0.20991E-05  2896   0.421E-03
  52 F= -.23299435E+04 E0= -.23299435E+04  d E =-.196672E-01  mag=     2.0000
       N       E                     dE             d eps       ncg     rms          rms(c)
DAV:   1    -0.230945886912E+04    0.48902E-01   -0.97160E+00  4432   0.316E+00    0.776E-01
RMM:   2    -0.230952257079E+04   -0.63702E-01   -0.67713E-01  5986   0.558E-01    0.568E-01
RMM:   3    -0.230952436514E+04   -0.17944E-02   -0.65615E-02  5333   0.190E-01    0.386E-01
RMM:   4    -0.230952295759E+04    0.14076E-02   -0.72637E-03  5415   0.466E-02    0.226E-01
RMM:   5    -0.230952222765E+04    0.72994E-03   -0.28685E-03  5118   0.383E-02    0.812E-02
RMM:   6    -0.230952221648E+04    0.11166E-04   -0.41405E-04  4887   0.200E-02    0.417E-02
RMM:   7    -0.230952219319E+04    0.23296E-04   -0.74227E-05  3340   0.746E-03    0.221E-02
RMM:   8    -0.230952218533E+04    0.78606E-05   -0.36319E-05  2981   0.584E-03
  53 F= -.23299587E+04 E0= -.23299587E+04  d E =-.348804E-01  mag=     2.0000
       N       E                     dE             d eps       ncg     rms          rms(c)
DAV:   1    -0.230949832350E+04    0.23870E-01   -0.38965E+00  4440   0.199E+00    0.532E-01
RMM:   2    -0.230953853193E+04   -0.40208E-01   -0.42682E-01  6076   0.384E-01    0.402E-01
RMM:   3    -0.230954088075E+04   -0.23488E-02   -0.47359E-02  5310   0.140E-01    0.264E-01
RMM:   4    -0.230954034745E+04    0.53330E-03   -0.42850E-03  5380   0.301E-02    0.159E-01
RMM:   5    -0.230953997886E+04    0.36859E-03   -0.12130E-03  5133   0.233E-02    0.627E-02
RMM:   6    -0.230953997316E+04    0.56925E-05   -0.21516E-04  4563   0.134E-02    0.323E-02
RMM:   7    -0.230953996462E+04    0.85443E-05   -0.45666E-05  3065   0.557E-03
  54 F= -.23299768E+04 E0= -.23299768E+04  d E =-.180931E-01  mag=     2.0000
       N       E                     dE             d eps       ncg     rms          rms(c)
DAV:   1    -0.230949474320E+04    0.45230E-01   -0.48187E+00  4432   0.221E+00    0.594E-01
RMM:   2    -0.230954456050E+04   -0.49817E-01   -0.52870E-01  6107   0.428E-01    0.459E-01
RMM:   3    -0.230954755189E+04   -0.29914E-02   -0.60811E-02  5285   0.153E-01    0.304E-01
RMM:   4    -0.230954684239E+04    0.70949E-03   -0.55619E-03  5498   0.344E-02    0.180E-01
RMM:   5    -0.230954636326E+04    0.47913E-03   -0.15192E-03  5150   0.255E-02    0.710E-02
RMM:   6    -0.230954635156E+04    0.11701E-04   -0.28249E-04  4586   0.150E-02    0.345E-02
RMM:   7    -0.230954633823E+04    0.13334E-04   -0.51001E-05  3205   0.622E-03    0.255E-02
RMM:   8    -0.230954632888E+04    0.93441E-05   -0.33189E-05  2850   0.497E-03
  55 F= -.23299834E+04 E0= -.23299834E+04  d E =-.247618E-01  mag=     2.0000
       N       E                     dE             d eps       ncg     rms          rms(c)
DAV:   1    -0.230951582033E+04    0.30518E-01   -0.40213E+00  4432   0.201E+00    0.545E-01
RMM:   2    -0.230955694153E+04   -0.41121E-01   -0.44388E-01  6038   0.373E-01    0.310E-01
RMM:   3    -0.230956006369E+04   -0.31222E-02   -0.45792E-02  5639   0.137E-01    0.216E-01
RMM:   4    -0.230955996867E+04    0.95020E-04   -0.46091E-03  5447   0.301E-02    0.168E-01
RMM:   5    -0.230955964141E+04    0.32726E-03   -0.12491E-03  5222   0.232E-02    0.773E-02
RMM:   6    -0.230955960857E+04    0.32844E-04   -0.23416E-04  4557   0.123E-02    0.339E-02
RMM:   7    -0.230955960177E+04    0.68010E-05   -0.46201E-05  2979   0.653E-03
  56 F= -.23299969E+04 E0= -.23299969E+04  d E =-.134463E-01  mag=     2.0000
       N       E                     dE             d eps       ncg     rms          rms(c)
DAV:   1    -0.230954234494E+04    0.17264E-01   -0.17949E+00  4480   0.134E+00    0.367E-01
RMM:   2    -0.230956083155E+04   -0.18487E-01   -0.19945E-01  6057   0.250E-01    0.217E-01
RMM:   3    -0.230956220183E+04   -0.13703E-02   -0.20497E-02  5587   0.892E-02    0.151E-01
RMM:   4    -0.230956213119E+04    0.70639E-04   -0.20794E-03  5034   0.203E-02    0.115E-01
RMM:   5    -0.230956197589E+04    0.15529E-03   -0.59024E-04  4857   0.160E-02    0.494E-02
RMM:   6    -0.230956196733E+04    0.85650E-05   -0.10648E-04  3792   0.910E-03    0.228E-02
RMM:   7    -0.230956196421E+04    0.31176E-05   -0.24247E-05  2892   0.499E-03
  57 F= -.23299994E+04 E0= -.23299993E+04  d E =-.159113E-01  mag=     2.0000
       N       E                     dE             d eps       ncg     rms          rms(c)
DAV:   1    -0.230955011076E+04    0.11857E-01   -0.17331E+00  4448   0.133E+00    0.349E-01
RMM:   2    -0.230956934592E+04   -0.19235E-01   -0.20863E-01  6126   0.265E-01    0.178E-01
RMM:   3    -0.230957082555E+04   -0.14796E-02   -0.21492E-02  5636   0.887E-02    0.117E-01
RMM:   4    -0.230957083630E+04   -0.10754E-04   -0.19447E-03  4645   0.199E-02    0.771E-02
RMM:   5    -0.230957080464E+04    0.31662E-04   -0.27782E-04  4520   0.137E-02    0.598E-02
RMM:   6    -0.230957077302E+04    0.31620E-04   -0.95410E-05  3034   0.795E-03    0.277E-02
RMM:   7    -0.230957077144E+04    0.15757E-05   -0.17578E-05  2844   0.492E-03
  58 F= -.23300080E+04 E0= -.23300080E+04  d E =-.867382E-02  mag=     2.0000
       N       E                     dE             d eps       ncg     rms          rms(c)
DAV:   1    -0.230941459331E+04    0.15618E+00   -0.13213E+01  4432   0.369E+00    0.968E-01
RMM:   2    -0.230956130241E+04   -0.14671E+00   -0.15918E+00  6139   0.738E-01    0.507E-01
RMM:   3    -0.230957320497E+04   -0.11903E-01   -0.17385E-01  5749   0.246E-01    0.350E-01
RMM:   4    -0.230957326059E+04   -0.55626E-04   -0.15214E-02  5379   0.534E-02    0.238E-01
RMM:   5    -0.230957277306E+04    0.48753E-03   -0.21919E-03  5002   0.324E-02    0.162E-01
RMM:   6    -0.230957253607E+04    0.23700E-03   -0.94889E-04  5097   0.224E-02    0.807E-02
RMM:   7    -0.230957256531E+04   -0.29243E-04   -0.27809E-04  4118   0.128E-02    0.682E-02
RMM:   8    -0.230957252306E+04    0.42247E-04   -0.10187E-04  2985   0.696E-03    0.430E-02
RMM:   9    -0.230957251099E+04    0.12076E-04   -0.26720E-05  2837   0.421E-03    0.231E-02
RMM:  10    -0.230957250563E+04    0.53583E-05   -0.25565E-05  2859   0.346E-03
  59 F= -.23300094E+04 E0= -.23300094E+04  d E =-.100172E-01  mag=     2.0000
       N       E                     dE             d eps       ncg     rms          rms(c)
DAV:   1    -0.230954225349E+04    0.30258E-01   -0.28216E+00  4432   0.171E+00    0.445E-01
RMM:   2    -0.230957357421E+04   -0.31321E-01   -0.33943E-01  6157   0.338E-01    0.228E-01
RMM:   3    -0.230957591403E+04   -0.23398E-02   -0.34602E-02  5683   0.110E-01    0.146E-01
RMM:   4    -0.230957599623E+04   -0.82205E-04   -0.31723E-03  4882   0.256E-02    0.117E-01
RMM:   5    -0.230957583087E+04    0.16537E-03   -0.46963E-04  4801   0.163E-02    0.564E-02
RMM:   6    -0.230957581347E+04    0.17393E-04   -0.14041E-04  4121   0.958E-03    0.259E-02
RMM:   7    -0.230957581502E+04   -0.15490E-05   -0.25273E-05  2872   0.642E-03
  60 F= -.23300129E+04 E0= -.23300129E+04  d E =-.135111E-01  mag=     2.0000
       N       E                     dE             d eps       ncg     rms          rms(c)
DAV:   1    -0.230956944344E+04    0.63700E-02   -0.10223E+00  4448   0.104E+00    0.270E-01
RMM:   2    -0.230958143659E+04   -0.11993E-01   -0.12970E-01  6169   0.213E-01    0.135E-01
RMM:   3    -0.230958234880E+04   -0.91221E-03   -0.13324E-02  5614   0.669E-02    0.851E-02
RMM:   4    -0.230958240046E+04   -0.51663E-04   -0.11996E-03  4519   0.157E-02    0.896E-02
RMM:   5    -0.230958231246E+04    0.88000E-04   -0.19747E-04  3501   0.102E-02    0.400E-02
RMM:   6    -0.230958229823E+04    0.14231E-04   -0.80137E-05  3727   0.720E-03    0.155E-02
RMM:   7    -0.230958229763E+04    0.59896E-06   -0.11547E-05  2833   0.538E-03
  61 F= -.23300192E+04 E0= -.23300192E+04  d E =-.635919E-02  mag=     2.0000
       N       E                     dE             d eps       ncg     rms          rms(c)
DAV:   1    -0.230948329059E+04    0.99008E-01   -0.84193E+00  4432   0.298E+00    0.783E-01
RMM:   2    -0.230958208837E+04   -0.98798E-01   -0.10706E+00  6172   0.617E-01    0.391E-01
RMM:   3    -0.230959001648E+04   -0.79281E-02   -0.11647E-01  5823   0.191E-01    0.259E-01
RMM:   4    -0.230959021420E+04   -0.19772E-03   -0.10055E-02  5333   0.431E-02    0.193E-01
RMM:   5    -0.230958997437E+04    0.23984E-03   -0.13900E-03  5304   0.249E-02    0.145E-01
RMM:   6    -0.230958977357E+04    0.20080E-03   -0.79485E-04  5215   0.185E-02    0.844E-02
RMM:   7    -0.230958973367E+04    0.39903E-04   -0.20803E-04  3753   0.112E-02    0.548E-02
RMM:   8    -0.230958971281E+04    0.20858E-04   -0.51123E-05  2887   0.540E-03    0.300E-02
RMM:   9    -0.230958970650E+04    0.63051E-05   -0.22211E-05  2839   0.329E-03
  62 F= -.23300263E+04 E0= -.23300263E+04  d E =-.134025E-01  mag=     2.0000
       N       E                     dE             d eps       ncg     rms          rms(c)
DAV:   1    -0.230957803475E+04    0.11678E-01   -0.17307E+00  4448   0.135E+00    0.321E-01
RMM:   2    -0.230959428579E+04   -0.16251E-01   -0.17518E-01  6142   0.259E-01    0.171E-01
RMM:   3    -0.230959534100E+04   -0.10552E-02   -0.17050E-02  5640   0.783E-02    0.110E-01
RMM:   4    -0.230959538021E+04   -0.39214E-04   -0.17256E-03  4755   0.192E-02    0.103E-01
RMM:   5    -0.230959527413E+04    0.10608E-03   -0.38631E-04  4525   0.138E-02    0.517E-02
RMM:   6    -0.230959525177E+04    0.22366E-04   -0.10615E-04  3907   0.797E-03    0.220E-02
RMM:   7    -0.230959525081E+04    0.96009E-06   -0.21034E-05  2858   0.579E-03
  63 F= -.23300320E+04 E0= -.23300320E+04  d E =-.575866E-02  mag=     2.0000
       N       E                     dE             d eps       ncg     rms          rms(c)
DAV:   1    -0.230957581039E+04    0.19441E-01   -0.21273E+00  4432   0.150E+00    0.358E-01
RMM:   2    -0.230959576989E+04   -0.19959E-01   -0.21531E-01  6147   0.287E-01    0.189E-01
RMM:   3    -0.230959706850E+04   -0.12986E-02   -0.20811E-02  5646   0.870E-02    0.122E-01
RMM:   4    -0.230959712489E+04   -0.56389E-04   -0.21051E-03  4901   0.211E-02    0.120E-01
RMM:   5    -0.230959697164E+04    0.15325E-03   -0.47567E-04  4737   0.151E-02    0.538E-02
RMM:   6    -0.230959694811E+04    0.23522E-04   -0.13869E-04  4113   0.864E-03    0.271E-02
RMM:   7    -0.230959694444E+04    0.36688E-05   -0.30572E-05  2892   0.633E-03
  64 F= -.23300340E+04 E0= -.23300339E+04  d E =-.768960E-02  mag=     2.0000
       N       E                     dE             d eps       ncg     rms          rms(c)
DAV:   1    -0.230959220777E+04    0.47403E-02   -0.13354E+00  4440   0.121E+00    0.301E-01
RMM:   2    -0.230960208158E+04   -0.98738E-02   -0.10449E-01  6134   0.224E-01    0.198E-01
RMM:   3    -0.230960227019E+04   -0.18861E-03   -0.85396E-03  5433   0.658E-02    0.136E-01
RMM:   4    -0.230960207333E+04    0.19686E-03   -0.10167E-03  4865   0.171E-02    0.780E-02
RMM:   5    -0.230960198325E+04    0.90080E-04   -0.33724E-04  4657   0.144E-02    0.286E-02
RMM:   6    -0.230960198382E+04   -0.56272E-06   -0.53923E-05  3131   0.867E-03
  65 F= -.23300395E+04 E0= -.23300395E+04  d E =-.551157E-02  mag=     2.0000
       N       E                     dE             d eps       ncg     rms          rms(c)
DAV:   1    -0.230957805613E+04    0.23927E-01   -0.35697E+00  4432   0.199E+00    0.491E-01
RMM:   2    -0.230960424678E+04   -0.26191E-01   -0.27760E-01  6138   0.367E-01    0.311E-01
RMM:   3    -0.230960493121E+04   -0.68443E-03   -0.24133E-02  5606   0.103E-01    0.216E-01
RMM:   4    -0.230960443421E+04    0.49700E-03   -0.26881E-03  5331   0.271E-02    0.128E-01
RMM:   5    -0.230960418380E+04    0.25041E-03   -0.89241E-04  4913   0.225E-02    0.442E-02
RMM:   6    -0.230960418276E+04    0.10402E-05   -0.15487E-04  4362   0.133E-02    0.260E-02
RMM:   7    -0.230960417943E+04    0.33267E-05   -0.27272E-05  2919   0.436E-03
  66 F= -.23300424E+04 E0= -.23300424E+04  d E =-.847951E-02  mag=     2.0000
       N       E                     dE             d eps       ncg     rms          rms(c)
DAV:   1    -0.230960201141E+04    0.21713E-02   -0.75817E-01  4512   0.905E-01    0.205E-01
RMM:   2    -0.230960814249E+04   -0.61311E-02   -0.63129E-02  6181   0.173E-01    0.183E-01
RMM:   3    -0.230960800263E+04    0.13986E-03   -0.50739E-03  5269   0.494E-02    0.931E-02
RMM:   4    -0.230960793081E+04    0.71827E-04   -0.56925E-04  4232   0.118E-02    0.576E-02
RMM:   5    -0.230960788246E+04    0.48348E-04   -0.18183E-04  4256   0.111E-02    0.259E-02
RMM:   6    -0.230960787922E+04    0.32389E-05   -0.35452E-05  2902   0.736E-03
  67 F= -.23300465E+04 E0= -.23300465E+04  d E =-.410086E-02  mag=     2.0000
       N       E                     dE             d eps       ncg     rms          rms(c)
DAV:   1    -0.230956141531E+04    0.46467E-01   -0.68108E+00  4432   0.271E+00    0.607E-01
RMM:   2    -0.230961518507E+04   -0.53770E-01   -0.55689E-01  6178   0.514E-01    0.510E-01
RMM:   3    -0.230961517353E+04    0.11540E-04   -0.49368E-02  5608   0.143E-01    0.282E-01
RMM:   4    -0.230961444305E+04    0.73048E-03   -0.49436E-03  5052   0.339E-02    0.171E-01
RMM:   5    -0.230961395758E+04    0.48547E-03   -0.16076E-03  4830   0.307E-02    0.648E-02
RMM:   6    -0.230961394822E+04    0.93543E-05   -0.27713E-04  4577   0.193E-02    0.313E-02
RMM:   7    -0.230961394196E+04    0.62585E-05   -0.44345E-05  3148   0.525E-03
  68 F= -.23300538E+04 E0= -.23300538E+04  d E =-.113708E-01  mag=     2.0000
       N       E                     dE             d eps       ncg     rms          rms(c)
DAV:   1    -0.230960478314E+04    0.91651E-02   -0.12162E+00  4472   0.115E+00    0.260E-01
RMM:   2    -0.230961458285E+04   -0.97997E-02   -0.10110E-01  6204   0.219E-01    0.228E-01
RMM:   3    -0.230961439427E+04    0.18858E-03   -0.81267E-03  5409   0.598E-02    0.119E-01
RMM:   4    -0.230961427372E+04    0.12056E-03   -0.90725E-04  4592   0.147E-02    0.733E-02
RMM:   5    -0.230961418876E+04    0.84953E-04   -0.30570E-04  4577   0.138E-02    0.309E-02
RMM:   6    -0.230961418257E+04    0.61939E-05   -0.54214E-05  3062   0.872E-03
  69 F= -.23300546E+04 E0= -.23300546E+04  d E =-.121223E-01  mag=     2.0000
       N       E                     dE             d eps       ncg     rms          rms(c)
DAV:   1    -0.230961171542E+04    0.24733E-02   -0.15167E+00  4464   0.126E+00    0.282E-01
RMM:   2    -0.230961990979E+04   -0.81944E-02   -0.85277E-02  6116   0.224E-01    0.222E-01
RMM:   3    -0.230961963381E+04    0.27598E-03   -0.58252E-03  5472   0.599E-02    0.137E-01
RMM:   4    -0.230961940822E+04    0.22558E-03   -0.81742E-04  4860   0.170E-02    0.738E-02
RMM:   5    -0.230961932456E+04    0.83666E-04   -0.36711E-04  4754   0.156E-02    0.225E-02
RMM:   6    -0.230961932463E+04   -0.78653E-07   -0.42662E-05  3070   0.888E-03
  70 F= -.23300604E+04 E0= -.23300604E+04  d E =-.586565E-02  mag=     2.0000
       N       E                     dE             d eps       ncg     rms          rms(c)
DAV:   1    -0.230960711632E+04    0.12208E-01   -0.28094E+00  4464   0.172E+00    0.382E-01
RMM:   2    -0.230962228280E+04   -0.15166E-01   -0.15762E-01  6118   0.305E-01    0.304E-01
RMM:   3    -0.230962174624E+04    0.53655E-03   -0.10733E-02  5518   0.790E-02    0.187E-01
RMM:   4    -0.230962132941E+04    0.41684E-03   -0.15234E-03  5040   0.230E-02    0.101E-01
RMM:   5    -0.230962116510E+04    0.16431E-03   -0.69389E-04  4875   0.209E-02    0.319E-02
RMM:   6    -0.230962116310E+04    0.19983E-05   -0.85132E-05  3761   0.118E-02
  71 F= -.23300633E+04 E0= -.23300632E+04  d E =-.869085E-02  mag=     2.0000
       N       E                     dE             d eps       ncg     rms          rms(c)
DAV:   1    -0.230961622280E+04    0.49423E-02   -0.21160E+00  4432   0.150E+00    0.333E-01
RMM:   2    -0.230962713510E+04   -0.10912E-01   -0.11413E-01  6112   0.264E-01    0.242E-01
RMM:   3    -0.230962684800E+04    0.28711E-03   -0.72376E-03  5403   0.682E-02    0.167E-01
RMM:   4    -0.230962649478E+04    0.35322E-03   -0.94792E-04  4984   0.198E-02    0.855E-02
RMM:   5    -0.230962638308E+04    0.11170E-03   -0.51920E-04  4804   0.184E-02    0.268E-02
RMM:   6    -0.230962638408E+04   -0.99966E-06   -0.54193E-05  3322   0.103E-02
  72 F= -.23300692E+04 E0= -.23300692E+04  d E =-.596158E-02  mag=     2.0000
       N       E                     dE             d eps       ncg     rms          rms(c)
DAV:   1    -0.230960792515E+04    0.18458E-01   -0.42601E+00  4432   0.213E+00    0.470E-01
RMM:   2    -0.230962973181E+04   -0.21807E-01   -0.22841E-01  6104   0.373E-01    0.337E-01
RMM:   3    -0.230962924976E+04    0.48205E-03   -0.14641E-02  5443   0.977E-02    0.236E-01
RMM:   4    -0.230962854450E+04    0.70526E-03   -0.19282E-03  5143   0.280E-02    0.122E-01
RMM:   5    -0.230962830739E+04    0.23711E-03   -0.10208E-03  4829   0.258E-02    0.351E-02
RMM:   6    -0.230962831000E+04   -0.26105E-05   -0.11403E-04  4108   0.143E-02    0.206E-02
RMM:   7    -0.230962830748E+04    0.25258E-05   -0.18172E-05  2872   0.357E-03
  73 F= -.23300722E+04 E0= -.23300722E+04  d E =-.893929E-02  mag=     2.0000
       N       E                     dE             d eps       ncg     rms          rms(c)
DAV:   1    -0.230962051184E+04    0.77982E-02   -0.29231E+00  4432   0.174E+00    0.366E-01
RMM:   2    -0.230963431351E+04   -0.13802E-01   -0.14673E-01  6090   0.301E-01    0.235E-01
RMM:   3    -0.230963433141E+04   -0.17903E-04   -0.11447E-02  5350   0.851E-02    0.177E-01
RMM:   4    -0.230963397736E+04    0.35405E-03   -0.12776E-03  5208   0.223E-02    0.105E-01
RMM:   5    -0.230963381761E+04    0.15976E-03   -0.70406E-04  4873   0.206E-02    0.326E-02
RMM:   6    -0.230963381300E+04    0.46068E-05   -0.93667E-05  3697   0.115E-02
  74 F= -.23300783E+04 E0= -.23300783E+04  d E =-.611917E-02  mag=     2.0000
       N       E                     dE             d eps       ncg     rms          rms(c)
DAV:   1    -0.230962373394E+04    0.10084E-01   -0.24181E+00  4456   0.158E+00    0.334E-01
RMM:   2    -0.230963515291E+04   -0.11419E-01   -0.12164E-01  6104   0.274E-01    0.210E-01
RMM:   3    -0.230963519385E+04   -0.40941E-04   -0.94229E-03  5424   0.721E-02    0.159E-01
RMM:   4    -0.230963491382E+04    0.28003E-03   -0.10652E-03  5176   0.200E-02    0.968E-02
RMM:   5    -0.230963477441E+04    0.13941E-03   -0.57849E-04  4817   0.187E-02    0.281E-02
RMM:   6    -0.230963476886E+04    0.55545E-05   -0.77578E-05  3501   0.106E-02
  75 F= -.23300798E+04 E0= -.23300798E+04  d E =-.763706E-02  mag=     2.0000
       N       E                     dE             d eps       ncg     rms          rms(c)
DAV:   1    -0.230963220233E+04    0.25721E-02   -0.24950E+00  4432   0.157E+00    0.309E-01
RMM:   2    -0.230964042266E+04   -0.82203E-02   -0.88186E-02  5965   0.251E-01    0.182E-01
RMM:   3    -0.230964031098E+04    0.11167E-03   -0.53266E-03  5308   0.663E-02    0.149E-01
RMM:   4    -0.230964009728E+04    0.21370E-03   -0.81083E-04  5443   0.195E-02    0.980E-02
RMM:   5    -0.230963997654E+04    0.12075E-03   -0.57236E-04  4646   0.187E-02    0.242E-02
RMM:   6    -0.230963997611E+04    0.42478E-06   -0.53993E-05  3216   0.107E-02
  76 F= -.23300856E+04 E0= -.23300856E+04  d E =-.577579E-02  mag=     2.0000
       N       E                     dE             d eps       ncg     rms          rms(c)
DAV:   1    -0.230962963126E+04    0.10345E-01   -0.39156E+00  4432   0.196E+00    0.386E-01
RMM:   2    -0.230964254661E+04   -0.12915E-01   -0.13845E-01  5947   0.314E-01    0.230E-01
RMM:   3    -0.230964233666E+04    0.20995E-03   -0.84114E-03  5321   0.833E-02    0.191E-01
RMM:   4    -0.230964197973E+04    0.35692E-03   -0.12573E-03  5613   0.244E-02    0.122E-01
RMM:   5    -0.230964178520E+04    0.19453E-03   -0.91071E-04  4694   0.233E-02    0.326E-02
RMM:   6    -0.230964178465E+04    0.55792E-06   -0.85226E-05  3585   0.135E-02
  77 F= -.23300881E+04 E0= -.23300881E+04  d E =-.830121E-02  mag=     2.0000
       N       E                     dE             d eps       ncg     rms          rms(c)
DAV:   1    -0.230964089708E+04    0.88812E-03   -0.16481E+00  4512   0.128E+00    0.283E-01
RMM:   2    -0.230964632402E+04   -0.54269E-02   -0.58867E-02  5921   0.208E-01    0.158E-01
RMM:   3    -0.230964621539E+04    0.10862E-03   -0.40972E-03  5301   0.583E-02    0.130E-01
RMM:   4    -0.230964605486E+04    0.16053E-03   -0.61139E-04  5232   0.173E-02    0.826E-02
RMM:   5    -0.230964596625E+04    0.88609E-04   -0.42772E-04  4728   0.164E-02    0.225E-02
RMM:   6    -0.230964596291E+04    0.33351E-05   -0.41086E-05  3046   0.856E-03
  78 F= -.23300928E+04 E0= -.23300928E+04  d E =-.469271E-02  mag=     2.0000
       N       E                     dE             d eps       ncg     rms          rms(c)
DAV:   1    -0.230964062064E+04    0.53456E-02   -0.18162E+00  4464   0.134E+00    0.297E-01
RMM:   2    -0.230964659986E+04   -0.59792E-02   -0.64865E-02  5907   0.217E-01    0.169E-01
RMM:   3    -0.230964647631E+04    0.12355E-03   -0.45635E-03  5316   0.599E-02    0.141E-01
RMM:   4    -0.230964627270E+04    0.20360E-03   -0.66935E-04  5340   0.182E-02    0.856E-02
RMM:   5    -0.230964617002E+04    0.10268E-03   -0.47654E-04  4758   0.171E-02    0.237E-02
RMM:   6    -0.230964616551E+04    0.45133E-05   -0.42882E-05  3096   0.928E-03
  79 F= -.23300936E+04 E0= -.23300936E+04  d E =-.543779E-02  mag=     2.0000
       N       E                     dE             d eps       ncg     rms          rms(c)
DAV:   1    -0.230964609665E+04    0.73370E-04   -0.14922E-01  4672   0.384E-01    0.848E-02
RMM:   2    -0.230964658280E+04   -0.48614E-03   -0.52727E-03  5980   0.624E-02    0.525E-02
RMM:   3    -0.230964656860E+04    0.14196E-04   -0.36245E-04  3882   0.198E-02    0.426E-02
RMM:   4    -0.230964654574E+04    0.22863E-04   -0.53966E-05  2946   0.666E-03    0.230E-02
RMM:   5    -0.230964654019E+04    0.55467E-05   -0.41195E-05  3228   0.623E-03
  80 F= -.23300938E+04 E0= -.23300938E+04  d E =-.565680E-02  mag=     2.0000
       N       E                     dE             d eps       ncg     rms          rms(c)
DAV:   1    -0.230964272231E+04    0.38234E-02   -0.19487E+00  4464   0.141E+00    0.319E-01
RMM:   2    -0.230965085514E+04   -0.81328E-02   -0.86581E-02  5949   0.233E-01    0.202E-01
RMM:   3    -0.230965082133E+04    0.33806E-04   -0.71804E-03  5291   0.685E-02    0.160E-01
RMM:   4    -0.230965053983E+04    0.28151E-03   -0.85587E-04  5109   0.191E-02    0.849E-02
RMM:   5    -0.230965043961E+04    0.10021E-03   -0.50931E-04  4835   0.172E-02    0.292E-02
RMM:   6    -0.230965043587E+04    0.37449E-05   -0.56830E-05  3240   0.921E-03
  81 F= -.23300982E+04 E0= -.23300982E+04  d E =-.444052E-02  mag=     2.0000
       N       E                     dE             d eps       ncg     rms          rms(c)
DAV:   1    -0.230964350342E+04    0.69362E-02   -0.18584E+00  4464   0.138E+00    0.313E-01
RMM:   2    -0.230965127697E+04   -0.77736E-02   -0.82820E-02  5982   0.229E-01    0.194E-01
RMM:   3    -0.230965131948E+04   -0.42505E-04   -0.70623E-03  5334   0.686E-02    0.158E-01
RMM:   4    -0.230965105753E+04    0.26195E-03   -0.83488E-04  5149   0.189E-02    0.842E-02
RMM:   5    -0.230965096072E+04    0.96811E-04   -0.48895E-04  4829   0.167E-02    0.299E-02
RMM:   6    -0.230965095507E+04    0.56516E-05   -0.53172E-05  3226   0.909E-03
  82 F= -.23300993E+04 E0= -.23300993E+04  d E =-.549240E-02  mag=     2.0000
       N       E                     dE             d eps       ncg     rms          rms(c)
[...]
       N       E                     dE             d eps       ncg     rms          rms(c)
DAV:   1    -0.230974266714E+04    0.32086E-02   -0.38378E-01  4408   0.644E-01    0.178E-01
RMM:   2    -0.230974649268E+04   -0.38255E-02   -0.40976E-02  6173   0.123E-01    0.971E-02
RMM:   3    -0.230974667496E+04   -0.18229E-03   -0.34012E-03  5148   0.432E-02    0.667E-02
RMM:   4    -0.230974667370E+04    0.12659E-05   -0.42553E-04  3736   0.107E-02    0.586E-02
RMM:   5    -0.230974664081E+04    0.32884E-04   -0.12595E-04  3521   0.885E-03    0.346E-02
RMM:   6    -0.230974662808E+04    0.12734E-04   -0.45858E-05  2977   0.648E-03    0.893E-03
RMM:   7    -0.230974662744E+04    0.64116E-06   -0.76687E-06  2821   0.463E-03
 165 F= -.23301620E+04 E0= -.23301620E+04  d E =-.536902E-03  mag=     2.0000
       N       E                     dE             d eps       ncg     rms          rms(c)
DAV:   1    -0.230974653051E+04    0.97567E-04   -0.13506E-02  4896   0.121E-01    0.341E-02
RMM:   2    -0.230974666780E+04   -0.13729E-03   -0.14708E-03  5969   0.236E-02    0.182E-02
RMM:   3    -0.230974667344E+04   -0.56374E-05   -0.12173E-04  2924   0.895E-03    0.115E-02
RMM:   4    -0.230974667299E+04    0.44631E-06   -0.15333E-05  2848   0.270E-03
 166 F= -.23301620E+04 E0= -.23301620E+04  d E =-.542416E-03  mag=     2.0000
       N       E                     dE             d eps       ncg     rms          rms(c)
DAV:   1    -0.230974366920E+04    0.30042E-02   -0.38596E-01  4408   0.651E-01    0.181E-01
RMM:   2    -0.230974736527E+04   -0.36961E-02   -0.39490E-02  6165   0.125E-01    0.959E-02
RMM:   3    -0.230974753243E+04   -0.16716E-03   -0.33844E-03  5028   0.422E-02    0.605E-02
RMM:   4    -0.230974751571E+04    0.16715E-04   -0.39733E-04  4030   0.103E-02    0.384E-02
RMM:   5    -0.230974750206E+04    0.13660E-04   -0.10693E-04  3654   0.916E-03    0.260E-02
RMM:   6    -0.230974749640E+04    0.56574E-05   -0.21203E-05  2841   0.522E-03
 167 F= -.23301626E+04 E0= -.23301626E+04  d E =-.631080E-03  mag=     2.0000
       N       E                     dE             d eps       ncg     rms          rms(c)
DAV:   1    -0.230974669007E+04    0.81199E-03   -0.85004E-02  4416   0.306E-01    0.859E-02
RMM:   2    -0.230974751420E+04   -0.82414E-03   -0.87982E-03  6229   0.601E-02    0.466E-02
RMM:   3    -0.230974755576E+04   -0.41555E-04   -0.76638E-04  3627   0.195E-02    0.325E-02
RMM:   4    -0.230974755527E+04    0.48697E-06   -0.95214E-05  2885   0.596E-03
 168 F= -.23301626E+04 E0= -.23301626E+04  d E =-.600350E-03  mag=     2.0000
       N       E                     dE             d eps       ncg     rms          rms(c)
DAV:   1    -0.230974733223E+04    0.22353E-03   -0.21246E-02  4528   0.153E-01    0.442E-02
RMM:   2    -0.230974753978E+04   -0.20755E-03   -0.22041E-03  6269   0.312E-02    0.275E-02
RMM:   3    -0.230974755227E+04   -0.12488E-04   -0.22400E-04  3014   0.107E-02    0.238E-02
RMM:   4    -0.230974754767E+04    0.45954E-05   -0.24236E-05  2800   0.375E-03
 169 F= -.23301626E+04 E0= -.23301626E+04  d E =-.636821E-03  mag=     2.0000
       N       E                     dE             d eps       ncg     rms          rms(c)
DAV:   1    -0.230974450524E+04    0.30470E-02   -0.41374E-01  4400   0.673E-01    0.182E-01
RMM:   2    -0.230974811977E+04   -0.36145E-02   -0.38792E-02  6223   0.129E-01    0.959E-02
RMM:   3    -0.230974827206E+04   -0.15229E-03   -0.32634E-03  5141   0.404E-02    0.620E-02
RMM:   4    -0.230974826191E+04    0.10157E-04   -0.39545E-04  3778   0.103E-02    0.479E-02
RMM:   5    -0.230974825045E+04    0.11460E-04   -0.12127E-04  3464   0.863E-03    0.432E-02
RMM:   6    -0.230974822806E+04    0.22384E-04   -0.47224E-05  2969   0.663E-03    0.953E-03
RMM:   7    -0.230974822752E+04    0.53817E-06   -0.78511E-06  2818   0.464E-03
 170 F= -.23301631E+04 E0= -.23301631E+04  d E =-.490180E-03  mag=     2.0000
       N       E                     dE             d eps       ncg     rms          rms(c)
DAV:   1    -0.230974820714E+04    0.20924E-04   -0.37751E-03  5216   0.646E-02    0.183E-02
RMM:   2    -0.230974824168E+04   -0.34546E-04   -0.36770E-04  5244   0.129E-02    0.984E-03
RMM:   3    -0.230974824276E+04   -0.10794E-05   -0.30691E-05  2813   0.509E-03
 171 F= -.23301631E+04 E0= -.23301631E+04  d E =-.487281E-03  mag=     2.0000
       N       E                     dE             d eps       ncg     rms          rms(c)
DAV:   1    -0.230974614622E+04    0.20955E-02   -0.36132E-01  4408   0.634E-01    0.161E-01
RMM:   2    -0.230974887366E+04   -0.27274E-02   -0.29279E-02  6179   0.119E-01    0.862E-02
RMM:   3    -0.230974896058E+04   -0.86927E-04   -0.23299E-03  5031   0.361E-02    0.561E-02
RMM:   4    -0.230974894302E+04    0.17560E-04   -0.30296E-04  3865   0.985E-03    0.366E-02
RMM:   5    -0.230974893932E+04    0.37030E-05   -0.98634E-05  3493   0.852E-03
 172 F= -.23301636E+04 E0= -.23301636E+04  d E =-.505802E-03  mag=     2.0000
       N       E                     dE             d eps       ncg     rms          rms(c)
DAV:   1    -0.230974878309E+04    0.15993E-03   -0.21123E-02  4712   0.154E-01    0.419E-02
RMM:   2    -0.230974894383E+04   -0.16073E-03   -0.17485E-03  6205   0.303E-02    0.233E-02
RMM:   3    -0.230974895243E+04   -0.86015E-05   -0.17655E-04  2992   0.103E-02    0.166E-02
RMM:   4    -0.230974895284E+04   -0.40988E-06   -0.23095E-05  2851   0.368E-03
 173 F= -.23301636E+04 E0= -.23301636E+04  d E =-.472921E-03  mag=     2.0000
       N       E                     dE             d eps       ncg     rms          rms(c)
DAV:   1    -0.230974732660E+04    0.16258E-02   -0.29291E-01  4408   0.573E-01    0.138E-01
RMM:   2    -0.230974946663E+04   -0.21400E-02   -0.22812E-02  6172   0.106E-01    0.768E-02
RMM:   3    -0.230974953701E+04   -0.70386E-04   -0.18306E-03  4727   0.318E-02    0.559E-02
RMM:   4    -0.230974953156E+04    0.54518E-05   -0.24659E-04  3270   0.885E-03    0.485E-02
RMM:   5    -0.230974950640E+04    0.25159E-04   -0.74607E-05  3132   0.737E-03    0.246E-02
RMM:   6    -0.230974950120E+04    0.51988E-05   -0.34283E-05  2916   0.616E-03
 174 F= -.23301640E+04 E0= -.23301640E+04  d E =-.395541E-03  mag=     2.0000
       N       E                     dE             d eps       ncg     rms          rms(c)
DAV:   1    -0.230974870333E+04    0.80307E-03   -0.11810E-01  4416   0.364E-01    0.886E-02
RMM:   2    -0.230974957596E+04   -0.87263E-03   -0.93223E-03  6214   0.690E-02    0.463E-02
RMM:   3    -0.230974960830E+04   -0.32334E-04   -0.75255E-04  3967   0.207E-02    0.304E-02
RMM:   4    -0.230974960425E+04    0.40502E-05   -0.89663E-05  2901   0.606E-03
 175 F= -.23301640E+04 E0= -.23301640E+04  d E =-.402068E-03  mag=     2.0000
       N       E                     dE             d eps       ncg     rms          rms(c)
DAV:   1    -0.230974784396E+04    0.17643E-02   -0.31959E-01  4400   0.603E-01    0.150E-01
RMM:   2    -0.230975016467E+04   -0.23207E-02   -0.24512E-02  6190   0.112E-01    0.100E-01
RMM:   3    -0.230975023406E+04   -0.69390E-04   -0.21901E-03  4864   0.369E-02    0.840E-02
RMM:   4    -0.230975017331E+04    0.60758E-04   -0.26912E-04  3349   0.949E-03    0.437E-02
RMM:   5    -0.230975015176E+04    0.21551E-04   -0.80875E-05  3506   0.747E-03    0.260E-02
RMM:   6    -0.230975014214E+04    0.96190E-05   -0.47778E-05  3027   0.696E-03
 176 F= -.23301645E+04 E0= -.23301645E+04  d E =-.465492E-03  mag=     2.0000
       N       E                     dE             d eps       ncg     rms          rms(c)
DAV:   1    -0.230974957866E+04    0.57310E-03   -0.80573E-02  4448   0.303E-01    0.755E-02
RMM:   2    -0.230975016811E+04   -0.58946E-03   -0.63152E-03  6304   0.586E-02    0.392E-02
RMM:   3    -0.230975018474E+04   -0.16628E-04   -0.49809E-04  3618   0.174E-02    0.274E-02
RMM:   4    -0.230975018254E+04    0.21984E-05   -0.64074E-05  2890   0.560E-03
 177 F= -.23301645E+04 E0= -.23301645E+04  d E =-.469988E-03  mag=     2.0000
       N       E                     dE             d eps       ncg     rms          rms(c)
DAV:   1    -0.230974869227E+04    0.14925E-02   -0.26895E-01  4408   0.553E-01    0.138E-01
RMM:   2    -0.230975062679E+04   -0.19345E-02   -0.20473E-02  6188   0.103E-01    0.906E-02
RMM:   3    -0.230975068453E+04   -0.57739E-04   -0.17942E-03  4765   0.341E-02    0.771E-02
RMM:   4    -0.230975063303E+04    0.51505E-04   -0.22271E-04  3222   0.898E-03    0.406E-02
RMM:   5    -0.230975061508E+04    0.17951E-04   -0.74449E-05  3474   0.729E-03    0.233E-02
RMM:   6    -0.230975060765E+04    0.74273E-05   -0.37289E-05  2903   0.665E-03
 178 F= -.23301649E+04 E0= -.23301649E+04  d E =-.413690E-03  mag=     2.0000
       N       E                     dE             d eps       ncg     rms          rms(c)
DAV:   1    -0.230975007052E+04    0.54456E-03   -0.73417E-02  4448   0.289E-01    0.726E-02
RMM:   2    -0.230975060773E+04   -0.53721E-03   -0.57341E-03  6262   0.562E-02    0.401E-02
RMM:   3    -0.230975062400E+04   -0.16276E-04   -0.46446E-04  3600   0.173E-02    0.321E-02
RMM:   4    -0.230975061831E+04    0.56986E-05   -0.60474E-05  2869   0.560E-03
 179 F= -.23301649E+04 E0= -.23301649E+04  d E =-.418733E-03  mag=     2.0000
       N       E                     dE             d eps       ncg     rms          rms(c)
DAV:   1    -0.230974907441E+04    0.15496E-02   -0.27585E-01  4416   0.558E-01    0.139E-01
RMM:   2    -0.230975098197E+04   -0.19076E-02   -0.20281E-02  6184   0.104E-01    0.943E-02
RMM:   3    -0.230975102653E+04   -0.44561E-04   -0.17307E-03  4750   0.342E-02    0.790E-02
RMM:   4    -0.230975096891E+04    0.57620E-04   -0.22065E-04  3324   0.923E-03    0.407E-02
RMM:   5    -0.230975095048E+04    0.18431E-04   -0.82078E-05  3660   0.768E-03    0.230E-02
RMM:   6    -0.230975094282E+04    0.76635E-05   -0.35306E-05  2889   0.657E-03
 180 F= -.23301653E+04 E0= -.23301653E+04  d E =-.355694E-03  mag=     2.0000
       N       E                     dE             d eps       ncg     rms          rms(c)
DAV:   1    -0.230975089158E+04    0.58901E-04   -0.47961E-03  5240   0.742E-02    0.202E-02
RMM:   2    -0.230975092700E+04   -0.35417E-04   -0.38459E-04  5527   0.158E-02    0.105E-02
RMM:   3    -0.230975092829E+04   -0.12912E-05   -0.35826E-05  2830   0.562E-03
 181 F= -.23301652E+04 E0= -.23301652E+04  d E =-.345378E-03  mag=     2.0000
       N       E                     dE             d eps       ncg     rms          rms(c)
DAV:   1    -0.230975092566E+04    0.13378E-05   -0.18202E-03  4568   0.453E-02    0.121E-02
RMM:   2    -0.230975093824E+04   -0.12578E-04   -0.13058E-04  4076   0.899E-03    0.115E-02
RMM:   3    -0.230975093792E+04    0.31467E-06   -0.14122E-05  2540   0.445E-03
 182 F= -.23301653E+04 E0= -.23301653E+04  d E =-.352460E-03  mag=     2.0000
       N       E                     dE             d eps       ncg     rms          rms(c)
DAV:   1    -0.230975033701E+04    0.60123E-03   -0.13518E-01  4416   0.396E-01    0.109E-01
RMM:   2    -0.230975123664E+04   -0.89963E-03   -0.96272E-03  6106   0.746E-02    0.705E-02
RMM:   3    -0.230975123822E+04   -0.15823E-05   -0.74300E-04  4031   0.234E-02    0.607E-02
RMM:   4    -0.230975119648E+04    0.41742E-04   -0.10007E-04  2984   0.764E-03    0.269E-02
RMM:   5    -0.230975118675E+04    0.97343E-05   -0.45725E-05  3168   0.627E-03
 183 F= -.23301656E+04 E0= -.23301656E+04  d E =-.310492E-03  mag=     2.0000
       N       E                     dE             d eps       ncg     rms          rms(c)
DAV:   1    -0.230975116170E+04    0.34784E-04   -0.13211E-03  5240   0.397E-02    0.132E-02
RMM:   2    -0.230975117140E+04   -0.97064E-05   -0.10759E-04  3892   0.878E-03    0.103E-02
RMM:   3    -0.230975117116E+04    0.23874E-06   -0.13620E-05  2681   0.494E-03
 184 F= -.23301656E+04 E0= -.23301656E+04  d E =-.301305E-03  mag=     2.0000
       N       E                     dE             d eps       ncg     rms          rms(c)
DAV:   1    -0.230975117522E+04   -0.38220E-05   -0.55846E-04  4412   0.255E-02    0.696E-03
RMM:   2    -0.230975117872E+04   -0.34969E-05   -0.37470E-05  2873   0.523E-03
 185 F= -.23301656E+04 E0= -.23301656E+04  d E =-.304894E-03  mag=     2.0000
       N       E                     dE             d eps       ncg     rms          rms(c)
DAV:   1    -0.230975091514E+04    0.26008E-03   -0.60774E-02  4416   0.268E-01    0.739E-02
RMM:   2    -0.230975132493E+04   -0.40979E-03   -0.43717E-03  6174   0.514E-02    0.490E-02
RMM:   3    -0.230975132313E+04    0.17937E-05   -0.33427E-04  3610   0.170E-02    0.399E-02
RMM:   4    -0.230975130458E+04    0.18555E-04   -0.43755E-05  2857   0.582E-03    0.182E-02
RMM:   5    -0.230975129958E+04    0.49952E-05   -0.22412E-05  2858   0.468E-03
 186 F= -.23301657E+04 E0= -.23301657E+04  d E =-.166131E-03  mag=     2.0000
       N       E                     dE             d eps       ncg     rms          rms(c)
DAV:   1    -0.230975128266E+04    0.21922E-04   -0.10467E-03  5120   0.357E-02    0.112E-02
RMM:   2    -0.230975129052E+04   -0.78588E-05   -0.84247E-05  3600   0.818E-03
 187 F= -.23301657E+04 E0= -.23301657E+04  d E =-.163222E-03  mag=     2.0000
       N       E                     dE             d eps       ncg     rms          rms(c)
DAV:   1    -0.230975129271E+04   -0.10050E-04   -0.39972E-04  4368   0.222E-02    0.696E-03
RMM:   2    -0.230975129530E+04   -0.25951E-05   -0.27376E-05  2686   0.475E-03
 188 F= -.23301657E+04 E0= -.23301657E+04  d E =-.164340E-03  mag=     2.0000
       N       E                     dE             d eps       ncg     rms          rms(c)
DAV:   1    -0.230975110810E+04    0.18461E-03   -0.46068E-02  4416   0.234E-01    0.649E-02
RMM:   2    -0.230975140073E+04   -0.29264E-03   -0.30656E-03  6201   0.450E-02    0.518E-02
RMM:   3    -0.230975138570E+04    0.15032E-04   -0.22724E-04  3490   0.148E-02    0.351E-02
RMM:   4    -0.230975136936E+04    0.16345E-04   -0.29961E-05  2841   0.537E-03    0.153E-02
RMM:   5    -0.230975136578E+04    0.35760E-05   -0.19868E-05  2856   0.443E-03
 189 F= -.23301658E+04 E0= -.23301658E+04  d E =-.117440E-03  mag=     2.0000
       N       E                     dE             d eps       ncg     rms          rms(c)
DAV:   1    -0.230975136397E+04    0.53843E-05   -0.10367E-05  3504   0.487E-03    0.355E-03
RMM:   2    -0.230975136403E+04   -0.62064E-07   -0.23245E-06  2502   0.184E-03
 190 F= -.23301658E+04 E0= -.23301658E+04  d E =-.115962E-03  mag=     2.0000
       N       E                     dE             d eps       ncg     rms          rms(c)
DAV:   1    -0.230975114543E+04    0.21854E-03   -0.45108E-02  4416   0.230E-01    0.606E-02
RMM:   2    -0.230975143611E+04   -0.29068E-03   -0.30186E-03  6156   0.433E-02    0.473E-02
RMM:   3    -0.230975142420E+04    0.11908E-04   -0.20665E-04  3287   0.133E-02    0.332E-02
RMM:   4    -0.230975141061E+04    0.13589E-04   -0.29221E-05  2848   0.495E-03    0.151E-02
RMM:   5    -0.230975140802E+04    0.25885E-05   -0.15678E-05  2834   0.391E-03
 191 F= -.23301660E+04 E0= -.23301660E+04  d E =-.115924E-03  mag=     2.0000
       N       E                     dE             d eps       ncg     rms          rms(c)
DAV:   1    -0.230975136650E+04    0.44106E-04   -0.30859E-03  4864   0.605E-02    0.165E-02
RMM:   2    -0.230975138678E+04   -0.20275E-04   -0.21150E-04  4900   0.129E-02    0.124E-02
RMM:   3    -0.230975138665E+04    0.12634E-06   -0.21170E-05  2821   0.516E-03
 192 F= -.23301660E+04 E0= -.23301660E+04  d E =-.113792E-03  mag=     2.0000
       N       E                     dE             d eps       ncg     rms          rms(c)
DAV:   1    -0.230975124502E+04    0.14176E-03   -0.28982E-02  4416   0.183E-01    0.464E-02
RMM:   2    -0.230975144820E+04   -0.20317E-03   -0.21159E-03  6207   0.355E-02    0.374E-02
RMM:   3    -0.230975143996E+04    0.82399E-05   -0.14007E-04  2980   0.999E-03    0.249E-02
RMM:   4    -0.230975143292E+04    0.70355E-05   -0.20838E-05  2852   0.409E-03
 193 F= -.23301661E+04 E0= -.23301661E+04  d E =-.100743E-03  mag=     2.0000
       N       E                     dE             d eps       ncg     rms          rms(c)
DAV:   1    -0.230975134098E+04    0.98977E-04   -0.10058E-02  4464   0.108E-01    0.284E-02
RMM:   2    -0.230975140977E+04   -0.68792E-04   -0.72468E-04  6011   0.202E-02    0.252E-02
RMM:   3    -0.230975140715E+04    0.26226E-05   -0.57920E-05  2850   0.685E-03
 194 F= -.23301661E+04 E0= -.23301661E+04  d E =-.107556E-03  mag=     2.0000
       N       E                     dE             d eps       ncg     rms          rms(c)
DAV:   1    -0.230975127936E+04    0.13042E-03   -0.27035E-02  4416   0.177E-01    0.493E-02
RMM:   2    -0.230975147760E+04   -0.19825E-03   -0.20915E-03  6164   0.351E-02    0.366E-02
RMM:   3    -0.230975147108E+04    0.65220E-05   -0.14788E-04  2978   0.979E-03    0.260E-02
RMM:   4    -0.230975146303E+04    0.80533E-05   -0.21873E-05  2849   0.427E-03
 195 F= -.23301662E+04 E0= -.23301662E+04  d E =-.112901E-03  mag=     2.0000
       N       E                     dE             d eps       ncg     rms          rms(c)
DAV:   1    -0.230975136703E+04    0.10405E-03   -0.98427E-03  4640   0.107E-01    0.309E-02
RMM:   2    -0.230975143926E+04   -0.72227E-04   -0.76061E-04  6021   0.205E-02    0.276E-02
RMM:   3    -0.230975143535E+04    0.39078E-05   -0.61873E-05  2860   0.737E-03
 196 F= -.23301662E+04 E0= -.23301662E+04  d E =-.120142E-03  mag=     2.0000
       N       E                     dE             d eps       ncg     rms          rms(c)
DAV:   1    -0.230975123855E+04    0.20071E-03   -0.30297E-02  4416   0.185E-01    0.520E-02
RMM:   2    -0.230975148574E+04   -0.24719E-03   -0.25764E-03  6179   0.376E-02    0.415E-02
RMM:   3    -0.230975147789E+04    0.78503E-05   -0.18782E-04  2986   0.105E-02    0.270E-02
RMM:   4    -0.230975146957E+04    0.83221E-05   -0.27393E-05  2860   0.440E-03
 197 F= -.23301663E+04 E0= -.23301663E+04  d E =-.885420E-04  mag=     2.0000
       N       E                     dE             d eps       ncg     rms          rms(c)
DAV:   1    -0.230975141364E+04    0.64245E-04   -0.40452E-03  4896   0.679E-02    0.212E-02
RMM:   2    -0.230975144678E+04   -0.33134E-04   -0.34400E-04  5351   0.134E-02    0.213E-02
RMM:   3    -0.230975144435E+04    0.24304E-05   -0.31951E-05  2844   0.538E-03
 198 F= -.23301663E+04 E0= -.23301663E+04  d E =-.836633E-04  mag=     2.0000
       N       E                     dE             d eps       ncg     rms          rms(c)
DAV:   1    -0.230975122990E+04    0.21688E-03   -0.29928E-02  4416   0.183E-01    0.536E-02
RMM:   2    -0.230975149546E+04   -0.26556E-03   -0.27543E-03  6221   0.376E-02    0.424E-02
RMM:   3    -0.230975148899E+04    0.64663E-05   -0.20520E-04  2995   0.108E-02    0.279E-02
RMM:   4    -0.230975147999E+04    0.89999E-05   -0.28119E-05  2858   0.436E-03
 199 F= -.23301664E+04 E0= -.23301664E+04  d E =-.103879E-03  mag=     2.0000
       N       E                     dE             d eps       ncg     rms          rms(c)
DAV:   1    -0.230975140203E+04    0.86964E-04   -0.55667E-03  4624   0.788E-02    0.247E-02
RMM:   2    -0.230975145114E+04   -0.49114E-04   -0.51366E-04  5764   0.158E-02    0.227E-02
RMM:   3    -0.230975144929E+04    0.18505E-05   -0.46740E-05  2838   0.590E-03
 200 F= -.23301664E+04 E0= -.23301664E+04  d E =-.103215E-03  mag=     2.0000
       N       E                     dE             d eps       ncg     rms          rms(c)
DAV:   1    -0.230975116877E+04    0.28237E-03   -0.32183E-02  4412   0.188E-01    0.561E-02
RMM:   2    -0.230975149405E+04   -0.32528E-03   -0.33505E-03  6245   0.399E-02    0.483E-02
RMM:   3    -0.230975148429E+04    0.97579E-05   -0.25355E-04  3008   0.111E-02    0.287E-02
RMM:   4    -0.230975147547E+04    0.88231E-05   -0.34964E-05  2864   0.449E-03
 201 F= -.23301665E+04 E0= -.23301665E+04  d E =-.112923E-03  mag=     2.0000
