       N       E                     dE             d eps       ncg     rms          rms(c)
DAV:   1     0.130020179581E+05    0.13002E+05   -0.84623E+05  4560   0.144E+03
DAV:   2    -0.110136129657E+04   -0.14103E+05   -0.13501E+05  5040   0.328E+02
DAV:   3    -0.250123641587E+04   -0.13999E+04   -0.13862E+04  5520   0.112E+02
DAV:   4    -0.253842777068E+04   -0.37191E+02   -0.36993E+02  6040   0.251E+01
DAV:   5    -0.253945612341E+04   -0.10284E+01   -0.10264E+01  5880   0.324E+00    0.170E+02
RMM:   6    -0.149898582281E+04    0.10405E+04   -0.19631E+03  4507   0.380E+01    0.727E+01
RMM:   7    -0.167619652818E+04   -0.17721E+03   -0.29520E+02  5186   0.145E+01    0.539E+01
RMM:   8    -0.172222292582E+04   -0.46026E+02   -0.80024E+01  5331   0.840E+00    0.468E+01
RMM:   9    -0.178170130801E+04   -0.59478E+02   -0.55266E+01  5158   0.703E+00    0.408E+01
RMM:  10    -0.187660384976E+04   -0.94903E+02   -0.51212E+01  5258   0.682E+00    0.353E+01
RMM:  11    -0.196629360447E+04   -0.89690E+02   -0.40506E+01  5280   0.576E+00    0.237E+01
RMM:  12    -0.204442222577E+04   -0.78129E+02   -0.29485E+01  5102   0.454E+00    0.205E+01
RMM:  13    -0.210895531152E+04   -0.64533E+02   -0.25811E+01  5119   0.386E+00    0.151E+01
RMM:  14    -0.219700345226E+04   -0.88048E+02   -0.54906E+01  4740   0.541E+00    0.113E+01
RMM:  15    -0.229167115119E+04   -0.94668E+02   -0.86057E+01  4701   0.648E+00    0.105E+01
RMM:  16    -0.231966644747E+04   -0.27995E+02   -0.25376E+01  4717   0.405E+00    0.937E+00
RMM:  17    -0.232773774228E+04   -0.80713E+01   -0.87249E+00  4968   0.196E+00    0.679E+00
RMM:  18    -0.233314626070E+04   -0.54085E+01   -0.37526E+00  4709   0.143E+00    0.331E+00
RMM:  19    -0.233651160801E+04   -0.33653E+01   -0.15091E+00  4674   0.967E-01    0.278E+00
RMM:  20    -0.233766677371E+04   -0.11552E+01   -0.49477E-01  5038   0.507E-01    0.147E+00
RMM:  21    -0.233809300390E+04   -0.42623E+00   -0.23424E-01  4788   0.354E-01    0.787E-01
RMM:  22    -0.233819146008E+04   -0.98456E-01   -0.70544E-02  4867   0.203E-01    0.533E-01
RMM:  23    -0.233825461092E+04   -0.63151E-01   -0.36012E-02  4643   0.123E-01    0.264E-01
RMM:  24    -0.233828171304E+04   -0.27102E-01   -0.10259E-02  4747   0.779E-02    0.165E-01
RMM:  25    -0.233830815716E+04   -0.26444E-01   -0.80929E-03  4506   0.588E-02    0.101E-01
RMM:  26    -0.233832293477E+04   -0.14778E-01   -0.39544E-03  4573   0.490E-02    0.676E-02
RMM:  27    -0.233833041342E+04   -0.74787E-02   -0.18715E-03  4839   0.324E-02    0.484E-02
RMM:  28    -0.233833556845E+04   -0.51550E-02   -0.13104E-03  4433   0.247E-02    0.305E-02
RMM:  29    -0.233833715602E+04   -0.15876E-02   -0.42910E-04  4266   0.174E-02    0.203E-02
RMM:  30    -0.233833779412E+04   -0.63810E-03   -0.16493E-04  3946   0.896E-03    0.134E-02
RMM:  31    -0.233833814028E+04   -0.34616E-03   -0.73700E-05  3631   0.791E-03    0.679E-03
RMM:  32    -0.233833826137E+04   -0.12109E-03   -0.31891E-05  3236   0.478E-03    0.399E-03
RMM:  33    -0.233833830490E+04   -0.43530E-04   -0.92211E-06  2911   0.381E-03    0.270E-03
RMM:  34    -0.233833834082E+04   -0.35917E-04   -0.91076E-06  2863   0.260E-03    0.137E-03
RMM:  35    -0.233833835126E+04   -0.10440E-04   -0.39044E-06  2560   0.241E-03    0.107E-03
RMM:  36    -0.233833835304E+04   -0.17788E-05   -0.19196E-06  2495   0.164E-03
   1 F= -.23599234E+04 E0= -.23599233E+04  d E =-.232872E-03  mag=     3.9982
       N       E                     dE             d eps       ncg     rms          rms(c)
DAV:   1    -0.233829336523E+04    0.44986E-01   -0.21387E+00  4240   0.663E-01    0.269E-01
RMM:   2    -0.233829307695E+04    0.28828E-03   -0.90156E-03  3786   0.422E-02    0.169E-01
RMM:   3    -0.233829429953E+04   -0.12226E-02   -0.30257E-03  4262   0.297E-02    0.403E-01
RMM:   4    -0.233829271186E+04    0.15877E-02   -0.16566E-03  4341   0.165E-02    0.511E-02
RMM:   5    -0.233829273558E+04   -0.23729E-04   -0.23468E-04  3130   0.987E-03    0.629E-02
RMM:   6    -0.233829268569E+04    0.49895E-04   -0.51330E-05  2725   0.375E-03    0.192E-02
RMM:   7    -0.233829268199E+04    0.37046E-05   -0.24567E-05  2520   0.255E-03
   2 F= -.23598774E+04 E0= -.23598773E+04  d E =-.173019E-03  mag=     3.9984
       N       E                     dE             d eps       ncg     rms          rms(c)
DAV:   1    -0.233835039065E+04   -0.57705E-01   -0.84534E+00  4560   0.130E+00    0.524E-01
RMM:   2    -0.233834869404E+04    0.16966E-02   -0.29857E-02  3951   0.856E-02    0.331E-01
RMM:   3    -0.233835294056E+04   -0.42465E-02   -0.10985E-02  4825   0.558E-02    0.758E-01
RMM:   4    -0.233834723956E+04    0.57010E-02   -0.55692E-03  5079   0.306E-02    0.105E-01
RMM:   5    -0.233834734105E+04   -0.10148E-03   -0.85605E-04  3654   0.165E-02    0.119E-01
RMM:   6    -0.233834716157E+04    0.17947E-03   -0.20371E-04  3171   0.670E-03    0.400E-02
RMM:   7    -0.233834715672E+04    0.48537E-05   -0.85021E-05  2882   0.425E-03
   3 F= -.23599325E+04 E0= -.23599324E+04  d E =-.310186E-03  mag=     3.9976
       N       E                     dE             d eps       ncg     rms          rms(c)
DAV:   1    -0.233830268472E+04    0.44477E-01   -0.43019E+00  4240   0.972E-01    0.398E-01
RMM:   2    -0.233830156312E+04    0.11216E-02   -0.18516E-02  3897   0.633E-02    0.241E-01
RMM:   3    -0.233830290574E+04   -0.13426E-02   -0.64418E-03  4625   0.400E-02    0.474E-01
RMM:   4    -0.233830080722E+04    0.20985E-02   -0.26498E-03  4904   0.202E-02    0.999E-02
RMM:   5    -0.233830070435E+04    0.10287E-03   -0.16738E-04  3207   0.681E-03    0.352E-02
RMM:   6    -0.233830070382E+04    0.53177E-06   -0.59526E-05  2837   0.402E-03
   4 F= -.23598860E+04 E0= -.23598859E+04  d E =-.242861E-03  mag=     3.9979
       N       E                     dE             d eps       ncg     rms          rms(c)
DAV:   1    -0.233834536624E+04   -0.44662E-01   -0.83972E+00  4240   0.129E+00    0.541E-01
RMM:   2    -0.233834341765E+04    0.19486E-02   -0.45419E-02  4112   0.996E-02    0.322E-01
RMM:   3    -0.233834347543E+04   -0.57777E-04   -0.10971E-02  4558   0.612E-02    0.466E-01
RMM:   4    -0.233834217348E+04    0.13020E-02   -0.49840E-03  4996   0.279E-02    0.273E-01
RMM:   5    -0.233834141100E+04    0.76248E-03   -0.58882E-04  3743   0.149E-02    0.600E-02
RMM:   6    -0.233834140754E+04    0.34521E-05   -0.21135E-04  3363   0.709E-03    0.668E-02
RMM:   7    -0.233834135903E+04    0.48517E-04   -0.20160E-04  3555   0.608E-03    0.237E-02
RMM:   8    -0.233834135737E+04    0.16546E-05   -0.21588E-05  2719   0.417E-03
   5 F= -.23599262E+04 E0= -.23599261E+04  d E =-.231934E-03  mag=     3.9979
       N       E                     dE             d eps       ncg     rms          rms(c)
DAV:   1    -0.233832501847E+04    0.16341E-01   -0.41192E+00  4320   0.912E-01    0.356E-01
RMM:   2    -0.233832432677E+04    0.69170E-03   -0.17723E-02  3924   0.623E-02    0.212E-01
RMM:   3    -0.233832461477E+04   -0.28800E-03   -0.51631E-03  4420   0.387E-02    0.314E-01
RMM:   4    -0.233832379364E+04    0.82113E-03   -0.17396E-03  4584   0.169E-02    0.125E-01
RMM:   5    -0.233832372376E+04    0.69876E-04   -0.32231E-04  3345   0.938E-03    0.873E-02
RMM:   6    -0.233832362556E+04    0.98206E-04   -0.10373E-04  2959   0.541E-03    0.251E-02
RMM:   7    -0.233832363590E+04   -0.10345E-04   -0.71967E-05  3060   0.382E-03    0.378E-02
RMM:   8    -0.233832362091E+04    0.14989E-04   -0.20059E-05  2618   0.347E-03    0.101E-02
RMM:   9    -0.233832361982E+04    0.10928E-05   -0.26214E-06  2291   0.147E-03
   6 F= -.23599085E+04 E0= -.23599085E+04  d E =-.154401E-03  mag=     3.9986
       N       E                     dE             d eps       ncg     rms          rms(c)
DAV:   1    -0.233833310783E+04   -0.94869E-02   -0.81779E+00  4240   0.125E+00    0.516E-01
RMM:   2    -0.233833139664E+04    0.17112E-02   -0.28275E-02  3980   0.783E-02    0.300E-01
RMM:   3    -0.233833095145E+04    0.44519E-03   -0.96241E-03  4680   0.483E-02    0.294E-01
RMM:   4    -0.233833035211E+04    0.59934E-03   -0.21916E-03  4706   0.190E-02    0.176E-01
RMM:   5    -0.233833008847E+04    0.26364E-03   -0.30222E-04  3338   0.856E-03    0.727E-02
RMM:   6    -0.233833003013E+04    0.58345E-04   -0.87219E-05  2841   0.494E-03    0.371E-02
RMM:   7    -0.233833002462E+04    0.55029E-05   -0.84030E-05  3110   0.407E-03
   7 F= -.23599151E+04 E0= -.23599150E+04  d E =-.329751E-03  mag=     3.9976
       N       E                     dE             d eps       ncg     rms          rms(c)
DAV:   1    -0.233831056641E+04    0.19464E-01   -0.42014E+00  4480   0.971E-01    0.376E-01
RMM:   2    -0.233830982878E+04    0.73763E-03   -0.17459E-02  3866   0.657E-02    0.236E-01
RMM:   3    -0.233831142737E+04   -0.15986E-02   -0.70142E-03  5162   0.424E-02    0.475E-01
RMM:   4    -0.233830904634E+04    0.23810E-02   -0.23522E-03  5071   0.207E-02    0.828E-02
RMM:   5    -0.233830905508E+04   -0.87451E-05   -0.35235E-04  3297   0.801E-03    0.941E-02
RMM:   6    -0.233830894143E+04    0.11366E-03   -0.11267E-04  3004   0.533E-03    0.292E-02
RMM:   7    -0.233830893831E+04    0.31151E-05   -0.42483E-05  2738   0.379E-03
   8 F= -.23598937E+04 E0= -.23598936E+04  d E =-.205058E-03  mag=     3.9980
       N       E                     dE             d eps       ncg     rms          rms(c)
DAV:   1    -0.233833286342E+04   -0.23922E-01   -0.85406E+00  4480   0.137E+00    0.573E-01
RMM:   2    -0.233833021552E+04    0.26479E-02   -0.32230E-02  3938   0.902E-02    0.344E-01
RMM:   3    -0.233833268537E+04   -0.24699E-02   -0.17236E-02  4966   0.612E-02    0.629E-01
RMM:   4    -0.233832859257E+04    0.40928E-02   -0.36931E-03  5068   0.253E-02    0.689E-02
RMM:   5    -0.233832852211E+04    0.70462E-04   -0.43028E-04  3552   0.847E-03    0.738E-02
RMM:   6    -0.233832844573E+04    0.76380E-04   -0.12922E-04  3165   0.613E-03    0.362E-02
RMM:   7    -0.233832844384E+04    0.18940E-05   -0.10867E-04  3193   0.486E-03    0.411E-02
RMM:   8    -0.233832842678E+04    0.17054E-04   -0.36642E-05  2851   0.464E-03    0.130E-02
RMM:   9    -0.233832842552E+04    0.12577E-05   -0.49174E-06  2617   0.209E-03
   9 F= -.23599137E+04 E0= -.23599136E+04  d E =-.269420E-03  mag=     3.9978
       N       E                     dE             d eps       ncg     rms          rms(c)
DAV:   1    -0.233830811682E+04    0.20310E-01   -0.42960E+00  4480   0.959E-01    0.407E-01
RMM:   2    -0.233830657317E+04    0.15436E-02   -0.17399E-02  3871   0.625E-02    0.243E-01
RMM:   3    -0.233830647935E+04    0.93816E-04   -0.48862E-03  4077   0.391E-02    0.268E-01
RMM:   4    -0.233830628873E+04    0.19062E-03   -0.21934E-03  4759   0.188E-02    0.222E-01
RMM:   5    -0.233830583925E+04    0.44948E-03   -0.30809E-04  3585   0.101E-02    0.438E-02
RMM:   6    -0.233830583781E+04    0.14440E-05   -0.72049E-05  2854   0.465E-03
  10 F= -.23598904E+04 E0= -.23598903E+04  d E =-.255245E-03  mag=     3.9978
       N       E                     dE             d eps       ncg     rms          rms(c)
DAV:   1    -0.233833838445E+04   -0.32545E-01   -0.84282E+00  4480   0.132E+00    0.550E-01
RMM:   2    -0.233833674386E+04    0.16406E-02   -0.50512E-02  4006   0.103E-01    0.338E-01
RMM:   3    -0.233833553499E+04    0.12089E-02   -0.87308E-03  4182   0.637E-02    0.239E-01
RMM:   4    -0.233833634413E+04   -0.80914E-03   -0.51824E-03  5379   0.298E-02    0.323E-01
RMM:   5    -0.233833508011E+04    0.12640E-02   -0.88253E-04  4304   0.173E-02    0.625E-02
RMM:   6    -0.233833507196E+04    0.81485E-05   -0.21501E-04  3256   0.672E-03    0.670E-02
RMM:   7    -0.233833502170E+04    0.50262E-04   -0.81826E-05  2892   0.463E-03    0.331E-02
RMM:   8    -0.233833502650E+04   -0.48000E-05   -0.31638E-05  2585   0.345E-03
  11 F= -.23599205E+04 E0= -.23599204E+04  d E =-.208344E-03  mag=     3.9981
       N       E                     dE             d eps       ncg     rms          rms(c)
DAV:   1    -0.233829570143E+04    0.39320E-01   -0.42763E+00  4480   0.972E-01    0.412E-01
RMM:   2    -0.233829444435E+04    0.12571E-02   -0.19832E-02  3852   0.694E-02    0.247E-01
RMM:   3    -0.233829397102E+04    0.47333E-03   -0.75992E-03  4665   0.440E-02    0.192E-01
RMM:   4    -0.233829367274E+04    0.29828E-03   -0.14989E-03  4462   0.167E-02    0.119E-01
RMM:   5    -0.233829355827E+04    0.11446E-03   -0.21865E-04  3163   0.731E-03    0.829E-02
RMM:   6    -0.233829347152E+04    0.86754E-04   -0.69567E-05  2895   0.467E-03    0.255E-02
RMM:   7    -0.233829347329E+04   -0.17745E-05   -0.44515E-05  2792   0.339E-03
  12 F= -.23598790E+04 E0= -.23598788E+04  d E =-.252343E-03  mag=     3.9979
       N       E                     dE             d eps       ncg     rms          rms(c)
DAV:   1    -0.233834397246E+04   -0.50501E-01   -0.86286E+00  4480   0.141E+00    0.594E-01
RMM:   2    -0.233834099332E+04    0.29791E-02   -0.35439E-02  3986   0.919E-02    0.359E-01
RMM:   3    -0.233834250958E+04   -0.15163E-02   -0.14559E-02  5306   0.596E-02    0.594E-01
RMM:   4    -0.233833912571E+04    0.33839E-02   -0.41806E-03  5285   0.263E-02    0.160E-01
RMM:   5    -0.233833908925E+04    0.36466E-04   -0.62178E-04  3558   0.121E-02    0.136E-01
RMM:   6    -0.233833886817E+04    0.22108E-03   -0.17411E-04  3079   0.658E-03    0.389E-02
RMM:   7    -0.233833885708E+04    0.11090E-04   -0.11442E-04  3259   0.475E-03    0.424E-02
RMM:   8    -0.233833883596E+04    0.21122E-04   -0.62003E-05  3058   0.454E-03    0.170E-02
RMM:   9    -0.233833883365E+04    0.23068E-05   -0.67980E-06  2714   0.249E-03
  13 F= -.23599234E+04 E0= -.23599233E+04  d E =-.216168E-03  mag=     3.9981
       N       E                     dE             d eps       ncg     rms          rms(c)
DAV:   1    -0.233832097619E+04    0.17860E-01   -0.27836E+00  4600   0.756E-01    0.427E-01
RMM:   2    -0.233831890023E+04    0.20760E-02   -0.14212E-02  3843   0.570E-02    0.246E-01
RMM:   3    -0.233831862565E+04    0.27458E-03   -0.71596E-03  4873   0.379E-02    0.224E-01
RMM:   4    -0.233831823632E+04    0.38933E-03   -0.10944E-03  4368   0.141E-02    0.149E-01
RMM:   5    -0.233831801406E+04    0.22226E-03   -0.16194E-04  3268   0.669E-03    0.470E-02
RMM:   6    -0.233831800672E+04    0.73399E-05   -0.95810E-05  3016   0.484E-03
  14 F= -.23599032E+04 E0= -.23599030E+04  d E =-.238760E-03  mag=     3.9981
       N       E                     dE             d eps       ncg     rms          rms(c)
DAV:   1    -0.233834954249E+04   -0.31528E-01   -0.12572E+00  4920   0.494E-01    0.437E-01
RMM:   2    -0.233834761397E+04    0.19285E-02   -0.12232E-02  3805   0.465E-02    0.245E-01
RMM:   3    -0.233834880768E+04   -0.11937E-02   -0.54709E-03  5235   0.352E-02    0.370E-01
RMM:   4    -0.233834710464E+04    0.17030E-02   -0.15685E-03  4652   0.174E-02    0.788E-02
RMM:   5    -0.233834711883E+04   -0.14193E-04   -0.46538E-04  3668   0.864E-03    0.110E-01
RMM:   6    -0.233834702200E+04    0.96830E-04   -0.41495E-04  3774   0.839E-03    0.625E-02
RMM:   7    -0.233834700283E+04    0.19170E-04   -0.75638E-05  2731   0.502E-03    0.465E-02
RMM:   8    -0.233834697544E+04    0.27393E-04   -0.23708E-05  2503   0.272E-03    0.774E-03
RMM:   9    -0.233834697546E+04   -0.18510E-07   -0.24485E-05  2396   0.216E-03
  15 F= -.23599319E+04 E0= -.23599318E+04  d E =-.230070E-03  mag=     3.9981
       N       E                     dE             d eps       ncg     rms          rms(c)
DAV:   1    -0.233834957198E+04   -0.25965E-02   -0.62191E-01  4240   0.353E-01    0.240E-01
RMM:   2    -0.233834944009E+04    0.13189E-03   -0.29913E-03  3614   0.253E-02    0.140E-01
RMM:   3    -0.233834954988E+04   -0.10979E-03   -0.10044E-03  3865   0.163E-02    0.124E-01
RMM:   4    -0.233834941514E+04    0.13474E-03   -0.22691E-04  3146   0.708E-03    0.508E-02
RMM:   5    -0.233834939471E+04    0.20431E-04   -0.50339E-05  2850   0.423E-03    0.316E-02
RMM:   6    -0.233834938871E+04    0.60018E-05   -0.31196E-05  2579   0.313E-03
  16 F= -.23599342E+04 E0= -.23599341E+04  d E =-.253441E-03  mag=     3.9980
       N       E                     dE             d eps       ncg     rms          rms(c)
DAV:   1    -0.233832207681E+04    0.27318E-01   -0.12339E+00  4720   0.498E-01    0.343E-01
RMM:   2    -0.233832173167E+04    0.34514E-03   -0.69573E-03  3684   0.390E-02    0.200E-01
RMM:   3    -0.233832229018E+04   -0.55850E-03   -0.26791E-03  4320   0.278E-02    0.253E-01
RMM:   4    -0.233832161661E+04    0.67357E-03   -0.73068E-04  4094   0.120E-02    0.671E-02
RMM:   5    -0.233832160120E+04    0.15408E-04   -0.17487E-04  3066   0.606E-03    0.720E-02
RMM:   6    -0.233832154935E+04    0.51851E-04   -0.17935E-04  3184   0.550E-03    0.293E-02
RMM:   7    -0.233832154979E+04   -0.43714E-06   -0.33867E-05  2587   0.413E-03
  17 F= -.23599068E+04 E0= -.23599067E+04  d E =-.231459E-03  mag=     3.9981
       N       E                     dE             d eps       ncg     rms          rms(c)
DAV:   1    -0.233834960741E+04   -0.28058E-01   -0.64024E-01  4840   0.357E-01    0.339E-01
RMM:   2    -0.233834821282E+04    0.13946E-02   -0.70056E-03  3689   0.360E-02    0.182E-01
RMM:   3    -0.233834803079E+04    0.18204E-03   -0.33170E-03  4279   0.244E-02    0.707E-02
RMM:   4    -0.233834802506E+04    0.57290E-05   -0.33617E-04  3744   0.883E-03    0.104E-01
RMM:   5    -0.233834790744E+04    0.11762E-03   -0.23973E-04  3202   0.663E-03    0.534E-02
RMM:   6    -0.233834788709E+04    0.20346E-04   -0.65514E-05  2725   0.502E-03    0.333E-02
RMM:   7    -0.233834787868E+04    0.84119E-05   -0.12794E-05  2463   0.264E-03
  18 F= -.23599330E+04 E0= -.23599329E+04  d E =-.239832E-03  mag=     3.9980
       N       E                     dE             d eps       ncg     rms          rms(c)
DAV:   1    -0.233831904820E+04    0.28839E-01   -0.12660E+00  5080   0.495E-01    0.467E-01
RMM:   2    -0.233831636458E+04    0.26836E-02   -0.13913E-02  3858   0.529E-02    0.251E-01
RMM:   3    -0.233831600274E+04    0.36185E-03   -0.63124E-03  4512   0.348E-02    0.992E-02
RMM:   4    -0.233831614217E+04   -0.13943E-03   -0.67755E-04  4326   0.122E-02    0.189E-01
RMM:   5    -0.233831576469E+04    0.37747E-03   -0.30202E-04  3458   0.793E-03    0.519E-02
RMM:   6    -0.233831577780E+04   -0.13107E-04   -0.21027E-04  3317   0.665E-03    0.574E-02
RMM:   7    -0.233831573866E+04    0.39139E-04   -0.40501E-05  2676   0.438E-03    0.125E-02
RMM:   8    -0.233831573623E+04    0.24327E-05   -0.82536E-06  2352   0.217E-03
  19 F= -.23599007E+04 E0= -.23599006E+04  d E =-.223445E-03  mag=     3.9981
       N       E                     dE             d eps       ncg     rms          rms(c)
DAV:   1    -0.233835346620E+04   -0.37728E-01   -0.65622E-01  4960   0.365E-01    0.369E-01
RMM:   2    -0.233835091504E+04    0.25512E-02   -0.11286E-02  3912   0.425E-02    0.182E-01
RMM:   3    -0.233835084347E+04    0.71572E-04   -0.60915E-03  4555   0.333E-02    0.122E-01
RMM:   4    -0.233835069550E+04    0.14797E-03   -0.61167E-04  4304   0.109E-02    0.105E-01
RMM:   5    -0.233835057770E+04    0.11780E-03   -0.42532E-04  3688   0.772E-03    0.614E-02
RMM:   6    -0.233835058789E+04   -0.10195E-04   -0.18104E-04  3220   0.697E-03    0.638E-02
RMM:   7    -0.233835054403E+04    0.43864E-04   -0.29704E-05  2644   0.386E-03    0.168E-02
RMM:   8    -0.233835053918E+04    0.48528E-05   -0.10092E-05  2308   0.207E-03
  20 F= -.23599350E+04 E0= -.23599349E+04  d E =-.231034E-03  mag=     3.9981
       N       E                     dE             d eps       ncg     rms          rms(c)
DAV:   1    -0.233831349498E+04    0.37049E-01   -0.12805E+00  5040   0.459E-01    0.520E-01
RMM:   2    -0.233830969688E+04    0.37981E-02   -0.17861E-02  3922   0.492E-02    0.272E-01
RMM:   3    -0.233830920173E+04    0.49515E-03   -0.84622E-03  4619   0.406E-02    0.101E-01
RMM:   4    -0.233830948563E+04   -0.28390E-03   -0.89532E-04  4218   0.126E-02    0.234E-01
RMM:   5    -0.233830890232E+04    0.58331E-03   -0.55318E-04  3902   0.101E-02    0.344E-02
RMM:   6    -0.233830891383E+04   -0.11510E-04   -0.81837E-05  2848   0.551E-03    0.410E-02
RMM:   7    -0.233830889160E+04    0.22226E-04   -0.19977E-05  2576   0.307E-03    0.118E-02
RMM:   8    -0.233830889105E+04    0.55051E-06   -0.87570E-06  2392   0.177E-03
  21 F= -.23598945E+04 E0= -.23598944E+04  d E =-.230781E-03  mag=     3.9980
       N       E                     dE             d eps       ncg     rms          rms(c)
DAV:   1    -0.233835208190E+04   -0.43190E-01   -0.65452E-01  5040   0.322E-01    0.410E-01
RMM:   2    -0.233834948086E+04    0.26010E-02   -0.11057E-02  3863   0.403E-02    0.215E-01
RMM:   3    -0.233834915089E+04    0.32996E-03   -0.58775E-03  4497   0.320E-02    0.105E-01
RMM:   4    -0.233834913086E+04    0.20036E-04   -0.58922E-04  3954   0.104E-02    0.143E-01
RMM:   5    -0.233834887956E+04    0.25130E-03   -0.38894E-04  3660   0.789E-03    0.283E-02
RMM:   6    -0.233834890041E+04   -0.20857E-04   -0.99140E-05  3048   0.549E-03    0.419E-02
RMM:   7    -0.233834887825E+04    0.22161E-04   -0.18724E-05  2514   0.342E-03    0.112E-02
RMM:   8    -0.233834887526E+04    0.29899E-05   -0.20065E-05  2292   0.183E-03
  22 F= -.23599337E+04 E0= -.23599336E+04  d E =-.235270E-03  mag=     3.9980
       N       E                     dE             d eps       ncg     rms          rms(c)
DAV:   1    -0.233831965446E+04    0.29224E-01   -0.12664E+00  4880   0.447E-01    0.432E-01
RMM:   2    -0.233831767093E+04    0.19835E-02   -0.11293E-02  3882   0.431E-02    0.235E-01
RMM:   3    -0.233831749952E+04    0.17142E-03   -0.47593E-03  4501   0.335E-02    0.131E-01
RMM:   4    -0.233831754680E+04   -0.47283E-04   -0.91951E-04  4378   0.124E-02    0.160E-01
RMM:   5    -0.233831729370E+04    0.25310E-03   -0.25236E-04  3457   0.734E-03    0.657E-02
RMM:   6    -0.233831726382E+04    0.29873E-04   -0.19491E-04  3252   0.644E-03    0.464E-02
RMM:   7    -0.233831724380E+04    0.20027E-04   -0.60865E-05  2929   0.442E-03    0.104E-02
RMM:   8    -0.233831724018E+04    0.36168E-05   -0.86486E-06  2366   0.257E-03
  23 F= -.23599025E+04 E0= -.23599024E+04  d E =-.230044E-03  mag=     3.9980
       N       E                     dE             d eps       ncg     rms          rms(c)
DAV:   1    -0.233834171114E+04   -0.24467E-01   -0.62739E-01  4760   0.313E-01    0.279E-01
RMM:   2    -0.233834102647E+04    0.68467E-03   -0.43382E-03  3713   0.263E-02    0.154E-01
RMM:   3    -0.233834110196E+04   -0.75494E-04   -0.19245E-03  4353   0.220E-02    0.131E-01
RMM:   4    -0.233834093670E+04    0.16526E-03   -0.33037E-04  3851   0.863E-03    0.642E-02
RMM:   5    -0.233834091330E+04    0.23406E-04   -0.13774E-04  3141   0.540E-03    0.577E-02
RMM:   6    -0.233834089216E+04    0.21141E-04   -0.73410E-05  2680   0.446E-03    0.374E-02
RMM:   7    -0.233834087998E+04    0.12177E-04   -0.15690E-05  2474   0.288E-03    0.773E-03
RMM:   8    -0.233834087928E+04    0.70504E-06   -0.27514E-06  2009   0.180E-03
  24 F= -.23599262E+04 E0= -.23599261E+04  d E =-.225906E-03  mag=     3.9981
       N       E                     dE             d eps       ncg     rms          rms(c)
DAV:   1    -0.233833143621E+04    0.94438E-02   -0.12341E+00  4520   0.437E-01    0.313E-01
RMM:   2    -0.233833149241E+04   -0.56203E-04   -0.49573E-03  3694   0.316E-02    0.186E-01
RMM:   3    -0.233833147366E+04    0.18760E-04   -0.13083E-03  3829   0.214E-02    0.411E-02
RMM:   4    -0.233833154014E+04   -0.66481E-04   -0.29523E-04  3362   0.772E-03    0.809E-02
RMM:   5    -0.233833146387E+04    0.76264E-04   -0.37821E-05  2850   0.449E-03    0.163E-02
RMM:   6    -0.233833146279E+04    0.10825E-05   -0.16324E-05  2570   0.235E-03
  25 F= -.23599162E+04 E0= -.23599161E+04  d E =-.244182E-03  mag=     3.9980
       N       E                     dE             d eps       ncg     rms          rms(c)
DAV:   1    -0.233833817172E+04   -0.67078E-02   -0.62554E-01  4560   0.330E-01    0.262E-01
RMM:   2    -0.233833809655E+04    0.75165E-04   -0.31601E-03  3666   0.241E-02    0.155E-01
RMM:   3    -0.233833824485E+04   -0.14829E-03   -0.90530E-04  3806   0.174E-02    0.159E-01
RMM:   4    -0.233833800062E+04    0.24423E-03   -0.29786E-04  3430   0.803E-03    0.415E-02
RMM:   5    -0.233833800145E+04   -0.83132E-06   -0.64288E-05  2801   0.450E-03
  26 F= -.23599230E+04 E0= -.23599229E+04  d E =-.230901E-03  mag=     3.9980
       N       E                     dE             d eps       ncg     rms          rms(c)
DAV:   1    -0.233833276809E+04    0.52325E-02   -0.12673E+00  4680   0.437E-01    0.398E-01
RMM:   2    -0.233833184491E+04    0.92317E-03   -0.88458E-03  3853   0.381E-02    0.235E-01
RMM:   3    -0.233833452736E+04   -0.26825E-02   -0.47391E-03  4660   0.342E-02    0.543E-01
RMM:   4    -0.233833152150E+04    0.30059E-02   -0.18825E-03  4725   0.184E-02    0.711E-02
RMM:   5    -0.233833152682E+04   -0.53182E-05   -0.28003E-04  3360   0.752E-03    0.840E-02
RMM:   6    -0.233833144628E+04    0.80534E-04   -0.20303E-04  3503   0.660E-03    0.357E-02
RMM:   7    -0.233833144724E+04   -0.95966E-06   -0.52954E-05  2877   0.433E-03
  27 F= -.23599165E+04 E0= -.23599164E+04  d E =-.218537E-03  mag=     3.9981
       N       E                     dE             d eps       ncg     rms          rms(c)
DAV:   1    -0.233833240465E+04   -0.95836E-03   -0.63574E-01  4640   0.316E-01    0.247E-01
RMM:   2    -0.233833232691E+04    0.77735E-04   -0.24756E-03  3652   0.218E-02    0.146E-01
RMM:   3    -0.233833231558E+04    0.11335E-04   -0.85510E-04  3900   0.143E-02    0.594E-02
RMM:   4    -0.233833228158E+04    0.33998E-04   -0.13279E-04  3159   0.647E-03    0.343E-02
RMM:   5    -0.233833227717E+04    0.44081E-05   -0.28111E-05  2643   0.319E-03
  28 F= -.23599171E+04 E0= -.23599170E+04  d E =-.220458E-03  mag=     3.9981
       N       E                     dE             d eps       ncg     rms          rms(c)
DAV:   1    -0.233833937093E+04   -0.70893E-02   -0.12783E+00  4520   0.441E-01    0.352E-01
RMM:   2    -0.233833912389E+04    0.24704E-03   -0.66779E-03  3863   0.342E-02    0.208E-01
RMM:   3    -0.233833940472E+04   -0.28083E-03   -0.21804E-03  4192   0.272E-02    0.215E-01
RMM:   4    -0.233833906139E+04    0.34333E-03   -0.75391E-04  4053   0.117E-02    0.865E-02
RMM:   5    -0.233833899474E+04    0.66650E-04   -0.93408E-05  3096   0.578E-03    0.480E-02
RMM:   6    -0.233833897211E+04    0.22628E-04   -0.47035E-05  2778   0.376E-03    0.251E-02
RMM:   7    -0.233833897059E+04    0.15223E-05   -0.43911E-05  2923   0.335E-03
  29 F= -.23599242E+04 E0= -.23599241E+04  d E =-.223296E-03  mag=     3.9981
       N       E                     dE             d eps       ncg     rms          rms(c)
DAV:   1    -0.233832440475E+04    0.14567E-01   -0.63834E-01  4840   0.312E-01    0.288E-01
RMM:   2    -0.233832374319E+04    0.66155E-03   -0.48100E-03  3748   0.266E-02    0.161E-01
RMM:   3    -0.233832380172E+04   -0.58525E-04   -0.19555E-03  4563   0.203E-02    0.143E-01
RMM:   4    -0.233832356948E+04    0.23224E-03   -0.36608E-04  3714   0.908E-03    0.598E-02
RMM:   5    -0.233832356298E+04    0.64940E-05   -0.16529E-04  3197   0.574E-03    0.682E-02
RMM:   6    -0.233832352086E+04    0.42124E-04   -0.84405E-05  2963   0.486E-03    0.331E-02
RMM:   7    -0.233832351835E+04    0.25035E-05   -0.23524E-05  2531   0.320E-03
  30 F= -.23599089E+04 E0= -.23599088E+04  d E =-.253590E-03  mag=     3.9979
       N       E                     dE             d eps       ncg     rms          rms(c)
DAV:   1    -0.233833591968E+04   -0.12399E-01   -0.13752E+00  5040   0.453E-01    0.585E-01
RMM:   2    -0.233833095097E+04    0.49687E-02   -0.20905E-02  4069   0.551E-02    0.305E-01
RMM:   3    -0.233833040872E+04    0.54226E-03   -0.97477E-03  4955   0.437E-02    0.185E-01
RMM:   4    -0.233833018627E+04    0.22244E-03   -0.11098E-03  4337   0.148E-02    0.158E-01
RMM:   5    -0.233832998325E+04    0.20302E-03   -0.12582E-03  4011   0.128E-02    0.107E-01
RMM:   6    -0.233832987385E+04    0.10940E-03   -0.23163E-04  3293   0.103E-02    0.502E-02
RMM:   7    -0.233832983204E+04    0.41808E-04   -0.62778E-05  2848   0.389E-03    0.158E-02
RMM:   8    -0.233832982931E+04    0.27351E-05   -0.13855E-05  2396   0.253E-03
  31 F= -.23599145E+04 E0= -.23599144E+04  d E =-.218211E-03  mag=     3.9981
       N       E                     dE             d eps       ncg     rms          rms(c)
DAV:   1    -0.233833614971E+04   -0.63177E-02   -0.65646E-01  4960   0.333E-01    0.378E-01
RMM:   2    -0.233833422958E+04    0.19201E-02   -0.11021E-02  3939   0.400E-02    0.205E-01
RMM:   3    -0.233833423996E+04   -0.10373E-04   -0.24653E-03  4135   0.285E-02    0.220E-01
RMM:   4    -0.233833429414E+04   -0.54186E-04   -0.13133E-03  4571   0.146E-02    0.228E-01
RMM:   5    -0.233833379693E+04    0.49721E-03   -0.21891E-04  3215   0.822E-03    0.452E-02
RMM:   6    -0.233833384947E+04   -0.52546E-04   -0.15340E-04  3112   0.576E-03    0.802E-02
RMM:   7    -0.233833377480E+04    0.74673E-04   -0.74434E-05  2975   0.490E-03    0.157E-02
RMM:   8    -0.233833377498E+04   -0.17999E-06   -0.12742E-05  2472   0.275E-03
  32 F= -.23599182E+04 E0= -.23599181E+04  d E =-.254230E-03  mag=     3.9980
       N       E                     dE             d eps       ncg     rms          rms(c)
DAV:   1    -0.233833672332E+04   -0.29485E-02   -0.12212E+00  4920   0.437E-01    0.451E-01
RMM:   2    -0.233833430933E+04    0.24140E-02   -0.13339E-02  4117   0.441E-02    0.256E-01
RMM:   3    -0.233833437691E+04   -0.67581E-04   -0.19799E-03  3754   0.304E-02    0.291E-01
RMM:   4    -0.233833434212E+04    0.34782E-04   -0.15882E-03  4290   0.154E-02    0.280E-01
RMM:   5    -0.233833365704E+04    0.68508E-03   -0.45622E-04  3628   0.108E-02    0.457E-02
RMM:   6    -0.233833368445E+04   -0.27410E-04   -0.14473E-04  2979   0.653E-03    0.555E-02
RMM:   7    -0.233833364485E+04    0.39599E-04   -0.43896E-05  2724   0.369E-03    0.122E-02
RMM:   8    -0.233833364209E+04    0.27624E-05   -0.63892E-06  2554   0.176E-03
  33 F= -.23599193E+04 E0= -.23599192E+04  d E =-.218493E-03  mag=     3.9981
       N       E                     dE             d eps       ncg     rms          rms(c)
DAV:   1    -0.233833780156E+04   -0.41567E-02   -0.61079E-01  4480   0.303E-01    0.232E-01
RMM:   2    -0.233833765462E+04    0.14695E-03   -0.29365E-03  3693   0.241E-02    0.138E-01
RMM:   3    -0.233833788419E+04   -0.22958E-03   -0.63311E-04  3477   0.165E-02    0.178E-01
RMM:   4    -0.233833772962E+04    0.15458E-03   -0.50081E-04  3437   0.950E-03    0.123E-01
RMM:   5    -0.233833763325E+04    0.96367E-04   -0.11539E-04  3000   0.660E-03    0.491E-02
RMM:   6    -0.233833760828E+04    0.24967E-04   -0.33587E-05  2623   0.353E-03    0.192E-02
RMM:   7    -0.233833760380E+04    0.44869E-05   -0.57328E-06  2373   0.192E-03
  34 F= -.23599227E+04 E0= -.23599226E+04  d E =-.226796E-03  mag=     3.9981
       N       E                     dE             d eps       ncg     rms          rms(c)
DAV:   1    -0.233833417563E+04    0.34327E-02   -0.12391E+00  4600   0.434E-01    0.328E-01
RMM:   2    -0.233833398604E+04    0.18959E-03   -0.58288E-03  3798   0.338E-02    0.194E-01
RMM:   3    -0.233833433801E+04   -0.35198E-03   -0.12730E-03  3621   0.239E-02    0.220E-01
RMM:   4    -0.233833421994E+04    0.11807E-03   -0.94985E-04  3890   0.127E-02    0.186E-01
RMM:   5    -0.233833392497E+04    0.29497E-03   -0.19538E-04  3184   0.858E-03    0.361E-02
RMM:   6    -0.233833391904E+04    0.59344E-05   -0.46725E-05  2717   0.388E-03
  35 F= -.23599188E+04 E0= -.23599187E+04  d E =-.244649E-03  mag=     3.9980
       N       E                     dE             d eps       ncg     rms          rms(c)
DAV:   1    -0.233836028432E+04   -0.26359E-01   -0.63017E-01  4720   0.308E-01    0.283E-01
RMM:   2    -0.233835975653E+04    0.52779E-03   -0.38582E-03  3660   0.263E-02    0.168E-01
RMM:   3    -0.233835997256E+04   -0.21603E-03   -0.10022E-03  3781   0.191E-02    0.199E-01
RMM:   4    -0.233835973196E+04    0.24060E-03   -0.82104E-04  3928   0.122E-02    0.129E-01
RMM:   5    -0.233835962142E+04    0.11054E-03   -0.19946E-04  3127   0.771E-03    0.879E-02
RMM:   6    -0.233835955340E+04    0.68017E-04   -0.71513E-05  2681   0.461E-03    0.300E-02
RMM:   7    -0.233835955150E+04    0.19032E-05   -0.21762E-05  2571   0.279E-03
  36 F= -.23599445E+04 E0= -.23599444E+04  d E =-.236591E-03  mag=     3.9981
       N       E                     dE             d eps       ncg     rms          rms(c)
DAV:   1    -0.233830582383E+04    0.53730E-01   -0.12582E+00  4960   0.455E-01    0.550E-01
RMM:   2    -0.233830172190E+04    0.41019E-02   -0.18753E-02  3998   0.518E-02    0.306E-01
RMM:   3    -0.233830089730E+04    0.82460E-03   -0.24268E-03  3909   0.342E-02    0.208E-01
RMM:   4    -0.233830224350E+04   -0.13462E-02   -0.27854E-03  4711   0.206E-02    0.390E-01
RMM:   5    -0.233830062141E+04    0.16221E-02   -0.98850E-04  4030   0.150E-02    0.108E-01
RMM:   6    -0.233830059360E+04    0.27810E-04   -0.31991E-04  3370   0.823E-03    0.901E-02
RMM:   7    -0.233830051143E+04    0.82165E-04   -0.73460E-05  2850   0.511E-03    0.404E-02
RMM:   8    -0.233830049627E+04    0.15163E-04   -0.24799E-05  2615   0.287E-03    0.166E-02
RMM:   9    -0.233830049319E+04    0.30804E-05   -0.61344E-06  2629   0.193E-03
  37 F= -.23598857E+04 E0= -.23598856E+04  d E =-.240327E-03  mag=     3.9980
       N       E                     dE             d eps       ncg     rms          rms(c)
DAV:   1    -0.233834720072E+04   -0.46704E-01   -0.63156E-01  4720   0.343E-01    0.351E-01
RMM:   2    -0.233834652752E+04    0.67320E-03   -0.52560E-03  3741   0.350E-02    0.208E-01
RMM:   3    -0.233834615848E+04    0.36903E-03   -0.15140E-03  3680   0.221E-02    0.819E-02
RMM:   4    -0.233834616199E+04   -0.35123E-05   -0.32756E-04  3411   0.913E-03    0.825E-02
RMM:   5    -0.233834609212E+04    0.69870E-04   -0.42392E-05  2750   0.447E-03    0.251E-02
RMM:   6    -0.233834608558E+04    0.65402E-05   -0.11680E-05  2433   0.230E-03
  38 F= -.23599313E+04 E0= -.23599312E+04  d E =-.225961E-03  mag=     3.9981
       N       E                     dE             d eps       ncg     rms          rms(c)
DAV:   1    -0.233831501072E+04    0.31081E-01   -0.13782E+00  4720   0.486E-01    0.601E-01
RMM:   2    -0.233831001972E+04    0.49910E-02   -0.21348E-02  4053   0.575E-02    0.338E-01
RMM:   3    -0.233830929795E+04    0.72177E-03   -0.31475E-03  3956   0.388E-02    0.251E-01
RMM:   4    -0.233831118876E+04   -0.18908E-02   -0.35780E-03  4707   0.226E-02    0.484E-01
RMM:   5    -0.233830889556E+04    0.22932E-02   -0.12644E-03  4218   0.168E-02    0.113E-01
RMM:   6    -0.233830883774E+04    0.57823E-04   -0.42579E-04  3491   0.919E-03    0.835E-02
RMM:   7    -0.233830876114E+04    0.76599E-04   -0.86931E-05  2953   0.531E-03    0.423E-02
RMM:   8    -0.233830874449E+04    0.16647E-04   -0.27822E-05  2612   0.313E-03    0.188E-02
RMM:   9    -0.233830874045E+04    0.40443E-05   -0.84161E-06  2549   0.204E-03
  39 F= -.23598936E+04 E0= -.23598935E+04  d E =-.239909E-03  mag=     3.9980
       N       E                     dE             d eps       ncg     rms          rms(c)
DAV:   1    -0.233835263635E+04   -0.43892E-01   -0.71108E-01  4640   0.353E-01    0.504E-01
RMM:   2    -0.233834843618E+04    0.42002E-02   -0.16220E-02  4006   0.500E-02    0.279E-01
RMM:   3    -0.233834794748E+04    0.48870E-03   -0.22987E-03  3765   0.338E-02    0.228E-01
RMM:   4    -0.233834905149E+04   -0.11040E-02   -0.24561E-03  4449   0.187E-02    0.394E-01
RMM:   5    -0.233834753541E+04    0.15161E-02   -0.85408E-04  3892   0.140E-02    0.912E-02
RMM:   6    -0.233834751970E+04    0.15703E-04   -0.30004E-04  3329   0.816E-03    0.802E-02
RMM:   7    -0.233834744851E+04    0.71192E-04   -0.69464E-05  2790   0.486E-03    0.364E-02
RMM:   8    -0.233834743562E+04    0.12897E-04   -0.22374E-05  2529   0.269E-03    0.158E-02
RMM:   9    -0.233834743201E+04    0.36007E-05   -0.62802E-06  2338   0.174E-03
  40 F= -.23599328E+04 E0= -.23599326E+04  d E =-.248340E-03  mag=     3.9979
       N       E                     dE             d eps       ncg     rms          rms(c)
DAV:   1    -0.233831973651E+04    0.27699E-01   -0.13332E+00  4720   0.476E-01    0.522E-01
RMM:   2    -0.233831644741E+04    0.32891E-02   -0.16158E-02  4070   0.505E-02    0.290E-01
RMM:   3    -0.233831602846E+04    0.41895E-03   -0.22397E-03  3785   0.336E-02    0.218E-01
RMM:   4    -0.233831763254E+04   -0.16041E-02   -0.26963E-03  4405   0.195E-02    0.441E-01
RMM:   5    -0.233831573077E+04    0.19018E-02   -0.94350E-04  3942   0.152E-02    0.662E-02
RMM:   6    -0.233831575469E+04   -0.23922E-04   -0.25884E-04  3204   0.724E-03    0.694E-02
RMM:   7    -0.233831569353E+04    0.61165E-04   -0.58989E-05  2763   0.443E-03    0.266E-02
RMM:   8    -0.233831568985E+04    0.36783E-05   -0.18370E-05  2511   0.244E-03
  41 F= -.23599004E+04 E0= -.23599003E+04  d E =-.221479E-03  mag=     3.9981
       N       E                     dE             d eps       ncg     rms          rms(c)
DAV:   1    -0.233834590602E+04   -0.30212E-01   -0.64523E-01  4560   0.332E-01    0.347E-01
RMM:   2    -0.233834464298E+04    0.12630E-02   -0.69941E-03  3987   0.331E-02    0.193E-01
RMM:   3    -0.233834441944E+04    0.22354E-03   -0.86559E-04  3465   0.213E-02    0.133E-01
RMM:   4    -0.233834515747E+04   -0.73803E-03   -0.11109E-03  3831   0.130E-02    0.282E-01
RMM:   5    -0.233834434742E+04    0.81006E-03   -0.42315E-04  3244   0.104E-02    0.539E-02
RMM:   6    -0.233834435150E+04   -0.40819E-05   -0.11969E-04  2948   0.521E-03    0.517E-02
RMM:   7    -0.233834432056E+04    0.30939E-04   -0.25888E-05  2607   0.330E-03    0.188E-02
RMM:   8    -0.233834431784E+04    0.27221E-05   -0.84168E-06  2305   0.172E-03
  42 F= -.23599295E+04 E0= -.23599294E+04  d E =-.250851E-03  mag=     3.9979
       N       E                     dE             d eps       ncg     rms          rms(c)
DAV:   1    -0.233833047183E+04    0.13849E-01   -0.12499E+00  4480   0.474E-01    0.374E-01
RMM:   2    -0.233833025840E+04    0.21343E-03   -0.62635E-03  3862   0.351E-02    0.218E-01
RMM:   3    -0.233833006539E+04    0.19300E-03   -0.11894E-03  3778   0.222E-02    0.808E-02
RMM:   4    -0.233833017627E+04   -0.11088E-03   -0.42796E-04  3470   0.971E-03    0.970E-02
RMM:   5    -0.233833008665E+04    0.89622E-04   -0.89343E-05  2928   0.773E-03    0.250E-02
RMM:   6    -0.233833008260E+04    0.40511E-05   -0.17964E-05  2601   0.229E-03
  43 F= -.23599149E+04 E0= -.23599148E+04  d E =-.218251E-03  mag=     3.9981
       N       E                     dE             d eps       ncg     rms          rms(c)
DAV:   1    -0.233833881573E+04   -0.87291E-02   -0.58521E-01  4320   0.362E-01    0.243E-01
RMM:   2    -0.233833934632E+04   -0.53059E-03   -0.46836E-03  4306   0.351E-02    0.270E-01
RMM:   3    -0.233833901916E+04    0.32716E-03   -0.15054E-03  4289   0.211E-02    0.207E-01
RMM:   4    -0.233833879523E+04    0.22394E-03   -0.74939E-04  3878   0.118E-02    0.156E-01
RMM:   5    -0.233833867973E+04    0.11549E-03   -0.38097E-04  3128   0.959E-03    0.105E-01
RMM:   6    -0.233833859963E+04    0.80100E-04   -0.13051E-04  2937   0.576E-03    0.548E-02
RMM:   7    -0.233833856587E+04    0.33764E-04   -0.41155E-05  2709   0.385E-03    0.165E-02
RMM:   8    -0.233833856247E+04    0.33977E-05   -0.51908E-06  2537   0.179E-03
  44 F= -.23599233E+04 E0= -.23599232E+04  d E =-.187170E-03  mag=     3.9983
       N       E                     dE             d eps       ncg     rms          rms(c)
DAV:   1    -0.233833635068E+04    0.22152E-02   -0.10846E+00  4400   0.454E-01    0.304E-01
RMM:   2    -0.233833838534E+04   -0.20347E-02   -0.87967E-03  5071   0.448E-02    0.471E-01
RMM:   3    -0.233833614603E+04    0.22393E-02   -0.25894E-03  4949   0.256E-02    0.193E-01
RMM:   4    -0.233833644849E+04   -0.30245E-03   -0.13269E-03  4469   0.139E-02    0.259E-01
RMM:   5    -0.233833588167E+04    0.56681E-03   -0.68870E-04  3493   0.107E-02    0.102E-01
RMM:   6    -0.233833587771E+04    0.39578E-05   -0.26083E-04  3035   0.705E-03    0.906E-02
RMM:   7    -0.233833578625E+04    0.91461E-04   -0.86829E-05  2870   0.506E-03    0.206E-02
RMM:   8    -0.233833578327E+04    0.29795E-05   -0.10311E-05  2762   0.239E-03
  45 F= -.23599211E+04 E0= -.23599209E+04  d E =-.283395E-03  mag=     3.9978
       N       E                     dE             d eps       ncg     rms          rms(c)
DAV:   1    -0.233831936578E+04    0.16420E-01   -0.53900E-01  4320   0.321E-01    0.167E-01
RMM:   2    -0.233832015117E+04   -0.78539E-03   -0.32234E-03  4393   0.295E-02    0.259E-01
RMM:   3    -0.233831938582E+04    0.76534E-03   -0.80367E-04  3583   0.145E-02    0.980E-02
RMM:   4    -0.233831948655E+04   -0.10072E-03   -0.35515E-04  3282   0.823E-03    0.123E-01
RMM:   5    -0.233831935946E+04    0.12709E-03   -0.22606E-04  3131   0.716E-03    0.655E-02
RMM:   6    -0.233831935563E+04    0.38258E-05   -0.80870E-05  2798   0.433E-03
  46 F= -.23599043E+04 E0= -.23599042E+04  d E =-.311544E-03  mag=     3.9975
       N       E                     dE             d eps       ncg     rms          rms(c)
DAV:   1    -0.233834922355E+04   -0.29864E-01   -0.10830E+00  4400   0.481E-01    0.362E-01
RMM:   2    -0.233835840178E+04   -0.91782E-02   -0.20469E-02  5563   0.654E-02    0.883E-01
RMM:   3    -0.233834806307E+04    0.10339E-01   -0.52414E-03  5612   0.351E-02    0.164E-01
RMM:   4    -0.233834854430E+04   -0.48123E-03   -0.19044E-03  4170   0.157E-02    0.257E-01
RMM:   5    -0.233834785010E+04    0.69419E-03   -0.78823E-04  4037   0.118E-02    0.674E-02
RMM:   6    -0.233834790258E+04   -0.52473E-04   -0.19347E-04  2949   0.561E-03    0.994E-02
RMM:   7    -0.233834780257E+04    0.10001E-03   -0.63217E-05  2679   0.403E-03    0.140E-02
RMM:   8    -0.233834780110E+04    0.14720E-05   -0.16450E-05  2666   0.208E-03
  47 F= -.23599329E+04 E0= -.23599328E+04  d E =-.174561E-03  mag=     3.9982
       N       E                     dE             d eps       ncg     rms          rms(c)
DAV:   1    -0.233832909815E+04    0.18704E-01   -0.54595E-01  4320   0.321E-01    0.229E-01
RMM:   2    -0.233833190711E+04   -0.28090E-02   -0.75517E-03  5145   0.408E-02    0.525E-01
RMM:   3    -0.233832860613E+04    0.33010E-02   -0.20482E-03  4499   0.237E-02    0.109E-01
RMM:   4    -0.233832875565E+04   -0.14952E-03   -0.77311E-04  3866   0.110E-02    0.149E-01
RMM:   5    -0.233832855321E+04    0.20244E-03   -0.38629E-04  3461   0.878E-03    0.651E-02
RMM:   6    -0.233832857030E+04   -0.17095E-04   -0.10383E-04  2824   0.506E-03    0.792E-02
RMM:   7    -0.233832850985E+04    0.60451E-04   -0.39451E-05  2626   0.337E-03    0.155E-02
RMM:   8    -0.233832850864E+04    0.12148E-05   -0.92801E-06  2572   0.198E-03
  48 F= -.23599139E+04 E0= -.23599137E+04  d E =-.313205E-03  mag=     3.9976
       N       E                     dE             d eps       ncg     rms          rms(c)
DAV:   1    -0.233834919263E+04   -0.20683E-01   -0.10685E+00  4400   0.479E-01    0.253E-01
RMM:   2    -0.233834951050E+04   -0.31787E-03   -0.82515E-03  4826   0.390E-02    0.264E-01
RMM:   3    -0.233834949740E+04    0.13099E-04   -0.19789E-03  4049   0.216E-02    0.268E-01
RMM:   4    -0.233834884647E+04    0.65093E-03   -0.80894E-04  3974   0.121E-02    0.139E-01
RMM:   5    -0.233834893404E+04   -0.87565E-04   -0.47863E-04  3542   0.991E-03    0.153E-01
RMM:   6    -0.233834869081E+04    0.24323E-03   -0.21894E-04  3236   0.803E-03    0.476E-02
RMM:   7    -0.233834868801E+04    0.27999E-05   -0.63698E-05  2882   0.457E-03
  49 F= -.23599334E+04 E0= -.23599333E+04  d E =-.182349E-03  mag=     3.9982
