       N       E                     dE             d eps       ncg     rms          rms(c)
DAV:   1     0.127264411476E+05    0.12726E+05   -0.82644E+05  4408   0.144E+03
DAV:   2    -0.105259032060E+04   -0.13779E+05   -0.13199E+05  5272   0.330E+02
DAV:   3    -0.246481172702E+04   -0.14122E+04   -0.13994E+04  5312   0.111E+02
DAV:   4    -0.251009998393E+04   -0.45288E+02   -0.45058E+02  6656   0.296E+01
DAV:   5    -0.251096362548E+04   -0.86364E+00   -0.86217E+00  5624   0.323E+00    0.170E+02
RMM:   6    -0.148057490590E+04    0.10304E+04   -0.19419E+03  4366   0.390E+01    0.761E+01
RMM:   7    -0.168975287102E+04   -0.20918E+03   -0.30668E+02  4996   0.139E+01    0.670E+01
RMM:   8    -0.166762345101E+04    0.22129E+02   -0.91501E+01  5218   0.834E+00    0.406E+01
RMM:   9    -0.176490567333E+04   -0.97282E+02   -0.43183E+01  4419   0.673E+00    0.294E+01
RMM:  10    -0.191868139539E+04   -0.15378E+03   -0.67997E+01  4995   0.768E+00    0.264E+01
RMM:  11    -0.198857708255E+04   -0.69896E+02   -0.32570E+01  5321   0.483E+00    0.217E+01
RMM:  12    -0.206641105663E+04   -0.77834E+02   -0.32353E+01  4848   0.468E+00    0.140E+01
RMM:  13    -0.217187523413E+04   -0.10546E+03   -0.64929E+01  4416   0.617E+00    0.996E+00
RMM:  14    -0.225910794877E+04   -0.87233E+02   -0.75018E+01  4487   0.627E+00    0.673E+00
RMM:  15    -0.228699731001E+04   -0.27889E+02   -0.26030E+01  4701   0.422E+00    0.395E+00
RMM:  16    -0.229554036472E+04   -0.85431E+01   -0.93743E+00  4889   0.206E+00    0.597E+00
RMM:  17    -0.229581542694E+04   -0.27506E+00   -0.71137E-01  5484   0.760E-01    0.518E+00
RMM:  18    -0.229885567389E+04   -0.30402E+01   -0.15264E+00  4362   0.822E-01    0.294E+00
RMM:  19    -0.230054412215E+04   -0.16884E+01   -0.82718E-01  4382   0.587E-01    0.140E+00
RMM:  20    -0.230159219119E+04   -0.10481E+01   -0.49787E-01  4558   0.428E-01    0.840E-01
RMM:  21    -0.230179386075E+04   -0.20167E+00   -0.19259E-01  4708   0.278E-01    0.499E-01
RMM:  22    -0.230185705228E+04   -0.63192E-01   -0.58826E-02  4748   0.142E-01    0.335E-01
RMM:  23    -0.230188563188E+04   -0.28580E-01   -0.14352E-02  4537   0.874E-02    0.178E-01
RMM:  24    -0.230189947938E+04   -0.13847E-01   -0.57723E-03  4638   0.515E-02    0.132E-01
RMM:  25    -0.230191388690E+04   -0.14408E-01   -0.31457E-03  4401   0.402E-02    0.777E-02
RMM:  26    -0.230192230885E+04   -0.84220E-02   -0.18695E-03  4430   0.313E-02    0.458E-02
RMM:  27    -0.230192718631E+04   -0.48775E-02   -0.11810E-03  4287   0.241E-02    0.291E-02
RMM:  28    -0.230192923136E+04   -0.20451E-02   -0.43055E-04  4131   0.162E-02    0.160E-02
RMM:  29    -0.230193023402E+04   -0.10027E-02   -0.21671E-04  3758   0.989E-03    0.104E-02
RMM:  30    -0.230193050660E+04   -0.27258E-03   -0.59556E-05  3468   0.771E-03    0.669E-03
RMM:  31    -0.230193063664E+04   -0.13004E-03   -0.34504E-05  3194   0.440E-03    0.463E-03
RMM:  32    -0.230193067553E+04   -0.38889E-04   -0.99381E-06  2836   0.385E-03    0.266E-03
RMM:  33    -0.230193068723E+04   -0.11704E-04   -0.59481E-06  2719   0.262E-03    0.136E-03
RMM:  34    -0.230193068982E+04   -0.25857E-05   -0.24840E-06  2409   0.216E-03
   1 F= -.23222819E+04 E0= -.23222819E+04  d E =-.232228E+04  mag=     4.9999
       N       E                     dE             d eps       ncg     rms          rms(c)
DAV:   1    -0.230353623422E+04   -0.16055E+01   -0.10455E+02  4656   0.397E+00    0.283E+00
RMM:   2    -0.230407457068E+04   -0.53834E+00   -0.67066E+00  5956   0.976E-01    0.163E+00
RMM:   3    -0.230406600357E+04    0.85671E-02   -0.57727E-01  5295   0.360E-01    0.153E+00
RMM:   4    -0.230405992173E+04    0.60818E-02   -0.98124E-02  5395   0.106E-01    0.129E+00
RMM:   5    -0.230404858625E+04    0.11335E-01   -0.53163E-02  5597   0.884E-02    0.541E-01
RMM:   6    -0.230404631354E+04    0.22727E-02   -0.94367E-03  5717   0.397E-02    0.399E-01
RMM:   7    -0.230404494957E+04    0.13640E-02   -0.31212E-03  4856   0.235E-02    0.985E-02
RMM:   8    -0.230404489173E+04    0.57842E-04   -0.88100E-04  4399   0.140E-02    0.533E-02
RMM:   9    -0.230404482128E+04    0.70450E-04   -0.18470E-04  3825   0.883E-03    0.274E-02
RMM:  10    -0.230404479625E+04    0.25030E-04   -0.65698E-05  3325   0.697E-03    0.156E-02
RMM:  11    -0.230404478360E+04    0.12649E-04   -0.36252E-05  3031   0.590E-03    0.953E-03
RMM:  12    -0.230404478123E+04    0.23688E-05   -0.20657E-05  2878   0.491E-03
   2 F= -.23243945E+04 E0= -.23243945E+04  d E =-.211255E+01  mag=     5.0000
       N       E                     dE             d eps       ncg     rms          rms(c)
DAV:   1    -0.230434321621E+04   -0.29843E+00   -0.43998E+01  4528   0.276E+00    0.214E+00
RMM:   2    -0.230445782070E+04   -0.11460E+00   -0.25964E+00  5930   0.617E-01    0.120E+00
RMM:   3    -0.230444591419E+04    0.11907E-01   -0.25268E-01  5195   0.236E-01    0.747E-01
RMM:   4    -0.230445544821E+04   -0.95340E-02   -0.69008E-02  5613   0.878E-02    0.144E+00
RMM:   5    -0.230444042915E+04    0.15019E-01   -0.19108E-02  5251   0.520E-02    0.378E-01
RMM:   6    -0.230444009605E+04    0.33310E-03   -0.31191E-03  4726   0.236E-02    0.285E-01
RMM:   7    -0.230443954495E+04    0.55111E-03   -0.18265E-03  4525   0.189E-02    0.100E-01
RMM:   8    -0.230443946887E+04    0.76081E-04   -0.20766E-04  3746   0.896E-03    0.347E-02
RMM:   9    -0.230443945381E+04    0.15055E-04   -0.87154E-05  3105   0.649E-03    0.233E-02
RMM:  10    -0.230443944408E+04    0.97252E-05   -0.33778E-05  2944   0.523E-03
   3 F= -.23247887E+04 E0= -.23247887E+04  d E =-.250680E+01  mag=     5.0000
       N       E                     dE             d eps       ncg     rms          rms(c)
DAV:   1    -0.230446031824E+04   -0.20864E-01   -0.29690E+00  4640   0.741E-01    0.615E-01
RMM:   2    -0.230446546022E+04   -0.51420E-02   -0.17686E-01  5989   0.151E-01    0.366E-01
RMM:   3    -0.230446565856E+04   -0.19834E-03   -0.18549E-02  5065   0.635E-02    0.417E-01
RMM:   4    -0.230446507840E+04    0.58016E-03   -0.44156E-03  4821   0.226E-02    0.289E-01
RMM:   5    -0.230446440327E+04    0.67513E-03   -0.13704E-03  4313   0.143E-02    0.129E-01
RMM:   6    -0.230446429427E+04    0.10901E-03   -0.24685E-04  3090   0.904E-03    0.267E-02
RMM:   7    -0.230446429265E+04    0.16196E-05   -0.51899E-05  2911   0.463E-03
   4 F= -.23248136E+04 E0= -.23248136E+04  d E =-.253172E+01  mag=     5.0000
       N       E                     dE             d eps       ncg     rms          rms(c)
DAV:   1    -0.230446759085E+04   -0.32966E-02   -0.18042E-01  4694   0.184E-01    0.148E-01
RMM:   2    -0.230446791602E+04   -0.32517E-03   -0.10655E-02  5880   0.382E-02    0.782E-02
RMM:   3    -0.230446786737E+04    0.48646E-04   -0.10282E-03  3115   0.152E-02    0.415E-02
RMM:   4    -0.230446785011E+04    0.17261E-04   -0.24535E-04  2969   0.544E-03    0.181E-02
RMM:   5    -0.230446784596E+04    0.41508E-05   -0.20017E-05  2738   0.335E-03
   5 F= -.23248172E+04 E0= -.23248172E+04  d E =-.253525E+01  mag=     5.0000
       N       E                     dE             d eps       ncg     rms          rms(c)
DAV:   1    -0.230471842227E+04   -0.25057E+00   -0.34748E+01  4430   0.392E+00    0.182E+00
RMM:   2    -0.230487947987E+04   -0.16106E+00   -0.18264E+00  5715   0.730E-01    0.952E-01
RMM:   3    -0.230488463338E+04   -0.51535E-02   -0.16847E-01  4979   0.282E-01    0.102E+00
RMM:   4    -0.230488222940E+04    0.24040E-02   -0.29703E-02  5484   0.802E-02    0.779E-01
RMM:   5    -0.230487790231E+04    0.43271E-02   -0.13298E-02  5257   0.672E-02    0.237E-01
RMM:   6    -0.230487762818E+04    0.27413E-03   -0.17138E-03  5102   0.314E-02    0.156E-01
RMM:   7    -0.230487747877E+04    0.14942E-03   -0.58804E-04  4452   0.135E-02    0.574E-02
RMM:   8    -0.230487747112E+04    0.76464E-05   -0.15511E-04  3995   0.916E-03    0.359E-02
RMM:   9    -0.230487747393E+04   -0.28028E-05   -0.67460E-05  3350   0.702E-03
   6 F= -.23252264E+04 E0= -.23252264E+04  d E =-.409249E+00  mag=     5.0000
       N       E                     dE             d eps       ncg     rms          rms(c)
DAV:   1    -0.230488700787E+04   -0.95368E-02   -0.23604E+00  4592   0.987E-01    0.464E-01
RMM:   2    -0.230489780040E+04   -0.10793E-01   -0.12197E-01  5773   0.191E-01    0.239E-01
RMM:   3    -0.230489788716E+04   -0.86759E-04   -0.10834E-02  4855   0.753E-02    0.155E-01
RMM:   4    -0.230489816391E+04   -0.27674E-03   -0.24769E-03  4967   0.256E-02    0.274E-01
RMM:   5    -0.230489772369E+04    0.44022E-03   -0.75603E-04  4916   0.172E-02    0.654E-02
RMM:   6    -0.230489770600E+04    0.17691E-04   -0.91548E-05  2996   0.611E-03    0.266E-02
RMM:   7    -0.230489770278E+04    0.32158E-05   -0.25760E-05  2879   0.463E-03
   7 F= -.23252466E+04 E0= -.23252466E+04  d E =-.429419E+00  mag=     5.0000
       N       E                     dE             d eps       ncg     rms          rms(c)
DAV:   1    -0.230503499770E+04   -0.13729E+00   -0.20023E+01  4392   0.293E+00    0.128E+00
RMM:   2    -0.230510380569E+04   -0.68808E-01   -0.82505E-01  5705   0.557E-01    0.879E-01
RMM:   3    -0.230511697057E+04   -0.13165E-01   -0.85475E-02  5317   0.205E-01    0.163E+00
RMM:   4    -0.230510211246E+04    0.14858E-01   -0.13996E-02  5685   0.633E-02    0.334E-01
RMM:   5    -0.230510118055E+04    0.93191E-03   -0.64567E-03  4940   0.473E-02    0.204E-01
RMM:   6    -0.230510101338E+04    0.16717E-03   -0.13099E-03  4924   0.272E-02    0.142E-01
RMM:   7    -0.230510087921E+04    0.13417E-03   -0.39957E-04  4581   0.118E-02    0.541E-02
RMM:   8    -0.230510085276E+04    0.26449E-04   -0.15499E-04  4136   0.899E-03    0.427E-02
RMM:   9    -0.230510084461E+04    0.81483E-05   -0.67142E-05  3103   0.735E-03
   8 F= -.23254501E+04 E0= -.23254501E+04  d E =-.203542E+00  mag=     5.0000
       N       E                     dE             d eps       ncg     rms          rms(c)
DAV:   1    -0.230508903992E+04    0.11813E-01   -0.23775E+01  4396   0.322E+00    0.138E+00
RMM:   2    -0.230516735034E+04   -0.78310E-01   -0.97604E-01  5674   0.634E-01    0.685E-01
RMM:   3    -0.230517497166E+04   -0.76213E-02   -0.86620E-02  5043   0.225E-01    0.114E+00
RMM:   4    -0.230516924048E+04    0.57312E-02   -0.13215E-02  5402   0.601E-02    0.422E-01
RMM:   5    -0.230516806243E+04    0.11780E-02   -0.48236E-03  4824   0.469E-02    0.234E-01
RMM:   6    -0.230516789135E+04    0.17109E-03   -0.19093E-03  4895   0.308E-02    0.138E-01
RMM:   7    -0.230516778906E+04    0.10229E-03   -0.52774E-04  4979   0.137E-02    0.700E-02
RMM:   8    -0.230516776499E+04    0.24073E-04   -0.20777E-04  4298   0.103E-02    0.463E-02
RMM:   9    -0.230516776664E+04   -0.16503E-05   -0.78877E-05  3093   0.840E-03
   9 F= -.23255177E+04 E0= -.23255177E+04  d E =-.271112E+00  mag=     5.0000
       N       E                     dE             d eps       ncg     rms          rms(c)
DAV:   1    -0.230520279496E+04   -0.35030E-01   -0.68042E+00  4464   0.157E+00    0.774E-01
RMM:   2    -0.230528966098E+04   -0.86866E-01   -0.90900E-01  6100   0.384E-01    0.423E-01
RMM:   3    -0.230529592839E+04   -0.62674E-02   -0.86561E-02  5418   0.136E-01    0.281E-01
RMM:   4    -0.230529759621E+04   -0.16678E-02   -0.89702E-03  4894   0.279E-02    0.547E-01
RMM:   5    -0.230529600317E+04    0.15930E-02   -0.13558E-03  4401   0.155E-02    0.158E-01
RMM:   6    -0.230529615528E+04   -0.15211E-03   -0.10581E-03  4323   0.136E-02    0.169E-01
RMM:   7    -0.230529607942E+04    0.75857E-04   -0.25114E-04  3059   0.977E-03    0.613E-02
RMM:   8    -0.230529611707E+04   -0.37646E-04   -0.11920E-04  3008   0.612E-03    0.479E-02
RMM:   9    -0.230529612456E+04   -0.74866E-05   -0.47824E-05  2837   0.499E-03
  10 F= -.23256465E+04 E0= -.23256465E+04  d E =-.128863E+00  mag=     5.0000
       N       E                     dE             d eps       ncg     rms          rms(c)
DAV:   1    -0.230469369643E+04    0.60242E+00   -0.61311E+01  4400   0.465E+00    0.248E+00
RMM:   2    -0.230552634428E+04   -0.83265E+00   -0.84632E+00  6128   0.108E+00    0.295E+00
RMM:   3    -0.230555339627E+04   -0.27052E-01   -0.77610E-01  5653   0.383E-01    0.217E+00
RMM:   4    -0.230553576906E+04    0.17627E-01   -0.77950E-02  5788   0.977E-02    0.939E-01
RMM:   5    -0.230553263935E+04    0.31297E-02   -0.14935E-02  5177   0.457E-02    0.535E-01
RMM:   6    -0.230553298688E+04   -0.34753E-03   -0.82417E-03  5191   0.383E-02    0.507E-01
RMM:   7    -0.230553233568E+04    0.65120E-03   -0.25909E-03  4834   0.268E-02    0.250E-01
RMM:   8    -0.230553230718E+04    0.28507E-04   -0.75855E-04  4149   0.135E-02    0.103E-01
RMM:   9    -0.230553244075E+04   -0.13358E-03   -0.41186E-04  3578   0.114E-02    0.744E-02
RMM:  10    -0.230553248216E+04   -0.41406E-04   -0.19983E-04  3147   0.743E-03    0.386E-02
RMM:  11    -0.230553250049E+04   -0.18332E-04   -0.67340E-05  2852   0.581E-03    0.163E-02
RMM:  12    -0.230553250876E+04   -0.82641E-05   -0.32697E-05  2837   0.406E-03
  11 F= -.23258848E+04 E0= -.23258848E+04  d E =-.367161E+00  mag=     5.0000
       N       E                     dE             d eps       ncg     rms          rms(c)
DAV:   1    -0.230540624647E+04    0.12625E+00   -0.11241E+01  4504   0.190E+00    0.981E-01
RMM:   2    -0.230553794582E+04   -0.13170E+00   -0.13855E+00  6096   0.428E-01    0.751E-01
RMM:   3    -0.230554882568E+04   -0.10880E-01   -0.12839E-01  5584   0.155E-01    0.804E-01
RMM:   4    -0.230554736199E+04    0.14637E-02   -0.15576E-02  5328   0.397E-02    0.433E-01
RMM:   5    -0.230554659344E+04    0.76855E-03   -0.23509E-03  4584   0.192E-02    0.231E-01
RMM:   6    -0.230554655058E+04    0.42863E-04   -0.12693E-03  4895   0.160E-02    0.209E-01
RMM:   7    -0.230554637112E+04    0.17945E-03   -0.34141E-04  3364   0.112E-02    0.600E-02
RMM:   8    -0.230554637810E+04   -0.69762E-05   -0.82122E-05  2896   0.535E-03
  12 F= -.23258997E+04 E0= -.23258997E+04  d E =-.382018E+00  mag=     5.0000
       N       E                     dE             d eps       ncg     rms          rms(c)
DAV:   1    -0.230553880015E+04    0.75710E-02   -0.81613E-01  4560   0.501E-01    0.254E-01
RMM:   2    -0.230554793694E+04   -0.91368E-02   -0.97073E-02  6088   0.118E-01    0.126E-01
RMM:   3    -0.230554871558E+04   -0.77864E-03   -0.96236E-03  4335   0.410E-02    0.968E-02
RMM:   4    -0.230554879331E+04   -0.77724E-04   -0.10784E-03  2976   0.961E-03    0.131E-01
RMM:   5    -0.230554871691E+04    0.76394E-04   -0.16463E-04  2861   0.580E-03    0.547E-02
RMM:   6    -0.230554870877E+04    0.81419E-05   -0.58934E-05  2873   0.443E-03
  13 F= -.23259018E+04 E0= -.23259018E+04  d E =-.384073E+00  mag=     5.0000
       N       E                     dE             d eps       ncg     rms          rms(c)
DAV:   1    -0.230560092162E+04   -0.52205E-01   -0.19990E+00  4488   0.121E+00    0.598E-01
RMM:   2    -0.230561267254E+04   -0.11751E-01   -0.16148E-01  5572   0.230E-01    0.283E-01
RMM:   3    -0.230561373723E+04   -0.10647E-02   -0.17567E-02  4829   0.995E-02    0.428E-01
RMM:   4    -0.230561314033E+04    0.59689E-03   -0.24228E-03  4887   0.256E-02    0.252E-01
RMM:   5    -0.230561260701E+04    0.53332E-03   -0.10494E-03  4920   0.226E-02    0.699E-02
RMM:   6    -0.230561259072E+04    0.16289E-04   -0.16119E-04  4344   0.114E-02    0.544E-02
RMM:   7    -0.230561256648E+04    0.24242E-04   -0.47948E-05  3195   0.490E-03    0.142E-02
RMM:   8    -0.230561256014E+04    0.63418E-05   -0.14352E-05  2838   0.414E-03
  14 F= -.23259658E+04 E0= -.23259658E+04  d E =-.640280E-01  mag=     5.0000
       N       E                     dE             d eps       ncg     rms          rms(c)
DAV:   1    -0.230562148062E+04   -0.89141E-02   -0.12671E+00  4544   0.951E-01    0.479E-01
RMM:   2    -0.230562858055E+04   -0.70999E-02   -0.10039E-01  5532   0.179E-01    0.256E-01
RMM:   3    -0.230562992580E+04   -0.13452E-02   -0.12434E-02  4888   0.826E-02    0.499E-01
RMM:   4    -0.230562877880E+04    0.11470E-02   -0.17556E-03  4850   0.212E-02    0.164E-01
RMM:   5    -0.230562848588E+04    0.29292E-03   -0.67390E-04  4869   0.180E-02    0.442E-02
RMM:   6    -0.230562847639E+04    0.94873E-05   -0.93952E-05  3909   0.951E-03
  15 F= -.23259819E+04 E0= -.23259819E+04  d E =-.800926E-01  mag=     5.0000
       N       E                     dE             d eps       ncg     rms          rms(c)
DAV:   1    -0.230563374309E+04   -0.52572E-02   -0.55839E-01  4560   0.673E-01    0.290E-01
RMM:   2    -0.230563758770E+04   -0.38446E-02   -0.48078E-02  5623   0.125E-01    0.133E-01
RMM:   3    -0.230563776818E+04   -0.18048E-03   -0.47878E-03  4821   0.560E-02    0.180E-01
RMM:   4    -0.230563769870E+04    0.69472E-04   -0.68147E-04  3896   0.139E-02    0.139E-01
RMM:   5    -0.230563754684E+04    0.15186E-03   -0.30546E-04  4242   0.120E-02    0.294E-02
RMM:   6    -0.230563754230E+04    0.45408E-05   -0.50788E-05  3166   0.754E-03
  16 F= -.23259912E+04 E0= -.23259912E+04  d E =-.931567E-02  mag=     5.0000
       N       E                     dE             d eps       ncg     rms          rms(c)
DAV:   1    -0.230563750971E+04    0.37138E-04   -0.13803E-01  4560   0.335E-01    0.145E-01
RMM:   2    -0.230563846997E+04   -0.96027E-03   -0.11962E-02  5797   0.643E-02    0.792E-02
RMM:   3    -0.230563860129E+04   -0.13131E-03   -0.13399E-03  4457   0.293E-02    0.160E-01
RMM:   4    -0.230563847695E+04    0.12434E-03   -0.19071E-04  2933   0.766E-03    0.475E-02
RMM:   5    -0.230563844547E+04    0.31477E-04   -0.88075E-05  3446   0.643E-03    0.161E-02
RMM:   6    -0.230563844225E+04    0.32206E-05   -0.16638E-05  2848   0.554E-03
  17 F= -.23259922E+04 E0= -.23259922E+04  d E =-.103389E-01  mag=     5.0000
       N       E                     dE             d eps       ncg     rms          rms(c)
DAV:   1    -0.230564108398E+04   -0.26385E-02   -0.31402E-01  4432   0.475E-01    0.187E-01
RMM:   2    -0.230564440029E+04   -0.33163E-02   -0.36867E-02  5813   0.920E-02    0.140E-01
RMM:   3    -0.230564477915E+04   -0.37886E-03   -0.35936E-03  4828   0.397E-02    0.216E-01
RMM:   4    -0.230564456828E+04    0.21087E-03   -0.47467E-04  3121   0.101E-02    0.636E-02
RMM:   5    -0.230564453002E+04    0.38265E-04   -0.11707E-04  3196   0.744E-03    0.423E-02
RMM:   6    -0.230564451777E+04    0.12244E-04   -0.57398E-05  3104   0.646E-03    0.309E-02
RMM:   7    -0.230564451214E+04    0.56355E-05   -0.12726E-05  2824   0.509E-03
  18 F= -.23259985E+04 E0= -.23259985E+04  d E =-.633550E-02  mag=     5.0000
       N       E                     dE             d eps       ncg     rms          rms(c)
DAV:   1    -0.230563940474E+04    0.51130E-02   -0.76674E-01  4416   0.743E-01    0.294E-01
RMM:   2    -0.230564758407E+04   -0.81793E-02   -0.89991E-02  5778   0.144E-01    0.252E-01
RMM:   3    -0.230564850625E+04   -0.92219E-03   -0.89889E-03  5302   0.621E-02    0.354E-01
RMM:   4    -0.230564791906E+04    0.58720E-03   -0.11847E-03  4272   0.158E-02    0.934E-02
RMM:   5    -0.230564783278E+04    0.86271E-04   -0.28835E-04  4011   0.108E-02    0.638E-02
RMM:   6    -0.230564780566E+04    0.27128E-04   -0.13442E-04  3907   0.832E-03    0.502E-02
RMM:   7    -0.230564779039E+04    0.15263E-04   -0.23811E-05  2836   0.602E-03    0.100E-02
RMM:   8    -0.230564778859E+04    0.18035E-05   -0.66325E-06  2828   0.279E-03
  19 F= -.23260022E+04 E0= -.23260022E+04  d E =-.100215E-01  mag=     5.0000
       N       E                     dE             d eps       ncg     rms          rms(c)
DAV:   1    -0.230565055811E+04   -0.27677E-02   -0.15526E-01  4576   0.295E-01    0.107E-01
RMM:   2    -0.230565280545E+04   -0.22473E-02   -0.23601E-02  6063   0.593E-02    0.959E-02
RMM:   3    -0.230565302190E+04   -0.21644E-03   -0.22431E-03  3403   0.234E-02    0.111E-01
RMM:   4    -0.230565298348E+04    0.38420E-04   -0.25446E-04  2878   0.636E-03    0.407E-02
RMM:   5    -0.230565297109E+04    0.12383E-04   -0.30098E-05  2800   0.335E-03    0.290E-02
RMM:   6    -0.230565296797E+04    0.31210E-05   -0.30066E-05  2841   0.332E-03
  20 F= -.23260076E+04 E0= -.23260076E+04  d E =-.541423E-02  mag=     5.0000
       N       E                     dE             d eps       ncg     rms          rms(c)
DAV:   1    -0.230564573518E+04    0.72359E-02   -0.13947E+00  4416   0.884E-01    0.326E-01
RMM:   2    -0.230566609626E+04   -0.20361E-01   -0.21266E-01  5945   0.175E-01    0.348E-01
RMM:   3    -0.230566794766E+04   -0.18514E-02   -0.20705E-02  5291   0.759E-02    0.359E-01
RMM:   4    -0.230566749247E+04    0.45518E-03   -0.22953E-03  3873   0.166E-02    0.115E-01
RMM:   5    -0.230566738458E+04    0.10789E-03   -0.28142E-04  3166   0.872E-03    0.785E-02
RMM:   6    -0.230566736700E+04    0.17580E-04   -0.27454E-04  4027   0.901E-03    0.930E-02
RMM:   7    -0.230566732337E+04    0.43630E-04   -0.62081E-05  2840   0.712E-03    0.160E-02
RMM:   8    -0.230566732142E+04    0.19506E-05   -0.90986E-06  2820   0.275E-03
  21 F= -.23260227E+04 E0= -.23260227E+04  d E =-.204613E-01  mag=     5.0000
       N       E                     dE             d eps       ncg     rms          rms(c)
DAV:   1    -0.230560385661E+04    0.63467E-01   -0.55880E+00  4392   0.177E+00    0.656E-01
RMM:   2    -0.230568594956E+04   -0.82093E-01   -0.85307E-01  5992   0.353E-01    0.760E-01
RMM:   3    -0.230569294768E+04   -0.69981E-02   -0.87919E-02  5555   0.146E-01    0.701E-01
RMM:   4    -0.230569124468E+04    0.17030E-02   -0.91423E-03  5085   0.327E-02    0.230E-01
RMM:   5    -0.230569080346E+04    0.44122E-03   -0.11294E-03  4330   0.160E-02    0.153E-01
RMM:   6    -0.230569071701E+04    0.86453E-04   -0.11163E-03  4750   0.161E-02    0.185E-01
RMM:   7    -0.230569054976E+04    0.16725E-03   -0.29805E-04  3448   0.125E-02    0.430E-02
RMM:   8    -0.230569053600E+04    0.13757E-04   -0.37892E-05  2842   0.425E-03    0.194E-02
RMM:   9    -0.230569053416E+04    0.18444E-05   -0.16138E-05  2829   0.313E-03
  22 F= -.23260472E+04 E0= -.23260472E+04  d E =-.450098E-01  mag=     5.0000
       N       E                     dE             d eps       ncg     rms          rms(c)
DAV:   1    -0.230535872226E+04    0.33181E+00   -0.22342E+01  4392   0.354E+00    0.135E+00
RMM:   2    -0.230569849180E+04   -0.33977E+00   -0.34818E+00  6077   0.717E-01    0.188E+00
RMM:   3    -0.230571831043E+04   -0.19819E-01   -0.37954E-01  5696   0.288E-01    0.131E+00
RMM:   4    -0.230571244405E+04    0.58664E-02   -0.36546E-02  5242   0.645E-02    0.439E-01
RMM:   5    -0.230571062327E+04    0.18208E-02   -0.45934E-03  4955   0.321E-02    0.273E-01
RMM:   6    -0.230571020658E+04    0.41669E-03   -0.43140E-03  4725   0.308E-02    0.302E-01
RMM:   7    -0.230570982999E+04    0.37659E-03   -0.11170E-03  4470   0.239E-02    0.132E-01
RMM:   8    -0.230570972758E+04    0.10240E-03   -0.13682E-04  3186   0.679E-03    0.374E-02
RMM:   9    -0.230570972761E+04   -0.30443E-07   -0.65619E-05  2866   0.536E-03
  23 F= -.23260689E+04 E0= -.23260689E+04  d E =-.666513E-01  mag=     5.0000
       N       E                     dE             d eps       ncg     rms          rms(c)
DAV:   1    -0.230565515608E+04    0.54572E-01   -0.42587E+00  4440   0.151E+00    0.639E-01
RMM:   2    -0.230572202482E+04   -0.66869E-01   -0.69989E-01  5889   0.327E-01    0.582E-01
RMM:   3    -0.230572868912E+04   -0.66643E-02   -0.70262E-02  5559   0.135E-01    0.722E-01
RMM:   4    -0.230572673215E+04    0.19570E-02   -0.77229E-03  5258   0.322E-02    0.223E-01
RMM:   5    -0.230572631264E+04    0.41951E-03   -0.11565E-03  4621   0.174E-02    0.155E-01
RMM:   6    -0.230572619738E+04    0.11526E-03   -0.10740E-03  4871   0.171E-02    0.175E-01
RMM:   7    -0.230572605007E+04    0.14731E-03   -0.24465E-04  3814   0.127E-02    0.382E-02
RMM:   8    -0.230572604137E+04    0.86987E-05   -0.40729E-05  2867   0.448E-03
  24 F= -.23260862E+04 E0= -.23260862E+04  d E =-.173733E-01  mag=     5.0000
       N       E                     dE             d eps       ncg     rms          rms(c)
DAV:   1    -0.230569564880E+04    0.30401E-01   -0.20150E+00  4480   0.104E+00    0.437E-01
RMM:   2    -0.230572694098E+04   -0.31292E-01   -0.33017E-01  5899   0.223E-01    0.329E-01
RMM:   3    -0.230572997443E+04   -0.30334E-02   -0.31199E-02  5497   0.911E-02    0.432E-01
RMM:   4    -0.230572938956E+04    0.58487E-03   -0.35340E-03  4694   0.213E-02    0.165E-01
RMM:   5    -0.230572918963E+04    0.19993E-03   -0.54596E-04  3987   0.122E-02    0.117E-01
RMM:   6    -0.230572913747E+04    0.52156E-04   -0.52063E-04  4710   0.124E-02    0.133E-01
RMM:   7    -0.230572904975E+04    0.87718E-04   -0.11870E-04  3069   0.941E-03    0.222E-02
RMM:   8    -0.230572904706E+04    0.26900E-05   -0.23457E-05  2854   0.407E-03
  25 F= -.23260899E+04 E0= -.23260899E+04  d E =-.210644E-01  mag=     5.0000
       N       E                     dE             d eps       ncg     rms          rms(c)
DAV:   1    -0.230568518685E+04    0.43863E-01   -0.33024E+00  4392   0.122E+00    0.546E-01
RMM:   2    -0.230573952436E+04   -0.54338E-01   -0.57294E-01  5995   0.267E-01    0.536E-01
RMM:   3    -0.230574531840E+04   -0.57940E-02   -0.59562E-02  5562   0.115E-01    0.653E-01
RMM:   4    -0.230574378065E+04    0.15378E-02   -0.63956E-03  4903   0.268E-02    0.195E-01
RMM:   5    -0.230574345281E+04    0.32783E-03   -0.86744E-04  4101   0.139E-02    0.137E-01
RMM:   6    -0.230574336709E+04    0.85720E-04   -0.86732E-04  4669   0.143E-02    0.151E-01
RMM:   7    -0.230574325905E+04    0.10804E-03   -0.19454E-04  3093   0.107E-02    0.388E-02
RMM:   8    -0.230574324884E+04    0.10216E-04   -0.32035E-05  2836   0.445E-03    0.173E-02
RMM:   9    -0.230574324867E+04    0.16985E-06   -0.16264E-05  2839   0.349E-03
  26 F= -.23261048E+04 E0= -.23261048E+04  d E =-.148890E-01  mag=     5.0000
       N       E                     dE             d eps       ncg     rms          rms(c)
DAV:   1    -0.230573081685E+04    0.12432E-01   -0.80311E-01  4520   0.603E-01    0.269E-01
RMM:   2    -0.230574408630E+04   -0.13269E-01   -0.13930E-01  5971   0.131E-01    0.275E-01
RMM:   3    -0.230574540728E+04   -0.13210E-02   -0.13480E-02  5268   0.553E-02    0.324E-01
RMM:   4    -0.230574501601E+04    0.39127E-03   -0.15376E-03  3315   0.135E-02    0.934E-02
RMM:   5    -0.230574493558E+04    0.80430E-04   -0.20755E-04  3034   0.776E-03    0.667E-02
RMM:   6    -0.230574492108E+04    0.14499E-04   -0.21644E-04  3798   0.824E-03    0.771E-02
RMM:   7    -0.230574489154E+04    0.29541E-04   -0.43169E-05  2837   0.633E-03    0.161E-02
RMM:   8    -0.230574488980E+04    0.17437E-05   -0.95796E-06  2836   0.269E-03
  27 F= -.23261068E+04 E0= -.23261068E+04  d E =-.168435E-01  mag=     5.0000
       N       E                     dE             d eps       ncg     rms          rms(c)
DAV:   1    -0.230571983960E+04    0.25052E-01   -0.20161E+00  4396   0.102E+00    0.422E-01
RMM:   2    -0.230575118343E+04   -0.31344E-01   -0.33720E-01  5867   0.209E-01    0.334E-01
RMM:   3    -0.230575432867E+04   -0.31452E-02   -0.30876E-02  5418   0.874E-02    0.467E-01
RMM:   4    -0.230575356491E+04    0.76375E-03   -0.37548E-03  4423   0.199E-02    0.154E-01
RMM:   5    -0.230575332618E+04    0.23873E-03   -0.57258E-04  3811   0.120E-02    0.116E-01
RMM:   6    -0.230575327978E+04    0.46404E-04   -0.52401E-04  4360   0.114E-02    0.132E-01
RMM:   7    -0.230575319401E+04    0.85769E-04   -0.11486E-04  2875   0.881E-03    0.211E-02
RMM:   8    -0.230575319095E+04    0.30560E-05   -0.22571E-05  2850   0.373E-03
  28 F= -.23261154E+04 E0= -.23261154E+04  d E =-.866915E-02  mag=     5.0000
       N       E                     dE             d eps       ncg     rms          rms(c)
DAV:   1    -0.230575186710E+04    0.13269E-02   -0.90884E-02  4704   0.216E-01    0.904E-02
RMM:   2    -0.230575327189E+04   -0.14048E-02   -0.15260E-02  6058   0.457E-02    0.542E-02
RMM:   3    -0.230575338773E+04   -0.11584E-03   -0.13903E-03  3087   0.185E-02    0.448E-02
RMM:   4    -0.230575339504E+04   -0.73188E-05   -0.16410E-04  2897   0.466E-03    0.421E-02
RMM:   5    -0.230575338672E+04    0.83206E-05   -0.29308E-05  2796   0.306E-03
  29 F= -.23261157E+04 E0= -.23261157E+04  d E =-.893710E-02  mag=     5.0000
       N       E                     dE             d eps       ncg     rms          rms(c)
DAV:   1    -0.230574475248E+04    0.86426E-02   -0.88890E-01  4400   0.776E-01    0.281E-01
RMM:   2    -0.230575854980E+04   -0.13797E-01   -0.14597E-01  5814   0.150E-01    0.216E-01
RMM:   3    -0.230575998693E+04   -0.14371E-02   -0.13801E-02  5279   0.644E-02    0.310E-01
RMM:   4    -0.230575965364E+04    0.33329E-03   -0.16086E-03  3532   0.141E-02    0.106E-01
RMM:   5    -0.230575954854E+04    0.10511E-03   -0.22922E-04  3244   0.875E-03    0.665E-02
RMM:   6    -0.230575952941E+04    0.19130E-04   -0.20856E-04  3982   0.893E-03    0.693E-02
RMM:   7    -0.230575950977E+04    0.19641E-04   -0.42607E-05  2839   0.706E-03    0.157E-02
RMM:   8    -0.230575951036E+04   -0.59509E-06   -0.98903E-06  2835   0.267E-03
  30 F= -.23261220E+04 E0= -.23261220E+04  d E =-.630069E-02  mag=     5.0000
       N       E                     dE             d eps       ncg     rms          rms(c)
DAV:   1    -0.230567807043E+04    0.81439E-01   -0.52394E+00  4392   0.189E+00    0.690E-01
RMM:   2    -0.230576097454E+04   -0.82904E-01   -0.86219E-01  5756   0.366E-01    0.763E-01
RMM:   3    -0.230576937395E+04   -0.83994E-02   -0.93526E-02  5450   0.165E-01    0.863E-01
RMM:   4    -0.230576637216E+04    0.30018E-02   -0.96543E-03  5174   0.357E-02    0.230E-01
RMM:   5    -0.230576578238E+04    0.58978E-03   -0.14656E-03  4694   0.193E-02    0.145E-01
RMM:   6    -0.230576560701E+04    0.17537E-03   -0.11667E-03  4545   0.181E-02    0.132E-01
RMM:   7    -0.230576554958E+04    0.57432E-04   -0.23275E-04  3850   0.136E-02    0.514E-02
RMM:   8    -0.230576554211E+04    0.74629E-05   -0.42979E-05  2846   0.455E-03
  31 F= -.23261284E+04 E0= -.23261284E+04  d E =-.126779E-01  mag=     5.0000
       N       E                     dE             d eps       ncg     rms          rms(c)
DAV:   1    -0.230575646113E+04    0.90884E-02   -0.79033E-01  4496   0.785E-01    0.301E-01
RMM:   2    -0.230576880999E+04   -0.12349E-01   -0.13167E-01  5707   0.152E-01    0.210E-01
RMM:   3    -0.230577017997E+04   -0.13700E-02   -0.12371E-02  5240   0.688E-02    0.341E-01
RMM:   4    -0.230576972199E+04    0.45798E-03   -0.15146E-03  4022   0.152E-02    0.104E-01
RMM:   5    -0.230576960907E+04    0.11292E-03   -0.28093E-04  3891   0.103E-02    0.601E-02
RMM:   6    -0.230576958319E+04    0.25882E-04   -0.19296E-04  4082   0.948E-03    0.500E-02
RMM:   7    -0.230576957519E+04    0.80009E-05   -0.30651E-05  2833   0.756E-03
  32 F= -.23261326E+04 E0= -.23261326E+04  d E =-.424595E-02  mag=     5.0000
       N       E                     dE             d eps       ncg     rms          rms(c)
DAV:   1    -0.230576519576E+04    0.43874E-02   -0.29390E-01  4592   0.479E-01    0.184E-01
RMM:   2    -0.230576984203E+04   -0.46463E-02   -0.49313E-02  5678   0.934E-02    0.143E-01
RMM:   3    -0.230577035798E+04   -0.51595E-03   -0.44854E-03  4867   0.408E-02    0.226E-01
RMM:   4    -0.230577014587E+04    0.21211E-03   -0.56853E-04  3062   0.977E-03    0.606E-02
RMM:   5    -0.230577010453E+04    0.41341E-04   -0.11107E-04  2997   0.668E-03    0.367E-02
RMM:   6    -0.230577009508E+04    0.94464E-05   -0.76038E-05  3406   0.683E-03
  33 F= -.23261333E+04 E0= -.23261333E+04  d E =-.488777E-02  mag=     5.0000
       N       E                     dE             d eps       ncg     rms          rms(c)
DAV:   1    -0.230575921004E+04    0.10894E-01   -0.75163E-01  4396   0.705E-01    0.271E-01
RMM:   2    -0.230577183084E+04   -0.12621E-01   -0.13679E-01  5922   0.139E-01    0.149E-01
RMM:   3    -0.230577279605E+04   -0.96521E-03   -0.11351E-02  5119   0.578E-02    0.102E-01
RMM:   4    -0.230577291743E+04   -0.12138E-03   -0.14580E-03  3394   0.124E-02    0.163E-01
RMM:   5    -0.230577275542E+04    0.16202E-03   -0.19989E-04  3012   0.788E-03    0.602E-02
RMM:   6    -0.230577272973E+04    0.25685E-04   -0.14804E-04  3627   0.733E-03    0.384E-02
RMM:   7    -0.230577272524E+04    0.44948E-05   -0.30766E-05  2827   0.619E-03
  34 F= -.23261361E+04 E0= -.23261361E+04  d E =-.285262E-02  mag=     5.0000
       N       E                     dE             d eps       ncg     rms          rms(c)
DAV:   1    -0.230577233674E+04    0.39299E-03   -0.21244E-02  4992   0.119E-01    0.476E-02
RMM:   2    -0.230577270057E+04   -0.36383E-03   -0.39092E-03  5713   0.241E-02    0.395E-02
RMM:   3    -0.230577274067E+04   -0.40099E-04   -0.35666E-04  2862   0.104E-02    0.546E-02
RMM:   4    -0.230577273066E+04    0.10013E-04   -0.47030E-05  2864   0.308E-03    0.189E-02
RMM:   5    -0.230577272833E+04    0.23284E-05   -0.67680E-06  2699   0.167E-03
  35 F= -.23261362E+04 E0= -.23261362E+04  d E =-.289179E-02  mag=     5.0000
       N       E                     dE             d eps       ncg     rms          rms(c)
DAV:   1    -0.230576398058E+04    0.87501E-02   -0.58919E-01  4400   0.639E-01    0.237E-01
RMM:   2    -0.230577504676E+04   -0.11066E-01   -0.11688E-01  5780   0.126E-01    0.146E-01
RMM:   3    -0.230577603982E+04   -0.99306E-03   -0.97573E-03  4996   0.538E-02    0.189E-01
RMM:   4    -0.230577597538E+04    0.64435E-04   -0.12367E-03  3137   0.108E-02    0.916E-02
RMM:   5    -0.230577589309E+04    0.82291E-04   -0.11286E-04  2915   0.649E-03    0.524E-02
RMM:   6    -0.230577585663E+04    0.36465E-04   -0.15237E-04  3785   0.773E-03    0.174E-02
RMM:   7    -0.230577585778E+04   -0.11488E-05   -0.20060E-05  2832   0.618E-03
  36 F= -.23261395E+04 E0= -.23261395E+04  d E =-.331958E-02  mag=     5.0000
       N       E                     dE             d eps       ncg     rms          rms(c)
DAV:   1    -0.230573214239E+04    0.43714E-01   -0.22543E+00  4392   0.125E+00    0.465E-01
RMM:   2    -0.230577426086E+04   -0.42118E-01   -0.44567E-01  5806   0.249E-01    0.277E-01
RMM:   3    -0.230577821770E+04   -0.39568E-02   -0.41758E-02  5309   0.108E-01    0.277E-01
RMM:   4    -0.230577833147E+04   -0.11377E-03   -0.47543E-03  4586   0.207E-02    0.218E-01
RMM:   5    -0.230577798841E+04    0.34306E-03   -0.46793E-04  3445   0.111E-02    0.114E-01
RMM:   6    -0.230577781128E+04    0.17713E-03   -0.60413E-04  4253   0.131E-02    0.475E-02
RMM:   7    -0.230577780420E+04    0.70814E-05   -0.95302E-05  3125   0.106E-02
  37 F= -.23261418E+04 E0= -.23261418E+04  d E =-.560624E-02  mag=     5.0000
       N       E                     dE             d eps       ncg     rms          rms(c)
DAV:   1    -0.230577128029E+04    0.65310E-02   -0.40680E-01  4544   0.511E-01    0.210E-01
RMM:   2    -0.230577935986E+04   -0.80796E-02   -0.85855E-02  5878   0.107E-01    0.115E-01
RMM:   3    -0.230578007387E+04   -0.71401E-03   -0.76037E-03  4828   0.473E-02    0.815E-02
RMM:   4    -0.230578013961E+04   -0.65740E-04   -0.89898E-04  3037   0.955E-03    0.107E-01
RMM:   5    -0.230578007300E+04    0.66613E-04   -0.97772E-05  2841   0.592E-03    0.514E-02
RMM:   6    -0.230578004904E+04    0.23960E-04   -0.98343E-05  3253   0.610E-03    0.184E-02
RMM:   7    -0.230578005277E+04   -0.37272E-05   -0.17038E-05  2824   0.529E-03
  38 F= -.23261441E+04 E0= -.23261441E+04  d E =-.236408E-02  mag=     5.0000
       N       E                     dE             d eps       ncg     rms          rms(c)
DAV:   1    -0.230576608520E+04    0.13964E-01   -0.69450E-01  4416   0.666E-01    0.273E-01
RMM:   2    -0.230577983919E+04   -0.13754E-01   -0.14564E-01  5902   0.139E-01    0.153E-01
RMM:   3    -0.230578109455E+04   -0.12554E-02   -0.13326E-02  5191   0.604E-02    0.128E-01
RMM:   4    -0.230578118011E+04   -0.85556E-04   -0.15468E-03  3252   0.119E-02    0.128E-01
RMM:   5    -0.230578106636E+04    0.11375E-03   -0.16931E-04  2892   0.755E-03    0.667E-02
RMM:   6    -0.230578101441E+04    0.51948E-04   -0.17407E-04  3870   0.791E-03    0.210E-02
RMM:   7    -0.230578101831E+04   -0.38975E-05   -0.26309E-05  2830   0.652E-03
  39 F= -.23261452E+04 E0= -.23261452E+04  d E =-.347197E-02  mag=     5.0000
       N       E                     dE             d eps       ncg     rms          rms(c)
DAV:   1    -0.230577636197E+04    0.46524E-02   -0.28894E-01  4576   0.400E-01    0.173E-01
RMM:   2    -0.230578227120E+04   -0.59092E-02   -0.62591E-02  5979   0.846E-02    0.123E-01
RMM:   3    -0.230578286768E+04   -0.59648E-03   -0.51581E-03  4139   0.364E-02    0.187E-01
RMM:   4    -0.230578274491E+04    0.12276E-03   -0.68001E-04  2960   0.865E-03    0.582E-02
RMM:   5    -0.230578270242E+04    0.42492E-04   -0.72075E-05  2880   0.467E-03    0.341E-02
RMM:   6    -0.230578268741E+04    0.15017E-04   -0.61270E-05  2887   0.507E-03    0.121E-02
RMM:   7    -0.230578268827E+04   -0.86497E-06   -0.91775E-06  2829   0.410E-03
  40 F= -.23261470E+04 E0= -.23261470E+04  d E =-.177548E-02  mag=     5.0000
       N       E                     dE             d eps       ncg     rms          rms(c)
DAV:   1    -0.230577317735E+04    0.95101E-02   -0.43533E-01  4480   0.491E-01    0.211E-01
RMM:   2    -0.230578208830E+04   -0.89110E-02   -0.93959E-02  6043   0.104E-01    0.163E-01
RMM:   3    -0.230578300038E+04   -0.91208E-03   -0.78228E-03  4752   0.429E-02    0.245E-01
RMM:   4    -0.230578278797E+04    0.21241E-03   -0.10383E-03  2985   0.103E-02    0.707E-02
RMM:   5    -0.230578272496E+04    0.63004E-04   -0.10798E-04  2898   0.567E-03    0.450E-02
RMM:   6    -0.230578269992E+04    0.25046E-04   -0.95584E-05  3004   0.606E-03    0.234E-02
RMM:   7    -0.230578269852E+04    0.14011E-05   -0.15942E-05  2836   0.488E-03
  41 F= -.23261472E+04 E0= -.23261472E+04  d E =-.191125E-02  mag=     5.0000
       N       E                     dE             d eps       ncg     rms          rms(c)
DAV:   1    -0.230578136096E+04    0.13390E-02   -0.74324E-02  4496   0.203E-01    0.866E-02
RMM:   2    -0.230578285339E+04   -0.14924E-02   -0.15822E-02  5955   0.427E-02    0.496E-02
RMM:   3    -0.230578298076E+04   -0.12738E-03   -0.13737E-03  3018   0.177E-02    0.359E-02
RMM:   4    -0.230578299249E+04   -0.11727E-04   -0.16994E-04  2871   0.440E-03    0.492E-02
RMM:   5    -0.230578297707E+04    0.15426E-04   -0.16710E-05  2741   0.232E-03    0.181E-02
RMM:   6    -0.230578297136E+04    0.57013E-05   -0.17328E-05  2839   0.243E-03
  42 F= -.23261474E+04 E0= -.23261474E+04  d E =-.213282E-02  mag=     5.0000
       N       E                     dE             d eps       ncg     rms          rms(c)
DAV:   1    -0.230577762929E+04    0.53478E-02   -0.31322E-01  4424   0.449E-01    0.187E-01
RMM:   2    -0.230578409336E+04   -0.64641E-02   -0.67622E-02  5924   0.942E-02    0.110E-01
RMM:   3    -0.230578469933E+04   -0.60597E-03   -0.58715E-03  4543   0.389E-02    0.137E-01
RMM:   4    -0.230578467120E+04    0.28136E-04   -0.72259E-04  2913   0.857E-03    0.674E-02
RMM:   5    -0.230578462390E+04    0.47299E-04   -0.64090E-05  2859   0.506E-03    0.394E-02
RMM:   6    -0.230578460025E+04    0.23646E-04   -0.71087E-05  3013   0.558E-03    0.191E-02
RMM:   7    -0.230578459913E+04    0.11184E-05   -0.13144E-05  2827   0.496E-03
  43 F= -.23261491E+04 E0= -.23261491E+04  d E =-.175829E-02  mag=     5.0000
       N       E                     dE             d eps       ncg     rms          rms(c)
DAV:   1    -0.230574622221E+04    0.38378E-01   -0.17584E+00  4418   0.106E+00    0.446E-01
RMM:   2    -0.230578247949E+04   -0.36257E-01   -0.37876E-01  5926   0.223E-01    0.320E-01
RMM:   3    -0.230578650293E+04   -0.40234E-02   -0.37780E-02  5467   0.973E-02    0.429E-01
RMM:   4    -0.230578601286E+04    0.49007E-03   -0.42826E-03  4539   0.206E-02    0.163E-01
RMM:   5    -0.230578576964E+04    0.24322E-03   -0.43458E-04  3534   0.108E-02    0.104E-01
RMM:   6    -0.230578561467E+04    0.15497E-03   -0.37020E-04  4174   0.109E-02    0.483E-02
RMM:   7    -0.230578560085E+04    0.13823E-04   -0.85608E-05  3115   0.941E-03    0.209E-02
RMM:   8    -0.230578560223E+04   -0.13855E-05   -0.22798E-05  2856   0.474E-03
  44 F= -.23261504E+04 E0= -.23261504E+04  d E =-.306089E-02  mag=     5.0000
       N       E                     dE             d eps       ncg     rms          rms(c)
DAV:   1    -0.230577186798E+04    0.13733E-01   -0.64654E-01  4504   0.591E-01    0.257E-01
RMM:   2    -0.230578630181E+04   -0.14434E-01   -0.14991E-01  6086   0.128E-01    0.187E-01
RMM:   3    -0.230578779318E+04   -0.14914E-02   -0.13827E-02  5075   0.538E-02    0.230E-01
RMM:   4    -0.230578769120E+04    0.10198E-03   -0.16264E-03  3065   0.116E-02    0.978E-02
RMM:   5    -0.230578760561E+04    0.85591E-04   -0.13068E-04  2870   0.594E-03    0.625E-02
RMM:   6    -0.230578754806E+04    0.57547E-04   -0.13272E-04  3231   0.624E-03    0.300E-02
RMM:   7    -0.230578754489E+04    0.31731E-05   -0.33188E-05  2843   0.542E-03
  45 F= -.23261526E+04 E0= -.23261526E+04  d E =-.212091E-02  mag=     5.0000
       N       E                     dE             d eps       ncg     rms          rms(c)
DAV:   1    -0.230571068878E+04    0.76859E-01   -0.31941E+00  4426   0.131E+00    0.576E-01
RMM:   2    -0.230578233905E+04   -0.71650E-01   -0.74034E-01  6063   0.285E-01    0.518E-01
RMM:   3    -0.230579029579E+04   -0.79567E-02   -0.77672E-02  5552   0.124E-01    0.590E-01
RMM:   4    -0.230578941499E+04    0.88081E-03   -0.83369E-03  4907   0.270E-02    0.227E-01
RMM:   5    -0.230578897871E+04    0.43628E-03   -0.76380E-04  3421   0.120E-02    0.143E-01
RMM:   6    -0.230578867542E+04    0.30329E-03   -0.61952E-04  4188   0.121E-02    0.727E-02
RMM:   7    -0.230578863795E+04    0.37471E-04   -0.21923E-04  3542   0.107E-02    0.262E-02
RMM:   8    -0.230578864275E+04   -0.48069E-05   -0.39716E-05  2873   0.510E-03
  46 F= -.23261540E+04 E0= -.23261540E+04  d E =-.360552E-02  mag=     5.0000
       N       E                     dE             d eps       ncg     rms          rms(c)
DAV:   1    -0.230577908457E+04    0.95534E-02   -0.46440E-01  4568   0.473E-01    0.218E-01
RMM:   2    -0.230578942151E+04   -0.10337E-01   -0.10764E-01  6176   0.103E-01    0.175E-01
RMM:   3    -0.230579047641E+04   -0.10549E-02   -0.93051E-03  4482   0.435E-02    0.232E-01
RMM:   4    -0.230579030801E+04    0.16840E-03   -0.11811E-03  2975   0.104E-02    0.782E-02
RMM:   5    -0.230579023976E+04    0.68251E-04   -0.11187E-04  2881   0.523E-03    0.483E-02
RMM:   6    -0.230579020560E+04    0.34160E-04   -0.97399E-05  2961   0.534E-03    0.221E-02
RMM:   7    -0.230579020478E+04    0.81329E-06   -0.18209E-05  2835   0.444E-03
  47 F= -.23261557E+04 E0= -.23261557E+04  d E =-.170247E-02  mag=     5.0000
       N       E                     dE             d eps       ncg     rms          rms(c)
DAV:   1    -0.230578051662E+04    0.96890E-02   -0.41593E-01  4456   0.448E-01    0.206E-01
RMM:   2    -0.230578981769E+04   -0.93011E-02   -0.96802E-02  6094   0.972E-02    0.161E-01
RMM:   3    -0.230579075824E+04   -0.94054E-03   -0.83359E-03  4307   0.418E-02    0.217E-01
RMM:   4    -0.230579061417E+04    0.14407E-03   -0.10564E-03  2972   0.993E-03    0.734E-02
RMM:   5    -0.230579055282E+04    0.61346E-04   -0.97937E-05  2879   0.494E-03    0.451E-02
RMM:   6    -0.230579052128E+04    0.31536E-04   -0.88386E-05  2934   0.507E-03    0.208E-02
RMM:   7    -0.230579051981E+04    0.14690E-05   -0.15993E-05  2837   0.421E-03
  48 F= -.23261562E+04 E0= -.23261562E+04  d E =-.215016E-02  mag=     5.0000
       N       E                     dE             d eps       ncg     rms          rms(c)
DAV:   1    -0.230578497180E+04    0.55495E-02   -0.30119E-01  4480   0.389E-01    0.178E-01
RMM:   2    -0.230579164218E+04   -0.66704E-02   -0.69321E-02  6046   0.847E-02    0.107E-01
RMM:   3    -0.230579223090E+04   -0.58872E-03   -0.58725E-03  4011   0.363E-02    0.897E-02
RMM:   4    -0.230579226055E+04   -0.29650E-04   -0.71989E-04  2929   0.801E-03    0.779E-02
RMM:   5    -0.230579221308E+04    0.47468E-04   -0.62952E-05  2841   0.439E-03    0.427E-02
RMM:   6    -0.230579218565E+04    0.27429E-04   -0.68977E-05  2878   0.455E-03    0.124E-02
RMM:   7    -0.230579218636E+04   -0.70602E-06   -0.12031E-05  2816   0.393E-03
  49 F= -.23261580E+04 E0= -.23261580E+04  d E =-.180223E-02  mag=     5.0000
       N       E                     dE             d eps       ncg     rms          rms(c)
DAV:   1    -0.230572963890E+04    0.62547E-01   -0.27102E+00  4410   0.117E+00    0.538E-01
RMM:   2    -0.230578934811E+04   -0.59709E-01   -0.61791E-01  6003   0.255E-01    0.401E-01
RMM:   3    -0.230579585339E+04   -0.65053E-02   -0.65013E-02  5519   0.114E-01    0.423E-01
RMM:   4    -0.230579567831E+04    0.17509E-03   -0.68201E-03  4560   0.236E-02    0.229E-01
RMM:   5    -0.230579526483E+04    0.41347E-03   -0.67515E-04  3226   0.114E-02    0.138E-01
RMM:   6    -0.230579497887E+04    0.28597E-03   -0.58836E-04  4185   0.116E-02    0.574E-02
RMM:   7    -0.230579495180E+04    0.27069E-04   -0.16784E-04  3282   0.997E-03    0.294E-02
RMM:   8    -0.230579495356E+04   -0.17592E-05   -0.34645E-05  2861   0.500E-03
  50 F= -.23261612E+04 E0= -.23261612E+04  d E =-.498121E-02  mag=     5.0000
       N       E                     dE             d eps       ncg     rms          rms(c)
DAV:   1    -0.230578036574E+04    0.14586E-01   -0.61662E-01  4536   0.557E-01    0.256E-01
RMM:   2    -0.230579393066E+04   -0.13565E-01   -0.14095E-01  5987   0.121E-01    0.158E-01
RMM:   3    -0.230579522211E+04   -0.12914E-02   -0.13011E-02  4895   0.514E-02    0.133E-01
RMM:   4    -0.230579528446E+04   -0.62347E-04   -0.14909E-03  2985   0.107E-02    0.113E-01
RMM:   5    -0.230579519095E+04    0.93506E-04   -0.13732E-04  2849   0.600E-03    0.658E-02
RMM:   6    -0.230579512977E+04    0.61176E-04   -0.13639E-04  3178   0.613E-03    0.205E-02
RMM:   7    -0.230579512984E+04   -0.60434E-07   -0.26345E-05  2835   0.515E-03
  51 F= -.23261615E+04 E0= -.23261615E+04  d E =-.535624E-02  mag=     5.0000
       N       E                     dE             d eps       ncg     rms          rms(c)
DAV:   1    -0.230577879733E+04    0.16332E-01   -0.78866E-01  4416   0.604E-01    0.286E-01
RMM:   2    -0.230579609071E+04   -0.17293E-01   -0.17950E-01  6019   0.132E-01    0.170E-01
RMM:   3    -0.230579769161E+04   -0.16009E-02   -0.16398E-02  4973   0.567E-02    0.102E-01
RMM:   4    -0.230579777326E+04   -0.81651E-04   -0.18250E-03  3041   0.115E-02    0.106E-01
RMM:   5    -0.230579771219E+04    0.61068E-04   -0.13899E-04  2851   0.602E-03    0.876E-02
RMM:   6    -0.230579762977E+04    0.82422E-04   -0.14076E-04  3124   0.606E-03    0.259E-02
RMM:   7    -0.230579762858E+04    0.11870E-05   -0.35627E-05  2835   0.514E-03
  52 F= -.23261644E+04 E0= -.23261644E+04  d E =-.280546E-02  mag=     5.0000
       N       E                     dE             d eps       ncg     rms          rms(c)
DAV:   1    -0.230562811098E+04    0.16952E+00   -0.70866E+00  4400   0.181E+00    0.877E-01
RMM:   2    -0.230578616104E+04   -0.15805E+00   -0.16224E+00  6089   0.404E-01    0.815E-01
RMM:   3    -0.230580323184E+04   -0.17071E-01   -0.18209E-01  5653   0.180E-01    0.792E-01
RMM:   4    -0.230580193646E+04    0.12954E-02   -0.17991E-02  5315   0.393E-02    0.360E-01
RMM:   5    -0.230580089978E+04    0.10367E-02   -0.19893E-03  4136   0.172E-02    0.219E-01
RMM:   6    -0.230580018791E+04    0.71188E-03   -0.13972E-03  4563   0.165E-02    0.110E-01
RMM:   7    -0.230580008156E+04    0.10635E-03   -0.53772E-04  4235   0.142E-02    0.368E-02
RMM:   8    -0.230580008682E+04   -0.52586E-05   -0.79339E-05  3111   0.624E-03
  53 F= -.23261678E+04 E0= -.23261678E+04  d E =-.620265E-02  mag=     5.0000
       N       E                     dE             d eps       ncg     rms          rms(c)
DAV:   1    -0.230577027930E+04    0.29802E-01   -0.13362E+00  4496   0.738E-01    0.373E-01
RMM:   2    -0.230580002302E+04   -0.29744E-01   -0.30763E-01  6130   0.166E-01    0.269E-01
RMM:   3    -0.230580302087E+04   -0.29978E-02   -0.28412E-02  5258   0.716E-02    0.296E-01
RMM:   4    -0.230580293575E+04    0.85118E-04   -0.33705E-03  3227   0.157E-02    0.158E-01
RMM:   5    -0.230580273146E+04    0.20429E-03   -0.29624E-04  2911   0.782E-03    0.913E-02
RMM:   6    -0.230580261088E+04    0.12058E-03   -0.27694E-04  3457   0.783E-03    0.338E-02
RMM:   7    -0.230580260761E+04    0.32701E-05   -0.60421E-05  2861   0.613E-03
  54 F= -.23261707E+04 E0= -.23261707E+04  d E =-.294513E-02  mag=     5.0000
       N       E                     dE             d eps       ncg     rms          rms(c)
DAV:   1    -0.230572943867E+04    0.73172E-01   -0.30350E+00  4408   0.111E+00    0.564E-01
RMM:   2    -0.230579706203E+04   -0.67623E-01   -0.69708E-01  6135   0.252E-01    0.448E-01
RMM:   3    -0.230580429300E+04   -0.72310E-02   -0.71160E-02  5514   0.111E-01    0.469E-01
RMM:   4    -0.230580401620E+04    0.27680E-03   -0.77070E-03  4236   0.242E-02    0.244E-01
RMM:   5    -0.230580354798E+04    0.46822E-03   -0.76339E-04  3086   0.112E-02    0.141E-01
RMM:   6    -0.230580325497E+04    0.29301E-03   -0.63108E-04  4036   0.110E-02    0.574E-02
RMM:   7    -0.230580322966E+04    0.25310E-04   -0.16171E-04  2974   0.882E-03    0.302E-02
RMM:   8    -0.230580323333E+04   -0.36718E-05   -0.32217E-05  2860   0.472E-03
  55 F= -.23261720E+04 E0= -.23261720E+04  d E =-.422333E-02  mag=     5.0000
       N       E                     dE             d eps       ncg     rms          rms(c)
DAV:   1    -0.230579513752E+04    0.80921E-02   -0.38617E-01  4592   0.389E-01    0.201E-01
RMM:   2    -0.230580385766E+04   -0.87201E-02   -0.90304E-02  6207   0.897E-02    0.119E-01
RMM:   3    -0.230580466459E+04   -0.80693E-03   -0.80331E-03  3875   0.370E-02    0.730E-02
RMM:   4    -0.230580471833E+04   -0.53742E-04   -0.92825E-04  2921   0.823E-03    0.817E-02
RMM:   5    -0.230580467833E+04    0.40000E-04   -0.68034E-05  2822   0.406E-03    0.546E-02
RMM:   6    -0.230580464542E+04    0.32914E-04   -0.66717E-05  2866   0.396E-03    0.213E-02
RMM:   7    -0.230580464554E+04   -0.12160E-06   -0.17254E-05  2805   0.330E-03
  56 F= -.23261736E+04 E0= -.23261736E+04  d E =-.165253E-02  mag=     5.0000
       N       E                     dE             d eps       ncg     rms          rms(c)
DAV:   1    -0.230572116864E+04    0.83477E-01   -0.34694E+00  4400   0.117E+00    0.605E-01
RMM:   2    -0.230579932196E+04   -0.78153E-01   -0.80575E-01  6127   0.270E-01    0.442E-01
RMM:   3    -0.230580798560E+04   -0.86636E-02   -0.87232E-02  5515   0.118E-01    0.423E-01
RMM:   4    -0.230580806652E+04   -0.80920E-04   -0.88565E-03  4269   0.248E-02    0.265E-01
RMM:   5    -0.230580754839E+04    0.51813E-03   -0.78634E-04  3040   0.113E-02    0.154E-01
RMM:   6    -0.230580720522E+04    0.34317E-03   -0.69423E-04  4061   0.111E-02    0.627E-02
RMM:   7    -0.230580716942E+04    0.35801E-04   -0.19505E-04  3055   0.891E-03    0.395E-02
RMM:   8    -0.230580717086E+04   -0.14367E-05   -0.38636E-05  2859   0.514E-03
  57 F= -.23261769E+04 E0= -.23261769E+04  d E =-.491272E-02  mag=     5.0000
       N       E                     dE             d eps       ncg     rms          rms(c)
DAV:   1    -0.230545485593E+04    0.35231E+00   -0.13862E+01  4392   0.234E+00    0.126E+00
RMM:   2    -0.230578343134E+04   -0.32858E+00   -0.33213E+00  6157   0.555E-01    0.147E+00
RMM:   3    -0.230581071933E+04   -0.27288E-01   -0.36810E-01  5728   0.238E-01    0.108E+00
RMM:   4    -0.230580840766E+04    0.23117E-02   -0.35572E-02  5384   0.537E-02    0.455E-01
RMM:   5    -0.230580664835E+04    0.17593E-02   -0.36931E-03  4486   0.225E-02    0.294E-01
RMM:   6    -0.230580552369E+04    0.11247E-02   -0.23453E-03  4597   0.198E-02    0.184E-01
RMM:   7    -0.230580527833E+04    0.24536E-03   -0.10454E-03  4389   0.168E-02    0.498E-02
RMM:   8    -0.230580528833E+04   -0.10007E-04   -0.11363E-04  3136   0.711E-03    0.222E-02
RMM:   9    -0.230580530101E+04   -0.12672E-04   -0.23197E-05  2846   0.494E-03    0.136E-02
RMM:  10    -0.230580531372E+04   -0.12716E-04   -0.11434E-05  2842   0.296E-03    0.973E-03
RMM:  11    -0.230580532271E+04   -0.89845E-05   -0.54845E-06  2823   0.262E-03
  58 F= -.23261766E+04 E0= -.23261766E+04  d E =-.459697E-02  mag=     5.0000
       N       E                     dE             d eps       ncg     rms          rms(c)
DAV:   1    -0.230570826983E+04    0.97044E-01   -0.40109E+00  4392   0.126E+00    0.672E-01
RMM:   2    -0.230580081734E+04   -0.92548E-01   -0.93204E-01  6160   0.293E-01    0.806E-01
RMM:   3    -0.230580896552E+04   -0.81482E-02   -0.10465E-01  5616   0.126E-01    0.564E-01
RMM:   4    -0.230580835413E+04    0.61139E-03   -0.10400E-02  4797   0.293E-02    0.241E-01
RMM:   5    -0.230580785469E+04    0.49944E-03   -0.95980E-04  3363   0.122E-02    0.146E-01
RMM:   6    -0.230580761712E+04    0.23757E-03   -0.63252E-04  4088   0.107E-02    0.146E-01
RMM:   7    -0.230580748158E+04    0.13554E-03   -0.41015E-04  3406   0.109E-02    0.382E-02
RMM:   8    -0.230580747778E+04    0.38034E-05   -0.47354E-05  2862   0.520E-03
  59 F= -.23261779E+04 E0= -.23261779E+04  d E =-.591828E-02  mag=     5.0000
       N       E                     dE             d eps       ncg     rms          rms(c)
DAV:   1    -0.230580175748E+04    0.57241E-02   -0.32867E-01  4496   0.376E-01    0.193E-01
RMM:   2    -0.230580894710E+04   -0.71896E-02   -0.74210E-02  6121   0.876E-02    0.113E-01
RMM:   3    -0.230580964518E+04   -0.69808E-03   -0.68916E-03  4061   0.370E-02    0.103E-01
RMM:   4    -0.230580965324E+04   -0.80677E-05   -0.78569E-04  2899   0.848E-03    0.847E-02
RMM:   5    -0.230580960030E+04    0.52943E-04   -0.63427E-05  2852   0.454E-03    0.355E-02
RMM:   6    -0.230580957527E+04    0.25031E-04   -0.67189E-05  2887   0.475E-03    0.184E-02
RMM:   7    -0.230580957292E+04    0.23450E-05   -0.12809E-05  2822   0.420E-03
  60 F= -.23261802E+04 E0= -.23261802E+04  d E =-.233057E-02  mag=     5.0000
       N       E                     dE             d eps       ncg     rms          rms(c)
DAV:   1    -0.230574170216E+04    0.67873E-01   -0.29605E+00  4392   0.113E+00    0.582E-01
RMM:   2    -0.230580634161E+04   -0.64639E-01   -0.66812E-01  6018   0.262E-01    0.373E-01
RMM:   3    -0.230581333422E+04   -0.69926E-02   -0.71584E-02  5461   0.114E-01    0.329E-01
RMM:   4    -0.230581359542E+04   -0.26120E-03   -0.73159E-03  4514   0.237E-02    0.252E-01
RMM:   5    -0.230581314086E+04    0.45456E-03   -0.70901E-04  3232   0.117E-02    0.148E-01
RMM:   6    -0.230581284351E+04    0.29736E-03   -0.61831E-04  4198   0.119E-02    0.518E-02
RMM:   7    -0.230581281634E+04    0.27167E-04   -0.14362E-04  3297   0.976E-03    0.431E-02
RMM:   8    -0.230581281002E+04    0.63221E-05   -0.35779E-05  2892   0.511E-03
  61 F= -.23261842E+04 E0= -.23261842E+04  d E =-.628800E-02  mag=     5.0000
       N       E                     dE             d eps       ncg     rms          rms(c)
DAV:   1    -0.230580267415E+04    0.10142E-01   -0.42552E-01  4488   0.428E-01    0.221E-01
RMM:   2    -0.230581200168E+04   -0.93275E-02   -0.96649E-02  6042   0.100E-01    0.123E-01
RMM:   3    -0.230581284887E+04   -0.84719E-03   -0.86290E-03  4326   0.421E-02    0.696E-02
RMM:   4    -0.230581289194E+04   -0.43071E-04   -0.98322E-04  2934   0.912E-03    0.748E-02
RMM:   5    -0.230581286347E+04    0.28467E-04   -0.76394E-05  2851   0.491E-03    0.653E-02
RMM:   6    -0.230581282378E+04    0.39686E-04   -0.73065E-05  2907   0.485E-03    0.269E-02
RMM:   7    -0.230581281997E+04    0.38108E-05   -0.22370E-05  2831   0.435E-03
  62 F= -.23261845E+04 E0= -.23261845E+04  d E =-.657624E-02  mag=     5.0000
       N       E                     dE             d eps       ncg     rms          rms(c)
DAV:   1    -0.230579584515E+04    0.16979E-01   -0.82779E-01  4420   0.573E-01    0.300E-01
RMM:   2    -0.230581325158E+04   -0.17406E-01   -0.18082E-01  6053   0.130E-01    0.172E-01
RMM:   3    -0.230581474077E+04   -0.14892E-02   -0.15417E-02  4842   0.532E-02    0.971E-02
RMM:   4    -0.230581481896E+04   -0.78194E-04   -0.18388E-03  2974   0.120E-02    0.110E-01
RMM:   5    -0.230581475381E+04    0.65150E-04   -0.15791E-04  2876   0.631E-03    0.890E-02
RMM:   6    -0.230581468922E+04    0.64595E-04   -0.13769E-04  3030   0.605E-03    0.421E-02
RMM:   7    -0.230581467992E+04    0.92991E-05   -0.40079E-05  2838   0.509E-03
  63 F= -.23261867E+04 E0= -.23261867E+04  d E =-.227795E-02  mag=     5.0000
       N       E                     dE             d eps       ncg     rms          rms(c)
DAV:   1    -0.230581078800E+04    0.39012E-02   -0.16483E-01  4608   0.255E-01    0.135E-01
RMM:   2    -0.230581427345E+04   -0.34855E-02   -0.36171E-02  6140   0.588E-02    0.865E-02
RMM:   3    -0.230581458562E+04   -0.31218E-03   -0.30112E-03  3177   0.245E-02    0.795E-02
RMM:   4    -0.230581458159E+04    0.40304E-05   -0.38063E-04  2900   0.625E-03    0.552E-02
RMM:   5    -0.230581455689E+04    0.24708E-04   -0.39014E-05  2807   0.345E-03    0.287E-02
RMM:   6    -0.230581455026E+04    0.66238E-05   -0.37072E-05  2872   0.328E-03
  64 F= -.23261868E+04 E0= -.23261868E+04  d E =-.233663E-02  mag=     5.0000
       N       E                     dE             d eps       ncg     rms          rms(c)
DAV:   1    -0.230579885068E+04    0.15706E-01   -0.76367E-01  4400   0.601E-01    0.292E-01
RMM:   2    -0.230581461842E+04   -0.15768E-01   -0.16308E-01  5923   0.132E-01    0.165E-01
RMM:   3    -0.230581615787E+04   -0.15395E-02   -0.15611E-02  4949   0.576E-02    0.110E-01
RMM:   4    -0.230581624620E+04   -0.88331E-04   -0.17352E-03  3114   0.119E-02    0.134E-01
RMM:   5    -0.230581614336E+04    0.10284E-03   -0.14283E-04  2868   0.642E-03    0.573E-02
RMM:   6    -0.230581609124E+04    0.52121E-04   -0.13442E-04  3300   0.635E-03    0.334E-02
RMM:   7    -0.230581608359E+04    0.76489E-05   -0.29022E-05  2837   0.535E-03
  65 F= -.23261888E+04 E0= -.23261888E+04  d E =-.199790E-02  mag=     5.0000
       N       E                     dE             d eps       ncg     rms          rms(c)
DAV:   1    -0.230576146915E+04    0.54622E-01   -0.24163E+00  4400   0.107E+00    0.521E-01
RMM:   2    -0.230581107747E+04   -0.49608E-01   -0.51337E-01  5997   0.237E-01    0.297E-01
RMM:   3    -0.230581643626E+04   -0.53588E-02   -0.55445E-02  5340   0.106E-01    0.186E-01
RMM:   4    -0.230581666447E+04   -0.22820E-03   -0.54960E-03  4210   0.208E-02    0.214E-01
RMM:   5    -0.230581643865E+04    0.22581E-03   -0.42771E-04  3014   0.103E-02    0.116E-01
RMM:   6    -0.230581624194E+04    0.19671E-03   -0.43588E-04  4050   0.103E-02    0.616E-02
RMM:   7    -0.230581620867E+04    0.33278E-04   -0.10746E-04  2998   0.810E-03    0.206E-02
RMM:   8    -0.230581620957E+04   -0.90404E-06   -0.21392E-05  2855   0.469E-03
  66 F= -.23261898E+04 E0= -.23261898E+04  d E =-.296337E-02  mag=     5.0000
       N       E                     dE             d eps       ncg     rms          rms(c)
DAV:   1    -0.230580906999E+04    0.71387E-02   -0.42678E-01  4464   0.455E-01    0.219E-01
RMM:   2    -0.230581699043E+04   -0.79204E-02   -0.82668E-02  5959   0.992E-02    0.173E-01
RMM:   3    -0.230581795457E+04   -0.96413E-03   -0.88013E-03  4654   0.425E-02    0.220E-01
RMM:   4    -0.230581774423E+04    0.21034E-03   -0.97608E-04  2956   0.106E-02    0.802E-02
RMM:   5    -0.230581768446E+04    0.59763E-04   -0.12788E-04  2897   0.632E-03    0.394E-02
RMM:   6    -0.230581766297E+04    0.21492E-04   -0.86252E-05  2954   0.598E-03    0.266E-02
RMM:   7    -0.230581766103E+04    0.19415E-05   -0.18590E-05  2830   0.507E-03
  67 F= -.23261916E+04 E0= -.23261916E+04  d E =-.185518E-02  mag=     5.0000
       N       E                     dE             d eps       ncg     rms          rms(c)
DAV:   1    -0.230581714802E+04    0.51495E-03   -0.22579E-02  4736   0.105E-01    0.517E-02
RMM:   2    -0.230581758382E+04   -0.43580E-03   -0.44518E-03  5602   0.238E-02    0.584E-02
RMM:   3    -0.230581762419E+04   -0.40370E-04   -0.43636E-04  2863   0.102E-02    0.541E-02
RMM:   4    -0.230581761210E+04    0.12091E-04   -0.53450E-05  2847   0.324E-03    0.164E-02
RMM:   5    -0.230581760962E+04    0.24808E-05   -0.78144E-06  2702   0.175E-03
  68 F= -.23261917E+04 E0= -.23261917E+04  d E =-.189751E-02  mag=     5.0000
       N       E                     dE             d eps       ncg     rms          rms(c)
DAV:   1    -0.230581110792E+04    0.65042E-02   -0.43999E-01  4396   0.537E-01    0.227E-01
RMM:   2    -0.230581870435E+04   -0.75964E-02   -0.78907E-02  5665   0.108E-01    0.148E-01
RMM:   3    -0.230581943431E+04   -0.72996E-03   -0.69442E-03  4823   0.454E-02    0.180E-01
RMM:   4    -0.230581930335E+04    0.13096E-03   -0.87126E-04  3134   0.109E-02    0.834E-02
RMM:   5    -0.230581923179E+04    0.71560E-04   -0.12220E-04  2983   0.784E-03    0.383E-02
RMM:   6    -0.230581921577E+04    0.16019E-04   -0.10091E-04  3630   0.769E-03    0.394E-02
RMM:   7    -0.230581920736E+04    0.84127E-05   -0.21083E-05  2824   0.575E-03
  69 F= -.23261937E+04 E0= -.23261937E+04  d E =-.199857E-02  mag=     5.0000
       N       E                     dE             d eps       ncg     rms          rms(c)
DAV:   1    -0.230581761593E+04    0.15998E-02   -0.83753E-02  4528   0.234E-01    0.101E-01
RMM:   2    -0.230581909519E+04   -0.14793E-02   -0.15135E-02  5788   0.487E-02    0.947E-02
RMM:   3    -0.230581923715E+04   -0.14196E-03   -0.13482E-03  3448   0.216E-02    0.106E-01
RMM:   4    -0.230581918335E+04    0.53798E-04   -0.17596E-04  2875   0.609E-03    0.313E-02
RMM:   5    -0.230581917151E+04    0.11835E-04   -0.31096E-05  2849   0.398E-03    0.178E-02
RMM:   6    -0.230581916887E+04    0.26378E-05   -0.18724E-05  2852   0.385E-03
  70 F= -.23261938E+04 E0= -.23261938E+04  d E =-.213563E-02  mag=     5.0000
       N       E                     dE             d eps       ncg     rms          rms(c)
DAV:   1    -0.230581791013E+04    0.12614E-02   -0.12845E-01  4416   0.311E-01    0.124E-01
RMM:   2    -0.230581996202E+04   -0.20519E-02   -0.20478E-02  5824   0.590E-02    0.145E-01
RMM:   3    -0.230582010681E+04   -0.14479E-03   -0.18308E-03  3655   0.252E-02    0.134E-01
RMM:   4    -0.230582001707E+04    0.89742E-04   -0.23423E-04  2895   0.703E-03    0.320E-02
RMM:   5    -0.230582000268E+04    0.14388E-04   -0.40001E-05  2857   0.450E-03    0.180E-02
RMM:   6    -0.230581999846E+04    0.42218E-05   -0.24562E-05  2851   0.450E-03
  71 F= -.23261948E+04 E0= -.23261948E+04  d E =-.103573E-02  mag=     5.0000
       N       E                     dE             d eps       ncg     rms          rms(c)
DAV:   1    -0.230581103862E+04    0.89641E-02   -0.56609E-01  4392   0.653E-01    0.259E-01
RMM:   2    -0.230581997110E+04   -0.89325E-02   -0.89896E-02  5712   0.123E-01    0.277E-01
RMM:   3    -0.230582078067E+04   -0.80957E-03   -0.84586E-03  5064   0.544E-02    0.294E-01
RMM:   4    -0.230582032909E+04    0.45158E-03   -0.10251E-03  3952   0.133E-02    0.676E-02
RMM:   5    -0.230582026448E+04    0.64611E-04   -0.19829E-04  3266   0.858E-03    0.382E-02
RMM:   6    -0.230582024139E+04    0.23089E-04   -0.11081E-04  3907   0.815E-03    0.305E-02
RMM:   7    -0.230582023667E+04    0.47177E-05   -0.21279E-05  2829   0.628E-03
  72 F= -.23261955E+04 E0= -.23261955E+04  d E =-.170905E-02  mag=     5.0000
       N       E                     dE             d eps       ncg     rms          rms(c)
DAV:   1    -0.230581956110E+04    0.68029E-03   -0.69211E-02  4608   0.216E-01    0.861E-02
RMM:   2    -0.230582069168E+04   -0.11306E-02   -0.11125E-02  5848   0.421E-02    0.123E-01
RMM:   3    -0.230582073888E+04   -0.47191E-04   -0.10919E-03  3050   0.176E-02    0.798E-02
RMM:   4    -0.230582071166E+04    0.27215E-04   -0.12853E-04  2856   0.513E-03    0.240E-02
RMM:   5    -0.230582070326E+04    0.84031E-05   -0.19917E-05  2854   0.309E-03
  73 F= -.23261961E+04 E0= -.23261961E+04  d E =-.619161E-03  mag=     5.0000
       N       E                     dE             d eps       ncg     rms          rms(c)
DAV:   1    -0.230581899082E+04    0.17208E-02   -0.10884E-01  4412   0.270E-01    0.107E-01
RMM:   2    -0.230582073009E+04   -0.17393E-02   -0.17349E-02  5890   0.520E-02    0.136E-01
RMM:   3    -0.230582085388E+04   -0.12379E-03   -0.18110E-03  3198   0.209E-02    0.110E-01
RMM:   4    -0.230582079489E+04    0.58989E-04   -0.20133E-04  2862   0.635E-03    0.321E-02
RMM:   5    -0.230582078149E+04    0.13394E-04   -0.33927E-05  2875   0.384E-03    0.184E-02
RMM:   6    -0.230582077753E+04    0.39612E-05   -0.18937E-05  2842   0.359E-03
  74 F= -.23261964E+04 E0= -.23261964E+04  d E =-.886414E-03  mag=     5.0000
       N       E                     dE             d eps       ncg     rms          rms(c)
DAV:   1    -0.230582079648E+04   -0.14989E-04   -0.32219E-02  4528   0.163E-01    0.668E-02
RMM:   2    -0.230582129303E+04   -0.49654E-03   -0.47431E-03  5805   0.325E-02    0.101E-01
RMM:   3    -0.230582129150E+04    0.15237E-05   -0.45483E-04  3034   0.136E-02    0.581E-02
RMM:   4    -0.230582127417E+04    0.17335E-04   -0.52720E-05  2852   0.414E-03    0.155E-02
RMM:   5    -0.230582127040E+04    0.37709E-05   -0.10946E-05  2846   0.286E-03
  75 F= -.23261970E+04 E0= -.23261970E+04  d E =-.578852E-03  mag=     5.0000
       N       E                     dE             d eps       ncg     rms          rms(c)
DAV:   1    -0.230581769842E+04    0.35758E-02   -0.27358E-01  4392   0.475E-01    0.189E-01
RMM:   2    -0.230582171493E+04   -0.40165E-02   -0.39773E-02  5681   0.911E-02    0.231E-01
RMM:   3    -0.230582194689E+04   -0.23196E-03   -0.38634E-03  4552   0.376E-02    0.194E-01
RMM:   4    -0.230582173766E+04    0.20923E-03   -0.46379E-04  3516   0.103E-02    0.474E-02
RMM:   5    -0.230582169984E+04    0.37819E-04   -0.90141E-05  3151   0.753E-03    0.247E-02
RMM:   6    -0.230582169006E+04    0.97839E-05   -0.58471E-05  3518   0.694E-03
  76 F= -.23261976E+04 E0= -.23261976E+04  d E =-.124973E-02  mag=     5.0000
       N       E                     dE             d eps       ncg     rms          rms(c)
DAV:   1    -0.230582143060E+04    0.26924E-03   -0.41861E-02  4592   0.183E-01    0.712E-02
RMM:   2    -0.230582208322E+04   -0.65263E-03   -0.62206E-03  6020   0.368E-02    0.113E-01
RMM:   3    -0.230582208034E+04    0.28867E-05   -0.56842E-04  2986   0.130E-02    0.609E-02
RMM:   4    -0.230582206387E+04    0.16472E-04   -0.71057E-05  2864   0.460E-03    0.165E-02
RMM:   5    -0.230582206003E+04    0.38328E-05   -0.97162E-06  2842   0.268E-03
  77 F= -.23261981E+04 E0= -.23261981E+04  d E =-.486440E-03  mag=     5.0000
       N       E                     dE             d eps       ncg     rms          rms(c)
DAV:   1    -0.230581678413E+04    0.52797E-02   -0.37648E-01  4392   0.548E-01    0.206E-01
RMM:   2    -0.230582236604E+04   -0.55819E-02   -0.54884E-02  5670   0.100E-01    0.265E-01
RMM:   3    -0.230582266097E+04   -0.29493E-03   -0.51741E-03  4732   0.418E-02    0.207E-01
RMM:   4    -0.230582243869E+04    0.22228E-03   -0.61008E-04  3208   0.104E-02    0.517E-02
RMM:   5    -0.230582240100E+04    0.37692E-04   -0.91333E-05  2884   0.676E-03    0.300E-02
RMM:   6    -0.230582238937E+04    0.11625E-04   -0.67731E-05  3288   0.684E-03    0.200E-02
RMM:   7    -0.230582238769E+04    0.16811E-05   -0.11131E-05  2832   0.515E-03
  78 F= -.23261988E+04 E0= -.23261988E+04  d E =-.116420E-02  mag=     5.0000
       N       E                     dE             d eps       ncg     rms          rms(c)
DAV:   1    -0.230582236618E+04    0.23185E-04   -0.17713E-02  4688   0.117E-01    0.446E-02
RMM:   2    -0.230582263842E+04   -0.27223E-03   -0.26501E-03  5559   0.226E-02    0.651E-02
RMM:   3    -0.230582264504E+04   -0.66235E-05   -0.25538E-04  2871   0.998E-03    0.391E-02
RMM:   4    -0.230582263856E+04    0.64860E-05   -0.31418E-05  2849   0.292E-03
  79 F= -.23261991E+04 E0= -.23261991E+04  d E =-.331998E-03  mag=     5.0000
       N       E                     dE             d eps       ncg     rms          rms(c)
DAV:   1    -0.230582059359E+04    0.20514E-02   -0.15950E-01  4392   0.352E-01    0.131E-01
RMM:   2    -0.230582302148E+04   -0.24279E-02   -0.23517E-02  5760   0.647E-02    0.198E-01
RMM:   3    -0.230582306971E+04   -0.48230E-04   -0.23154E-03  3695   0.264E-02    0.114E-01
RMM:   4    -0.230582300452E+04    0.65187E-04   -0.26951E-04  2888   0.725E-03    0.357E-02
RMM:   5    -0.230582298592E+04    0.18603E-04   -0.38621E-05  2875   0.466E-03    0.225E-02
RMM:   6    -0.230582297974E+04    0.61830E-05   -0.28805E-05  2844   0.472E-03
  80 F= -.23261997E+04 E0= -.23261997E+04  d E =-.917068E-03  mag=     5.0000
       N       E                     dE             d eps       ncg     rms          rms(c)
DAV:   1    -0.230581225384E+04    0.10732E-01   -0.63900E-01  4392   0.704E-01    0.267E-01
RMM:   2    -0.230582201312E+04   -0.97593E-02   -0.94303E-02  5468   0.129E-01    0.405E-01
RMM:   3    -0.230582222869E+04   -0.21557E-03   -0.96660E-03  4972   0.588E-02    0.237E-01
RMM:   4    -0.230582195135E+04    0.27734E-03   -0.10885E-03  3897   0.129E-02    0.666E-02
RMM:   5    -0.230582188710E+04    0.64252E-04   -0.13127E-04  3093   0.788E-03    0.446E-02
RMM:   6    -0.230582186114E+04    0.25965E-04   -0.11099E-04  3732   0.808E-03    0.117E-02
RMM:   7    -0.230582186179E+04   -0.65035E-06   -0.15047E-05  2846   0.560E-03
  81 F= -.23261991E+04 E0= -.23261991E+04  d E =-.289172E-03  mag=     5.0000
       N       E                     dE             d eps       ncg     rms          rms(c)
DAV:   1    -0.230581803674E+04    0.38244E-02   -0.32585E-01  4392   0.503E-01    0.193E-01
RMM:   2    -0.230582315157E+04   -0.51148E-02   -0.48202E-02  5674   0.926E-02    0.332E-01
RMM:   3    -0.230582302728E+04    0.12430E-03   -0.46477E-03  4585   0.377E-02    0.139E-01
RMM:   4    -0.230582295127E+04    0.76004E-04   -0.55532E-04  3022   0.927E-03    0.454E-02
RMM:   5    -0.230582291749E+04    0.33787E-04   -0.65434E-05  2909   0.594E-03    0.333E-02
RMM:   6    -0.230582290552E+04    0.11962E-04   -0.57439E-05  2975   0.635E-03    0.683E-03
RMM:   7    -0.230582290586E+04   -0.33749E-06   -0.82325E-06  2826   0.459E-03
  82 F= -.23261998E+04 E0= -.23261998E+04  d E =-.983553E-03  mag=     5.0000
       N       E                     dE             d eps       ncg     rms          rms(c)
DAV:   1    -0.230582231518E+04    0.59035E-03   -0.48262E-02  4428   0.186E-01    0.724E-02
RMM:   2    -0.230582314860E+04   -0.83342E-03   -0.79627E-03  5655   0.354E-02    0.114E-01
RMM:   3    -0.230582316153E+04   -0.12934E-04   -0.74648E-04  2947   0.149E-02    0.607E-02
RMM:   4    -0.230582314559E+04    0.15938E-04   -0.87322E-05  2865   0.413E-03    0.175E-02
RMM:   5    -0.230582314104E+04    0.45551E-05   -0.80226E-06  2777   0.214E-03
  83 F= -.23262002E+04 E0= -.23262002E+04  d E =-.369754E-03  mag=     5.0000
       N       E                     dE             d eps       ncg     rms          rms(c)
DAV:   1    -0.230581604513E+04    0.71005E-02   -0.43184E-01  4424   0.555E-01    0.215E-01
RMM:   2    -0.230582343900E+04   -0.73939E-02   -0.71496E-02  5733   0.105E-01    0.316E-01
RMM:   3    -0.230582371168E+04   -0.27268E-03   -0.68377E-03  4840   0.435E-02    0.199E-01
RMM:   4    -0.230582353095E+04    0.18073E-03   -0.79221E-04  3054   0.104E-02    0.538E-02
RMM:   5    -0.230582349186E+04    0.39090E-04   -0.72483E-05  2876   0.588E-03    0.370E-02
RMM:   6    -0.230582347329E+04    0.18572E-04   -0.79629E-05  3271   0.664E-03    0.155E-02
RMM:   7    -0.230582347280E+04    0.48762E-06   -0.12357E-05  2837   0.495E-03
  84 F= -.23262009E+04 E0= -.23262009E+04  d E =-.110646E-02  mag=     5.0000
       N       E                     dE             d eps       ncg     rms          rms(c)
DAV:   1    -0.230579268891E+04    0.30784E-01   -0.17340E+00  4424   0.111E+00    0.430E-01
RMM:   2    -0.230582211483E+04   -0.29426E-01   -0.28612E-01  5721   0.211E-01    0.604E-01
RMM:   3    -0.230582367027E+04   -0.15554E-02   -0.28907E-02  5314   0.925E-02    0.423E-01
RMM:   4    -0.230582282854E+04    0.84173E-03   -0.31997E-03  4749   0.205E-02    0.108E-01
RMM:   5    -0.230582267601E+04    0.15253E-03   -0.31065E-04  3605   0.108E-02    0.750E-02
RMM:   6    -0.230582259720E+04    0.78807E-04   -0.31534E-04  4081   0.116E-02    0.338E-02
RMM:   7    -0.230582259380E+04    0.33993E-05   -0.48741E-05  2853   0.828E-03
  85 F= -.23262008E+04 E0= -.23262008E+04  d E =-.104262E-02  mag=     5.0000
       N       E                     dE             d eps       ncg     rms          rms(c)
DAV:   1    -0.230581751464E+04    0.50826E-02   -0.33177E-01  4424   0.487E-01    0.195E-01
RMM:   2    -0.230582345201E+04   -0.59374E-02   -0.55337E-02  5752   0.925E-02    0.350E-01
RMM:   3    -0.230582333436E+04    0.11765E-03   -0.54097E-03  4545   0.365E-02    0.137E-01
RMM:   4    -0.230582326945E+04    0.64914E-04   -0.60438E-04  2982   0.905E-03    0.446E-02
RMM:   5    -0.230582323948E+04    0.29967E-04   -0.47933E-05  2876   0.526E-03    0.345E-02
RMM:   6    -0.230582322536E+04    0.14121E-04   -0.65085E-05  2949   0.605E-03    0.683E-03
RMM:   7    -0.230582322595E+04   -0.59408E-06   -0.87899E-06  2821   0.433E-03
  86 F= -.23262011E+04 E0= -.23262011E+04  d E =-.131764E-02  mag=     5.0000
       N       E                     dE             d eps       ncg     rms          rms(c)
DAV:   1    -0.230581972676E+04    0.34986E-02   -0.22253E-01  4424   0.376E-01    0.160E-01
RMM:   2    -0.230582380129E+04   -0.40745E-02   -0.39224E-02  5682   0.740E-02    0.249E-01
RMM:   3    -0.230582388681E+04   -0.85513E-04   -0.36569E-03  4044   0.303E-02    0.138E-01
RMM:   4    -0.230582380287E+04    0.83932E-04   -0.43764E-04  2926   0.784E-03    0.393E-02
RMM:   5    -0.230582377842E+04    0.24450E-04   -0.41287E-05  2858   0.443E-03    0.271E-02
RMM:   6    -0.230582376799E+04    0.10436E-04   -0.45245E-05  2865   0.484E-03    0.112E-02
RMM:   7    -0.230582376767E+04    0.31480E-06   -0.71885E-06  2831   0.361E-03
  87 F= -.23262020E+04 E0= -.23262020E+04  d E =-.844199E-03  mag=     5.0000
       N       E                     dE             d eps       ncg     rms          rms(c)
DAV:   1    -0.230581909635E+04    0.46716E-02   -0.25149E-01  4408   0.400E-01    0.170E-01
RMM:   2    -0.230582370350E+04   -0.46071E-02   -0.44553E-02  5871   0.795E-02    0.258E-01
RMM:   3    -0.230582383024E+04   -0.12674E-03   -0.41459E-03  4170   0.318E-02    0.149E-01
RMM:   4    -0.230582373311E+04    0.97130E-04   -0.49962E-04  2937   0.839E-03    0.422E-02
RMM:   5    -0.230582370574E+04    0.27362E-04   -0.46550E-05  2858   0.473E-03    0.283E-02
RMM:   6    -0.230582369452E+04    0.11219E-04   -0.49894E-05  2872   0.515E-03    0.148E-02
RMM:   7    -0.230582369388E+04    0.64491E-06   -0.90110E-06  2834   0.393E-03
  88 F= -.23262022E+04 E0= -.23262022E+04  d E =-.109262E-02  mag=     5.0000
       N       E                     dE             d eps       ncg     rms          rms(c)
DAV:   1    -0.230582185111E+04    0.18434E-02   -0.12054E-01  4444   0.275E-01    0.120E-01
RMM:   2    -0.230582417076E+04   -0.23197E-02   -0.22040E-02  5935   0.558E-02    0.200E-01
RMM:   3    -0.230582418593E+04   -0.15165E-04   -0.21319E-03  3421   0.228E-02    0.943E-02
RMM:   4    -0.230582415184E+04    0.34087E-04   -0.24967E-04  2881   0.636E-03    0.290E-02
RMM:   5    -0.230582413981E+04    0.12037E-04   -0.21974E-05  2847   0.346E-03    0.218E-02
RMM:   6    -0.230582413411E+04    0.56953E-05   -0.25624E-05  2837   0.374E-03
  89 F= -.23262029E+04 E0= -.23262029E+04  d E =-.687093E-03  mag=     5.0000
       N       E                     dE             d eps       ncg     rms          rms(c)
DAV:   1    -0.230580550000E+04    0.18640E-01   -0.98864E-01  4392   0.790E-01    0.343E-01
RMM:   2    -0.230582439438E+04   -0.18894E-01   -0.17988E-01  5757   0.158E-01    0.562E-01
RMM:   3    -0.230582468522E+04   -0.29084E-03   -0.18221E-02  5292   0.661E-02    0.285E-01
RMM:   4    -0.230582434799E+04    0.33723E-03   -0.20468E-03  4088   0.153E-02    0.830E-02
RMM:   5    -0.230582425243E+04    0.95563E-04   -0.17889E-04  3104   0.831E-03    0.642E-02
RMM:   6    -0.230582420320E+04    0.49224E-04   -0.21727E-04  3841   0.958E-03    0.133E-02
RMM:   7    -0.230582420410E+04   -0.89829E-06   -0.25576E-05  2853   0.615E-03
  90 F= -.23262037E+04 E0= -.23262037E+04  d E =-.146613E-02  mag=     5.0000
       N       E                     dE             d eps       ncg     rms          rms(c)
DAV:   1    -0.230582222008E+04    0.19831E-02   -0.12956E-01  4528   0.288E-01    0.129E-01
RMM:   2    -0.230582477630E+04   -0.25562E-02   -0.23972E-02  5918   0.587E-02    0.224E-01
RMM:   3    -0.230582474167E+04    0.34632E-04   -0.22839E-03  3605   0.245E-02    0.965E-02
RMM:   4    -0.230582471363E+04    0.28042E-04   -0.27132E-04  2884   0.657E-03    0.292E-02
RMM:   5    -0.230582470118E+04    0.12448E-04   -0.21372E-05  2850   0.363E-03    0.241E-02
RMM:   6    -0.230582469503E+04    0.61501E-05   -0.32386E-05  2830   0.416E-03
  91 F= -.23262044E+04 E0= -.23262044E+04  d E =-.761330E-03  mag=     5.0000
       N       E                     dE             d eps       ncg     rms          rms(c)
DAV:   1    -0.230580284444E+04    0.21857E-01   -0.11636E+00  4424   0.863E-01    0.381E-01
RMM:   2    -0.230582527975E+04   -0.22435E-01   -0.21321E-01  5698   0.173E-01    0.615E-01
RMM:   3    -0.230582558917E+04   -0.30941E-03   -0.21598E-02  5251   0.726E-02    0.319E-01
RMM:   4    -0.230582515806E+04    0.43111E-03   -0.24127E-03  4375   0.168E-02    0.882E-02
RMM:   5    -0.230582503979E+04    0.11827E-03   -0.21511E-04  3353   0.921E-03    0.685E-02
RMM:   6    -0.230582497639E+04    0.63408E-04   -0.26238E-04  3978   0.106E-02    0.151E-02
RMM:   7    -0.230582497608E+04    0.31159E-06   -0.30393E-05  2870   0.716E-03
  92 F= -.23262055E+04 E0= -.23262055E+04  d E =-.185488E-02  mag=     5.0000
       N       E                     dE             d eps       ncg     rms          rms(c)
DAV:   1    -0.230582219985E+04    0.27765E-02   -0.17926E-01  4460   0.330E-01    0.152E-01
RMM:   2    -0.230582554351E+04   -0.33437E-02   -0.32096E-02  5881   0.679E-02    0.245E-01
RMM:   3    -0.230582555434E+04   -0.10834E-04   -0.31034E-03  3877   0.277E-02    0.125E-01
RMM:   4    -0.230582549049E+04    0.63855E-04   -0.37630E-04  2911   0.750E-03    0.362E-02
RMM:   5    -0.230582546847E+04    0.22016E-04   -0.36353E-05  2862   0.438E-03    0.255E-02
RMM:   6    -0.230582546080E+04    0.76701E-05   -0.38033E-05  2841   0.469E-03
  93 F= -.23262063E+04 E0= -.23262063E+04  d E =-.768468E-03  mag=     5.0000
       N       E                     dE             d eps       ncg     rms          rms(c)
DAV:   1    -0.230582447506E+04    0.99341E-03   -0.49016E-02  4624   0.173E-01    0.794E-02
RMM:   2    -0.230582538497E+04   -0.90991E-03   -0.88245E-03  5959   0.361E-02    0.121E-01
RMM:   3    -0.230582540030E+04   -0.15333E-04   -0.85169E-04  2948   0.144E-02    0.676E-02
RMM:   4    -0.230582538104E+04    0.19259E-04   -0.10331E-04  2876   0.441E-03    0.191E-02
RMM:   5    -0.230582537538E+04    0.56612E-05   -0.10452E-05  2828   0.244E-03
  94 F= -.23262064E+04 E0= -.23262064E+04  d E =-.832118E-03  mag=     5.0000
       N       E                     dE             d eps       ncg     rms          rms(c)
DAV:   1    -0.230582416161E+04    0.12194E-02   -0.77308E-02  4444   0.220E-01    0.991E-02
RMM:   2    -0.230582567737E+04   -0.15158E-02   -0.14474E-02  5948   0.452E-02    0.155E-01
RMM:   3    -0.230582570162E+04   -0.24245E-04   -0.14013E-03  3084   0.181E-02    0.830E-02
[...]
       N       E                     dE             d eps       ncg     rms          rms(c)
DAV:   1    -0.230589801678E+04    0.39982E-02   -0.78384E-01  4424   0.873E-01    0.214E-01
RMM:   2    -0.230590219245E+04   -0.41757E-02   -0.44427E-02  5213   0.139E-01    0.119E-01
RMM:   3    -0.230590246876E+04   -0.27631E-03   -0.41989E-03  4736   0.596E-02    0.131E-01
RMM:   4    -0.230590239197E+04    0.76790E-04   -0.51574E-04  4261   0.124E-02    0.897E-02
RMM:   5    -0.230590231717E+04    0.74806E-04   -0.16333E-04  3995   0.103E-02    0.303E-02
RMM:   6    -0.230590231189E+04    0.52731E-05   -0.67551E-05  3542   0.765E-03
 169 F= -.23263060E+04 E0= -.23263060E+04  d E =-.943660E-03  mag=     5.0000
       N       E                     dE             d eps       ncg     rms          rms(c)
DAV:   1    -0.230590235984E+04   -0.42677E-04   -0.59254E-02  4576   0.239E-01    0.558E-02
RMM:   2    -0.230590266977E+04   -0.30993E-03   -0.32664E-03  5852   0.417E-02    0.297E-02
RMM:   3    -0.230590268765E+04   -0.17881E-04   -0.29451E-04  3372   0.143E-02    0.219E-02
RMM:   4    -0.230590268945E+04   -0.17977E-05   -0.36248E-05  2862   0.422E-03
 170 F= -.23263064E+04 E0= -.23263064E+04  d E =-.402689E-03  mag=     5.0000
       N       E                     dE             d eps       ncg     rms          rms(c)
DAV:   1    -0.230590047402E+04    0.22136E-02   -0.53498E-01  4424   0.716E-01    0.164E-01
RMM:   2    -0.230590319175E+04   -0.27177E-02   -0.28788E-02  5113   0.113E-01    0.952E-02
RMM:   3    -0.230590334792E+04   -0.15617E-03   -0.25783E-03  4626   0.494E-02    0.984E-02
RMM:   4    -0.230590331100E+04    0.36922E-04   -0.32856E-04  3664   0.101E-02    0.745E-02
RMM:   5    -0.230590326254E+04    0.48461E-04   -0.10346E-04  3602   0.851E-03    0.245E-02
RMM:   6    -0.230590326109E+04    0.14416E-05   -0.41887E-05  3043   0.663E-03
 171 F= -.23263070E+04 E0= -.23263070E+04  d E =-.105024E-02  mag=     5.0000
       N       E                     dE             d eps       ncg     rms          rms(c)
DAV:   1    -0.230589081033E+04    0.12452E-01   -0.21433E+00  4392   0.143E+00    0.329E-01
RMM:   2    -0.230590167419E+04   -0.10864E-01   -0.11530E-01  5168   0.227E-01    0.174E-01
RMM:   3    -0.230590218970E+04   -0.51551E-03   -0.10337E-02  4803   0.902E-02    0.110E-01
RMM:   4    -0.230590210887E+04    0.80829E-04   -0.12995E-03  4584   0.210E-02    0.716E-02
RMM:   5    -0.230590213145E+04   -0.22575E-04   -0.33976E-04  4388   0.158E-02    0.109E-01
RMM:   6    -0.230590206140E+04    0.70045E-04   -0.11751E-04  3470   0.764E-03    0.306E-02
RMM:   7    -0.230590205632E+04    0.50881E-05   -0.16029E-05  2836   0.525E-03
 172 F= -.23263060E+04 E0= -.23263060E+04  d E =0.505363E-06  mag=     5.0000
       N       E                     dE             d eps       ncg     rms          rms(c)
DAV:   1    -0.230589679999E+04    0.52614E-02   -0.12422E+00  4424   0.109E+00    0.249E-01
RMM:   2    -0.230590308980E+04   -0.62898E-02   -0.66747E-02  5078   0.171E-01    0.131E-01
RMM:   3    -0.230590334523E+04   -0.25544E-03   -0.56954E-03  4670   0.711E-02    0.811E-02
RMM:   4    -0.230590329189E+04    0.53345E-04   -0.72120E-04  4404   0.162E-02    0.487E-02
RMM:   5    -0.230590327674E+04    0.15144E-04   -0.15246E-04  4029   0.122E-02    0.405E-02
RMM:   6    -0.230590327436E+04    0.23848E-05   -0.37582E-05  2851   0.549E-03
 173 F= -.23263071E+04 E0= -.23263071E+04  d E =-.110004E-02  mag=     5.0000
       N       E                     dE             d eps       ncg     rms          rms(c)
DAV:   1    -0.230590320383E+04    0.72910E-04   -0.14867E-02  4528   0.120E-01    0.292E-02
RMM:   2    -0.230590328370E+04   -0.79867E-04   -0.83745E-04  5362   0.213E-02    0.152E-02
RMM:   3    -0.230590328817E+04   -0.44692E-05   -0.75415E-05  2849   0.825E-03
 174 F= -.23263071E+04 E0= -.23263071E+04  d E =-.110102E-02  mag=     5.0000
       N       E                     dE             d eps       ncg     rms          rms(c)
DAV:   1    -0.230590355722E+04   -0.27352E-03   -0.28587E-02  4432   0.170E-01    0.551E-02
RMM:   2    -0.230590368111E+04   -0.12389E-03   -0.13955E-03  5265   0.284E-02    0.418E-02
RMM:   3    -0.230590369433E+04   -0.13219E-04   -0.13861E-04  3125   0.120E-02    0.592E-02
RMM:   4    -0.230590366880E+04    0.25525E-04   -0.24881E-05  2839   0.409E-03    0.121E-02
RMM:   5    -0.230590366586E+04    0.29421E-05   -0.10346E-05  2835   0.309E-03
 175 F= -.23263074E+04 E0= -.23263074E+04  d E =-.371938E-03  mag=     5.0000
       N       E                     dE             d eps       ncg     rms          rms(c)
DAV:   1    -0.230590366548E+04    0.33182E-05   -0.32401E-02  4480   0.181E-01    0.589E-02
RMM:   2    -0.230590380080E+04   -0.13532E-03   -0.16057E-03  5479   0.308E-02    0.263E-02
RMM:   3    -0.230590380186E+04   -0.10580E-05   -0.13074E-04  3242   0.131E-02    0.288E-02
RMM:   4    -0.230590379897E+04    0.28880E-05   -0.23237E-05  2847   0.389E-03
 176 F= -.23263076E+04 E0= -.23263076E+04  d E =-.498903E-03  mag=     5.0000
       N       E                     dE             d eps       ncg     rms          rms(c)
DAV:   1    -0.230590394090E+04   -0.13904E-03   -0.34243E-02  4396   0.186E-01    0.548E-02
RMM:   2    -0.230590407787E+04   -0.13697E-03   -0.16423E-03  5326   0.302E-02    0.267E-02
RMM:   3    -0.230590407690E+04    0.96804E-06   -0.14113E-04  3244   0.135E-02    0.211E-02
RMM:   4    -0.230590407789E+04   -0.99406E-06   -0.26529E-05  2857   0.395E-03
 177 F= -.23263079E+04 E0= -.23263079E+04  d E =-.301900E-03  mag=     5.0000
       N       E                     dE             d eps       ncg     rms          rms(c)
DAV:   1    -0.230590405254E+04    0.24362E-04   -0.13568E-02  4656   0.117E-01    0.387E-02
RMM:   2    -0.230590411963E+04   -0.67093E-04   -0.67126E-04  5124   0.195E-02    0.497E-02
RMM:   3    -0.230590411227E+04    0.73622E-05   -0.67110E-05  2886   0.886E-03
 178 F= -.23263079E+04 E0= -.23263079E+04  d E =-.350843E-03  mag=     5.0000
       N       E                     dE             d eps       ncg     rms          rms(c)
DAV:   1    -0.230590426838E+04   -0.14876E-03   -0.36824E-02  4392   0.198E-01    0.563E-02
RMM:   2    -0.230590442959E+04   -0.16121E-03   -0.18051E-03  5244   0.315E-02    0.266E-02
RMM:   3    -0.230590442821E+04    0.13876E-05   -0.14247E-04  3125   0.122E-02    0.175E-02
RMM:   4    -0.230590442593E+04    0.22771E-05   -0.25457E-05  2859   0.419E-03
 179 F= -.23263082E+04 E0= -.23263082E+04  d E =-.314184E-03  mag=     5.0000
       N       E                     dE             d eps       ncg     rms          rms(c)
DAV:   1    -0.230590385264E+04    0.57557E-03   -0.18791E-01  4392   0.446E-01    0.127E-01
RMM:   2    -0.230590470416E+04   -0.85152E-03   -0.91777E-03  5085   0.698E-02    0.940E-02
RMM:   3    -0.230590478474E+04   -0.80579E-04   -0.89867E-04  4427   0.333E-02    0.132E-01
RMM:   4    -0.230590466177E+04    0.12297E-03   -0.13316E-04  3181   0.784E-03    0.308E-02
RMM:   5    -0.230590464416E+04    0.17612E-04   -0.62504E-05  3462   0.688E-03    0.121E-02
RMM:   6    -0.230590464273E+04    0.14279E-05   -0.12220E-05  2823   0.541E-03
 180 F= -.23263085E+04 E0= -.23263085E+04  d E =-.532310E-03  mag=     5.0000
       N       E                     dE             d eps       ncg     rms          rms(c)
DAV:   1    -0.230590469633E+04   -0.52165E-04   -0.46072E-02  4496   0.216E-01    0.500E-02
RMM:   2    -0.230590493066E+04   -0.23433E-03   -0.25058E-03  5524   0.350E-02    0.274E-02
RMM:   3    -0.230590493928E+04   -0.86240E-05   -0.19153E-04  3261   0.137E-02    0.282E-02
RMM:   4    -0.230590493667E+04    0.26120E-05   -0.26573E-05  2856   0.377E-03
 181 F= -.23263088E+04 E0= -.23263088E+04  d E =-.307144E-03  mag=     5.0000
       N       E                     dE             d eps       ncg     rms          rms(c)
DAV:   1    -0.230590386739E+04    0.10719E-02   -0.27332E-01  4392   0.525E-01    0.121E-01
RMM:   2    -0.230590523362E+04   -0.13662E-02   -0.14633E-02  4962   0.810E-02    0.768E-02
RMM:   3    -0.230590530383E+04   -0.70204E-04   -0.12220E-03  4401   0.354E-02    0.978E-02
RMM:   4    -0.230590524750E+04    0.56327E-04   -0.15835E-04  3186   0.750E-03    0.417E-02
RMM:   5    -0.230590522414E+04    0.23359E-04   -0.72922E-05  3421   0.697E-03    0.145E-02
RMM:   6    -0.230590522433E+04   -0.19079E-06   -0.14307E-05  2835   0.550E-03
 182 F= -.23263091E+04 E0= -.23263091E+04  d E =-.627734E-03  mag=     5.0000
       N       E                     dE             d eps       ncg     rms          rms(c)
DAV:   1    -0.230590523676E+04   -0.12619E-04   -0.80100E-02  4408   0.281E-01    0.743E-02
RMM:   2    -0.230590560866E+04   -0.37190E-03   -0.42155E-03  5332   0.457E-02    0.447E-02
RMM:   3    -0.230590563285E+04   -0.24190E-04   -0.35922E-04  3903   0.199E-02    0.612E-02
RMM:   4    -0.230590561024E+04    0.22613E-04   -0.51519E-05  2890   0.491E-03    0.231E-02
RMM:   5    -0.230590560341E+04    0.68314E-05   -0.21776E-05  2858   0.390E-03
 183 F= -.23263095E+04 E0= -.23263095E+04  d E =-.421247E-03  mag=     5.0000
       N       E                     dE             d eps       ncg     rms          rms(c)
DAV:   1    -0.230590552539E+04    0.84851E-04   -0.21131E-02  4640   0.144E-01    0.382E-02
RMM:   2    -0.230590562372E+04   -0.98331E-04   -0.11214E-03  5400   0.247E-02    0.199E-02
RMM:   3    -0.230590562615E+04   -0.24265E-05   -0.86009E-05  2913   0.949E-03
 184 F= -.23263095E+04 E0= -.23263095E+04  d E =-.465941E-03  mag=     5.0000
       N       E                     dE             d eps       ncg     rms          rms(c)
DAV:   1    -0.230590569034E+04   -0.66618E-04   -0.60149E-02  4392   0.246E-01    0.639E-02
RMM:   2    -0.230590598777E+04   -0.29743E-03   -0.32205E-03  5275   0.389E-02    0.395E-02
RMM:   3    -0.230590600612E+04   -0.18358E-04   -0.28785E-04  3427   0.156E-02    0.559E-02
RMM:   4    -0.230590598697E+04    0.19157E-04   -0.42481E-05  2867   0.455E-03    0.221E-02
RMM:   5    -0.230590598080E+04    0.61725E-05   -0.21119E-05  2852   0.387E-03
 185 F= -.23263099E+04 E0= -.23263099E+04  d E =-.352037E-03  mag=     5.0000
       N       E                     dE             d eps       ncg     rms          rms(c)
DAV:   1    -0.230590509487E+04    0.89209E-03   -0.22510E-01  4392   0.476E-01    0.121E-01
RMM:   2    -0.230590619539E+04   -0.11005E-02   -0.11876E-02  5221   0.745E-02    0.624E-02
RMM:   3    -0.230590623147E+04   -0.36080E-04   -0.90673E-04  4358   0.313E-02    0.629E-02
RMM:   4    -0.230590621818E+04    0.13290E-04   -0.12845E-04  3039   0.699E-03    0.473E-02
RMM:   5    -0.230590619582E+04    0.22358E-04   -0.56980E-05  3072   0.644E-03    0.176E-02
RMM:   6    -0.230590619488E+04    0.93841E-06   -0.15578E-05  2849   0.512E-03
 186 F= -.23263101E+04 E0= -.23263101E+04  d E =-.561789E-03  mag=     5.0000
       N       E                     dE             d eps       ncg     rms          rms(c)
DAV:   1    -0.230590616089E+04    0.34931E-04   -0.90415E-02  4424   0.302E-01    0.813E-02
RMM:   2    -0.230590661576E+04   -0.45487E-03   -0.49155E-03  5348   0.486E-02    0.441E-02
RMM:   3    -0.230590663888E+04   -0.23117E-04   -0.38744E-04  4036   0.218E-02    0.578E-02
RMM:   4    -0.230590661951E+04    0.19371E-04   -0.55831E-05  2873   0.516E-03    0.255E-02
RMM:   5    -0.230590661124E+04    0.82640E-05   -0.23950E-05  2852   0.436E-03
 187 F= -.23263105E+04 E0= -.23263105E+04  d E =-.391331E-03  mag=     5.0000
       N       E                     dE             d eps       ncg     rms          rms(c)
DAV:   1    -0.230590625798E+04    0.36153E-03   -0.97468E-02  4424   0.314E-01    0.843E-02
RMM:   2    -0.230590674352E+04   -0.48554E-03   -0.52753E-03  5501   0.510E-02    0.444E-02
RMM:   3    -0.230590676541E+04   -0.21889E-04   -0.41093E-04  3961   0.218E-02    0.543E-02
RMM:   4    -0.230590674974E+04    0.15671E-04   -0.59025E-05  2878   0.539E-03    0.283E-02
RMM:   5    -0.230590673953E+04    0.10206E-04   -0.25764E-05  2857   0.459E-03    0.110E-02
RMM:   6    -0.230590673860E+04    0.92562E-06   -0.81707E-06  2827   0.392E-03
 188 F= -.23263106E+04 E0= -.23263106E+04  d E =-.492892E-03  mag=     5.0000
       N       E                     dE             d eps       ncg     rms          rms(c)
DAV:   1    -0.230590675729E+04   -0.17762E-04   -0.50591E-02  4496   0.220E-01    0.643E-02
RMM:   2    -0.230590701911E+04   -0.26182E-03   -0.29182E-03  5438   0.366E-02    0.466E-02
RMM:   3    -0.230590703756E+04   -0.18454E-04   -0.26139E-04  3513   0.159E-02    0.606E-02
RMM:   4    -0.230590701323E+04    0.24339E-04   -0.39597E-05  2870   0.459E-03    0.190E-02
RMM:   5    -0.230590700877E+04    0.44581E-05   -0.19211E-05  2854   0.367E-03
 189 F= -.23263109E+04 E0= -.23263109E+04  d E =-.263149E-03  mag=     5.0000
       N       E                     dE             d eps       ncg     rms          rms(c)
DAV:   1    -0.230590700398E+04    0.92417E-05   -0.16171E-03  4888   0.396E-02    0.121E-02
RMM:   2    -0.230590701235E+04   -0.83647E-05   -0.95316E-05  3139   0.792E-03
 190 F= -.23263109E+04 E0= -.23263109E+04  d E =-.265459E-03  mag=     5.0000
       N       E                     dE             d eps       ncg     rms          rms(c)
DAV:   1    -0.230590711665E+04   -0.11267E-03   -0.39673E-02  4412   0.201E-01    0.579E-02
RMM:   2    -0.230590734084E+04   -0.22418E-03   -0.24118E-03  5897   0.353E-02    0.394E-02
RMM:   3    -0.230590735569E+04   -0.14856E-04   -0.22580E-04  3249   0.126E-02    0.484E-02
RMM:   4    -0.230590734115E+04    0.14543E-04   -0.30586E-05  2850   0.444E-03    0.189E-02
RMM:   5    -0.230590733727E+04    0.38741E-05   -0.15135E-05  2842   0.361E-03
 191 F= -.23263112E+04 E0= -.23263112E+04  d E =-.283473E-03  mag=     5.0000
       N       E                     dE             d eps       ncg     rms          rms(c)
DAV:   1    -0.230590717459E+04    0.16656E-03   -0.52150E-02  4392   0.231E-01    0.658E-02
RMM:   2    -0.230590746296E+04   -0.28837E-03   -0.31493E-03  5653   0.386E-02    0.375E-02
RMM:   3    -0.230590747549E+04   -0.12529E-04   -0.24065E-04  3559   0.158E-02    0.445E-02
RMM:   4    -0.230590746476E+04    0.10724E-04   -0.37082E-05  2859   0.468E-03    0.232E-02
RMM:   5    -0.230590745898E+04    0.57849E-05   -0.17676E-05  2842   0.392E-03
 192 F= -.23263112E+04 E0= -.23263112E+04  d E =-.357515E-03  mag=     5.0000
       N       E                     dE             d eps       ncg     rms          rms(c)
DAV:   1    -0.230590740792E+04    0.56848E-04   -0.61016E-02  4392   0.254E-01    0.676E-02
RMM:   2    -0.230590777430E+04   -0.36639E-03   -0.38389E-03  5715   0.423E-02    0.479E-02
RMM:   3    -0.230590779945E+04   -0.25146E-04   -0.31453E-04  3571   0.167E-02    0.577E-02
RMM:   4    -0.230590777889E+04    0.20556E-04   -0.43963E-05  2863   0.497E-03    0.198E-02
RMM:   5    -0.230590777459E+04    0.43077E-05   -0.15523E-05  2838   0.363E-03
 193 F= -.23263115E+04 E0= -.23263115E+04  d E =-.299919E-03  mag=     5.0000
       N       E                     dE             d eps       ncg     rms          rms(c)
DAV:   1    -0.230590641791E+04    0.13610E-02   -0.26368E-01  4392   0.527E-01    0.140E-01
RMM:   2    -0.230590799574E+04   -0.15778E-02   -0.16478E-02  5449   0.852E-02    0.104E-01
RMM:   3    -0.230590810124E+04   -0.10551E-03   -0.13566E-03  4467   0.365E-02    0.121E-01
RMM:   4    -0.230590800594E+04    0.95304E-04   -0.18366E-04  3137   0.850E-03    0.400E-02
RMM:   5    -0.230590798620E+04    0.19740E-04   -0.63859E-05  3086   0.688E-03    0.218E-02
RMM:   6    -0.230590798360E+04    0.26031E-05   -0.27845E-05  2913   0.597E-03
 194 F= -.23263117E+04 E0= -.23263117E+04  d E =-.476568E-03  mag=     5.0000
       N       E                     dE             d eps       ncg     rms          rms(c)
DAV:   1    -0.230590764563E+04    0.34057E-03   -0.11383E-01  4392   0.346E-01    0.936E-02
RMM:   2    -0.230590840152E+04   -0.75589E-03   -0.76600E-03  5743   0.594E-02    0.972E-02
RMM:   3    -0.230590842046E+04   -0.18943E-04   -0.66403E-04  3948   0.218E-02    0.830E-02
RMM:   4    -0.230590837405E+04    0.46413E-04   -0.83386E-05  2904   0.637E-03    0.251E-02
RMM:   5    -0.230590836526E+04    0.87914E-05   -0.32771E-05  2894   0.511E-03
 195 F= -.23263121E+04 E0= -.23263121E+04  d E =-.360682E-03  mag=     5.0000
       N       E                     dE             d eps       ncg     rms          rms(c)
DAV:   1    -0.230590818741E+04    0.18664E-03   -0.34363E-02  4528   0.190E-01    0.508E-02
RMM:   2    -0.230590840699E+04   -0.21958E-03   -0.23200E-03  5839   0.339E-02    0.364E-02
RMM:   3    -0.230590842095E+04   -0.13960E-04   -0.19437E-04  3093   0.117E-02    0.426E-02
RMM:   4    -0.230590841042E+04    0.10534E-04   -0.26971E-05  2851   0.401E-03    0.160E-02
RMM:   5    -0.230590840780E+04    0.26163E-05   -0.99972E-06  2822   0.290E-03
 196 F= -.23263121E+04 E0= -.23263121E+04  d E =-.391564E-03  mag=     5.0000
       N       E                     dE             d eps       ncg     rms          rms(c)
DAV:   1    -0.230590799297E+04    0.41745E-03   -0.11527E-01  4392   0.344E-01    0.956E-02
RMM:   2    -0.230590878462E+04   -0.79165E-03   -0.82740E-03  5519   0.583E-02    0.875E-02
RMM:   3    -0.230590881938E+04   -0.34759E-04   -0.69893E-04  3880   0.233E-02    0.858E-02
RMM:   4    -0.230590876973E+04    0.49649E-04   -0.95819E-05  2889   0.648E-03    0.269E-02
RMM:   5    -0.230590875960E+04    0.10129E-04   -0.35843E-05  2904   0.506E-03    0.128E-02
RMM:   6    -0.230590875896E+04    0.63614E-06   -0.11572E-05  2836   0.437E-03
 197 F= -.23263124E+04 E0= -.23263124E+04  d E =-.282907E-03  mag=     5.0000
       N       E                     dE             d eps       ncg     rms          rms(c)
DAV:   1    -0.230590875796E+04    0.16392E-05   -0.39080E-04  5048   0.204E-02    0.719E-03
RMM:   2    -0.230590876181E+04   -0.38510E-05   -0.33772E-05  2803   0.459E-03
 198 F= -.23263124E+04 E0= -.23263124E+04  d E =-.281622E-03  mag=     5.0000
       N       E                     dE             d eps       ncg     rms          rms(c)
DAV:   1    -0.230590847339E+04    0.28457E-03   -0.81942E-02  4424   0.294E-01    0.862E-02
RMM:   2    -0.230590914938E+04   -0.67599E-03   -0.65045E-03  5725   0.523E-02    0.113E-01
RMM:   3    -0.230590912815E+04    0.21230E-04   -0.62111E-04  3810   0.212E-02    0.648E-02
RMM:   4    -0.230590910054E+04    0.27605E-04   -0.70828E-05  2889   0.586E-03    0.216E-02
RMM:   5    -0.230590909283E+04    0.77117E-05   -0.25336E-05  2864   0.466E-03
 199 F= -.23263127E+04 E0= -.23263127E+04  d E =-.305236E-03  mag=     5.0000
       N       E                     dE             d eps       ncg     rms          rms(c)
DAV:   1    -0.230590862584E+04    0.47471E-03   -0.69104E-02  4392   0.270E-01    0.780E-02
RMM:   2    -0.230590917503E+04   -0.54920E-03   -0.55195E-03  5965   0.494E-02    0.826E-02
RMM:   3    -0.230590918805E+04   -0.13019E-04   -0.48486E-04  3542   0.170E-02    0.668E-02
RMM:   4    -0.230590915882E+04    0.29238E-04   -0.59972E-05  2875   0.557E-03    0.205E-02
RMM:   5    -0.230590915248E+04    0.63366E-05   -0.21487E-05  2857   0.424E-03
 200 F= -.23263127E+04 E0= -.23263127E+04  d E =-.340596E-03  mag=     5.0000
       N       E                     dE             d eps       ncg     rms          rms(c)
DAV:   1    -0.230590859530E+04    0.56352E-03   -0.10775E-01  4424   0.334E-01    0.943E-02
RMM:   2    -0.230590952290E+04   -0.92760E-03   -0.91641E-03  5855   0.601E-02    0.108E-01
RMM:   3    -0.230590953713E+04   -0.14236E-04   -0.81345E-04  3828   0.227E-02    0.761E-02
RMM:   4    -0.230590950231E+04    0.34818E-04   -0.95418E-05  2911   0.646E-03    0.246E-02
RMM:   5    -0.230590949380E+04    0.85184E-05   -0.27347E-05  2862   0.469E-03
 201 F= -.23263130E+04 E0= -.23263130E+04  d E =-.300477E-03  mag=     5.0000
