       N       E                     dE             d eps       ncg     rms          rms(c)
DAV:   1     0.127248379493E+05    0.12725E+05   -0.82428E+05  4408   0.143E+03
DAV:   2    -0.104994608088E+04   -0.13775E+05   -0.13200E+05  5296   0.330E+02
DAV:   3    -0.246126193672E+04   -0.14113E+04   -0.13983E+04  5336   0.111E+02
DAV:   4    -0.250699715785E+04   -0.45735E+02   -0.45517E+02  6632   0.298E+01
DAV:   5    -0.250787102410E+04   -0.87387E+00   -0.87239E+00  5520   0.324E+00    0.170E+02
RMM:   6    -0.147572596084E+04    0.10321E+04   -0.19293E+03  4378   0.385E+01    0.724E+01
RMM:   7    -0.164473088007E+04   -0.16900E+03   -0.28391E+02  5018   0.140E+01    0.524E+01
RMM:   8    -0.169939486654E+04   -0.54664E+02   -0.81005E+01  5160   0.772E+00    0.430E+01
RMM:   9    -0.176856045898E+04   -0.69166E+02   -0.65614E+01  4851   0.747E+00    0.341E+01
RMM:  10    -0.189560550862E+04   -0.12705E+03   -0.54796E+01  5094   0.702E+00    0.208E+01
RMM:  11    -0.201570955821E+04   -0.12010E+03   -0.54246E+01  4903   0.604E+00    0.160E+01
RMM:  12    -0.209930130647E+04   -0.83592E+02   -0.39059E+01  4698   0.472E+00    0.121E+01
RMM:  13    -0.222461243640E+04   -0.12531E+03   -0.10299E+02  4377   0.735E+00    0.855E+00
RMM:  14    -0.227376689915E+04   -0.49154E+02   -0.43010E+01  4480   0.503E+00    0.475E+00
RMM:  15    -0.229320283226E+04   -0.19436E+02   -0.20605E+01  4682   0.343E+00    0.235E+00
RMM:  16    -0.229810893909E+04   -0.49061E+01   -0.63545E+00  4713   0.182E+00    0.522E+00
RMM:  17    -0.229828195764E+04   -0.17302E+00   -0.63611E-01  5606   0.567E-01    0.462E+00
RMM:  18    -0.229856350645E+04   -0.28155E+00   -0.19081E-01  4915   0.228E-01    0.428E+00
RMM:  19    -0.229989741074E+04   -0.13339E+01   -0.84632E-01  4395   0.506E-01    0.273E+00
RMM:  20    -0.230039549926E+04   -0.49809E+00   -0.32513E-01  4633   0.370E-01    0.158E+00
RMM:  21    -0.230054057061E+04   -0.14507E+00   -0.12871E-01  4808   0.215E-01    0.955E-01
RMM:  22    -0.230058831211E+04   -0.47742E-01   -0.57042E-02  5092   0.156E-01    0.523E-01
RMM:  23    -0.230062157539E+04   -0.33263E-01   -0.93124E-03  4754   0.842E-02    0.204E-01
RMM:  24    -0.230065171410E+04   -0.30139E-01   -0.51485E-03  4435   0.506E-02    0.218E-01
RMM:  25    -0.230067609630E+04   -0.24382E-01   -0.39228E-03  4395   0.459E-02    0.104E-01
RMM:  26    -0.230069337996E+04   -0.17284E-01   -0.31535E-03  4436   0.420E-02    0.928E-02
RMM:  27    -0.230070143637E+04   -0.80564E-02   -0.19056E-03  4746   0.314E-02    0.422E-02
RMM:  28    -0.230070563038E+04   -0.41940E-02   -0.11340E-03  4238   0.224E-02    0.334E-02
RMM:  29    -0.230070658507E+04   -0.95469E-03   -0.25272E-04  4055   0.130E-02    0.173E-02
RMM:  30    -0.230070703330E+04   -0.44824E-03   -0.10387E-04  3672   0.714E-03    0.673E-03
RMM:  31    -0.230070721307E+04   -0.17977E-03   -0.33300E-05  3184   0.541E-03    0.401E-03
RMM:  32    -0.230070728191E+04   -0.68837E-04   -0.14274E-05  2926   0.338E-03    0.241E-03
RMM:  33    -0.230070730632E+04   -0.24411E-04   -0.61612E-06  2717   0.279E-03    0.149E-03
RMM:  34    -0.230070731373E+04   -0.74105E-05   -0.32133E-06  2431   0.209E-03
   1 F= -.23210322E+04 E0= -.23210322E+04  d E =-.232103E+04  mag=     3.9999
       N       E                     dE             d eps       ncg     rms          rms(c)
DAV:   1    -0.230073855216E+04   -0.31246E-01   -0.17320E+01  4864   0.280E+00    0.135E+00
RMM:   2    -0.230094367889E+04   -0.20513E+00   -0.18891E+00  6169   0.665E-01    0.251E+00
RMM:   3    -0.230092020340E+04    0.23475E-01   -0.20485E-01  5992   0.195E-01    0.106E+00
RMM:   4    -0.230091118673E+04    0.90167E-02   -0.31334E-02  5143   0.640E-02    0.503E-01
RMM:   5    -0.230090789655E+04    0.32902E-02   -0.16653E-02  5574   0.638E-02    0.213E-01
RMM:   6    -0.230090791030E+04   -0.13755E-04   -0.15945E-03  5200   0.248E-02    0.809E-02
RMM:   7    -0.230090782721E+04    0.83092E-04   -0.35182E-04  3939   0.114E-02    0.413E-02
RMM:   8    -0.230090779924E+04    0.27971E-04   -0.13874E-04  3490   0.758E-03    0.161E-02
RMM:   9    -0.230090780282E+04   -0.35859E-05   -0.24797E-05  2966   0.504E-03
   2 F= -.23212319E+04 E0= -.23212319E+04  d E =-.199650E+00  mag=     4.0000
       N       E                     dE             d eps       ncg     rms          rms(c)
DAV:   1    -0.230090789556E+04   -0.96324E-04   -0.52651E-02  5176   0.153E-01    0.743E-02
RMM:   2    -0.230090854806E+04   -0.65250E-03   -0.57010E-03  6000   0.358E-02    0.146E-01
RMM:   3    -0.230090845260E+04    0.95460E-04   -0.59657E-04  3092   0.119E-02    0.506E-02
RMM:   4    -0.230090843710E+04    0.15503E-04   -0.96741E-05  3002   0.433E-03    0.279E-02
RMM:   5    -0.230090843488E+04    0.22132E-05   -0.56183E-05  3225   0.405E-03
   3 F= -.23212325E+04 E0= -.23212325E+04  d E =-.200322E+00  mag=     4.0000
       N       E                     dE             d eps       ncg     rms          rms(c)
DAV:   1    -0.230090452758E+04    0.39095E-02   -0.17669E+00  4576   0.127E+00    0.567E-01
RMM:   2    -0.230094102991E+04   -0.36502E-01   -0.29291E-01  5720   0.260E-01    0.121E+00
RMM:   3    -0.230093425421E+04    0.67757E-02   -0.32843E-02  5326   0.107E-01    0.402E-01
RMM:   4    -0.230093295259E+04    0.13016E-02   -0.42084E-03  4891   0.266E-02    0.136E-01
RMM:   5    -0.230093253387E+04    0.41872E-03   -0.10605E-03  5251   0.212E-02    0.868E-02
RMM:   6    -0.230093247319E+04    0.60679E-04   -0.33750E-04  4714   0.130E-02    0.264E-02
RMM:   7    -0.230093246518E+04    0.80099E-05   -0.43494E-05  3011   0.592E-03
   4 F= -.23212566E+04 E0= -.23212566E+04  d E =-.240871E-01  mag=     4.0000
       N       E                     dE             d eps       ncg     rms          rms(c)
DAV:   1    -0.230086502291E+04    0.67450E-01   -0.51174E+00  4480   0.216E+00    0.961E-01
RMM:   2    -0.230097028812E+04   -0.10527E+00   -0.85548E-01  5799   0.450E-01    0.204E+00
RMM:   3    -0.230095184934E+04    0.18439E-01   -0.96054E-02  5480   0.176E-01    0.709E-01
RMM:   4    -0.230094791035E+04    0.39390E-02   -0.12583E-02  5094   0.457E-02    0.230E-01
RMM:   5    -0.230094673421E+04    0.11761E-02   -0.31285E-03  5438   0.357E-02    0.175E-01
RMM:   6    -0.230094649460E+04    0.23960E-03   -0.10538E-03  5024   0.221E-02    0.453E-02
RMM:   7    -0.230094647063E+04    0.23973E-04   -0.14233E-04  3641   0.964E-03    0.224E-02
RMM:   8    -0.230094646579E+04    0.48387E-05   -0.54096E-05  3237   0.565E-03
   5 F= -.23212707E+04 E0= -.23212707E+04  d E =-.381922E-01  mag=     4.0000
       N       E                     dE             d eps       ncg     rms          rms(c)
DAV:   1    -0.230095120506E+04   -0.47344E-02   -0.20115E-01  5184   0.339E-01    0.170E-01
RMM:   2    -0.230095761694E+04   -0.64119E-02   -0.46521E-02  6235   0.834E-02    0.553E-01
RMM:   3    -0.230095595876E+04    0.16582E-02   -0.51227E-03  4153   0.312E-02    0.816E-02
RMM:   4    -0.230095594819E+04    0.10571E-04   -0.74934E-04  3175   0.784E-03    0.552E-02
RMM:   5    -0.230095592204E+04    0.26144E-04   -0.76288E-05  3049   0.461E-03    0.679E-02
RMM:   6    -0.230095589570E+04    0.26348E-04   -0.10096E-04  3225   0.540E-03    0.101E-02
RMM:   7    -0.230095589872E+04   -0.30235E-05   -0.11829E-05  2816   0.318E-03
   6 F= -.23212802E+04 E0= -.23212802E+04  d E =-.943027E-02  mag=     4.0000
       N       E                     dE             d eps       ncg     rms          rms(c)
DAV:   1    -0.230094003389E+04    0.15862E-01   -0.18115E+00  4464   0.102E+00    0.506E-01
RMM:   2    -0.230099679918E+04   -0.56765E-01   -0.41891E-01  6168   0.249E-01    0.163E+00
RMM:   3    -0.230098254297E+04    0.14256E-01   -0.46711E-02  5637   0.915E-02    0.249E-01
RMM:   4    -0.230098235587E+04    0.18711E-03   -0.65520E-03  4529   0.209E-02    0.164E-01
RMM:   5    -0.230098210047E+04    0.25540E-03   -0.67626E-04  4223   0.117E-02    0.195E-01
RMM:   6    -0.230098181845E+04    0.28202E-03   -0.90437E-04  4625   0.142E-02    0.328E-02
RMM:   7    -0.230098181886E+04   -0.41025E-06   -0.83610E-05  2967   0.664E-03
   7 F= -.23213061E+04 E0= -.23213061E+04  d E =-.353490E-01  mag=     4.0000
       N       E                     dE             d eps       ncg     rms          rms(c)
DAV:   1    -0.230085252700E+04    0.12929E+00   -0.72584E+00  4428   0.203E+00    0.101E+00
RMM:   2    -0.230107827726E+04   -0.22575E+00   -0.17097E+00  6233   0.509E-01    0.314E+00
RMM:   3    -0.230102425385E+04    0.54023E-01   -0.18187E-01  5855   0.178E-01    0.513E-01
RMM:   4    -0.230102366984E+04    0.58402E-03   -0.26899E-02  5321   0.420E-02    0.320E-01
RMM:   5    -0.230102254340E+04    0.11264E-02   -0.26085E-03  4883   0.220E-02    0.377E-01
RMM:   6    -0.230102141228E+04    0.11311E-02   -0.37970E-03  5213   0.272E-02    0.752E-02
RMM:   7    -0.230102140829E+04    0.39924E-05   -0.35542E-04  3650   0.121E-02    0.500E-02
RMM:   8    -0.230102142272E+04   -0.14435E-04   -0.13538E-04  3161   0.595E-03    0.145E-02
RMM:   9    -0.230102145370E+04   -0.30977E-04   -0.29644E-05  2880   0.396E-03    0.798E-03
RMM:  10    -0.230102147257E+04   -0.18871E-04   -0.70692E-06  2815   0.289E-03    0.502E-03
RMM:  11    -0.230102148957E+04   -0.16999E-04   -0.53576E-06  2777   0.250E-03    0.393E-03
RMM:  12    -0.230102149954E+04   -0.99700E-05   -0.38826E-06  2683   0.233E-03
   8 F= -.23213458E+04 E0= -.23213458E+04  d E =-.750562E-01  mag=     4.0000
       N       E                     dE             d eps       ncg     rms          rms(c)
DAV:   1    -0.230033897485E+04    0.68251E+00   -0.29051E+01  4392   0.407E+00    0.196E+00
RMM:   2    -0.230121247727E+04   -0.87350E+00   -0.70581E+00  6297   0.106E+00    0.546E+00
RMM:   3    -0.230104980113E+04    0.16268E+00   -0.71205E-01  5961   0.347E-01    0.115E+00
RMM:   4    -0.230104406065E+04    0.57405E-02   -0.99357E-02  5516   0.842E-02    0.619E-01
RMM:   5    -0.230103943885E+04    0.46218E-02   -0.94972E-03  5221   0.415E-02    0.694E-01
RMM:   6    -0.230103498691E+04    0.44519E-02   -0.14105E-02  5336   0.531E-02    0.177E-01
RMM:   7    -0.230103501720E+04   -0.30291E-04   -0.16551E-03  4816   0.246E-02    0.118E-01
RMM:   8    -0.230103501163E+04    0.55666E-05   -0.44430E-04  3862   0.105E-02    0.438E-02
RMM:   9    -0.230103508463E+04   -0.72998E-04   -0.11663E-04  3215   0.651E-03    0.179E-02
RMM:  10    -0.230103514668E+04   -0.62054E-04   -0.27113E-05  2927   0.457E-03    0.102E-02
RMM:  11    -0.230103518640E+04   -0.39716E-04   -0.11137E-05  2817   0.385E-03    0.828E-03
RMM:  12    -0.230103522355E+04   -0.37146E-04   -0.11824E-05  2825   0.345E-03    0.438E-03
RMM:  13    -0.230103523989E+04   -0.16342E-04   -0.66310E-06  2790   0.327E-03    0.333E-03
RMM:  14    -0.230103524721E+04   -0.73239E-05   -0.42595E-06  2671   0.242E-03
   9 F= -.23213597E+04 E0= -.23213597E+04  d E =-.889582E-01  mag=     4.0000
       N       E                     dE             d eps       ncg     rms          rms(c)
DAV:   1    -0.230093413898E+04    0.10110E+00   -0.47881E+00  4428   0.165E+00    0.823E-01
RMM:   2    -0.230108089177E+04   -0.14675E+00   -0.10882E+00  6080   0.402E-01    0.257E+00
RMM:   3    -0.230104384575E+04    0.37046E-01   -0.12389E-01  5423   0.172E-01    0.381E-01
RMM:   4    -0.230104349013E+04    0.35562E-03   -0.15868E-02  4999   0.330E-02    0.245E-01
RMM:   5    -0.230104287997E+04    0.61015E-03   -0.17741E-03  4706   0.197E-02    0.308E-01
RMM:   6    -0.230104217789E+04    0.70208E-03   -0.23091E-03  4985   0.216E-02    0.597E-02
RMM:   7    -0.230104215647E+04    0.21423E-04   -0.18383E-04  3154   0.909E-03    0.315E-02
RMM:   8    -0.230104214928E+04    0.71903E-05   -0.40569E-05  2890   0.442E-03
  10 F= -.23213665E+04 E0= -.23213665E+04  d E =-.957842E-01  mag=     4.0000
       N       E                     dE             d eps       ncg     rms          rms(c)
DAV:   1    -0.230105666975E+04   -0.14513E-01   -0.69889E-01  4464   0.913E-01    0.413E-01
RMM:   2    -0.230106077679E+04   -0.41070E-02   -0.46599E-02  5560   0.162E-01    0.264E-01
RMM:   3    -0.230106313981E+04   -0.23630E-02   -0.59964E-03  5307   0.631E-02    0.644E-01
RMM:   4    -0.230106024680E+04    0.28930E-02   -0.15739E-03  5247   0.229E-02    0.639E-02
RMM:   5    -0.230106017393E+04    0.72862E-04   -0.37016E-04  4524   0.147E-02    0.336E-02
RMM:   6    -0.230106016272E+04    0.11212E-04   -0.84065E-05  4091   0.870E-03    0.121E-02
RMM:   7    -0.230106016041E+04    0.23138E-05   -0.15640E-05  2868   0.580E-03
  11 F= -.23213845E+04 E0= -.23213845E+04  d E =-.179559E-01  mag=     4.0000
       N       E                     dE             d eps       ncg     rms          rms(c)
DAV:   1    -0.230106193291E+04   -0.17702E-02   -0.19934E+00  4504   0.154E+00    0.698E-01
RMM:   2    -0.230107385566E+04   -0.11923E-01   -0.13355E-01  5444   0.272E-01    0.480E-01
RMM:   3    -0.230108033034E+04   -0.64747E-02   -0.17368E-02  5218   0.103E-01    0.108E+00
RMM:   4    -0.230107203253E+04    0.82978E-02   -0.45409E-03  5371   0.390E-02    0.108E-01
RMM:   5    -0.230107179233E+04    0.24020E-03   -0.10673E-03  4929   0.241E-02    0.571E-02
RMM:   6    -0.230107173983E+04    0.52500E-04   -0.24742E-04  4595   0.136E-02    0.205E-02
RMM:   7    -0.230107172392E+04    0.15909E-04   -0.41815E-05  3337   0.775E-03    0.122E-02
RMM:   8    -0.230107171218E+04    0.11744E-04   -0.16305E-05  2857   0.427E-03    0.629E-03
RMM:   9    -0.230107170802E+04    0.41549E-05   -0.82751E-06  2811   0.345E-03
  12 F= -.23213959E+04 E0= -.23213959E+04  d E =-.293924E-01  mag=     4.0000
       N       E                     dE             d eps       ncg     rms          rms(c)
DAV:   1    -0.230107888841E+04   -0.71762E-02   -0.44675E-01  4640   0.610E-01    0.238E-01
RMM:   2    -0.230108700624E+04   -0.81178E-02   -0.79066E-02  5869   0.129E-01    0.392E-01
RMM:   3    -0.230108693144E+04    0.74802E-04   -0.78692E-03  5249   0.462E-02    0.250E-01
RMM:   4    -0.230108656847E+04    0.36297E-03   -0.98915E-04  4325   0.134E-02    0.679E-02
RMM:   5    -0.230108650434E+04    0.64127E-04   -0.15733E-04  3702   0.886E-03    0.386E-02
RMM:   6    -0.230108648906E+04    0.15281E-04   -0.85046E-05  3747   0.811E-03    0.145E-02
RMM:   7    -0.230108648713E+04    0.19319E-05   -0.13126E-05  2837   0.564E-03
  13 F= -.23214107E+04 E0= -.23214107E+04  d E =-.147805E-01  mag=     4.0000
       N       E                     dE             d eps       ncg     rms          rms(c)
DAV:   1    -0.230103913029E+04    0.47359E-01   -0.40168E+00  4428   0.183E+00    0.726E-01
RMM:   2    -0.230111447701E+04   -0.75347E-01   -0.72620E-01  5760   0.388E-01    0.124E+00
RMM:   3    -0.230111145691E+04    0.30201E-02   -0.72976E-02  5513   0.140E-01    0.688E-01
RMM:   4    -0.230110870416E+04    0.27528E-02   -0.89422E-03  5116   0.391E-02    0.206E-01
RMM:   5    -0.230110806932E+04    0.63484E-03   -0.14505E-03  5154   0.252E-02    0.117E-01
RMM:   6    -0.230110789530E+04    0.17402E-03   -0.73379E-04  4625   0.190E-02    0.470E-02
RMM:   7    -0.230110786759E+04    0.27711E-04   -0.11951E-04  4102   0.113E-02    0.245E-02
RMM:   8    -0.230110784796E+04    0.19627E-04   -0.49434E-05  3186   0.514E-03    0.132E-02
RMM:   9    -0.230110784186E+04    0.61024E-05   -0.18358E-05  2866   0.452E-03
  14 F= -.23214321E+04 E0= -.23214321E+04  d E =-.361458E-01  mag=     4.0000
       N       E                     dE             d eps       ncg     rms          rms(c)
DAV:   1    -0.230111366897E+04   -0.58210E-02   -0.68347E-01  4464   0.750E-01    0.333E-01
RMM:   2    -0.230112498111E+04   -0.11312E-01   -0.95520E-02  5863   0.157E-01    0.658E-01
RMM:   3    -0.230112269912E+04    0.22820E-02   -0.97158E-03  5625   0.562E-02    0.229E-01
RMM:   4    -0.230112240475E+04    0.29437E-03   -0.13376E-03  4442   0.166E-02    0.760E-02
RMM:   5    -0.230112235628E+04    0.48468E-04   -0.22020E-04  4323   0.119E-02    0.527E-02
RMM:   6    -0.230112234224E+04    0.14039E-04   -0.94940E-05  4029   0.835E-03    0.122E-02
RMM:   7    -0.230112234405E+04   -0.18087E-05   -0.15715E-05  2853   0.596E-03
  15 F= -.23214467E+04 E0= -.23214467E+04  d E =-.145913E-01  mag=     4.0000
       N       E                     dE             d eps       ncg     rms          rms(c)
DAV:   1    -0.230108208178E+04    0.40260E-01   -0.43293E+00  4392   0.189E+00    0.847E-01
RMM:   2    -0.230115335545E+04   -0.71274E-01   -0.61243E-01  5828   0.394E-01    0.160E+00
RMM:   3    -0.230113946880E+04    0.13887E-01   -0.62247E-02  5714   0.137E-01    0.600E-01
RMM:   4    -0.230113745828E+04    0.20105E-02   -0.90956E-03  4857   0.418E-02    0.189E-01
RMM:   5    -0.230113716622E+04    0.29206E-03   -0.13217E-03  5228   0.279E-02    0.145E-01
RMM:   6    -0.230113703245E+04    0.13377E-03   -0.62052E-04  4989   0.180E-02    0.301E-02
RMM:   7    -0.230113703907E+04   -0.66219E-05   -0.92156E-05  3433   0.101E-02
  16 F= -.23214616E+04 E0= -.23214616E+04  d E =-.295233E-01  mag=     4.0000
       N       E                     dE             d eps       ncg     rms          rms(c)
DAV:   1    -0.230113921415E+04   -0.21817E-02   -0.46331E-01  4504   0.580E-01    0.258E-01
RMM:   2    -0.230114757167E+04   -0.83575E-02   -0.75195E-02  5974   0.131E-01    0.483E-01
RMM:   3    -0.230114654422E+04    0.10275E-02   -0.74375E-03  5618   0.449E-02    0.195E-01
RMM:   4    -0.230114635932E+04    0.18490E-03   -0.11085E-03  4081   0.131E-02    0.616E-02
RMM:   5    -0.230114633217E+04    0.27144E-04   -0.11970E-04  3690   0.858E-03    0.460E-02
RMM:   6    -0.230114632052E+04    0.11657E-04   -0.69933E-05  3659   0.764E-03    0.115E-02
RMM:   7    -0.230114632176E+04   -0.12471E-05   -0.14151E-05  2842   0.516E-03
  17 F= -.23214709E+04 E0= -.23214709E+04  d E =-.935505E-02  mag=     4.0000
       N       E                     dE             d eps       ncg     rms          rms(c)
DAV:   1    -0.230110528837E+04    0.41032E-01   -0.33546E+00  4392   0.156E+00    0.699E-01
RMM:   2    -0.230116612399E+04   -0.60836E-01   -0.54433E-01  5981   0.347E-01    0.132E+00
RMM:   3    -0.230115820660E+04    0.79174E-02   -0.57081E-02  5861   0.121E-01    0.511E-01
RMM:   4    -0.230115679439E+04    0.14122E-02   -0.78690E-03  4959   0.344E-02    0.163E-01
RMM:   5    -0.230115657556E+04    0.21883E-03   -0.83266E-04  5133   0.211E-02    0.123E-01
RMM:   6    -0.230115646579E+04    0.10977E-03   -0.49537E-04  4865   0.156E-02    0.301E-02
RMM:   7    -0.230115647001E+04   -0.42179E-05   -0.79122E-05  3308   0.908E-03
  18 F= -.23214813E+04 E0= -.23214813E+04  d E =-.197209E-01  mag=     4.0000
       N       E                     dE             d eps       ncg     rms          rms(c)
DAV:   1    -0.230115966991E+04   -0.32041E-02   -0.24587E-01  4608   0.496E-01    0.202E-01
RMM:   2    -0.230116311358E+04   -0.34437E-02   -0.35336E-02  5811   0.100E-01    0.191E-01
RMM:   3    -0.230116360917E+04   -0.49560E-03   -0.37686E-03  5211   0.381E-02    0.260E-01
RMM:   4    -0.230116311039E+04    0.49879E-03   -0.52991E-04  4177   0.123E-02    0.459E-02
RMM:   5    -0.230116309396E+04    0.16431E-04   -0.13834E-04  3529   0.847E-03    0.253E-02
RMM:   6    -0.230116309061E+04    0.33468E-05   -0.35043E-05  3083   0.680E-03
  19 F= -.23214879E+04 E0= -.23214879E+04  d E =-.659228E-02  mag=     4.0000
       N       E                     dE             d eps       ncg     rms          rms(c)
DAV:   1    -0.230115168656E+04    0.11407E-01   -0.12428E+00  4396   0.111E+00    0.455E-01
RMM:   2    -0.230116935094E+04   -0.17664E-01   -0.17832E-01  5816   0.224E-01    0.470E-01
RMM:   3    -0.230117152772E+04   -0.21768E-02   -0.19954E-02  5635   0.851E-02    0.576E-01
RMM:   4    -0.230116903054E+04    0.24972E-02   -0.25440E-03  5190   0.271E-02    0.102E-01
RMM:   5    -0.230116893949E+04    0.91055E-04   -0.73295E-04  4814   0.177E-02    0.578E-02
RMM:   6    -0.230116890936E+04    0.30130E-04   -0.16115E-04  4309   0.113E-02    0.206E-02
RMM:   7    -0.230116890723E+04    0.21269E-05   -0.24929E-05  2942   0.678E-03
  20 F= -.23214936E+04 E0= -.23214936E+04  d E =-.123414E-01  mag=     4.0000
       N       E                     dE             d eps       ncg     rms          rms(c)
DAV:   1    -0.230116926341E+04   -0.35405E-03   -0.35770E-01  4488   0.595E-01    0.230E-01
RMM:   2    -0.230117371553E+04   -0.44521E-02   -0.47665E-02  5773   0.120E-01    0.155E-01
RMM:   3    -0.230117449807E+04   -0.78253E-03   -0.50780E-03  5248   0.483E-02    0.277E-01
RMM:   4    -0.230117390967E+04    0.58840E-03   -0.65908E-04  4252   0.136E-02    0.613E-02
RMM:   5    -0.230117386994E+04    0.39722E-04   -0.20942E-04  4098   0.102E-02    0.303E-02
RMM:   6    -0.230117386132E+04    0.86283E-05   -0.48139E-05  3324   0.769E-03
  21 F= -.23214986E+04 E0= -.23214986E+04  d E =-.494509E-02  mag=     4.0000
       N       E                     dE             d eps       ncg     rms          rms(c)
DAV:   1    -0.230117247860E+04    0.13913E-02   -0.17883E-01  4608   0.422E-01    0.163E-01
RMM:   2    -0.230117472308E+04   -0.22445E-02   -0.24049E-02  6011   0.869E-02    0.111E-01
RMM:   3    -0.230117511601E+04   -0.39293E-03   -0.25770E-03  5163   0.341E-02    0.197E-01
RMM:   4    -0.230117481551E+04    0.30051E-03   -0.32825E-04  3328   0.992E-03    0.441E-02
RMM:   5    -0.230117479263E+04    0.22875E-04   -0.11207E-04  3755   0.768E-03    0.220E-02
RMM:   6    -0.230117478593E+04    0.66990E-05   -0.24387E-05  2885   0.643E-03
  22 F= -.23214995E+04 E0= -.23214995E+04  d E =-.586242E-02  mag=     4.0000
       N       E                     dE             d eps       ncg     rms          rms(c)
DAV:   1    -0.230117464205E+04    0.15058E-03   -0.25335E-01  4432   0.492E-01    0.176E-01
RMM:   2    -0.230117775831E+04   -0.31163E-02   -0.33626E-02  5959   0.101E-01    0.891E-02
RMM:   3    -0.230117801333E+04   -0.25502E-03   -0.31521E-03  4904   0.381E-02    0.904E-02
RMM:   4    -0.230117803058E+04   -0.17250E-04   -0.40278E-04  3170   0.957E-03    0.848E-02
RMM:   5    -0.230117797388E+04    0.56697E-04   -0.11465E-04  3541   0.807E-03    0.398E-02
RMM:   6    -0.230117796235E+04    0.11529E-04   -0.35440E-05  2990   0.647E-03    0.875E-03
RMM:   7    -0.230117796249E+04   -0.13429E-06   -0.79604E-06  2809   0.432E-03
  23 F= -.23215029E+04 E0= -.23215029E+04  d E =-.339374E-02  mag=     4.0000
       N       E                     dE             d eps       ncg     rms          rms(c)
DAV:   1    -0.230117433669E+04    0.36257E-02   -0.36273E-01  4432   0.589E-01    0.210E-01
RMM:   2    -0.230117882527E+04   -0.44886E-02   -0.48305E-02  5909   0.121E-01    0.108E-01
RMM:   3    -0.230117920856E+04   -0.38329E-03   -0.45312E-03  4942   0.446E-02    0.121E-01
RMM:   4    -0.230117920444E+04    0.41161E-05   -0.57376E-04  3427   0.113E-02    0.949E-02
RMM:   5    -0.230117913067E+04    0.73770E-04   -0.15901E-04  3975   0.951E-03    0.467E-02
RMM:   6    -0.230117911397E+04    0.16700E-04   -0.49326E-05  3114   0.725E-03    0.112E-02
RMM:   7    -0.230117911366E+04    0.31255E-06   -0.10197E-05  2820   0.486E-03
  24 F= -.23215043E+04 E0= -.23215043E+04  d E =-.480427E-02  mag=     4.0000
       N       E                     dE             d eps       ncg     rms          rms(c)
DAV:   1    -0.230117721553E+04    0.18984E-02   -0.27915E-01  4432   0.486E-01    0.186E-01
RMM:   2    -0.230118219858E+04   -0.49830E-02   -0.49913E-02  6038   0.110E-01    0.221E-01
RMM:   3    -0.230118256684E+04   -0.36826E-03   -0.50021E-03  4816   0.384E-02    0.206E-01
RMM:   4    -0.230118229820E+04    0.26864E-03   -0.57986E-04  3322   0.108E-02    0.533E-02
RMM:   5    -0.230118227054E+04    0.27657E-04   -0.93512E-05  3056   0.675E-03    0.309E-02
RMM:   6    -0.230118226433E+04    0.62062E-05   -0.40094E-05  2958   0.610E-03
  25 F= -.23215077E+04 E0= -.23215077E+04  d E =-.339179E-02  mag=     4.0000
       N       E                     dE             d eps       ncg     rms          rms(c)
DAV:   1    -0.230114101878E+04    0.41252E-01   -0.25117E+00  4392   0.145E+00    0.557E-01
RMM:   2    -0.230118548675E+04   -0.44468E-01   -0.44828E-01  5901   0.324E-01    0.637E-01
RMM:   3    -0.230118929742E+04   -0.38107E-02   -0.45024E-02  5576   0.109E-01    0.638E-01
RMM:   4    -0.230118671245E+04    0.25850E-02   -0.52625E-03  5421   0.306E-02    0.162E-01
RMM:   5    -0.230118646082E+04    0.25164E-03   -0.92641E-04  4839   0.168E-02    0.941E-02
RMM:   6    -0.230118638327E+04    0.77543E-04   -0.36975E-04  4684   0.132E-02    0.512E-02
RMM:   7    -0.230118637020E+04    0.13076E-04   -0.45617E-05  2968   0.840E-03    0.126E-02
RMM:   8    -0.230118637273E+04   -0.25355E-05   -0.12698E-05  2858   0.351E-03
  26 F= -.23215125E+04 E0= -.23215125E+04  d E =-.822681E-02  mag=     4.0000
       N       E                     dE             d eps       ncg     rms          rms(c)
DAV:   1    -0.230118661385E+04   -0.24366E-03   -0.93339E-02  4784   0.260E-01    0.108E-01
RMM:   2    -0.230118859363E+04   -0.19798E-02   -0.18662E-02  6218   0.624E-02    0.181E-01
RMM:   3    -0.230118855573E+04    0.37900E-04   -0.18764E-03  3446   0.208E-02    0.868E-02
RMM:   4    -0.230118852086E+04    0.34873E-04   -0.21160E-04  2948   0.625E-03    0.296E-02
RMM:   5    -0.230118851175E+04    0.91090E-05   -0.21750E-05  2856   0.342E-03
  27 F= -.23215148E+04 E0= -.23215148E+04  d E =-.226058E-02  mag=     4.0000
       N       E                     dE             d eps       ncg     rms          rms(c)
DAV:   1    -0.230117756361E+04    0.10957E-01   -0.83576E-01  4400   0.778E-01    0.318E-01
RMM:   2    -0.230119479308E+04   -0.17229E-01   -0.16646E-01  6169   0.185E-01    0.480E-01
RMM:   3    -0.230119509839E+04   -0.30532E-03   -0.16489E-02  5492   0.604E-02    0.293E-01
RMM:   4    -0.230119464097E+04    0.45742E-03   -0.18423E-03  4093   0.158E-02    0.920E-02
RMM:   5    -0.230119455162E+04    0.89351E-04   -0.20620E-04  3610   0.844E-03    0.506E-02
RMM:   6    -0.230119453521E+04    0.16409E-04   -0.11122E-04  3534   0.794E-03    0.309E-02
RMM:   7    -0.230119453174E+04    0.34698E-05   -0.20065E-05  2848   0.553E-03
  28 F= -.23215212E+04 E0= -.23215212E+04  d E =-.864741E-02  mag=     4.0000
       N       E                     dE             d eps       ncg     rms          rms(c)
DAV:   1    -0.230113661450E+04    0.57921E-01   -0.33553E+00  4392   0.156E+00    0.638E-01
RMM:   2    -0.230120619792E+04   -0.69583E-01   -0.66793E-01  6140   0.370E-01    0.100E+00
RMM:   3    -0.230120688481E+04   -0.68689E-03   -0.66696E-02  5722   0.126E-01    0.575E-01
RMM:   4    -0.230120518612E+04    0.16987E-02   -0.72805E-03  5429   0.312E-02    0.181E-01
RMM:   5    -0.230120483600E+04    0.35012E-03   -0.79250E-04  4724   0.155E-02    0.102E-01
RMM:   6    -0.230120475599E+04    0.80013E-04   -0.47142E-04  4695   0.135E-02    0.581E-02
RMM:   7    -0.230120474276E+04    0.13223E-04   -0.65997E-05  2950   0.842E-03    0.188E-02
RMM:   8    -0.230120474449E+04   -0.17243E-05   -0.15073E-05  2861   0.354E-03
  29 F= -.23215321E+04 E0= -.23215321E+04  d E =-.196047E-01  mag=     4.0000
       N       E                     dE             d eps       ncg     rms          rms(c)
DAV:   1    -0.230094099555E+04    0.26375E+00   -0.13432E+01  4392   0.314E+00    0.126E+00
RMM:   2    -0.230121631663E+04   -0.27532E+00   -0.26889E+00  6132   0.740E-01    0.187E+00
RMM:   3    -0.230122650176E+04   -0.10185E-01   -0.27625E-01  5787   0.248E-01    0.128E+00
RMM:   4    -0.230121744850E+04    0.90533E-02   -0.28333E-02  5785   0.635E-02    0.369E-01
RMM:   5    -0.230121614850E+04    0.13000E-02   -0.39991E-03  5269   0.303E-02    0.221E-01
RMM:   6    -0.230121566400E+04    0.48450E-03   -0.22067E-03  5159   0.259E-02    0.105E-01
RMM:   7    -0.230121563648E+04    0.27519E-04   -0.29512E-04  4444   0.156E-02    0.384E-02
RMM:   8    -0.230121564257E+04   -0.60894E-05   -0.79135E-05  3091   0.538E-03
  30 F= -.23215446E+04 E0= -.23215446E+04  d E =-.320429E-01  mag=     4.0000
       N       E                     dE             d eps       ncg     rms          rms(c)
DAV:   1    -0.230121529377E+04    0.34271E-03   -0.18005E-01  4952   0.349E-01    0.149E-01
RMM:   2    -0.230121936652E+04   -0.40728E-02   -0.37512E-02  6291   0.857E-02    0.284E-01
RMM:   3    -0.230121917110E+04    0.19543E-03   -0.38090E-03  3982   0.284E-02    0.105E-01
RMM:   4    -0.230121914402E+04    0.27071E-04   -0.42588E-04  3054   0.774E-03    0.428E-02
RMM:   5    -0.230121912860E+04    0.15425E-04   -0.35334E-05  2905   0.401E-03    0.270E-02
RMM:   6    -0.230121912615E+04    0.24455E-05   -0.26811E-05  2908   0.406E-03
  31 F= -.23215482E+04 E0= -.23215482E+04  d E =-.366317E-02  mag=     4.0000
       N       E                     dE             d eps       ncg     rms          rms(c)
DAV:   1    -0.230119516396E+04    0.23965E-01   -0.16164E+00  4400   0.104E+00    0.436E-01
RMM:   2    -0.230123081959E+04   -0.35656E-01   -0.33376E-01  6279   0.252E-01    0.792E-01
RMM:   3    -0.230122990062E+04    0.91896E-03   -0.33380E-02  5598   0.831E-02    0.340E-01
RMM:   4    -0.230122947636E+04    0.42427E-03   -0.36390E-03  4500   0.200E-02    0.127E-01
RMM:   5    -0.230122929564E+04    0.18071E-03   -0.31208E-04  3910   0.971E-03    0.747E-02
RMM:   6    -0.230122925404E+04    0.41605E-04   -0.22218E-04  3850   0.951E-03    0.293E-02
RMM:   7    -0.230122925559E+04   -0.15541E-05   -0.28619E-05  2888   0.578E-03
  32 F= -.23215589E+04 E0= -.23215589E+04  d E =-.143388E-01  mag=     4.0000
       N       E                     dE             d eps       ncg     rms          rms(c)
DAV:   1    -0.230111049454E+04    0.11876E+00   -0.64692E+00  4392   0.209E+00    0.867E-01
RMM:   2    -0.230125124043E+04   -0.14075E+00   -0.13388E+00  6299   0.503E-01    0.149E+00
RMM:   3    -0.230125084398E+04    0.39646E-03   -0.13696E-01  5850   0.168E-01    0.737E-01
RMM:   4    -0.230124862289E+04    0.22211E-02   -0.14290E-02  5511   0.403E-02    0.256E-01
RMM:   5    -0.230124792449E+04    0.69840E-03   -0.13541E-03  4850   0.184E-02    0.153E-01
RMM:   6    -0.230124774134E+04    0.18315E-03   -0.92379E-04  4960   0.167E-02    0.720E-02
RMM:   7    -0.230124773422E+04    0.71180E-05   -0.13369E-04  3159   0.969E-03    0.320E-02
RMM:   8    -0.230124773863E+04   -0.44138E-05   -0.34996E-05  2937   0.424E-03
  33 F= -.23215785E+04 E0= -.23215785E+04  d E =-.339511E-01  mag=     4.0000
       N       E                     dE             d eps       ncg     rms          rms(c)
DAV:   1    -0.230071399437E+04    0.53374E+00   -0.25885E+01  4392   0.419E+00    0.173E+00
RMM:   2    -0.230127111364E+04   -0.55712E+00   -0.54214E+00  6275   0.100E+00    0.271E+00
RMM:   3    -0.230128871958E+04   -0.17606E-01   -0.59076E-01  5831   0.342E-01    0.168E+00
RMM:   4    -0.230127497550E+04    0.13744E-01   -0.55747E-02  5801   0.831E-02    0.515E-01
RMM:   5    -0.230127264565E+04    0.23298E-02   -0.61530E-03  5243   0.359E-02    0.330E-01
RMM:   6    -0.230127166058E+04    0.98507E-03   -0.44822E-03  5142   0.331E-02    0.151E-01
RMM:   7    -0.230127165572E+04    0.48557E-05   -0.67926E-04  4618   0.209E-02    0.731E-02
RMM:   8    -0.230127166094E+04   -0.52182E-05   -0.17588E-04  3319   0.726E-03    0.331E-02
RMM:   9    -0.230127168058E+04   -0.19636E-04   -0.41007E-05  2859   0.474E-03    0.144E-02
RMM:  10    -0.230127170808E+04   -0.27502E-04   -0.14991E-05  2862   0.290E-03    0.828E-03
RMM:  11    -0.230127172084E+04   -0.12765E-04   -0.40659E-06  2771   0.239E-03    0.536E-03
RMM:  12    -0.230127172877E+04   -0.79262E-05   -0.28760E-06  2594   0.166E-03
  34 F= -.23216050E+04 E0= -.23216050E+04  d E =-.603892E-01  mag=     4.0000
       N       E                     dE             d eps       ncg     rms          rms(c)
DAV:   1    -0.230123022879E+04    0.41492E-01   -0.37044E+00  4432   0.159E+00    0.683E-01
RMM:   2    -0.230131115389E+04   -0.80925E-01   -0.74628E-01  6086   0.372E-01    0.125E+00
RMM:   3    -0.230130776245E+04    0.33914E-02   -0.77479E-02  5678   0.138E-01    0.494E-01
RMM:   4    -0.230130690537E+04    0.85707E-03   -0.81048E-03  5124   0.313E-02    0.199E-01
RMM:   5    -0.230130639165E+04    0.51373E-03   -0.10474E-03  5044   0.185E-02    0.122E-01
RMM:   6    -0.230130629859E+04    0.93056E-04   -0.46125E-04  4548   0.135E-02    0.347E-02
RMM:   7    -0.230130630190E+04   -0.33119E-05   -0.47524E-05  2941   0.699E-03
  35 F= -.23216404E+04 E0= -.23216404E+04  d E =-.354097E-01  mag=     4.0000
       N       E                     dE             d eps       ncg     rms          rms(c)
DAV:   1    -0.230066399729E+04    0.64230E+00   -0.33227E+01  4392   0.476E+00    0.204E+00
RMM:   2    -0.230137952768E+04   -0.71553E+00   -0.68980E+00  6153   0.113E+00    0.307E+00
RMM:   3    -0.230139175055E+04   -0.12223E-01   -0.78417E-01  5739   0.407E-01    0.173E+00
RMM:   4    -0.230137692303E+04    0.14828E-01   -0.70849E-02  5608   0.965E-02    0.610E-01
RMM:   5    -0.230137308739E+04    0.38356E-02   -0.98632E-03  5313   0.507E-02    0.375E-01
RMM:   6    -0.230137186691E+04    0.12205E-02   -0.52788E-03  5148   0.396E-02    0.151E-01
RMM:   7    -0.230137188988E+04   -0.22969E-04   -0.86527E-04  4890   0.246E-02    0.869E-02
RMM:   8    -0.230137188105E+04    0.88352E-05   -0.18768E-04  3576   0.852E-03    0.348E-02
RMM:   9    -0.230137190803E+04   -0.26981E-04   -0.51373E-05  2890   0.590E-03    0.160E-02
RMM:  10    -0.230137194014E+04   -0.32119E-04   -0.21767E-05  2866   0.404E-03    0.108E-02
RMM:  11    -0.230137195550E+04   -0.15356E-04   -0.81019E-06  2828   0.350E-03    0.549E-03
RMM:  12    -0.230137196835E+04   -0.12846E-04   -0.65530E-06  2811   0.252E-03    0.299E-03
RMM:  13    -0.230137197629E+04   -0.79478E-05   -0.37061E-06  2775   0.252E-03
  36 F= -.23217089E+04 E0= -.23217089E+04  d E =-.103898E+00  mag=     4.0000
       N       E                     dE             d eps       ncg     rms          rms(c)
DAV:   1    -0.229818279037E+04    0.31892E+01   -0.13203E+02  4392   0.955E+00    0.412E+00
RMM:   2    -0.230110382055E+04   -0.29210E+01   -0.29769E+01  6248   0.241E+00    0.408E+00
RMM:   3    -0.230135331600E+04   -0.24950E+00   -0.31025E+00  5868   0.779E-01    0.383E+00
RMM:   4    -0.230126814251E+04    0.85173E-01   -0.27200E-01  5995   0.197E-01    0.145E+00
RMM:   5    -0.230126692956E+04    0.12130E-02   -0.45279E-02  5598   0.848E-02    0.108E+00
RMM:   6    -0.230125999911E+04    0.69305E-02   -0.22861E-02  5142   0.669E-02    0.654E-01
RMM:   7    -0.230125631308E+04    0.36860E-02   -0.17169E-02  5246   0.689E-02    0.252E-01
RMM:   8    -0.230125651184E+04   -0.19876E-03   -0.29426E-03  5489   0.326E-02    0.148E-01
RMM:   9    -0.230125639967E+04    0.11218E-03   -0.40332E-04  4195   0.138E-02    0.702E-02
RMM:  10    -0.230125644740E+04   -0.47728E-04   -0.22331E-04  3572   0.866E-03    0.266E-02
RMM:  11    -0.230125650949E+04   -0.62090E-04   -0.63857E-05  3061   0.596E-03    0.132E-02
RMM:  12    -0.230125655911E+04   -0.49623E-04   -0.25764E-05  2909   0.455E-03    0.673E-03
RMM:  13    -0.230125658712E+04   -0.28008E-04   -0.10311E-05  2816   0.390E-03    0.423E-03
RMM:  14    -0.230125661139E+04   -0.24270E-04   -0.10057E-05  2810   0.327E-03    0.279E-03
RMM:  15    -0.230125662360E+04   -0.12213E-04   -0.58767E-06  2795   0.313E-03    0.178E-03
RMM:  16    -0.230125662979E+04   -0.61877E-05   -0.41291E-06  2654   0.229E-03
  37 F= -.23216019E+04 E0= -.23216019E+04  d E =0.308458E-02  mag=     4.0000
       N       E                     dE             d eps       ncg     rms          rms(c)
DAV:   1    -0.229940663804E+04    0.18500E+01   -0.88666E+01  4424   0.783E+00    0.343E+00
RMM:   2    -0.230150588539E+04   -0.20992E+01   -0.19833E+01  6263   0.195E+00    0.583E+00
RMM:   3    -0.230141395571E+04    0.91930E-01   -0.21660E+00  5731   0.696E-01    0.251E+00
RMM:   4    -0.230138929082E+04    0.24665E-01   -0.21112E-01  5855   0.167E-01    0.990E-01
RMM:   5    -0.230138180745E+04    0.74834E-02   -0.21033E-02  4928   0.732E-02    0.628E-01
RMM:   6    -0.230137797986E+04    0.38276E-02   -0.15473E-02  5049   0.725E-02    0.206E-01
RMM:   7    -0.230137819459E+04   -0.21473E-03   -0.20636E-03  5231   0.363E-02    0.997E-02
RMM:   8    -0.230137831232E+04   -0.11773E-03   -0.32163E-04  4259   0.130E-02    0.510E-02
RMM:   9    -0.230137837869E+04   -0.66376E-04   -0.12611E-04  3631   0.958E-03    0.216E-02
RMM:  10    -0.230137840346E+04   -0.24769E-04   -0.38596E-05  3056   0.503E-03    0.143E-02
RMM:  11    -0.230137841948E+04   -0.16016E-04   -0.15384E-05  2852   0.444E-03    0.704E-03
RMM:  12    -0.230137842962E+04   -0.10141E-04   -0.86978E-06  2827   0.336E-03    0.431E-03
RMM:  13    -0.230137843618E+04   -0.65608E-05   -0.55137E-06  2801   0.298E-03
  38 F= -.23217165E+04 E0= -.23217165E+04  d E =-.111543E+00  mag=     3.9995
       N       E                     dE             d eps       ncg     rms          rms(c)
DAV:   1    -0.230128546804E+04    0.92962E-01   -0.79861E+00  4392   0.231E+00    0.973E-01
RMM:   2    -0.230143534876E+04   -0.14988E+00   -0.14599E+00  6037   0.513E-01    0.131E+00
RMM:   3    -0.230144112576E+04   -0.57770E-02   -0.17730E-01  5630   0.216E-01    0.801E-01
RMM:   4    -0.230143737197E+04    0.37538E-02   -0.15657E-02  5517   0.468E-02    0.289E-01
RMM:   5    -0.230143625564E+04    0.11163E-02   -0.30889E-03  5430   0.281E-02    0.158E-01
RMM:   6    -0.230143607479E+04    0.18085E-03   -0.11983E-03  5080   0.191E-02    0.779E-02
RMM:   7    -0.230143603863E+04    0.36157E-04   -0.17037E-04  3840   0.108E-02    0.301E-02
RMM:   8    -0.230143603109E+04    0.75402E-05   -0.43476E-05  2977   0.487E-03
  39 F= -.23217749E+04 E0= -.23217749E+04  d E =-.583728E-01  mag=     3.9999
       N       E                     dE             d eps       ncg     rms          rms(c)
DAV:   1    -0.230114993602E+04    0.28610E+00   -0.16578E+01  4392   0.334E+00    0.140E+00
RMM:   2    -0.230146081898E+04   -0.31088E+00   -0.30785E+00  6071   0.752E-01    0.169E+00
RMM:   3    -0.230147727667E+04   -0.16458E-01   -0.37402E-01  5676   0.300E-01    0.110E+00
RMM:   4    -0.230146998966E+04    0.72870E-02   -0.32668E-02  5761   0.665E-02    0.417E-01
RMM:   5    -0.230146794105E+04    0.20486E-02   -0.62828E-03  5493   0.385E-02    0.242E-01
RMM:   6    -0.230146742501E+04    0.51603E-03   -0.27342E-03  5260   0.275E-02    0.117E-01
RMM:   7    -0.230146735567E+04    0.69341E-04   -0.39787E-04  4598   0.162E-02    0.442E-02
RMM:   8    -0.230146735107E+04    0.46052E-05   -0.90943E-05  3312   0.638E-03
  40 F= -.23218077E+04 E0= -.23218077E+04  d E =-.911390E-01  mag=     4.0000
       N       E                     dE             d eps       ncg     rms          rms(c)
DAV:   1    -0.230146966667E+04   -0.23110E-02   -0.33612E+00  4432   0.161E+00    0.600E-01
RMM:   2    -0.230151991350E+04   -0.50247E-01   -0.51910E-01  5978   0.366E-01    0.377E-01
RMM:   3    -0.230152423393E+04   -0.43204E-02   -0.53475E-02  5644   0.126E-01    0.357E-01
RMM:   4    -0.230152372598E+04    0.50795E-03   -0.58773E-03  5581   0.301E-02    0.216E-01
RMM:   5    -0.230152323861E+04    0.48737E-03   -0.12426E-03  5116   0.201E-02    0.118E-01
RMM:   6    -0.230152311047E+04    0.12814E-03   -0.54094E-04  4830   0.142E-02    0.663E-02
RMM:   7    -0.230152308463E+04    0.25846E-04   -0.93668E-05  3225   0.960E-03    0.179E-02
RMM:   8    -0.230152308298E+04    0.16527E-05   -0.26787E-05  2906   0.395E-03
  41 F= -.23218624E+04 E0= -.23218624E+04  d E =-.547790E-01  mag=     4.0000
       N       E                     dE             d eps       ncg     rms          rms(c)
DAV:   1    -0.230125720727E+04    0.26588E+00   -0.20513E+01  4392   0.400E+00    0.147E+00
RMM:   2    -0.230156953535E+04   -0.31233E+00   -0.32439E+00  5987   0.914E-01    0.898E-01
RMM:   3    -0.230159625025E+04   -0.26715E-01   -0.34263E-01  5730   0.304E-01    0.789E-01
RMM:   4    -0.230159439630E+04    0.18540E-02   -0.34898E-02  5913   0.726E-02    0.532E-01
RMM:   5    -0.230159177081E+04    0.26255E-02   -0.72874E-03  5474   0.458E-02    0.321E-01
RMM:   6    -0.230159065685E+04    0.11140E-02   -0.34825E-03  4937   0.337E-02    0.164E-01
RMM:   7    -0.230159047772E+04    0.17913E-03   -0.68647E-04  4864   0.239E-02    0.504E-02
RMM:   8    -0.230159044600E+04    0.31724E-04   -0.16664E-04  3921   0.769E-03    0.295E-02
RMM:   9    -0.230159042386E+04    0.22141E-04   -0.50215E-05  3049   0.764E-03    0.126E-02
RMM:  10    -0.230159042355E+04    0.31033E-06   -0.30443E-05  3097   0.463E-03
  42 F= -.23219279E+04 E0= -.23219279E+04  d E =-.120268E+00  mag=     4.0000
       N       E                     dE             d eps       ncg     rms          rms(c)
DAV:   1    -0.230159015952E+04    0.26434E-03   -0.30125E+00  4480   0.148E+00    0.575E-01
RMM:   2    -0.230164298686E+04   -0.52827E-01   -0.52874E-01  6191   0.371E-01    0.583E-01
RMM:   3    -0.230164531556E+04   -0.23287E-02   -0.50835E-02  5857   0.117E-01    0.441E-01
RMM:   4    -0.230164416464E+04    0.11509E-02   -0.61506E-03  5539   0.293E-02    0.164E-01
RMM:   5    -0.230164376267E+04    0.40198E-03   -0.85036E-04  4996   0.175E-02    0.857E-02
RMM:   6    -0.230164370610E+04    0.56568E-04   -0.43016E-04  4731   0.139E-02    0.385E-02
RMM:   7    -0.230164370365E+04    0.24474E-05   -0.50190E-05  3029   0.712E-03
  43 F= -.23219801E+04 E0= -.23219801E+04  d E =-.521785E-01  mag=     4.0000
       N       E                     dE             d eps       ncg     rms          rms(c)
DAV:   1    -0.230132635070E+04    0.31736E+00   -0.21244E+01  4392   0.390E+00    0.153E+00
RMM:   2    -0.230169357949E+04   -0.36723E+00   -0.37304E+00  6246   0.991E-01    0.133E+00
RMM:   3    -0.230172628337E+04   -0.32704E-01   -0.41289E-01  5960   0.303E-01    0.142E+00
RMM:   4    -0.230171342496E+04    0.12858E-01   -0.44143E-02  6018   0.810E-02    0.476E-01
RMM:   5    -0.230171086706E+04    0.25579E-02   -0.78941E-03  5331   0.458E-02    0.267E-01
RMM:   6    -0.230171007982E+04    0.78725E-03   -0.37049E-03  5354   0.349E-02    0.131E-01
RMM:   7    -0.230171000368E+04    0.76136E-04   -0.50065E-04  4887   0.194E-02    0.495E-02
RMM:   8    -0.230170998945E+04    0.14232E-04   -0.14556E-04  3664   0.759E-03    0.248E-02
RMM:   9    -0.230170998929E+04    0.15774E-06   -0.43494E-05  3031   0.630E-03
  44 F= -.23220437E+04 E0= -.23220437E+04  d E =-.115822E+00  mag=     4.0000
       N       E                     dE             d eps       ncg     rms          rms(c)
DAV:   1    -0.230171441922E+04   -0.44298E-02   -0.14824E+00  4640   0.116E+00    0.476E-01
RMM:   2    -0.230173945795E+04   -0.25039E-01   -0.25073E-01  6052   0.284E-01    0.515E-01
RMM:   3    -0.230173970940E+04   -0.25145E-03   -0.21883E-02  5742   0.899E-02    0.386E-01
RMM:   4    -0.230173866514E+04    0.10443E-02   -0.30656E-03  5301   0.271E-02    0.125E-01
RMM:   5    -0.230173839423E+04    0.27090E-03   -0.78272E-04  5232   0.203E-02    0.565E-02
RMM:   6    -0.230173836842E+04    0.25818E-04   -0.19849E-04  4517   0.118E-02    0.327E-02
RMM:   7    -0.230173836404E+04    0.43774E-05   -0.37555E-05  3125   0.611E-03
  45 F= -.23220711E+04 E0= -.23220711E+04  d E =-.273835E-01  mag=     4.0000
       N       E                     dE             d eps       ncg     rms          rms(c)
DAV:   1    -0.230171736712E+04    0.21001E-01   -0.21359E+00  4440   0.139E+00    0.570E-01
RMM:   2    -0.230175248030E+04   -0.35113E-01   -0.35633E-01  6018   0.336E-01    0.554E-01
RMM:   3    -0.230175389087E+04   -0.14106E-02   -0.33438E-02  5719   0.109E-01    0.496E-01
RMM:   4    -0.230175210716E+04    0.17837E-02   -0.44541E-03  5433   0.329E-02    0.158E-01
RMM:   5    -0.230175167768E+04    0.42948E-03   -0.12982E-03  5303   0.243E-02    0.676E-02
RMM:   6    -0.230175160909E+04    0.68591E-04   -0.31982E-04  4678   0.141E-02    0.433E-02
RMM:   7    -0.230175159119E+04    0.17905E-04   -0.62545E-05  3428   0.745E-03    0.149E-02
RMM:   8    -0.230175158703E+04    0.41561E-05   -0.20792E-05  2901   0.506E-03
  46 F= -.23220832E+04 E0= -.23220832E+04  d E =-.394326E-01  mag=     4.0000
       N       E                     dE             d eps       ncg     rms          rms(c)
DAV:   1    -0.230175565806E+04   -0.40669E-02   -0.13469E+00  4544   0.111E+00    0.438E-01
RMM:   2    -0.230177488552E+04   -0.19227E-01   -0.20155E-01  6023   0.249E-01    0.295E-01
RMM:   3    -0.230177672170E+04   -0.18362E-02   -0.19260E-02  5648   0.861E-02    0.371E-01
RMM:   4    -0.230177590459E+04    0.81712E-03   -0.26509E-03  5376   0.230E-02    0.134E-01
RMM:   5    -0.230177571557E+04    0.18901E-03   -0.60301E-04  4657   0.147E-02    0.628E-02
RMM:   6    -0.230177568344E+04    0.32129E-04   -0.19576E-04  4231   0.105E-02    0.438E-02
RMM:   7    -0.230177567357E+04    0.98720E-05   -0.38182E-05  2959   0.624E-03
  47 F= -.23221064E+04 E0= -.23221064E+04  d E =-.231876E-01  mag=     4.0000
       N       E                     dE             d eps       ncg     rms          rms(c)
DAV:   1    -0.230168910731E+04    0.86576E-01   -0.74803E+00  4392   0.263E+00    0.104E+00
RMM:   2    -0.230179452339E+04   -0.10542E+00   -0.11145E+00  6008   0.589E-01    0.611E-01
RMM:   3    -0.230180486322E+04   -0.10340E-01   -0.11638E-01  5641   0.203E-01    0.752E-01
RMM:   4    -0.230180193494E+04    0.29283E-02   -0.14305E-02  6071   0.519E-02    0.347E-01
RMM:   5    -0.230180076898E+04    0.11660E-02   -0.36973E-03  5274   0.332E-02    0.159E-01
RMM:   6    -0.230180050626E+04    0.26272E-03   -0.12751E-03  5087   0.218E-02    0.828E-02
RMM:   7    -0.230180045341E+04    0.52855E-04   -0.21216E-04  4433   0.130E-02    0.257E-02
RMM:   8    -0.230180045829E+04   -0.48880E-05   -0.61128E-05  3261   0.546E-03
  48 F= -.23221291E+04 E0= -.23221291E+04  d E =-.458964E-01  mag=     4.0000
       N       E                     dE             d eps       ncg     rms          rms(c)
DAV:   1    -0.230180983874E+04   -0.93853E-02   -0.74605E-01  4656   0.832E-01    0.313E-01
RMM:   2    -0.230181830631E+04   -0.84676E-02   -0.88180E-02  6062   0.171E-01    0.191E-01
RMM:   3    -0.230181917048E+04   -0.86417E-03   -0.88484E-03  5539   0.615E-02    0.215E-01
RMM:   4    -0.230181886230E+04    0.30818E-03   -0.11049E-03  4424   0.155E-02    0.912E-02
RMM:   5    -0.230181879148E+04    0.70824E-04   -0.25742E-04  4136   0.109E-02    0.352E-02
RMM:   6    -0.230181879652E+04   -0.50450E-05   -0.53666E-05  3162   0.773E-03
  49 F= -.23221467E+04 E0= -.23221467E+04  d E =-.176228E-01  mag=     4.0000
       N       E                     dE             d eps       ncg     rms          rms(c)
DAV:   1    -0.230177524589E+04    0.43546E-01   -0.66793E+00  4392   0.250E+00    0.932E-01
RMM:   2    -0.230185043095E+04   -0.75185E-01   -0.78486E-01  6025   0.514E-01    0.551E-01
RMM:   3    -0.230185763145E+04   -0.72005E-02   -0.83678E-02  5657   0.177E-01    0.518E-01
RMM:   4    -0.230185605996E+04    0.15715E-02   -0.97699E-03  5840   0.445E-02    0.295E-01
RMM:   5    -0.230185528422E+04    0.77575E-03   -0.23778E-03  5153   0.294E-02    0.124E-01
RMM:   6    -0.230185517454E+04    0.10968E-03   -0.69176E-04  5101   0.185E-02    0.446E-02
RMM:   7    -0.230185516495E+04    0.95904E-05   -0.86804E-05  3861   0.983E-03
  50 F= -.23221810E+04 E0= -.23221810E+04  d E =-.518982E-01  mag=     4.0000
       N       E                     dE             d eps       ncg     rms          rms(c)
DAV:   1    -0.230151456457E+04    0.34061E+00   -0.26497E+01  4392   0.502E+00    0.181E+00
RMM:   2    -0.230181483368E+04   -0.30027E+00   -0.31661E+00  6091   0.104E+00    0.946E-01
RMM:   3    -0.230184326147E+04   -0.28428E-01   -0.35629E-01  5636   0.344E-01    0.721E-01
RMM:   4    -0.230184265468E+04    0.60680E-03   -0.39233E-02  5822   0.871E-02    0.624E-01
RMM:   5    -0.230183967468E+04    0.29800E-02   -0.93000E-03  5647   0.537E-02    0.313E-01
RMM:   6    -0.230183866863E+04    0.10060E-02   -0.33957E-03  5032   0.364E-02    0.958E-02
RMM:   7    -0.230183860160E+04    0.67031E-04   -0.42933E-04  4630   0.231E-02    0.549E-02
RMM:   8    -0.230183857581E+04    0.25787E-04   -0.16612E-04  4268   0.773E-03    0.322E-02
RMM:   9    -0.230183856187E+04    0.13937E-04   -0.64591E-05  3523   0.752E-03    0.144E-02
RMM:  10    -0.230183856748E+04   -0.56049E-05   -0.28432E-05  3119   0.519E-03
  51 F= -.23221604E+04 E0= -.23221604E+04  d E =-.313453E-01  mag=     4.0000
       N       E                     dE             d eps       ncg     rms          rms(c)
DAV:   1    -0.230171115194E+04    0.12741E+00   -0.12239E+01  4392   0.342E+00    0.120E+00
RMM:   2    -0.230185416588E+04   -0.14301E+00   -0.14998E+00  5993   0.714E-01    0.648E-01
RMM:   3    -0.230186534650E+04   -0.11181E-01   -0.14771E-01  5590   0.242E-01    0.527E-01
RMM:   4    -0.230186500149E+04    0.34501E-03   -0.16356E-02  5674   0.578E-02    0.368E-01
RMM:   5    -0.230186426248E+04    0.73901E-03   -0.45396E-03  5546   0.388E-02    0.287E-01
RMM:   6    -0.230186350644E+04    0.75604E-03   -0.15973E-03  5392   0.245E-02    0.923E-02
RMM:   7    -0.230186345377E+04    0.52673E-04   -0.27932E-04  4287   0.148E-02    0.437E-02
RMM:   8    -0.230186342764E+04    0.26123E-04   -0.98823E-05  3339   0.672E-03    0.216E-02
RMM:   9    -0.230186341712E+04    0.10521E-04   -0.25552E-05  2912   0.514E-03    0.125E-02
RMM:  10    -0.230186341506E+04    0.20608E-05   -0.98382E-06  2812   0.380E-03
  52 F= -.23221879E+04 E0= -.23221879E+04  d E =-.588444E-01  mag=     4.0000
       N       E                     dE             d eps       ncg     rms          rms(c)
DAV:   1    -0.230187186120E+04   -0.84441E-02   -0.12565E+00  4400   0.103E+00    0.388E-01
RMM:   2    -0.230188667003E+04   -0.14809E-01   -0.14511E-01  6141   0.205E-01    0.341E-01
RMM:   3    -0.230188751371E+04   -0.84368E-03   -0.16455E-02  5630   0.711E-02    0.241E-01
RMM:   4    -0.230188710243E+04    0.41128E-03   -0.18145E-03  4901   0.181E-02    0.120E-01
RMM:   5    -0.230188694964E+04    0.15279E-03   -0.53238E-04  4507   0.135E-02    0.507E-02
RMM:   6    -0.230188696433E+04   -0.14682E-04   -0.93988E-05  3184   0.834E-03    0.284E-02
RMM:   7    -0.230188696372E+04    0.60096E-06   -0.21806E-05  2849   0.458E-03
  53 F= -.23222108E+04 E0= -.23222108E+04  d E =-.228585E-01  mag=     4.0000
       N       E                     dE             d eps       ncg     rms          rms(c)
DAV:   1    -0.230181212291E+04    0.74841E-01   -0.11209E+01  4392   0.309E+00    0.110E+00
RMM:   2    -0.230194131984E+04   -0.12920E+00   -0.13089E+00  6139   0.616E-01    0.807E-01
RMM:   3    -0.230195455677E+04   -0.13237E-01   -0.15787E-01  5702   0.214E-01    0.739E-01
RMM:   4    -0.230195178856E+04    0.27682E-02   -0.16695E-02  5906   0.548E-02    0.482E-01
RMM:   5    -0.230195018481E+04    0.16038E-02   -0.48497E-03  5402   0.359E-02    0.212E-01
RMM:   6    -0.230195004374E+04    0.14107E-03   -0.16510E-03  5087   0.232E-02    0.893E-02
RMM:   7    -0.230195005459E+04   -0.10855E-04   -0.20188E-04  3780   0.121E-02    0.447E-02
RMM:   8    -0.230195004142E+04    0.13171E-04   -0.63246E-05  2967   0.496E-03    0.241E-02
RMM:   9    -0.230195004077E+04    0.65033E-06   -0.18761E-05  2842   0.372E-03
  54 F= -.23222719E+04 E0= -.23222719E+04  d E =-.839640E-01  mag=     4.0000
       N       E                     dE             d eps       ncg     rms          rms(c)
DAV:   1    -0.230143620278E+04    0.51384E+00   -0.44084E+01  4392   0.616E+00    0.212E+00
RMM:   2    -0.230195781202E+04   -0.52161E+00   -0.54423E+00  6216   0.124E+00    0.149E+00
RMM:   3    -0.230201349501E+04   -0.55683E-01   -0.63285E-01  5804   0.408E-01    0.160E+00
RMM:   4    -0.230201421845E+04   -0.72344E-03   -0.68200E-02  6056   0.107E-01    0.196E+00
RMM:   5    -0.230200131165E+04    0.12907E-01   -0.15410E-02  5615   0.590E-02    0.550E-01
RMM:   6    -0.230199957543E+04    0.17362E-02   -0.92630E-03  4748   0.510E-02    0.216E-01
RMM:   7    -0.230199982619E+04   -0.25076E-03   -0.13309E-03  4671   0.330E-02    0.139E-01
RMM:   8    -0.230199979512E+04    0.31068E-04   -0.32267E-04  4060   0.101E-02    0.586E-02
RMM:   9    -0.230199980956E+04   -0.14436E-04   -0.97086E-05  3044   0.803E-03    0.372E-02
RMM:  10    -0.230199982874E+04   -0.19186E-04   -0.34449E-05  2877   0.444E-03    0.236E-02
RMM:  11    -0.230199984595E+04   -0.17207E-04   -0.14937E-05  2829   0.391E-03    0.252E-02
RMM:  12    -0.230199985477E+04   -0.88191E-05   -0.11359E-05  2825   0.309E-03
  55 F= -.23223183E+04 E0= -.23223183E+04  d E =-.130372E+00  mag=     4.0000
       N       E                     dE             d eps       ncg     rms          rms(c)
DAV:   1    -0.230200162332E+04   -0.17774E-02   -0.14836E+00  4560   0.106E+00    0.398E-01
RMM:   2    -0.230202051448E+04   -0.18891E-01   -0.19533E-01  6168   0.208E-01    0.333E-01
RMM:   3    -0.230202428063E+04   -0.37662E-02   -0.22819E-02  5731   0.783E-02    0.839E-01
RMM:   4    -0.230202233700E+04    0.19436E-02   -0.24163E-03  4082   0.178E-02    0.304E-01
RMM:   5    -0.230202197851E+04    0.35849E-03   -0.65922E-04  4318   0.128E-02    0.130E-01
RMM:   6    -0.230202194998E+04    0.28532E-04   -0.23775E-04  3681   0.105E-02    0.344E-02
RMM:   7    -0.230202195955E+04   -0.95706E-05   -0.34892E-05  2909   0.522E-03
  56 F= -.23223400E+04 E0= -.23223400E+04  d E =-.216659E-01  mag=     4.0000
       N       E                     dE             d eps       ncg     rms          rms(c)
DAV:   1    -0.230188040426E+04    0.14155E+00   -0.13274E+01  4392   0.316E+00    0.111E+00
RMM:   2    -0.230204824057E+04   -0.16784E+00   -0.17721E+00  6203   0.624E-01    0.986E-01
RMM:   3    -0.230206976010E+04   -0.21520E-01   -0.20876E-01  5830   0.221E-01    0.130E+00
RMM:   4    -0.230206741748E+04    0.23426E-02   -0.24143E-02  6021   0.609E-02    0.117E+00
RMM:   5    -0.230206337648E+04    0.40410E-02   -0.50113E-03  5322   0.314E-02    0.400E-01
RMM:   6    -0.230206293964E+04    0.43684E-03   -0.33669E-03  4746   0.289E-02    0.263E-01
RMM:   7    -0.230206286357E+04    0.76065E-04   -0.75427E-04  4329   0.198E-02    0.559E-02
RMM:   8    -0.230206289033E+04   -0.26755E-04   -0.15635E-04  3343   0.590E-03    0.305E-02
RMM:   9    -0.230206290210E+04   -0.11771E-04   -0.27143E-05  2865   0.446E-03    0.306E-02
RMM:  10    -0.230206291598E+04   -0.13875E-04   -0.16020E-05  2853   0.289E-03    0.166E-02
RMM:  11    -0.230206292575E+04   -0.97707E-05   -0.73117E-06  2807   0.256E-03
  57 F= -.23223798E+04 E0= -.23223798E+04  d E =-.614754E-01  mag=     4.0000
       N       E                     dE             d eps       ncg     rms          rms(c)
DAV:   1    -0.230203347695E+04    0.29439E-01   -0.24641E+00  4400   0.136E+00    0.466E-01
RMM:   2    -0.230206376353E+04   -0.30287E-01   -0.32457E-01  6146   0.265E-01    0.373E-01
RMM:   3    -0.230206813045E+04   -0.43669E-02   -0.37627E-02  5586   0.987E-02    0.622E-01
RMM:   4    -0.230206725317E+04    0.87728E-03   -0.43430E-03  5202   0.256E-02    0.428E-01
RMM:   5    -0.230206669282E+04    0.56035E-03   -0.81405E-04  4350   0.139E-02    0.149E-01
RMM:   6    -0.230206663038E+04    0.62433E-04   -0.52967E-04  4305   0.132E-02    0.533E-02
RMM:   7    -0.230206664228E+04   -0.11893E-04   -0.64550E-05  2989   0.750E-03    0.315E-02
RMM:   8    -0.230206664659E+04   -0.43158E-05   -0.16736E-05  2869   0.336E-03
  58 F= -.23223831E+04 E0= -.23223831E+04  d E =-.647728E-01  mag=     4.0000
       N       E                     dE             d eps       ncg     rms          rms(c)
DAV:   1    -0.230210737560E+04   -0.40733E-01   -0.60687E-01  4560   0.675E-01    0.271E-01
RMM:   2    -0.230211509412E+04   -0.77185E-02   -0.83130E-02  5993   0.150E-01    0.318E-01
RMM:   3    -0.230211613201E+04   -0.10379E-02   -0.87580E-03  5555   0.515E-02    0.456E-01
RMM:   4    -0.230211533325E+04    0.79876E-03   -0.11179E-03  4820   0.159E-02    0.150E-01
RMM:   5    -0.230211516896E+04    0.16429E-03   -0.44360E-04  4528   0.129E-02    0.459E-02
RMM:   6    -0.230211516110E+04    0.78614E-05   -0.12086E-04  3803   0.902E-03    0.409E-02
RMM:   7    -0.230211515597E+04    0.51278E-05   -0.19452E-05  2849   0.515E-03
  59 F= -.23224316E+04 E0= -.23224316E+04  d E =-.485201E-01  mag=     4.0000
       N       E                     dE             d eps       ncg     rms          rms(c)
DAV:   1    -0.230213179907E+04   -0.16638E-01   -0.54840E+00  4392   0.203E+00    0.820E-01
RMM:   2    -0.230220238316E+04   -0.70584E-01   -0.75722E-01  5953   0.451E-01    0.103E+00
RMM:   3    -0.230220961577E+04   -0.72326E-02   -0.80334E-02  5804   0.150E-01    0.122E+00
RMM:   4    -0.230220313786E+04    0.64779E-02   -0.96089E-03  5600   0.464E-02    0.351E-01
RMM:   5    -0.230220187511E+04    0.12628E-02   -0.38020E-03  5307   0.361E-02    0.152E-01
RMM:   6    -0.230220177418E+04    0.10093E-03   -0.10114E-03  5099   0.221E-02    0.155E-01
RMM:   7    -0.230220167196E+04    0.10222E-03   -0.18460E-04  3970   0.107E-02    0.259E-02
RMM:   8    -0.230220165864E+04    0.13315E-04   -0.56879E-05  3190   0.627E-03    0.124E-02
RMM:   9    -0.230220165524E+04    0.33976E-05   -0.18636E-05  2878   0.463E-03
  60 F= -.23225182E+04 E0= -.23225182E+04  d E =-.135111E+00  mag=     4.0000
       N       E                     dE             d eps       ncg     rms          rms(c)
DAV:   1    -0.230219684184E+04    0.48168E-02   -0.96273E-01  4640   0.848E-01    0.344E-01
RMM:   2    -0.230220898576E+04   -0.12144E-01   -0.13002E-01  5992   0.185E-01    0.464E-01
RMM:   3    -0.230221014765E+04   -0.11619E-02   -0.14767E-02  5711   0.638E-02    0.494E-01
RMM:   4    -0.230220904126E+04    0.11064E-02   -0.16580E-03  5088   0.194E-02    0.131E-01
RMM:   5    -0.230220882924E+04    0.21202E-03   -0.66764E-04  4968   0.157E-02    0.501E-02
RMM:   6    -0.230220881417E+04    0.15070E-04   -0.15457E-04  4287   0.993E-03    0.465E-02
RMM:   7    -0.230220880331E+04    0.10855E-04   -0.26342E-05  2908   0.527E-03    0.106E-02
RMM:   8    -0.230220880078E+04    0.25313E-05   -0.10044E-05  2843   0.340E-03
  61 F= -.23225254E+04 E0= -.23225254E+04  d E =-.142314E+00  mag=     4.0000
       N       E                     dE             d eps       ncg     rms          rms(c)
DAV:   1    -0.230221595716E+04   -0.71539E-02   -0.69002E-01  4464   0.830E-01    0.347E-01
RMM:   2    -0.230222916231E+04   -0.13205E-01   -0.12062E-01  5945   0.189E-01    0.782E-01
RMM:   3    -0.230222762841E+04    0.15339E-02   -0.12605E-02  5580   0.689E-02    0.285E-01
RMM:   4    -0.230222718946E+04    0.43895E-03   -0.13660E-03  4890   0.175E-02    0.784E-02
RMM:   5    -0.230222706101E+04    0.12845E-03   -0.33411E-04  4829   0.133E-02    0.952E-02
RMM:   6    -0.230222699362E+04    0.67391E-04   -0.22821E-04  4527   0.107E-02    0.309E-02
RMM:   7    -0.230222698290E+04    0.10725E-04   -0.20388E-05  2876   0.671E-03    0.142E-02
RMM:   8    -0.230222697649E+04    0.64103E-05   -0.12548E-05  2844   0.307E-03
  62 F= -.23225438E+04 E0= -.23225438E+04  d E =-.183940E-01  mag=     4.0000
       N       E                     dE             d eps       ncg     rms          rms(c)
DAV:   1    -0.230220370370E+04    0.23279E-01   -0.21930E+00  4392   0.148E+00    0.615E-01
RMM:   2    -0.230224513985E+04   -0.41436E-01   -0.38763E-01  5956   0.341E-01    0.128E+00
RMM:   3    -0.230224103708E+04    0.41028E-02   -0.39751E-02  5682   0.117E-01    0.509E-01
RMM:   4    -0.230223958877E+04    0.14483E-02   -0.44868E-03  5128   0.311E-02    0.139E-01
RMM:   5    -0.230223911913E+04    0.46964E-03   -0.10713E-03  5420   0.229E-02    0.151E-01
RMM:   6    -0.230223889580E+04    0.22333E-03   -0.67513E-04  5038   0.175E-02    0.490E-02
RMM:   7    -0.230223886000E+04    0.35802E-04   -0.62400E-05  3552   0.892E-03    0.270E-02
RMM:   8    -0.230223883543E+04    0.24576E-04   -0.37982E-05  3101   0.461E-03    0.209E-02
RMM:   9    -0.230223882273E+04    0.12700E-04   -0.19110E-05  2899   0.449E-03    0.512E-03
RMM:  10    -0.230223882031E+04    0.24205E-05   -0.89299E-06  2806   0.376E-03
  63 F= -.23225560E+04 E0= -.23225560E+04  d E =-.306365E-01  mag=     4.0000
       N       E                     dE             d eps       ncg     rms          rms(c)
DAV:   1    -0.230224423712E+04   -0.54144E-02   -0.75311E-01  4496   0.890E-01    0.347E-01
RMM:   2    -0.230225950271E+04   -0.15266E-01   -0.10539E-01  6042   0.196E-01    0.119E+00
RMM:   3    -0.230225317266E+04    0.63301E-02   -0.81272E-03  5591   0.595E-02    0.131E-01
RMM:   4    -0.230225316330E+04    0.93625E-05   -0.14493E-03  4830   0.163E-02    0.981E-02
RMM:   5    -0.230225311926E+04    0.44038E-04   -0.21109E-04  4360   0.115E-02    0.133E-01
RMM:   6    -0.230225301433E+04    0.10493E-03   -0.21238E-04  4393   0.105E-02    0.130E-02
RMM:   7    -0.230225301396E+04    0.36534E-06   -0.25899E-05  2844   0.696E-03
  64 F= -.23225707E+04 E0= -.23225707E+04  d E =-.146872E-01  mag=     4.0000
       N       E                     dE             d eps       ncg     rms          rms(c)
DAV:   1    -0.230222636162E+04    0.26653E-01   -0.32378E+00  4392   0.185E+00    0.724E-01
RMM:   2    -0.230229291957E+04   -0.66558E-01   -0.45833E-01  6009   0.413E-01    0.247E+00
RMM:   3    -0.230226485950E+04    0.28060E-01   -0.35685E-02  5654   0.122E-01    0.264E-01
RMM:   4    -0.230226489852E+04   -0.39013E-04   -0.64889E-03  5080   0.339E-02    0.213E-01
RMM:   5    -0.230226471957E+04    0.17894E-03   -0.93637E-04  5319   0.228E-02    0.286E-01
RMM:   6    -0.230226421822E+04    0.50136E-03   -0.94455E-04  5147   0.199E-02    0.309E-02
RMM:   7    -0.230226421395E+04    0.42638E-05   -0.11093E-04  3537   0.107E-02    0.240E-02
RMM:   8    -0.230226420523E+04    0.87230E-05   -0.19110E-05  2861   0.395E-03
  65 F= -.23225829E+04 E0= -.23225829E+04  d E =-.269107E-01  mag=     4.0000
       N       E                     dE             d eps       ncg     rms          rms(c)
DAV:   1    -0.230225912866E+04    0.50853E-02   -0.12389E+00  4400   0.108E+00    0.437E-01
RMM:   2    -0.230228877612E+04   -0.29647E-01   -0.20989E-01  6056   0.245E-01    0.159E+00
RMM:   3    -0.230227768253E+04    0.11094E-01   -0.17524E-02  5616   0.745E-02    0.165E-01
RMM:   4    -0.230227771464E+04   -0.32112E-04   -0.26479E-03  4818   0.186E-02    0.127E-01
RMM:   5    -0.230227761831E+04    0.96332E-04   -0.24266E-04  4059   0.109E-02    0.140E-01
RMM:   6    -0.230227749060E+04    0.12770E-03   -0.33161E-04  4504   0.120E-02    0.179E-02
RMM:   7    -0.230227749121E+04   -0.60673E-06   -0.35715E-05  2858   0.715E-03
  66 F= -.23225969E+04 E0= -.23225969E+04  d E =-.139484E-01  mag=     4.0000
       N       E                     dE             d eps       ncg     rms          rms(c)
DAV:   1    -0.230218944305E+04    0.88048E-01   -0.64215E+00  4392   0.246E+00    0.101E+00
RMM:   2    -0.230234645977E+04   -0.15702E+00   -0.10937E+00  6045   0.553E-01    0.369E+00
RMM:   3    -0.230228590243E+04    0.60557E-01   -0.97557E-02  5703   0.173E-01    0.381E-01
RMM:   4    -0.230228599606E+04   -0.93638E-04   -0.13712E-02  5157   0.424E-02    0.292E-01
RMM:   5    -0.230228556421E+04    0.43186E-03   -0.14002E-03  5049   0.243E-02    0.341E-01
RMM:   6    -0.230228485241E+04    0.71180E-03   -0.17497E-03  5127   0.251E-02    0.470E-02
RMM:   7    -0.230228485629E+04   -0.38778E-05   -0.19200E-04  3799   0.130E-02    0.355E-02
RMM:   8    -0.230228485180E+04    0.44893E-05   -0.26375E-05  2851   0.399E-03
  67 F= -.23226058E+04 E0= -.23226058E+04  d E =-.228507E-01  mag=     4.0000
       N       E                     dE             d eps       ncg     rms          rms(c)
DAV:   1    -0.230228157393E+04    0.32824E-02   -0.29414E-01  4592   0.526E-01    0.204E-01
RMM:   2    -0.230228822441E+04   -0.66505E-02   -0.48769E-02  6140   0.118E-01    0.722E-01
RMM:   3    -0.230228598317E+04    0.22412E-02   -0.39471E-03  5123   0.348E-02    0.845E-02
RMM:   4    -0.230228599497E+04   -0.11804E-04   -0.60065E-04  3355   0.928E-03    0.629E-02
RMM:   5    -0.230228597331E+04    0.21659E-04   -0.57892E-05  2994   0.580E-03    0.664E-02
RMM:   6    -0.230228594931E+04    0.24001E-04   -0.80005E-05  3233   0.691E-03    0.950E-03
RMM:   7    -0.230228595057E+04   -0.12592E-05   -0.11022E-05  2834   0.453E-03
  68 F= -.23226065E+04 E0= -.23226065E+04  d E =-.236155E-01  mag=     4.0000
       N       E                     dE             d eps       ncg     rms          rms(c)
DAV:   1    -0.230228234252E+04    0.36068E-02   -0.66808E-01  4400   0.796E-01    0.329E-01
RMM:   2    -0.230229790807E+04   -0.15566E-01   -0.11183E-01  5947   0.183E-01    0.115E+00
RMM:   3    -0.230229232552E+04    0.55826E-02   -0.97372E-03  5553   0.593E-02    0.129E-01
RMM:   4    -0.230229236496E+04   -0.39434E-04   -0.15380E-03  4719   0.154E-02    0.109E-01
RMM:   5    -0.230229231570E+04    0.49257E-04   -0.18375E-04  4047   0.101E-02    0.129E-01
RMM:   6    -0.230229221568E+04    0.10003E-03   -0.20328E-04  4223   0.100E-02    0.161E-02
RMM:   7    -0.230229221391E+04    0.17617E-05   -0.25172E-05  2864   0.659E-03
  69 F= -.23226131E+04 E0= -.23226131E+04  d E =-.660291E-02  mag=     4.0000
       N       E                     dE             d eps       ncg     rms          rms(c)
DAV:   1    -0.230227003264E+04    0.22183E-01   -0.17073E+00  4392   0.127E+00    0.537E-01
RMM:   2    -0.230231155056E+04   -0.41518E-01   -0.29178E-01  5973   0.295E-01    0.192E+00
RMM:   3    -0.230229565312E+04    0.15897E-01   -0.25504E-02  5641   0.965E-02    0.203E-01
RMM:   4    -0.230229576721E+04   -0.11409E-03   -0.40444E-03  5047   0.248E-02    0.181E-01
RMM:   5    -0.230229563372E+04    0.13349E-03   -0.48518E-04  4795   0.155E-02    0.207E-01
RMM:   6    -0.230229537145E+04    0.26227E-03   -0.50678E-04  4834   0.147E-02    0.254E-02
RMM:   7    -0.230229536563E+04    0.58126E-05   -0.63171E-05  3007   0.893E-03
  70 F= -.23226168E+04 E0= -.23226168E+04  d E =-.103099E-01  mag=     4.0000
       N       E                     dE             d eps       ncg     rms          rms(c)
DAV:   1    -0.230229192298E+04    0.34485E-02   -0.49008E-01  4464   0.672E-01    0.272E-01
RMM:   2    -0.230230370546E+04   -0.11782E-01   -0.89525E-02  6072   0.155E-01    0.937E-01
RMM:   3    -0.230230012151E+04    0.35840E-02   -0.78691E-03  5578   0.497E-02    0.114E-01
RMM:   4    -0.230230017619E+04   -0.54681E-04   -0.11853E-03  4215   0.122E-02    0.890E-02
RMM:   5    -0.230230013970E+04    0.36497E-04   -0.11212E-04  3226   0.726E-03    0.975E-02
RMM:   6    -0.230230008317E+04    0.56532E-04   -0.12974E-04  3663   0.818E-03    0.148E-02
RMM:   7    -0.230230008422E+04   -0.10552E-05   -0.22696E-05  2856   0.543E-03
  71 F= -.23226218E+04 E0= -.23226218E+04  d E =-.490746E-02  mag=     4.0000
       N       E                     dE             d eps       ncg     rms          rms(c)
DAV:   1    -0.230223234591E+04    0.67737E-01   -0.44024E+00  4392   0.201E+00    0.831E-01
RMM:   2    -0.230234316815E+04   -0.11082E+00   -0.82728E-01  6132   0.473E-01    0.292E+00
RMM:   3    -0.230230637449E+04    0.36794E-01   -0.74211E-02  5765   0.151E-01    0.316E-01
RMM:   4    -0.230230686806E+04   -0.49356E-03   -0.11273E-02  5375   0.369E-02    0.266E-01
RMM:   5    -0.230230658298E+04    0.28507E-03   -0.10525E-03  5101   0.196E-02    0.315E-01
RMM:   6    -0.230230596901E+04    0.61398E-03   -0.11547E-03  5085   0.205E-02    0.434E-02
RMM:   7    -0.230230596166E+04    0.73444E-05   -0.19670E-04  4053   0.118E-02    0.259E-02
RMM:   8    -0.230230595517E+04    0.64910E-05   -0.25069E-05  2869   0.450E-03
  72 F= -.23226282E+04 E0= -.23226282E+04  d E =-.113607E-01  mag=     4.0000
       N       E                     dE             d eps       ncg     rms          rms(c)
DAV:   1    -0.230229963137E+04    0.63303E-02   -0.62527E-01  4448   0.746E-01    0.289E-01
RMM:   2    -0.230231373171E+04   -0.14100E-01   -0.11840E-01  6060   0.168E-01    0.875E-01
RMM:   3    -0.230231107482E+04    0.26569E-02   -0.11091E-02  5618   0.584E-02    0.156E-01
RMM:   4    -0.230231109057E+04   -0.15748E-04   -0.14577E-03  4554   0.139E-02    0.866E-02
RMM:   5    -0.230231105452E+04    0.36044E-04   -0.16775E-04  3619   0.928E-03    0.118E-01
RMM:   6    -0.230231097888E+04    0.75644E-04   -0.20044E-04  3969   0.978E-03    0.319E-02
RMM:   7    -0.230231097473E+04    0.41505E-05   -0.25640E-05  2862   0.580E-03
  73 F= -.23226333E+04 E0= -.23226333E+04  d E =-.504282E-02  mag=     4.0000
       N       E                     dE             d eps       ncg     rms          rms(c)
DAV:   1    -0.230226746385E+04    0.43515E-01   -0.26071E+00  4392   0.152E+00    0.599E-01
RMM:   2    -0.230232775286E+04   -0.60289E-01   -0.49850E-01  6043   0.341E-01    0.187E+00
RMM:   3    -0.230231506697E+04    0.12686E-01   -0.47736E-02  5714   0.118E-01    0.299E-01
RMM:   4    -0.230231518078E+04   -0.11381E-03   -0.60862E-03  5073   0.283E-02    0.175E-01
RMM:   5    -0.230231506567E+04    0.11511E-03   -0.67378E-04  4866   0.175E-02    0.252E-01
RMM:   6    -0.230231471574E+04    0.34993E-03   -0.79269E-04  4883   0.172E-02    0.613E-02
RMM:   7    -0.230231469783E+04    0.17912E-04   -0.96800E-05  3263   0.947E-03    0.186E-02
RMM:   8    -0.230231469717E+04    0.65230E-06   -0.14916E-05  2833   0.413E-03
  74 F= -.23226370E+04 E0= -.23226370E+04  d E =-.880730E-02  mag=     4.0000
       N       E                     dE             d eps       ncg     rms          rms(c)
DAV:   1    -0.230230653841E+04    0.81594E-02   -0.60224E-01  4456   0.696E-01    0.268E-01
RMM:   2    -0.230232054165E+04   -0.14003E-01   -0.12581E-01  6175   0.156E-01    0.750E-01
RMM:   3    -0.230231900778E+04    0.15339E-02   -0.11437E-02  5563   0.551E-02    0.170E-01
RMM:   4    -0.230231900812E+04   -0.33758E-06   -0.14430E-03  3863   0.125E-02    0.692E-02
RMM:   5    -0.230231897020E+04    0.37924E-04   -0.10541E-04  3173   0.704E-03    0.939E-02
RMM:   6    -0.230231892369E+04    0.46504E-04   -0.17628E-04  3521   0.854E-03    0.425E-02
RMM:   7    -0.230231891456E+04    0.91323E-05   -0.20705E-05  2859   0.528E-03
  75 F= -.23226412E+04 E0= -.23226412E+04  d E =-.414969E-02  mag=     4.0000
       N       E                     dE             d eps       ncg     rms          rms(c)
DAV:   1    -0.230221528008E+04    0.10364E+00   -0.54131E+00  4392   0.209E+00    0.841E-01
RMM:   2    -0.230234979678E+04   -0.13452E+00   -0.11579E+00  6193   0.473E-01    0.259E+00
RMM:   3    -0.230232727420E+04    0.22523E-01   -0.11143E-01  5805   0.162E-01    0.425E-01
RMM:   4    -0.230232770982E+04   -0.43562E-03   -0.13579E-02  5249   0.373E-02    0.211E-01
RMM:   5    -0.230232753458E+04    0.17523E-03   -0.11115E-03  4807   0.196E-02    0.333E-01
RMM:   6    -0.230232695755E+04    0.57703E-03   -0.15872E-03  5085   0.214E-02    0.114E-01
RMM:   7    -0.230232689180E+04    0.65757E-04   -0.21627E-04  4036   0.111E-02    0.293E-02
RMM:   8    -0.230232688669E+04    0.51033E-05   -0.23790E-05  2843   0.466E-03
  76 F= -.23226489E+04 E0= -.23226489E+04  d E =-.119199E-01  mag=     4.0000
       N       E                     dE             d eps       ncg     rms          rms(c)
DAV:   1    -0.230186955773E+04    0.45733E+00   -0.21679E+01  4392   0.418E+00    0.183E+00
RMM:   2    -0.230248346205E+04   -0.61390E+00   -0.49146E+00  6233   0.977E-01    0.605E+00
RMM:   3    -0.230232180327E+04    0.16166E+00   -0.48011E-01  5836   0.330E-01    0.712E-01
RMM:   4    -0.230232505055E+04   -0.32473E-02   -0.61145E-02  5334   0.769E-02    0.425E-01
RMM:   5    -0.230232531933E+04   -0.26878E-03   -0.47084E-03  5140   0.389E-02    0.822E-01
RMM:   6    -0.230232188345E+04    0.34359E-02   -0.56428E-03  5376   0.390E-02    0.144E-01
RMM:   7    -0.230232183589E+04    0.47557E-04   -0.12625E-03  4759   0.215E-02    0.110E-01
RMM:   8    -0.230232179592E+04    0.39979E-04   -0.13704E-04  3660   0.974E-03    0.549E-02
RMM:   9    -0.230232178755E+04    0.83624E-05   -0.55258E-05  3004   0.667E-03
  77 F= -.23226435E+04 E0= -.23226435E+04  d E =-.643448E-02  mag=     4.0000
       N       E                     dE             d eps       ncg     rms          rms(c)
DAV:   1    -0.230211449275E+04    0.20730E+00   -0.10304E+01  4392   0.287E+00    0.999E-01
RMM:   2    -0.230232072063E+04   -0.20623E+00   -0.20934E+00  6180   0.634E-01    0.159E+00
RMM:   3    -0.230233886582E+04   -0.18145E-01   -0.20325E-01  5861   0.212E-01    0.154E+00
RMM:   4    -0.230233005929E+04    0.88065E-02   -0.23526E-02  5770   0.554E-02    0.287E-01
RMM:   5    -0.230232900531E+04    0.10540E-02   -0.24876E-03  4984   0.251E-02    0.194E-01
RMM:   6    -0.230232843219E+04    0.57312E-03   -0.18372E-03  4910   0.244E-02    0.109E-01
RMM:   7    -0.230232838639E+04    0.45803E-04   -0.32363E-04  4477   0.162E-02    0.442E-02
RMM:   8    -0.230232837838E+04    0.80107E-05   -0.56161E-05  3160   0.585E-03
  78 F= -.23226503E+04 E0= -.23226503E+04  d E =-.132880E-01  mag=     4.0000
       N       E                     dE             d eps       ncg     rms          rms(c)
DAV:   1    -0.230231879944E+04    0.95869E-02   -0.70193E-01  4432   0.726E-01    0.279E-01
RMM:   2    -0.230233516030E+04   -0.16361E-01   -0.15141E-01  6287   0.165E-01    0.747E-01
RMM:   3    -0.230233395033E+04    0.12100E-02   -0.13826E-02  5608   0.567E-02    0.189E-01
RMM:   4    -0.230233393509E+04    0.15232E-04   -0.17292E-03  3985   0.133E-02    0.707E-02
RMM:   5    -0.230233388563E+04    0.49466E-04   -0.11183E-04  3236   0.710E-03    0.994E-02
RMM:   6    -0.230233382957E+04    0.56057E-04   -0.21823E-04  3746   0.915E-03    0.415E-02
RMM:   7    -0.230233381996E+04    0.96133E-05   -0.20923E-05  2869   0.534E-03
  79 F= -.23226557E+04 E0= -.23226557E+04  d E =-.540795E-02  mag=     4.0000
       N       E                     dE             d eps       ncg     rms          rms(c)
DAV:   1    -0.230220947040E+04    0.12436E+00   -0.63246E+00  4392   0.218E+00    0.909E-01
RMM:   2    -0.230237434652E+04   -0.16488E+00   -0.14137E+00  6236   0.508E-01    0.289E+00
RMM:   3    -0.230234552732E+04    0.28819E-01   -0.13806E-01  5858   0.173E-01    0.412E-01
RMM:   4    -0.230234634829E+04   -0.82098E-03   -0.16929E-02  5315   0.396E-02    0.219E-01
RMM:   5    -0.230234628967E+04    0.58629E-04   -0.13184E-03  4808   0.200E-02    0.394E-01
RMM:   6    -0.230234550746E+04    0.78220E-03   -0.18778E-03  5172   0.224E-02    0.114E-01
RMM:   7    -0.230234544542E+04    0.62045E-04   -0.27587E-04  4075   0.112E-02    0.382E-02
RMM:   8    -0.230234543467E+04    0.10747E-04   -0.28778E-05  2853   0.500E-03    0.201E-02
RMM:   9    -0.230234543056E+04    0.41106E-05   -0.17393E-05  2827   0.363E-03
  80 F= -.23226672E+04 E0= -.23226672E+04  d E =-.169393E-01  mag=     4.0000
       N       E                     dE             d eps       ncg     rms          rms(c)
DAV:   1    -0.230179451243E+04    0.55092E+00   -0.25328E+01  4392   0.436E+00    0.201E+00
RMM:   2    -0.230255512775E+04   -0.76062E+00   -0.60568E+00  6277   0.105E+00    0.656E+00
RMM:   3    -0.230234457522E+04    0.21055E+00   -0.60003E-01  5853   0.356E-01    0.736E-01
RMM:   4    -0.230234961448E+04   -0.50393E-02   -0.79452E-02  5346   0.823E-02    0.438E-01
RMM:   5    -0.230235057031E+04   -0.95583E-03   -0.53280E-03  5204   0.395E-02    0.951E-01
RMM:   6    -0.230234607571E+04    0.44946E-02   -0.65030E-03  5413   0.399E-02    0.148E-01
RMM:   7    -0.230234604533E+04    0.30388E-04   -0.16551E-03  4793   0.225E-02    0.140E-01
RMM:   8    -0.230234597715E+04    0.68178E-04   -0.15223E-04  3778   0.102E-02    0.712E-02
RMM:   9    -0.230234595406E+04    0.23085E-04   -0.62894E-05  3010   0.678E-03    0.238E-02
RMM:  10    -0.230234595137E+04    0.26934E-05   -0.22926E-05  2835   0.432E-03
  81 F= -.23226677E+04 E0= -.23226677E+04  d E =-.174002E-01  mag=     4.0000
       N       E                     dE             d eps       ncg     rms          rms(c)
DAV:   1    -0.230221963813E+04    0.12632E+00   -0.60275E+00  4392   0.212E+00    0.757E-01
RMM:   2    -0.230234383385E+04   -0.12420E+00   -0.12689E+00  6204   0.469E-01    0.119E+00
RMM:   3    -0.230235593981E+04   -0.12106E-01   -0.12341E-01  5809   0.163E-01    0.122E+00
RMM:   4    -0.230235051753E+04    0.54223E-02   -0.14883E-02  5660   0.420E-02    0.222E-01
RMM:   5    -0.230234990550E+04    0.61203E-03   -0.12878E-03  4678   0.185E-02    0.152E-01
RMM:   6    -0.230234957042E+04    0.33508E-03   -0.11295E-03  4850   0.186E-02    0.780E-02
RMM:   7    -0.230234954665E+04    0.23778E-04   -0.16112E-04  3899   0.118E-02    0.351E-02
RMM:   8    -0.230234954157E+04    0.50783E-05   -0.32971E-05  2913   0.472E-03
  82 F= -.23226713E+04 E0= -.23226713E+04  d E =-.210033E-01  mag=     4.0000
       N       E                     dE             d eps       ncg     rms          rms(c)
DAV:   1    -0.230229278140E+04    0.56765E-01   -0.28713E+00  4394   0.144E+00    0.615E-01
RMM:   2    -0.230236873639E+04   -0.75955E-01   -0.67401E-01  6223   0.347E-01    0.182E+00
RMM:   3    -0.230235898949E+04    0.97469E-02   -0.68530E-02  5860   0.123E-01    0.306E-01
RMM:   4    -0.230235932377E+04   -0.33428E-03   -0.84316E-03  5147   0.277E-02    0.151E-01
RMM:   5    -0.230235924556E+04    0.78210E-04   -0.58034E-04  4515   0.139E-02    0.272E-01
RMM:   6    -0.230235887929E+04    0.36627E-03   -0.95632E-04  4799   0.165E-02    0.881E-02
RMM:   7    -0.230235884051E+04    0.38781E-04   -0.11282E-04  3230   0.873E-03    0.240E-02
RMM:   8    -0.230235883658E+04    0.39268E-05   -0.14591E-05  2832   0.417E-03
  83 F= -.23226807E+04 E0= -.23226807E+04  d E =-.937044E-02  mag=     4.0000
       N       E                     dE             d eps       ncg     rms          rms(c)
DAV:   1    -0.230220352655E+04    0.15531E+00   -0.69414E+00  4392   0.224E+00    0.993E-01
RMM:   2    -0.230239684976E+04   -0.19332E+00   -0.16691E+00  6221   0.548E-01    0.302E+00
RMM:   3    -0.230236396868E+04    0.32881E-01   -0.17176E-01  5859   0.192E-01    0.429E-01
RMM:   4    -0.230236516030E+04   -0.11916E-02   -0.21537E-02  5338   0.433E-02    0.240E-01
RMM:   5    -0.230236512912E+04    0.31185E-04   -0.14958E-03  5050   0.213E-02    0.453E-01
RMM:   6    -0.230236406358E+04    0.10655E-02   -0.21350E-03  5226   0.237E-02    0.105E-01
RMM:   7    -0.230236402237E+04    0.41206E-04   -0.35645E-04  4309   0.125E-02    0.506E-02
RMM:   8    -0.230236400792E+04    0.14450E-04   -0.32174E-05  2865   0.538E-03    0.250E-02
RMM:   9    -0.230236400378E+04    0.41405E-05   -0.21511E-05  2833   0.377E-03
  84 F= -.23226860E+04 E0= -.23226860E+04  d E =-.146852E-01  mag=     4.0000
       N       E                     dE             d eps       ncg     rms          rms(c)
DAV:   1    -0.230232127815E+04    0.42730E-01   -0.22195E+00  4396   0.128E+00    0.542E-01
RMM:   2    -0.230237942806E+04   -0.58150E-01   -0.51429E-01  6155   0.309E-01    0.158E+00
RMM:   3    -0.230237173066E+04    0.76974E-02   -0.51312E-02  5836   0.108E-01    0.257E-01
RMM:   4    -0.230237201981E+04   -0.28915E-03   -0.64860E-03  5105   0.249E-02    0.134E-01
RMM:   5    -0.230237198846E+04    0.31344E-04   -0.48928E-04  4412   0.132E-02    0.249E-01
RMM:   6    -0.230237168318E+04    0.30529E-03   -0.78086E-04  4713   0.152E-02    0.687E-02
RMM:   7    -0.230237166222E+04    0.20955E-04   -0.95584E-05  3038   0.808E-03    0.235E-02
RMM:   8    -0.230237165894E+04    0.32785E-05   -0.12022E-05  2827   0.392E-03
  85 F= -.23226934E+04 E0= -.23226934E+04  d E =-.744962E-02  mag=     4.0000
       N       E                     dE             d eps       ncg     rms          rms(c)
DAV:   1    -0.230229928432E+04    0.72378E-01   -0.33425E+00  4392   0.157E+00    0.675E-01
[...]
       N       E                     dE             d eps       ncg     rms          rms(c)
DAV:   1    -0.230241651008E+04    0.33635E-04   -0.24074E-03  5168   0.508E-02    0.317E-02
RMM:   2    -0.230241661170E+04   -0.10162E-03   -0.31369E-04  3945   0.107E-02    0.138E-01
RMM:   3    -0.230241652997E+04    0.81726E-04   -0.69028E-05  2884   0.616E-03    0.121E-02
RMM:   4    -0.230241652906E+04    0.91078E-06   -0.11152E-05  2733   0.226E-03
 156 F= -.23227382E+04 E0= -.23227382E+04  d E =-.828255E-04  mag=     4.0000
       N       E                     dE             d eps       ncg     rms          rms(c)
DAV:   1    -0.230241628172E+04    0.24825E-03   -0.31938E-02  4396   0.183E-01    0.663E-02
RMM:   2    -0.230241684956E+04   -0.56784E-03   -0.37570E-03  5873   0.359E-02    0.239E-01
RMM:   3    -0.230241661866E+04    0.23090E-03   -0.34200E-04  3082   0.124E-02    0.266E-02
RMM:   4    -0.230241661470E+04    0.39626E-05   -0.50480E-05  2881   0.417E-03
 157 F= -.23227383E+04 E0= -.23227383E+04  d E =-.930550E-04  mag=     4.0000
       N       E                     dE             d eps       ncg     rms          rms(c)
DAV:   1    -0.230241654723E+04    0.71431E-04   -0.55328E-03  4624   0.763E-02    0.306E-02
RMM:   2    -0.230241663780E+04   -0.90570E-04   -0.61489E-04  5278   0.147E-02    0.935E-02
RMM:   3    -0.230241660600E+04    0.31803E-04   -0.73006E-05  2890   0.675E-03    0.221E-02
RMM:   4    -0.230241660350E+04    0.25005E-05   -0.94419E-06  2840   0.238E-03
 158 F= -.23227383E+04 E0= -.23227383E+04  d E =-.849382E-04  mag=     4.0000
       N       E                     dE             d eps       ncg     rms          rms(c)
DAV:   1    -0.230241638920E+04    0.21680E-03   -0.30581E-02  4396   0.178E-01    0.628E-02
RMM:   2    -0.230241685934E+04   -0.47014E-03   -0.34688E-03  5768   0.346E-02    0.199E-01
RMM:   3    -0.230241670737E+04    0.15196E-03   -0.31694E-04  3086   0.126E-02    0.322E-02
RMM:   4    -0.230241670158E+04    0.57962E-05   -0.45003E-05  2872   0.410E-03
 159 F= -.23227384E+04 E0= -.23227384E+04  d E =-.899067E-04  mag=     4.0000
       N       E                     dE             d eps       ncg     rms          rms(c)
DAV:   1    -0.230241668894E+04    0.18427E-04   -0.91233E-04  5192   0.308E-02    0.264E-02
RMM:   2    -0.230241676332E+04   -0.74373E-04   -0.16360E-04  3143   0.735E-03    0.126E-01
RMM:   3    -0.230241669554E+04    0.67780E-04   -0.44584E-05  2754   0.493E-03    0.755E-03
RMM:   4    -0.230241669525E+04    0.28408E-06   -0.75543E-06  2475   0.174E-03
 160 F= -.23227384E+04 E0= -.23227384E+04  d E =-.821038E-04  mag=     4.0000
       N       E                     dE             d eps       ncg     rms          rms(c)
DAV:   1    -0.230241656581E+04    0.12972E-03   -0.23779E-02  4396   0.158E-01    0.574E-02
RMM:   2    -0.230241688670E+04   -0.32089E-03   -0.25200E-03  5727   0.302E-02    0.154E-01
RMM:   3    -0.230241679901E+04    0.87690E-04   -0.22729E-04  3038   0.115E-02    0.424E-02
RMM:   4    -0.230241678880E+04    0.10214E-04   -0.28128E-05  2859   0.377E-03    0.154E-02
RMM:   5    -0.230241678649E+04    0.23048E-05   -0.10854E-05  2837   0.305E-03
 161 F= -.23227384E+04 E0= -.23227384E+04  d E =-.610448E-04  mag=     4.0000
       N       E                     dE             d eps       ncg     rms          rms(c)
DAV:   1    -0.230241678481E+04    0.39832E-05   -0.34990E-05  4360   0.658E-03    0.329E-03
RMM:   2    -0.230241678530E+04   -0.48990E-06   -0.56893E-06  2406   0.275E-03
 162 F= -.23227384E+04 E0= -.23227384E+04  d E =-.586721E-04  mag=     4.0000
       N       E                     dE             d eps       ncg     rms          rms(c)
DAV:   1    -0.230241661682E+04    0.16800E-03   -0.20357E-02  4396   0.142E-01    0.495E-02
RMM:   2    -0.230241687154E+04   -0.25472E-03   -0.23543E-03  5742   0.278E-02    0.101E-01
RMM:   3    -0.230241684920E+04    0.22343E-04   -0.20529E-04  2990   0.114E-02    0.497E-02
RMM:   4    -0.230241683726E+04    0.11934E-04   -0.25211E-05  2854   0.355E-03    0.131E-02
RMM:   5    -0.230241683443E+04    0.28305E-05   -0.98786E-06  2828   0.279E-03
 163 F= -.23227385E+04 E0= -.23227385E+04  d E =-.518949E-04  mag=     4.0000
       N       E                     dE             d eps       ncg     rms          rms(c)
DAV:   1    -0.230241683445E+04    0.28155E-05   -0.86393E-05  5088   0.964E-03    0.387E-03
RMM:   2    -0.230241683580E+04   -0.13556E-05   -0.10122E-05  2409   0.245E-03
 164 F= -.23227385E+04 E0= -.23227385E+04  d E =-.531096E-04  mag=     4.0000
       N       E                     dE             d eps       ncg     rms          rms(c)
DAV:   1    -0.230241668995E+04    0.14449E-03   -0.14124E-02  4396   0.117E-01    0.411E-02
RMM:   2    -0.230241687714E+04   -0.18719E-03   -0.18142E-03  5807   0.240E-02    0.738E-02
RMM:   3    -0.230241687318E+04    0.39609E-05   -0.16489E-04  2906   0.997E-03    0.467E-02
RMM:   4    -0.230241686375E+04    0.94315E-05   -0.19862E-05  2844   0.310E-03
 165 F= -.23227385E+04 E0= -.23227385E+04  d E =-.491089E-04  mag=     4.0000
       N       E                     dE             d eps       ncg     rms          rms(c)
DAV:   1    -0.230241685569E+04    0.17491E-04   -0.21240E-04  5072   0.147E-02    0.746E-03
RMM:   2    -0.230241685849E+04   -0.27991E-05   -0.30285E-05  2603   0.365E-03
 166 F= -.23227385E+04 E0= -.23227385E+04  d E =-.466345E-04  mag=     4.0000
       N       E                     dE             d eps       ncg     rms          rms(c)
DAV:   1    -0.230241674309E+04    0.11260E-03   -0.12434E-02  4396   0.112E-01    0.381E-02
RMM:   2    -0.230241689733E+04   -0.15424E-03   -0.15771E-03  5792   0.238E-02    0.477E-02
RMM:   3    -0.230241691069E+04   -0.13368E-04   -0.15044E-04  2879   0.970E-03    0.567E-02
RMM:   4    -0.230241689692E+04    0.13769E-04   -0.19218E-05  2833   0.311E-03    0.105E-02
RMM:   5    -0.230241689518E+04    0.17489E-05   -0.65828E-06  2800   0.216E-03
 167 F= -.23227386E+04 E0= -.23227386E+04  d E =-.456509E-04  mag=     4.0000
       N       E                     dE             d eps       ncg     rms          rms(c)
DAV:   1    -0.230241687316E+04    0.23762E-04   -0.14613E-03  4680   0.384E-02    0.134E-02
RMM:   2    -0.230241689109E+04   -0.17923E-04   -0.18895E-04  3521   0.866E-03    0.151E-02
RMM:   3    -0.230241689348E+04   -0.23928E-05   -0.19901E-05  2687   0.487E-03
 168 F= -.23227386E+04 E0= -.23227386E+04  d E =-.470721E-04  mag=     4.0000
       N       E                     dE             d eps       ncg     rms          rms(c)
DAV:   1    -0.230241680489E+04    0.86193E-04   -0.88339E-03  4396   0.916E-02    0.329E-02
RMM:   2    -0.230241694841E+04   -0.14352E-03   -0.12382E-03  5710   0.196E-02    0.853E-02
RMM:   3    -0.230241692540E+04    0.23011E-04   -0.12187E-04  2850   0.759E-03    0.220E-02
RMM:   4    -0.230241692404E+04    0.13615E-05   -0.16024E-05  2821   0.236E-03
 169 F= -.23227386E+04 E0= -.23227386E+04  d E =-.344608E-04  mag=     4.0000
       N       E                     dE             d eps       ncg     rms          rms(c)
DAV:   1    -0.230241688469E+04    0.40704E-04   -0.28235E-03  4472   0.518E-02    0.187E-02
RMM:   2    -0.230241692423E+04   -0.39539E-04   -0.38100E-04  4206   0.105E-02    0.356E-02
RMM:   3    -0.230241692400E+04    0.22765E-06   -0.41442E-05  2823   0.557E-03
 170 F= -.23227386E+04 E0= -.23227386E+04  d E =-.366643E-04  mag=     4.0000
       N       E                     dE             d eps       ncg     rms          rms(c)
DAV:   1    -0.230241683804E+04    0.86195E-04   -0.10567E-02  4396   0.101E-01    0.349E-02
RMM:   2    -0.230241697741E+04   -0.13938E-03   -0.13117E-03  5720   0.202E-02    0.695E-02
RMM:   3    -0.230241696967E+04    0.77478E-05   -0.12259E-04  2861   0.785E-03    0.372E-02
RMM:   4    -0.230241696306E+04    0.66046E-05   -0.15432E-05  2834   0.260E-03
 171 F= -.23227386E+04 E0= -.23227386E+04  d E =-.431622E-04  mag=     4.0000
       N       E                     dE             d eps       ncg     rms          rms(c)
DAV:   1    -0.230241693887E+04    0.30793E-04   -0.17652E-03  4720   0.413E-02    0.140E-02
RMM:   2    -0.230241695818E+04   -0.19305E-04   -0.21626E-04  3557   0.841E-03    0.852E-03
RMM:   3    -0.230241696011E+04   -0.19330E-05   -0.22494E-05  2769   0.495E-03
 172 F= -.23227386E+04 E0= -.23227386E+04  d E =-.419382E-04  mag=     4.0000
       N       E                     dE             d eps       ncg     rms          rms(c)
DAV:   1    -0.230241688332E+04    0.74856E-04   -0.10228E-02  4396   0.100E-01    0.360E-02
RMM:   2    -0.230241702403E+04   -0.14071E-03   -0.12229E-03  5589   0.197E-02    0.857E-02
RMM:   3    -0.230241700204E+04    0.21987E-04   -0.10801E-04  2875   0.855E-03    0.311E-02
RMM:   4    -0.230241699702E+04    0.50254E-05   -0.13449E-05  2834   0.254E-03
 173 F= -.23227387E+04 E0= -.23227387E+04  d E =-.378907E-04  mag=     4.0000
       N       E                     dE             d eps       ncg     rms          rms(c)
DAV:   1    -0.230241698273E+04    0.19312E-04   -0.11387E-03  4728   0.336E-02    0.127E-02
RMM:   2    -0.230241699732E+04   -0.14592E-04   -0.13483E-04  3208   0.686E-03    0.266E-02
RMM:   3    -0.230241699600E+04    0.13238E-05   -0.15091E-05  2603   0.416E-03
 174 F= -.23227387E+04 E0= -.23227387E+04  d E =-.371985E-04  mag=     4.0000
       N       E                     dE             d eps       ncg     rms          rms(c)
DAV:   1    -0.230241695040E+04    0.46918E-04   -0.79646E-03  4396   0.901E-02    0.309E-02
RMM:   2    -0.230241704163E+04   -0.91226E-04   -0.89799E-04  5555   0.175E-02    0.503E-02
RMM:   3    -0.230241704128E+04    0.35259E-06   -0.79271E-05  2865   0.798E-03
 175 F= -.23227387E+04 E0= -.23227387E+04  d E =-.470301E-04  mag=     4.0000
       N       E                     dE             d eps       ncg     rms          rms(c)
DAV:   1    -0.230241702714E+04    0.14486E-04   -0.63417E-04  5008   0.253E-02    0.130E-02
RMM:   2    -0.230241703393E+04   -0.67858E-05   -0.76618E-05  2953   0.544E-03
 176 F= -.23227387E+04 E0= -.23227387E+04  d E =-.401762E-04  mag=     4.0000
       N       E                     dE             d eps       ncg     rms          rms(c)
DAV:   1    -0.230241700876E+04    0.18379E-04   -0.53552E-03  4396   0.765E-02    0.315E-02
RMM:   2    -0.230241708781E+04   -0.79043E-04   -0.54261E-04  5176   0.164E-02    0.905E-02
RMM:   3    -0.230241705640E+04    0.31404E-04   -0.63384E-05  2861   0.778E-03    0.205E-02
RMM:   4    -0.230241705342E+04    0.29807E-05   -0.90052E-06  2812   0.257E-03
 177 F= -.23227387E+04 E0= -.23227387E+04  d E =-.259714E-04  mag=     4.0000
       N       E                     dE             d eps       ncg     rms          rms(c)
DAV:   1    -0.230241705275E+04    0.36499E-05   -0.12254E-05  3704   0.340E-03    0.141E-02
RMM:   2    -0.230241707657E+04   -0.23822E-04   -0.24604E-05  2556   0.224E-03    0.757E-02
RMM:   3    -0.230241705197E+04    0.24609E-04   -0.10805E-05  1942   0.192E-03    0.244E-03
RMM:   4    -0.230241705195E+04    0.16502E-07   -0.13981E-06  1031   0.700E-04
 178 F= -.23227387E+04 E0= -.23227387E+04  d E =-.246254E-04  mag=     4.0000
       N       E                     dE             d eps       ncg     rms          rms(c)
DAV:   1    -0.230241702373E+04    0.28236E-04   -0.50595E-03  4400   0.743E-02    0.263E-02
RMM:   2    -0.230241707206E+04   -0.48327E-04   -0.47710E-04  5440   0.140E-02    0.393E-02
RMM:   3    -0.230241707221E+04   -0.15541E-06   -0.41295E-05  2826   0.553E-03
 179 F= -.23227388E+04 E0= -.23227388E+04  d E =-.213979E-04  mag=     4.0000
       N       E                     dE             d eps       ncg     rms          rms(c)
DAV:   1    -0.230241706644E+04    0.56211E-05   -0.51424E-05  4576   0.700E-03    0.599E-03
RMM:   2    -0.230241706631E+04    0.12174E-06   -0.53730E-06  2311   0.227E-03
 180 F= -.23227388E+04 E0= -.23227388E+04  d E =-.154272E-04  mag=     4.0000
       N       E                     dE             d eps       ncg     rms          rms(c)
DAV:   1    -0.230241705564E+04    0.10800E-04   -0.37213E-03  4400   0.637E-02    0.259E-02
RMM:   2    -0.230241711557E+04   -0.59939E-04   -0.37747E-04  4818   0.129E-02    0.825E-02
RMM:   3    -0.230241708810E+04    0.27470E-04   -0.41455E-05  2818   0.612E-03    0.135E-02
RMM:   4    -0.230241708689E+04    0.12172E-05   -0.60067E-06  2643   0.199E-03
 181 F= -.23227388E+04 E0= -.23227388E+04  d E =-.193416E-04  mag=     4.0000
       N       E                     dE             d eps       ncg     rms          rms(c)
DAV:   1    -0.230241708614E+04    0.19645E-05   -0.35641E-05  4536   0.619E-03    0.103E-02
RMM:   2    -0.230241709804E+04   -0.11903E-04   -0.15275E-05  2445   0.247E-03    0.529E-02
RMM:   3    -0.230241708599E+04    0.12053E-04   -0.63965E-06  2214   0.179E-03    0.210E-03
RMM:   4    -0.230241708597E+04    0.24243E-07   -0.80263E-07   990   0.646E-04
 182 F= -.23227388E+04 E0= -.23227388E+04  d E =-.182972E-04  mag=     4.0000
       N       E                     dE             d eps       ncg     rms          rms(c)
DAV:   1    -0.230241707926E+04    0.67265E-05   -0.36732E-03  4400   0.630E-02    0.223E-02
RMM:   2    -0.230241711859E+04   -0.39329E-04   -0.37167E-04  5052   0.120E-02    0.398E-02
RMM:   3    -0.230241711608E+04    0.25151E-05   -0.33455E-05  2786   0.511E-03
 183 F= -.23227388E+04 E0= -.23227388E+04  d E =-.212928E-04  mag=     4.0000
       N       E                     dE             d eps       ncg     rms          rms(c)
DAV:   1    -0.230241711314E+04    0.54494E-05   -0.22189E-05  3936   0.446E-03    0.572E-03
RMM:   2    -0.230241711319E+04   -0.41822E-07   -0.30961E-06  2296   0.197E-03
 184 F= -.23227388E+04 E0= -.23227388E+04  d E =-.178903E-04  mag=     4.0000
       N       E                     dE             d eps       ncg     rms          rms(c)
DAV:   1    -0.230241710676E+04    0.63806E-05   -0.29494E-03  4380   0.564E-02    0.211E-02
RMM:   2    -0.230241714075E+04   -0.33992E-04   -0.30478E-04  4521   0.113E-02    0.425E-02
RMM:   3    -0.230241713634E+04    0.44148E-05   -0.28970E-05  2769   0.587E-03
 185 F= -.23227388E+04 E0= -.23227388E+04  d E =-.192365E-04  mag=     4.0000
       N       E                     dE             d eps       ncg     rms          rms(c)
DAV:   1    -0.230241713407E+04    0.66799E-05   -0.11901E-05  3752   0.332E-03    0.548E-03
RMM:   2    -0.230241713395E+04    0.12506E-06   -0.17638E-06  2273   0.165E-03
 186 F= -.23227388E+04 E0= -.23227388E+04  d E =-.166934E-04  mag=     4.0000
       N       E                     dE             d eps       ncg     rms          rms(c)
DAV:   1    -0.230241710475E+04    0.29322E-04   -0.26949E-03  4378   0.531E-02    0.198E-02
RMM:   2    -0.230241713954E+04   -0.34788E-04   -0.30074E-04  4371   0.109E-02    0.452E-02
RMM:   3    -0.230241713370E+04    0.58444E-05   -0.28642E-05  2690   0.574E-03
 187 F= -.23227388E+04 E0= -.23227388E+04  d E =-.981765E-05  mag=     4.0000
       N       E                     dE             d eps       ncg     rms          rms(c)
DAV:   1    -0.230241713385E+04    0.56911E-05   -0.76752E-05  4592   0.907E-03    0.554E-03
RMM:   2    -0.230241713445E+04   -0.60434E-06   -0.85810E-06  2312   0.221E-03
 188 F= -.23227388E+04 E0= -.23227388E+04  d E =-.902730E-05  mag=     4.0000
       N       E                     dE             d eps       ncg     rms          rms(c)
DAV:   1    -0.230241711374E+04    0.20107E-04   -0.26494E-03  4382   0.532E-02    0.200E-02
RMM:   2    -0.230241714875E+04   -0.35002E-04   -0.27792E-04  4061   0.110E-02    0.509E-02
RMM:   3    -0.230241714013E+04    0.86186E-05   -0.28439E-05  2706   0.575E-03
 189 F= -.23227388E+04 E0= -.23227388E+04  d E =-.134221E-04  mag=     4.0000
       N       E                     dE             d eps       ncg     rms          rms(c)
DAV:   1    -0.230241713847E+04    0.10272E-04   -0.13013E-05  3784   0.379E-03    0.547E-03
RMM:   2    -0.230241713945E+04   -0.97547E-06   -0.32319E-06  2274   0.213E-03
 190 F= -.23227388E+04 E0= -.23227388E+04  d E =-.132141E-04  mag=     4.0000
       N       E                     dE             d eps       ncg     rms          rms(c)
DAV:   1    -0.230241713382E+04    0.46494E-05   -0.22695E-03  4364   0.486E-02    0.168E-02
RMM:   2    -0.230241715520E+04   -0.21373E-04   -0.23790E-04  3976   0.960E-03    0.874E-03
RMM:   3    -0.230241715620E+04   -0.10004E-05   -0.22496E-05  2619   0.523E-03
 191 F= -.23227388E+04 E0= -.23227388E+04  d E =-.119626E-04  mag=     4.0000
       N       E                     dE             d eps       ncg     rms          rms(c)
DAV:   1    -0.230241715654E+04   -0.13411E-05   -0.16254E-05  3848   0.406E-03    0.112E-02
RMM:   2    -0.230241716979E+04   -0.13254E-04   -0.17421E-05  2388   0.270E-03    0.562E-02
RMM:   3    -0.230241715612E+04    0.13672E-04   -0.63393E-06  1776   0.151E-03    0.247E-03
RMM:   4    -0.230241715619E+04   -0.65222E-07   -0.95392E-07  1214   0.769E-04
 192 F= -.23227388E+04 E0= -.23227388E+04  d E =-.115783E-04  mag=     4.0000
       N       E                     dE             d eps       ncg     rms          rms(c)
DAV:   1    -0.230241715397E+04    0.21463E-05   -0.21529E-03  4348   0.466E-02    0.156E-02
RMM:   2    -0.230241717617E+04   -0.22198E-04   -0.24198E-04  3861   0.919E-03    0.105E-02
RMM:   3    -0.230241717916E+04   -0.29865E-05   -0.22315E-05  2538   0.490E-03
 193 F= -.23227389E+04 E0= -.23227389E+04  d E =-.123306E-04  mag=     4.0000
       N       E                     dE             d eps       ncg     rms          rms(c)
DAV:   1    -0.230241717734E+04   -0.11630E-05   -0.15014E-05  3328   0.274E-03    0.592E-03
RMM:   2    -0.230241717935E+04   -0.20100E-05   -0.29634E-06  2165   0.136E-03
 194 F= -.23227389E+04 E0= -.23227389E+04  d E =-.124394E-04  mag=     4.0000
       N       E                     dE             d eps       ncg     rms          rms(c)
DAV:   1    -0.230241716836E+04    0.89711E-05   -0.19104E-03  4352   0.441E-02    0.155E-02
RMM:   2    -0.230241719061E+04   -0.22245E-04   -0.21984E-04  3683   0.935E-03    0.246E-02
RMM:   3    -0.230241719083E+04   -0.21645E-06   -0.23340E-05  2429   0.521E-03
 195 F= -.23227389E+04 E0= -.23227389E+04  d E =-.121367E-04  mag=     4.0000
       N       E                     dE             d eps       ncg     rms          rms(c)
DAV:   1    -0.230241718795E+04    0.26574E-05   -0.13756E-04  5040   0.118E-02    0.681E-03
RMM:   2    -0.230241719018E+04   -0.22298E-05   -0.19126E-05  2372   0.297E-03
 196 F= -.23227389E+04 E0= -.23227389E+04  d E =-.116687E-04  mag=     4.0000
       N       E                     dE             d eps       ncg     rms          rms(c)
DAV:   1    -0.230241717251E+04    0.15445E-04   -0.15405E-03  4300   0.388E-02    0.142E-02
RMM:   2    -0.230241719320E+04   -0.20693E-04   -0.18765E-04  3397   0.875E-03    0.310E-02
RMM:   3    -0.230241719145E+04    0.17452E-05   -0.23516E-05  2360   0.514E-03
 197 F= -.23227389E+04 E0= -.23227389E+04  d E =-.839852E-05  mag=     4.0000
       N       E                     dE             d eps       ncg     rms          rms(c)
DAV:   1    -0.230241718931E+04    0.38906E-05   -0.34822E-05  4072   0.594E-03    0.499E-03
RMM:   2    -0.230241718987E+04   -0.56124E-06   -0.57820E-06  2273   0.233E-03
 198 F= -.23227389E+04 E0= -.23227389E+04  d E =-.787872E-05  mag=     4.0000
       N       E                     dE             d eps       ncg     rms          rms(c)
DAV:   1    -0.230241718956E+04   -0.24802E-06   -0.89322E-04  4252   0.304E-02    0.112E-02
RMM:   2    -0.230241719979E+04   -0.10235E-04   -0.99932E-05  2929   0.665E-03    0.184E-02
RMM:   3    -0.230241719991E+04   -0.12081E-06   -0.11635E-05  2242   0.405E-03
 199 F= -.23227389E+04 E0= -.23227389E+04  d E =-.127791E-04  mag=     4.0000
