       N       E                     dE             d eps       ncg     rms          rms(c)
DAV:   1     0.125471590222E+05    0.12547E+05   -0.81867E+05  4376   0.143E+03
DAV:   2    -0.107302313925E+04   -0.13620E+05   -0.13063E+05  5360   0.330E+02
DAV:   3    -0.247146533472E+04   -0.13984E+04   -0.13874E+04  5272   0.109E+02
DAV:   4    -0.251011797650E+04   -0.38653E+02   -0.38484E+02  6272   0.253E+01
DAV:   5    -0.251089589703E+04   -0.77792E+00   -0.77694E+00  5488   0.296E+00    0.170E+02
RMM:   6    -0.147150928318E+04    0.10394E+04   -0.19455E+03  4350   0.392E+01    0.735E+01
RMM:   7    -0.163727633009E+04   -0.16577E+03   -0.28699E+02  4850   0.144E+01    0.523E+01
RMM:   8    -0.168046786668E+04   -0.43192E+02   -0.53139E+01  4757   0.752E+00    0.373E+01
RMM:   9    -0.181747764574E+04   -0.13701E+03   -0.69743E+01  4468   0.839E+00    0.260E+01
RMM:  10    -0.195543382076E+04   -0.13796E+03   -0.53451E+01  4616   0.707E+00    0.168E+01
RMM:  11    -0.206772491993E+04   -0.11229E+03   -0.54821E+01  4392   0.564E+00    0.132E+01
RMM:  12    -0.225437658726E+04   -0.18665E+03   -0.19510E+02  4341   0.933E+00    0.640E+00
RMM:  13    -0.229224296344E+04   -0.37866E+02   -0.42556E+01  4400   0.461E+00    0.418E+00
RMM:  14    -0.229987865879E+04   -0.76357E+01   -0.96363E+00  4574   0.273E+00    0.543E+00
RMM:  15    -0.230027387703E+04   -0.39522E+00   -0.16692E+00  5054   0.110E+00    0.535E+00
RMM:  16    -0.230031484078E+04   -0.40964E-01   -0.15689E-01  5670   0.217E-01    0.530E+00
RMM:  17    -0.230043589885E+04   -0.12106E+00   -0.42930E-02  4624   0.166E-01    0.529E+00
RMM:  18    -0.230178921116E+04   -0.13533E+01   -0.19261E+00  4346   0.995E-01    0.547E+00
RMM:  19    -0.230279349704E+04   -0.10043E+01   -0.11515E+00  4356   0.764E-01    0.605E+00
RMM:  20    -0.230288754395E+04   -0.94047E-01   -0.71768E-01  4961   0.705E-01    0.313E+00
RMM:  21    -0.230302803472E+04   -0.14049E+00   -0.65270E-01  5183   0.637E-01    0.116E+00
RMM:  22    -0.230313908908E+04   -0.11105E+00   -0.27562E-01  4745   0.343E-01    0.915E-01
RMM:  23    -0.230316456703E+04   -0.25478E-01   -0.23089E-02  4726   0.153E-01    0.532E-01
RMM:  24    -0.230321831155E+04   -0.53745E-01   -0.32133E-02  4431   0.136E-01    0.252E-01
RMM:  25    -0.230323358896E+04   -0.15277E-01   -0.49694E-03  4425   0.767E-02    0.173E-01
RMM:  26    -0.230325409493E+04   -0.20506E-01   -0.59775E-03  4352   0.509E-02    0.159E-01
RMM:  27    -0.230326177696E+04   -0.76820E-02   -0.21767E-03  4560   0.377E-02    0.101E-01
RMM:  28    -0.230326740931E+04   -0.56324E-02   -0.42331E-03  4504   0.456E-02    0.126E-01
RMM:  29    -0.230327009477E+04   -0.26855E-02   -0.97969E-04  4349   0.350E-02    0.730E-02
RMM:  30    -0.230327076864E+04   -0.67387E-03   -0.54064E-04  4683   0.182E-02    0.266E-02
RMM:  31    -0.230327105806E+04   -0.28943E-03   -0.12131E-04  3895   0.132E-02    0.111E-02
RMM:  32    -0.230327116911E+04   -0.11105E-03   -0.58187E-05  3503   0.604E-03    0.605E-03
RMM:  33    -0.230327120921E+04   -0.40100E-04   -0.12613E-05  2834   0.492E-03    0.795E-03
RMM:  34    -0.230327122773E+04   -0.18517E-04   -0.64983E-06  2784   0.263E-03    0.316E-03
RMM:  35    -0.230327123245E+04   -0.47154E-05   -0.29531E-06  2717   0.215E-03
   1 F= -.23233198E+04 E0= -.23233198E+04  d E =-.232332E+04  mag=     0.0000
       N       E                     dE             d eps       ncg     rms          rms(c)
DAV:   1    -0.230279241809E+04    0.47881E+00   -0.58036E+01  4720   0.381E+00    0.283E+00
RMM:   2    -0.230378484609E+04   -0.99243E+00   -0.10627E+01  6378   0.134E+00    0.256E+00
RMM:   3    -0.230367634687E+04    0.10850E+00   -0.90186E-01  4923   0.492E-01    0.890E-01
RMM:   4    -0.230367306366E+04    0.32832E-02   -0.77117E-02  5346   0.757E-02    0.555E-01
RMM:   5    -0.230366955230E+04    0.35114E-02   -0.19366E-02  5069   0.620E-02    0.153E-01
RMM:   6    -0.230366918935E+04    0.36295E-03   -0.27460E-03  4652   0.233E-02    0.823E-02
RMM:   7    -0.230366902425E+04    0.16509E-03   -0.10210E-03  4450   0.152E-02    0.537E-02
RMM:   8    -0.230366894024E+04    0.84011E-04   -0.16553E-04  3315   0.844E-03    0.169E-02
RMM:   9    -0.230366892877E+04    0.11466E-04   -0.35098E-05  2874   0.432E-03    0.855E-03
RMM:  10    -0.230366891895E+04    0.98274E-05   -0.17976E-05  2856   0.389E-03
   2 F= -.23237193E+04 E0= -.23237193E+04  d E =-.399566E+00  mag=     0.0000
       N       E                     dE             d eps       ncg     rms          rms(c)
DAV:   1    -0.230366173162E+04    0.71972E-02   -0.11891E+00  4928   0.567E-01    0.377E-01
RMM:   2    -0.230368198485E+04   -0.20253E-01   -0.22880E-01  6081   0.173E-01    0.270E-01
RMM:   3    -0.230368394070E+04   -0.19558E-02   -0.33871E-02  4307   0.965E-02    0.207E-01
RMM:   4    -0.230368363319E+04    0.30751E-03   -0.22494E-03  3745   0.144E-02    0.921E-02
RMM:   5    -0.230368354224E+04    0.90950E-04   -0.22492E-04  3252   0.654E-03    0.349E-02
RMM:   6    -0.230368353473E+04    0.75121E-05   -0.69869E-05  2904   0.562E-03
   3 F= -.23237337E+04 E0= -.23237337E+04  d E =-.413971E+00  mag=     0.0000
       N       E                     dE             d eps       ncg     rms          rms(c)
DAV:   1    -0.230368353275E+04    0.94904E-05   -0.46226E-04  4436   0.120E-02    0.894E-03
RMM:   2    -0.230368353943E+04   -0.66789E-05   -0.75569E-05  2836   0.347E-03
   4 F= -.23237337E+04 E0= -.23237337E+04  d E =-.413980E+00  mag=     0.0000
       N       E                     dE             d eps       ncg     rms          rms(c)
DAV:   1    -0.230368640230E+04   -0.28695E-02   -0.88349E-01  4496   0.896E-01    0.343E-01
RMM:   2    -0.230369538545E+04   -0.89832E-02   -0.10261E-01  5872   0.194E-01    0.167E-01
RMM:   3    -0.230369597266E+04   -0.58721E-03   -0.11227E-02  5162   0.840E-02    0.155E-01
RMM:   4    -0.230369565930E+04    0.31336E-03   -0.10571E-03  4740   0.175E-02    0.621E-02
RMM:   5    -0.230369558074E+04    0.78557E-04   -0.26295E-04  4295   0.117E-02    0.187E-02
RMM:   6    -0.230369556940E+04    0.11343E-04   -0.40337E-05  3114   0.758E-03    0.715E-03
RMM:   7    -0.230369556623E+04    0.31742E-05   -0.99859E-06  2800   0.403E-03
   5 F= -.23237461E+04 E0= -.23237461E+04  d E =-.123792E-01  mag=     0.0000
       N       E                     dE             d eps       ncg     rms          rms(c)
DAV:   1    -0.230368972161E+04    0.58478E-02   -0.87405E-01  4480   0.896E-01    0.341E-01
RMM:   2    -0.230369878693E+04   -0.90653E-02   -0.10343E-01  5850   0.196E-01    0.170E-01
RMM:   3    -0.230369936843E+04   -0.58149E-03   -0.11314E-02  5176   0.878E-02    0.156E-01
RMM:   4    -0.230369904258E+04    0.32585E-03   -0.10573E-03  4715   0.178E-02    0.618E-02
RMM:   5    -0.230369896212E+04    0.80452E-04   -0.26831E-04  4309   0.118E-02    0.188E-02
RMM:   6    -0.230369895030E+04    0.11823E-04   -0.42097E-05  3188   0.778E-03    0.719E-03
RMM:   7    -0.230369894706E+04    0.32419E-05   -0.10277E-05  2803   0.396E-03
   6 F= -.23237498E+04 E0= -.23237498E+04  d E =-.161031E-01  mag=     0.0000
       N       E                     dE             d eps       ncg     rms          rms(c)
DAV:   1    -0.230370227401E+04   -0.33237E-02   -0.38476E-01  4464   0.541E-01    0.182E-01
RMM:   2    -0.230370599905E+04   -0.37250E-02   -0.41242E-02  6033   0.118E-01    0.994E-02
RMM:   3    -0.230370626779E+04   -0.26874E-03   -0.46123E-03  4743   0.506E-02    0.909E-02
RMM:   4    -0.230370617565E+04    0.92136E-04   -0.40800E-04  3515   0.992E-03    0.383E-02
RMM:   5    -0.230370614971E+04    0.25944E-04   -0.90493E-05  3631   0.714E-03    0.126E-02
RMM:   6    -0.230370614619E+04    0.35162E-05   -0.16833E-05  2823   0.552E-03
   7 F= -.23237573E+04 E0= -.23237573E+04  d E =-.740994E-02  mag=     0.0000
       N       E                     dE             d eps       ncg     rms          rms(c)
DAV:   1    -0.230368124741E+04    0.24902E-01   -0.34548E+00  4432   0.163E+00    0.542E-01
RMM:   2    -0.230371476058E+04   -0.33513E-01   -0.37193E-01  6040   0.351E-01    0.288E-01
RMM:   3    -0.230371730095E+04   -0.25404E-02   -0.40645E-02  5390   0.142E-01    0.271E-01
RMM:   4    -0.230371652558E+04    0.77537E-03   -0.38813E-03  5032   0.290E-02    0.117E-01
RMM:   5    -0.230371625486E+04    0.27072E-03   -0.83217E-04  4586   0.184E-02    0.403E-02
RMM:   6    -0.230371620480E+04    0.50057E-04   -0.15564E-04  4313   0.123E-02    0.136E-02
RMM:   7    -0.230371618927E+04    0.15530E-04   -0.24452E-05  3044   0.456E-03    0.901E-03
RMM:   8    -0.230371617454E+04    0.14730E-04   -0.20894E-05  2894   0.435E-03    0.373E-03
RMM:   9    -0.230371617277E+04    0.17739E-05   -0.72119E-06  2784   0.380E-03
   8 F= -.23237679E+04 E0= -.23237679E+04  d E =-.180240E-01  mag=     0.0000
       N       E                     dE             d eps       ncg     rms          rms(c)
DAV:   1    -0.230371932040E+04   -0.31459E-02   -0.32935E-01  4576   0.474E-01    0.187E-01
RMM:   2    -0.230372309343E+04   -0.37730E-02   -0.40248E-02  6233   0.109E-01    0.153E-01
RMM:   3    -0.230372294006E+04    0.15336E-03   -0.40090E-03  4479   0.316E-02    0.664E-02
RMM:   4    -0.230372289804E+04    0.42017E-04   -0.39497E-04  3679   0.886E-03    0.360E-02
RMM:   5    -0.230372288541E+04    0.12631E-04   -0.62528E-05  3087   0.762E-03    0.115E-02
RMM:   6    -0.230372288418E+04    0.12290E-05   -0.14032E-05  2799   0.418E-03
   9 F= -.23237748E+04 E0= -.23237748E+04  d E =-.692067E-02  mag=     0.0000
       N       E                     dE             d eps       ncg     rms          rms(c)
DAV:   1    -0.230369801681E+04    0.24869E-01   -0.29411E+00  4368   0.142E+00    0.566E-01
RMM:   2    -0.230373437377E+04   -0.36357E-01   -0.38578E-01  6264   0.338E-01    0.479E-01
RMM:   3    -0.230373283713E+04    0.15366E-02   -0.38508E-02  5487   0.944E-02    0.204E-01
RMM:   4    -0.230373234196E+04    0.49517E-03   -0.29236E-03  4373   0.234E-02    0.114E-01
RMM:   5    -0.230373218701E+04    0.15496E-03   -0.71754E-04  4358   0.223E-02    0.341E-02
RMM:   6    -0.230373216925E+04    0.17756E-04   -0.13062E-04  3433   0.851E-03    0.182E-02
RMM:   7    -0.230373216141E+04    0.78436E-05   -0.23542E-05  2845   0.502E-03
  10 F= -.23237846E+04 E0= -.23237846E+04  d E =-.167674E-01  mag=     0.0000
       N       E                     dE             d eps       ncg     rms          rms(c)
DAV:   1    -0.230373486666E+04   -0.26974E-02   -0.39267E-01  4400   0.503E-01    0.185E-01
RMM:   2    -0.230373803511E+04   -0.31684E-02   -0.33956E-02  6192   0.107E-01    0.147E-01
RMM:   3    -0.230373789815E+04    0.13695E-03   -0.31827E-03  4411   0.316E-02    0.675E-02
RMM:   4    -0.230373784005E+04    0.58100E-04   -0.19973E-04  3576   0.785E-03    0.355E-02
RMM:   5    -0.230373783360E+04    0.64491E-05   -0.63120E-05  3175   0.744E-03
  11 F= -.23237905E+04 E0= -.23237905E+04  d E =-.581631E-02  mag=     0.0000
       N       E                     dE             d eps       ncg     rms          rms(c)
DAV:   1    -0.230372267296E+04    0.15167E-01   -0.27133E+00  4360   0.132E+00    0.484E-01
RMM:   2    -0.230374471052E+04   -0.22038E-01   -0.23652E-01  6196   0.284E-01    0.379E-01
RMM:   3    -0.230374373479E+04    0.97573E-03   -0.21225E-02  5364   0.797E-02    0.174E-01
RMM:   4    -0.230374333889E+04    0.39589E-03   -0.16121E-03  4346   0.192E-02    0.916E-02
RMM:   5    -0.230374327050E+04    0.68391E-04   -0.43150E-04  4482   0.175E-02    0.179E-02
RMM:   6    -0.230374326127E+04    0.92315E-05   -0.50920E-05  2926   0.659E-03
  12 F= -.23237962E+04 E0= -.23237962E+04  d E =-.115951E-01  mag=     0.0000
       N       E                     dE             d eps       ncg     rms          rms(c)
DAV:   1    -0.230373966864E+04    0.36019E-02   -0.61004E-01  4400   0.684E-01    0.244E-01
RMM:   2    -0.230374662441E+04   -0.69558E-02   -0.75768E-02  6190   0.150E-01    0.140E-01
RMM:   3    -0.230374695979E+04   -0.33538E-03   -0.75545E-03  5168   0.396E-02    0.815E-02
RMM:   4    -0.230374687670E+04    0.83086E-04   -0.42528E-04  3898   0.955E-03    0.496E-02
RMM:   5    -0.230374685062E+04    0.26079E-04   -0.14096E-04  3648   0.957E-03    0.160E-02
RMM:   6    -0.230374684820E+04    0.24267E-05   -0.20703E-05  2824   0.513E-03
  13 F= -.23237999E+04 E0= -.23237999E+04  d E =-.369312E-02  mag=     0.0000
       N       E                     dE             d eps       ncg     rms          rms(c)
DAV:   1    -0.230372559133E+04    0.21259E-01   -0.19867E+00  4392   0.124E+00    0.444E-01
RMM:   2    -0.230374871068E+04   -0.23119E-01   -0.25155E-01  6213   0.276E-01    0.263E-01
RMM:   3    -0.230374963653E+04   -0.92585E-03   -0.24527E-02  5608   0.704E-02    0.150E-01
RMM:   4    -0.230374934577E+04    0.29076E-03   -0.14324E-03  4541   0.166E-02    0.907E-02
RMM:   5    -0.230374924148E+04    0.10429E-03   -0.46729E-04  4373   0.161E-02    0.264E-02
RMM:   6    -0.230374923103E+04    0.10459E-04   -0.57748E-05  3163   0.772E-03    0.119E-02
RMM:   7    -0.230374922798E+04    0.30498E-05   -0.15109E-05  2823   0.374E-03
  14 F= -.23238025E+04 E0= -.23238025E+04  d E =-.623579E-02  mag=     0.0000
       N       E                     dE             d eps       ncg     rms          rms(c)
DAV:   1    -0.230374218566E+04    0.70454E-02   -0.90262E-01  4416   0.834E-01    0.280E-01
RMM:   2    -0.230375376117E+04   -0.11576E-01   -0.12648E-01  6255   0.191E-01    0.124E-01
RMM:   3    -0.230375441844E+04   -0.65727E-03   -0.10236E-02  5557   0.459E-02    0.831E-02
RMM:   4    -0.230375446672E+04   -0.48272E-04   -0.95271E-04  3780   0.127E-02    0.586E-02
RMM:   5    -0.230375442186E+04    0.44853E-04   -0.14080E-04  3409   0.755E-03    0.391E-02
RMM:   6    -0.230375440556E+04    0.16303E-04   -0.64072E-05  2950   0.668E-03    0.946E-03
RMM:   7    -0.230375440398E+04    0.15848E-05   -0.94234E-06  2808   0.399E-03
  15 F= -.23238078E+04 E0= -.23238078E+04  d E =-.532834E-02  mag=     0.0000
       N       E                     dE             d eps       ncg     rms          rms(c)
DAV:   1    -0.230371678580E+04    0.37620E-01   -0.31236E+00  4400   0.154E+00    0.517E-01
RMM:   2    -0.230375613263E+04   -0.39347E-01   -0.43011E-01  6250   0.358E-01    0.230E-01
RMM:   3    -0.230375826984E+04   -0.21372E-02   -0.33562E-02  5739   0.808E-02    0.152E-01
RMM:   4    -0.230375838596E+04   -0.11612E-03   -0.31700E-03  4682   0.225E-02    0.993E-02
RMM:   5    -0.230375827999E+04    0.10597E-03   -0.43307E-04  4389   0.124E-02    0.740E-02
RMM:   6    -0.230375821206E+04    0.67924E-04   -0.20467E-04  3730   0.101E-02    0.195E-02
RMM:   7    -0.230375820385E+04    0.82147E-05   -0.22579E-05  2836   0.474E-03
  16 F= -.23238118E+04 E0= -.23238118E+04  d E =-.934996E-02  mag=     0.0000
       N       E                     dE             d eps       ncg     rms          rms(c)
DAV:   1    -0.230375106513E+04    0.71469E-02   -0.11141E+00  4352   0.931E-01    0.305E-01
RMM:   2    -0.230376261843E+04   -0.11553E-01   -0.12762E-01  6198   0.204E-01    0.142E-01
RMM:   3    -0.230376347268E+04   -0.85425E-03   -0.11831E-02  5420   0.515E-02    0.133E-01
RMM:   4    -0.230376341249E+04    0.60185E-04   -0.97110E-04  3709   0.144E-02    0.792E-02
RMM:   5    -0.230376333602E+04    0.76473E-04   -0.16261E-04  3846   0.870E-03    0.336E-02
RMM:   6    -0.230376332932E+04    0.67025E-05   -0.48372E-05  3041   0.735E-03
  17 F= -.23238171E+04 E0= -.23238171E+04  d E =-.526499E-02  mag=    -0.0000
       N       E                     dE             d eps       ncg     rms          rms(c)
DAV:   1    -0.230375201109E+04    0.11325E-01   -0.11460E+00  4352   0.944E-01    0.310E-01
RMM:   2    -0.230376395820E+04   -0.11947E-01   -0.13208E-01  6210   0.209E-01    0.144E-01
RMM:   3    -0.230376486918E+04   -0.91098E-03   -0.12208E-02  5514   0.542E-02    0.140E-01
RMM:   4    -0.230376478892E+04    0.80255E-04   -0.10780E-03  3713   0.146E-02    0.788E-02
RMM:   5    -0.230376470530E+04    0.83624E-04   -0.17841E-04  3882   0.886E-03    0.335E-02
RMM:   6    -0.230376469703E+04    0.82714E-05   -0.49294E-05  3061   0.747E-03
  18 F= -.23238186E+04 E0= -.23238186E+04  d E =-.674695E-02  mag=     0.0000
       N       E                     dE             d eps       ncg     rms          rms(c)
DAV:   1    -0.230375311610E+04    0.11589E-01   -0.14079E+00  4384   0.111E+00    0.347E-01
RMM:   2    -0.230376900427E+04   -0.15888E-01   -0.17306E-01  6225   0.234E-01    0.177E-01
RMM:   3    -0.230376986915E+04   -0.86488E-03   -0.15931E-02  5547   0.612E-02    0.108E-01
RMM:   4    -0.230376979163E+04    0.77522E-04   -0.95503E-04  4232   0.135E-02    0.719E-02
RMM:   5    -0.230376974478E+04    0.46848E-04   -0.27834E-04  4017   0.122E-02    0.299E-02
RMM:   6    -0.230376973720E+04    0.75768E-05   -0.49109E-05  2997   0.667E-03
  19 F= -.23238235E+04 E0= -.23238235E+04  d E =-.497480E-02  mag=     0.0000
       N       E                     dE             d eps       ncg     rms          rms(c)
DAV:   1    -0.230368043658E+04    0.89308E-01   -0.79303E+00  4368   0.264E+00    0.824E-01
RMM:   2    -0.230377131739E+04   -0.90881E-01   -0.98930E-01  6212   0.569E-01    0.435E-01
RMM:   3    -0.230377558977E+04   -0.42724E-02   -0.87793E-02  5716   0.140E-01    0.265E-01
RMM:   4    -0.230377505846E+04    0.53131E-03   -0.54869E-03  4731   0.313E-02    0.175E-01
RMM:   5    -0.230377474523E+04    0.31322E-03   -0.16454E-03  4615   0.279E-02    0.657E-02
RMM:   6    -0.230377470250E+04    0.42738E-04   -0.25313E-04  4273   0.141E-02    0.317E-02
RMM:   7    -0.230377468074E+04    0.21759E-04   -0.48622E-05  2892   0.477E-03    0.171E-02
RMM:   8    -0.230377467436E+04    0.63798E-05   -0.27849E-05  2877   0.385E-03
  20 F= -.23238282E+04 E0= -.23238282E+04  d E =-.965727E-02  mag=    -0.0000
       N       E                     dE             d eps       ncg     rms          rms(c)
DAV:   1    -0.230377438611E+04    0.29463E-03   -0.40270E-01  4560   0.586E-01    0.164E-01
RMM:   2    -0.230377792623E+04   -0.35401E-02   -0.38148E-02  6168   0.116E-01    0.875E-02
RMM:   3    -0.230377811315E+04   -0.18692E-03   -0.33035E-03  4749   0.300E-02    0.555E-02
RMM:   4    -0.230377809294E+04    0.20213E-04   -0.22105E-04  3284   0.743E-03    0.364E-02
RMM:   5    -0.230377808416E+04    0.87746E-05   -0.78877E-05  3106   0.717E-03
  21 F= -.23238315E+04 E0= -.23238315E+04  d E =-.330449E-02  mag=    -0.0000
       N       E                     dE             d eps       ncg     rms          rms(c)
DAV:   1    -0.230375277875E+04    0.25314E-01   -0.36190E+00  4384   0.176E+00    0.495E-01
RMM:   2    -0.230378497850E+04   -0.32200E-01   -0.34635E-01  6202   0.355E-01    0.271E-01
RMM:   3    -0.230378646421E+04   -0.14857E-02   -0.30376E-02  5650   0.891E-02    0.168E-01
RMM:   4    -0.230378625528E+04    0.20893E-03   -0.20658E-03  4614   0.208E-02    0.108E-01
RMM:   5    -0.230378615716E+04    0.98119E-04   -0.66154E-04  4383   0.183E-02    0.424E-02
RMM:   6    -0.230378613666E+04    0.20499E-04   -0.99719E-05  3374   0.945E-03    0.200E-02
RMM:   7    -0.230378612900E+04    0.76632E-05   -0.18917E-05  2835   0.360E-03
  22 F= -.23238392E+04 E0= -.23238392E+04  d E =-.110013E-01  mag=    -0.0000
       N       E                     dE             d eps       ncg     rms          rms(c)
DAV:   1    -0.230365710537E+04    0.12903E+00   -0.14507E+01  4384   0.352E+00    0.990E-01
RMM:   2    -0.230378900962E+04   -0.13190E+00   -0.14148E+00  6210   0.728E-01    0.563E-01
RMM:   3    -0.230379397752E+04   -0.49679E-02   -0.11947E-01  5741   0.174E-01    0.348E-01
RMM:   4    -0.230379297061E+04    0.10069E-02   -0.85348E-03  4732   0.414E-02    0.224E-01
RMM:   5    -0.230379252051E+04    0.45010E-03   -0.28679E-03  4608   0.369E-02    0.789E-02
RMM:   6    -0.230379244496E+04    0.75557E-04   -0.38976E-04  4450   0.190E-02    0.358E-02
RMM:   7    -0.230379242097E+04    0.23992E-04   -0.75638E-05  2926   0.478E-03    0.212E-02
RMM:   8    -0.230379241331E+04    0.76524E-05   -0.43420E-05  2954   0.441E-03
  23 F= -.23238447E+04 E0= -.23238447E+04  d E =-.164499E-01  mag=     0.0000
       N       E                     dE             d eps       ncg     rms          rms(c)
DAV:   1    -0.230378086987E+04    0.11551E-01   -0.17155E+00  4384   0.120E+00    0.366E-01
RMM:   2    -0.230379761127E+04   -0.16741E-01   -0.18132E-01  6148   0.251E-01    0.194E-01
RMM:   3    -0.230379849520E+04   -0.88393E-03   -0.16293E-02  5477   0.679E-02    0.118E-01
RMM:   4    -0.230379841710E+04    0.78097E-04   -0.11377E-03  4516   0.158E-02    0.750E-02
RMM:   5    -0.230379837209E+04    0.45012E-04   -0.28951E-04  4127   0.131E-02    0.310E-02
RMM:   6    -0.230379836299E+04    0.91014E-05   -0.52368E-05  2974   0.675E-03
  24 F= -.23238503E+04 E0= -.23238503E+04  d E =-.567591E-02  mag=     0.0000
       N       E                     dE             d eps       ncg     rms          rms(c)
DAV:   1    -0.230372522212E+04    0.73150E-01   -0.75143E+00  4352   0.252E+00    0.770E-01
RMM:   2    -0.230380100894E+04   -0.75787E-01   -0.81968E-01  6198   0.533E-01    0.421E-01
RMM:   3    -0.230380431725E+04   -0.33083E-02   -0.69712E-02  5693   0.130E-01    0.258E-01
RMM:   4    -0.230380387161E+04    0.44564E-03   -0.49785E-03  4792   0.324E-02    0.166E-01
RMM:   5    -0.230380366173E+04    0.20989E-03   -0.14607E-03  4666   0.273E-02    0.687E-02
RMM:   6    -0.230380360526E+04    0.56463E-04   -0.23068E-04  4173   0.132E-02    0.332E-02
RMM:   7    -0.230380358228E+04    0.22984E-04   -0.39248E-05  2886   0.468E-03    0.149E-02
RMM:   8    -0.230380357835E+04    0.39329E-05   -0.24733E-05  2880   0.366E-03
  25 F= -.23238549E+04 E0= -.23238549E+04  d E =-.102354E-01  mag=     0.0000
       N       E                     dE             d eps       ncg     rms          rms(c)
DAV:   1    -0.230378083039E+04    0.22752E-01   -0.22188E+00  4352   0.135E+00    0.447E-01
RMM:   2    -0.230380789849E+04   -0.27068E-01   -0.29676E-01  6102   0.299E-01    0.214E-01
RMM:   3    -0.230380962961E+04   -0.17311E-02   -0.28042E-02  5381   0.102E-01    0.132E-01
RMM:   4    -0.230380964924E+04   -0.19622E-04   -0.20581E-03  4683   0.187E-02    0.874E-02
RMM:   5    -0.230380960562E+04    0.43618E-04   -0.37417E-04  4131   0.126E-02    0.686E-02
RMM:   6    -0.230380954149E+04    0.64127E-04   -0.15434E-04  3389   0.905E-03    0.189E-02
RMM:   7    -0.230380953260E+04    0.88922E-05   -0.15778E-05  2820   0.479E-03
  26 F= -.23238604E+04 E0= -.23238604E+04  d E =-.547330E-02  mag=    -0.0000
       N       E                     dE             d eps       ncg     rms          rms(c)
DAV:   1    -0.230378790889E+04    0.21633E-01   -0.18671E+00  4352   0.124E+00    0.412E-01
RMM:   2    -0.230381053526E+04   -0.22626E-01   -0.24826E-01  6101   0.274E-01    0.198E-01
RMM:   3    -0.230381199541E+04   -0.14602E-02   -0.23632E-02  5436   0.919E-02    0.122E-01
RMM:   4    -0.230381200686E+04   -0.11450E-04   -0.17147E-03  4601   0.171E-02    0.799E-02
RMM:   5    -0.230381196833E+04    0.38536E-04   -0.30391E-04  3985   0.117E-02    0.629E-02
RMM:   6    -0.230381191421E+04    0.54114E-04   -0.13913E-04  3263   0.860E-03    0.176E-02
RMM:   7    -0.230381190654E+04    0.76704E-05   -0.16581E-05  2814   0.473E-03
  27 F= -.23238623E+04 E0= -.23238623E+04  d E =-.737468E-02  mag=     0.0000
       N       E                     dE             d eps       ncg     rms          rms(c)
DAV:   1    -0.230378500459E+04    0.26910E-01   -0.29326E+00  4400   0.151E+00    0.480E-01
RMM:   2    -0.230381794256E+04   -0.32938E-01   -0.35909E-01  6114   0.341E-01    0.231E-01
RMM:   3    -0.230382040790E+04   -0.24653E-02   -0.33517E-02  5494   0.116E-01    0.206E-01
RMM:   4    -0.230382031411E+04    0.93795E-04   -0.35090E-03  4691   0.243E-02    0.123E-01
RMM:   5    -0.230382013995E+04    0.17416E-03   -0.55708E-04  4330   0.131E-02    0.447E-02
RMM:   6    -0.230382012548E+04    0.14476E-04   -0.88240E-05  3408   0.893E-03    0.124E-02
RMM:   7    -0.230382012198E+04    0.34958E-05   -0.12536E-05  2822   0.450E-03
  28 F= -.23238696E+04 E0= -.23238696E+04  d E =-.731288E-02  mag=     0.0000
       N       E                     dE             d eps       ncg     rms          rms(c)
DAV:   1    -0.230372238168E+04    0.97744E-01   -0.86514E+00  4400   0.260E+00    0.820E-01
RMM:   2    -0.230382038912E+04   -0.98007E-01   -0.10679E+00  6139   0.590E-01    0.395E-01
RMM:   3    -0.230382764520E+04   -0.72561E-02   -0.95085E-02  5595   0.191E-01    0.366E-01
RMM:   4    -0.230382716949E+04    0.47571E-03   -0.10284E-02  5312   0.413E-02    0.211E-01
RMM:   5    -0.230382665705E+04    0.51244E-03   -0.14937E-03  4594   0.217E-02    0.763E-02
RMM:   6    -0.230382663059E+04    0.26453E-04   -0.27395E-04  4262   0.143E-02    0.216E-02
RMM:   7    -0.230382661868E+04    0.11918E-04   -0.35033E-05  2889   0.586E-03    0.120E-02
RMM:   8    -0.230382661768E+04    0.99311E-06   -0.17845E-05  2862   0.361E-03
  29 F= -.23238744E+04 E0= -.23238744E+04  d E =-.121629E-01  mag=     0.0000
       N       E                     dE             d eps       ncg     rms          rms(c)
DAV:   1    -0.230378799435E+04    0.38624E-01   -0.30454E+00  4400   0.153E+00    0.524E-01
RMM:   2    -0.230383026474E+04   -0.42270E-01   -0.46300E-01  6134   0.369E-01    0.246E-01
RMM:   3    -0.230383373863E+04   -0.34739E-02   -0.45628E-02  5529   0.133E-01    0.223E-01
RMM:   4    -0.230383366743E+04    0.71204E-04   -0.44993E-03  4778   0.259E-02    0.131E-01
RMM:   5    -0.230383346550E+04    0.20193E-03   -0.54956E-04  4344   0.125E-02    0.552E-02
RMM:   6    -0.230383344806E+04    0.17439E-04   -0.12541E-04  3751   0.944E-03    0.142E-02
RMM:   7    -0.230383344265E+04    0.54084E-05   -0.16706E-05  2826   0.493E-03
  30 F= -.23238803E+04 E0= -.23238803E+04  d E =-.583100E-02  mag=     0.0000
       N       E                     dE             d eps       ncg     rms          rms(c)
DAV:   1    -0.230370677629E+04    0.12667E+00   -0.88313E+00  4400   0.261E+00    0.890E-01
RMM:   2    -0.230383047586E+04   -0.12370E+00   -0.13539E+00  6194   0.632E-01    0.414E-01
RMM:   3    -0.230383952177E+04   -0.90459E-02   -0.12218E-01  5616   0.199E-01    0.367E-01
RMM:   4    -0.230383951497E+04    0.68022E-05   -0.13332E-02  5360   0.437E-02    0.230E-01
RMM:   5    -0.230383887275E+04    0.64222E-03   -0.16384E-03  4654   0.205E-02    0.944E-02
RMM:   6    -0.230383881778E+04    0.54967E-04   -0.37300E-04  4507   0.146E-02    0.245E-02
RMM:   7    -0.230383879851E+04    0.19271E-04   -0.44557E-05  2912   0.719E-03    0.134E-02
RMM:   8    -0.230383879365E+04    0.48613E-05   -0.24436E-05  2860   0.375E-03
  31 F= -.23238838E+04 E0= -.23238838E+04  d E =-.939759E-02  mag=    -0.0000
       N       E                     dE             d eps       ncg     rms          rms(c)
DAV:   1    -0.230378695292E+04    0.51846E-01   -0.39807E+00  4368   0.171E+00    0.600E-01
RMM:   2    -0.230384224715E+04   -0.55294E-01   -0.60578E-01  6138   0.415E-01    0.281E-01
RMM:   3    -0.230384654323E+04   -0.42961E-02   -0.58616E-02  5541   0.145E-01    0.237E-01
RMM:   4    -0.230384669013E+04   -0.14690E-03   -0.61706E-03  4927   0.292E-02    0.158E-01
RMM:   5    -0.230384638220E+04    0.30793E-03   -0.76097E-04  4514   0.138E-02    0.677E-02
RMM:   6    -0.230384635712E+04    0.25078E-04   -0.16540E-04  3896   0.102E-02    0.173E-02
RMM:   7    -0.230384634995E+04    0.71698E-05   -0.21227E-05  2883   0.515E-03
  32 F= -.23238904E+04 E0= -.23238904E+04  d E =-.650935E-02  mag=    -0.0000
       N       E                     dE             d eps       ncg     rms          rms(c)
DAV:   1    -0.230373428201E+04    0.11208E+00   -0.78446E+00  4368   0.239E+00    0.841E-01
RMM:   2    -0.230384370001E+04   -0.10942E+00   -0.11972E+00  6172   0.582E-01    0.389E-01
RMM:   3    -0.230385136391E+04   -0.76639E-02   -0.10715E-01  5597   0.175E-01    0.319E-01
RMM:   4    -0.230385188796E+04   -0.52405E-03   -0.12980E-02  5239   0.408E-02    0.224E-01
RMM:   5    -0.230385115906E+04    0.72890E-03   -0.15328E-03  4710   0.191E-02    0.932E-02
RMM:   6    -0.230385110837E+04    0.50696E-04   -0.30999E-04  4340   0.136E-02    0.243E-02
RMM:   7    -0.230385109441E+04    0.13956E-04   -0.41042E-05  2930   0.645E-03    0.126E-02
RMM:   8    -0.230385109177E+04    0.26362E-05   -0.18449E-05  2836   0.347E-03
  33 F= -.23238936E+04 E0= -.23238936E+04  d E =-.973373E-02  mag=    -0.0000
       N       E                     dE             d eps       ncg     rms          rms(c)
DAV:   1    -0.230378969438E+04    0.61400E-01   -0.51872E+00  4352   0.192E+00    0.667E-01
RMM:   2    -0.230385558119E+04   -0.65887E-01   -0.71917E-01  6162   0.451E-01    0.309E-01
RMM:   3    -0.230386048782E+04   -0.49066E-02   -0.67243E-02  5560   0.140E-01    0.249E-01
RMM:   4    -0.230386067753E+04   -0.18970E-03   -0.60829E-03  4994   0.296E-02    0.181E-01
RMM:   5    -0.230386019309E+04    0.48443E-03   -0.99908E-04  4623   0.154E-02    0.752E-02
RMM:   6    -0.230386016442E+04    0.28672E-04   -0.19879E-04  4002   0.112E-02    0.195E-02
RMM:   7    -0.230386015625E+04    0.81701E-05   -0.26232E-05  2888   0.545E-03
  34 F= -.23239015E+04 E0= -.23239015E+04  d E =-.789320E-02  mag=     0.0000
       N       E                     dE             d eps       ncg     rms          rms(c)
DAV:   1    -0.230375200832E+04    0.10816E+00   -0.82843E+00  4352   0.243E+00    0.843E-01
RMM:   2    -0.230385871066E+04   -0.10670E+00   -0.11641E+00  6217   0.576E-01    0.391E-01
RMM:   3    -0.230386601271E+04   -0.73021E-02   -0.10256E-01  5648   0.155E-01    0.309E-01
RMM:   4    -0.230386635250E+04   -0.33979E-03   -0.91974E-03  5239   0.372E-02    0.237E-01
RMM:   5    -0.230386560231E+04    0.75019E-03   -0.16439E-03  4820   0.195E-02    0.954E-02
RMM:   6    -0.230386555510E+04    0.47213E-04   -0.33627E-04  4346   0.139E-02    0.251E-02
RMM:   7    -0.230386554021E+04    0.14886E-04   -0.41740E-05  2931   0.645E-03    0.129E-02
RMM:   8    -0.230386553797E+04    0.22445E-05   -0.19671E-05  2844   0.336E-03
  35 F= -.23239054E+04 E0= -.23239054E+04  d E =-.117829E-01  mag=     0.0000
       N       E                     dE             d eps       ncg     rms          rms(c)
DAV:   1    -0.230375435111E+04    0.11119E+00   -0.80259E+00  4352   0.242E+00    0.888E-01
RMM:   2    -0.230386821774E+04   -0.11387E+00   -0.12495E+00  6226   0.585E-01    0.401E-01
RMM:   3    -0.230387537211E+04   -0.71544E-02   -0.10960E-01  5663   0.147E-01    0.257E-01
RMM:   4    -0.230387592442E+04   -0.55230E-03   -0.95311E-03  5211   0.352E-02    0.207E-01
RMM:   5    -0.230387535619E+04    0.56823E-03   -0.14846E-03  5103   0.200E-02    0.119E-01
RMM:   6    -0.230387523434E+04    0.12185E-03   -0.46845E-04  4347   0.146E-02    0.290E-02
RMM:   7    -0.230387521417E+04    0.20164E-04   -0.58438E-05  2936   0.673E-03    0.140E-02
RMM:   8    -0.230387521054E+04    0.36369E-05   -0.27393E-05  2872   0.322E-03
  36 F= -.23239135E+04 E0= -.23239135E+04  d E =-.816266E-02  mag=     0.0000
       N       E                     dE             d eps       ncg     rms          rms(c)
DAV:   1    -0.230385342979E+04    0.21784E-01   -0.15620E+00  4368   0.107E+00    0.392E-01
RMM:   2    -0.230387500766E+04   -0.21578E-01   -0.23739E-01  6152   0.254E-01    0.176E-01
RMM:   3    -0.230387674024E+04   -0.17326E-02   -0.24386E-02  5399   0.888E-02    0.128E-01
RMM:   4    -0.230387687457E+04   -0.13433E-03   -0.20464E-03  4198   0.172E-02    0.104E-01
RMM:   5    -0.230387669580E+04    0.17877E-03   -0.29816E-04  3964   0.972E-03    0.473E-02
RMM:   6    -0.230387668096E+04    0.14839E-04   -0.81982E-05  3312   0.759E-03    0.122E-02
RMM:   7    -0.230387667759E+04    0.33733E-05   -0.12946E-05  2838   0.458E-03
  37 F= -.23239143E+04 E0= -.23239143E+04  d E =-.897138E-02  mag=     0.0000
       N       E                     dE             d eps       ncg     rms          rms(c)
DAV:   1    -0.230378345097E+04    0.93230E-01   -0.71445E+00  4352   0.227E+00    0.808E-01
RMM:   2    -0.230387816559E+04   -0.94715E-01   -0.10395E+00  6244   0.538E-01    0.365E-01
RMM:   3    -0.230388504592E+04   -0.68803E-02   -0.94848E-02  5566   0.143E-01    0.276E-01
RMM:   4    -0.230388561332E+04   -0.56740E-03   -0.91359E-03  5143   0.353E-02    0.220E-01
RMM:   5    -0.230388482355E+04    0.78977E-03   -0.13699E-03  4859   0.181E-02    0.966E-02
RMM:   6    -0.230388477064E+04    0.52914E-04   -0.32969E-04  4295   0.137E-02    0.245E-02
RMM:   7    -0.230388475646E+04    0.14176E-04   -0.41740E-05  2917   0.639E-03    0.122E-02
RMM:   8    -0.230388475384E+04    0.26237E-05   -0.16190E-05  2844   0.318E-03
  38 F= -.23239211E+04 E0= -.23239211E+04  d E =-.681853E-02  mag=    -0.0000
       N       E                     dE             d eps       ncg     rms          rms(c)
DAV:   1    -0.230386672727E+04    0.18029E-01   -0.13596E+00  4432   0.990E-01    0.353E-01
RMM:   2    -0.230388459553E+04   -0.17868E-01   -0.19633E-01  6077   0.232E-01    0.160E-01
RMM:   3    -0.230388606318E+04   -0.14676E-02   -0.19268E-02  5287   0.866E-02    0.136E-01
RMM:   4    -0.230388608338E+04   -0.20206E-04   -0.16660E-03  3926   0.158E-02    0.898E-02
RMM:   5    -0.230388596408E+04    0.11930E-03   -0.24319E-04  3855   0.879E-03    0.397E-02
RMM:   6    -0.230388595446E+04    0.96180E-05   -0.57332E-05  3124   0.702E-03
  39 F= -.23239218E+04 E0= -.23239218E+04  d E =-.748307E-02  mag=    -0.0000
       N       E                     dE             d eps       ncg     rms          rms(c)
DAV:   1    -0.230384473447E+04    0.41230E-01   -0.33921E+00  4368   0.165E+00    0.578E-01
RMM:   2    -0.230388778970E+04   -0.43055E-01   -0.47353E-01  6072   0.383E-01    0.262E-01
RMM:   3    -0.230389087732E+04   -0.30876E-02   -0.42719E-02  5367   0.136E-01    0.248E-01
RMM:   4    -0.230389068216E+04    0.19516E-03   -0.50241E-03  4933   0.291E-02    0.136E-01
RMM:   5    -0.230389043524E+04    0.24692E-03   -0.68748E-04  4425   0.150E-02    0.571E-02
RMM:   6    -0.230389041208E+04    0.23154E-04   -0.14176E-04  3980   0.109E-02    0.143E-02
RMM:   7    -0.230389040708E+04    0.50055E-05   -0.19117E-05  2844   0.532E-03
  40 F= -.23239256E+04 E0= -.23239256E+04  d E =-.379865E-02  mag=    -0.0000
       N       E                     dE             d eps       ncg     rms          rms(c)
DAV:   1    -0.230389040765E+04    0.44366E-05   -0.13189E-04  4416   0.115E-02    0.510E-03
RMM:   2    -0.230389040941E+04   -0.17672E-05   -0.20329E-05  2909   0.312E-03
  41 F= -.23239256E+04 E0= -.23239256E+04  d E =-.379722E-02  mag=    -0.0000
       N       E                     dE             d eps       ncg     rms          rms(c)
DAV:   1    -0.230387388020E+04    0.16527E-01   -0.15027E+00  4384   0.115E+00    0.381E-01
RMM:   2    -0.230389201969E+04   -0.18139E-01   -0.20063E-01  5994   0.257E-01    0.174E-01
RMM:   3    -0.230389345228E+04   -0.14326E-02   -0.19847E-02  5265   0.972E-02    0.159E-01
RMM:   4    -0.230389339532E+04    0.56953E-04   -0.21473E-03  4473   0.199E-02    0.901E-02
RMM:   5    -0.230389327483E+04    0.12049E-03   -0.26474E-04  4232   0.107E-02    0.376E-02
RMM:   6    -0.230389326235E+04    0.12487E-04   -0.65797E-05  3452   0.792E-03    0.987E-03
RMM:   7    -0.230389326022E+04    0.21284E-05   -0.10727E-05  2822   0.483E-03
  42 F= -.23239280E+04 E0= -.23239280E+04  d E =-.239764E-02  mag=    -0.0000
       N       E                     dE             d eps       ncg     rms          rms(c)
DAV:   1    -0.230389249099E+04    0.77135E-03   -0.71213E-02  4608   0.252E-01    0.834E-02
RMM:   2    -0.230389335714E+04   -0.86614E-03   -0.95941E-03  5927   0.562E-02    0.386E-02
RMM:   3    -0.230389342782E+04   -0.70680E-04   -0.97240E-04  3458   0.222E-02    0.361E-02
RMM:   4    -0.230389342325E+04    0.45642E-05   -0.99190E-05  2902   0.528E-03
  43 F= -.23239281E+04 E0= -.23239281E+04  d E =-.246307E-02  mag=    -0.0000
       N       E                     dE             d eps       ncg     rms          rms(c)
DAV:   1    -0.230388485119E+04    0.85766E-02   -0.12726E+00  4384   0.110E+00    0.305E-01
RMM:   2    -0.230389545056E+04   -0.10599E-01   -0.11581E-01  5888   0.219E-01    0.155E-01
RMM:   3    -0.230389614010E+04   -0.68954E-03   -0.10773E-02  5119   0.808E-02    0.143E-01
RMM:   4    -0.230389599095E+04    0.14915E-03   -0.11785E-03  4467   0.172E-02    0.738E-02
RMM:   5    -0.230389592063E+04    0.70319E-04   -0.25634E-04  4251   0.114E-02    0.242E-02
RMM:   6    -0.230389591498E+04    0.56557E-05   -0.35326E-05  2943   0.743E-03
  44 F= -.23239302E+04 E0= -.23239302E+04  d E =-.212402E-02  mag=    -0.0000
       N       E                     dE             d eps       ncg     rms          rms(c)
DAV:   1    -0.230388591648E+04    0.10004E-01   -0.11475E+00  4384   0.104E+00    0.289E-01
RMM:   2    -0.230389551300E+04   -0.95965E-02   -0.10485E-01  5887   0.208E-01    0.144E-01
RMM:   3    -0.230389610665E+04   -0.59365E-03   -0.93300E-03  5181   0.734E-02    0.133E-01
RMM:   4    -0.230389597846E+04    0.12819E-03   -0.10369E-03  4282   0.161E-02    0.691E-02
RMM:   5    -0.230389591577E+04    0.62695E-04   -0.23103E-04  4171   0.108E-02    0.224E-02
RMM:   6    -0.230389591004E+04    0.57235E-05   -0.30440E-05  2898   0.724E-03
  45 F= -.23239298E+04 E0= -.23239298E+04  d E =-.177348E-02  mag=    -0.0000
       N       E                     dE             d eps       ncg     rms          rms(c)
DAV:   1    -0.230389297288E+04    0.29429E-02   -0.37420E-01  4384   0.594E-01    0.164E-01
RMM:   2    -0.230389605340E+04   -0.30805E-02   -0.33632E-02  6044   0.120E-01    0.817E-02
RMM:   3    -0.230389625024E+04   -0.19684E-03   -0.31411E-03  4835   0.407E-02    0.720E-02
RMM:   4    -0.230389621117E+04    0.39061E-04   -0.31659E-04  3278   0.936E-03    0.388E-02
RMM:   5    -0.230389619386E+04    0.17318E-04   -0.72811E-05  3464   0.693E-03    0.123E-02
RMM:   6    -0.230389619311E+04    0.74747E-06   -0.11129E-05  2804   0.507E-03
  46 F= -.23239303E+04 E0= -.23239303E+04  d E =-.225307E-02  mag=    -0.0000
       N       E                     dE             d eps       ncg     rms          rms(c)
DAV:   1    -0.230389133503E+04    0.48588E-02   -0.78434E-01  4384   0.868E-01    0.226E-01
RMM:   2    -0.230389805364E+04   -0.67186E-02   -0.72902E-02  5941   0.173E-01    0.115E-01
RMM:   3    -0.230389845652E+04   -0.40288E-03   -0.65600E-03  5015   0.622E-02    0.977E-02
RMM:   4    -0.230389841131E+04    0.45216E-04   -0.70872E-04  3916   0.132E-02    0.587E-02
RMM:   5    -0.230389836376E+04    0.47547E-04   -0.16095E-04  4015   0.932E-03    0.183E-02
RMM:   6    -0.230389836089E+04    0.28727E-05   -0.21096E-05  2841   0.604E-03
  47 F= -.23239322E+04 E0= -.23239322E+04  d E =-.188977E-02  mag=    -0.0000
       N       E                     dE             d eps       ncg     rms          rms(c)
DAV:   1    -0.230387335262E+04    0.25011E-01   -0.28999E+00  4368   0.167E+00    0.436E-01
RMM:   2    -0.230389857851E+04   -0.25226E-01   -0.27371E-01  5894   0.332E-01    0.224E-01
RMM:   3    -0.230390005262E+04   -0.14741E-02   -0.23856E-02  5192   0.116E-01    0.196E-01
RMM:   4    -0.230389984214E+04    0.21048E-03   -0.26722E-03  5023   0.248E-02    0.114E-01
RMM:   5    -0.230389967250E+04    0.16964E-03   -0.58695E-04  4540   0.157E-02    0.368E-02
RMM:   6    -0.230389966017E+04    0.12336E-04   -0.77898E-05  3709   0.947E-03    0.129E-02
RMM:   7    -0.230389965707E+04    0.30949E-05   -0.11572E-05  2802   0.417E-03
  48 F= -.23239330E+04 E0= -.23239330E+04  d E =-.265823E-02  mag=    -0.0000
       N       E                     dE             d eps       ncg     rms          rms(c)
DAV:   1    -0.230389793165E+04    0.17285E-02   -0.19813E-01  4416   0.435E-01    0.114E-01
RMM:   2    -0.230389960225E+04   -0.16706E-02   -0.18158E-02  5987   0.870E-02    0.589E-02
RMM:   3    -0.230389970573E+04   -0.10348E-03   -0.16853E-03  4075   0.296E-02    0.491E-02
RMM:   4    -0.230389969137E+04    0.14360E-04   -0.17124E-04  2964   0.716E-03    0.292E-02
RMM:   5    -0.230389968089E+04    0.10475E-04   -0.38670E-05  2998   0.536E-03    0.932E-03
RMM:   6    -0.230389968052E+04    0.36525E-06   -0.73987E-06  2788   0.413E-03
  49 F= -.23239331E+04 E0= -.23239331E+04  d E =-.281858E-02  mag=    -0.0000
       N       E                     dE             d eps       ncg     rms          rms(c)
DAV:   1    -0.230389332495E+04    0.63559E-02   -0.98841E-01  4384   0.978E-01    0.253E-01
RMM:   2    -0.230390178520E+04   -0.84603E-02   -0.91801E-02  5965   0.196E-01    0.134E-01
RMM:   3    -0.230390229507E+04   -0.50987E-03   -0.85876E-03  5062   0.682E-02    0.111E-01
RMM:   4    -0.230390222173E+04    0.73337E-04   -0.86422E-04  4185   0.147E-02    0.666E-02
RMM:   5    -0.230390216086E+04    0.60878E-04   -0.20231E-04  4174   0.103E-02    0.205E-02
RMM:   6    -0.230390215762E+04    0.32392E-05   -0.26088E-05  2873   0.651E-03
  50 F= -.23239354E+04 E0= -.23239354E+04  d E =-.221996E-02  mag=    -0.0000
       N       E                     dE             d eps       ncg     rms          rms(c)
DAV:   1    -0.230387397997E+04    0.28181E-01   -0.32817E+00  4368   0.178E+00    0.462E-01
RMM:   2    -0.230390227796E+04   -0.28298E-01   -0.30683E-01  5930   0.355E-01    0.244E-01
RMM:   3    -0.230390392439E+04   -0.16464E-02   -0.27440E-02  5240   0.118E-01    0.208E-01
RMM:   4    -0.230390363586E+04    0.28853E-03   -0.27380E-03  5111   0.262E-02    0.120E-01
RMM:   5    -0.230390345854E+04    0.17732E-03   -0.74074E-04  4580   0.170E-02    0.378E-02
RMM:   6    -0.230390344404E+04    0.14497E-04   -0.87512E-05  3778   0.103E-02    0.135E-02
RMM:   7    -0.230390344137E+04    0.26705E-05   -0.13414E-05  2812   0.410E-03
  51 F= -.23239362E+04 E0= -.23239362E+04  d E =-.304236E-02  mag=    -0.0000
       N       E                     dE             d eps       ncg     rms          rms(c)
DAV:   1    -0.230390124899E+04    0.21951E-02   -0.25333E-01  4384   0.495E-01    0.128E-01
RMM:   2    -0.230390341453E+04   -0.21655E-02   -0.23510E-02  6008   0.996E-02    0.687E-02
RMM:   3    -0.230390354075E+04   -0.12622E-03   -0.21673E-03  4276   0.321E-02    0.554E-02
RMM:   4    -0.230390351970E+04    0.21050E-04   -0.21025E-04  3042   0.780E-03    0.332E-02
RMM:   5    -0.230390350624E+04    0.13463E-04   -0.51968E-05  3118   0.599E-03    0.103E-02
RMM:   6    -0.230390350583E+04    0.40245E-06   -0.89351E-06  2801   0.452E-03
  52 F= -.23239364E+04 E0= -.23239364E+04  d E =-.323400E-02  mag=     0.0000
       N       E                     dE             d eps       ncg     rms          rms(c)
DAV:   1    -0.230389407171E+04    0.94345E-02   -0.15089E+00  4376   0.119E+00    0.301E-01
RMM:   2    -0.230390611370E+04   -0.12042E-01   -0.12901E-01  6000   0.236E-01    0.189E-01
RMM:   3    -0.230390660186E+04   -0.48817E-03   -0.10956E-02  5171   0.714E-02    0.149E-01
RMM:   4    -0.230390636939E+04    0.23247E-03   -0.10635E-03  4624   0.168E-02    0.755E-02
RMM:   5    -0.230390630246E+04    0.66922E-04   -0.31433E-04  4423   0.132E-02    0.169E-02
RMM:   6    -0.230390630126E+04    0.12034E-05   -0.27064E-05  2892   0.788E-03
  53 F= -.23239389E+04 E0= -.23239389E+04  d E =-.251341E-02  mag=    -0.0000
       N       E                     dE             d eps       ncg     rms          rms(c)
DAV:   1    -0.230387363182E+04    0.32671E-01   -0.41665E+00  4368   0.198E+00    0.502E-01
RMM:   2    -0.230390711955E+04   -0.33488E-01   -0.35865E-01  5952   0.391E-01    0.314E-01
RMM:   3    -0.230390859244E+04   -0.14729E-02   -0.30689E-02  5259   0.121E-01    0.256E-01
RMM:   4    -0.230390789517E+04    0.69728E-03   -0.29788E-03  5216   0.278E-02    0.126E-01
RMM:   5    -0.230390771750E+04    0.17767E-03   -0.86481E-04  4681   0.205E-02    0.298E-02
RMM:   6    -0.230390771162E+04    0.58804E-05   -0.74863E-05  3623   0.119E-02
  54 F= -.23239398E+04 E0= -.23239398E+04  d E =-.345896E-02  mag=    -0.0000
       N       E                     dE             d eps       ncg     rms          rms(c)
DAV:   1    -0.230390286535E+04    0.48521E-02   -0.70468E-01  4384   0.811E-01    0.201E-01
RMM:   2    -0.230390923159E+04   -0.63662E-02   -0.67891E-02  5983   0.164E-01    0.133E-01
RMM:   3    -0.230390951477E+04   -0.28319E-03   -0.58812E-03  4913   0.509E-02    0.995E-02
RMM:   4    -0.230390942669E+04    0.88087E-04   -0.54157E-04  3705   0.111E-02    0.531E-02
RMM:   5    -0.230390939655E+04    0.30139E-04   -0.13886E-04  4014   0.887E-03    0.120E-02
RMM:   6    -0.230390939715E+04   -0.60051E-06   -0.14139E-05  2826   0.572E-03
  55 F= -.23239413E+04 E0= -.23239413E+04  d E =-.146743E-02  mag=    -0.0000
       N       E                     dE             d eps       ncg     rms          rms(c)
DAV:   1    -0.230385400999E+04    0.55387E-01   -0.63418E+00  4368   0.243E+00    0.596E-01
RMM:   2    -0.230391084542E+04   -0.56835E-01   -0.60722E-01  5919   0.486E-01    0.388E-01
RMM:   3    -0.230391385491E+04   -0.30095E-02   -0.54292E-02  5248   0.174E-01    0.308E-01
RMM:   4    -0.230391294290E+04    0.91201E-03   -0.49166E-03  5375   0.342E-02    0.159E-01
RMM:   5    -0.230391265827E+04    0.28463E-03   -0.12839E-03  4611   0.238E-02    0.392E-02
RMM:   6    -0.230391265451E+04    0.37599E-05   -0.12777E-04  3953   0.144E-02    0.147E-02
RMM:   7    -0.230391265291E+04    0.15979E-05   -0.21969E-05  2838   0.398E-03
  56 F= -.23239439E+04 E0= -.23239439E+04  d E =-.407520E-02  mag=    -0.0000
       N       E                     dE             d eps       ncg     rms          rms(c)
DAV:   1    -0.230390434677E+04    0.83077E-02   -0.95660E-01  4384   0.945E-01    0.232E-01
RMM:   2    -0.230391294515E+04   -0.85984E-02   -0.91722E-02  5974   0.191E-01    0.154E-01
RMM:   3    -0.230391333114E+04   -0.38599E-03   -0.80224E-03  5071   0.605E-02    0.114E-01
RMM:   4    -0.230391321552E+04    0.11562E-03   -0.73254E-04  4073   0.130E-02    0.618E-02
RMM:   5    -0.230391317230E+04    0.43218E-04   -0.18966E-04  4206   0.102E-02    0.140E-02
RMM:   6    -0.230391317269E+04   -0.39012E-06   -0.19010E-05  2842   0.652E-03
  57 F= -.23239442E+04 E0= -.23239442E+04  d E =-.434620E-02  mag=    -0.0000
       N       E                     dE             d eps       ncg     rms          rms(c)
DAV:   1    -0.230391217292E+04    0.99937E-03   -0.40558E-01  4400   0.636E-01    0.188E-01
RMM:   2    -0.230391576987E+04   -0.35969E-02   -0.39316E-02  5794   0.130E-01    0.969E-02
RMM:   3    -0.230391590642E+04   -0.13655E-03   -0.33023E-03  4806   0.456E-02    0.726E-02
RMM:   4    -0.230391586006E+04    0.46366E-04   -0.35687E-04  3941   0.106E-02    0.455E-02
RMM:   5    -0.230391582866E+04    0.31403E-04   -0.12093E-04  4032   0.901E-03    0.105E-02
RMM:   6    -0.230391582742E+04    0.12350E-05   -0.13407E-05  2825   0.514E-03
  58 F= -.23239467E+04 E0= -.23239467E+04  d E =-.247904E-02  mag=    -0.0000
       N       E                     dE             d eps       ncg     rms          rms(c)
DAV:   1    -0.230391340470E+04    0.24240E-02   -0.36688E-01  4384   0.606E-01    0.179E-01
RMM:   2    -0.230391667268E+04   -0.32680E-02   -0.35691E-02  5792   0.124E-01    0.924E-02
RMM:   3    -0.230391679682E+04   -0.12414E-03   -0.30028E-03  4779   0.445E-02    0.689E-02
RMM:   4    -0.230391675503E+04    0.41786E-04   -0.32313E-04  3830   0.101E-02    0.435E-02
RMM:   5    -0.230391672537E+04    0.29659E-04   -0.11006E-04  3933   0.866E-03    0.102E-02
RMM:   6    -0.230391672398E+04    0.13928E-05   -0.12893E-05  2818   0.512E-03
  59 F= -.23239474E+04 E0= -.23239474E+04  d E =-.320852E-02  mag=    -0.0000
       N       E                     dE             d eps       ncg     rms          rms(c)
DAV:   1    -0.230391689481E+04   -0.16943E-03   -0.25012E-01  4400   0.502E-01    0.127E-01
RMM:   2    -0.230391856219E+04   -0.16674E-02   -0.18164E-02  5803   0.908E-02    0.771E-02
RMM:   3    -0.230391857654E+04   -0.14346E-04   -0.13852E-03  4338   0.288E-02    0.519E-02
RMM:   4    -0.230391855084E+04    0.25691E-04   -0.16564E-04  3268   0.746E-03    0.333E-02
RMM:   5    -0.230391853438E+04    0.16463E-04   -0.64826E-05  3377   0.727E-03    0.811E-03
RMM:   6    -0.230391853426E+04    0.11825E-06   -0.93610E-06  2821   0.470E-03
  60 F= -.23239492E+04 E0= -.23239492E+04  d E =-.177870E-02  mag=    -0.0000
       N       E                     dE             d eps       ncg     rms          rms(c)
DAV:   1    -0.230390598647E+04    0.12548E-01   -0.22509E+00  4368   0.150E+00    0.380E-01
RMM:   2    -0.230392096339E+04   -0.14977E-01   -0.16338E-01  5789   0.270E-01    0.232E-01
RMM:   3    -0.230392118692E+04   -0.22353E-03   -0.12782E-02  4950   0.838E-02    0.163E-01
RMM:   4    -0.230392091443E+04    0.27249E-03   -0.15151E-03  4773   0.211E-02    0.100E-01
RMM:   5    -0.230392076026E+04    0.15417E-03   -0.59333E-04  4882   0.195E-02    0.210E-02
RMM:   6    -0.230392075315E+04    0.71109E-05   -0.57398E-05  3292   0.921E-03
  61 F= -.23239513E+04 E0= -.23239513E+04  d E =-.390091E-02  mag=    -0.0000
       N       E                     dE             d eps       ncg     rms          rms(c)
DAV:   1    -0.230392079924E+04   -0.38977E-04   -0.24984E-01  4480   0.496E-01    0.124E-01
RMM:   2    -0.230392241357E+04   -0.16143E-02   -0.17744E-02  5840   0.893E-02    0.706E-02
RMM:   3    -0.230392245027E+04   -0.36705E-04   -0.14738E-03  4304   0.249E-02    0.457E-02
RMM:   4    -0.230392243764E+04    0.12630E-04   -0.17020E-04  3162   0.717E-03    0.333E-02
RMM:   5    -0.230392242458E+04    0.13063E-04   -0.62932E-05  3116   0.704E-03    0.120E-02
RMM:   6    -0.230392242418E+04    0.40066E-06   -0.10176E-05  2806   0.468E-03
  62 F= -.23239530E+04 E0= -.23239530E+04  d E =-.165878E-02  mag=    -0.0000
       N       E                     dE             d eps       ncg     rms          rms(c)
DAV:   1    -0.230391159614E+04    0.10828E-01   -0.19752E+00  4368   0.139E+00    0.348E-01
RMM:   2    -0.230392423180E+04   -0.12636E-01   -0.13931E-01  5796   0.248E-01    0.198E-01
RMM:   3    -0.230392452795E+04   -0.29615E-03   -0.11237E-02  5120   0.754E-02    0.132E-01
RMM:   4    -0.230392440203E+04    0.12592E-03   -0.13231E-03  4744   0.189E-02    0.952E-02
RMM:   5    -0.230392428115E+04    0.12087E-03   -0.50188E-04  4677   0.180E-02    0.269E-02
RMM:   6    -0.230392427394E+04    0.72067E-05   -0.59740E-05  3260   0.795E-03
  63 F= -.23239548E+04 E0= -.23239548E+04  d E =-.347347E-02  mag=    -0.0000
       N       E                     dE             d eps       ncg     rms          rms(c)
DAV:   1    -0.230392334104E+04    0.94011E-03   -0.33348E-01  4384   0.561E-01    0.149E-01
RMM:   2    -0.230392602681E+04   -0.26858E-02   -0.29436E-02  5852   0.106E-01    0.892E-02
RMM:   3    -0.230392610195E+04   -0.75136E-04   -0.26434E-03  4644   0.339E-02    0.560E-02
RMM:   4    -0.230392608379E+04    0.18160E-04   -0.28330E-04  3651   0.824E-03    0.393E-02
RMM:   5    -0.230392606406E+04    0.19728E-04   -0.90379E-05  3258   0.832E-03    0.160E-02
RMM:   6    -0.230392606167E+04    0.23920E-05   -0.15821E-05  2822   0.505E-03
  64 F= -.23239565E+04 E0= -.23239565E+04  d E =-.173101E-02  mag=    -0.0000
       N       E                     dE             d eps       ncg     rms          rms(c)
DAV:   1    -0.230391885903E+04    0.72050E-02   -0.10464E+00  4368   0.994E-01    0.263E-01
RMM:   2    -0.230392716478E+04   -0.83058E-02   -0.91242E-02  5868   0.186E-01    0.158E-01
RMM:   3    -0.230392739703E+04   -0.23225E-03   -0.78503E-03  4990   0.578E-02    0.101E-01
RMM:   4    -0.230392732968E+04    0.67354E-04   -0.86793E-04  4431   0.140E-02    0.707E-02
RMM:   5    -0.230392725972E+04    0.69956E-04   -0.28709E-04  4281   0.139E-02    0.250E-02
RMM:   6    -0.230392725248E+04    0.72478E-05   -0.40559E-05  3000   0.648E-03
  65 F= -.23239576E+04 E0= -.23239576E+04  d E =-.282105E-02  mag=    -0.0000
       N       E                     dE             d eps       ncg     rms          rms(c)
DAV:   1    -0.230392500390E+04    0.22558E-02   -0.48674E-01  4384   0.670E-01    0.180E-01
RMM:   2    -0.230392918165E+04   -0.41778E-02   -0.45641E-02  5886   0.127E-01    0.114E-01
RMM:   3    -0.230392930457E+04   -0.12291E-03   -0.42092E-03  4785   0.411E-02    0.677E-02
RMM:   4    -0.230392927733E+04    0.27231E-04   -0.44490E-04  3792   0.920E-03    0.472E-02
RMM:   5    -0.230392924578E+04    0.31555E-04   -0.13265E-04  3701   0.938E-03    0.164E-02
RMM:   6    -0.230392924350E+04    0.22765E-05   -0.20416E-05  2853   0.516E-03
  66 F= -.23239596E+04 E0= -.23239596E+04  d E =-.197411E-02  mag=    -0.0000
       N       E                     dE             d eps       ncg     rms          rms(c)
DAV:   1    -0.230390674509E+04    0.22501E-01   -0.28179E+00  4368   0.161E+00    0.429E-01
RMM:   2    -0.230393074144E+04   -0.23996E-01   -0.26286E-01  5948   0.304E-01    0.270E-01
RMM:   3    -0.230393155747E+04   -0.81604E-03   -0.22667E-02  5124   0.922E-02    0.171E-01
RMM:   4    -0.230393134573E+04    0.21174E-03   -0.24433E-03  4790   0.215E-02    0.117E-01
RMM:   5    -0.230393114990E+04    0.19583E-03   -0.77929E-04  4832   0.210E-02    0.338E-02
RMM:   6    -0.230393113702E+04    0.12884E-04   -0.97865E-05  3778   0.926E-03    0.134E-02
RMM:   7    -0.230393113280E+04    0.42170E-05   -0.17547E-05  2818   0.422E-03
  67 F= -.23239614E+04 E0= -.23239614E+04  d E =-.382072E-02  mag=    -0.0000
       N       E                     dE             d eps       ncg     rms          rms(c)
DAV:   1    -0.230392817765E+04    0.29594E-02   -0.57334E-01  4384   0.711E-01    0.191E-01
RMM:   2    -0.230393303732E+04   -0.48597E-02   -0.53366E-02  5964   0.137E-01    0.118E-01
RMM:   3    -0.230393322857E+04   -0.19125E-03   -0.50050E-03  4977   0.423E-02    0.717E-02
RMM:   4    -0.230393320299E+04    0.25581E-04   -0.53003E-04  4013   0.981E-03    0.515E-02
RMM:   5    -0.230393316718E+04    0.35808E-04   -0.15052E-04  3735   0.101E-02    0.193E-02
RMM:   6    -0.230393316366E+04    0.35196E-05   -0.24862E-05  2864   0.529E-03
  68 F= -.23239634E+04 E0= -.23239634E+04  d E =-.202753E-02  mag=    -0.0000
       N       E                     dE             d eps       ncg     rms          rms(c)
DAV:   1    -0.230391548407E+04    0.17683E-01   -0.21692E+00  4368   0.138E+00    0.372E-01
RMM:   2    -0.230393389263E+04   -0.18409E-01   -0.20225E-01  5974   0.266E-01    0.230E-01
RMM:   3    -0.230393461837E+04   -0.72574E-03   -0.18174E-02  5335   0.755E-02    0.143E-01
RMM:   4    -0.230393449900E+04    0.11937E-03   -0.19255E-03  4708   0.184E-02    0.103E-01
RMM:   5    -0.230393435450E+04    0.14450E-03   -0.58466E-04  4691   0.182E-02    0.337E-02
RMM:   6    -0.230393434199E+04    0.12515E-04   -0.84376E-05  3545   0.830E-03    0.122E-02
RMM:   7    -0.230393433827E+04    0.37203E-05   -0.14908E-05  2831   0.455E-03
  69 F= -.23239646E+04 E0= -.23239646E+04  d E =-.319489E-02  mag=     0.0000
       N       E                     dE             d eps       ncg     rms          rms(c)
DAV:   1    -0.230392571061E+04    0.86314E-02   -0.10901E+00  4384   0.961E-01    0.264E-01
RMM:   2    -0.230393627501E+04   -0.10564E-01   -0.11518E-01  6002   0.192E-01    0.169E-01
RMM:   3    -0.230393671532E+04   -0.44031E-03   -0.10689E-02  5145   0.590E-02    0.102E-01
RMM:   4    -0.230393666814E+04    0.47183E-04   -0.10923E-03  4432   0.129E-02    0.727E-02
RMM:   5    -0.230393659668E+04    0.71455E-04   -0.29288E-04  4134   0.129E-02    0.245E-02
RMM:   6    -0.230393659232E+04    0.43643E-05   -0.44697E-05  2984   0.622E-03
  70 F= -.23239668E+04 E0= -.23239668E+04  d E =-.216143E-02  mag=     0.0000
       N       E                     dE             d eps       ncg     rms          rms(c)
DAV:   1    -0.230388957356E+04    0.47023E-01   -0.48730E+00  4368   0.203E+00    0.556E-01
RMM:   2    -0.230393685034E+04   -0.47277E-01   -0.51606E-01  5963   0.402E-01    0.358E-01
RMM:   3    -0.230393889604E+04   -0.20457E-02   -0.45241E-02  5290   0.117E-01    0.232E-01
RMM:   4    -0.230393856478E+04    0.33126E-03   -0.48220E-03  5067   0.274E-02    0.157E-01
RMM:   5    -0.230393820998E+04    0.35480E-03   -0.12668E-03  4862   0.253E-02    0.402E-02
RMM:   6    -0.230393820231E+04    0.76718E-05   -0.17086E-04  4139   0.123E-02    0.169E-02
RMM:   7    -0.230393819666E+04    0.56523E-05   -0.24664E-05  2836   0.424E-03
  71 F= -.23239682E+04 E0= -.23239682E+04  d E =-.356777E-02  mag=    -0.0000
       N       E                     dE             d eps       ncg     rms          rms(c)
DAV:   1    -0.230392699975E+04    0.11203E-01   -0.13144E+00  4368   0.103E+00    0.293E-01
RMM:   2    -0.230394074739E+04   -0.13748E-01   -0.15000E-01  6007   0.211E-01    0.190E-01
RMM:   3    -0.230394135366E+04   -0.60626E-03   -0.13890E-02  5167   0.675E-02    0.116E-01
RMM:   4    -0.230394129675E+04    0.56905E-04   -0.14232E-03  4529   0.140E-02    0.819E-02
RMM:   5    -0.230394120132E+04    0.95428E-04   -0.36902E-04  4264   0.137E-02    0.259E-02
RMM:   6    -0.230394119511E+04    0.62102E-05   -0.53033E-05  3022   0.670E-03
  72 F= -.23239710E+04 E0= -.23239710E+04  d E =-.287240E-02  mag=     0.0000
       N       E                     dE             d eps       ncg     rms          rms(c)
DAV:   1    -0.230388202937E+04    0.59172E-01   -0.56197E+00  4368   0.213E+00    0.602E-01
RMM:   2    -0.230394124740E+04   -0.59218E-01   -0.64652E-01  6011   0.435E-01    0.389E-01
RMM:   3    -0.230394423743E+04   -0.29900E-02   -0.57943E-02  5345   0.131E-01    0.264E-01
RMM:   4    -0.230394381260E+04    0.42482E-03   -0.59648E-03  5197   0.295E-02    0.173E-01
RMM:   5    -0.230394337498E+04    0.43762E-03   -0.14750E-03  4893   0.261E-02    0.409E-02
RMM:   6    -0.230394336250E+04    0.12484E-04   -0.16521E-04  4072   0.134E-02    0.174E-02
RMM:   7    -0.230394335649E+04    0.60075E-05   -0.27510E-05  2854   0.416E-03
  73 F= -.23239729E+04 E0= -.23239729E+04  d E =-.477254E-02  mag=    -0.0000
       N       E                     dE             d eps       ncg     rms          rms(c)
DAV:   1    -0.230393076106E+04    0.12601E-01   -0.14495E+00  4384   0.106E+00    0.303E-01
RMM:   2    -0.230394586952E+04   -0.15108E-01   -0.16529E-01  6052   0.220E-01    0.191E-01
RMM:   3    -0.230394667105E+04   -0.80153E-03   -0.15367E-02  5319   0.682E-02    0.120E-01
RMM:   4    -0.230394663133E+04    0.39724E-04   -0.16118E-03  4616   0.147E-02    0.872E-02
RMM:   5    -0.230394652718E+04    0.10414E-03   -0.38922E-04  4237   0.137E-02    0.275E-02
RMM:   6    -0.230394652132E+04    0.58674E-05   -0.57040E-05  3042   0.696E-03
  74 F= -.23239759E+04 E0= -.23239759E+04  d E =-.300530E-02  mag=    -0.0000
       N       E                     dE             d eps       ncg     rms          rms(c)
DAV:   1    -0.230382664110E+04    0.11989E+00   -0.11214E+01  4368   0.296E+00    0.836E-01
RMM:   2    -0.230394414999E+04   -0.11751E+00   -0.12873E+00  6043   0.601E-01    0.527E-01
RMM:   3    -0.230395138617E+04   -0.72362E-02   -0.11450E-01  5456   0.180E-01    0.393E-01
RMM:   4    -0.230395036905E+04    0.10171E-02   -0.12157E-02  5622   0.423E-02    0.244E-01
RMM:   5    -0.230394949477E+04    0.87428E-03   -0.25842E-03  4759   0.333E-02    0.587E-02
RMM:   6    -0.230394947936E+04    0.15410E-04   -0.26244E-04  4382   0.202E-02    0.231E-02
RMM:   7    -0.230394947147E+04    0.78913E-05   -0.46837E-05  3201   0.497E-03
  75 F= -.23239785E+04 E0= -.23239785E+04  d E =-.551609E-02  mag=    -0.0000
       N       E                     dE             d eps       ncg     rms          rms(c)
DAV:   1    -0.230391747154E+04    0.32008E-01   -0.30987E+00  4368   0.151E+00    0.443E-01
RMM:   2    -0.230395144563E+04   -0.33974E-01   -0.37162E-01  6103   0.318E-01    0.288E-01
RMM:   3    -0.230395335060E+04   -0.19050E-02   -0.33705E-02  5428   0.981E-02    0.194E-01
RMM:   4    -0.230395318167E+04    0.16892E-03   -0.35429E-03  5082   0.216E-02    0.130E-01
RMM:   5    -0.230395294450E+04    0.23718E-03   -0.78948E-04  4732   0.182E-02    0.315E-02
RMM:   6    -0.230395294046E+04    0.40376E-05   -0.83653E-05  3268   0.974E-03
  76 F= -.23239817E+04 E0= -.23239817E+04  d E =-.322055E-02  mag=    -0.0000
       N       E                     dE             d eps       ncg     rms          rms(c)
DAV:   1    -0.230391528718E+04    0.37657E-01   -0.33374E+00  4376   0.157E+00    0.461E-01
RMM:   2    -0.230395224981E+04   -0.36963E-01   -0.40391E-01  6087   0.331E-01    0.302E-01
RMM:   3    -0.230395439130E+04   -0.21415E-02   -0.37586E-02  5435   0.102E-01    0.203E-01
RMM:   4    -0.230395420279E+04    0.18851E-03   -0.38909E-03  5108   0.223E-02    0.135E-01
RMM:   5    -0.230395394218E+04    0.26061E-03   -0.84892E-04  4791   0.188E-02    0.329E-02
RMM:   6    -0.230395393676E+04    0.54173E-05   -0.92204E-05  3368   0.998E-03
  77 F= -.23239824E+04 E0= -.23239824E+04  d E =-.396203E-02  mag=    -0.0000
       N       E                     dE             d eps       ncg     rms          rms(c)
DAV:   1    -0.230392464033E+04    0.29302E-01   -0.28393E+00  4376   0.143E+00    0.445E-01
RMM:   2    -0.230395681660E+04   -0.32176E-01   -0.35248E-01  6054   0.309E-01    0.279E-01
RMM:   3    -0.230395881794E+04   -0.20013E-02   -0.33262E-02  5339   0.979E-02    0.194E-01
RMM:   4    -0.230395862776E+04    0.19018E-03   -0.34509E-03  5117   0.219E-02    0.128E-01
RMM:   5    -0.230395838743E+04    0.24033E-03   -0.76491E-04  4897   0.182E-02    0.310E-02
RMM:   6    -0.230395838209E+04    0.53433E-05   -0.84449E-05  3328   0.926E-03
  78 F= -.23239867E+04 E0= -.23239867E+04  d E =-.432146E-02  mag=    -0.0000
       N       E                     dE             d eps       ncg     rms          rms(c)
DAV:   1    -0.230393412248E+04    0.24265E-01   -0.21182E+00  4376   0.124E+00    0.385E-01
RMM:   2    -0.230395834686E+04   -0.24224E-01   -0.26504E-01  6067   0.268E-01    0.244E-01
RMM:   3    -0.230395982273E+04   -0.14759E-02   -0.25023E-02  5386   0.826E-02    0.168E-01
RMM:   4    -0.230395968282E+04    0.13991E-03   -0.26025E-03  4941   0.189E-02    0.111E-01
RMM:   5    -0.230395950015E+04    0.18267E-03   -0.58801E-04  4748   0.160E-02    0.270E-02
RMM:   6    -0.230395949566E+04    0.44892E-05   -0.63627E-05  3106   0.840E-03
  79 F= -.23239878E+04 E0= -.23239878E+04  d E =-.533049E-02  mag=    -0.0000
       N       E                     dE             d eps       ncg     rms          rms(c)
DAV:   1    -0.230392534067E+04    0.34159E-01   -0.34049E+00  4368   0.157E+00    0.486E-01
RMM:   2    -0.230396236727E+04   -0.37027E-01   -0.40552E-01  6062   0.335E-01    0.303E-01
RMM:   3    -0.230396469920E+04   -0.23319E-02   -0.37934E-02  5394   0.102E-01    0.218E-01
RMM:   4    -0.230396441233E+04    0.28687E-03   -0.39462E-03  5283   0.244E-02    0.140E-01
RMM:   5    -0.230396413146E+04    0.28087E-03   -0.85792E-04  4957   0.195E-02    0.333E-02
RMM:   6    -0.230396412773E+04    0.37260E-05   -0.92721E-05  3480   0.101E-02
  80 F= -.23239922E+04 E0= -.23239922E+04  d E =-.439968E-02  mag=    -0.0000
       N       E                     dE             d eps       ncg     rms          rms(c)
DAV:   1    -0.230392435452E+04    0.39777E-01   -0.35304E+00  4368   0.160E+00    0.496E-01
RMM:   2    -0.230396291124E+04   -0.38557E-01   -0.42180E-01  6061   0.342E-01    0.310E-01
RMM:   3    -0.230396526819E+04   -0.23570E-02   -0.38741E-02  5432   0.103E-01    0.223E-01
RMM:   4    -0.230396495896E+04    0.30923E-03   -0.40743E-03  5279   0.247E-02    0.142E-01
RMM:   5    -0.230396466456E+04    0.29439E-03   -0.89974E-04  5005   0.198E-02    0.338E-02
RMM:   6    -0.230396465893E+04    0.56330E-05   -0.95902E-05  3514   0.102E-02
  81 F= -.23239924E+04 E0= -.23239924E+04  d E =-.469842E-02  mag=    -0.0000
       N       E                     dE             d eps       ncg     rms          rms(c)
DAV:   1    -0.230395918211E+04    0.54825E-02   -0.51133E-01  4448   0.611E-01    0.189E-01
RMM:   2    -0.230396471120E+04   -0.55291E-02   -0.60514E-02  6164   0.134E-01    0.120E-01
RMM:   3    -0.230396498925E+04   -0.27805E-03   -0.60154E-03  4884   0.421E-02    0.717E-02
RMM:   4    -0.230396497030E+04    0.18948E-04   -0.58195E-04  3655   0.923E-03    0.512E-02
RMM:   5    -0.230396493822E+04    0.32084E-04   -0.15671E-04  3484   0.907E-03    0.185E-02
RMM:   6    -0.230396493448E+04    0.37326E-05   -0.23072E-05  2865   0.507E-03
  82 F= -.23239928E+04 E0= -.23239928E+04  d E =-.506200E-02  mag=    -0.0000
       N       E                     dE             d eps       ncg     rms          rms(c)
DAV:   1    -0.230392653337E+04    0.38405E-01   -0.39565E+00  4368   0.169E+00    0.524E-01
RMM:   2    -0.230396800470E+04   -0.41471E-01   -0.45289E-01  6066   0.360E-01    0.344E-01
RMM:   3    -0.230397043960E+04   -0.24349E-02   -0.42859E-02  5367   0.112E-01    0.247E-01
RMM:   4    -0.230396995426E+04    0.48534E-03   -0.43163E-03  5322   0.263E-02    0.148E-01
RMM:   5    -0.230396963856E+04    0.31570E-03   -0.99721E-04  4982   0.210E-02    0.341E-02
RMM:   6    -0.230396963086E+04    0.77012E-05   -0.10194E-04  3669   0.111E-02    0.133E-02
RMM:   7    -0.230396962671E+04    0.41581E-05   -0.18413E-05  2838   0.369E-03
  83 F= -.23239971E+04 E0= -.23239971E+04  d E =-.431835E-02  mag=    -0.0000
       N       E                     dE             d eps       ncg     rms          rms(c)
DAV:   1    -0.230396607279E+04    0.35581E-02   -0.35821E-01  4416   0.508E-01    0.159E-01
RMM:   2    -0.230396987492E+04   -0.38021E-02   -0.41382E-02  6126   0.111E-01    0.104E-01
RMM:   3    -0.230397004693E+04   -0.17201E-03   -0.38286E-03  4613   0.358E-02    0.668E-02
RMM:   4    -0.230397002089E+04    0.26042E-04   -0.39568E-04  3313   0.829E-03    0.448E-02
RMM:   5    -0.230396999210E+04    0.28790E-04   -0.10674E-04  3513   0.787E-03    0.113E-02
RMM:   6    -0.230396999143E+04    0.66869E-06   -0.14286E-05  2836   0.475E-03
  84 F= -.23239974E+04 E0= -.23239974E+04  d E =-.457164E-02  mag=    -0.0000
       N       E                     dE             d eps       ncg     rms          rms(c)
DAV:   1    -0.230394285174E+04    0.27140E-01   -0.28379E+00  4368   0.145E+00    0.458E-01
RMM:   2    -0.230397334853E+04   -0.30497E-01   -0.33108E-01  6032   0.318E-01    0.298E-01
RMM:   3    -0.230397475605E+04   -0.14075E-02   -0.29618E-02  5416   0.945E-02    0.210E-01
RMM:   4    -0.230397439865E+04    0.35739E-03   -0.31272E-03  5153   0.230E-02    0.129E-01
RMM:   5    -0.230397415659E+04    0.24206E-03   -0.82648E-04  5074   0.195E-02    0.267E-02
RMM:   6    -0.230397414531E+04    0.11286E-04   -0.87461E-05  3410   0.946E-03    0.119E-02
RMM:   7    -0.230397414002E+04    0.52899E-05   -0.16835E-05  2828   0.361E-03
  85 F= -.23240011E+04 E0= -.23240011E+04  d E =-.374157E-02  mag=     0.0000
       N       E                     dE             d eps       ncg     rms          rms(c)
DAV:   1    -0.230397284657E+04    0.12987E-02   -0.13663E-01  4576   0.320E-01    0.101E-01
RMM:   2    -0.230397430309E+04   -0.14565E-02   -0.15804E-02  6204   0.709E-02    0.655E-02
RMM:   3    -0.230397435307E+04   -0.49977E-04   -0.13359E-03  3698   0.213E-02    0.414E-02
RMM:   4    -0.230397434190E+04    0.11170E-04   -0.14884E-04  2966   0.609E-03    0.279E-02
RMM:   5    -0.230397433029E+04    0.11606E-04   -0.46479E-05  2936   0.581E-03    0.773E-03
RMM:   6    -0.230397433000E+04    0.28750E-06   -0.82255E-06  2811   0.415E-03
  86 F= -.23240012E+04 E0= -.23240012E+04  d E =-.384320E-02  mag=    -0.0000
       N       E                     dE             d eps       ncg     rms          rms(c)
DAV:   1    -0.230395422431E+04    0.20106E-01   -0.24045E+00  4368   0.138E+00    0.418E-01
RMM:   2    -0.230397797768E+04   -0.23753E-01   -0.25616E-01  5956   0.297E-01    0.272E-01
RMM:   3    -0.230397883657E+04   -0.85889E-03   -0.21601E-02  5301   0.881E-02    0.186E-01
RMM:   4    -0.230397852116E+04    0.31542E-03   -0.22620E-03  5020   0.212E-02    0.114E-01
RMM:   5    -0.230397835841E+04    0.16275E-03   -0.75235E-04  5069   0.184E-02    0.226E-02
RMM:   6    -0.230397834755E+04    0.10860E-04   -0.56662E-05  3077   0.804E-03    0.102E-02
RMM:   7    -0.230397834556E+04    0.19874E-05   -0.11504E-05  2808   0.337E-03
  87 F= -.23240047E+04 E0= -.23240047E+04  d E =-.348460E-02  mag=     0.0000
       N       E                     dE             d eps       ncg     rms          rms(c)
DAV:   1    -0.230397474917E+04    0.35984E-02   -0.41140E-01  4384   0.571E-01    0.173E-01
RMM:   2    -0.230397881540E+04   -0.40662E-02   -0.43799E-02  6093   0.124E-01    0.113E-01
RMM:   3    -0.230397893544E+04   -0.12004E-03   -0.36964E-03  4779   0.372E-02    0.724E-02
RMM:   4    -0.230397889396E+04    0.41480E-04   -0.39974E-04  3621   0.901E-03    0.470E-02
RMM:   5    -0.230397886424E+04    0.29718E-04   -0.12182E-04  3758   0.864E-03    0.110E-02
RMM:   6    -0.230397886323E+04    0.10128E-05   -0.14390E-05  2838   0.475E-03
  88 F= -.23240050E+04 E0= -.23240050E+04  d E =-.378446E-02  mag=     0.0000
       N       E                     dE             d eps       ncg     rms          rms(c)
DAV:   1    -0.230396531837E+04    0.13546E-01   -0.19087E+00  4368   0.125E+00    0.366E-01
RMM:   2    -0.230398266086E+04   -0.17342E-01   -0.18570E-01  5982   0.264E-01    0.254E-01
RMM:   3    -0.230398300131E+04   -0.34045E-03   -0.15557E-02  5322   0.768E-02    0.163E-01
RMM:   4    -0.230398274664E+04    0.25466E-03   -0.16250E-03  4730   0.185E-02    0.981E-02
RMM:   5    -0.230398262611E+04    0.12053E-03   -0.55896E-04  4943   0.168E-02    0.187E-02
RMM:   6    -0.230398261838E+04    0.77266E-05   -0.47341E-05  2984   0.766E-03
  89 F= -.23240083E+04 E0= -.23240083E+04  d E =-.326061E-02  mag=     0.0000
       N       E                     dE             d eps       ncg     rms          rms(c)
DAV:   1    -0.230396762814E+04    0.14998E-01   -0.17242E+00  4368   0.119E+00    0.349E-01
RMM:   2    -0.230398323531E+04   -0.15607E-01   -0.16712E-01  5967   0.252E-01    0.243E-01
RMM:   3    -0.230398365760E+04   -0.42228E-03   -0.14180E-02  5346   0.720E-02    0.156E-01
RMM:   4    -0.230398342630E+04    0.23129E-03   -0.14771E-03  4712   0.176E-02    0.932E-02
RMM:   5    -0.230398331580E+04    0.11051E-03   -0.49721E-04  4880   0.159E-02    0.179E-02
RMM:   6    -0.230398330850E+04    0.72920E-05   -0.43172E-05  2949   0.744E-03
  90 F= -.23240085E+04 E0= -.23240085E+04  d E =-.348455E-02  mag=     0.0000
       N       E                     dE             d eps       ncg     rms          rms(c)
DAV:   1    -0.230398121295E+04    0.21028E-02   -0.24123E-01  4448   0.444E-01    0.130E-01
RMM:   2    -0.230398337468E+04   -0.21617E-02   -0.23184E-02  6171   0.947E-02    0.915E-02
RMM:   3    -0.230398340771E+04   -0.33029E-04   -0.19226E-03  4264   0.268E-02    0.533E-02
RMM:   4    -0.230398338195E+04    0.25758E-04   -0.20648E-04  3164   0.709E-03    0.336E-02
RMM:   5    -0.230398336907E+04    0.12883E-04   -0.68166E-05  3183   0.699E-03    0.794E-03
RMM:   6    -0.230398336867E+04    0.40216E-06   -0.91107E-06  2805   0.432E-03
  91 F= -.23240087E+04 E0= -.23240087E+04  d E =-.371872E-02  mag=     0.0000
       N       E                     dE             d eps       ncg     rms          rms(c)
DAV:   1    -0.230397212294E+04    0.11246E-01   -0.16052E+00  4368   0.117E+00    0.346E-01
RMM:   2    -0.230398642424E+04   -0.14301E-01   -0.15372E-01  5996   0.250E-01    0.231E-01
RMM:   3    -0.230398676429E+04   -0.34005E-03   -0.12118E-02  5327   0.724E-02    0.151E-01
RMM:   4    -0.230398652307E+04    0.24122E-03   -0.13431E-03  4759   0.177E-02    0.891E-02
RMM:   5    -0.230398641678E+04    0.10629E-03   -0.46568E-04  4987   0.160E-02    0.169E-02
RMM:   6    -0.230398641078E+04    0.60054E-05   -0.41138E-05  2924   0.689E-03
  92 F= -.23240112E+04 E0= -.23240112E+04  d E =-.249290E-02  mag=     0.0000
       N       E                     dE             d eps       ncg     rms          rms(c)
DAV:   1    -0.230398560104E+04    0.81574E-03   -0.11513E-01  4512   0.313E-01    0.935E-02
RMM:   2    -0.230398665549E+04   -0.10544E-02   -0.11274E-02  6055   0.685E-02    0.629E-02
RMM:   3    -0.230398666054E+04   -0.50492E-05   -0.85812E-04  3580   0.186E-02    0.388E-02
RMM:   4    -0.230398664646E+04    0.14080E-04   -0.10018E-04  2935   0.586E-03    0.243E-02
RMM:   5    -0.230398663809E+04    0.83688E-05   -0.37142E-05  2904   0.567E-03
  93 F= -.23240113E+04 E0= -.23240113E+04  d E =-.257407E-02  mag=    -0.0000
       N       E                     dE             d eps       ncg     rms          rms(c)
DAV:   1    -0.230398097341E+04    0.56730E-02   -0.94519E-01  4368   0.929E-01    0.274E-01
RMM:   2    -0.230398915846E+04   -0.81850E-02   -0.88010E-02  6042   0.199E-01    0.176E-01
RMM:   3    -0.230398928257E+04   -0.12411E-03   -0.64766E-03  5352   0.532E-02    0.115E-01
RMM:   4    -0.230398913434E+04    0.14823E-03   -0.75966E-04  4577   0.141E-02    0.676E-02
RMM:   5    -0.230398907271E+04    0.61630E-04   -0.26204E-04  4518   0.130E-02    0.132E-02
RMM:   6    -0.230398906981E+04    0.29033E-05   -0.25838E-05  2844   0.633E-03
  94 F= -.23240132E+04 E0= -.23240132E+04  d E =-.188257E-02  mag=     0.0000
       N       E                     dE             d eps       ncg     rms          rms(c)
DAV:   1    -0.230398715897E+04    0.19137E-02   -0.26054E-01  4384   0.488E-01    0.144E-01
RMM:   2    -0.230398943270E+04   -0.22737E-02   -0.24388E-02  5992   0.104E-01    0.930E-02
RMM:   3    -0.230398943272E+04   -0.14843E-07   -0.17390E-03  4555   0.286E-02    0.593E-02
RMM:   4    -0.230398939400E+04    0.38720E-04   -0.20779E-04  3496   0.788E-03    0.356E-02
RMM:   5    -0.230398937600E+04    0.17994E-04   -0.75134E-05  3487   0.771E-03    0.746E-03
RMM:   6    -0.230398937542E+04    0.58161E-06   -0.99922E-06  2821   0.457E-03
  95 F= -.23240132E+04 E0= -.23240132E+04  d E =-.190123E-02  mag=    -0.0000
       N       E                     dE             d eps       ncg     rms          rms(c)
DAV:   1    -0.230398538911E+04    0.39869E-02   -0.71728E-01  4368   0.807E-01    0.218E-01
RMM:   2    -0.230399126412E+04   -0.58750E-02   -0.62326E-02  6006   0.168E-01    0.158E-01
RMM:   3    -0.230399124505E+04    0.19066E-04   -0.45830E-03  5182   0.443E-02    0.962E-02
RMM:   4    -0.230399115397E+04    0.91081E-04   -0.50765E-04  4280   0.113E-02    0.568E-02
RMM:   5    -0.230399111711E+04    0.36856E-04   -0.17995E-04  4153   0.108E-02    0.100E-02
RMM:   6    -0.230399111589E+04    0.12182E-05   -0.16873E-05  2834   0.557E-03
  96 F= -.23240145E+04 E0= -.23240145E+04  d E =-.131591E-02  mag=    -0.0000
       N       E                     dE             d eps       ncg     rms          rms(c)
DAV:   1    -0.230398906583E+04    0.20513E-02   -0.32065E-01  4384   0.540E-01    0.146E-01
RMM:   2    -0.230399170464E+04   -0.26388E-02   -0.27952E-02  5981   0.113E-01    0.106E-01
RMM:   3    -0.230399168905E+04    0.15595E-04   -0.20467E-03  4609   0.288E-02    0.640E-02
RMM:   4    -0.230399165021E+04    0.38844E-04   -0.22793E-04  3400   0.791E-03    0.382E-02
RMM:   5    -0.230399163382E+04    0.16384E-04   -0.83512E-05  3548   0.778E-03    0.691E-03
RMM:   6    -0.230399163349E+04    0.33126E-06   -0.92569E-06  2812   0.459E-03
  97 F= -.23240148E+04 E0= -.23240148E+04  d E =-.155054E-02  mag=    -0.0000
       N       E                     dE             d eps       ncg     rms          rms(c)
DAV:   1    -0.230399187613E+04   -0.24231E-03   -0.21665E-01  4384   0.483E-01    0.148E-01
RMM:   2    -0.230399307922E+04   -0.12031E-02   -0.13454E-02  5784   0.935E-02    0.770E-02
RMM:   3    -0.230399304354E+04    0.35675E-04   -0.92771E-04  4659   0.266E-02    0.568E-02
RMM:   4    -0.230399299617E+04    0.47373E-04   -0.14690E-04  3958   0.873E-03    0.333E-02
RMM:   5    -0.230399297411E+04    0.22062E-04   -0.69637E-05  3769   0.830E-03    0.686E-03
RMM:   6    -0.230399297275E+04    0.13547E-05   -0.10288E-05  2806   0.446E-03
  98 F= -.23240160E+04 E0= -.23240160E+04  d E =-.119920E-02  mag=     0.0000
       N       E                     dE             d eps       ncg     rms          rms(c)
DAV:   1    -0.230399297234E+04    0.17650E-05   -0.18088E-02  4752   0.140E-01    0.429E-02
RMM:   2    -0.230399307495E+04   -0.10261E-03   -0.11442E-03  5897   0.280E-02    0.225E-02
RMM:   3    -0.230399307085E+04    0.40933E-05   -0.76931E-05  2898   0.884E-03
  99 F= -.23240160E+04 E0= -.23240160E+04  d E =-.125675E-02  mag=    -0.0000
       N       E                     dE             d eps       ncg     rms          rms(c)
DAV:   1    -0.230399332583E+04   -0.25088E-03   -0.17687E-01  4384   0.449E-01    0.119E-01
RMM:   2    -0.230399412907E+04   -0.80323E-03   -0.89453E-03  5750   0.792E-02    0.558E-02
RMM:   3    -0.230399409915E+04    0.29919E-04   -0.52575E-04  4325   0.228E-02    0.392E-02
RMM:   4    -0.230399408537E+04    0.13777E-04   -0.93212E-05  3382   0.723E-03    0.299E-02
RMM:   5    -0.230399406969E+04    0.15675E-04   -0.50441E-05  3364   0.712E-03    0.581E-03
RMM:   6    -0.230399406974E+04   -0.43932E-07   -0.70379E-06  2800   0.454E-03
 100 F= -.23240169E+04 E0= -.23240169E+04  d E =-.837432E-03  mag=     0.0000
       N       E                     dE             d eps       ncg     rms          rms(c)
DAV:   1    -0.230399389848E+04    0.17121E-03   -0.11541E-01  4416   0.363E-01    0.964E-02
RMM:   2    -0.230399442319E+04   -0.52471E-03   -0.58107E-03  5720   0.634E-02    0.467E-02
RMM:   3    -0.230399440919E+04    0.14001E-04   -0.39330E-04  3830   0.199E-02    0.359E-02
RMM:   4    -0.230399439250E+04    0.16687E-04   -0.56235E-05  2958   0.638E-03    0.220E-02
RMM:   5    -0.230399438338E+04    0.91246E-05   -0.35539E-05  3179   0.603E-03
 101 F= -.23240170E+04 E0= -.23240170E+04  d E =-.102042E-02  mag=     0.0000
       N       E                     dE             d eps       ncg     rms          rms(c)
DAV:   1    -0.230399449757E+04   -0.10506E-03   -0.21545E-01  4376   0.494E-01    0.110E-01
RMM:   2    -0.230399537206E+04   -0.87449E-03   -0.95765E-03  5720   0.841E-02    0.571E-02
RMM:   3    -0.230399536506E+04    0.70007E-05   -0.71433E-04  4437   0.314E-02    0.447E-02
RMM:   4    -0.230399534398E+04    0.21081E-04   -0.87972E-05  3223   0.740E-03    0.284E-02
RMM:   5    -0.230399532979E+04    0.14188E-04   -0.54483E-05  3614   0.708E-03    0.560E-03
RMM:   6    -0.230399532932E+04    0.47099E-06   -0.64090E-06  2800   0.481E-03
 102 F= -.23240178E+04 E0= -.23240178E+04  d E =-.782401E-03  mag=     0.0000
       N       E                     dE             d eps       ncg     rms          rms(c)
DAV:   1    -0.230399499145E+04    0.33834E-03   -0.17360E-01  4384   0.443E-01    0.985E-02
RMM:   2    -0.230399570397E+04   -0.71252E-03   -0.77970E-03  5543   0.745E-02    0.518E-02
RMM:   3    -0.230399568817E+04    0.15795E-04   -0.54734E-04  4229   0.252E-02    0.405E-02
RMM:   4    -0.230399567014E+04    0.18029E-04   -0.70617E-05  3061   0.663E-03    0.257E-02
RMM:   5    -0.230399565767E+04    0.12479E-04   -0.44792E-05  3350   0.647E-03    0.504E-03
RMM:   6    -0.230399565721E+04    0.45077E-06   -0.56084E-06  2799   0.441E-03
 103 F= -.23240180E+04 E0= -.23240180E+04  d E =-.963552E-03  mag=    -0.0000
       N       E                     dE             d eps       ncg     rms          rms(c)
DAV:   1    -0.230399573388E+04   -0.76210E-04   -0.21377E-01  4384   0.491E-01    0.109E-01
RMM:   2    -0.230399657515E+04   -0.84127E-03   -0.92834E-03  5551   0.818E-02    0.531E-02
RMM:   3    -0.230399656162E+04    0.13530E-04   -0.67583E-04  4387   0.268E-02    0.420E-02
[...]
RMM:   5    -0.230400532414E+04    0.18838E-04   -0.36112E-05  2957   0.544E-03    0.105E-02
RMM:   6    -0.230400532341E+04    0.73892E-06   -0.92284E-06  2806   0.422E-03
 118 F= -.23240251E+04 E0= -.23240251E+04  d E =-.577120E-03  mag=     0.0000
       N       E                     dE             d eps       ncg     rms          rms(c)
DAV:   1    -0.230400403843E+04    0.12857E-02   -0.24555E-01  4368   0.506E-01    0.125E-01
RMM:   2    -0.230400556079E+04   -0.15224E-02   -0.16645E-02  5745   0.916E-02    0.607E-02
RMM:   3    -0.230400562723E+04   -0.66445E-04   -0.16263E-03  4655   0.348E-02    0.436E-02
RMM:   4    -0.230400563665E+04   -0.94196E-05   -0.19780E-04  3248   0.835E-03    0.376E-02
RMM:   5    -0.230400561142E+04    0.25237E-04   -0.47356E-05  3064   0.611E-03    0.122E-02
RMM:   6    -0.230400561023E+04    0.11890E-05   -0.11964E-05  2814   0.464E-03
 119 F= -.23240253E+04 E0= -.23240253E+04  d E =-.758120E-03  mag=     0.0000
       N       E                     dE             d eps       ncg     rms          rms(c)
DAV:   1    -0.230400473304E+04    0.87838E-03   -0.25137E-01  4368   0.513E-01    0.135E-01
RMM:   2    -0.230400626571E+04   -0.15327E-02   -0.16961E-02  5821   0.936E-02    0.627E-02
RMM:   3    -0.230400632199E+04   -0.56284E-04   -0.16558E-03  4727   0.349E-02    0.444E-02
RMM:   4    -0.230400632948E+04   -0.74900E-05   -0.21013E-04  3427   0.894E-03    0.388E-02
RMM:   5    -0.230400630055E+04    0.28928E-04   -0.55037E-05  3208   0.681E-03    0.120E-02
RMM:   6    -0.230400629865E+04    0.19091E-05   -0.13764E-05  2812   0.474E-03
 120 F= -.23240259E+04 E0= -.23240259E+04  d E =-.595610E-03  mag=    -0.0000
       N       E                     dE             d eps       ncg     rms          rms(c)
DAV:   1    -0.230400611956E+04    0.18099E-03   -0.38098E-02  4512   0.200E-01    0.529E-02
RMM:   2    -0.230400635664E+04   -0.23708E-03   -0.26219E-03  6045   0.376E-02    0.246E-02
RMM:   3    -0.230400636393E+04   -0.72911E-05   -0.24169E-04  3173   0.125E-02    0.173E-02
RMM:   4    -0.230400636538E+04   -0.14494E-05   -0.31991E-05  2832   0.415E-03
 121 F= -.23240259E+04 E0= -.23240259E+04  d E =-.626390E-03  mag=    -0.0000
       N       E                     dE             d eps       ncg     rms          rms(c)
DAV:   1    -0.230400545514E+04    0.90879E-03   -0.22335E-01  4368   0.480E-01    0.127E-01
RMM:   2    -0.230400690464E+04   -0.14495E-02   -0.16018E-02  5825   0.873E-02    0.609E-02
RMM:   3    -0.230400696990E+04   -0.65258E-04   -0.16615E-03  4568   0.338E-02    0.429E-02
RMM:   4    -0.230400698005E+04   -0.10150E-04   -0.20733E-04  3349   0.846E-03    0.375E-02
RMM:   5    -0.230400695412E+04    0.25923E-04   -0.46877E-05  2991   0.621E-03    0.128E-02
RMM:   6    -0.230400695279E+04    0.13297E-05   -0.14601E-05  2816   0.465E-03
 122 F= -.23240265E+04 E0= -.23240265E+04  d E =-.549970E-03  mag=     0.0000
       N       E                     dE             d eps       ncg     rms          rms(c)
DAV:   1    -0.230400644965E+04    0.50447E-03   -0.83550E-02  4416   0.294E-01    0.775E-02
RMM:   2    -0.230400699916E+04   -0.54951E-03   -0.60546E-03  5971   0.546E-02    0.364E-02
RMM:   3    -0.230400702133E+04   -0.22170E-04   -0.58719E-04  3708   0.187E-02    0.247E-02
RMM:   4    -0.230400702510E+04   -0.37690E-05   -0.76883E-05  2870   0.555E-03
 123 F= -.23240265E+04 E0= -.23240265E+04  d E =-.599847E-03  mag=     0.0000
       N       E                     dE             d eps       ncg     rms          rms(c)
DAV:   1    -0.230400602864E+04    0.99269E-03   -0.22818E-01  4368   0.481E-01    0.130E-01
RMM:   2    -0.230400749013E+04   -0.14615E-02   -0.16191E-02  5763   0.872E-02    0.622E-02
RMM:   3    -0.230400755482E+04   -0.64684E-04   -0.16722E-03  4626   0.354E-02    0.456E-02
RMM:   4    -0.230400756318E+04   -0.83606E-05   -0.21013E-04  3354   0.859E-03    0.388E-02
RMM:   5    -0.230400753504E+04    0.28141E-04   -0.51570E-05  3086   0.632E-03    0.118E-02
RMM:   6    -0.230400753370E+04    0.13360E-05   -0.12548E-05  2814   0.470E-03
 124 F= -.23240270E+04 E0= -.23240270E+04  d E =-.463087E-03  mag=     0.0000
       N       E                     dE             d eps       ncg     rms          rms(c)
DAV:   1    -0.230400730826E+04    0.22678E-03   -0.38506E-02  4544   0.198E-01    0.533E-02
RMM:   2    -0.230400755831E+04   -0.25005E-03   -0.27603E-03  5990   0.371E-02    0.247E-02
RMM:   3    -0.230400756830E+04   -0.99895E-05   -0.26625E-04  3205   0.131E-02    0.167E-02
RMM:   4    -0.230400757023E+04   -0.19271E-05   -0.36173E-05  2830   0.407E-03
 125 F= -.23240270E+04 E0= -.23240270E+04  d E =-.481156E-03  mag=    -0.0000
       N       E                     dE             d eps       ncg     rms          rms(c)
DAV:   1    -0.230400666866E+04    0.89964E-03   -0.21245E-01  4368   0.457E-01    0.129E-01
RMM:   2    -0.230400805797E+04   -0.13893E-02   -0.15333E-02  5814   0.849E-02    0.622E-02
RMM:   3    -0.230400811917E+04   -0.61204E-04   -0.15866E-03  4583   0.329E-02    0.461E-02
RMM:   4    -0.230400812489E+04   -0.57176E-05   -0.19592E-04  3240   0.835E-03    0.380E-02
RMM:   5    -0.230400809830E+04    0.26590E-04   -0.50418E-05  3094   0.631E-03    0.110E-02
RMM:   6    -0.230400809709E+04    0.12077E-05   -0.11092E-05  2804   0.469E-03
 126 F= -.23240275E+04 E0= -.23240275E+04  d E =-.457167E-03  mag=     0.0000
       N       E                     dE             d eps       ncg     rms          rms(c)
DAV:   1    -0.230400802395E+04    0.74354E-04   -0.13386E-02  4608   0.115E-01    0.327E-02
RMM:   2    -0.230400811296E+04   -0.89008E-04   -0.98142E-04  5880   0.225E-02    0.154E-02
RMM:   3    -0.230400811680E+04   -0.38448E-05   -0.97420E-05  2920   0.834E-03
 127 F= -.23240275E+04 E0= -.23240275E+04  d E =-.459442E-03  mag=     0.0000
       N       E                     dE             d eps       ncg     rms          rms(c)
DAV:   1    -0.230400747414E+04    0.63882E-03   -0.15609E-01  4368   0.388E-01    0.118E-01
RMM:   2    -0.230400851133E+04   -0.10372E-02   -0.11481E-02  5768   0.739E-02    0.552E-02
RMM:   3    -0.230400853835E+04   -0.27012E-04   -0.11103E-03  4395   0.271E-02    0.333E-02
RMM:   4    -0.230400853348E+04    0.48663E-05   -0.15400E-04  3762   0.789E-03    0.165E-02
RMM:   5    -0.230400852895E+04    0.45309E-05   -0.18027E-05  2818   0.570E-03
 128 F= -.23240278E+04 E0= -.23240278E+04  d E =-.363367E-03  mag=     0.0000
       N       E                     dE             d eps       ncg     rms          rms(c)
DAV:   1    -0.230400848443E+04    0.49050E-04   -0.78482E-03  4800   0.872E-02    0.271E-02
RMM:   2    -0.230400853778E+04   -0.53353E-04   -0.58796E-04  5611   0.171E-02    0.138E-02
RMM:   3    -0.230400853952E+04   -0.17413E-05   -0.55087E-05  2884   0.733E-03
 129 F= -.23240278E+04 E0= -.23240278E+04  d E =-.363017E-03  mag=    -0.0000
       N       E                     dE             d eps       ncg     rms          rms(c)
DAV:   1    -0.230400809283E+04    0.44495E-03   -0.13802E-01  4368   0.357E-01    0.103E-01
RMM:   2    -0.230400899627E+04   -0.90344E-03   -0.99785E-03  5776   0.677E-02    0.529E-02
RMM:   3    -0.230400904115E+04   -0.44881E-04   -0.10662E-03  4119   0.255E-02    0.414E-02
RMM:   4    -0.230400903801E+04    0.31388E-05   -0.12580E-04  2949   0.682E-03    0.299E-02
RMM:   5    -0.230400902308E+04    0.14936E-04   -0.36987E-05  2982   0.532E-03    0.781E-03
RMM:   6    -0.230400902266E+04    0.41958E-06   -0.66999E-06  2794   0.427E-03
 130 F= -.23240282E+04 E0= -.23240282E+04  d E =-.382751E-03  mag=     0.0000
       N       E                     dE             d eps       ncg     rms          rms(c)
DAV:   1    -0.230400889273E+04    0.13034E-03   -0.28689E-02  4384   0.163E-01    0.466E-02
RMM:   2    -0.230400908153E+04   -0.18879E-03   -0.20817E-03  5726   0.310E-02    0.230E-02
RMM:   3    -0.230400908972E+04   -0.81914E-05   -0.21207E-04  3094   0.124E-02    0.162E-02
RMM:   4    -0.230400909142E+04   -0.16960E-05   -0.28509E-05  2836   0.363E-03
 131 F= -.23240282E+04 E0= -.23240282E+04  d E =-.405885E-03  mag=     0.0000
       N       E                     dE             d eps       ncg     rms          rms(c)
DAV:   1    -0.230400886184E+04    0.22788E-03   -0.12086E-01  4368   0.329E-01    0.943E-02
RMM:   2    -0.230400961272E+04   -0.75087E-03   -0.83143E-03  5827   0.617E-02    0.471E-02
RMM:   3    -0.230400964454E+04   -0.31822E-04   -0.85954E-04  3890   0.236E-02    0.337E-02
RMM:   4    -0.230400964973E+04   -0.51956E-05   -0.11329E-04  2944   0.651E-03    0.293E-02
RMM:   5    -0.230400963418E+04    0.15555E-04   -0.29363E-05  2878   0.499E-03    0.763E-03
RMM:   6    -0.230400963359E+04    0.58684E-06   -0.68960E-06  2796   0.380E-03
 132 F= -.23240286E+04 E0= -.23240286E+04  d E =-.399116E-03  mag=     0.0000
       N       E                     dE             d eps       ncg     rms          rms(c)
DAV:   1    -0.230400940135E+04    0.23283E-03   -0.60739E-02  4376   0.233E-01    0.662E-02
RMM:   2    -0.230400977871E+04   -0.37735E-03   -0.41701E-03  5681   0.438E-02    0.329E-02
RMM:   3    -0.230400979413E+04   -0.15426E-04   -0.43138E-04  3486   0.181E-02    0.232E-02
RMM:   4    -0.230400979666E+04   -0.25254E-05   -0.56647E-05  2860   0.487E-03
 133 F= -.23240287E+04 E0= -.23240287E+04  d E =-.461105E-03  mag=     0.0000
       N       E                     dE             d eps       ncg     rms          rms(c)
DAV:   1    -0.230400936098E+04    0.43315E-03   -0.15111E-01  4368   0.364E-01    0.108E-01
RMM:   2    -0.230401030135E+04   -0.94037E-03   -0.10389E-02  5823   0.682E-02    0.535E-02
RMM:   3    -0.230401034118E+04   -0.39828E-04   -0.10931E-03  4177   0.281E-02    0.372E-02
RMM:   4    -0.230401035026E+04   -0.90824E-05   -0.14938E-04  3104   0.726E-03    0.335E-02
RMM:   5    -0.230401033001E+04    0.20245E-04   -0.36386E-05  2922   0.552E-03    0.879E-03
RMM:   6    -0.230401032941E+04    0.59910E-06   -0.80444E-06  2799   0.390E-03
 134 F= -.23240291E+04 E0= -.23240291E+04  d E =-.407333E-03  mag=    -0.0000
       N       E                     dE             d eps       ncg     rms          rms(c)
DAV:   1    -0.230401021243E+04    0.11758E-03   -0.30991E-02  4480   0.165E-01    0.486E-02
RMM:   2    -0.230401041024E+04   -0.19782E-03   -0.21737E-03  5917   0.317E-02    0.238E-02
RMM:   3    -0.230401041740E+04   -0.71517E-05   -0.21198E-04  3042   0.113E-02    0.160E-02
RMM:   4    -0.230401041955E+04   -0.21530E-05   -0.30768E-05  2830   0.375E-03
 135 F= -.23240291E+04 E0= -.23240291E+04  d E =-.440830E-03  mag=    -0.0000
       N       E                     dE             d eps       ncg     rms          rms(c)
DAV:   1    -0.230400983215E+04    0.58525E-03   -0.14612E-01  4368   0.356E-01    0.115E-01
RMM:   2    -0.230401083562E+04   -0.10035E-02   -0.11173E-02  5879   0.693E-02    0.538E-02
RMM:   3    -0.230401088042E+04   -0.44804E-04   -0.12106E-03  4237   0.276E-02    0.370E-02
RMM:   4    -0.230401088876E+04   -0.83331E-05   -0.15921E-04  3145   0.733E-03    0.331E-02
RMM:   5    -0.230401086775E+04    0.21011E-04   -0.37020E-05  2924   0.555E-03    0.954E-03
RMM:   6    -0.230401086659E+04    0.11525E-05   -0.92285E-06  2805   0.403E-03
 136 F= -.23240295E+04 E0= -.23240295E+04  d E =-.357615E-03  mag=     0.0000
       N       E                     dE             d eps       ncg     rms          rms(c)
DAV:   1    -0.230401084372E+04    0.24029E-04   -0.62668E-03  4880   0.739E-02    0.240E-02
RMM:   2    -0.230401088697E+04   -0.43253E-04   -0.48209E-04  5616   0.152E-02    0.111E-02
RMM:   3    -0.230401088871E+04   -0.17392E-05   -0.49549E-05  2856   0.581E-03
 137 F= -.23240295E+04 E0= -.23240295E+04  d E =-.361194E-03  mag=     0.0000
       N       E                     dE             d eps       ncg     rms          rms(c)
DAV:   1    -0.230401036472E+04    0.52225E-03   -0.13315E-01  4368   0.331E-01    0.109E-01
RMM:   2    -0.230401134302E+04   -0.97830E-03   -0.10825E-02  5874   0.664E-02    0.517E-02
RMM:   3    -0.230401138167E+04   -0.38648E-04   -0.10898E-03  4092   0.241E-02    0.322E-02
RMM:   4    -0.230401138813E+04   -0.64586E-05   -0.15095E-04  3379   0.725E-03    0.263E-02
RMM:   5    -0.230401137654E+04    0.11587E-04   -0.26528E-05  2868   0.551E-03    0.103E-02
RMM:   6    -0.230401137571E+04    0.83138E-06   -0.75812E-06  2808   0.294E-03
 138 F= -.23240299E+04 E0= -.23240299E+04  d E =-.377682E-03  mag=     0.0000
       N       E                     dE             d eps       ncg     rms          rms(c)
DAV:   1    -0.230401130359E+04    0.72947E-04   -0.16759E-02  4448   0.118E-01    0.386E-02
RMM:   2    -0.230401142520E+04   -0.12161E-03   -0.13452E-03  5917   0.236E-02    0.184E-02
RMM:   3    -0.230401143122E+04   -0.60116E-05   -0.13997E-04  2940   0.887E-03    0.135E-02
RMM:   4    -0.230401143216E+04   -0.94567E-06   -0.18315E-05  2820   0.284E-03
 139 F= -.23240299E+04 E0= -.23240299E+04  d E =-.395455E-03  mag=    -0.0000
       N       E                     dE             d eps       ncg     rms          rms(c)
DAV:   1    -0.230401099011E+04    0.44110E-03   -0.11904E-01  4368   0.311E-01    0.103E-01
RMM:   2    -0.230401188380E+04   -0.89369E-03   -0.98779E-03  5895   0.623E-02    0.487E-02
RMM:   3    -0.230401193246E+04   -0.48661E-04   -0.10640E-03  3884   0.237E-02    0.367E-02
RMM:   4    -0.230401193550E+04   -0.30404E-05   -0.12912E-04  2928   0.636E-03    0.289E-02
RMM:   5    -0.230401192072E+04    0.14783E-04   -0.29897E-05  2903   0.477E-03    0.807E-03
RMM:   6    -0.230401192025E+04    0.46652E-06   -0.66775E-06  2803   0.392E-03
 140 F= -.23240303E+04 E0= -.23240303E+04  d E =-.377829E-03  mag=    -0.0000
       N       E                     dE             d eps       ncg     rms          rms(c)
DAV:   1    -0.230401159484E+04    0.32588E-03   -0.56102E-02  4368   0.214E-01    0.706E-02
RMM:   2    -0.230401201679E+04   -0.42196E-03   -0.46522E-03  5726   0.426E-02    0.330E-02
RMM:   3    -0.230401204027E+04   -0.23477E-04   -0.50543E-04  3426   0.180E-02    0.248E-02
RMM:   4    -0.230401204179E+04   -0.15163E-05   -0.61031E-05  2858   0.473E-03
 141 F= -.23240303E+04 E0= -.23240303E+04  d E =-.423862E-03  mag=    -0.0000
       N       E                     dE             d eps       ncg     rms          rms(c)
DAV:   1    -0.230401166373E+04    0.37654E-03   -0.96240E-02  4368   0.270E-01    0.861E-02
RMM:   2    -0.230401243207E+04   -0.76834E-03   -0.84093E-03  5911   0.545E-02    0.444E-02
RMM:   3    -0.230401247917E+04   -0.47098E-04   -0.91951E-04  3712   0.230E-02    0.327E-02
RMM:   4    -0.230401248600E+04   -0.68322E-05   -0.11449E-04  2880   0.565E-03    0.274E-02
RMM:   5    -0.230401247283E+04    0.13176E-04   -0.23115E-05  2870   0.409E-03    0.801E-03
RMM:   6    -0.230401247252E+04    0.30886E-06   -0.55258E-06  2789   0.326E-03
 142 F= -.23240307E+04 E0= -.23240307E+04  d E =-.349986E-03  mag=    -0.0000
       N       E                     dE             d eps       ncg     rms          rms(c)
DAV:   1    -0.230401150949E+04    0.96333E-03   -0.13788E-01  4368   0.322E-01    0.101E-01
RMM:   2    -0.230401261350E+04   -0.11040E-02   -0.12054E-02  5758   0.653E-02    0.514E-02
RMM:   3    -0.230401268248E+04   -0.68983E-04   -0.13290E-03  4035   0.286E-02    0.374E-02
RMM:   4    -0.230401269087E+04   -0.83838E-05   -0.15758E-04  2932   0.641E-03    0.314E-02
RMM:   5    -0.230401267324E+04    0.17623E-04   -0.31535E-05  2930   0.463E-03    0.967E-03
RMM:   6    -0.230401267244E+04    0.80411E-06   -0.74046E-06  2799   0.369E-03
 143 F= -.23240308E+04 E0= -.23240308E+04  d E =-.454111E-03  mag=     0.0000
       N       E                     dE             d eps       ncg     rms          rms(c)
DAV:   1    -0.230401215451E+04    0.51873E-03   -0.13716E-01  4368   0.322E-01    0.104E-01
RMM:   2    -0.230401318470E+04   -0.10302E-02   -0.11343E-02  5817   0.645E-02    0.509E-02
RMM:   3    -0.230401323827E+04   -0.53562E-04   -0.12044E-03  4037   0.258E-02    0.359E-02
RMM:   4    -0.230401324693E+04   -0.86621E-05   -0.15538E-04  2964   0.656E-03    0.312E-02
RMM:   5    -0.230401322841E+04    0.18514E-04   -0.31304E-05  2914   0.481E-03    0.923E-03
RMM:   6    -0.230401322753E+04    0.88393E-06   -0.77612E-06  2795   0.377E-03
 144 F= -.23240312E+04 E0= -.23240312E+04  d E =-.427730E-03  mag=    -0.0000
       N       E                     dE             d eps       ncg     rms          rms(c)
DAV:   1    -0.230401289936E+04    0.32905E-03   -0.59770E-02  4384   0.212E-01    0.688E-02
RMM:   2    -0.230401334862E+04   -0.44925E-03   -0.49441E-03  5771   0.426E-02    0.337E-02
RMM:   3    -0.230401337341E+04   -0.24793E-04   -0.53708E-04  3472   0.184E-02    0.238E-02
RMM:   4    -0.230401337729E+04   -0.38741E-05   -0.68636E-05  2854   0.473E-03
 145 F= -.23240313E+04 E0= -.23240313E+04  d E =-.493694E-03  mag=    -0.0000
       N       E                     dE             d eps       ncg     rms          rms(c)
DAV:   1    -0.230401292958E+04    0.44384E-03   -0.13305E-01  4368   0.307E-01    0.102E-01
RMM:   2    -0.230401392133E+04   -0.99176E-03   -0.10915E-02  5963   0.622E-02    0.529E-02
RMM:   3    -0.230401397197E+04   -0.50641E-04   -0.11660E-03  3922   0.239E-02    0.356E-02
RMM:   4    -0.230401398412E+04   -0.12141E-04   -0.16022E-04  3003   0.672E-03    0.323E-02
RMM:   5    -0.230401396476E+04    0.19355E-04   -0.34372E-05  2898   0.496E-03    0.965E-03
RMM:   6    -0.230401396394E+04    0.82306E-06   -0.76423E-06  2798   0.347E-03
 146 F= -.23240317E+04 E0= -.23240317E+04  d E =-.417797E-03  mag=    -0.0000
       N       E                     dE             d eps       ncg     rms          rms(c)
DAV:   1    -0.230401370284E+04    0.26192E-03   -0.52199E-02  4384   0.192E-01    0.631E-02
RMM:   2    -0.230401409501E+04   -0.39217E-03   -0.43043E-03  5893   0.393E-02    0.324E-02
RMM:   3    -0.230401411530E+04   -0.20289E-04   -0.45791E-04  3275   0.154E-02    0.214E-02
RMM:   4    -0.230401411950E+04   -0.42034E-05   -0.62332E-05  2858   0.456E-03
 147 F= -.23240317E+04 E0= -.23240317E+04  d E =-.468186E-03  mag=    -0.0000
       N       E                     dE             d eps       ncg     rms          rms(c)
DAV:   1    -0.230401340942E+04    0.70588E-03   -0.16636E-01  4368   0.341E-01    0.116E-01
RMM:   2    -0.230401457358E+04   -0.11642E-02   -0.12857E-02  5939   0.686E-02    0.583E-02
RMM:   3    -0.230401462921E+04   -0.55634E-04   -0.13735E-03  4144   0.268E-02    0.398E-02
RMM:   4    -0.230401464224E+04   -0.13032E-04   -0.18901E-04  3092   0.735E-03    0.359E-02
RMM:   5    -0.230401461831E+04    0.23939E-04   -0.42543E-05  2930   0.552E-03    0.101E-02
RMM:   6    -0.230401461728E+04    0.10212E-05   -0.90826E-06  2801   0.389E-03
 148 F= -.23240321E+04 E0= -.23240321E+04  d E =-.358166E-03  mag=    -0.0000
       N       E                     dE             d eps       ncg     rms          rms(c)
DAV:   1    -0.230401458247E+04    0.35836E-04   -0.97891E-03  4608   0.829E-02    0.281E-02
RMM:   2    -0.230401465228E+04   -0.69815E-04   -0.76764E-04  5797   0.174E-02    0.140E-02
RMM:   3    -0.230401465583E+04   -0.35494E-05   -0.79635E-05  2870   0.658E-03
 149 F= -.23240321E+04 E0= -.23240321E+04  d E =-.362918E-03  mag=    -0.0000
       N       E                     dE             d eps       ncg     rms          rms(c)
DAV:   1    -0.230401404706E+04    0.60523E-03   -0.14864E-01  4368   0.324E-01    0.113E-01
RMM:   2    -0.230401511647E+04   -0.10694E-02   -0.11769E-02  5883   0.663E-02    0.557E-02
RMM:   3    -0.230401514857E+04   -0.32101E-04   -0.11138E-03  4140   0.229E-02    0.332E-02
RMM:   4    -0.230401514567E+04    0.28930E-05   -0.15819E-04  3490   0.703E-03    0.157E-02
RMM:   5    -0.230401514118E+04    0.44900E-05   -0.15587E-05  2822   0.526E-03
 150 F= -.23240325E+04 E0= -.23240325E+04  d E =-.412075E-03  mag=     0.0000
