       N       E                     dE             d eps       ncg     rms          rms(c)
DAV:   1     0.124654083489E+05    0.12465E+05   -0.82206E+05  4424   0.143E+03
DAV:   2    -0.110311680298E+04   -0.13569E+05   -0.13031E+05  5376   0.329E+02
DAV:   3    -0.247842370762E+04   -0.13753E+04   -0.13641E+04  5248   0.108E+02
DAV:   4    -0.251666726849E+04   -0.38244E+02   -0.38064E+02  6344   0.252E+01
DAV:   5    -0.251740488992E+04   -0.73762E+00   -0.73668E+00  5480   0.287E+00    0.171E+02
RMM:   6    -0.147237590268E+04    0.10450E+04   -0.19437E+03  4355   0.388E+01    0.722E+01
RMM:   7    -0.164296364770E+04   -0.17059E+03   -0.27241E+02  4866   0.136E+01    0.479E+01
RMM:   8    -0.170451870304E+04   -0.61555E+02   -0.37570E+01  4715   0.715E+00    0.359E+01
RMM:   9    -0.183855182365E+04   -0.13403E+03   -0.68632E+01  4654   0.825E+00    0.229E+01
RMM:  10    -0.199072756203E+04   -0.15218E+03   -0.65388E+01  4616   0.735E+00    0.159E+01
RMM:  11    -0.212096143558E+04   -0.13023E+03   -0.78590E+01  4370   0.666E+00    0.119E+01
RMM:  12    -0.226947634982E+04   -0.14851E+03   -0.14568E+02  4370   0.832E+00    0.589E+00
RMM:  13    -0.230167748057E+04   -0.32201E+02   -0.33739E+01  4436   0.525E+00    0.377E+00
RMM:  14    -0.231217878299E+04   -0.10501E+02   -0.14757E+01  4665   0.257E+00    0.222E+00
RMM:  15    -0.231398521832E+04   -0.18064E+01   -0.21335E+00  4890   0.140E+00    0.136E+00
RMM:  16    -0.231472321046E+04   -0.73799E+00   -0.54952E-01  4780   0.508E-01    0.801E-01
RMM:  17    -0.231497087942E+04   -0.24767E+00   -0.84324E-02  4837   0.321E-01    0.481E-01
RMM:  18    -0.231507458242E+04   -0.10370E+00   -0.50151E-02  4395   0.168E-01    0.307E-01
RMM:  19    -0.231509426943E+04   -0.19687E-01   -0.96601E-03  4568   0.115E-01    0.226E-01
RMM:  20    -0.231511152609E+04   -0.17257E-01   -0.64954E-03  4366   0.615E-02    0.150E-01
RMM:  21    -0.231512309232E+04   -0.11566E-01   -0.47823E-03  4625   0.654E-02    0.895E-02
RMM:  22    -0.231513099238E+04   -0.79001E-02   -0.25937E-03  4480   0.455E-02    0.560E-02
RMM:  23    -0.231513571740E+04   -0.47250E-02   -0.14712E-03  4499   0.319E-02    0.336E-02
RMM:  24    -0.231513891848E+04   -0.32011E-02   -0.10703E-03  4188   0.275E-02    0.195E-02
RMM:  25    -0.231513984031E+04   -0.92183E-03   -0.44002E-04  4141   0.195E-02    0.117E-02
RMM:  26    -0.231514014252E+04   -0.30220E-03   -0.14210E-04  3746   0.109E-02    0.698E-03
RMM:  27    -0.231514028594E+04   -0.14342E-03   -0.51548E-05  3445   0.780E-03    0.468E-03
RMM:  28    -0.231514034908E+04   -0.63144E-04   -0.20403E-05  3008   0.472E-03    0.315E-03
RMM:  29    -0.231514040486E+04   -0.55781E-04   -0.18070E-05  2987   0.414E-03    0.217E-03
RMM:  30    -0.231514041797E+04   -0.13106E-04   -0.81576E-06  2793   0.334E-03    0.131E-03
RMM:  31    -0.231514042376E+04   -0.57889E-05   -0.39777E-06  2374   0.223E-03
   1 F= -.23352379E+04 E0= -.23352379E+04  d E =-.233524E+04  mag=     3.0000
       N       E                     dE             d eps       ncg     rms          rms(c)
DAV:   1    -0.231538670137E+04   -0.24628E+00   -0.16658E+01  4904   0.262E+00    0.947E-01
RMM:   2    -0.231542328961E+04   -0.36588E-01   -0.48996E-01  5692   0.391E-01    0.614E-01
RMM:   3    -0.231542055195E+04    0.27377E-02   -0.42883E-02  4881   0.146E-01    0.356E-01
RMM:   4    -0.231541908815E+04    0.14638E-02   -0.14974E-02  4825   0.651E-02    0.136E-01
RMM:   5    -0.231541898779E+04    0.10035E-03   -0.12828E-03  4818   0.372E-02    0.729E-02
RMM:   6    -0.231541893587E+04    0.51921E-04   -0.39960E-04  4240   0.100E-02    0.477E-02
RMM:   7    -0.231541893359E+04    0.22783E-05   -0.64604E-05  3022   0.771E-03
   2 F= -.23355178E+04 E0= -.23355178E+04  d E =-.279893E+00  mag=     3.0000
       N       E                     dE             d eps       ncg     rms          rms(c)
DAV:   1    -0.231543245878E+04   -0.13523E-01   -0.15091E+00  4824   0.792E-01    0.291E-01
RMM:   2    -0.231543560655E+04   -0.31478E-02   -0.42916E-02  5627   0.117E-01    0.191E-01
RMM:   3    -0.231543535916E+04    0.24739E-03   -0.35384E-03  4817   0.431E-02    0.112E-01
RMM:   4    -0.231543523941E+04    0.11974E-03   -0.13162E-03  4615   0.197E-02    0.451E-02
RMM:   5    -0.231543522318E+04    0.16233E-04   -0.11170E-04  3450   0.112E-02    0.267E-02
RMM:   6    -0.231543522380E+04   -0.61622E-06   -0.36885E-05  2922   0.388E-03
   3 F= -.23355346E+04 E0= -.23355346E+04  d E =-.296641E+00  mag=     3.0000
       N       E                     dE             d eps       ncg     rms          rms(c)
DAV:   1    -0.231553284330E+04   -0.97620E-01   -0.97811E+00  4496   0.244E+00    0.964E-01
RMM:   2    -0.231560351397E+04   -0.70671E-01   -0.77420E-01  6000   0.434E-01    0.559E-01
RMM:   3    -0.231560950136E+04   -0.59874E-02   -0.85507E-02  5259   0.166E-01    0.375E-01
RMM:   4    -0.231560869535E+04    0.80601E-03   -0.11596E-02  5100   0.461E-02    0.208E-01
RMM:   5    -0.231560830280E+04    0.39255E-03   -0.27349E-03  4863   0.322E-02    0.717E-02
RMM:   6    -0.231560830083E+04    0.19775E-05   -0.32393E-04  4404   0.158E-02    0.451E-02
RMM:   7    -0.231560828779E+04    0.13035E-04   -0.86338E-05  3110   0.640E-03    0.275E-02
RMM:   8    -0.231560828624E+04    0.15501E-05   -0.28986E-05  2868   0.409E-03
   4 F= -.23357096E+04 E0= -.23357096E+04  d E =-.175061E+00  mag=     3.0000
       N       E                     dE             d eps       ncg     rms          rms(c)
DAV:   1    -0.231559281291E+04    0.15475E-01   -0.84852E+00  4504   0.231E+00    0.892E-01
RMM:   2    -0.231565458270E+04   -0.61770E-01   -0.67171E-01  5995   0.401E-01    0.510E-01
RMM:   3    -0.231565958162E+04   -0.49989E-02   -0.71112E-02  5265   0.148E-01    0.338E-01
RMM:   4    -0.231565893743E+04    0.64419E-03   -0.97032E-03  5037   0.418E-02    0.189E-01
RMM:   5    -0.231565859944E+04    0.33799E-03   -0.21965E-03  4830   0.298E-02    0.662E-02
RMM:   6    -0.231565860693E+04   -0.74980E-05   -0.26574E-04  4355   0.144E-02    0.428E-02
RMM:   7    -0.231565859581E+04    0.11121E-04   -0.69021E-05  3105   0.633E-03    0.273E-02
RMM:   8    -0.231565859272E+04    0.30911E-05   -0.29577E-05  2870   0.413E-03
   5 F= -.23357618E+04 E0= -.23357618E+04  d E =-.227291E+00  mag=     3.0000
       N       E                     dE             d eps       ncg     rms          rms(c)
DAV:   1    -0.231571034965E+04   -0.51754E-01   -0.57440E+00  4496   0.187E+00    0.836E-01
RMM:   2    -0.231577782707E+04   -0.67477E-01   -0.73387E-01  6065   0.352E-01    0.516E-01
RMM:   3    -0.231578490965E+04   -0.70826E-02   -0.88238E-02  5326   0.153E-01    0.345E-01
RMM:   4    -0.231578476124E+04    0.14841E-03   -0.10199E-02  5251   0.362E-02    0.209E-01
RMM:   5    -0.231578434684E+04    0.41439E-03   -0.14904E-03  4470   0.223E-02    0.886E-02
RMM:   6    -0.231578436186E+04   -0.15014E-04   -0.32331E-04  4119   0.129E-02    0.489E-02
RMM:   7    -0.231578437671E+04   -0.14847E-04   -0.58090E-05  3019   0.689E-03    0.352E-02
RMM:   8    -0.231578435978E+04    0.16929E-04   -0.30678E-05  2828   0.374E-03    0.159E-02
RMM:   9    -0.231578435907E+04    0.70840E-06   -0.10363E-05  2817   0.264E-03
   6 F= -.23358899E+04 E0= -.23358899E+04  d E =-.128046E+00  mag=     3.0000
       N       E                     dE             d eps       ncg     rms          rms(c)
DAV:   1    -0.231576598094E+04    0.18379E-01   -0.38004E+00  4616   0.151E+00    0.670E-01
RMM:   2    -0.231581061731E+04   -0.44636E-01   -0.48409E-01  6010   0.281E-01    0.411E-01
RMM:   3    -0.231581514955E+04   -0.45322E-02   -0.56765E-02  5239   0.128E-01    0.269E-01
RMM:   4    -0.231581506748E+04    0.82074E-04   -0.67753E-03  5076   0.291E-02    0.164E-01
RMM:   5    -0.231581477900E+04    0.28848E-03   -0.92769E-04  4403   0.185E-02    0.680E-02
RMM:   6    -0.231581477805E+04    0.94528E-06   -0.20935E-04  3980   0.106E-02    0.365E-02
RMM:   7    -0.231581478590E+04   -0.78492E-05   -0.37352E-05  2907   0.591E-03
   7 F= -.23359222E+04 E0= -.23359222E+04  d E =-.160365E+00  mag=     3.0000
       N       E                     dE             d eps       ncg     rms          rms(c)
DAV:   1    -0.231582149838E+04   -0.67203E-02   -0.28226E+00  4512   0.120E+00    0.542E-01
RMM:   2    -0.231585961244E+04   -0.38114E-01   -0.39916E-01  5976   0.231E-01    0.314E-01
RMM:   3    -0.231586332807E+04   -0.37156E-02   -0.44427E-02  5074   0.111E-01    0.210E-01
RMM:   4    -0.231586324422E+04    0.83847E-04   -0.47060E-03  4917   0.234E-02    0.134E-01
RMM:   5    -0.231586307836E+04    0.16586E-03   -0.95583E-04  4364   0.164E-02    0.553E-02
RMM:   6    -0.231586308699E+04   -0.86347E-05   -0.13797E-04  3384   0.971E-03    0.356E-02
RMM:   7    -0.231586308089E+04    0.61023E-05   -0.37802E-05  2883   0.441E-03
   8 F= -.23359719E+04 E0= -.23359719E+04  d E =-.496930E-01  mag=     3.0000
       N       E                     dE             d eps       ncg     rms          rms(c)
DAV:   1    -0.231584015562E+04    0.22931E-01   -0.25540E+00  4528   0.115E+00    0.518E-01
RMM:   2    -0.231587471600E+04   -0.34560E-01   -0.36191E-01  5987   0.222E-01    0.302E-01
RMM:   3    -0.231587803849E+04   -0.33225E-02   -0.39676E-02  5041   0.107E-01    0.200E-01
RMM:   4    -0.231587796910E+04    0.69395E-04   -0.42908E-03  4840   0.226E-02    0.128E-01
RMM:   5    -0.231587783122E+04    0.13788E-03   -0.82840E-04  4337   0.158E-02    0.546E-02
RMM:   6    -0.231587783498E+04   -0.37622E-05   -0.12297E-04  3320   0.938E-03    0.350E-02
RMM:   7    -0.231587783028E+04    0.46992E-05   -0.36691E-05  2879   0.430E-03
   9 F= -.23359880E+04 E0= -.23359880E+04  d E =-.658066E-01  mag=     3.0000
       N       E                     dE             d eps       ncg     rms          rms(c)
DAV:   1    -0.231584576065E+04    0.32074E-01   -0.37486E+00  4480   0.137E+00    0.658E-01
RMM:   2    -0.231591350070E+04   -0.67740E-01   -0.69666E-01  6022   0.282E-01    0.378E-01
RMM:   3    -0.231592201285E+04   -0.85121E-02   -0.89821E-02  5155   0.145E-01    0.273E-01
RMM:   4    -0.231592209514E+04   -0.82290E-04   -0.91656E-03  4921   0.251E-02    0.184E-01
RMM:   5    -0.231592170148E+04    0.39366E-03   -0.15744E-03  4679   0.183E-02    0.829E-02
RMM:   6    -0.231592171280E+04   -0.11318E-04   -0.39578E-04  3990   0.116E-02    0.479E-02
RMM:   7    -0.231592170705E+04    0.57408E-05   -0.54162E-05  2942   0.589E-03
  10 F= -.23360333E+04 E0= -.23360333E+04  d E =-.452689E-01  mag=     3.0000
       N       E                     dE             d eps       ncg     rms          rms(c)
DAV:   1    -0.231563052452E+04    0.29119E+00   -0.15727E+01  4424   0.281E+00    0.135E+00
RMM:   2    -0.231592555441E+04   -0.29503E+00   -0.30388E+00  6201   0.604E-01    0.788E-01
RMM:   3    -0.231596033100E+04   -0.34777E-01   -0.36003E-01  5522   0.234E-01    0.611E-01
RMM:   4    -0.231595985368E+04    0.47732E-03   -0.36705E-02  5547   0.497E-02    0.412E-01
RMM:   5    -0.231595800199E+04    0.18517E-02   -0.59090E-03  4944   0.332E-02    0.216E-01
RMM:   6    -0.231595794376E+04    0.58230E-04   -0.25962E-03  4739   0.242E-02    0.125E-01
RMM:   7    -0.231595802288E+04   -0.79121E-04   -0.29308E-04  3936   0.119E-02    0.956E-02
RMM:   8    -0.231595797178E+04    0.51099E-04   -0.13771E-04  3073   0.709E-03    0.539E-02
RMM:   9    -0.231595799085E+04   -0.19073E-04   -0.68414E-05  2848   0.508E-03    0.363E-02
RMM:  10    -0.231595798972E+04    0.11325E-05   -0.35412E-05  2826   0.394E-03
  11 F= -.23360725E+04 E0= -.23360725E+04  d E =-.844322E-01  mag=     3.0000
       N       E                     dE             d eps       ncg     rms          rms(c)
DAV:   1    -0.231589843821E+04    0.59553E-01   -0.43099E+00  4464   0.149E+00    0.743E-01
RMM:   2    -0.231598739482E+04   -0.88957E-01   -0.91095E-01  6136   0.325E-01    0.454E-01
RMM:   3    -0.231599859947E+04   -0.11205E-01   -0.11359E-01  5369   0.140E-01    0.333E-01
RMM:   4    -0.231599853779E+04    0.61682E-04   -0.11695E-02  4881   0.283E-02    0.223E-01
RMM:   5    -0.231599796001E+04    0.57777E-03   -0.17536E-03  4649   0.195E-02    0.109E-01
RMM:   6    -0.231599793021E+04    0.29800E-04   -0.62418E-04  4300   0.137E-02    0.575E-02
RMM:   7    -0.231599795075E+04   -0.20534E-04   -0.80417E-05  3059   0.724E-03    0.418E-02
RMM:   8    -0.231599794518E+04    0.55665E-05   -0.35144E-05  2820   0.440E-03
  12 F= -.23361135E+04 E0= -.23361135E+04  d E =-.410811E-01  mag=     3.0000
       N       E                     dE             d eps       ncg     rms          rms(c)
DAV:   1    -0.231576504810E+04    0.23290E+00   -0.11109E+01  4408   0.238E+00    0.120E+00
RMM:   2    -0.231599731573E+04   -0.23227E+00   -0.23812E+00  6168   0.533E-01    0.749E-01
RMM:   3    -0.231602582530E+04   -0.28510E-01   -0.28125E-01  5485   0.207E-01    0.568E-01
RMM:   4    -0.231602556916E+04    0.25613E-03   -0.29378E-02  5329   0.445E-02    0.384E-01
RMM:   5    -0.231602408974E+04    0.14794E-02   -0.41000E-03  4757   0.283E-02    0.211E-01
RMM:   6    -0.231602382141E+04    0.26832E-03   -0.19751E-03  4711   0.219E-02    0.107E-01
RMM:   7    -0.231602395081E+04   -0.12939E-03   -0.33006E-04  4069   0.124E-02    0.899E-02
RMM:   8    -0.231602392479E+04    0.26017E-04   -0.10648E-04  2967   0.647E-03    0.591E-02
RMM:   9    -0.231602391276E+04    0.12034E-04   -0.80727E-05  2860   0.503E-03    0.303E-02
RMM:  10    -0.231602392013E+04   -0.73781E-05   -0.22162E-05  2822   0.352E-03
  13 F= -.23361412E+04 E0= -.23361412E+04  d E =-.687618E-01  mag=     3.0000
       N       E                     dE             d eps       ncg     rms          rms(c)
DAV:   1    -0.231593317915E+04    0.90734E-01   -0.48826E+00  4448   0.152E+00    0.821E-01
RMM:   2    -0.231604036782E+04   -0.10719E+00   -0.10919E+00  6112   0.342E-01    0.519E-01
RMM:   3    -0.231605366703E+04   -0.13299E-01   -0.13224E-01  5287   0.146E-01    0.361E-01
RMM:   4    -0.231605370624E+04   -0.39207E-04   -0.14052E-02  5073   0.308E-02    0.246E-01
RMM:   5    -0.231605307133E+04    0.63491E-03   -0.18418E-03  4670   0.198E-02    0.128E-01
RMM:   6    -0.231605306403E+04    0.72984E-05   -0.77098E-04  4328   0.149E-02    0.739E-02
RMM:   7    -0.231605310722E+04   -0.43185E-04   -0.12229E-04  3246   0.816E-03    0.592E-02
RMM:   8    -0.231605310196E+04    0.52581E-05   -0.56870E-05  2823   0.485E-03
  14 F= -.23361715E+04 E0= -.23361715E+04  d E =-.303164E-01  mag=     3.0000
       N       E                     dE             d eps       ncg     rms          rms(c)
DAV:   1    -0.231583770837E+04    0.21540E+00   -0.94781E+00  4408   0.211E+00    0.115E+00
RMM:   2    -0.231604592945E+04   -0.20822E+00   -0.21171E+00  6166   0.482E-01    0.741E-01
RMM:   3    -0.231607125122E+04   -0.25322E-01   -0.24499E-01  5409   0.186E-01    0.527E-01
RMM:   4    -0.231607128647E+04   -0.35249E-04   -0.26620E-02  5351   0.418E-02    0.360E-01
RMM:   5    -0.231607006200E+04    0.12245E-02   -0.34617E-03  4761   0.258E-02    0.198E-01
RMM:   6    -0.231606993698E+04    0.12502E-03   -0.16452E-03  4637   0.206E-02    0.113E-01
RMM:   7    -0.231607007742E+04   -0.14044E-03   -0.28270E-04  3957   0.115E-02    0.964E-02
RMM:   8    -0.231607005930E+04    0.18127E-04   -0.11111E-04  2921   0.608E-03    0.670E-02
RMM:   9    -0.231607005940E+04   -0.10188E-06   -0.91257E-05  2871   0.488E-03
  15 F= -.23361899E+04 E0= -.23361899E+04  d E =-.486841E-01  mag=     3.0000
       N       E                     dE             d eps       ncg     rms          rms(c)
DAV:   1    -0.231592572463E+04    0.14433E+00   -0.73297E+00  4424   0.184E+00    0.984E-01
RMM:   2    -0.231608129905E+04   -0.15557E+00   -0.15791E+00  6058   0.396E-01    0.635E-01
RMM:   3    -0.231609965971E+04   -0.18361E-01   -0.17376E-01  5236   0.166E-01    0.435E-01
RMM:   4    -0.231609979474E+04   -0.13503E-03   -0.19000E-02  5178   0.349E-02    0.303E-01
RMM:   5    -0.231609894572E+04    0.84903E-03   -0.24491E-03  4607   0.219E-02    0.163E-01
RMM:   6    -0.231609895435E+04   -0.86336E-05   -0.10612E-03  4421   0.170E-02    0.973E-02
RMM:   7    -0.231609903954E+04   -0.85192E-04   -0.20548E-04  3507   0.987E-03    0.807E-02
RMM:   8    -0.231609903594E+04    0.36031E-05   -0.95793E-05  2862   0.550E-03
  16 F= -.23362202E+04 E0= -.23362202E+04  d E =-.302802E-01  mag=     3.0000
       N       E                     dE             d eps       ncg     rms          rms(c)
DAV:   1    -0.231602862271E+04    0.70417E-01   -0.32909E+00  4480   0.123E+00    0.660E-01
RMM:   2    -0.231609734780E+04   -0.68725E-01   -0.69590E-01  5983   0.259E-01    0.425E-01
RMM:   3    -0.231610564077E+04   -0.82930E-02   -0.78537E-02  5004   0.128E-01    0.282E-01
RMM:   4    -0.231610572695E+04   -0.86183E-04   -0.88523E-03  4808   0.241E-02    0.200E-01
RMM:   5    -0.231610539744E+04    0.32952E-03   -0.11300E-03  4357   0.154E-02    0.108E-01
RMM:   6    -0.231610544761E+04   -0.50169E-04   -0.41663E-04  3936   0.118E-02    0.716E-02
RMM:   7    -0.231610548062E+04   -0.33018E-04   -0.89058E-05  3002   0.682E-03    0.577E-02
RMM:   8    -0.231610549431E+04   -0.13689E-04   -0.66203E-05  2832   0.466E-03    0.416E-02
RMM:   9    -0.231610551474E+04   -0.20431E-04   -0.40068E-05  2818   0.372E-03    0.295E-02
RMM:  10    -0.231610552424E+04   -0.95000E-05   -0.18064E-05  2757   0.290E-03
  17 F= -.23362274E+04 E0= -.23362274E+04  d E =-.375457E-01  mag=     3.0000
       N       E                     dE             d eps       ncg     rms          rms(c)
DAV:   1    -0.231602209794E+04    0.83417E-01   -0.40804E+00  4448   0.136E+00    0.769E-01
RMM:   2    -0.231611172972E+04   -0.89632E-01   -0.90565E-01  5954   0.295E-01    0.489E-01
RMM:   3    -0.231612392604E+04   -0.12196E-01   -0.11919E-01  5096   0.149E-01    0.343E-01
RMM:   4    -0.231612387102E+04    0.55017E-04   -0.11930E-02  4946   0.274E-02    0.232E-01
RMM:   5    -0.231612337655E+04    0.49447E-03   -0.18497E-03  4475   0.183E-02    0.121E-01
RMM:   6    -0.231612341143E+04   -0.34875E-04   -0.66550E-04  4157   0.134E-02    0.770E-02
RMM:   7    -0.231612344245E+04   -0.31019E-04   -0.12739E-04  3030   0.747E-03    0.620E-02
RMM:   8    -0.231612346114E+04   -0.18690E-04   -0.71193E-05  2833   0.476E-03    0.461E-02
RMM:   9    -0.231612348377E+04   -0.22635E-04   -0.42274E-05  2820   0.364E-03    0.348E-02
RMM:  10    -0.231612350586E+04   -0.22090E-04   -0.39042E-05  2788   0.322E-03    0.286E-02
RMM:  11    -0.231612351925E+04   -0.13387E-04   -0.28984E-05  2741   0.288E-03    0.224E-02
RMM:  12    -0.231612353293E+04   -0.13682E-04   -0.43231E-05  2710   0.319E-03    0.165E-02
RMM:  13    -0.231612353632E+04   -0.33867E-05   -0.14671E-05  2528   0.233E-03
  18 F= -.23362463E+04 E0= -.23362463E+04  d E =-.188400E-01  mag=     3.0000
       N       E                     dE             d eps       ncg     rms          rms(c)
DAV:   1    -0.231596512197E+04    0.15841E+00   -0.66938E+00  4440   0.174E+00    0.989E-01
RMM:   2    -0.231611377485E+04   -0.14865E+00   -0.15043E+00  6026   0.381E-01    0.629E-01
RMM:   3    -0.231613315085E+04   -0.19376E-01   -0.18660E-01  5267   0.170E-01    0.439E-01
RMM:   4    -0.231613303704E+04    0.11382E-03   -0.19232E-02  5178   0.345E-02    0.299E-01
RMM:   5    -0.231613219416E+04    0.84287E-03   -0.30153E-03  4683   0.226E-02    0.155E-01
RMM:   6    -0.231613222959E+04   -0.35426E-04   -0.10960E-03  4358   0.164E-02    0.961E-02
RMM:   7    -0.231613228647E+04   -0.56883E-04   -0.18761E-04  3279   0.883E-03    0.784E-02
RMM:   8    -0.231613230521E+04   -0.18733E-04   -0.96531E-05  2858   0.554E-03    0.600E-02
RMM:   9    -0.231613233880E+04   -0.33597E-04   -0.64419E-05  2837   0.416E-03    0.469E-02
RMM:  10    -0.231613237853E+04   -0.39724E-04   -0.71346E-05  2855   0.407E-03    0.388E-02
RMM:  11    -0.231613240494E+04   -0.26411E-04   -0.47523E-05  2792   0.360E-03    0.323E-02
RMM:  12    -0.231613242490E+04   -0.19963E-04   -0.59708E-05  2737   0.364E-03    0.231E-02
RMM:  13    -0.231613244154E+04   -0.16640E-04   -0.55736E-05  2735   0.361E-03    0.176E-02
RMM:  14    -0.231613244616E+04   -0.46176E-05   -0.22528E-05  2552   0.259E-03
  19 F= -.23362561E+04 E0= -.23362561E+04  d E =-.286440E-01  mag=     3.0000
       N       E                     dE             d eps       ncg     rms          rms(c)
DAV:   1    -0.231605516561E+04    0.77276E-01   -0.38846E+00  4420   0.134E+00    0.752E-01
RMM:   2    -0.231613764311E+04   -0.82478E-01   -0.83491E-01  5985   0.283E-01    0.466E-01
RMM:   3    -0.231614830353E+04   -0.10660E-01   -0.10403E-01  5171   0.134E-01    0.327E-01
RMM:   4    -0.231614825179E+04    0.51742E-04   -0.10991E-02  4814   0.258E-02    0.225E-01
RMM:   5    -0.231614784094E+04    0.41085E-03   -0.17939E-03  4470   0.181E-02    0.121E-01
RMM:   6    -0.231614791328E+04   -0.72336E-04   -0.55453E-04  3968   0.126E-02    0.879E-02
RMM:   7    -0.231614793862E+04   -0.25339E-04   -0.13566E-04  3011   0.703E-03    0.686E-02
RMM:   8    -0.231614798582E+04   -0.47207E-04   -0.10287E-04  2877   0.518E-03    0.504E-02
RMM:   9    -0.231614800801E+04   -0.22180E-04   -0.42466E-05  2820   0.388E-03    0.407E-02
RMM:  10    -0.231614804234E+04   -0.34338E-04   -0.60224E-05  2814   0.384E-03    0.340E-02
RMM:  11    -0.231614807458E+04   -0.32233E-04   -0.78105E-05  2811   0.414E-03    0.271E-02
RMM:  12    -0.231614809307E+04   -0.18489E-04   -0.57590E-05  2714   0.366E-03    0.226E-02
RMM:  13    -0.231614809930E+04   -0.62358E-05   -0.33460E-05  2594   0.288E-03
  20 F= -.23362723E+04 E0= -.23362723E+04  d E =-.162485E-01  mag=     3.0000
       N       E                     dE             d eps       ncg     rms          rms(c)
DAV:   1    -0.231600115786E+04    0.14694E+00   -0.64462E+00  4420   0.173E+00    0.971E-01
RMM:   2    -0.231614002706E+04   -0.13887E+00   -0.14093E+00  6035   0.368E-01    0.605E-01
RMM:   3    -0.231615729945E+04   -0.17272E-01   -0.16694E-01  5272   0.156E-01    0.423E-01
RMM:   4    -0.231615717931E+04    0.12015E-03   -0.17940E-02  5056   0.326E-02    0.294E-01
RMM:   5    -0.231615647432E+04    0.70499E-03   -0.30331E-03  4686   0.231E-02    0.162E-01
RMM:   6    -0.231615661492E+04   -0.14060E-03   -0.98344E-04  4217   0.158E-02    0.119E-01
RMM:   7    -0.231615666657E+04   -0.51644E-04   -0.24173E-04  3241   0.871E-03    0.947E-02
RMM:   8    -0.231615675124E+04   -0.84670E-04   -0.18370E-04  2962   0.659E-03    0.694E-02
RMM:   9    -0.231615679529E+04   -0.44050E-04   -0.72057E-05  2848   0.477E-03    0.578E-02
RMM:  10    -0.231615687477E+04   -0.79478E-04   -0.15059E-04  3004   0.560E-03    0.475E-02
RMM:  11    -0.231615694268E+04   -0.67911E-04   -0.15502E-04  2918   0.571E-03    0.391E-02
RMM:  12    -0.231615698246E+04   -0.39780E-04   -0.14256E-04  2853   0.534E-03    0.312E-02
RMM:  13    -0.231615700570E+04   -0.23247E-04   -0.14525E-04  2815   0.517E-03    0.218E-02
RMM:  14    -0.231615701821E+04   -0.12505E-04   -0.88750E-05  2766   0.437E-03    0.163E-02
RMM:  15    -0.231615702197E+04   -0.37627E-05   -0.24748E-05  2625   0.295E-03
  21 F= -.23362818E+04 E0= -.23362818E+04  d E =-.257509E-01  mag=     3.0000
       N       E                     dE             d eps       ncg     rms          rms(c)
DAV:   1    -0.231609336718E+04    0.63651E-01   -0.32651E+00  4448   0.125E+00    0.702E-01
RMM:   2    -0.231616309891E+04   -0.69732E-01   -0.71199E-01  6043   0.266E-01    0.422E-01
RMM:   3    -0.231617188079E+04   -0.87819E-02   -0.87273E-02  5237   0.112E-01    0.300E-01
RMM:   4    -0.231617185171E+04    0.29077E-04   -0.93908E-03  4608   0.235E-02    0.209E-01
RMM:   5    -0.231617154824E+04    0.30347E-03   -0.15429E-03  4430   0.169E-02    0.124E-01
RMM:   6    -0.231617160766E+04   -0.59422E-04   -0.49593E-04  3815   0.113E-02    0.926E-02
RMM:   7    -0.231617163574E+04   -0.28078E-04   -0.15569E-04  3010   0.713E-03    0.681E-02
RMM:   8    -0.231617169248E+04   -0.56746E-04   -0.92032E-05  2865   0.534E-03    0.513E-02
RMM:   9    -0.231617170703E+04   -0.14543E-04   -0.42730E-05  2819   0.412E-03    0.412E-02
RMM:  10    -0.231617175031E+04   -0.43284E-04   -0.77867E-05  2838   0.422E-03    0.353E-02
RMM:  11    -0.231617178293E+04   -0.32617E-04   -0.66721E-05  2800   0.402E-03    0.299E-02
RMM:  12    -0.231617180493E+04   -0.21998E-04   -0.68743E-05  2729   0.378E-03    0.242E-02
RMM:  13    -0.231617182452E+04   -0.19591E-04   -0.13598E-04  2874   0.494E-03    0.163E-02
RMM:  14    -0.231617183168E+04   -0.71669E-05   -0.53726E-05  2635   0.354E-03
  22 F= -.23362968E+04 E0= -.23362968E+04  d E =-.150051E-01  mag=     3.0000
       N       E                     dE             d eps       ncg     rms          rms(c)
DAV:   1    -0.231595196381E+04    0.21986E+00   -0.93436E+00  4408   0.212E+00    0.118E+00
RMM:   2    -0.231615721351E+04   -0.20525E+00   -0.20895E+00  6101   0.460E-01    0.722E-01
RMM:   3    -0.231618191688E+04   -0.24703E-01   -0.24354E-01  5363   0.176E-01    0.528E-01
RMM:   4    -0.231618173314E+04    0.18374E-03   -0.26301E-02  5223   0.394E-02    0.372E-01
RMM:   5    -0.231618062446E+04    0.11087E-02   -0.46684E-03  4802   0.273E-02    0.217E-01
RMM:   6    -0.231618077604E+04   -0.15158E-03   -0.18231E-03  4461   0.195E-02    0.149E-01
RMM:   7    -0.231618085321E+04   -0.77167E-04   -0.38529E-04  3584   0.107E-02    0.113E-01
RMM:   8    -0.231618092386E+04   -0.70657E-04   -0.21360E-04  3046   0.762E-03    0.767E-02
RMM:   9    -0.231618097808E+04   -0.54221E-04   -0.88141E-05  2875   0.540E-03    0.635E-02
RMM:  10    -0.231618104014E+04   -0.62058E-04   -0.12106E-04  2934   0.521E-03    0.519E-02
RMM:  11    -0.231618110949E+04   -0.69350E-04   -0.12019E-04  2887   0.533E-03    0.449E-02
RMM:  12    -0.231618116194E+04   -0.52452E-04   -0.13428E-04  2910   0.537E-03    0.369E-02
RMM:  13    -0.231618120806E+04   -0.46118E-04   -0.29678E-04  3063   0.706E-03    0.252E-02
RMM:  14    -0.231618122381E+04   -0.15743E-04   -0.14848E-04  2816   0.551E-03    0.200E-02
RMM:  15    -0.231618122705E+04   -0.32463E-05   -0.28035E-05  2600   0.289E-03
  23 F= -.23363063E+04 E0= -.23363063E+04  d E =-.244928E-01  mag=     3.0000
       N       E                     dE             d eps       ncg     rms          rms(c)
DAV:   1    -0.231613026990E+04    0.50954E-01   -0.25435E+00  4448   0.111E+00    0.606E-01
RMM:   2    -0.231618389095E+04   -0.53621E-01   -0.54710E-01  6032   0.230E-01    0.369E-01
RMM:   3    -0.231619032452E+04   -0.64336E-02   -0.64766E-02  5208   0.968E-02    0.253E-01
RMM:   4    -0.231619032789E+04   -0.33757E-05   -0.70593E-03  4387   0.199E-02    0.175E-01
RMM:   5    -0.231619005766E+04    0.27024E-03   -0.12054E-03  4296   0.150E-02    0.937E-02
RMM:   6    -0.231619009682E+04   -0.39158E-04   -0.34806E-04  3619   0.102E-02    0.647E-02
RMM:   7    -0.231619009693E+04   -0.11825E-06   -0.81361E-05  2876   0.586E-03
  24 F= -.23363151E+04 E0= -.23363151E+04  d E =-.875045E-02  mag=     3.0000
       N       E                     dE             d eps       ncg     rms          rms(c)
DAV:   1    -0.231609146253E+04    0.98634E-01   -0.43348E+00  4420   0.144E+00    0.794E-01
RMM:   2    -0.231618400787E+04   -0.92545E-01   -0.94380E-01  6079   0.305E-01    0.490E-01
RMM:   3    -0.231619537853E+04   -0.11371E-01   -0.11435E-01  5304   0.125E-01    0.339E-01
RMM:   4    -0.231619534198E+04    0.36557E-04   -0.11911E-02  4807   0.262E-02    0.236E-01
RMM:   5    -0.231619487647E+04    0.46551E-03   -0.21952E-03  4531   0.196E-02    0.129E-01
RMM:   6    -0.231619496520E+04   -0.88735E-04   -0.67247E-04  4014   0.130E-02    0.910E-02
RMM:   7    -0.231619496874E+04   -0.35340E-05   -0.15705E-04  3027   0.720E-03    0.623E-02
RMM:   8    -0.231619501370E+04   -0.44961E-04   -0.10933E-04  2887   0.520E-03    0.456E-02
RMM:   9    -0.231619502295E+04   -0.92452E-05   -0.30878E-05  2826   0.369E-03
  25 F= -.23363197E+04 E0= -.23363197E+04  d E =-.133957E-01  mag=     3.0000
       N       E                     dE             d eps       ncg     rms          rms(c)
DAV:   1    -0.231619543517E+04   -0.42147E-03   -0.26773E-01  4496   0.423E-01    0.186E-01
RMM:   2    -0.231619935925E+04   -0.39241E-02   -0.40641E-02  5688   0.772E-02    0.113E-01
RMM:   3    -0.231619971422E+04   -0.35497E-03   -0.42004E-03  4372   0.364E-02    0.756E-02
RMM:   4    -0.231619970009E+04    0.14126E-04   -0.55780E-04  3499   0.885E-03    0.513E-02
RMM:   5    -0.231619969104E+04    0.90542E-05   -0.11424E-04  3285   0.713E-03    0.297E-02
RMM:   6    -0.231619969770E+04   -0.66638E-05   -0.24093E-05  2830   0.531E-03
  26 F= -.23363244E+04 E0= -.23363244E+04  d E =-.467976E-02  mag=     3.0000
       N       E                     dE             d eps       ncg     rms          rms(c)
DAV:   1    -0.231619772898E+04    0.19621E-02   -0.22818E-01  4448   0.391E-01    0.172E-01
RMM:   2    -0.231620110047E+04   -0.33715E-02   -0.34989E-02  5696   0.716E-02    0.102E-01
RMM:   3    -0.231620139465E+04   -0.29419E-03   -0.34712E-03  4322   0.321E-02    0.667E-02
RMM:   4    -0.231620138119E+04    0.13461E-04   -0.46980E-04  3331   0.822E-03    0.434E-02
RMM:   5    -0.231620137173E+04    0.94676E-05   -0.83675E-05  3152   0.635E-03
  27 F= -.23363261E+04 E0= -.23363261E+04  d E =-.635439E-02  mag=     3.0000
       N       E                     dE             d eps       ncg     rms          rms(c)
DAV:   1    -0.231620173654E+04   -0.35535E-03   -0.21349E-01  4400   0.406E-01    0.164E-01
RMM:   2    -0.231620481137E+04   -0.30748E-02   -0.31730E-02  5970   0.737E-02    0.941E-02
RMM:   3    -0.231620506782E+04   -0.25645E-03   -0.28613E-03  4275   0.306E-02    0.623E-02
RMM:   4    -0.231620506665E+04    0.11768E-05   -0.40298E-04  3206   0.760E-03    0.431E-02
RMM:   5    -0.231620506371E+04    0.29381E-05   -0.71542E-05  3098   0.608E-03
  28 F= -.23363299E+04 E0= -.23363299E+04  d E =-.382190E-02  mag=     3.0000
       N       E                     dE             d eps       ncg     rms          rms(c)
DAV:   1    -0.231618357336E+04    0.21493E-01   -0.16354E+00  4400   0.112E+00    0.450E-01
RMM:   2    -0.231620676172E+04   -0.23188E-01   -0.23951E-01  5734   0.200E-01    0.261E-01
RMM:   3    -0.231620921397E+04   -0.24523E-02   -0.27955E-02  4940   0.927E-02    0.180E-01
RMM:   4    -0.231620915036E+04    0.63612E-04   -0.31737E-03  4984   0.193E-02    0.119E-01
RMM:   5    -0.231620905014E+04    0.10022E-03   -0.59769E-04  4315   0.148E-02    0.559E-02
RMM:   6    -0.231620906561E+04   -0.15473E-04   -0.12495E-04  3527   0.899E-03    0.388E-02
RMM:   7    -0.231620906952E+04   -0.39068E-05   -0.29354E-05  2833   0.523E-03
  29 F= -.23363342E+04 E0= -.23363342E+04  d E =-.816522E-02  mag=     3.0000
       N       E                     dE             d eps       ncg     rms          rms(c)
DAV:   1    -0.231620866288E+04    0.40273E-03   -0.17955E-01  4608   0.373E-01    0.149E-01
RMM:   2    -0.231621133599E+04   -0.26731E-02   -0.27445E-02  5705   0.667E-02    0.853E-02
RMM:   3    -0.231621154248E+04   -0.20650E-03   -0.22223E-03  4168   0.289E-02    0.555E-02
RMM:   4    -0.231621154146E+04    0.10267E-05   -0.32268E-04  2998   0.682E-03    0.386E-02
RMM:   5    -0.231621153704E+04    0.44154E-05   -0.57408E-05  2958   0.540E-03
  30 F= -.23363368E+04 E0= -.23363368E+04  d E =-.256577E-02  mag=     3.0000
       N       E                     dE             d eps       ncg     rms          rms(c)
DAV:   1    -0.231618914585E+04    0.22396E-01   -0.16092E+00  4400   0.112E+00    0.440E-01
RMM:   2    -0.231621254176E+04   -0.23396E-01   -0.24005E-01  5777   0.201E-01    0.257E-01
RMM:   3    -0.231621484429E+04   -0.23025E-02   -0.25358E-02  5034   0.853E-02    0.171E-01
RMM:   4    -0.231621478137E+04    0.62924E-04   -0.29609E-03  4770   0.185E-02    0.113E-01
RMM:   5    -0.231621466099E+04    0.12038E-03   -0.57984E-04  4424   0.149E-02    0.442E-02
RMM:   6    -0.231621466766E+04   -0.66692E-05   -0.93107E-05  3343   0.872E-03
  31 F= -.23363402E+04 E0= -.23363402E+04  d E =-.597097E-02  mag=     3.0000
       N       E                     dE             d eps       ncg     rms          rms(c)
DAV:   1    -0.231621340156E+04    0.12594E-02   -0.30052E-01  4432   0.477E-01    0.184E-01
RMM:   2    -0.231621752127E+04   -0.41197E-02   -0.42244E-02  5912   0.853E-02    0.108E-01
RMM:   3    -0.231621790593E+04   -0.38466E-03   -0.42359E-03  4729   0.338E-02    0.678E-02
RMM:   4    -0.231621790252E+04    0.34149E-05   -0.52783E-04  3200   0.846E-03    0.441E-02
RMM:   5    -0.231621789056E+04    0.11956E-04   -0.93231E-05  3295   0.668E-03    0.178E-02
RMM:   6    -0.231621789220E+04   -0.16421E-05   -0.13155E-05  2815   0.508E-03
  32 F= -.23363434E+04 E0= -.23363434E+04  d E =-.321791E-02  mag=     3.0000
       N       E                     dE             d eps       ncg     rms          rms(c)
DAV:   1    -0.231619515060E+04    0.22740E-01   -0.17352E+00  4400   0.115E+00    0.433E-01
RMM:   2    -0.231621868347E+04   -0.23533E-01   -0.23975E-01  5651   0.201E-01    0.259E-01
RMM:   3    -0.231622101940E+04   -0.23359E-02   -0.26390E-02  4990   0.817E-02    0.168E-01
RMM:   4    -0.231622094030E+04    0.79102E-04   -0.29292E-03  4667   0.189E-02    0.109E-01
RMM:   5    -0.231622081633E+04    0.12396E-03   -0.58951E-04  4432   0.152E-02    0.411E-02
RMM:   6    -0.231622082146E+04   -0.51285E-05   -0.81450E-05  3284   0.862E-03
  33 F= -.23363463E+04 E0= -.23363463E+04  d E =-.611992E-02  mag=     3.0000
       N       E                     dE             d eps       ncg     rms          rms(c)
DAV:   1    -0.231621732225E+04    0.34941E-02   -0.38009E-01  4512   0.536E-01    0.213E-01
RMM:   2    -0.231622310586E+04   -0.57836E-02   -0.59117E-02  5842   0.952E-02    0.126E-01
RMM:   3    -0.231622369105E+04   -0.58519E-03   -0.61843E-03  4789   0.419E-02    0.810E-02
RMM:   4    -0.231622368848E+04    0.25682E-05   -0.74395E-04  3185   0.902E-03    0.542E-02
RMM:   5    -0.231622366727E+04    0.21210E-04   -0.13878E-04  3479   0.725E-03    0.214E-02
RMM:   6    -0.231622366966E+04   -0.23897E-05   -0.17431E-05  2814   0.545E-03
  34 F= -.23363492E+04 E0= -.23363492E+04  d E =-.283042E-02  mag=     3.0000
       N       E                     dE             d eps       ncg     rms          rms(c)
DAV:   1    -0.231617641267E+04    0.47255E-01   -0.30305E+00  4408   0.151E+00    0.594E-01
RMM:   2    -0.231622230610E+04   -0.45893E-01   -0.46747E-01  5653   0.268E-01    0.358E-01
RMM:   3    -0.231622725225E+04   -0.49462E-02   -0.52857E-02  5005   0.113E-01    0.236E-01
RMM:   4    -0.231622713553E+04    0.11672E-03   -0.56439E-03  4920   0.241E-02    0.156E-01
RMM:   5    -0.231622687925E+04    0.25628E-03   -0.12414E-03  4726   0.192E-02    0.586E-02
RMM:   6    -0.231622689806E+04   -0.18804E-04   -0.17757E-04  3856   0.105E-02    0.388E-02
RMM:   7    -0.231622689405E+04    0.40033E-05   -0.32825E-05  2832   0.502E-03
  35 F= -.23363523E+04 E0= -.23363523E+04  d E =-.597427E-02  mag=     3.0000
       N       E                     dE             d eps       ncg     rms          rms(c)
DAV:   1    -0.231622090603E+04    0.59920E-02   -0.58386E-01  4448   0.656E-01    0.260E-01
RMM:   2    -0.231622973456E+04   -0.88285E-02   -0.89902E-02  5516   0.114E-01    0.154E-01
RMM:   3    -0.231623068179E+04   -0.94723E-03   -0.97686E-03  4667   0.593E-02    0.970E-02
RMM:   4    -0.231623067719E+04    0.45981E-05   -0.11031E-03  3682   0.109E-02    0.651E-02
RMM:   5    -0.231623064178E+04    0.35414E-04   -0.19949E-04  3635   0.879E-03    0.256E-02
RMM:   6    -0.231623064598E+04   -0.42033E-05   -0.26653E-05  2824   0.578E-03
  36 F= -.23363561E+04 E0= -.23363561E+04  d E =-.375546E-02  mag=     3.0000
       N       E                     dE             d eps       ncg     rms          rms(c)
DAV:   1    -0.231614771120E+04    0.82931E-01   -0.52429E+00  4408   0.197E+00    0.776E-01
RMM:   2    -0.231622634562E+04   -0.78634E-01   -0.80026E-01  5607   0.347E-01    0.480E-01
RMM:   3    -0.231623605620E+04   -0.97106E-02   -0.10434E-01  4980   0.155E-01    0.324E-01
RMM:   4    -0.231623585151E+04    0.20469E-03   -0.99390E-03  5192   0.306E-02    0.214E-01
RMM:   5    -0.231623532831E+04    0.52320E-03   -0.22587E-03  4835   0.237E-02    0.818E-02
RMM:   6    -0.231623536576E+04   -0.37452E-04   -0.44042E-04  4218   0.139E-02    0.541E-02
RMM:   7    -0.231623536300E+04    0.27675E-05   -0.61482E-05  2985   0.638E-03
  37 F= -.23363608E+04 E0= -.23363608E+04  d E =-.844222E-02  mag=     3.0000
       N       E                     dE             d eps       ncg     rms          rms(c)
DAV:   1    -0.231622114653E+04    0.14219E-01   -0.11081E+00  4400   0.883E-01    0.358E-01
RMM:   2    -0.231623785766E+04   -0.16711E-01   -0.16980E-01  5557   0.154E-01    0.220E-01
RMM:   3    -0.231623984979E+04   -0.19921E-02   -0.20746E-02  4845   0.762E-02    0.138E-01
RMM:   4    -0.231623984367E+04    0.61212E-05   -0.20857E-03  4310   0.143E-02    0.921E-02
RMM:   5    -0.231623977086E+04    0.72809E-04   -0.34776E-04  3919   0.111E-02    0.376E-02
RMM:   6    -0.231623978225E+04   -0.11390E-04   -0.57467E-05  2935   0.683E-03    0.261E-02
RMM:   7    -0.231623978115E+04    0.11034E-05   -0.13135E-05  2813   0.410E-03
  38 F= -.23363652E+04 E0= -.23363652E+04  d E =-.443828E-02  mag=     3.0000
       N       E                     dE             d eps       ncg     rms          rms(c)
DAV:   1    -0.231618428958E+04    0.55493E-01   -0.34768E+00  4376   0.156E+00    0.628E-01
RMM:   2    -0.231623667599E+04   -0.52386E-01   -0.53045E-01  5620   0.274E-01    0.394E-01
RMM:   3    -0.231624310348E+04   -0.64275E-02   -0.68550E-02  4940   0.131E-01    0.256E-01
RMM:   4    -0.231624302481E+04    0.78669E-04   -0.64789E-03  5089   0.248E-02    0.169E-01
RMM:   5    -0.231624272129E+04    0.30352E-03   -0.12444E-03  4606   0.183E-02    0.690E-02
RMM:   6    -0.231624274945E+04   -0.28164E-04   -0.25350E-04  4007   0.109E-02    0.457E-02
RMM:   7    -0.231624274721E+04    0.22460E-05   -0.40259E-05  2865   0.580E-03
  39 F= -.23363682E+04 E0= -.23363682E+04  d E =-.741455E-02  mag=     3.0000
       N       E                     dE             d eps       ncg     rms          rms(c)
DAV:   1    -0.231622336896E+04    0.19380E-01   -0.13927E+00  4448   0.994E-01    0.423E-01
RMM:   2    -0.231624486026E+04   -0.21491E-01   -0.21731E-01  5549   0.176E-01    0.249E-01
RMM:   3    -0.231624718573E+04   -0.23255E-02   -0.24197E-02  4839   0.867E-02    0.151E-01
RMM:   4    -0.231624718225E+04    0.34789E-05   -0.26470E-03  4544   0.168E-02    0.978E-02
RMM:   5    -0.231624708984E+04    0.92408E-04   -0.37014E-04  4152   0.125E-02    0.405E-02
RMM:   6    -0.231624710370E+04   -0.13860E-04   -0.66035E-05  3071   0.696E-03    0.284E-02
RMM:   7    -0.231624710252E+04    0.11783E-05   -0.14859E-05  2813   0.457E-03
  40 F= -.23363725E+04 E0= -.23363725E+04  d E =-.438121E-02  mag=     3.0000
       N       E                     dE             d eps       ncg     rms          rms(c)
DAV:   1    -0.231622505060E+04    0.22053E-01   -0.13729E+00  4420   0.988E-01    0.419E-01
RMM:   2    -0.231624633472E+04   -0.21284E-01   -0.21495E-01  5548   0.175E-01    0.246E-01
RMM:   3    -0.231624857867E+04   -0.22440E-02   -0.23464E-02  4812   0.871E-02    0.148E-01
RMM:   4    -0.231624857460E+04    0.40763E-05   -0.25895E-03  4508   0.167E-02    0.959E-02
RMM:   5    -0.231624848094E+04    0.93650E-04   -0.35431E-04  4133   0.125E-02    0.396E-02
RMM:   6    -0.231624849293E+04   -0.11989E-04   -0.61284E-05  3120   0.676E-03    0.278E-02
RMM:   7    -0.231624849161E+04    0.13284E-05   -0.14406E-05  2814   0.464E-03
  41 F= -.23363740E+04 E0= -.23363740E+04  d E =-.578774E-02  mag=     3.0000
       N       E                     dE             d eps       ncg     rms          rms(c)
DAV:   1    -0.231622716295E+04    0.21330E-01   -0.15111E+00  4400   0.101E+00    0.427E-01
RMM:   2    -0.231625009769E+04   -0.22935E-01   -0.23140E-01  5562   0.179E-01    0.254E-01
RMM:   3    -0.231625256410E+04   -0.24664E-02   -0.26675E-02  4789   0.915E-02    0.154E-01
RMM:   4    -0.231625256653E+04   -0.24301E-05   -0.29380E-03  4465   0.172E-02    0.994E-02
RMM:   5    -0.231625244783E+04    0.11870E-03   -0.43102E-04  4194   0.128E-02    0.367E-02
RMM:   6    -0.231625246021E+04   -0.12379E-04   -0.62195E-05  3087   0.705E-03    0.233E-02
RMM:   7    -0.231625246128E+04   -0.10649E-05   -0.13316E-05  2816   0.431E-03
  42 F= -.23363778E+04 E0= -.23363778E+04  d E =-.388205E-02  mag=     3.0000
       N       E                     dE             d eps       ncg     rms          rms(c)
DAV:   1    -0.231624823480E+04    0.42254E-02   -0.27594E-01  4560   0.430E-01    0.183E-01
RMM:   2    -0.231625245049E+04   -0.42157E-02   -0.42561E-02  5636   0.768E-02    0.106E-01
RMM:   3    -0.231625287707E+04   -0.42658E-03   -0.45384E-03  4351   0.389E-02    0.615E-02
RMM:   4    -0.231625288035E+04   -0.32833E-05   -0.52554E-04  3166   0.786E-03    0.389E-02
RMM:   5    -0.231625286616E+04    0.14190E-04   -0.69385E-05  2990   0.592E-03    0.145E-02
RMM:   6    -0.231625286869E+04   -0.25264E-05   -0.11485E-05  2812   0.437E-03
  43 F= -.23363782E+04 E0= -.23363782E+04  d E =-.425228E-02  mag=     3.0000
       N       E                     dE             d eps       ncg     rms          rms(c)
DAV:   1    -0.231624625445E+04    0.66117E-02   -0.60777E-01  4400   0.668E-01    0.276E-01
RMM:   2    -0.231625501063E+04   -0.87562E-02   -0.89088E-02  5442   0.116E-01    0.158E-01
RMM:   3    -0.231625584376E+04   -0.83313E-03   -0.91249E-03  4718   0.519E-02    0.949E-02
RMM:   4    -0.231625583444E+04    0.93120E-05   -0.10876E-03  4138   0.118E-02    0.592E-02
RMM:   5    -0.231625579615E+04    0.38292E-04   -0.17186E-04  3618   0.939E-03    0.195E-02
RMM:   6    -0.231625579966E+04   -0.35126E-05   -0.22260E-05  2823   0.532E-03
  44 F= -.23363810E+04 E0= -.23363810E+04  d E =-.277978E-02  mag=     3.0000
       N       E                     dE             d eps       ncg     rms          rms(c)
DAV:   1    -0.231624320465E+04    0.12591E-01   -0.88359E-01  4400   0.805E-01    0.333E-01
RMM:   2    -0.231625588030E+04   -0.12676E-01   -0.12907E-01  5538   0.140E-01    0.192E-01
RMM:   3    -0.231625714546E+04   -0.12652E-02   -0.13852E-02  4842   0.654E-02    0.117E-01
RMM:   4    -0.231625712948E+04    0.15979E-04   -0.15846E-03  4242   0.140E-02    0.737E-02
RMM:   5    -0.231625706826E+04    0.61225E-04   -0.26816E-04  4030   0.111E-02    0.247E-02
RMM:   6    -0.231625707238E+04   -0.41185E-05   -0.35556E-05  2879   0.613E-03
  45 F= -.23363821E+04 E0= -.23363821E+04  d E =-.386641E-02  mag=     3.0000
       N       E                     dE             d eps       ncg     rms          rms(c)
DAV:   1    -0.231625472979E+04    0.23385E-02   -0.28891E-01  4488   0.454E-01    0.183E-01
RMM:   2    -0.231625878333E+04   -0.40535E-02   -0.41387E-02  5692   0.787E-02    0.108E-01
RMM:   3    -0.231625921104E+04   -0.42770E-03   -0.45959E-03  4360   0.382E-02    0.663E-02
RMM:   4    -0.231625920800E+04    0.30380E-05   -0.50832E-04  3139   0.786E-03    0.426E-02
RMM:   5    -0.231625919028E+04    0.17721E-04   -0.89530E-05  3110   0.620E-03    0.139E-02
RMM:   6    -0.231625919218E+04   -0.19019E-05   -0.12978E-05  2814   0.475E-03
  46 F= -.23363841E+04 E0= -.23363841E+04  d E =-.202214E-02  mag=     3.0000
       N       E                     dE             d eps       ncg     rms          rms(c)
DAV:   1    -0.231622174648E+04    0.37444E-01   -0.25989E+00  4376   0.136E+00    0.545E-01
RMM:   2    -0.231625810147E+04   -0.36355E-01   -0.36999E-01  5389   0.235E-01    0.329E-01
RMM:   3    -0.231626234998E+04   -0.42485E-02   -0.46701E-02  4725   0.119E-01    0.214E-01
RMM:   4    -0.231626225341E+04    0.96571E-04   -0.46158E-03  4899   0.220E-02    0.139E-01
RMM:   5    -0.231626201198E+04    0.24143E-03   -0.97474E-04  4588   0.174E-02    0.501E-02
RMM:   6    -0.231626202084E+04   -0.88564E-05   -0.16567E-04  3887   0.952E-03    0.295E-02
RMM:   7    -0.231626202209E+04   -0.12554E-05   -0.25036E-05  2833   0.532E-03
  47 F= -.23363866E+04 E0= -.23363866E+04  d E =-.454512E-02  mag=     3.0000
       N       E                     dE             d eps       ncg     rms          rms(c)
DAV:   1    -0.231625480426E+04    0.72166E-02   -0.69339E-01  4400   0.688E-01    0.275E-01
RMM:   2    -0.231626397740E+04   -0.91731E-02   -0.93730E-02  5422   0.119E-01    0.165E-01
RMM:   3    -0.231626499465E+04   -0.10172E-02   -0.11133E-02  4552   0.633E-02    0.104E-01
RMM:   4    -0.231626498019E+04    0.14459E-04   -0.11746E-03  4115   0.118E-02    0.667E-02
RMM:   5    -0.231626493470E+04    0.45490E-04   -0.21366E-04  3606   0.933E-03    0.216E-02
RMM:   6    -0.231626493786E+04   -0.31571E-05   -0.30331E-05  2857   0.575E-03
  48 F= -.23363895E+04 E0= -.23363895E+04  d E =-.284640E-02  mag=     3.0000
       N       E                     dE             d eps       ncg     rms          rms(c)
DAV:   1    -0.231624269267E+04    0.22242E-01   -0.16227E+00  4376   0.105E+00    0.420E-01
RMM:   2    -0.231626408126E+04   -0.21389E-01   -0.21832E-01  5471   0.183E-01    0.255E-01
RMM:   3    -0.231626662163E+04   -0.25404E-02   -0.28443E-02  4765   0.926E-02    0.165E-01
RMM:   4    -0.231626657127E+04    0.50352E-04   -0.28090E-03  4606   0.172E-02    0.107E-01
RMM:   5    -0.231626644312E+04    0.12815E-03   -0.59605E-04  4261   0.136E-02    0.375E-02
RMM:   6    -0.231626644680E+04   -0.36812E-05   -0.91176E-05  3152   0.793E-03
  49 F= -.23363909E+04 E0= -.23363909E+04  d E =-.423604E-02  mag=     3.0000
       N       E                     dE             d eps       ncg     rms          rms(c)
DAV:   1    -0.231625747610E+04    0.89670E-02   -0.85066E-01  4388   0.798E-01    0.318E-01
RMM:   2    -0.231626800203E+04   -0.10526E-01   -0.10831E-01  5548   0.136E-01    0.182E-01
RMM:   3    -0.231626905677E+04   -0.10547E-02   -0.11924E-02  4827   0.658E-02    0.116E-01
RMM:   4    -0.231626902592E+04    0.30849E-04   -0.13508E-03  4301   0.135E-02    0.724E-02
RMM:   5    -0.231626897290E+04    0.53019E-04   -0.25878E-04  3911   0.107E-02    0.242E-02
RMM:   6    -0.231626897541E+04   -0.25072E-05   -0.37873E-05  2869   0.626E-03
  50 F= -.23363933E+04 E0= -.23363933E+04  d E =-.245650E-02  mag=     3.0000
       N       E                     dE             d eps       ncg     rms          rms(c)
DAV:   1    -0.231626106353E+04    0.79094E-02   -0.63297E-01  4400   0.688E-01    0.274E-01
RMM:   2    -0.231626891672E+04   -0.78532E-02   -0.80636E-02  5514   0.117E-01    0.156E-01
RMM:   3    -0.231626969173E+04   -0.77501E-03   -0.88222E-03  4716   0.604E-02    0.983E-02
RMM:   4    -0.231626966890E+04    0.22826E-04   -0.10100E-03  4174   0.118E-02    0.612E-02
RMM:   5    -0.231626962933E+04    0.39573E-04   -0.18310E-04  3672   0.949E-03    0.197E-02
RMM:   6    -0.231626963100E+04   -0.16705E-05   -0.26601E-05  2829   0.568E-03
  51 F= -.23363939E+04 E0= -.23363939E+04  d E =-.304236E-02  mag=     3.0000
       N       E                     dE             d eps       ncg     rms          rms(c)
DAV:   1    -0.231626113114E+04    0.84982E-02   -0.96070E-01  4388   0.849E-01    0.323E-01
RMM:   2    -0.231627195702E+04   -0.10826E-01   -0.11107E-01  5506   0.138E-01    0.186E-01
RMM:   3    -0.231627294612E+04   -0.98911E-03   -0.11506E-02  4758   0.661E-02    0.117E-01
RMM:   4    -0.231627291154E+04    0.34587E-04   -0.13387E-03  4281   0.139E-02    0.716E-02
RMM:   5    -0.231627285963E+04    0.51908E-04   -0.23705E-04  3931   0.111E-02    0.228E-02
RMM:   6    -0.231627286197E+04   -0.23448E-05   -0.31782E-05  2855   0.585E-03
  52 F= -.23363971E+04 E0= -.23363971E+04  d E =-.315811E-02  mag=     3.0000
       N       E                     dE             d eps       ncg     rms          rms(c)
DAV:   1    -0.231626030699E+04    0.12553E-01   -0.11165E+00  4376   0.916E-01    0.348E-01
RMM:   2    -0.231627292454E+04   -0.12618E-01   -0.12941E-01  5500   0.149E-01    0.201E-01
RMM:   3    -0.231627406893E+04   -0.11444E-02   -0.13368E-02  4796   0.682E-02    0.127E-01
RMM:   4    -0.231627402696E+04    0.41970E-04   -0.15639E-03  4354   0.148E-02    0.782E-02
RMM:   5    -0.231627396315E+04    0.63811E-04   -0.28426E-04  4045   0.116E-02    0.254E-02
RMM:   6    -0.231627396536E+04   -0.22140E-05   -0.35992E-05  2895   0.617E-03
  53 F= -.23363981E+04 E0= -.23363981E+04  d E =-.417561E-02  mag=     3.0000
       N       E                     dE             d eps       ncg     rms          rms(c)
DAV:   1    -0.231626476266E+04    0.92005E-02   -0.11305E+00  4376   0.898E-01    0.331E-01
RMM:   2    -0.231627587490E+04   -0.11112E-01   -0.11424E-01  5545   0.143E-01    0.198E-01
RMM:   3    -0.231627688859E+04   -0.10137E-02   -0.12267E-02  4780   0.665E-02    0.126E-01
RMM:   4    -0.231627684991E+04    0.38673E-04   -0.14479E-03  4371   0.145E-02    0.779E-02
RMM:   5    -0.231627679993E+04    0.49982E-04   -0.24986E-04  3891   0.112E-02    0.297E-02
RMM:   6    -0.231627680368E+04   -0.37502E-05   -0.37408E-05  2889   0.590E-03
  54 F= -.23364008E+04 E0= -.23364008E+04  d E =-.270760E-02  mag=     3.0000
       N       E                     dE             d eps       ncg     rms          rms(c)
DAV:   1    -0.231625068853E+04    0.26111E-01   -0.24289E+00  4376   0.131E+00    0.485E-01
RMM:   2    -0.231627445236E+04   -0.23764E-01   -0.24423E-01  5499   0.208E-01    0.294E-01
RMM:   3    -0.231627677589E+04   -0.23235E-02   -0.28502E-02  4803   0.967E-02    0.190E-01
RMM:   4    -0.231627667134E+04    0.10455E-03   -0.31182E-03  4823   0.207E-02    0.120E-01
RMM:   5    -0.231627654170E+04    0.12964E-03   -0.59839E-04  4370   0.158E-02    0.478E-02
RMM:   6    -0.231627654719E+04   -0.54859E-05   -0.92732E-05  3408   0.799E-03
  55 F= -.23364003E+04 E0= -.23364003E+04  d E =-.225280E-02  mag=     3.0000
       N       E                     dE             d eps       ncg     rms          rms(c)
DAV:   1    -0.231626951738E+04    0.70243E-02   -0.74594E-01  4400   0.725E-01    0.266E-01
RMM:   2    -0.231627682409E+04   -0.73067E-02   -0.74622E-02  5807   0.116E-01    0.157E-01
RMM:   3    -0.231627738913E+04   -0.56504E-03   -0.71221E-03  5028   0.480E-02    0.993E-02
RMM:   4    -0.231627735937E+04    0.29763E-04   -0.93237E-04  4018   0.118E-02    0.583E-02
RMM:   5    -0.231627732934E+04    0.30024E-04   -0.18418E-04  3669   0.956E-03    0.191E-02
RMM:   6    -0.231627732959E+04   -0.25051E-06   -0.22911E-05  2828   0.528E-03
  56 F= -.23364012E+04 E0= -.23364012E+04  d E =-.314586E-02  mag=     3.0000
       N       E                     dE             d eps       ncg     rms          rms(c)
DAV:   1    -0.231627401622E+04    0.33131E-02   -0.66518E-01  4432   0.723E-01    0.263E-01
RMM:   2    -0.231627915949E+04   -0.51433E-02   -0.53980E-02  5548   0.115E-01    0.143E-01
RMM:   3    -0.231627952260E+04   -0.36311E-03   -0.54711E-03  4838   0.476E-02    0.886E-02
RMM:   4    -0.231627947805E+04    0.44554E-04   -0.68652E-04  4171   0.125E-02    0.492E-02
RMM:   5    -0.231627945655E+04    0.21496E-04   -0.11568E-04  3604   0.102E-02    0.172E-02
RMM:   6    -0.231627945727E+04   -0.72026E-06   -0.20437E-05  2823   0.476E-03
  57 F= -.23364033E+04 E0= -.23364033E+04  d E =-.204841E-02  mag=     3.0000
       N       E                     dE             d eps       ncg     rms          rms(c)
DAV:   1    -0.231627825972E+04    0.11968E-02   -0.17740E-01  4464   0.374E-01    0.137E-01
RMM:   2    -0.231627965131E+04   -0.13916E-02   -0.14623E-02  5708   0.607E-02    0.744E-02
RMM:   3    -0.231627974407E+04   -0.92760E-04   -0.13800E-03  4130   0.254E-02    0.462E-02
RMM:   4    -0.231627973334E+04    0.10724E-04   -0.18269E-04  3293   0.698E-03    0.258E-02
RMM:   5    -0.231627972819E+04    0.51518E-05   -0.32648E-05  2893   0.565E-03
  58 F= -.23364035E+04 E0= -.23364035E+04  d E =-.227729E-02  mag=     3.0000
       N       E                     dE             d eps       ncg     rms          rms(c)
DAV:   1    -0.231627770065E+04    0.20327E-02   -0.58452E-01  4376   0.679E-01    0.227E-01
RMM:   2    -0.231628174977E+04   -0.40491E-02   -0.42567E-02  5633   0.107E-01    0.133E-01
RMM:   3    -0.231628202576E+04   -0.27599E-03   -0.41474E-03  4920   0.415E-02    0.837E-02
RMM:   4    -0.231628198934E+04    0.36425E-04   -0.55196E-04  4150   0.117E-02    0.455E-02
RMM:   5    -0.231628197232E+04    0.17017E-04   -0.97634E-05  3349   0.903E-03    0.158E-02
RMM:   6    -0.231628197312E+04   -0.80247E-06   -0.17947E-05  2820   0.477E-03
  59 F= -.23364057E+04 E0= -.23364057E+04  d E =-.224461E-02  mag=     3.0000
       N       E                     dE             d eps       ncg     rms          rms(c)
DAV:   1    -0.231627156908E+04    0.10403E-01   -0.14323E+00  4376   0.106E+00    0.354E-01
RMM:   2    -0.231628145555E+04   -0.98865E-02   -0.10396E-01  5549   0.167E-01    0.209E-01
RMM:   3    -0.231628215173E+04   -0.69619E-03   -0.10622E-02  5057   0.633E-02    0.133E-01
RMM:   4    -0.231628205983E+04    0.91906E-04   -0.13507E-03  4530   0.175E-02    0.738E-02
RMM:   5    -0.231628200918E+04    0.50645E-04   -0.25549E-04  4153   0.137E-02    0.261E-02
RMM:   6    -0.231628201015E+04   -0.96271E-06   -0.43319E-05  2982   0.562E-03
  60 F= -.23364058E+04 E0= -.23364058E+04  d E =-.227607E-02  mag=     3.0000
       N       E                     dE             d eps       ncg     rms          rms(c)
DAV:   1    -0.231628021324E+04    0.17959E-02   -0.32065E-01  4400   0.502E-01    0.166E-01
RMM:   2    -0.231628245128E+04   -0.22380E-02   -0.23440E-02  5757   0.803E-02    0.959E-02
RMM:   3    -0.231628254535E+04   -0.94067E-04   -0.16875E-03  4862   0.281E-02    0.602E-02
RMM:   4    -0.231628251923E+04    0.26117E-04   -0.27888E-04  3831   0.895E-03    0.300E-02
RMM:   5    -0.231628251429E+04    0.49409E-05   -0.45005E-05  2968   0.667E-03
  61 F= -.23364063E+04 E0= -.23364063E+04  d E =-.278359E-02  mag=     3.0000
       N       E                     dE             d eps       ncg     rms          rms(c)
DAV:   1    -0.231628075005E+04    0.17692E-02   -0.65063E-01  4376   0.727E-01    0.243E-01
RMM:   2    -0.231628455822E+04   -0.38082E-02   -0.40188E-02  5535   0.114E-01    0.135E-01
RMM:   3    -0.231628471020E+04   -0.15199E-03   -0.34889E-03  4820   0.455E-02    0.843E-02
RMM:   4    -0.231628466497E+04    0.45232E-04   -0.57511E-04  4182   0.130E-02    0.429E-02
RMM:   5    -0.231628465055E+04    0.14424E-04   -0.84240E-05  3318   0.976E-03    0.172E-02
RMM:   6    -0.231628465121E+04   -0.66475E-06   -0.17098E-05  2824   0.446E-03
  62 F= -.23364083E+04 E0= -.23364083E+04  d E =-.206460E-02  mag=     3.0000
       N       E                     dE             d eps       ncg     rms          rms(c)
DAV:   1    -0.231628377857E+04    0.87198E-03   -0.18632E-01  4456   0.389E-01    0.132E-01
RMM:   2    -0.231628489153E+04   -0.11130E-02   -0.11736E-02  5717   0.621E-02    0.729E-02
RMM:   3    -0.231628493760E+04   -0.46069E-04   -0.98264E-04  4271   0.236E-02    0.460E-02
RMM:   4    -0.231628492638E+04    0.11221E-04   -0.15899E-04  3380   0.733E-03    0.244E-02
RMM:   5    -0.231628492298E+04    0.33946E-05   -0.26205E-05  2863   0.556E-03
  63 F= -.23364086E+04 E0= -.23364086E+04  d E =-.229626E-02  mag=     3.0000
       N       E                     dE             d eps       ncg     rms          rms(c)
DAV:   1    -0.231628383748E+04    0.10889E-02   -0.58268E-01  4376   0.688E-01    0.222E-01
RMM:   2    -0.231628711218E+04   -0.32747E-02   -0.34416E-02  5541   0.106E-01    0.127E-01
RMM:   3    -0.231628724565E+04   -0.13347E-03   -0.29803E-03  4741   0.410E-02    0.797E-02
RMM:   4    -0.231628720804E+04    0.37608E-04   -0.49458E-04  4080   0.121E-02    0.398E-02
RMM:   5    -0.231628719938E+04    0.86640E-05   -0.69116E-05  3100   0.927E-03
  64 F= -.23364107E+04 E0= -.23364107E+04  d E =-.215236E-02  mag=     3.0000
       N       E                     dE             d eps       ncg     rms          rms(c)
DAV:   1    -0.231628268305E+04    0.45250E-02   -0.92129E-01  4376   0.865E-01    0.280E-01
RMM:   2    -0.231628784078E+04   -0.51577E-02   -0.54182E-02  5520   0.134E-01    0.160E-01
RMM:   3    -0.231628807738E+04   -0.23660E-03   -0.49551E-03  4842   0.502E-02    0.102E-01
RMM:   4    -0.231628801987E+04    0.57516E-04   -0.79162E-04  4308   0.148E-02    0.522E-02
RMM:   5    -0.231628800249E+04    0.17381E-04   -0.11809E-04  3508   0.112E-02    0.224E-02
RMM:   6    -0.231628800329E+04   -0.80507E-06   -0.29366E-05  2892   0.454E-03
  65 F= -.23364114E+04 E0= -.23364114E+04  d E =-.279569E-02  mag=     3.0000
       N       E                     dE             d eps       ncg     rms          rms(c)
DAV:   1    -0.231628682046E+04    0.11820E-02   -0.53373E-01  4376   0.645E-01    0.211E-01
RMM:   2    -0.231628964158E+04   -0.28211E-02   -0.29669E-02  5636   0.999E-02    0.119E-01
RMM:   3    -0.231628974861E+04   -0.10704E-03   -0.24182E-03  4807   0.380E-02    0.746E-02
RMM:   4    -0.231628971944E+04    0.29178E-04   -0.39444E-04  4041   0.111E-02    0.370E-02
RMM:   5    -0.231628971485E+04    0.45816E-05   -0.59789E-05  2999   0.832E-03
  66 F= -.23364130E+04 E0= -.23364130E+04  d E =-.163479E-02  mag=     3.0000
       N       E                     dE             d eps       ncg     rms          rms(c)
DAV:   1    -0.231628630179E+04    0.34176E-02   -0.72596E-01  4376   0.752E-01    0.247E-01
RMM:   2    -0.231629013778E+04   -0.38360E-02   -0.40324E-02  5557   0.116E-01    0.140E-01
RMM:   3    -0.231629029662E+04   -0.15884E-03   -0.35353E-03  4802   0.424E-02    0.876E-02
RMM:   4    -0.231629025709E+04    0.39535E-04   -0.55746E-04  4142   0.128E-02    0.432E-02
RMM:   5    -0.231629024885E+04    0.82414E-05   -0.74716E-05  3172   0.934E-03
  67 F= -.23364134E+04 E0= -.23364134E+04  d E =-.207509E-02  mag=     3.0000
       N       E                     dE             d eps       ncg     rms          rms(c)
DAV:   1    -0.231629018014E+04    0.76947E-04   -0.40303E-01  4400   0.561E-01    0.189E-01
RMM:   2    -0.231629193291E+04   -0.17528E-02   -0.18940E-02  5516   0.876E-02    0.107E-01
RMM:   3    -0.231629196003E+04   -0.27119E-04   -0.16366E-03  4681   0.342E-02    0.669E-02
RMM:   4    -0.231629193324E+04    0.26792E-04   -0.30090E-04  4075   0.113E-02    0.329E-02
RMM:   5    -0.231629193155E+04    0.16892E-05   -0.40593E-05  2919   0.809E-03
  68 F= -.23364151E+04 E0= -.23364151E+04  d E =-.164388E-02  mag=     3.0000
       N       E                     dE             d eps       ncg     rms          rms(c)
DAV:   1    -0.231629143806E+04    0.49518E-03   -0.17740E-01  4480   0.372E-01    0.126E-01
RMM:   2    -0.231629222230E+04   -0.78424E-03   -0.84180E-03  5558   0.590E-02    0.712E-02
RMM:   3    -0.231629222914E+04   -0.68375E-05   -0.65239E-04  4366   0.234E-02    0.451E-02
RMM:   4    -0.231629221577E+04    0.13367E-04   -0.13689E-04  3752   0.797E-03    0.220E-02
RMM:   5    -0.231629221544E+04    0.33183E-06   -0.19581E-05  2820   0.586E-03
  69 F= -.23364153E+04 E0= -.23364153E+04  d E =-.190110E-02  mag=     3.0000
       N       E                     dE             d eps       ncg     rms          rms(c)
DAV:   1    -0.231629220584E+04    0.99353E-05   -0.43097E-01  4376   0.593E-01    0.201E-01
RMM:   2    -0.231629400523E+04   -0.17994E-02   -0.19602E-02  5330   0.878E-02    0.106E-01
RMM:   3    -0.231629399741E+04    0.78123E-05   -0.13886E-03  4679   0.329E-02    0.667E-02
RMM:   4    -0.231629396847E+04    0.28943E-04   -0.30822E-04  4091   0.111E-02    0.335E-02
RMM:   5    -0.231629396971E+04   -0.12429E-05   -0.42553E-05  2942   0.821E-03
  70 F= -.23364171E+04 E0= -.23364171E+04  d E =-.178991E-02  mag=     3.0000
       N       E                     dE             d eps       ncg     rms          rms(c)
DAV:   1    -0.231629285724E+04    0.11112E-02   -0.35695E-01  4376   0.540E-01    0.184E-01
RMM:   2    -0.231629435711E+04   -0.14999E-02   -0.16269E-02  5325   0.800E-02    0.974E-02
RMM:   3    -0.231629435722E+04   -0.11345E-06   -0.12064E-03  4601   0.312E-02    0.617E-02
RMM:   4    -0.231629433238E+04    0.24841E-04   -0.25945E-04  4039   0.102E-02    0.309E-02
RMM:   5    -0.231629433371E+04   -0.13308E-05   -0.34583E-05  2904   0.748E-03
  71 F= -.23364175E+04 E0= -.23364175E+04  d E =-.218495E-02  mag=     3.0000
       N       E                     dE             d eps       ncg     rms          rms(c)
DAV:   1    -0.231629314506E+04    0.11873E-02   -0.48872E-01  4376   0.630E-01    0.210E-01
RMM:   2    -0.231629579967E+04   -0.26546E-02   -0.28091E-02  5267   0.940E-02    0.117E-01
RMM:   3    -0.231629587062E+04   -0.70952E-04   -0.21059E-03  4591   0.426E-02    0.748E-02
RMM:   4    -0.231629583986E+04    0.30765E-04   -0.45876E-04  4060   0.119E-02    0.361E-02
RMM:   5    -0.231629583547E+04    0.43865E-05   -0.55652E-05  3003   0.915E-03
  72 F= -.23364191E+04 E0= -.23364191E+04  d E =-.153482E-02  mag=     3.0000
       N       E                     dE             d eps       ncg     rms          rms(c)
DAV:   1    -0.231629511978E+04    0.72008E-03   -0.15159E-01  4480   0.352E-01    0.118E-01
RMM:   2    -0.231629595480E+04   -0.83502E-03   -0.88073E-03  5410   0.533E-02    0.664E-02
RMM:   3    -0.231629598013E+04   -0.25333E-04   -0.63785E-04  4171   0.255E-02    0.428E-02
RMM:   4    -0.231629597059E+04    0.95445E-05   -0.13685E-04  3466   0.707E-03    0.214E-02
RMM:   5    -0.231629597049E+04    0.94398E-07   -0.19243E-05  2831   0.540E-03
  73 F= -.23364192E+04 E0= -.23364192E+04  d E =-.168662E-02  mag=     3.0000
       N       E                     dE             d eps       ncg     rms          rms(c)
DAV:   1    -0.231629443932E+04    0.15313E-02   -0.41195E-01  4376   0.585E-01    0.209E-01
RMM:   2    -0.231629722851E+04   -0.27892E-02   -0.29226E-02  5398   0.905E-02    0.112E-01
RMM:   3    -0.231629732002E+04   -0.91508E-04   -0.20562E-03  4547   0.405E-02    0.710E-02
RMM:   4    -0.231629728882E+04    0.31200E-04   -0.41328E-04  4069   0.114E-02    0.375E-02
RMM:   5    -0.231629728382E+04    0.49973E-05   -0.58904E-05  3049   0.910E-03
  74 F= -.23364204E+04 E0= -.23364204E+04  d E =-.119872E-02  mag=     3.0000
       N       E                     dE             d eps       ncg     rms          rms(c)
DAV:   1    -0.231629712428E+04    0.16454E-03   -0.29693E-02  4816   0.157E-01    0.583E-02
RMM:   2    -0.231629733056E+04   -0.20628E-03   -0.21508E-03  5580   0.266E-02    0.326E-02
RMM:   3    -0.231629734105E+04   -0.10486E-04   -0.17388E-04  3072   0.122E-02    0.215E-02
RMM:   4    -0.231629733960E+04    0.14490E-05   -0.31646E-05  2829   0.377E-03
  75 F= -.23364204E+04 E0= -.23364204E+04  d E =-.122287E-02  mag=     3.0000
       N       E                     dE             d eps       ncg     rms          rms(c)
DAV:   1    -0.231629589622E+04    0.14448E-02   -0.25965E-01  4376   0.456E-01    0.169E-01
RMM:   2    -0.231629810322E+04   -0.22070E-02   -0.23030E-02  5516   0.732E-02    0.931E-02
RMM:   3    -0.231629819272E+04   -0.89506E-04   -0.16001E-03  4448   0.301E-02    0.589E-02
RMM:   4    -0.231629817208E+04    0.20642E-04   -0.31524E-04  3985   0.927E-03    0.336E-02
RMM:   5    -0.231629816675E+04    0.53320E-05   -0.47024E-05  2955   0.744E-03
  76 F= -.23364212E+04 E0= -.23364212E+04  d E =-.759470E-03  mag=     3.0000
       N       E                     dE             d eps       ncg     rms          rms(c)
DAV:   1    -0.231629806952E+04    0.10257E-03   -0.11100E-02  5200   0.945E-02    0.377E-02
RMM:   2    -0.231629816671E+04   -0.97194E-04   -0.10069E-03  5272   0.173E-02    0.224E-02
RMM:   3    -0.231629817381E+04   -0.71017E-05   -0.95593E-05  2842   0.816E-03
  77 F= -.23364212E+04 E0= -.23364212E+04  d E =-.752331E-03  mag=     3.0000
       N       E                     dE             d eps       ncg     rms          rms(c)
DAV:   1    -0.231629583335E+04    0.23334E-02   -0.26789E-01  4376   0.480E-01    0.180E-01
RMM:   2    -0.231629864863E+04   -0.28153E-02   -0.28972E-02  5365   0.784E-02    0.969E-02
RMM:   3    -0.231629879879E+04   -0.15016E-03   -0.22043E-03  4379   0.348E-02    0.604E-02
RMM:   4    -0.231629878500E+04    0.13799E-04   -0.37960E-04  3993   0.940E-03    0.351E-02
RMM:   5    -0.231629877845E+04    0.65497E-05   -0.52637E-05  2976   0.770E-03
  78 F= -.23364218E+04 E0= -.23364218E+04  d E =-.616861E-03  mag=     3.0000
       N       E                     dE             d eps       ncg     rms          rms(c)
DAV:   1    -0.231629867381E+04    0.11118E-03   -0.82996E-03  5280   0.848E-02    0.345E-02
RMM:   2    -0.231629876435E+04   -0.90537E-04   -0.93587E-04  5212   0.160E-02    0.196E-02
RMM:   3    -0.231629877229E+04   -0.79427E-05   -0.90246E-05  2830   0.720E-03
  79 F= -.23364218E+04 E0= -.23364218E+04  d E =-.612867E-03  mag=     3.0000
       N       E                     dE             d eps       ncg     rms          rms(c)
DAV:   1    -0.231629649669E+04    0.22677E-02   -0.21652E-01  4388   0.439E-01    0.168E-01
RMM:   2    -0.231629907461E+04   -0.25779E-02   -0.26528E-02  5441   0.744E-02    0.889E-02
RMM:   3    -0.231629924070E+04   -0.16609E-03   -0.22167E-03  4307   0.328E-02    0.542E-02
RMM:   4    -0.231629923117E+04    0.95274E-05   -0.33534E-04  3868   0.862E-03    0.317E-02
RMM:   5    -0.231629922352E+04    0.76515E-05   -0.49287E-05  2965   0.720E-03
  80 F= -.23364223E+04 E0= -.23364223E+04  d E =-.536059E-03  mag=     3.0000
       N       E                     dE             d eps       ncg     rms          rms(c)
DAV:   1    -0.231629911976E+04    0.11141E-03   -0.56596E-03  5336   0.714E-02    0.296E-02
RMM:   2    -0.231629919105E+04   -0.71287E-04   -0.74611E-04  5075   0.141E-02    0.162E-02
RMM:   3    -0.231629919865E+04   -0.76016E-05   -0.84871E-05  2815   0.658E-03
  81 F= -.23364223E+04 E0= -.23364223E+04  d E =-.525085E-03  mag=     3.0000
       N       E                     dE             d eps       ncg     rms          rms(c)
DAV:   1    -0.231629728677E+04    0.19043E-02   -0.16730E-01  4388   0.375E-01    0.145E-01
RMM:   2    -0.231629951823E+04   -0.22315E-02   -0.22792E-02  5489   0.639E-02    0.800E-02
RMM:   3    -0.231629966586E+04   -0.14763E-03   -0.17510E-03  3971   0.273E-02    0.486E-02
RMM:   4    -0.231629965923E+04    0.66245E-05   -0.25510E-04  3284   0.721E-03    0.296E-02
RMM:   5    -0.231629965431E+04    0.49200E-05   -0.41462E-05  2879   0.585E-03
  82 F= -.23364229E+04 E0= -.23364229E+04  d E =-.520182E-03  mag=     3.0000
       N       E                     dE             d eps       ncg     rms          rms(c)
DAV:   1    -0.231629864840E+04    0.10108E-02   -0.69559E-02  4416   0.242E-01    0.949E-02
RMM:   2    -0.231629957866E+04   -0.93026E-03   -0.95621E-03  5855   0.434E-02    0.524E-02
RMM:   3    -0.231629966107E+04   -0.82408E-04   -0.93157E-04  3489   0.188E-02    0.321E-02
RMM:   4    -0.231629965957E+04    0.15007E-05   -0.11154E-04  2843   0.480E-03    0.206E-02
RMM:   5    -0.231629965640E+04    0.31705E-05   -0.21712E-05  2825   0.389E-03
  83 F= -.23364229E+04 E0= -.23364229E+04  d E =-.563558E-03  mag=     3.0000
       N       E                     dE             d eps       ncg     rms          rms(c)
DAV:   1    -0.231629762653E+04    0.20330E-02   -0.17862E-01  4376   0.387E-01    0.149E-01
RMM:   2    -0.231630001917E+04   -0.23926E-02   -0.24501E-02  5691   0.669E-02    0.813E-02
RMM:   3    -0.231630018305E+04   -0.16388E-03   -0.19218E-03  4165   0.292E-02    0.486E-02
RMM:   4    -0.231630017497E+04    0.80777E-05   -0.26108E-04  3050   0.715E-03    0.303E-02
RMM:   5    -0.231630016576E+04    0.92172E-05   -0.46032E-05  2936   0.586E-03
  84 F= -.23364235E+04 E0= -.23364235E+04  d E =-.562918E-03  mag=     3.0000
       N       E                     dE             d eps       ncg     rms          rms(c)
DAV:   1    -0.231629920779E+04    0.96719E-03   -0.69115E-02  4496   0.240E-01    0.938E-02
RMM:   2    -0.231630013856E+04   -0.93078E-03   -0.95617E-03  5984   0.438E-02    0.510E-02
RMM:   3    -0.231630020372E+04   -0.65160E-04   -0.75411E-04  3418   0.172E-02    0.302E-02
RMM:   4    -0.231630020083E+04    0.28945E-05   -0.10292E-04  2845   0.476E-03    0.186E-02
RMM:   5    -0.231630019726E+04    0.35697E-05   -0.18619E-05  2820   0.386E-03
  85 F= -.23364235E+04 E0= -.23364235E+04  d E =-.627075E-03  mag=     3.0000
       N       E                     dE             d eps       ncg     rms          rms(c)
DAV:   1    -0.231629841631E+04    0.17845E-02   -0.15775E-01  4376   0.366E-01    0.144E-01
RMM:   2    -0.231630050364E+04   -0.20873E-02   -0.21385E-02  5803   0.643E-02    0.749E-02
RMM:   3    -0.231630062720E+04   -0.12357E-03   -0.15255E-03  4152   0.272E-02    0.440E-02
RMM:   4    -0.231630061879E+04    0.84095E-05   -0.23201E-04  3192   0.721E-03    0.264E-02
RMM:   5    -0.231630061203E+04    0.67628E-05   -0.38025E-05  2879   0.607E-03
  86 F= -.23364240E+04 E0= -.23364240E+04  d E =-.449449E-03  mag=     3.0000
       N       E                     dE             d eps       ncg     rms          rms(c)
DAV:   1    -0.231630041042E+04    0.20838E-03   -0.13931E-02  4896   0.109E-01    0.442E-02
RMM:   2    -0.231630059840E+04   -0.18798E-03   -0.19428E-03  5643   0.212E-02    0.230E-02
RMM:   3    -0.231630061185E+04   -0.13455E-04   -0.15420E-04  2853   0.898E-03    0.138E-02
RMM:   4    -0.231630061132E+04    0.53021E-06   -0.22149E-05  2817   0.259E-03
  87 F= -.23364240E+04 E0= -.23364240E+04  d E =-.458811E-03  mag=     3.0000
       N       E                     dE             d eps       ncg     rms          rms(c)
DAV:   1    -0.231629963438E+04    0.97748E-03   -0.94150E-02  4388   0.286E-01    0.112E-01
RMM:   2    -0.231630085802E+04   -0.12236E-02   -0.12540E-02  5553   0.498E-02    0.580E-02
RMM:   3    -0.231630092282E+04   -0.64802E-04   -0.85049E-04  3712   0.226E-02    0.346E-02
RMM:   4    -0.231630091542E+04    0.74058E-05   -0.13073E-04  2992   0.610E-03    0.200E-02
RMM:   5    -0.231630091168E+04    0.37321E-05   -0.22066E-05  2820   0.482E-03
  88 F= -.23364243E+04 E0= -.23364243E+04  d E =-.347367E-03  mag=     3.0000
       N       E                     dE             d eps       ncg     rms          rms(c)
DAV:   1    -0.231630073508E+04    0.18034E-03   -0.12077E-02  4728   0.103E-01    0.410E-02
RMM:   2    -0.231630089440E+04   -0.15933E-03   -0.16441E-03  5562   0.201E-02    0.216E-02
RMM:   3    -0.231630090669E+04   -0.12280E-04   -0.14561E-04  2859   0.873E-03    0.134E-02
RMM:   4    -0.231630090596E+04    0.72666E-06   -0.20006E-05  2807   0.256E-03
  89 F= -.23364243E+04 E0= -.23364243E+04  d E =-.358325E-03  mag=     3.0000
       N       E                     dE             d eps       ncg     rms          rms(c)
DAV:   1    -0.231629983287E+04    0.10738E-02   -0.10219E-01  4376   0.304E-01    0.114E-01
RMM:   2    -0.231630107771E+04   -0.12448E-02   -0.12791E-02  5536   0.515E-02    0.589E-02
RMM:   3    -0.231630114790E+04   -0.70197E-04   -0.90877E-04  3777   0.231E-02    0.350E-02
RMM:   4    -0.231630114117E+04    0.67369E-05   -0.14085E-04  2954   0.612E-03    0.204E-02
RMM:   5    -0.231630113729E+04    0.38791E-05   -0.24554E-05  2825   0.484E-03
  90 F= -.23364246E+04 E0= -.23364246E+04  d E =-.284987E-03  mag=     3.0000
       N       E                     dE             d eps       ncg     rms          rms(c)
DAV:   1    -0.231630098024E+04    0.16093E-03   -0.10799E-02  4800   0.992E-02    0.382E-02
RMM:   2    -0.231630111457E+04   -0.13433E-03   -0.13901E-03  5456   0.190E-02    0.196E-02
RMM:   3    -0.231630112384E+04   -0.92675E-05   -0.10890E-04  2845   0.805E-03    0.118E-02
RMM:   4    -0.231630112353E+04    0.31026E-06   -0.15744E-05  2811   0.248E-03
  91 F= -.23364246E+04 E0= -.23364246E+04  d E =-.288566E-03  mag=     3.0000
       N       E                     dE             d eps       ncg     rms          rms(c)
DAV:   1    -0.231630014853E+04    0.97531E-03   -0.10673E-01  4376   0.316E-01    0.114E-01
RMM:   2    -0.231630130294E+04   -0.11544E-02   -0.11927E-02  5457   0.522E-02    0.584E-02
RMM:   3    -0.231630137997E+04   -0.77031E-04   -0.10149E-03  3785   0.240E-02    0.350E-02
RMM:   4    -0.231630137393E+04    0.60359E-05   -0.13225E-04  3000   0.615E-03    0.201E-02
RMM:   5    -0.231630137005E+04    0.38843E-05   -0.22625E-05  2821   0.495E-03
  92 F= -.23364249E+04 E0= -.23364249E+04  d E =-.280491E-03  mag=     3.0000
       N       E                     dE             d eps       ncg     rms          rms(c)
DAV:   1    -0.231630131791E+04    0.56024E-04   -0.36243E-03  5280   0.584E-02    0.222E-02
RMM:   2    -0.231630135836E+04   -0.40449E-04   -0.42367E-04  4424   0.115E-02    0.114E-02
RMM:   3    -0.231630136254E+04   -0.41807E-05   -0.47760E-05  2770   0.583E-03
  93 F= -.23364249E+04 E0= -.23364249E+04  d E =-.279233E-03  mag=     3.0000
       N       E                     dE             d eps       ncg     rms          rms(c)
DAV:   1    -0.231630061793E+04    0.74043E-03   -0.89144E-02  4388   0.289E-01    0.102E-01
RMM:   2    -0.231630153145E+04   -0.91352E-03   -0.93824E-03  5445   0.477E-02    0.529E-02
RMM:   3    -0.231630159350E+04   -0.62047E-04   -0.87783E-04  3621   0.215E-02    0.316E-02
RMM:   4    -0.231630158784E+04    0.56582E-05   -0.11140E-04  2976   0.586E-03    0.171E-02
RMM:   5    -0.231630158532E+04    0.25209E-05   -0.19030E-05  2813   0.454E-03
  94 F= -.23364252E+04 E0= -.23364252E+04  d E =-.243102E-03  mag=     3.0000
       N       E                     dE             d eps       ncg     rms          rms(c)
DAV:   1    -0.231630149033E+04    0.97509E-04   -0.77837E-03  4784   0.858E-02    0.311E-02
RMM:   2    -0.231630157227E+04   -0.81936E-04   -0.85241E-04  5212   0.163E-02    0.157E-02
RMM:   3    -0.231630157880E+04   -0.65252E-05   -0.81725E-05  2830   0.704E-03
  95 F= -.23364252E+04 E0= -.23364252E+04  d E =-.242565E-03  mag=     3.0000
       N       E                     dE             d eps       ncg     rms          rms(c)
DAV:   1    -0.231630079610E+04    0.77617E-03   -0.95393E-02  4376   0.305E-01    0.107E-01
RMM:   2    -0.231630170415E+04   -0.90805E-03   -0.93912E-03  5351   0.496E-02    0.535E-02
RMM:   3    -0.231630174826E+04   -0.44107E-04   -0.72974E-04  3702   0.216E-02    0.322E-02
RMM:   4    -0.231630174132E+04    0.69403E-05   -0.11670E-04  3165   0.616E-03    0.170E-02
RMM:   5    -0.231630173868E+04    0.26319E-05   -0.18563E-05  2814   0.495E-03
  96 F= -.23364254E+04 E0= -.23364254E+04  d E =-.207720E-03  mag=     3.0000
       N       E                     dE             d eps       ncg     rms          rms(c)
DAV:   1    -0.231630168883E+04    0.52489E-04   -0.32836E-03  5296   0.570E-02    0.208E-02
RMM:   2    -0.231630172172E+04   -0.32893E-04   -0.34512E-04  4271   0.110E-02    0.103E-02
RMM:   3    -0.231630172488E+04   -0.31581E-05   -0.36931E-05  2731   0.577E-03
  97 F= -.23364254E+04 E0= -.23364254E+04  d E =-.202874E-03  mag=     3.0000
       N       E                     dE             d eps       ncg     rms          rms(c)
DAV:   1    -0.231630125826E+04    0.46346E-03   -0.64224E-02  4376   0.247E-01    0.819E-02
RMM:   2    -0.231630186962E+04   -0.61136E-03   -0.63010E-03  5416   0.398E-02    0.437E-02
RMM:   3    -0.231630189979E+04   -0.30171E-04   -0.45729E-04  3415   0.175E-02    0.265E-02
RMM:   4    -0.231630189430E+04    0.54912E-05   -0.72583E-05  2877   0.502E-03
  98 F= -.23364256E+04 E0= -.23364256E+04  d E =-.213307E-03  mag=     3.0000
       N       E                     dE             d eps       ncg     rms          rms(c)
DAV:   1    -0.231630164762E+04    0.25217E-03   -0.23523E-02  4448   0.150E-01    0.508E-02
RMM:   2    -0.231630187112E+04   -0.22350E-03   -0.23287E-03  5664   0.256E-02    0.268E-02
RMM:   3    -0.231630188634E+04   -0.15214E-04   -0.20562E-04  2939   0.108E-02    0.162E-02
RMM:   4    -0.231630188503E+04    0.13027E-05   -0.29089E-05  2824   0.327E-03
  99 F= -.23364256E+04 E0= -.23364256E+04  d E =-.230803E-03  mag=     3.0000
       N       E                     dE             d eps       ncg     rms          rms(c)
DAV:   1    -0.231630154807E+04    0.33827E-03   -0.61292E-02  4376   0.242E-01    0.817E-02
RMM:   2    -0.231630210828E+04   -0.56021E-03   -0.58064E-03  5672   0.396E-02    0.414E-02
RMM:   3    -0.231630213932E+04   -0.31034E-04   -0.44176E-04  3340   0.155E-02    0.252E-02
RMM:   4    -0.231630213562E+04    0.36993E-05   -0.65558E-05  2836   0.476E-03
 100 F= -.23364259E+04 E0= -.23364259E+04  d E =-.273609E-03  mag=     3.0000
       N       E                     dE             d eps       ncg     rms          rms(c)
DAV:   1    -0.231630138136E+04    0.75795E-03   -0.84507E-02  4376   0.285E-01    0.960E-02
RMM:   2    -0.231630215432E+04   -0.77296E-03   -0.80143E-03  5667   0.464E-02    0.490E-02
RMM:   3    -0.231630219961E+04   -0.45287E-04   -0.63582E-04  3745   0.198E-02    0.297E-02
RMM:   4    -0.231630219493E+04    0.46777E-05   -0.90386E-05  2849   0.545E-03
 101 F= -.23364259E+04 E0= -.23364259E+04  d E =-.359625E-03  mag=     3.0000
       N       E                     dE             d eps       ncg     rms          rms(c)
DAV:   1    -0.231630164295E+04    0.55666E-03   -0.83443E-02  4376   0.284E-01    0.962E-02
RMM:   2    -0.231630239936E+04   -0.75641E-03   -0.78694E-03  5746   0.476E-02    0.495E-02
RMM:   3    -0.231630244555E+04   -0.46192E-04   -0.66712E-04  3721   0.196E-02    0.302E-02
RMM:   4    -0.231630244005E+04    0.54992E-05   -0.91557E-05  2854   0.557E-03
 102 F= -.23364262E+04 E0= -.23364262E+04  d E =-.250824E-03  mag=     3.0000
       N       E                     dE             d eps       ncg     rms          rms(c)
DAV:   1    -0.231630234947E+04    0.96077E-04   -0.94817E-03  4976   0.958E-02    0.337E-02
RMM:   2    -0.231630243595E+04   -0.86477E-04   -0.91128E-04  5343   0.174E-02    0.180E-02
RMM:   3    -0.231630244222E+04   -0.62735E-05   -0.84892E-05  2813   0.737E-03
 103 F= -.23364262E+04 E0= -.23364262E+04  d E =-.254835E-03  mag=     3.0000
       N       E                     dE             d eps       ncg     rms          rms(c)
DAV:   1    -0.231630185267E+04    0.58328E-03   -0.87148E-02  4376   0.291E-01    0.100E-01
RMM:   2    -0.231630265750E+04   -0.80483E-03   -0.83412E-03  5400   0.475E-02    0.515E-02
RMM:   3    -0.231630269426E+04   -0.36756E-04   -0.60716E-04  3687   0.205E-02    0.316E-02
RMM:   4    -0.231630268920E+04    0.50593E-05   -0.10454E-04  2977   0.588E-03    0.171E-02
RMM:   5    -0.231630268703E+04    0.21683E-05   -0.15858E-05  2815   0.444E-03
 104 F= -.23364265E+04 E0= -.23364265E+04  d E =-.254773E-03  mag=     3.0000
       N       E                     dE             d eps       ncg     rms          rms(c)
DAV:   1    -0.231630254329E+04    0.14591E-03   -0.14138E-02  4608   0.117E-01    0.410E-02
RMM:   2    -0.231630267688E+04   -0.13359E-03   -0.13914E-03  5551   0.214E-02    0.208E-02
RMM:   3    -0.231630268639E+04   -0.95094E-05   -0.12485E-04  2865   0.901E-03    0.132E-02
RMM:   4    -0.231630268576E+04    0.63251E-06   -0.17083E-05  2808   0.275E-03
 105 F= -.23364265E+04 E0= -.23364265E+04  d E =-.257446E-03  mag=     3.0000
       N       E                     dE             d eps       ncg     rms          rms(c)
DAV:   1    -0.231630210092E+04    0.58548E-03   -0.82520E-02  4376   0.278E-01    0.958E-02
RMM:   2    -0.231630287355E+04   -0.77264E-03   -0.80492E-03  5586   0.460E-02    0.495E-02
RMM:   3    -0.231630291130E+04   -0.37746E-04   -0.57429E-04  3598   0.194E-02    0.307E-02
RMM:   4    -0.231630290494E+04    0.63580E-05   -0.98374E-05  2879   0.566E-03
 106 F= -.23364267E+04 E0= -.23364267E+04  d E =-.235907E-03  mag=     3.0000
       N       E                     dE             d eps       ncg     rms          rms(c)
DAV:   1    -0.231630284435E+04    0.66954E-04   -0.58480E-03  5104   0.742E-02    0.271E-02
RMM:   2    -0.231630289687E+04   -0.52525E-04   -0.56416E-04  5064   0.137E-02    0.147E-02
RMM:   3    -0.231630290051E+04   -0.36387E-05   -0.50455E-05  2811   0.590E-03
 107 F= -.23364267E+04 E0= -.23364267E+04  d E =-.235952E-03  mag=     3.0000
       N       E                     dE             d eps       ncg     rms          rms(c)
DAV:   1    -0.231630268110E+04    0.21577E-03   -0.51570E-02  4376   0.225E-01    0.803E-02
RMM:   2    -0.231630310613E+04   -0.42503E-03   -0.44888E-03  5427   0.375E-02    0.396E-02
RMM:   3    -0.231630311357E+04   -0.74456E-05   -0.25842E-04  3451   0.158E-02    0.240E-02
RMM:   4    -0.231630310860E+04    0.49717E-05   -0.59871E-05  2925   0.520E-03
 108 F= -.23364269E+04 E0= -.23364269E+04  d E =-.220605E-03  mag=     3.0000
       N       E                     dE             d eps       ncg     rms          rms(c)
DAV:   1    -0.231630307918E+04    0.34395E-04   -0.31333E-03  5248   0.557E-02    0.210E-02
RMM:   2    -0.231630310458E+04   -0.25405E-04   -0.27597E-04  4383   0.108E-02    0.107E-02
RMM:   3    -0.231630310620E+04   -0.16213E-05   -0.25266E-05  2772   0.540E-03
 109 F= -.23364269E+04 E0= -.23364269E+04  d E =-.221329E-03  mag=     3.0000
       N       E                     dE             d eps       ncg     rms          rms(c)
DAV:   1    -0.231630299778E+04    0.10680E-03   -0.34558E-02  4388   0.188E-01    0.656E-02
RMM:   2    -0.231630325343E+04   -0.25565E-03   -0.27282E-03  5382   0.308E-02    0.322E-02
RMM:   3    -0.231630325678E+04   -0.33518E-05   -0.17427E-04  3211   0.129E-02    0.196E-02
RMM:   4    -0.231630325301E+04    0.37726E-05   -0.38868E-05  2842   0.462E-03
 110 F= -.23364271E+04 E0= -.23364271E+04  d E =-.146130E-03  mag=     3.0000
       N       E                     dE             d eps       ncg     rms          rms(c)
DAV:   1    -0.231630324878E+04    0.80068E-05   -0.41741E-04  5160   0.212E-02    0.860E-03
RMM:   2    -0.231630325179E+04   -0.30111E-05   -0.36721E-05  2667   0.454E-03
 111 F= -.23364271E+04 E0= -.23364271E+04  d E =-.144810E-03  mag=     3.0000
       N       E                     dE             d eps       ncg     rms          rms(c)
DAV:   1    -0.231630318110E+04    0.67674E-04   -0.36550E-02  4432   0.195E-01    0.689E-02
RMM:   2    -0.231630342061E+04   -0.23951E-03   -0.25851E-03  5698   0.335E-02    0.325E-02
RMM:   3    -0.231630342986E+04   -0.92409E-05   -0.24985E-04  3436   0.144E-02    0.201E-02
RMM:   4    -0.231630342636E+04    0.34975E-05   -0.35815E-05  2814   0.423E-03
 112 F= -.23364272E+04 E0= -.23364272E+04  d E =-.154153E-03  mag=     3.0000
       N       E                     dE             d eps       ncg     rms          rms(c)
DAV:   1    -0.231630341907E+04    0.10782E-04   -0.12701E-03  5360   0.367E-02    0.138E-02
RMM:   2    -0.231630342726E+04   -0.81844E-05   -0.93411E-05  3125   0.717E-03
 113 F= -.23364272E+04 E0= -.23364272E+04  d E =-.151052E-03  mag=     3.0000
       N       E                     dE             d eps       ncg     rms          rms(c)
DAV:   1    -0.231630337406E+04    0.45014E-04   -0.32579E-02  4388   0.182E-01    0.625E-02
RMM:   2    -0.231630359014E+04   -0.21608E-03   -0.23148E-03  5870   0.321E-02    0.311E-02
RMM:   3    -0.231630359725E+04   -0.71019E-05   -0.21001E-04  3166   0.117E-02    0.190E-02
RMM:   4    -0.231630359420E+04    0.30450E-05   -0.31192E-05  2822   0.405E-03
 114 F= -.23364274E+04 E0= -.23364274E+04  d E =-.141533E-03  mag=     3.0000
       N       E                     dE             d eps       ncg     rms          rms(c)
DAV:   1    -0.231630358536E+04    0.11884E-04   -0.24971E-03  5248   0.505E-02    0.178E-02
RMM:   2    -0.231630360133E+04   -0.15966E-04   -0.17594E-04  3725   0.957E-03    0.887E-03
RMM:   3    -0.231630360222E+04   -0.89624E-06   -0.16160E-05  2705   0.531E-03
 115 F= -.23364274E+04 E0= -.23364274E+04  d E =-.142315E-03  mag=     3.0000
       N       E                     dE             d eps       ncg     rms          rms(c)
DAV:   1    -0.231630353224E+04    0.69090E-04   -0.36226E-02  4388   0.192E-01    0.642E-02
RMM:   2    -0.231630375557E+04   -0.22334E-03   -0.24149E-03  5395   0.305E-02    0.308E-02
RMM:   3    -0.231630375530E+04    0.27464E-06   -0.14397E-04  3213   0.127E-02    0.188E-02
RMM:   4    -0.231630375150E+04    0.37975E-05   -0.35837E-05  2853   0.454E-03
 116 F= -.23364275E+04 E0= -.23364275E+04  d E =-.145280E-03  mag=     3.0000
       N       E                     dE             d eps       ncg     rms          rms(c)
DAV:   1    -0.231630374018E+04    0.15121E-04   -0.16754E-03  5336   0.416E-02    0.147E-02
RMM:   2    -0.231630375040E+04   -0.10227E-04   -0.11379E-04  3314   0.792E-03    0.722E-03
RMM:   3    -0.231630375120E+04   -0.80038E-06   -0.12055E-05  2534   0.473E-03
 117 F= -.23364275E+04 E0= -.23364275E+04  d E =-.144085E-03  mag=     3.0000
       N       E                     dE             d eps       ncg     rms          rms(c)
DAV:   1    -0.231630362948E+04    0.12093E-03   -0.31428E-02  4388   0.177E-01    0.580E-02
RMM:   2    -0.231630383748E+04   -0.20800E-03   -0.22294E-03  5331   0.280E-02    0.289E-02
RMM:   3    -0.231630383989E+04   -0.24051E-05   -0.13917E-04  3132   0.124E-02    0.178E-02
RMM:   4    -0.231630383675E+04    0.31392E-05   -0.32072E-05  2831   0.412E-03
 118 F= -.23364276E+04 E0= -.23364276E+04  d E =-.116815E-03  mag=     3.0000
       N       E                     dE             d eps       ncg     rms          rms(c)
DAV:   1    -0.231630381783E+04    0.22056E-04   -0.18724E-03  5280   0.434E-02    0.150E-02
RMM:   2    -0.231630383005E+04   -0.12216E-04   -0.13444E-04  3424   0.816E-03    0.763E-03
RMM:   3    -0.231630383097E+04   -0.92259E-06   -0.13227E-05  2557   0.471E-03
 119 F= -.23364276E+04 E0= -.23364276E+04  d E =-.118873E-03  mag=     3.0000
       N       E                     dE             d eps       ncg     rms          rms(c)
DAV:   1    -0.231630373638E+04    0.93667E-04   -0.26636E-02  4388   0.164E-01    0.561E-02
RMM:   2    -0.231630392551E+04   -0.18913E-03   -0.20294E-03  5388   0.267E-02    0.280E-02
RMM:   3    -0.231630392815E+04   -0.26436E-05   -0.13034E-04  3074   0.118E-02    0.172E-02
RMM:   4    -0.231630392524E+04    0.29114E-05   -0.29785E-05  2828   0.399E-03
 120 F= -.23364278E+04 E0= -.23364278E+04  d E =-.136078E-03  mag=     3.0000
       N       E                     dE             d eps       ncg     rms          rms(c)
DAV:   1    -0.231630390149E+04    0.26664E-04   -0.21466E-03  5200   0.467E-02    0.167E-02
RMM:   2    -0.231630391643E+04   -0.14937E-04   -0.16435E-04  3606   0.888E-03    0.843E-03
RMM:   3    -0.231630391740E+04   -0.97435E-06   -0.15571E-05  2660   0.505E-03
 121 F= -.23364278E+04 E0= -.23364278E+04  d E =-.140347E-03  mag=     3.0000
       N       E                     dE             d eps       ncg     rms          rms(c)
DAV:   1    -0.231630382722E+04    0.89211E-04   -0.24148E-02  4400   0.155E-01    0.536E-02
RMM:   2    -0.231630399840E+04   -0.17118E-03   -0.18423E-03  5445   0.254E-02    0.266E-02
RMM:   3    -0.231630400110E+04   -0.26973E-05   -0.12301E-04  3010   0.108E-02    0.164E-02
RMM:   4    -0.231630399844E+04    0.26535E-05   -0.27337E-05  2823   0.379E-03
 122 F= -.23364279E+04 E0= -.23364279E+04  d E =-.107115E-03  mag=     3.0000
       N       E                     dE             d eps       ncg     rms          rms(c)
DAV:   1    -0.231630398294E+04    0.18157E-04   -0.11837E-03  5264   0.347E-02    0.127E-02
RMM:   2    -0.231630399110E+04   -0.81643E-05   -0.92075E-05  3067   0.671E-03
 123 F= -.23364279E+04 E0= -.23364279E+04  d E =-.105707E-03  mag=     3.0000
       N       E                     dE             d eps       ncg     rms          rms(c)
DAV:   1    -0.231630393139E+04    0.51551E-04   -0.16877E-02  4400   0.127E-01    0.437E-02
RMM:   2    -0.231630405718E+04   -0.12579E-03   -0.13274E-03  5624   0.232E-02    0.232E-02
RMM:   3    -0.231630406456E+04   -0.73814E-05   -0.13245E-04  2841   0.885E-03    0.151E-02
RMM:   4    -0.231630406319E+04    0.13724E-05   -0.19067E-05  2812   0.313E-03
 124 F= -.23364280E+04 E0= -.23364280E+04  d E =-.904308E-04  mag=     3.0000
       N       E                     dE             d eps       ncg     rms          rms(c)
DAV:   1    -0.231630395365E+04    0.11092E-03   -0.14613E-02  4400   0.118E-01    0.398E-02
RMM:   2    -0.231630406061E+04   -0.10696E-03   -0.11394E-03  5492   0.196E-02    0.203E-02
RMM:   3    -0.231630406337E+04   -0.27676E-05   -0.69552E-05  2859   0.841E-03
 125 F= -.23364280E+04 E0= -.23364280E+04  d E =-.107781E-03  mag=     3.0000
       N       E                     dE             d eps       ncg     rms          rms(c)
DAV:   1    -0.231630402710E+04    0.33508E-04   -0.22003E-02  4376   0.146E-01    0.500E-02
RMM:   2    -0.231630417148E+04   -0.14439E-03   -0.15604E-03  5534   0.236E-02    0.258E-02
RMM:   3    -0.231630417155E+04   -0.62864E-07   -0.89892E-05  2870   0.840E-03
 126 F= -.23364281E+04 E0= -.23364281E+04  d E =-.118768E-03  mag=     3.0000
       N       E                     dE             d eps       ncg     rms          rms(c)
DAV:   1    -0.231630414072E+04    0.30761E-04   -0.49108E-03  4784   0.689E-02    0.256E-02
RMM:   2    -0.231630417182E+04   -0.31095E-04   -0.35114E-04  4565   0.119E-02    0.144E-02
RMM:   3    -0.231630417239E+04   -0.56872E-06   -0.33606E-05  2807   0.596E-03
 127 F= -.23364281E+04 E0= -.23364281E+04  d E =-.124685E-03  mag=     3.0000
       N       E                     dE             d eps       ncg     rms          rms(c)
DAV:   1    -0.231630413422E+04    0.37593E-04   -0.18635E-02  4376   0.136E-01    0.488E-02
RMM:   2    -0.231630424854E+04   -0.11432E-03   -0.12527E-03  5450   0.226E-02    0.235E-02
RMM:   3    -0.231630424958E+04   -0.10316E-05   -0.92897E-05  2840   0.853E-03
 128 F= -.23364282E+04 E0= -.23364282E+04  d E =-.100878E-03  mag=     3.0000
       N       E                     dE             d eps       ncg     rms          rms(c)
DAV:   1    -0.231630421389E+04    0.34655E-04   -0.43475E-03  4944   0.659E-02    0.261E-02
RMM:   2    -0.231630423931E+04   -0.25424E-04   -0.29439E-04  4543   0.115E-02    0.142E-02
RMM:   3    -0.231630423952E+04   -0.21042E-06   -0.31556E-05  2804   0.595E-03
 129 F= -.23364282E+04 E0= -.23364282E+04  d E =-.102430E-03  mag=     3.0000
       N       E                     dE             d eps       ncg     rms          rms(c)
DAV:   1    -0.231630418654E+04    0.52777E-04   -0.15883E-02  4376   0.125E-01    0.427E-02
RMM:   2    -0.231630428713E+04   -0.10059E-03   -0.10843E-03  5436   0.207E-02    0.218E-02
RMM:   3    -0.231630428900E+04   -0.18684E-05   -0.80869E-05  2824   0.787E-03
 130 F= -.23364283E+04 E0= -.23364283E+04  d E =-.829991E-04  mag=     3.0000
       N       E                     dE             d eps       ncg     rms          rms(c)
DAV:   1    -0.231630427260E+04    0.14535E-04   -0.12921E-03  5328   0.356E-02    0.153E-02
RMM:   2    -0.231630428006E+04   -0.74633E-05   -0.90120E-05  3050   0.634E-03
 131 F= -.23364283E+04 E0= -.23364283E+04  d E =-.838634E-04  mag=     3.0000
       N       E                     dE             d eps       ncg     rms          rms(c)
DAV:   1    -0.231630428972E+04   -0.17125E-04   -0.14321E-02  4388   0.120E-01    0.447E-02
RMM:   2    -0.231630437094E+04   -0.81217E-04   -0.90730E-04  5435   0.222E-02    0.223E-02
RMM:   3    -0.231630437152E+04   -0.58590E-06   -0.87189E-05  2911   0.957E-03
 132 F= -.23364284E+04 E0= -.23364284E+04  d E =-.109694E-03  mag=     3.0000
       N       E                     dE             d eps       ncg     rms          rms(c)
DAV:   1    -0.231630435933E+04    0.11604E-04   -0.17439E-03  5272   0.421E-02    0.181E-02
RMM:   2    -0.231630436768E+04   -0.83478E-05   -0.10775E-04  3302   0.783E-03    0.101E-02
RMM:   3    -0.231630436762E+04    0.66590E-07   -0.14900E-05  2722   0.453E-03
 133 F= -.23364284E+04 E0= -.23364284E+04  d E =-.112310E-03  mag=     3.0000
       N       E                     dE             d eps       ncg     rms          rms(c)
DAV:   1    -0.231630439591E+04   -0.28229E-04   -0.85803E-03  4400   0.935E-02    0.331E-02
RMM:   2    -0.231630443768E+04   -0.41768E-04   -0.47631E-04  5074   0.157E-02    0.160E-02
RMM:   3    -0.231630443705E+04    0.63302E-06   -0.38960E-05  2827   0.766E-03
 134 F= -.23364285E+04 E0= -.23364285E+04  d E =-.727091E-04  mag=     3.0000
       N       E                     dE             d eps       ncg     rms          rms(c)
DAV:   1    -0.231630442868E+04    0.90035E-05   -0.20447E-03  4928   0.457E-02    0.177E-02
RMM:   2    -0.231630443765E+04   -0.89752E-05   -0.11160E-04  3393   0.825E-03    0.937E-03
RMM:   3    -0.231630443777E+04   -0.12123E-06   -0.14735E-05  2768   0.463E-03
 135 F= -.23364285E+04 E0= -.23364285E+04  d E =-.750670E-04  mag=     3.0000
       N       E                     dE             d eps       ncg     rms          rms(c)
DAV:   1    -0.231630444102E+04   -0.33659E-05   -0.99406E-03  4388   0.101E-01    0.350E-02
RMM:   2    -0.231630448464E+04   -0.43625E-04   -0.50660E-04  5089   0.168E-02    0.167E-02
RMM:   3    -0.231630448334E+04    0.12985E-05   -0.41671E-05  2819   0.801E-03
 136 F= -.23364285E+04 E0= -.23364285E+04  d E =-.673420E-04  mag=     3.0000
       N       E                     dE             d eps       ncg     rms          rms(c)
DAV:   1    -0.231630447007E+04    0.14576E-04   -0.14392E-03  5248   0.387E-02    0.152E-02
RMM:   2    -0.231630447553E+04   -0.54629E-05   -0.72137E-05  3115   0.694E-03
 137 F= -.23364285E+04 E0= -.23364285E+04  d E =-.680405E-04  mag=     3.0000
       N       E                     dE             d eps       ncg     rms          rms(c)
DAV:   1    -0.231630446851E+04    0.15570E-05   -0.83611E-03  4388   0.923E-02    0.324E-02
RMM:   2    -0.231630450718E+04   -0.38671E-04   -0.44371E-04  4893   0.173E-02    0.166E-02
RMM:   3    -0.231630450674E+04    0.43467E-06   -0.39656E-05  2814   0.751E-03
 138 F= -.23364286E+04 E0= -.23364286E+04  d E =-.605481E-04  mag=     3.0000
       N       E                     dE             d eps       ncg     rms          rms(c)
DAV:   1    -0.231630449097E+04    0.16214E-04   -0.11676E-03  5152   0.345E-02    0.139E-02
RMM:   2    -0.231630449523E+04   -0.42614E-05   -0.57944E-05  2986   0.646E-03
 139 F= -.23364286E+04 E0= -.23364286E+04  d E =-.602405E-04  mag=     3.0000
       N       E                     dE             d eps       ncg     rms          rms(c)
DAV:   1    -0.231630451689E+04   -0.25920E-04   -0.89778E-03  4376   0.957E-02    0.354E-02
RMM:   2    -0.231630455675E+04   -0.39861E-04   -0.46160E-04  4928   0.180E-02    0.172E-02
RMM:   3    -0.231630455619E+04    0.55306E-06   -0.44417E-05  2819   0.793E-03
 140 F= -.23364287E+04 E0= -.23364287E+04  d E =-.724085E-04  mag=     3.0000
       N       E                     dE             d eps       ncg     rms          rms(c)
DAV:   1    -0.231630454775E+04    0.89924E-05   -0.16894E-03  5104   0.415E-02    0.172E-02
RMM:   2    -0.231630455387E+04   -0.61206E-05   -0.81312E-05  3200   0.784E-03
 141 F= -.23364287E+04 E0= -.23364287E+04  d E =-.751621E-04  mag=     3.0000
       N       E                     dE             d eps       ncg     rms          rms(c)
DAV:   1    -0.231630458044E+04   -0.32691E-04   -0.84661E-03  4376   0.916E-02    0.346E-02
RMM:   2    -0.231630461892E+04   -0.38471E-04   -0.44777E-04  4891   0.177E-02    0.175E-02
RMM:   3    -0.231630461784E+04    0.10779E-05   -0.37810E-05  2818   0.752E-03
 142 F= -.23364287E+04 E0= -.23364287E+04  d E =-.626438E-04  mag=     3.0000
       N       E                     dE             d eps       ncg     rms          rms(c)
DAV:   1    -0.231630461681E+04    0.21040E-05   -0.41030E-04  5184   0.203E-02    0.983E-03
RMM:   2    -0.231630461812E+04   -0.13084E-05   -0.21734E-05  2573   0.402E-03
 143 F= -.23364287E+04 E0= -.23364287E+04  d E =-.626186E-04  mag=     3.0000
       N       E                     dE             d eps       ncg     rms          rms(c)
DAV:   1    -0.231630461206E+04    0.47498E-05   -0.65827E-03  4388   0.810E-02    0.311E-02
RMM:   2    -0.231630464007E+04   -0.28004E-04   -0.33054E-04  4661   0.151E-02    0.147E-02
RMM:   3    -0.231630463993E+04    0.13442E-06   -0.35230E-05  2804   0.730E-03
 144 F= -.23364288E+04 E0= -.23364288E+04  d E =-.510061E-04  mag=     3.0000
       N       E                     dE             d eps       ncg     rms          rms(c)
DAV:   1    -0.231630463442E+04    0.56434E-05   -0.15529E-04  5072   0.126E-02    0.720E-03
RMM:   2    -0.231630463495E+04   -0.52678E-06   -0.95230E-06  2362   0.267E-03
 145 F= -.23364288E+04 E0= -.23364288E+04  d E =-.507771E-04  mag=     3.0000
       N       E                     dE             d eps       ncg     rms          rms(c)
DAV:   1    -0.231630462687E+04    0.75544E-05   -0.69768E-03  4388   0.838E-02    0.321E-02
RMM:   2    -0.231630465759E+04   -0.30724E-04   -0.36240E-04  4779   0.146E-02    0.149E-02
RMM:   3    -0.231630465694E+04    0.65265E-06   -0.32429E-05  2814   0.783E-03
 146 F= -.23364288E+04 E0= -.23364288E+04  d E =-.534834E-04  mag=     3.0000
       N       E                     dE             d eps       ncg     rms          rms(c)
DAV:   1    -0.231630464583E+04    0.11763E-04   -0.50939E-04  5264   0.227E-02    0.104E-02
RMM:   2    -0.231630464772E+04   -0.18921E-05   -0.27267E-05  2601   0.441E-03
 147 F= -.23364288E+04 E0= -.23364288E+04  d E =-.531740E-04  mag=     3.0000
       N       E                     dE             d eps       ncg     rms          rms(c)
DAV:   1    -0.231630463993E+04    0.58950E-05   -0.42657E-03  4400   0.636E-02    0.236E-02
RMM:   2    -0.231630466279E+04   -0.22851E-04   -0.25357E-04  4293   0.124E-02    0.127E-02
RMM:   3    -0.231630466363E+04   -0.84528E-06   -0.27058E-05  2759   0.604E-03
 148 F= -.23364289E+04 E0= -.23364289E+04  d E =-.381183E-04  mag=     3.0000
       N       E                     dE             d eps       ncg     rms          rms(c)
DAV:   1    -0.231630465633E+04    0.64550E-05   -0.40992E-04  4968   0.197E-02    0.901E-03
RMM:   2    -0.231630465838E+04   -0.20459E-05   -0.24791E-05  2479   0.397E-03
 149 F= -.23364289E+04 E0= -.23364289E+04  d E =-.399137E-04  mag=     3.0000
       N       E                     dE             d eps       ncg     rms          rms(c)
DAV:   1    -0.231630468114E+04   -0.24811E-04   -0.37197E-03  4400   0.621E-02    0.251E-02
RMM:   2    -0.231630469795E+04   -0.16812E-04   -0.20048E-04  4115   0.122E-02    0.118E-02
RMM:   3    -0.231630469778E+04    0.17321E-06   -0.21135E-05  2784   0.655E-03
 150 F= -.23364289E+04 E0= -.23364289E+04  d E =-.573932E-04  mag=     3.0000
