       N       E                     dE             d eps       ncg     rms          rms(c)
DAV:   1     0.119839140189E+05    0.11984E+05   -0.83736E+05  4800   0.132E+03
DAV:   2    -0.140445335103E+04   -0.13388E+05   -0.12864E+05  5400   0.304E+02
DAV:   3    -0.251007665604E+04   -0.11056E+04   -0.10975E+04  5700   0.935E+01
DAV:   4    -0.253109146324E+04   -0.21015E+02   -0.20919E+02  6300   0.149E+01
DAV:   5    -0.253157077134E+04   -0.47931E+00   -0.47867E+00  6450   0.213E+00    0.171E+02
RMM:   6    -0.149949693236E+04    0.10321E+04   -0.17936E+03  4827   0.345E+01    0.723E+01
RMM:   7    -0.166648405703E+04   -0.16699E+03   -0.25509E+02  5385   0.127E+01    0.565E+01
RMM:   8    -0.170369853460E+04   -0.37214E+02   -0.79496E+01  5435   0.763E+00    0.423E+01
RMM:   9    -0.179217343595E+04   -0.88475E+02   -0.52323E+01  5404   0.669E+00    0.302E+01
RMM:  10    -0.194293991886E+04   -0.15077E+03   -0.61798E+01  5726   0.669E+00    0.306E+01
RMM:  11    -0.199473591323E+04   -0.51796E+02   -0.22129E+01  5803   0.368E+00    0.192E+01
RMM:  12    -0.209974044050E+04   -0.10500E+03   -0.45733E+01  4962   0.482E+00    0.163E+01
RMM:  13    -0.216432718281E+04   -0.64587E+02   -0.28694E+01  5213   0.381E+00    0.116E+01
RMM:  14    -0.229095610122E+04   -0.12663E+03   -0.12175E+02  4808   0.705E+00    0.943E+00
RMM:  15    -0.231403243570E+04   -0.23076E+02   -0.21238E+01  4838   0.384E+00    0.730E+00
RMM:  16    -0.232323953621E+04   -0.92071E+01   -0.91712E+00  4936   0.183E+00    0.459E+00
RMM:  17    -0.232819858227E+04   -0.49590E+01   -0.32618E+00  4942   0.141E+00    0.233E+00
RMM:  18    -0.232956618275E+04   -0.13676E+01   -0.90208E-01  5229   0.718E-01    0.102E+00
RMM:  19    -0.233000642428E+04   -0.44024E+00   -0.27872E-01  5082   0.309E-01    0.485E-01
RMM:  20    -0.233008204768E+04   -0.75623E-01   -0.58285E-02  5021   0.184E-01    0.283E-01
RMM:  21    -0.233011679442E+04   -0.34747E-01   -0.19905E-02  4887   0.990E-02    0.181E-01
RMM:  22    -0.233013352305E+04   -0.16729E-01   -0.60559E-03  4897   0.704E-02    0.150E-01
RMM:  23    -0.233014533080E+04   -0.11808E-01   -0.33757E-03  4841   0.424E-02    0.767E-02
RMM:  24    -0.233015760825E+04   -0.12277E-01   -0.34868E-03  4807   0.423E-02    0.783E-02
RMM:  25    -0.233016320507E+04   -0.55968E-02   -0.17395E-03  4996   0.313E-02    0.287E-02
RMM:  26    -0.233016597006E+04   -0.27650E-02   -0.87049E-04  4562   0.202E-02    0.167E-02
RMM:  27    -0.233016692338E+04   -0.95332E-03   -0.28491E-04  4386   0.143E-02    0.104E-02
RMM:  28    -0.233016733217E+04   -0.40879E-03   -0.13072E-04  4059   0.866E-03    0.695E-03
RMM:  29    -0.233016747548E+04   -0.14331E-03   -0.43102E-05  3869   0.670E-03    0.458E-03
RMM:  30    -0.233016754798E+04   -0.72497E-04   -0.23624E-05  3581   0.408E-03    0.263E-03
RMM:  31    -0.233016757427E+04   -0.26295E-04   -0.10528E-05  3265   0.352E-03    0.236E-03
RMM:  32    -0.233016757911E+04   -0.48348E-05   -0.41950E-06  2952   0.223E-03
   1 F= -.23512536E+04 E0= -.23512536E+04  d E =-.449648E-07  mag=     5.9999
       N       E                     dE             d eps       ncg     rms          rms(c)
DAV:   1    -0.233015980084E+04    0.77734E-02   -0.20198E+00  4800   0.658E-01    0.304E-01
RMM:   2    -0.233015877686E+04    0.10240E-02   -0.77738E-03  4743   0.352E-02    0.208E-01
RMM:   3    -0.233015929608E+04   -0.51923E-03   -0.22177E-03  5366   0.217E-02    0.349E-01
RMM:   4    -0.233015815396E+04    0.11421E-02   -0.10377E-03  4881   0.135E-02    0.622E-02
RMM:   5    -0.233015820869E+04   -0.54726E-04   -0.30600E-04  4110   0.769E-03    0.882E-02
RMM:   6    -0.233015813712E+04    0.71565E-04   -0.75816E-05  3210   0.445E-03    0.177E-02
RMM:   7    -0.233015813434E+04    0.27824E-05   -0.17518E-05  3067   0.239E-03
   2 F= -.23512436E+04 E0= -.23512436E+04  d E =-.557909E-08  mag=     6.0000
       N       E                     dE             d eps       ncg     rms          rms(c)
DAV:   1    -0.233016155870E+04   -0.34216E-02   -0.80919E+00  4800   0.133E+00    0.636E-01
RMM:   2    -0.233015636023E+04    0.51985E-02   -0.28980E-02  5014   0.663E-02    0.458E-01
RMM:   3    -0.233015865788E+04   -0.22976E-02   -0.94671E-03  5793   0.445E-02    0.746E-01
RMM:   4    -0.233015345541E+04    0.52025E-02   -0.43279E-03  5454   0.273E-02    0.135E-01
RMM:   5    -0.233015373899E+04   -0.28358E-03   -0.13938E-03  5023   0.156E-02    0.203E-01
RMM:   6    -0.233015336023E+04    0.37876E-03   -0.39294E-04  3850   0.832E-03    0.338E-02
RMM:   7    -0.233015335281E+04    0.74204E-05   -0.75907E-05  3367   0.418E-03
   3 F= -.23512398E+04 E0= -.23512398E+04  d E =-.283194E-06  mag=     6.0000
       N       E                     dE             d eps       ncg     rms          rms(c)
DAV:   1    -0.233013546414E+04    0.17896E-01   -0.41620E+00  4800   0.990E-01    0.447E-01
RMM:   2    -0.233013264400E+04    0.28201E-02   -0.11331E-02  4597   0.487E-02    0.283E-01
RMM:   3    -0.233013417854E+04   -0.15345E-02   -0.50721E-03  5745   0.296E-02    0.534E-01
RMM:   4    -0.233013146095E+04    0.27176E-02   -0.25381E-03  5371   0.206E-02    0.807E-02
RMM:   5    -0.233013153837E+04   -0.77419E-04   -0.52853E-04  4323   0.936E-03    0.112E-01
RMM:   6    -0.233013142260E+04    0.11577E-03   -0.12190E-04  3280   0.508E-03    0.225E-02
RMM:   7    -0.233013141486E+04    0.77403E-05   -0.32985E-05  3219   0.290E-03
   4 F= -.23512173E+04 E0= -.23512173E+04  d E =-.331398E-07  mag=     6.0000
       N       E                     dE             d eps       ncg     rms          rms(c)
DAV:   1    -0.233016928163E+04   -0.37859E-01   -0.85122E+00  4800   0.146E+00    0.626E-01
RMM:   2    -0.233016369195E+04    0.55897E-02   -0.18383E-02  4430   0.614E-02    0.338E-01
RMM:   3    -0.233016215780E+04    0.15341E-02   -0.94928E-03  5424   0.402E-02    0.187E-01
RMM:   4    -0.233016211630E+04    0.41499E-04   -0.14915E-03  4992   0.207E-02    0.160E-01
RMM:   5    -0.233016190683E+04    0.20948E-03   -0.21036E-04  3793   0.712E-03    0.494E-02
RMM:   6    -0.233016188577E+04    0.21057E-04   -0.52244E-05  3182   0.405E-03    0.378E-02
RMM:   7    -0.233016186347E+04    0.22297E-04   -0.58159E-05  3514   0.348E-03    0.105E-02
RMM:   8    -0.233016186351E+04   -0.36947E-07   -0.82139E-06  3011   0.299E-03
   5 F= -.23512480E+04 E0= -.23512480E+04  d E =-.644325E-07  mag=     6.0000
       N       E                     dE             d eps       ncg     rms          rms(c)
DAV:   1    -0.233015898596E+04    0.28775E-02   -0.42298E+00  4800   0.101E+00    0.420E-01
RMM:   2    -0.233015670825E+04    0.22777E-02   -0.85726E-03  4301   0.414E-02    0.221E-01
RMM:   3    -0.233015592606E+04    0.78219E-03   -0.35177E-03  5128   0.284E-02    0.745E-02
RMM:   4    -0.233015603088E+04   -0.10482E-03   -0.51840E-04  4647   0.114E-02    0.105E-01
RMM:   5    -0.233015593341E+04    0.97470E-04   -0.13364E-04  3463   0.549E-03    0.386E-02
RMM:   6    -0.233015592051E+04    0.12900E-04   -0.32984E-05  3344   0.352E-03    0.254E-02
RMM:   7    -0.233015591636E+04    0.41453E-05   -0.12001E-05  2926   0.235E-03
   6 F= -.23512418E+04 E0= -.23512418E+04  d E =-.871580E-07  mag=     6.0000
       N       E                     dE             d eps       ncg     rms          rms(c)
DAV:   1    -0.233015654952E+04   -0.62901E-03   -0.84415E+00  4800   0.141E+00    0.597E-01
RMM:   2    -0.233015273271E+04    0.38168E-02   -0.22907E-02  4452   0.700E-02    0.310E-01
RMM:   3    -0.233015258911E+04    0.14361E-03   -0.69186E-03  5610   0.417E-02    0.407E-01
RMM:   4    -0.233015116507E+04    0.14240E-02   -0.18571E-03  5165   0.191E-02    0.116E-01
RMM:   5    -0.233015112504E+04    0.40025E-04   -0.33618E-04  4320   0.934E-03    0.606E-02
RMM:   6    -0.233015112291E+04    0.21315E-05   -0.93860E-05  3345   0.621E-03
   7 F= -.23512372E+04 E0= -.23512372E+04  d E =-.260264E-07  mag=     6.0000
       N       E                     dE             d eps       ncg     rms          rms(c)
DAV:   1    -0.233018143879E+04   -0.30314E-01   -0.41239E+00  4800   0.102E+00    0.484E-01
RMM:   2    -0.233017961310E+04    0.18257E-02   -0.13052E-02  4509   0.548E-02    0.359E-01
RMM:   3    -0.233018101159E+04   -0.13985E-02   -0.60762E-03  5811   0.318E-02    0.556E-01
RMM:   4    -0.233017810285E+04    0.29087E-02   -0.23236E-03  5016   0.217E-02    0.112E-01
RMM:   5    -0.233017828007E+04   -0.17722E-03   -0.84422E-04  4859   0.121E-02    0.176E-01
RMM:   6    -0.233017801785E+04    0.26222E-03   -0.23141E-04  3712   0.698E-03    0.361E-02
RMM:   7    -0.233017801289E+04    0.49579E-05   -0.53524E-05  3324   0.376E-03
   8 F= -.23512644E+04 E0= -.23512644E+04  d E =-.699657E-07  mag=     6.0000
       N       E                     dE             d eps       ncg     rms          rms(c)
DAV:   1    -0.233015277879E+04    0.25239E-01   -0.80376E+00  4800   0.135E+00    0.634E-01
RMM:   2    -0.233014924169E+04    0.35371E-02   -0.23950E-02  4628   0.702E-02    0.546E-01
RMM:   3    -0.233014972135E+04   -0.47966E-03   -0.93853E-03  5969   0.407E-02    0.645E-01
RMM:   4    -0.233014569267E+04    0.40287E-02   -0.38364E-03  5130   0.279E-02    0.137E-01
RMM:   5    -0.233014599649E+04   -0.30382E-03   -0.13636E-03  5045   0.166E-02    0.218E-01
RMM:   6    -0.233014559121E+04    0.40527E-03   -0.34294E-04  3780   0.818E-03    0.467E-02
RMM:   7    -0.233014558339E+04    0.78248E-05   -0.89700E-05  3456   0.451E-03
   9 F= -.23512312E+04 E0= -.23512312E+04  d E =-.243479E-07  mag=     6.0000
       N       E                     dE             d eps       ncg     rms          rms(c)
DAV:   1    -0.233014690635E+04   -0.13151E-02   -0.41351E+00  4800   0.991E-01    0.435E-01
RMM:   2    -0.233014518163E+04    0.17247E-02   -0.12438E-02  4344   0.514E-02    0.320E-01
RMM:   3    -0.233014623659E+04   -0.10550E-02   -0.47188E-03  5730   0.279E-02    0.494E-01
RMM:   4    -0.233014390762E+04    0.23290E-02   -0.22532E-03  5072   0.203E-02    0.948E-02
RMM:   5    -0.233014399722E+04   -0.89601E-04   -0.58046E-04  4494   0.112E-02    0.133E-01
RMM:   6    -0.233014384581E+04    0.15141E-03   -0.13014E-04  3411   0.537E-03    0.258E-02
RMM:   7    -0.233014384237E+04    0.34335E-05   -0.35392E-05  3233   0.294E-03
  10 F= -.23512299E+04 E0= -.23512299E+04  d E =-.588842E-07  mag=     6.0000
       N       E                     dE             d eps       ncg     rms          rms(c)
DAV:   1    -0.233015685743E+04   -0.13012E-01   -0.85917E+00  4800   0.148E+00    0.646E-01
RMM:   2    -0.233015035354E+04    0.65039E-02   -0.21605E-02  4343   0.641E-02    0.347E-01
RMM:   3    -0.233014857883E+04    0.17747E-02   -0.11281E-02  5185   0.427E-02    0.212E-01
RMM:   4    -0.233014833836E+04    0.24047E-03   -0.17586E-03  4985   0.240E-02    0.130E-01
RMM:   5    -0.233014816792E+04    0.17044E-03   -0.18658E-04  3813   0.677E-03    0.304E-02
RMM:   6    -0.233014814705E+04    0.20865E-04   -0.80673E-05  3537   0.415E-03    0.225E-02
RMM:   7    -0.233014815003E+04   -0.29768E-05   -0.24829E-05  3059   0.370E-03
  11 F= -.23512340E+04 E0= -.23512340E+04  d E =-.330948E-07  mag=     6.0000
       N       E                     dE             d eps       ncg     rms          rms(c)
DAV:   1    -0.233015042393E+04   -0.22769E-02   -0.43254E+00  4800   0.107E+00    0.467E-01
RMM:   2    -0.233014734787E+04    0.30761E-02   -0.12686E-02  4345   0.497E-02    0.341E-01
RMM:   3    -0.233014840985E+04   -0.10620E-02   -0.55536E-03  5428   0.352E-02    0.520E-01
RMM:   4    -0.233014581249E+04    0.25974E-02   -0.39503E-03  5163   0.239E-02    0.125E-01
RMM:   5    -0.233014566621E+04    0.14628E-03   -0.49746E-04  3913   0.128E-02    0.733E-02
RMM:   6    -0.233014562194E+04    0.44270E-04   -0.61221E-05  3250   0.418E-03    0.199E-02
RMM:   7    -0.233014561416E+04    0.77772E-05   -0.47013E-05  3478   0.315E-03
  12 F= -.23512322E+04 E0= -.23512322E+04  d E =-.349120E-06  mag=     6.0000
       N       E                     dE             d eps       ncg     rms          rms(c)
DAV:   1    -0.233016379019E+04   -0.18168E-01   -0.85482E+00  4800   0.148E+00    0.628E-01
RMM:   2    -0.233015930871E+04    0.44815E-02   -0.28425E-02  4501   0.791E-02    0.534E-01
RMM:   3    -0.233015950032E+04   -0.19161E-03   -0.92682E-03  5691   0.446E-02    0.612E-01
RMM:   4    -0.233015580939E+04    0.36909E-02   -0.63911E-03  5117   0.308E-02    0.197E-01
RMM:   5    -0.233015548143E+04    0.32796E-03   -0.10378E-03  4265   0.205E-02    0.122E-01
RMM:   6    -0.233015537598E+04    0.10545E-03   -0.14413E-04  3801   0.625E-03    0.279E-02
RMM:   7    -0.233015536186E+04    0.14120E-04   -0.77261E-05  3721   0.465E-03    0.125E-02
RMM:   8    -0.233015536224E+04   -0.37452E-06   -0.84815E-06  3163   0.282E-03
  13 F= -.23512408E+04 E0= -.23512408E+04  d E =-.478521E-08  mag=     6.0000
       N       E                     dE             d eps       ncg     rms          rms(c)
DAV:   1    -0.233015260975E+04    0.27521E-02   -0.24809E+00  4800   0.809E-01    0.438E-01
RMM:   2    -0.233014964364E+04    0.29661E-02   -0.13456E-02  4497   0.494E-02    0.225E-01
RMM:   3    -0.233014918654E+04    0.45710E-03   -0.23927E-03  5083   0.281E-02    0.214E-01
RMM:   4    -0.233014913028E+04    0.56266E-04   -0.12717E-03  5338   0.140E-02    0.204E-01
RMM:   5    -0.233014877667E+04    0.35361E-03   -0.34389E-04  4184   0.909E-03    0.635E-02
RMM:   6    -0.233014874445E+04    0.32215E-04   -0.79118E-05  3219   0.443E-03    0.289E-02
RMM:   7    -0.233014873560E+04    0.88567E-05   -0.15343E-05  3058   0.241E-03
  14 F= -.23512351E+04 E0= -.23512351E+04  d E =-.585000E-07  mag=     6.0000
       N       E                     dE             d eps       ncg     rms          rms(c)
DAV:   1    -0.233017442658E+04   -0.25682E-01   -0.12555E+00  5250   0.447E-01    0.604E-01
RMM:   2    -0.233016974493E+04    0.46816E-02   -0.20036E-02  4878   0.542E-02    0.410E-01
RMM:   3    -0.233017207203E+04   -0.23271E-02   -0.81937E-03  5323   0.440E-02    0.671E-01
RMM:   4    -0.233016791335E+04    0.41587E-02   -0.29843E-03  5194   0.237E-02    0.150E-01
RMM:   5    -0.233016811959E+04   -0.20624E-03   -0.10982E-03  4764   0.121E-02    0.203E-01
RMM:   6    -0.233016773854E+04    0.38106E-03   -0.38846E-04  4286   0.855E-03    0.337E-02
RMM:   7    -0.233016773087E+04    0.76618E-05   -0.34059E-05  3223   0.314E-03
  15 F= -.23512534E+04 E0= -.23512534E+04  d E =-.330060E-07  mag=     6.0000
       N       E                     dE             d eps       ncg     rms          rms(c)
DAV:   1    -0.233017276782E+04   -0.50293E-02   -0.60840E-01  5100   0.324E-01    0.324E-01
RMM:   2    -0.233017181457E+04    0.95325E-03   -0.52405E-03  4640   0.282E-02    0.231E-01
RMM:   3    -0.233017238407E+04   -0.56950E-03   -0.22018E-03  5119   0.199E-02    0.350E-01
RMM:   4    -0.233017130465E+04    0.10794E-02   -0.85686E-04  4548   0.127E-02    0.915E-02
RMM:   5    -0.233017136476E+04   -0.60110E-04   -0.34650E-04  3782   0.719E-03    0.113E-01
RMM:   6    -0.233017124687E+04    0.11789E-03   -0.10743E-04  3379   0.549E-03    0.149E-02
RMM:   7    -0.233017124628E+04    0.59618E-06   -0.10146E-05  3036   0.226E-03
  16 F= -.23512572E+04 E0= -.23512572E+04  d E =-.442165E-07  mag=     6.0000
       N       E                     dE             d eps       ncg     rms          rms(c)
DAV:   1    -0.233016196947E+04    0.92774E-02   -0.11978E+00  4800   0.429E-01    0.294E-01
RMM:   2    -0.233016184713E+04    0.12233E-03   -0.20215E-03  4251   0.203E-02    0.177E-01
RMM:   3    -0.233016231383E+04   -0.46669E-03   -0.12263E-03  5065   0.145E-02    0.240E-01
RMM:   4    -0.233016179154E+04    0.52229E-03   -0.57520E-04  4298   0.103E-02    0.505E-02
RMM:   5    -0.233016179804E+04   -0.65098E-05   -0.84982E-05  3242   0.423E-03
  17 F= -.23512478E+04 E0= -.23512478E+04  d E =-.535251E-07  mag=     6.0000
       N       E                     dE             d eps       ncg     rms          rms(c)
DAV:   1    -0.233015462088E+04    0.71707E-02   -0.61061E-01  4800   0.312E-01    0.269E-01
RMM:   2    -0.233015439218E+04    0.22870E-03   -0.35603E-03  5101   0.234E-02    0.260E-01
RMM:   3    -0.233015422972E+04    0.16246E-03   -0.15522E-03  4379   0.190E-02    0.221E-01
RMM:   4    -0.233015387419E+04    0.35553E-03   -0.52421E-04  4573   0.960E-03    0.114E-01
RMM:   5    -0.233015382495E+04    0.49234E-04   -0.26886E-04  3694   0.721E-03    0.866E-02
RMM:   6    -0.233015376673E+04    0.58225E-04   -0.47383E-05  3259   0.421E-03    0.129E-02
RMM:   7    -0.233015376535E+04    0.13739E-05   -0.78800E-06  3005   0.209E-03
  18 F= -.23512402E+04 E0= -.23512402E+04  d E =-.313804E-07  mag=     6.0000
       N       E                     dE             d eps       ncg     rms          rms(c)
DAV:   1    -0.233017706928E+04   -0.23303E-01   -0.12351E+00  4800   0.431E-01    0.438E-01
RMM:   2    -0.233017592920E+04    0.11401E-02   -0.94540E-03  5414   0.379E-02    0.419E-01
RMM:   3    -0.233017550918E+04    0.42002E-03   -0.42507E-03  4730   0.314E-02    0.361E-01
RMM:   4    -0.233017444653E+04    0.10626E-02   -0.12886E-03  5234   0.149E-02    0.180E-01
RMM:   5    -0.233017434289E+04    0.10365E-03   -0.69653E-04  4506   0.112E-02    0.148E-01
RMM:   6    -0.233017415797E+04    0.18492E-03   -0.13737E-04  3725   0.622E-03    0.238E-02
RMM:   7    -0.233017415317E+04    0.48010E-05   -0.21711E-05  3197   0.306E-03
  19 F= -.23512597E+04 E0= -.23512597E+04  d E =-.624589E-07  mag=     6.0000
       N       E                     dE             d eps       ncg     rms          rms(c)
DAV:   1    -0.233016944423E+04    0.47137E-02   -0.61721E-01  4800   0.368E-01    0.285E-01
RMM:   2    -0.233016874951E+04    0.69472E-03   -0.42013E-03  4886   0.264E-02    0.203E-01
RMM:   3    -0.233016896370E+04   -0.21419E-03   -0.16695E-03  4596   0.192E-02    0.250E-01
RMM:   4    -0.233016839967E+04    0.56403E-03   -0.60893E-04  4519   0.100E-02    0.733E-02
RMM:   5    -0.233016849422E+04   -0.94548E-04   -0.24352E-04  3744   0.745E-03    0.113E-01
RMM:   6    -0.233016837977E+04    0.11445E-03   -0.85972E-05  3312   0.484E-03    0.182E-02
RMM:   7    -0.233016837774E+04    0.20249E-05   -0.93476E-06  2996   0.225E-03
  20 F= -.23512539E+04 E0= -.23512539E+04  d E =-.569514E-07  mag=     6.0000
       N       E                     dE             d eps       ncg     rms          rms(c)
DAV:   1    -0.233016339371E+04    0.49861E-02   -0.12223E+00  4800   0.507E-01    0.366E-01
RMM:   2    -0.233016293884E+04    0.45487E-03   -0.30868E-03  4209   0.254E-02    0.229E-01
RMM:   3    -0.233016478533E+04   -0.18465E-02   -0.28788E-03  5434   0.201E-02    0.464E-01
RMM:   4    -0.233016276097E+04    0.20244E-02   -0.12227E-03  5065   0.151E-02    0.364E-02
RMM:   5    -0.233016277471E+04   -0.13738E-04   -0.14984E-04  3434   0.498E-03    0.465E-02
RMM:   6    -0.233016275453E+04    0.20185E-04   -0.31009E-05  2994   0.306E-03    0.127E-02
RMM:   7    -0.233016275325E+04    0.12803E-05   -0.61753E-06  2884   0.156E-03
  21 F= -.23512492E+04 E0= -.23512492E+04  d E =-.357138E-07  mag=     6.0000
       N       E                     dE             d eps       ncg     rms          rms(c)
DAV:   1    -0.233016768930E+04   -0.49348E-02   -0.62678E-01  5100   0.372E-01    0.354E-01
RMM:   2    -0.233016617176E+04    0.15175E-02   -0.59899E-03  4576   0.297E-02    0.214E-01
RMM:   3    -0.233016717097E+04   -0.99921E-03   -0.23487E-03  5130   0.216E-02    0.392E-01
RMM:   4    -0.233016574023E+04    0.14307E-02   -0.96320E-04  4773   0.133E-02    0.733E-02
RMM:   5    -0.233016572303E+04    0.17194E-04   -0.15534E-04  3739   0.580E-03    0.219E-02
RMM:   6    -0.233016572369E+04   -0.65242E-06   -0.16583E-05  3056   0.342E-03
  22 F= -.23512520E+04 E0= -.23512520E+04  d E =-.482238E-07  mag=     6.0000
       N       E                     dE             d eps       ncg     rms          rms(c)
DAV:   1    -0.233015651418E+04    0.92089E-02   -0.12861E+00  5100   0.533E-01    0.563E-01
RMM:   2    -0.233015194672E+04    0.45675E-02   -0.15472E-02  4772   0.468E-02    0.321E-01
RMM:   3    -0.233015365235E+04   -0.17056E-02   -0.50258E-03  5070   0.354E-02    0.544E-01
RMM:   4    -0.233015095950E+04    0.26928E-02   -0.21986E-03  5260   0.201E-02    0.138E-01
RMM:   5    -0.233015096502E+04   -0.55169E-05   -0.52616E-04  4202   0.960E-03    0.120E-01
RMM:   6    -0.233015086167E+04    0.10335E-03   -0.22093E-04  3609   0.700E-03    0.487E-02
RMM:   7    -0.233015083956E+04    0.22109E-04   -0.20288E-05  3095   0.327E-03    0.963E-03
RMM:   8    -0.233015083881E+04    0.75270E-06   -0.69731E-06  2942   0.184E-03
  23 F= -.23512365E+04 E0= -.23512365E+04  d E =-.397227E-07  mag=     6.0000
       N       E                     dE             d eps       ncg     rms          rms(c)
DAV:   1    -0.233015484398E+04   -0.40044E-02   -0.62069E-01  4800   0.363E-01    0.260E-01
RMM:   2    -0.233015469711E+04    0.14686E-03   -0.14758E-03  3975   0.177E-02    0.153E-01
RMM:   3    -0.233015481301E+04   -0.11590E-03   -0.70269E-04  4622   0.108E-02    0.133E-01
RMM:   4    -0.233015466888E+04    0.14413E-03   -0.24484E-04  3527   0.799E-03    0.454E-02
RMM:   5    -0.233015466215E+04    0.67252E-05   -0.31226E-05  3009   0.331E-03
  24 F= -.23512403E+04 E0= -.23512403E+04  d E =-.614072E-07  mag=     6.0000
       N       E                     dE             d eps       ncg     rms          rms(c)
DAV:   1    -0.233017103533E+04   -0.16366E-01   -0.12555E+00  5100   0.525E-01    0.513E-01
RMM:   2    -0.233016788397E+04    0.31514E-02   -0.12945E-02  4591   0.409E-02    0.286E-01
RMM:   3    -0.233016909508E+04   -0.12111E-02   -0.35506E-03  5277   0.291E-02    0.474E-01
RMM:   4    -0.233016706751E+04    0.20276E-02   -0.18094E-03  5232   0.174E-02    0.118E-01
RMM:   5    -0.233016698941E+04    0.78106E-04   -0.26093E-04  3917   0.748E-03    0.307E-02
RMM:   6    -0.233016699145E+04   -0.20411E-05   -0.35280E-05  3213   0.448E-03
  25 F= -.23512533E+04 E0= -.23512533E+04  d E =-.329163E-07  mag=     6.0000
       N       E                     dE             d eps       ncg     rms          rms(c)
DAV:   1    -0.233017055494E+04   -0.35655E-02   -0.61901E-01  4800   0.380E-01    0.298E-01
RMM:   2    -0.233016987505E+04    0.67989E-03   -0.29125E-03  4242   0.236E-02    0.173E-01
RMM:   3    -0.233017023538E+04   -0.36033E-03   -0.12695E-03  4935   0.150E-02    0.251E-01
RMM:   4    -0.233016968334E+04    0.55204E-03   -0.64400E-04  4403   0.111E-02    0.654E-02
RMM:   5    -0.233016969667E+04   -0.13326E-04   -0.13796E-04  3310   0.513E-03    0.697E-02
RMM:   6    -0.233016965132E+04    0.45344E-04   -0.46268E-05  2977   0.382E-03    0.162E-02
RMM:   7    -0.233016964883E+04    0.24931E-05   -0.58431E-06  2870   0.170E-03
  26 F= -.23512553E+04 E0= -.23512553E+04  d E =-.507466E-07  mag=     6.0000
       N       E                     dE             d eps       ncg     rms          rms(c)
DAV:   1    -0.233016127212E+04    0.83792E-02   -0.12089E+00  4800   0.464E-01    0.354E-01
RMM:   2    -0.233016080207E+04    0.47004E-03   -0.32426E-03  4204   0.244E-02    0.213E-01
RMM:   3    -0.233016211387E+04   -0.13118E-02   -0.22584E-03  5253   0.188E-02    0.394E-01
RMM:   4    -0.233016064283E+04    0.14710E-02   -0.94656E-04  4876   0.134E-02    0.394E-02
RMM:   5    -0.233016066706E+04   -0.24236E-04   -0.13375E-04  3435   0.488E-03    0.521E-02
RMM:   6    -0.233016064166E+04    0.25402E-04   -0.35002E-05  2989   0.331E-03    0.131E-02
RMM:   7    -0.233016064007E+04    0.15916E-05   -0.59712E-06  2826   0.153E-03
  27 F= -.23512469E+04 E0= -.23512469E+04  d E =-.397406E-07  mag=     6.0000
       N       E                     dE             d eps       ncg     rms          rms(c)
DAV:   1    -0.233016334490E+04   -0.27032E-02   -0.62011E-01  5100   0.341E-01    0.325E-01
RMM:   2    -0.233016220418E+04    0.11407E-02   -0.40077E-03  4508   0.248E-02    0.183E-01
RMM:   3    -0.233016259861E+04   -0.39443E-03   -0.12694E-03  4545   0.178E-02    0.266E-01
RMM:   4    -0.233016201365E+04    0.58496E-03   -0.71058E-04  4469   0.114E-02    0.904E-02
RMM:   5    -0.233016199744E+04    0.16204E-04   -0.15366E-04  3558   0.575E-03    0.647E-02
RMM:   6    -0.233016196563E+04    0.31815E-04   -0.60608E-05  3032   0.424E-03    0.254E-02
RMM:   7    -0.233016195978E+04    0.58545E-05   -0.63913E-06  2850   0.201E-03
  28 F= -.23512475E+04 E0= -.23512475E+04  d E =-.436493E-07  mag=     6.0000
       N       E                     dE             d eps       ncg     rms          rms(c)
DAV:   1    -0.233015845721E+04    0.35084E-02   -0.12559E+00  5100   0.493E-01    0.607E-01
RMM:   2    -0.233015262934E+04    0.58279E-02   -0.19453E-02  4796   0.516E-02    0.346E-01
RMM:   3    -0.233015483701E+04   -0.22077E-02   -0.61620E-03  5138   0.393E-02    0.612E-01
RMM:   4    -0.233015135777E+04    0.34792E-02   -0.25760E-03  5331   0.218E-02    0.137E-01
RMM:   5    -0.233015128472E+04    0.73051E-04   -0.50009E-04  4122   0.952E-03    0.857E-02
RMM:   6    -0.233015126921E+04    0.15506E-04   -0.19802E-04  3470   0.690E-03    0.649E-02
RMM:   7    -0.233015122741E+04    0.41800E-04   -0.34881E-05  3137   0.361E-03    0.118E-02
RMM:   8    -0.233015122591E+04    0.15008E-05   -0.71121E-06  2952   0.189E-03
  29 F= -.23512376E+04 E0= -.23512376E+04  d E =-.464021E-07  mag=     6.0000
       N       E                     dE             d eps       ncg     rms          rms(c)
DAV:   1    -0.233017104871E+04   -0.19821E-01   -0.63178E-01  5100   0.349E-01    0.434E-01
RMM:   2    -0.233016815241E+04    0.28963E-02   -0.97063E-03  4723   0.371E-02    0.253E-01
RMM:   3    -0.233016944239E+04   -0.12900E-02   -0.33556E-03  4999   0.288E-02    0.459E-01
RMM:   4    -0.233016746336E+04    0.19790E-02   -0.13832E-03  5071   0.161E-02    0.924E-02
RMM:   5    -0.233016740785E+04    0.55509E-04   -0.22398E-04  3874   0.681E-03    0.377E-02
RMM:   6    -0.233016741837E+04   -0.10519E-04   -0.62805E-05  3169   0.466E-03    0.432E-02
RMM:   7    -0.233016740091E+04    0.17461E-04   -0.20769E-05  2954   0.262E-03    0.965E-03
RMM:   8    -0.233016740011E+04    0.80172E-06   -0.35656E-06  2752   0.147E-03
  30 F= -.23512532E+04 E0= -.23512532E+04  d E =-.530471E-07  mag=     6.0000
       N       E                     dE             d eps       ncg     rms          rms(c)
DAV:   1    -0.233016243642E+04    0.49645E-02   -0.12187E+00  4800   0.474E-01    0.416E-01
RMM:   2    -0.233016109386E+04    0.13426E-02   -0.68032E-03  4551   0.302E-02    0.246E-01
RMM:   3    -0.233016250086E+04   -0.14070E-02   -0.28267E-03  5304   0.234E-02    0.444E-01
RMM:   4    -0.233016068085E+04    0.18200E-02   -0.13464E-03  5132   0.153E-02    0.789E-02
RMM:   5    -0.233016067300E+04    0.78506E-05   -0.18147E-04  3789   0.612E-03    0.253E-02
RMM:   6    -0.233016067944E+04   -0.64383E-05   -0.35932E-05  3169   0.375E-03
  31 F= -.23512468E+04 E0= -.23512468E+04  d E =-.420413E-07  mag=     6.0000
       N       E                     dE             d eps       ncg     rms          rms(c)
DAV:   1    -0.233016908154E+04   -0.84085E-02   -0.60740E-01  4800   0.368E-01    0.266E-01
RMM:   2    -0.233016874423E+04    0.33731E-03   -0.25478E-03  4173   0.219E-02    0.159E-01
RMM:   3    -0.233016933518E+04   -0.59095E-03   -0.11118E-03  5058   0.135E-02    0.281E-01
RMM:   4    -0.233016860614E+04    0.72904E-03   -0.56881E-04  4448   0.104E-02    0.415E-02
RMM:   5    -0.233016861764E+04   -0.11507E-04   -0.85069E-05  3330   0.429E-03    0.420E-02
RMM:   6    -0.233016860148E+04    0.16166E-04   -0.24787E-05  2850   0.294E-03    0.130E-02
RMM:   7    -0.233016860009E+04    0.13884E-05   -0.38395E-06  2570   0.140E-03
  32 F= -.23512547E+04 E0= -.23512547E+04  d E =-.371360E-07  mag=     6.0000
       N       E                     dE             d eps       ncg     rms          rms(c)
DAV:   1    -0.233016362515E+04    0.49763E-02   -0.12064E+00  4800   0.505E-01    0.343E-01
RMM:   2    -0.233016338251E+04    0.24264E-03   -0.28968E-03  4009   0.239E-02    0.202E-01
RMM:   3    -0.233016353046E+04   -0.14795E-03   -0.11927E-03  4573   0.142E-02    0.159E-01
RMM:   4    -0.233016331104E+04    0.21942E-03   -0.31531E-04  3698   0.101E-02    0.373E-02
RMM:   5    -0.233016330743E+04    0.36082E-05   -0.44594E-05  3092   0.342E-03
  33 F= -.23512492E+04 E0= -.23512492E+04  d E =-.518647E-07  mag=     6.0000
       N       E                     dE             d eps       ncg     rms          rms(c)
DAV:   1    -0.233015555582E+04    0.77552E-02   -0.61219E-01  5250   0.375E-01    0.353E-01
RMM:   2    -0.233015384308E+04    0.17127E-02   -0.56438E-03  4282   0.303E-02    0.193E-01
RMM:   3    -0.233015440682E+04   -0.56374E-03   -0.17481E-03  4987   0.197E-02    0.320E-01
RMM:   4    -0.233015350510E+04    0.90172E-03   -0.82416E-04  4674   0.124E-02    0.768E-02
RMM:   5    -0.233015346829E+04    0.36814E-04   -0.11851E-04  3591   0.529E-03    0.339E-02
RMM:   6    -0.233015346983E+04   -0.15384E-05   -0.39602E-05  2923   0.364E-03
  34 F= -.23512400E+04 E0= -.23512400E+04  d E =-.426178E-07  mag=     6.0000
       N       E                     dE             d eps       ncg     rms          rms(c)
DAV:   1    -0.233016542337E+04   -0.11955E-01   -0.12812E+00  5100   0.547E-01    0.600E-01
RMM:   2    -0.233015944990E+04    0.59735E-02   -0.17876E-02  4608   0.533E-02    0.315E-01
RMM:   3    -0.233016034033E+04   -0.89043E-03   -0.45638E-03  4801   0.363E-02    0.472E-01
RMM:   4    -0.233015852375E+04    0.18166E-02   -0.22330E-03  5290   0.202E-02    0.152E-01
RMM:   5    -0.233015842512E+04    0.98636E-04   -0.42894E-04  4342   0.912E-03    0.105E-01
RMM:   6    -0.233015834806E+04    0.77063E-04   -0.18516E-04  3508   0.638E-03    0.493E-02
RMM:   7    -0.233015832405E+04    0.24009E-04   -0.24177E-05  3060   0.323E-03    0.113E-02
RMM:   8    -0.233015832311E+04    0.94062E-06   -0.82435E-06  2873   0.196E-03
  35 F= -.23512438E+04 E0= -.23512438E+04  d E =-.419336E-07  mag=     6.0000
       N       E                     dE             d eps       ncg     rms          rms(c)
DAV:   1    -0.233017185834E+04   -0.13534E-01   -0.62183E-01  4800   0.368E-01    0.281E-01
RMM:   2    -0.233017130456E+04    0.55379E-03   -0.27877E-03  4244   0.221E-02    0.159E-01
RMM:   3    -0.233017135172E+04   -0.47159E-04   -0.74807E-04  4607   0.132E-02    0.149E-01
RMM:   4    -0.233017123609E+04    0.11563E-03   -0.39471E-04  3961   0.842E-03    0.790E-02
RMM:   5    -0.233017120485E+04    0.31236E-04   -0.75918E-05  3442   0.487E-03    0.430E-02
RMM:   6    -0.233017118921E+04    0.15640E-04   -0.23196E-05  2859   0.302E-03    0.193E-02
RMM:   7    -0.233017118573E+04    0.34801E-05   -0.38730E-06  2575   0.163E-03
  36 F= -.23512573E+04 E0= -.23512573E+04  d E =-.477745E-07  mag=     6.0000
       N       E                     dE             d eps       ncg     rms          rms(c)
DAV:   1    -0.233015773702E+04    0.13452E-01   -0.12236E+00  4950   0.515E-01    0.408E-01
RMM:   2    -0.233015644212E+04    0.12949E-02   -0.65300E-03  4331   0.323E-02    0.235E-01
RMM:   3    -0.233015767128E+04   -0.12292E-02   -0.26072E-03  5244   0.223E-02    0.412E-01
RMM:   4    -0.233015610745E+04    0.15638E-02   -0.11917E-03  5164   0.145E-02    0.700E-02
RMM:   5    -0.233015612136E+04   -0.13916E-04   -0.16479E-04  3745   0.591E-03    0.554E-02
RMM:   6    -0.233015609591E+04    0.25449E-04   -0.57064E-05  3138   0.398E-03    0.233E-02
RMM:   7    -0.233015609223E+04    0.36891E-05   -0.72324E-06  2904   0.191E-03
  37 F= -.23512419E+04 E0= -.23512419E+04  d E =-.425887E-07  mag=     6.0000
       N       E                     dE             d eps       ncg     rms          rms(c)
DAV:   1    -0.233015753035E+04   -0.14344E-02   -0.58516E-01  5400   0.371E-01    0.280E-01
RMM:   2    -0.233015744758E+04    0.82775E-04   -0.36882E-03  4258   0.271E-02    0.209E-01
RMM:   3    -0.233015777434E+04   -0.32676E-03   -0.15143E-03  5373   0.149E-02    0.295E-01
RMM:   4    -0.233015709709E+04    0.67725E-03   -0.74452E-04  4538   0.123E-02    0.101E-01
RMM:   5    -0.233015699926E+04    0.97828E-04   -0.12574E-04  3336   0.586E-03    0.276E-02
RMM:   6    -0.233015699240E+04    0.68622E-05   -0.19497E-05  2968   0.246E-03
  38 F= -.23512429E+04 E0= -.23512429E+04  d E =-.490698E-07  mag=     6.0000
       N       E                     dE             d eps       ncg     rms          rms(c)
DAV:   1    -0.233016765318E+04   -0.10654E-01   -0.11658E+00  5400   0.465E-01    0.458E-01
RMM:   2    -0.233016605538E+04    0.15978E-02   -0.10826E-02  4625   0.428E-02    0.393E-01
RMM:   3    -0.233016633103E+04   -0.27565E-03   -0.45350E-03  5663   0.274E-02    0.457E-01
RMM:   4    -0.233016464584E+04    0.16852E-02   -0.15372E-03  5083   0.173E-02    0.158E-01
RMM:   5    -0.233016457361E+04    0.72229E-04   -0.58586E-04  4235   0.996E-03    0.127E-01
RMM:   6    -0.233016442683E+04    0.14678E-03   -0.14842E-04  3614   0.623E-03    0.182E-02
RMM:   7    -0.233016442579E+04    0.10379E-05   -0.18131E-05  3075   0.278E-03
  39 F= -.23512505E+04 E0= -.23512505E+04  d E =-.426093E-07  mag=     6.0000
       N       E                     dE             d eps       ncg     rms          rms(c)
DAV:   1    -0.233017596630E+04   -0.11539E-01   -0.58839E-01  5100   0.316E-01    0.240E-01
RMM:   2    -0.233017589767E+04    0.68625E-04   -0.27387E-03  4299   0.217E-02    0.202E-01
RMM:   3    -0.233017596430E+04   -0.66631E-04   -0.10952E-03  5204   0.132E-02    0.231E-01
RMM:   4    -0.233017561838E+04    0.34593E-03   -0.49792E-04  4494   0.980E-03    0.983E-02
RMM:   5    -0.233017554788E+04    0.70497E-04   -0.15156E-04  3353   0.589E-03    0.478E-02
RMM:   6    -0.233017553007E+04    0.17805E-04   -0.26039E-05  3034   0.315E-03    0.108E-02
RMM:   7    -0.233017552945E+04    0.62720E-06   -0.37475E-06  2814   0.163E-03
  40 F= -.23512615E+04 E0= -.23512615E+04  d E =-.443772E-07  mag=     6.0000
       N       E                     dE             d eps       ncg     rms          rms(c)
DAV:   1    -0.233015704766E+04    0.18482E-01   -0.11483E+00  4950   0.437E-01    0.290E-01
RMM:   2    -0.233015669338E+04    0.35428E-03   -0.30534E-03  4425   0.231E-02    0.174E-01
RMM:   3    -0.233015742914E+04   -0.73576E-03   -0.13678E-03  5155   0.156E-02    0.306E-01
RMM:   4    -0.233015659097E+04    0.83817E-03   -0.65528E-04  4499   0.108E-02    0.543E-02
RMM:   5    -0.233015661299E+04   -0.22022E-04   -0.10982E-04  3640   0.501E-03    0.496E-02
RMM:   6    -0.233015659058E+04    0.22408E-04   -0.32846E-05  3000   0.332E-03    0.136E-02
RMM:   7    -0.233015658945E+04    0.11279E-05   -0.42562E-06  2805   0.149E-03
  41 F= -.23512426E+04 E0= -.23512426E+04  d E =-.457538E-07  mag=     6.0000
       N       E                     dE             d eps       ncg     rms          rms(c)
DAV:   1    -0.233017370989E+04   -0.17119E-01   -0.57554E-01  4800   0.315E-01    0.221E-01
RMM:   2    -0.233017353822E+04    0.17167E-03   -0.19824E-03  4376   0.180E-02    0.123E-01
RMM:   3    -0.233017368401E+04   -0.14579E-03   -0.52336E-04  4333   0.118E-02    0.157E-01
RMM:   4    -0.233017349851E+04    0.18551E-03   -0.27390E-04  3711   0.735E-03    0.594E-02
RMM:   5    -0.233017350461E+04   -0.61053E-05   -0.64751E-05  3471   0.434E-03
  42 F= -.23512599E+04 E0= -.23512599E+04  d E =-.342788E-07  mag=     6.0000
       N       E                     dE             d eps       ncg     rms          rms(c)
DAV:   1    -0.233015901070E+04    0.14488E-01   -0.11709E+00  4800   0.451E-01    0.476E-01
RMM:   2    -0.233015636938E+04    0.26413E-02   -0.10836E-02  4841   0.379E-02    0.261E-01
RMM:   3    -0.233015770067E+04   -0.13313E-02   -0.38576E-03  5118   0.288E-02    0.473E-01
RMM:   4    -0.233015563927E+04    0.20614E-02   -0.15695E-03  4964   0.174E-02    0.100E-01
RMM:   5    -0.233015571374E+04   -0.74471E-04   -0.40143E-04  4696   0.834E-03    0.129E-01
RMM:   6    -0.233015556271E+04    0.15103E-03   -0.16405E-04  3356   0.625E-03    0.285E-02
RMM:   7    -0.233015556068E+04    0.20334E-05   -0.22120E-05  3123   0.257E-03
  43 F= -.23512411E+04 E0= -.23512411E+04  d E =-.472777E-07  mag=     6.0000
       N       E                     dE             d eps       ncg     rms          rms(c)
DAV:   1    -0.233017496549E+04   -0.19403E-01   -0.60366E-01  4800   0.367E-01    0.321E-01
RMM:   2    -0.233017415351E+04    0.81198E-03   -0.48586E-03  4551   0.271E-02    0.204E-01
RMM:   3    -0.233017494733E+04   -0.79382E-03   -0.20591E-03  4999   0.198E-02    0.350E-01
RMM:   4    -0.233017384043E+04    0.11069E-02   -0.74683E-04  4377   0.123E-02    0.752E-02
RMM:   5    -0.233017394455E+04   -0.10412E-03   -0.27486E-04  4194   0.669E-03    0.121E-01
RMM:   6    -0.233017380985E+04    0.13470E-03   -0.10017E-04  3215   0.507E-03    0.164E-02
RMM:   7    -0.233017380958E+04    0.26976E-06   -0.16426E-05  2918   0.208E-03
  44 F= -.23512599E+04 E0= -.23512599E+04  d E =-.291434E-07  mag=     6.0000
       N       E                     dE             d eps       ncg     rms          rms(c)
DAV:   1    -0.233015819861E+04    0.15611E-01   -0.12366E+00  4800   0.503E-01    0.357E-01
RMM:   2    -0.233015799705E+04    0.20156E-03   -0.33546E-03  4134   0.255E-02    0.221E-01
RMM:   3    -0.233015931983E+04   -0.13228E-02   -0.22707E-03  5306   0.175E-02    0.387E-01
RMM:   4    -0.233015794328E+04    0.13766E-02   -0.10476E-03  4860   0.138E-02    0.590E-02
RMM:   5    -0.233015797090E+04   -0.27624E-04   -0.19915E-04  3459   0.553E-03    0.820E-02
RMM:   6    -0.233015790859E+04    0.62309E-04   -0.43965E-05  2962   0.368E-03    0.107E-02
RMM:   7    -0.233015790790E+04    0.69103E-06   -0.10317E-05  2758   0.165E-03
  45 F= -.23512438E+04 E0= -.23512438E+04  d E =-.681301E-07  mag=     6.0000
       N       E                     dE             d eps       ncg     rms          rms(c)
DAV:   1    -0.233015129655E+04    0.66120E-02   -0.64009E-01  4800   0.367E-01    0.304E-01
RMM:   2    -0.233015060758E+04    0.68896E-03   -0.35092E-03  4197   0.249E-02    0.176E-01
RMM:   3    -0.233015085807E+04   -0.25049E-03   -0.11859E-03  4806   0.153E-02    0.217E-01
RMM:   4    -0.233015048082E+04    0.37725E-03   -0.56535E-04  4325   0.988E-03    0.630E-02
RMM:   5    -0.233015046395E+04    0.16867E-04   -0.61614E-05  3349   0.450E-03    0.314E-02
RMM:   6    -0.233015046329E+04    0.66117E-06   -0.21802E-05  2805   0.287E-03
  46 F= -.23512361E+04 E0= -.23512361E+04  d E =-.414126E-07  mag=     6.0000
       N       E                     dE             d eps       ncg     rms          rms(c)
DAV:   1    -0.233017258938E+04   -0.22125E-01   -0.12863E+00  4950   0.530E-01    0.548E-01
RMM:   2    -0.233016817832E+04    0.44111E-02   -0.14378E-02  4439   0.459E-02    0.290E-01
RMM:   3    -0.233016853832E+04   -0.36000E-03   -0.33627E-03  4981   0.292E-02    0.377E-01
RMM:   4    -0.233016752043E+04    0.10179E-02   -0.17036E-03  5112   0.171E-02    0.158E-01
RMM:   5    -0.233016744543E+04    0.75001E-04   -0.41340E-04  4481   0.889E-03    0.119E-01
RMM:   6    -0.233016732648E+04    0.11895E-03   -0.17014E-04  3415   0.603E-03    0.397E-02
RMM:   7    -0.233016731066E+04    0.15822E-04   -0.17078E-05  3007   0.288E-03    0.109E-02
RMM:   8    -0.233016730970E+04    0.95798E-06   -0.64104E-06  2814   0.179E-03
  47 F= -.23512536E+04 E0= -.23512536E+04  d E =-.517189E-07  mag=     6.0000
       N       E                     dE             d eps       ncg     rms          rms(c)
DAV:   1    -0.233015068062E+04    0.16630E-01   -0.67317E-01  4950   0.384E-01    0.481E-01
RMM:   2    -0.233014667367E+04    0.40070E-02   -0.11856E-02  4486   0.426E-02    0.242E-01
RMM:   3    -0.233014678297E+04   -0.10931E-03   -0.23819E-03  4570   0.278E-02    0.306E-01
RMM:   4    -0.233014613947E+04    0.64350E-03   -0.12336E-03  4978   0.149E-02    0.143E-01
RMM:   5    -0.233014595658E+04    0.18290E-03   -0.20886E-04  4083   0.715E-03    0.416E-02
RMM:   6    -0.233014596205E+04   -0.54768E-05   -0.62511E-05  3059   0.454E-03
  48 F= -.23512320E+04 E0= -.23512320E+04  d E =-.565885E-07  mag=     6.0000
       N       E                     dE             d eps       ncg     rms          rms(c)
DAV:   1    -0.233017797304E+04   -0.32016E-01   -0.12718E+00  4950   0.533E-01    0.538E-01
RMM:   2    -0.233017396103E+04    0.40120E-02   -0.13572E-02  4489   0.431E-02    0.287E-01
RMM:   3    -0.233017485410E+04   -0.89306E-03   -0.36152E-03  5141   0.291E-02    0.435E-01
RMM:   4    -0.233017324578E+04    0.16083E-02   -0.17357E-03  5283   0.171E-02    0.132E-01
RMM:   5    -0.233017311619E+04    0.12959E-03   -0.23484E-04  3965   0.725E-03    0.345E-02
RMM:   6    -0.233017313434E+04   -0.18152E-04   -0.83503E-05  3220   0.489E-03    0.535E-02
RMM:   7    -0.233017310725E+04    0.27086E-04   -0.23097E-05  2891   0.266E-03    0.933E-03
RMM:   8    -0.233017310633E+04    0.92611E-06   -0.66378E-06  2818   0.161E-03
  49 F= -.23512590E+04 E0= -.23512590E+04  d E =-.416617E-07  mag=     6.0000
