       N       E                     dE             d eps       ncg     rms          rms(c)
DAV:   1     0.124152062131E+05    0.12415E+05   -0.83911E+05  4640   0.142E+03
DAV:   2    -0.125947243728E+04   -0.13675E+05   -0.13138E+05  5040   0.322E+02
DAV:   3    -0.249950653298E+04   -0.12400E+04   -0.12296E+04  5440   0.104E+02
DAV:   4    -0.252762843930E+04   -0.28122E+02   -0.27959E+02  5680   0.194E+01
DAV:   5    -0.252846130061E+04   -0.83286E+00   -0.83136E+00  5920   0.283E+00    0.171E+02
RMM:   6    -0.149161965099E+04    0.10368E+04   -0.19277E+03  4502   0.378E+01    0.730E+01
RMM:   7    -0.166679518779E+04   -0.17518E+03   -0.29393E+02  5027   0.142E+01    0.564E+01
RMM:   8    -0.170348132509E+04   -0.36686E+02   -0.91391E+01  5304   0.797E+00    0.428E+01
RMM:   9    -0.178198885932E+04   -0.78508E+02   -0.60323E+01  5030   0.750E+00    0.315E+01
RMM:  10    -0.191347232653E+04   -0.13148E+03   -0.63044E+01  5481   0.723E+00    0.309E+01
RMM:  11    -0.198150145501E+04   -0.68029E+02   -0.28093E+01  5404   0.457E+00    0.173E+01
RMM:  12    -0.209081810583E+04   -0.10932E+03   -0.51541E+01  4682   0.530E+00    0.132E+01
RMM:  13    -0.222712557713E+04   -0.13631E+03   -0.10996E+02  4526   0.746E+00    0.838E+00
RMM:  14    -0.229342260227E+04   -0.66297E+02   -0.60612E+01  4729   0.561E+00    0.494E+00
RMM:  15    -0.231275979743E+04   -0.19337E+02   -0.20400E+01  4873   0.355E+00    0.387E+00
RMM:  16    -0.231612935035E+04   -0.33696E+01   -0.42595E+00  5558   0.135E+00    0.415E+00
RMM:  17    -0.231653185096E+04   -0.40250E+00   -0.37500E-01  5431   0.424E-01    0.360E+00
RMM:  18    -0.232102943818E+04   -0.44976E+01   -0.30908E+00  4493   0.983E-01    0.234E+00
RMM:  19    -0.232243599923E+04   -0.14066E+01   -0.12085E+00  4497   0.653E-01    0.157E+00
RMM:  20    -0.232287023196E+04   -0.43423E+00   -0.42192E-01  4683   0.365E-01    0.946E-01
RMM:  21    -0.232309981506E+04   -0.22958E+00   -0.25819E-01  4628   0.251E-01    0.483E-01
RMM:  22    -0.232320307574E+04   -0.10326E+00   -0.10530E-01  4554   0.198E-01    0.313E-01
RMM:  23    -0.232323605268E+04   -0.32977E-01   -0.29292E-02  4833   0.989E-02    0.283E-01
RMM:  24    -0.232324932037E+04   -0.13268E-01   -0.66398E-03  4925   0.531E-02    0.132E-01
RMM:  25    -0.232326856057E+04   -0.19240E-01   -0.52349E-03  4501   0.461E-02    0.824E-02
RMM:  26    -0.232327923549E+04   -0.10675E-01   -0.22703E-03  4581   0.358E-02    0.716E-02
RMM:  27    -0.232328628203E+04   -0.70465E-02   -0.15982E-03  4636   0.279E-02    0.376E-02
RMM:  28    -0.232328954657E+04   -0.32645E-02   -0.88868E-04  4344   0.218E-02    0.344E-02
RMM:  29    -0.232329048807E+04   -0.94150E-03   -0.29789E-04  4290   0.125E-02    0.146E-02
RMM:  30    -0.232329088233E+04   -0.39427E-03   -0.95066E-05  3837   0.718E-03    0.983E-03
RMM:  31    -0.232329100580E+04   -0.12347E-03   -0.22189E-05  3148   0.476E-03    0.425E-03
RMM:  32    -0.232329106484E+04   -0.59046E-04   -0.11062E-05  2950   0.322E-03    0.233E-03
RMM:  33    -0.232329109218E+04   -0.27340E-04   -0.57575E-06  2870   0.276E-03    0.145E-03
RMM:  34    -0.232329110565E+04   -0.13468E-04   -0.40721E-06  2531   0.211E-03    0.730E-04
RMM:  35    -0.232329110960E+04   -0.39470E-05   -0.22879E-06  2509   0.182E-03
   1 F= -.23442427E+04 E0= -.23442427E+04  d E =-.732497E-10  mag=     4.0000
       N       E                     dE             d eps       ncg     rms          rms(c)
DAV:   1    -0.232325458567E+04    0.36520E-01   -0.20480E+00  4480   0.708E-01    0.317E-01
RMM:   2    -0.232325468237E+04   -0.96702E-04   -0.12437E-02  4195   0.495E-02    0.266E-01
RMM:   3    -0.232325444143E+04    0.24094E-03   -0.29996E-03  4872   0.238E-02    0.292E-01
RMM:   4    -0.232325363555E+04    0.80588E-03   -0.10266E-03  4134   0.153E-02    0.855E-02
RMM:   5    -0.232325375796E+04   -0.12240E-03   -0.45425E-04  3997   0.913E-03    0.146E-01
RMM:   6    -0.232325357712E+04    0.18083E-03   -0.12186E-04  2907   0.548E-03    0.222E-02
RMM:   7    -0.232325357112E+04    0.60042E-05   -0.30557E-05  2786   0.285E-03
   2 F= -.23442054E+04 E0= -.23442054E+04  d E =-.334302E-09  mag=     4.0000
       N       E                     dE             d eps       ncg     rms          rms(c)
DAV:   1    -0.232330194804E+04   -0.48371E-01   -0.81852E+00  4480   0.140E+00    0.629E-01
RMM:   2    -0.232330189691E+04    0.51126E-04   -0.43055E-02  4307   0.967E-02    0.499E-01
RMM:   3    -0.232330128906E+04    0.60785E-03   -0.10977E-02  5215   0.513E-02    0.570E-01
RMM:   4    -0.232329806291E+04    0.32262E-02   -0.42339E-03  4918   0.316E-02    0.146E-01
RMM:   5    -0.232329836042E+04   -0.29751E-03   -0.13460E-03  4703   0.149E-02    0.226E-01
RMM:   6    -0.232329793614E+04    0.42428E-03   -0.33835E-04  3310   0.822E-03    0.362E-02
RMM:   7    -0.232329792309E+04    0.13054E-04   -0.10765E-04  3413   0.470E-03    0.141E-02
RMM:   8    -0.232329792463E+04   -0.15441E-05   -0.10209E-05  2810   0.308E-03
   3 F= -.23442493E+04 E0= -.23442493E+04  d E =-.208049E-10  mag=     4.0000
       N       E                     dE             d eps       ncg     rms          rms(c)
DAV:   1    -0.232327386189E+04    0.24061E-01   -0.38320E+00  4480   0.857E-01    0.370E-01
RMM:   2    -0.232327453543E+04   -0.67354E-03   -0.13288E-02  4391   0.513E-02    0.399E-01
RMM:   3    -0.232327323646E+04    0.12990E-02   -0.37671E-03  4716   0.282E-02    0.272E-01
RMM:   4    -0.232327271664E+04    0.51982E-03   -0.11027E-03  4386   0.154E-02    0.146E-01
RMM:   5    -0.232327271379E+04    0.28445E-05   -0.59576E-04  3635   0.109E-02    0.149E-01
RMM:   6    -0.232327253512E+04    0.17867E-03   -0.11341E-04  3120   0.599E-03    0.262E-02
RMM:   7    -0.232327253174E+04    0.33853E-05   -0.30369E-05  2846   0.312E-03
   4 F= -.23442240E+04 E0= -.23442240E+04  d E =-.620998E-10  mag=     4.0000
       N       E                     dE             d eps       ncg     rms          rms(c)
DAV:   1    -0.232328683553E+04   -0.14300E-01   -0.79985E+00  4480   0.138E+00    0.597E-01
RMM:   2    -0.232328645343E+04    0.38211E-03   -0.29670E-02  4269   0.807E-02    0.468E-01
RMM:   3    -0.232328691113E+04   -0.45770E-03   -0.84827E-03  4827   0.424E-02    0.536E-01
RMM:   4    -0.232328419079E+04    0.27203E-02   -0.39328E-03  4940   0.257E-02    0.167E-01
RMM:   5    -0.232328448219E+04   -0.29140E-03   -0.11836E-03  4234   0.157E-02    0.235E-01
RMM:   6    -0.232328398006E+04    0.50213E-03   -0.36203E-04  3498   0.882E-03    0.283E-02
RMM:   7    -0.232328396867E+04    0.11394E-04   -0.63465E-05  3063   0.388E-03    0.128E-02
RMM:   8    -0.232328396786E+04    0.80621E-06   -0.10285E-05  2877   0.275E-03
   5 F= -.23442357E+04 E0= -.23442357E+04  d E =-.914161E-10  mag=     4.0000
       N       E                     dE             d eps       ncg     rms          rms(c)
DAV:   1    -0.232329202903E+04   -0.80604E-02   -0.40539E+00  4640   0.947E-01    0.434E-01
RMM:   2    -0.232329329301E+04   -0.12640E-02   -0.18780E-02  4161   0.609E-02    0.426E-01
RMM:   3    -0.232329225442E+04    0.10386E-02   -0.49072E-03  4769   0.322E-02    0.322E-01
RMM:   4    -0.232329122415E+04    0.10303E-02   -0.16432E-03  4738   0.188E-02    0.161E-01
RMM:   5    -0.232329145826E+04   -0.23410E-03   -0.10192E-03  4231   0.120E-02    0.223E-01
RMM:   6    -0.232329105851E+04    0.39975E-03   -0.26643E-04  3258   0.826E-03    0.346E-02
RMM:   7    -0.232329105513E+04    0.33741E-05   -0.51781E-05  2966   0.407E-03
   6 F= -.23442436E+04 E0= -.23442436E+04  d E =-.100286E-09  mag=     4.0000
       N       E                     dE             d eps       ncg     rms          rms(c)
DAV:   1    -0.232329356551E+04   -0.25070E-02   -0.76327E+00  4480   0.133E+00    0.622E-01
RMM:   2    -0.232329733968E+04   -0.37742E-02   -0.39614E-02  4406   0.833E-02    0.676E-01
RMM:   3    -0.232329449932E+04    0.28404E-02   -0.94895E-03  5378   0.455E-02    0.457E-01
RMM:   4    -0.232329333470E+04    0.11646E-02   -0.40333E-03  4934   0.277E-02    0.357E-01
RMM:   5    -0.232329298085E+04    0.35385E-03   -0.25392E-03  4828   0.193E-02    0.301E-01
RMM:   6    -0.232329235807E+04    0.62278E-03   -0.75560E-04  4360   0.139E-02    0.825E-02
RMM:   7    -0.232329232646E+04    0.31608E-04   -0.15232E-04  3137   0.613E-03    0.354E-02
RMM:   8    -0.232329233355E+04   -0.70893E-05   -0.41115E-05  3048   0.440E-03
   7 F= -.23442432E+04 E0= -.23442432E+04  d E =-.420168E-10  mag=     4.0000
       N       E                     dE             d eps       ncg     rms          rms(c)
DAV:   1    -0.232328645971E+04    0.58667E-02   -0.40040E+00  4480   0.106E+00    0.381E-01
RMM:   2    -0.232328666585E+04   -0.20614E-03   -0.19121E-02  4069   0.638E-02    0.280E-01
RMM:   3    -0.232328724261E+04   -0.57676E-03   -0.45152E-03  5067   0.313E-02    0.399E-01
RMM:   4    -0.232328560886E+04    0.16338E-02   -0.22566E-03  4593   0.212E-02    0.132E-01
RMM:   5    -0.232328580218E+04   -0.19332E-03   -0.85607E-04  3900   0.111E-02    0.206E-01
RMM:   6    -0.232328547635E+04    0.32583E-03   -0.24060E-04  3274   0.776E-03    0.381E-02
RMM:   7    -0.232328546363E+04    0.12726E-04   -0.56789E-05  2923   0.359E-03    0.140E-02
RMM:   8    -0.232328546426E+04   -0.63209E-06   -0.89908E-06  2798   0.251E-03
   8 F= -.23442367E+04 E0= -.23442367E+04  d E =-.771050E-10  mag=     4.0000
       N       E                     dE             d eps       ncg     rms          rms(c)
DAV:   1    -0.232327341514E+04    0.12048E-01   -0.84102E+00  4480   0.150E+00    0.588E-01
RMM:   2    -0.232326886429E+04    0.45508E-02   -0.31321E-02  3994   0.858E-02    0.405E-01
RMM:   3    -0.232327212948E+04   -0.32652E-02   -0.11812E-02  5374   0.518E-02    0.792E-01
RMM:   4    -0.232326629398E+04    0.58355E-02   -0.66025E-03  5065   0.317E-02    0.134E-01
RMM:   5    -0.232326640225E+04   -0.10826E-03   -0.12949E-03  4070   0.174E-02    0.163E-01
RMM:   6    -0.232326613489E+04    0.26736E-03   -0.32700E-04  3454   0.749E-03    0.318E-02
RMM:   7    -0.232326612580E+04    0.90906E-05   -0.50943E-05  3093   0.357E-03
   9 F= -.23442181E+04 E0= -.23442181E+04  d E =-.661452E-10  mag=     4.0000
       N       E                     dE             d eps       ncg     rms          rms(c)
DAV:   1    -0.232329257109E+04   -0.26436E-01   -0.42735E+00  4320   0.108E+00    0.424E-01
RMM:   2    -0.232329034497E+04    0.22261E-02   -0.16064E-02  3875   0.583E-02    0.258E-01
RMM:   3    -0.232329171092E+04   -0.13659E-02   -0.65852E-03  5273   0.350E-02    0.501E-01
RMM:   4    -0.232328915275E+04    0.25582E-02   -0.28532E-03  4835   0.216E-02    0.950E-02
RMM:   5    -0.232328915389E+04   -0.11382E-05   -0.45081E-04  3252   0.859E-03    0.971E-02
RMM:   6    -0.232328906163E+04    0.92259E-04   -0.96752E-05  2730   0.457E-03    0.186E-02
RMM:   7    -0.232328905706E+04    0.45645E-05   -0.34491E-05  2824   0.265E-03
  10 F= -.23442408E+04 E0= -.23442408E+04  d E =-.507060E-10  mag=     4.0000
       N       E                     dE             d eps       ncg     rms          rms(c)
DAV:   1    -0.232325759558E+04    0.31466E-01   -0.85821E+00  4320   0.156E+00    0.618E-01
RMM:   2    -0.232325251134E+04    0.50842E-02   -0.31163E-02  3933   0.835E-02    0.364E-01
RMM:   3    -0.232325538424E+04   -0.28729E-02   -0.15018E-02  5172   0.496E-02    0.792E-01
RMM:   4    -0.232325010623E+04    0.52780E-02   -0.52795E-03  4878   0.282E-02    0.658E-02
RMM:   5    -0.232325006071E+04    0.45516E-04   -0.68029E-04  3544   0.879E-03    0.858E-02
RMM:   6    -0.232324997441E+04    0.86305E-04   -0.13079E-04  3023   0.550E-03    0.296E-02
RMM:   7    -0.232324996383E+04    0.10576E-04   -0.77109E-05  3209   0.407E-03    0.221E-02
RMM:   8    -0.232324996073E+04    0.31047E-05   -0.12661E-05  2720   0.324E-03
  11 F= -.23442014E+04 E0= -.23442014E+04  d E =-.101947E-09  mag=     4.0000
       N       E                     dE             d eps       ncg     rms          rms(c)
DAV:   1    -0.232326901493E+04   -0.19051E-01   -0.41850E+00  4320   0.107E+00    0.407E-01
RMM:   2    -0.232326720706E+04    0.18079E-02   -0.16339E-02  3862   0.582E-02    0.251E-01
RMM:   3    -0.232326876908E+04   -0.15620E-02   -0.57389E-03  5391   0.340E-02    0.562E-01
RMM:   4    -0.232326586005E+04    0.29090E-02   -0.28030E-03  4775   0.212E-02    0.836E-02
RMM:   5    -0.232326584679E+04    0.13253E-04   -0.45655E-04  3336   0.855E-03    0.798E-02
RMM:   6    -0.232326577604E+04    0.70757E-04   -0.91591E-05  2852   0.458E-03    0.236E-02
RMM:   7    -0.232326576914E+04    0.68928E-05   -0.23200E-05  2716   0.279E-03
  12 F= -.23442171E+04 E0= -.23442171E+04  d E =-.846200E-10  mag=     4.0000
       N       E                     dE             d eps       ncg     rms          rms(c)
DAV:   1    -0.232330565265E+04   -0.39877E-01   -0.80563E+00  4480   0.149E+00    0.561E-01
RMM:   2    -0.232330107346E+04    0.45792E-02   -0.33895E-02  4209   0.829E-02    0.330E-01
RMM:   3    -0.232330277513E+04   -0.17017E-02   -0.88469E-03  5430   0.462E-02    0.598E-01
RMM:   4    -0.232329871890E+04    0.40562E-02   -0.48163E-03  5091   0.289E-02    0.130E-01
RMM:   5    -0.232329889583E+04   -0.17693E-03   -0.10620E-03  3875   0.111E-02    0.186E-01
RMM:   6    -0.232329861010E+04    0.28572E-03   -0.27992E-04  3206   0.708E-03    0.375E-02
RMM:   7    -0.232329859915E+04    0.10956E-04   -0.36962E-05  2850   0.365E-03    0.144E-02
RMM:   8    -0.232329859924E+04   -0.95257E-07   -0.12093E-05  2778   0.255E-03
  13 F= -.23442507E+04 E0= -.23442507E+04  d E =-.611023E-10  mag=     4.0000
       N       E                     dE             d eps       ncg     rms          rms(c)
DAV:   1    -0.232329296898E+04    0.56302E-02   -0.23907E+00  4320   0.800E-01    0.342E-01
RMM:   2    -0.232329172124E+04    0.12477E-02   -0.12722E-02  3986   0.498E-02    0.198E-01
RMM:   3    -0.232329194360E+04   -0.22236E-03   -0.29893E-03  5097   0.255E-02    0.307E-01
RMM:   4    -0.232329088115E+04    0.10625E-02   -0.13357E-03  4331   0.159E-02    0.725E-02
RMM:   5    -0.232329094843E+04   -0.67285E-04   -0.30690E-04  3293   0.674E-03    0.112E-01
RMM:   6    -0.232329084657E+04    0.10186E-03   -0.97596E-05  2660   0.475E-03    0.250E-02
RMM:   7    -0.232329084078E+04    0.57840E-05   -0.13250E-05  2554   0.241E-03
  14 F= -.23442424E+04 E0= -.23442424E+04  d E =-.736448E-10  mag=     4.0000
       N       E                     dE             d eps       ncg     rms          rms(c)
DAV:   1    -0.232328668712E+04    0.41595E-02   -0.12303E+00  4560   0.532E-01    0.356E-01
RMM:   2    -0.232328639407E+04    0.29304E-03   -0.62594E-03  3698   0.336E-02    0.209E-01
RMM:   3    -0.232328684802E+04   -0.45395E-03   -0.18785E-03  4462   0.209E-02    0.265E-01
RMM:   4    -0.232328625589E+04    0.59214E-03   -0.67340E-04  3703   0.109E-02    0.545E-02
RMM:   5    -0.232328624876E+04    0.71296E-05   -0.11778E-04  2981   0.491E-03    0.503E-02
RMM:   6    -0.232328622318E+04    0.25572E-04   -0.39384E-05  2557   0.354E-03    0.151E-02
RMM:   7    -0.232328622104E+04    0.21444E-05   -0.55418E-06  2431   0.205E-03
  15 F= -.23442378E+04 E0= -.23442378E+04  d E =-.729497E-10  mag=     4.0000
       N       E                     dE             d eps       ncg     rms          rms(c)
DAV:   1    -0.232328832437E+04   -0.21012E-02   -0.63422E-01  4480   0.377E-01    0.312E-01
RMM:   2    -0.232328743767E+04    0.88670E-03   -0.48291E-03  3663   0.294E-02    0.175E-01
RMM:   3    -0.232328779392E+04   -0.35625E-03   -0.16323E-03  4205   0.185E-02    0.257E-01
RMM:   4    -0.232328726101E+04    0.53290E-03   -0.56162E-04  3612   0.101E-02    0.635E-02
RMM:   5    -0.232328723684E+04    0.24176E-04   -0.10608E-04  3105   0.505E-03    0.321E-02
RMM:   6    -0.232328723745E+04   -0.61262E-06   -0.40526E-05  2581   0.380E-03
  16 F= -.23442384E+04 E0= -.23442384E+04  d E =-.712085E-10  mag=     4.0000
       N       E                     dE             d eps       ncg     rms          rms(c)
DAV:   1    -0.232327725133E+04    0.99855E-02   -0.13082E+00  4960   0.556E-01    0.606E-01
RMM:   2    -0.232327118421E+04    0.60671E-02   -0.22983E-02  3967   0.648E-02    0.313E-01
RMM:   3    -0.232327145097E+04   -0.26676E-03   -0.61297E-03  4533   0.386E-02    0.406E-01
RMM:   4    -0.232327024909E+04    0.12019E-02   -0.20694E-03  4566   0.183E-02    0.172E-01
RMM:   5    -0.232327015104E+04    0.98053E-04   -0.63672E-04  3997   0.109E-02    0.124E-01
RMM:   6    -0.232327001621E+04    0.13483E-03   -0.29936E-04  3527   0.854E-03    0.628E-02
RMM:   7    -0.232326996612E+04    0.50086E-04   -0.36977E-05  2783   0.416E-03    0.107E-02
RMM:   8    -0.232326996426E+04    0.18580E-05   -0.99860E-06  2465   0.208E-03
  17 F= -.23442220E+04 E0= -.23442220E+04  d E =-.737163E-10  mag=     4.0000
       N       E                     dE             d eps       ncg     rms          rms(c)
DAV:   1    -0.232328593404E+04   -0.15968E-01   -0.64354E-01  4720   0.394E-01    0.386E-01
RMM:   2    -0.232328371559E+04    0.22185E-02   -0.88861E-03  3817   0.390E-02    0.199E-01
RMM:   3    -0.232328343126E+04    0.28433E-03   -0.18661E-03  3743   0.256E-02    0.106E-01
RMM:   4    -0.232328356530E+04   -0.13405E-03   -0.78536E-04  3776   0.114E-02    0.151E-01
RMM:   5    -0.232328334845E+04    0.21685E-03   -0.20370E-04  3242   0.741E-03    0.430E-02
RMM:   6    -0.232328335204E+04   -0.35914E-05   -0.65172E-05  2724   0.401E-03
  18 F= -.23442349E+04 E0= -.23442349E+04  d E =-.699987E-10  mag=     4.0000
       N       E                     dE             d eps       ncg     rms          rms(c)
DAV:   1    -0.232329420132E+04   -0.10853E-01   -0.12317E+00  4400   0.526E-01    0.353E-01
RMM:   2    -0.232329396125E+04    0.24008E-03   -0.56230E-03  3675   0.340E-02    0.217E-01
RMM:   3    -0.232329551194E+04   -0.15507E-02   -0.27558E-03  4729   0.214E-02    0.453E-01
RMM:   4    -0.232329380035E+04    0.17116E-02   -0.12720E-03  4128   0.144E-02    0.337E-02
RMM:   5    -0.232329378042E+04    0.19926E-04   -0.14621E-04  3076   0.515E-03    0.193E-02
RMM:   6    -0.232329378163E+04   -0.12106E-05   -0.21776E-05  2578   0.315E-03
  19 F= -.23442454E+04 E0= -.23442454E+04  d E =-.750629E-10  mag=     4.0000
       N       E                     dE             d eps       ncg     rms          rms(c)
DAV:   1    -0.232328799299E+04    0.57874E-02   -0.61660E-01  4560   0.394E-01    0.311E-01
RMM:   2    -0.232328727741E+04    0.71557E-03   -0.58305E-03  4395   0.324E-02    0.202E-01
RMM:   3    -0.232328761436E+04   -0.33695E-03   -0.17693E-03  3973   0.203E-02    0.314E-01
RMM:   4    -0.232328689810E+04    0.71626E-03   -0.90934E-04  4069   0.124E-02    0.117E-01
RMM:   5    -0.232328693416E+04   -0.36055E-04   -0.38157E-04  3729   0.863E-03    0.115E-01
RMM:   6    -0.232328678719E+04    0.14697E-03   -0.13607E-04  3106   0.628E-03    0.195E-02
RMM:   7    -0.232328678392E+04    0.32655E-05   -0.10047E-05  2506   0.238E-03
  20 F= -.23442388E+04 E0= -.23442388E+04  d E =-.769238E-10  mag=     4.0000
       N       E                     dE             d eps       ncg     rms          rms(c)
DAV:   1    -0.232328970145E+04   -0.29143E-02   -0.12486E+00  4880   0.520E-01    0.523E-01
RMM:   2    -0.232328693652E+04    0.27649E-02   -0.15547E-02  5127   0.475E-02    0.343E-01
RMM:   3    -0.232328743569E+04   -0.49917E-03   -0.49259E-03  4231   0.340E-02    0.496E-01
RMM:   4    -0.232328564847E+04    0.17872E-02   -0.24232E-03  4617   0.198E-02    0.203E-01
RMM:   5    -0.232328573604E+04   -0.87575E-04   -0.10576E-03  4313   0.137E-02    0.198E-01
RMM:   6    -0.232328529829E+04    0.43775E-03   -0.38837E-04  3768   0.986E-03    0.331E-02
RMM:   7    -0.232328529022E+04    0.80735E-05   -0.32088E-05  2894   0.340E-03
  21 F= -.23442365E+04 E0= -.23442365E+04  d E =-.665590E-10  mag=     4.0000
       N       E                     dE             d eps       ncg     rms          rms(c)
DAV:   1    -0.232328930328E+04   -0.40050E-02   -0.61298E-01  4480   0.354E-01    0.285E-01
RMM:   2    -0.232328918388E+04    0.11940E-03   -0.21270E-03  3855   0.225E-02    0.203E-01
RMM:   3    -0.232328982041E+04   -0.63654E-03   -0.18370E-03  4834   0.158E-02    0.295E-01
RMM:   4    -0.232328889123E+04    0.92918E-03   -0.72247E-04  4162   0.134E-02    0.529E-02
RMM:   5    -0.232328889132E+04   -0.89349E-07   -0.10549E-04  2890   0.482E-03    0.514E-02
RMM:   6    -0.232328886829E+04    0.23029E-04   -0.25416E-05  2710   0.289E-03    0.118E-02
RMM:   7    -0.232328886666E+04    0.16290E-05   -0.53665E-06  2622   0.177E-03
  22 F= -.23442402E+04 E0= -.23442402E+04  d E =-.817733E-10  mag=     4.0000
       N       E                     dE             d eps       ncg     rms          rms(c)
DAV:   1    -0.232327989838E+04    0.89699E-02   -0.12880E+00  4880   0.521E-01    0.557E-01
RMM:   2    -0.232327656373E+04    0.33346E-02   -0.18508E-02  4929   0.577E-02    0.368E-01
RMM:   3    -0.232327746438E+04   -0.90065E-03   -0.57888E-03  4847   0.391E-02    0.534E-01
RMM:   4    -0.232327514973E+04    0.23147E-02   -0.31949E-03  4928   0.229E-02    0.233E-01
RMM:   5    -0.232327506911E+04    0.80623E-04   -0.11575E-03  4572   0.147E-02    0.197E-01
RMM:   6    -0.232327466978E+04    0.39933E-03   -0.41646E-04  3486   0.922E-03    0.436E-02
RMM:   7    -0.232327465412E+04    0.15657E-04   -0.38357E-05  2860   0.380E-03    0.115E-02
RMM:   8    -0.232327465242E+04    0.17057E-05   -0.63390E-06  2730   0.214E-03
  23 F= -.23442265E+04 E0= -.23442265E+04  d E =-.638957E-10  mag=     4.0000
       N       E                     dE             d eps       ncg     rms          rms(c)
DAV:   1    -0.232328550605E+04   -0.10852E-01   -0.61380E-01  4640   0.371E-01    0.305E-01
RMM:   2    -0.232328509066E+04    0.41539E-03   -0.45645E-03  4427   0.297E-02    0.233E-01
RMM:   3    -0.232328562777E+04   -0.53711E-03   -0.22321E-03  4731   0.208E-02    0.329E-01
RMM:   4    -0.232328468960E+04    0.93817E-03   -0.96915E-04  4224   0.135E-02    0.126E-01
RMM:   5    -0.232328469649E+04   -0.68909E-05   -0.42850E-04  3660   0.924E-03    0.119E-01
RMM:   6    -0.232328455914E+04    0.13735E-03   -0.12981E-04  3067   0.575E-03    0.181E-02
RMM:   7    -0.232328455665E+04    0.24853E-05   -0.11859E-05  2683   0.275E-03
  24 F= -.23442364E+04 E0= -.23442364E+04  d E =-.649903E-10  mag=     4.0000
       N       E                     dE             d eps       ncg     rms          rms(c)
DAV:   1    -0.232329490318E+04   -0.10344E-01   -0.11890E+00  4480   0.503E-01    0.354E-01
RMM:   2    -0.232329483765E+04    0.65535E-04   -0.45461E-03  4145   0.318E-02    0.244E-01
RMM:   3    -0.232329597024E+04   -0.11326E-02   -0.28654E-03  4896   0.227E-02    0.379E-01
RMM:   4    -0.232329466245E+04    0.13078E-02   -0.13877E-03  4487   0.177E-02    0.134E-01
RMM:   5    -0.232329462442E+04    0.38034E-04   -0.40613E-04  3197   0.800E-03    0.123E-01
RMM:   6    -0.232329449499E+04    0.12943E-03   -0.10953E-04  3077   0.592E-03    0.139E-02
RMM:   7    -0.232329449230E+04    0.26927E-05   -0.18666E-05  2773   0.259E-03
  25 F= -.23442459E+04 E0= -.23442459E+04  d E =-.800564E-10  mag=     4.0000
       N       E                     dE             d eps       ncg     rms          rms(c)
DAV:   1    -0.232327668824E+04    0.17807E-01   -0.60929E-01  4960   0.402E-01    0.308E-01
RMM:   2    -0.232327578509E+04    0.90314E-03   -0.60102E-03  3890   0.353E-02    0.176E-01
RMM:   3    -0.232327611900E+04   -0.33391E-03   -0.17834E-03  4356   0.201E-02    0.239E-01
RMM:   4    -0.232327555130E+04    0.56770E-03   -0.77211E-04  4007   0.124E-02    0.741E-02
RMM:   5    -0.232327549700E+04    0.54304E-04   -0.11127E-04  3312   0.585E-03    0.252E-02
RMM:   6    -0.232327551407E+04   -0.17072E-04   -0.48356E-05  2903   0.379E-03    0.494E-02
RMM:   7    -0.232327549231E+04    0.21757E-04   -0.15623E-05  2492   0.280E-03    0.590E-03
RMM:   8    -0.232327549191E+04    0.40489E-06   -0.27166E-06  2241   0.140E-03
  26 F= -.23442274E+04 E0= -.23442274E+04  d E =-.702954E-10  mag=     4.0000
       N       E                     dE             d eps       ncg     rms          rms(c)
DAV:   1    -0.232329460994E+04   -0.19118E-01   -0.12660E+00  4720   0.532E-01    0.515E-01
RMM:   2    -0.232329086999E+04    0.37400E-02   -0.14678E-02  3970   0.508E-02    0.274E-01
RMM:   3    -0.232329163059E+04   -0.76060E-03   -0.44762E-03  4410   0.352E-02    0.402E-01
RMM:   4    -0.232329034808E+04    0.12825E-02   -0.17748E-03  4479   0.173E-02    0.124E-01
RMM:   5    -0.232329021033E+04    0.13775E-03   -0.30135E-04  3720   0.833E-03    0.387E-02
RMM:   6    -0.232329020872E+04    0.16149E-05   -0.63216E-05  2999   0.465E-03
  27 F= -.23442415E+04 E0= -.23442415E+04  d E =-.705007E-10  mag=     4.0000
       N       E                     dE             d eps       ncg     rms          rms(c)
DAV:   1    -0.232327221526E+04    0.17995E-01   -0.64990E-01  4800   0.388E-01    0.439E-01
RMM:   2    -0.232326888077E+04    0.33345E-02   -0.11887E-02  3907   0.456E-02    0.228E-01
RMM:   3    -0.232326933106E+04   -0.45028E-03   -0.34009E-03  4427   0.282E-02    0.348E-01
RMM:   4    -0.232326839324E+04    0.93781E-03   -0.12631E-03  4179   0.139E-02    0.114E-01
RMM:   5    -0.232326838395E+04    0.92976E-05   -0.38655E-04  3578   0.846E-03    0.103E-01
RMM:   6    -0.232326828105E+04    0.10290E-03   -0.18851E-04  3254   0.682E-03    0.442E-02
RMM:   7    -0.232326825497E+04    0.26078E-04   -0.20218E-05  2589   0.335E-03    0.811E-03
RMM:   8    -0.232326825389E+04    0.10848E-05   -0.59168E-06  2330   0.174E-03
  28 F= -.23442202E+04 E0= -.23442202E+04  d E =-.704816E-10  mag=     4.0000
       N       E                     dE             d eps       ncg     rms          rms(c)
DAV:   1    -0.232330458087E+04   -0.36326E-01   -0.12475E+00  4720   0.527E-01    0.465E-01
RMM:   2    -0.232330186658E+04    0.27143E-02   -0.11791E-02  3942   0.444E-02    0.255E-01
RMM:   3    -0.232330291577E+04   -0.10492E-02   -0.39347E-03  4423   0.314E-02    0.428E-01
RMM:   4    -0.232330144263E+04    0.14731E-02   -0.17111E-03  4446   0.165E-02    0.103E-01
RMM:   5    -0.232330138390E+04    0.58729E-04   -0.30916E-04  3618   0.803E-03    0.609E-02
RMM:   6    -0.232330137649E+04    0.74174E-05   -0.12990E-04  2961   0.586E-03    0.526E-02
RMM:   7    -0.232330134376E+04    0.32725E-04   -0.27182E-05  2656   0.362E-03    0.959E-03
RMM:   8    -0.232330134314E+04    0.62228E-06   -0.64300E-06  2396   0.179E-03
  29 F= -.23442526E+04 E0= -.23442526E+04  d E =-.738486E-10  mag=     4.0000
       N       E                     dE             d eps       ncg     rms          rms(c)
DAV:   1    -0.232328247074E+04    0.18873E-01   -0.61325E-01  4480   0.365E-01    0.283E-01
RMM:   2    -0.232328192906E+04    0.54167E-03   -0.47882E-03  3634   0.287E-02    0.168E-01
RMM:   3    -0.232328267882E+04   -0.74976E-03   -0.17520E-03  4456   0.191E-02    0.331E-01
RMM:   4    -0.232328173905E+04    0.93978E-03   -0.78329E-04  3914   0.115E-02    0.557E-02
RMM:   5    -0.232328173947E+04   -0.42529E-06   -0.13793E-04  3167   0.572E-03    0.483E-02
RMM:   6    -0.232328172181E+04    0.17664E-04   -0.60297E-05  2700   0.419E-03    0.272E-02
RMM:   7    -0.232328171381E+04    0.79960E-05   -0.81705E-06  2372   0.223E-03
  30 F= -.23442335E+04 E0= -.23442335E+04  d E =-.768304E-10  mag=     4.0000
       N       E                     dE             d eps       ncg     rms          rms(c)
DAV:   1    -0.232329659909E+04   -0.14877E-01   -0.12081E+00  4320   0.519E-01    0.312E-01
RMM:   2    -0.232329692950E+04   -0.33041E-03   -0.45951E-03  3535   0.308E-02    0.195E-01
RMM:   3    -0.232329805949E+04   -0.11300E-02   -0.20161E-03  4695   0.203E-02    0.333E-01
RMM:   4    -0.232329690024E+04    0.11592E-02   -0.89704E-04  4078   0.133E-02    0.542E-02
RMM:   5    -0.232329689855E+04    0.16884E-05   -0.15584E-04  2821   0.480E-03    0.548E-02
RMM:   6    -0.232329687203E+04    0.26526E-04   -0.25239E-05  2524   0.303E-03    0.831E-03
RMM:   7    -0.232329687158E+04    0.45261E-06   -0.83782E-06  2540   0.169E-03
  31 F= -.23442483E+04 E0= -.23442483E+04  d E =-.677619E-10  mag=     4.0000
       N       E                     dE             d eps       ncg     rms          rms(c)
DAV:   1    -0.232329813992E+04   -0.12679E-02   -0.60215E-01  4640   0.380E-01    0.274E-01
RMM:   2    -0.232329767801E+04    0.46191E-03   -0.42646E-03  3654   0.299E-02    0.155E-01
RMM:   3    -0.232329769940E+04   -0.21388E-04   -0.83553E-04  4063   0.147E-02    0.115E-01
RMM:   4    -0.232329762792E+04    0.71478E-04   -0.34644E-04  3335   0.852E-03    0.751E-02
RMM:   5    -0.232329756872E+04    0.59204E-04   -0.67668E-05  3077   0.491E-03    0.235E-02
RMM:   6    -0.232329757059E+04   -0.18696E-05   -0.18193E-05  2455   0.285E-03
  32 F= -.23442487E+04 E0= -.23442487E+04  d E =-.593580E-10  mag=     4.0000
       N       E                     dE             d eps       ncg     rms          rms(c)
DAV:   1    -0.232327671100E+04    0.20858E-01   -0.11788E+00  4880   0.510E-01    0.432E-01
RMM:   2    -0.232327395870E+04    0.27523E-02   -0.11067E-02  4027   0.455E-02    0.223E-01
RMM:   3    -0.232327394965E+04    0.90487E-05   -0.21035E-03  4164   0.260E-02    0.211E-01
RMM:   4    -0.232327381430E+04    0.13535E-03   -0.94499E-04  4095   0.127E-02    0.164E-01
RMM:   5    -0.232327360393E+04    0.21038E-03   -0.20157E-04  3562   0.752E-03    0.277E-02
RMM:   6    -0.232327359924E+04    0.46903E-05   -0.26449E-05  2742   0.390E-03
  33 F= -.23442256E+04 E0= -.23442256E+04  d E =-.846808E-10  mag=     4.0000
       N       E                     dE             d eps       ncg     rms          rms(c)
DAV:   1    -0.232328090852E+04   -0.73046E-02   -0.58071E-01  4560   0.360E-01    0.201E-01
RMM:   2    -0.232328088956E+04    0.18956E-04   -0.21852E-03  3540   0.205E-02    0.125E-01
RMM:   3    -0.232328131563E+04   -0.42607E-03   -0.91085E-04  4274   0.127E-02    0.206E-01
RMM:   4    -0.232328086890E+04    0.44673E-03   -0.45211E-04  3607   0.993E-03    0.467E-02
RMM:   5    -0.232328088648E+04   -0.17578E-04   -0.10148E-04  2657   0.431E-03    0.650E-02
RMM:   6    -0.232328085158E+04    0.34898E-04   -0.27016E-05  2516   0.308E-03    0.528E-03
RMM:   7    -0.232328085125E+04    0.33503E-06   -0.46872E-06  2338   0.160E-03
  34 F= -.23442325E+04 E0= -.23442325E+04  d E =-.764414E-10  mag=     4.0000
       N       E                     dE             d eps       ncg     rms          rms(c)
DAV:   1    -0.232329627394E+04   -0.15422E-01   -0.11770E+00  4560   0.498E-01    0.319E-01
RMM:   2    -0.232329585089E+04    0.42305E-03   -0.51806E-03  3696   0.320E-02    0.184E-01
RMM:   3    -0.232329642699E+04   -0.57610E-03   -0.15322E-03  4173   0.209E-02    0.273E-01
RMM:   4    -0.232329580678E+04    0.62020E-03   -0.67302E-04  3771   0.109E-02    0.570E-02
RMM:   5    -0.232329579235E+04    0.14438E-04   -0.99123E-05  3144   0.501E-03    0.283E-02
RMM:   6    -0.232329579111E+04    0.12360E-05   -0.32136E-05  2622   0.366E-03
  35 F= -.23442473E+04 E0= -.23442473E+04  d E =-.728988E-10  mag=     4.0000
       N       E                     dE             d eps       ncg     rms          rms(c)
DAV:   1    -0.232331847297E+04   -0.22681E-01   -0.59198E-01  4480   0.363E-01    0.224E-01
RMM:   2    -0.232331839992E+04    0.73052E-04   -0.19511E-03  3406   0.211E-02    0.134E-01
RMM:   3    -0.232331871874E+04   -0.31882E-03   -0.85085E-04  4451   0.123E-02    0.191E-01
RMM:   4    -0.232331835229E+04    0.36645E-03   -0.41360E-04  3258   0.890E-03    0.263E-02
RMM:   5    -0.232331836733E+04   -0.15045E-04   -0.78892E-05  2681   0.377E-03    0.529E-02
RMM:   6    -0.232331834213E+04    0.25198E-04   -0.26202E-05  2464   0.296E-03    0.691E-03
RMM:   7    -0.232331834238E+04   -0.24604E-06   -0.38140E-06  2243   0.151E-03
  36 F= -.23442697E+04 E0= -.23442697E+04  d E =-.755515E-10  mag=     4.0000
       N       E                     dE             d eps       ncg     rms          rms(c)
DAV:   1    -0.232325556713E+04    0.62775E-01   -0.11731E+00  4960   0.518E-01    0.444E-01
RMM:   2    -0.232325338664E+04    0.21805E-02   -0.10398E-02  3853   0.461E-02    0.241E-01
RMM:   3    -0.232325379335E+04   -0.40670E-03   -0.31542E-03  4433   0.303E-02    0.320E-01
RMM:   4    -0.232325297776E+04    0.81559E-03   -0.14467E-03  4112   0.151E-02    0.103E-01
RMM:   5    -0.232325304861E+04   -0.70856E-04   -0.46049E-04  3657   0.874E-03    0.130E-01
RMM:   6    -0.232325287311E+04    0.17550E-03   -0.18610E-04  3342   0.686E-03    0.279E-02
RMM:   7    -0.232325286340E+04    0.97058E-05   -0.14150E-05  2615   0.289E-03
  37 F= -.23442047E+04 E0= -.23442047E+04  d E =-.717761E-10  mag=     4.0000
