       N       E                     dE             d eps       ncg     rms          rms(c)
DAV:   1     0.130922511261E+05    0.13092E+05   -0.84174E+05  4544   0.144E+03
DAV:   2    -0.101063598293E+04   -0.14103E+05   -0.13474E+05  4920   0.331E+02
DAV:   3    -0.247986538562E+04   -0.14692E+04   -0.14506E+04  5512   0.115E+02
DAV:   4    -0.252622759977E+04   -0.46362E+02   -0.46102E+02  6736   0.297E+01
DAV:   5    -0.252713885303E+04   -0.91125E+00   -0.90907E+00  6264   0.349E+00    0.170E+02
RMM:   6    -0.148916258264E+04    0.10380E+04   -0.19624E+03  4469   0.383E+01    0.725E+01
RMM:   7    -0.167051069982E+04   -0.18135E+03   -0.29376E+02  5098   0.144E+01    0.553E+01
RMM:   8    -0.171340025681E+04   -0.42890E+02   -0.86715E+01  5260   0.808E+00    0.443E+01
RMM:   9    -0.178056232172E+04   -0.67162E+02   -0.54928E+01  5077   0.725E+00    0.376E+01
RMM:  10    -0.186894752164E+04   -0.88385E+02   -0.56539E+01  5082   0.730E+00    0.317E+01
RMM:  11    -0.197162105926E+04   -0.10267E+03   -0.42777E+01  5221   0.584E+00    0.275E+01
RMM:  12    -0.202374953815E+04   -0.52128E+02   -0.21311E+01  5178   0.404E+00    0.190E+01
RMM:  13    -0.211625884336E+04   -0.92509E+02   -0.43489E+01  4730   0.500E+00    0.132E+01
RMM:  14    -0.224765120335E+04   -0.13139E+03   -0.11870E+02  4535   0.755E+00    0.111E+01
RMM:  15    -0.228823383007E+04   -0.40583E+02   -0.33939E+01  4559   0.467E+00    0.661E+00
RMM:  16    -0.231585090226E+04   -0.27617E+02   -0.28602E+01  4498   0.362E+00    0.529E+00
RMM:  17    -0.231904658020E+04   -0.31957E+01   -0.37010E+00  4584   0.215E+00    0.551E+00
RMM:  18    -0.231937763942E+04   -0.33106E+00   -0.12466E+00  5634   0.509E-01    0.513E+00
RMM:  19    -0.232029261743E+04   -0.91498E+00   -0.37108E-01  4712   0.465E-01    0.396E+00
RMM:  20    -0.232276274414E+04   -0.24701E+01   -0.12968E+00  4505   0.717E-01    0.286E+00
RMM:  21    -0.232324141769E+04   -0.47867E+00   -0.35309E-01  4671   0.482E-01    0.161E+00
RMM:  22    -0.232342907753E+04   -0.18766E+00   -0.14911E-01  4724   0.248E-01    0.747E-01
RMM:  23    -0.232354541653E+04   -0.11634E+00   -0.62195E-02  4541   0.185E-01    0.491E-01
RMM:  24    -0.232361592433E+04   -0.70508E-01   -0.29271E-02  4637   0.117E-01    0.301E-01
RMM:  25    -0.232365792842E+04   -0.42004E-01   -0.10576E-02  4601   0.725E-02    0.180E-01
RMM:  26    -0.232368682637E+04   -0.28898E-01   -0.62075E-03  4524   0.562E-02    0.166E-01
RMM:  27    -0.232370253682E+04   -0.15710E-01   -0.45332E-03  4680   0.495E-02    0.103E-01
RMM:  28    -0.232370959939E+04   -0.70626E-02   -0.23552E-03  4940   0.380E-02    0.647E-02
RMM:  29    -0.232371264578E+04   -0.30464E-02   -0.77531E-04  4444   0.189E-02    0.335E-02
RMM:  30    -0.232371374752E+04   -0.11017E-02   -0.28861E-04  4270   0.134E-02    0.148E-02
RMM:  31    -0.232371416970E+04   -0.42218E-03   -0.10259E-04  3782   0.834E-03    0.128E-02
RMM:  32    -0.232371430426E+04   -0.13455E-03   -0.37468E-05  3313   0.543E-03    0.443E-03
RMM:  33    -0.232371435998E+04   -0.55726E-04   -0.13354E-05  2953   0.382E-03    0.262E-03
RMM:  34    -0.232371438147E+04   -0.21490E-04   -0.56690E-06  2842   0.287E-03    0.146E-03
RMM:  35    -0.232371439322E+04   -0.11747E-04   -0.35296E-06  2468   0.212E-03    0.116E-03
RMM:  36    -0.232371439813E+04   -0.49076E-05   -0.20691E-06  2437   0.175E-03
   1 F= -.23451259E+04 E0= -.23451259E+04  d E =-.234513E+04  mag=     2.0000
       N       E                     dE             d eps       ncg     rms          rms(c)
DAV:   1    -0.232369250104E+04    0.21892E-01   -0.42687E+00  5224   0.163E+00    0.592E-01
RMM:   2    -0.232379331634E+04   -0.10082E+00   -0.10387E+00  6417   0.437E-01    0.592E-01
RMM:   3    -0.232380338464E+04   -0.10068E-01   -0.11713E-01  6044   0.196E-01    0.664E-01
RMM:   4    -0.232379996808E+04    0.34166E-02   -0.10427E-02  5865   0.395E-02    0.278E-01
RMM:   5    -0.232379967244E+04    0.29564E-03   -0.16859E-03  5246   0.184E-02    0.256E-01
RMM:   6    -0.232379903617E+04    0.63627E-03   -0.18019E-03  5488   0.210E-02    0.179E-01
RMM:   7    -0.232379880703E+04    0.22914E-03   -0.10979E-03  4915   0.174E-02    0.111E-01
RMM:   8    -0.232379863169E+04    0.17534E-03   -0.12921E-04  3300   0.743E-03    0.301E-02
RMM:   9    -0.232379861425E+04    0.17436E-04   -0.24891E-05  2934   0.512E-03    0.158E-02
RMM:  10    -0.232379860840E+04    0.58575E-05   -0.18919E-05  2924   0.355E-03
   2 F= -.23452090E+04 E0= -.23452090E+04  d E =-.831294E-01  mag=     2.0000
       N       E                     dE             d eps       ncg     rms          rms(c)
DAV:   1    -0.232374642401E+04    0.52190E-01   -0.30721E+00  4768   0.138E+00    0.506E-01
RMM:   2    -0.232381984012E+04   -0.73416E-01   -0.74688E-01  6354   0.372E-01    0.587E-01
RMM:   3    -0.232382654902E+04   -0.67089E-02   -0.87581E-02  5856   0.181E-01    0.567E-01
RMM:   4    -0.232382390802E+04    0.26410E-02   -0.74855E-03  5673   0.343E-02    0.237E-01
RMM:   5    -0.232382378656E+04    0.12146E-03   -0.12959E-03  4947   0.163E-02    0.233E-01
RMM:   6    -0.232382321209E+04    0.57447E-03   -0.12756E-03  5333   0.178E-02    0.148E-01
RMM:   7    -0.232382305217E+04    0.15992E-03   -0.81146E-04  4506   0.154E-02    0.864E-02
RMM:   8    -0.232382294152E+04    0.11065E-03   -0.89177E-05  3142   0.655E-03    0.237E-02
RMM:   9    -0.232382292992E+04    0.11592E-04   -0.18413E-05  2940   0.457E-03    0.126E-02
RMM:  10    -0.232382292610E+04    0.38230E-05   -0.13619E-05  2924   0.319E-03
   3 F= -.23452327E+04 E0= -.23452327E+04  d E =-.106740E+00  mag=     2.0000
       N       E                     dE             d eps       ncg     rms          rms(c)
DAV:   1    -0.232382210342E+04    0.82651E-03   -0.20105E+00  4672   0.155E+00    0.621E-01
RMM:   2    -0.232383451060E+04   -0.12407E-01   -0.14493E-01  5967   0.302E-01    0.371E-01
RMM:   3    -0.232383930823E+04   -0.47976E-02   -0.17769E-02  5750   0.131E-01    0.794E-01
RMM:   4    -0.232383318720E+04    0.61210E-02   -0.37157E-03  5934   0.406E-02    0.140E-01
RMM:   5    -0.232383311426E+04    0.72944E-04   -0.14965E-03  4816   0.284E-02    0.164E-01
RMM:   6    -0.232383271782E+04    0.39644E-03   -0.68960E-04  4985   0.189E-02    0.602E-02
RMM:   7    -0.232383269206E+04    0.25760E-04   -0.17547E-04  3929   0.964E-03    0.557E-02
RMM:   8    -0.232383263409E+04    0.57971E-04   -0.58405E-05  2926   0.603E-03    0.172E-02
RMM:   9    -0.232383261760E+04    0.16489E-04   -0.21452E-05  2957   0.418E-03    0.781E-03
RMM:  10    -0.232383261028E+04    0.73212E-05   -0.13185E-05  2876   0.443E-03
   4 F= -.23452429E+04 E0= -.23452429E+04  d E =-.102831E-01  mag=     2.0000
       N       E                     dE             d eps       ncg     rms          rms(c)
DAV:   1    -0.232383328932E+04   -0.67172E-03   -0.11612E-01  4812   0.372E-01    0.150E-01
RMM:   2    -0.232383402238E+04   -0.73306E-03   -0.84413E-03  6027   0.741E-02    0.914E-02
RMM:   3    -0.232383430932E+04   -0.28694E-03   -0.10511E-03  5245   0.318E-02    0.194E-01
RMM:   4    -0.232383394089E+04    0.36844E-03   -0.21583E-04  3680   0.102E-02    0.335E-02
RMM:   5    -0.232383393498E+04    0.59099E-05   -0.89136E-05  3841   0.824E-03
   5 F= -.23452441E+04 E0= -.23452441E+04  d E =-.114642E-01  mag=     2.0000
       N       E                     dE             d eps       ncg     rms          rms(c)
DAV:   1    -0.232382793265E+04    0.60082E-02   -0.79851E-01  4624   0.891E-01    0.272E-01
RMM:   2    -0.232384157021E+04   -0.13638E-01   -0.14136E-01  6408   0.206E-01    0.246E-01
RMM:   3    -0.232384271388E+04   -0.11437E-02   -0.15211E-02  6121   0.752E-02    0.263E-01
RMM:   4    -0.232384210009E+04    0.61379E-03   -0.15565E-03  5002   0.190E-02    0.124E-01
RMM:   5    -0.232384201896E+04    0.81124E-04   -0.27027E-04  3140   0.955E-03    0.975E-02
RMM:   6    -0.232384191084E+04    0.10813E-03   -0.21340E-04  4118   0.108E-02    0.385E-02
RMM:   7    -0.232384191725E+04   -0.64068E-05   -0.10767E-04  3065   0.846E-03    0.380E-02
RMM:   8    -0.232384189482E+04    0.22425E-04   -0.30808E-05  2913   0.515E-03    0.935E-03
RMM:   9    -0.232384189258E+04    0.22413E-05   -0.65798E-06  2896   0.322E-03
   6 F= -.23452529E+04 E0= -.23452529E+04  d E =-.878077E-02  mag=     2.0000
       N       E                     dE             d eps       ncg     rms          rms(c)
DAV:   1    -0.232380560433E+04    0.36290E-01   -0.23394E+00  4560   0.153E+00    0.469E-01
RMM:   2    -0.232384599682E+04   -0.40392E-01   -0.41372E-01  6387   0.354E-01    0.453E-01
RMM:   3    -0.232384854957E+04   -0.25528E-02   -0.44958E-02  6227   0.129E-01    0.416E-01
RMM:   4    -0.232384697193E+04    0.15776E-02   -0.45497E-03  5791   0.325E-02    0.221E-01
RMM:   5    -0.232384670897E+04    0.26296E-03   -0.79536E-04  4386   0.153E-02    0.167E-01
RMM:   6    -0.232384643110E+04    0.27787E-03   -0.60575E-04  4669   0.162E-02    0.779E-02
RMM:   7    -0.232384641757E+04    0.13523E-04   -0.32784E-04  3856   0.131E-02    0.611E-02
RMM:   8    -0.232384635970E+04    0.57878E-04   -0.75447E-05  3170   0.635E-03    0.148E-02
RMM:   9    -0.232384635429E+04    0.54012E-05   -0.12970E-05  2923   0.449E-03
   7 F= -.23452588E+04 E0= -.23452588E+04  d E =-.146572E-01  mag=     2.0000
       N       E                     dE             d eps       ncg     rms          rms(c)
DAV:   1    -0.232384401275E+04    0.23469E-02   -0.42896E-01  4608   0.642E-01    0.191E-01
RMM:   2    -0.232385164185E+04   -0.76291E-02   -0.78656E-02  6403   0.146E-01    0.178E-01
RMM:   3    -0.232385232213E+04   -0.68027E-03   -0.83587E-03  5821   0.528E-02    0.202E-01
RMM:   4    -0.232385196601E+04    0.35612E-03   -0.87331E-04  3457   0.132E-02    0.823E-02
RMM:   5    -0.232385192592E+04    0.40089E-04   -0.13935E-04  2967   0.715E-03    0.658E-02
RMM:   6    -0.232385187282E+04    0.53101E-04   -0.10270E-04  3551   0.729E-03    0.218E-02
RMM:   7    -0.232385187731E+04   -0.44932E-05   -0.41241E-05  2969   0.610E-03
   8 F= -.23452647E+04 E0= -.23452647E+04  d E =-.591532E-02  mag=     2.0000
       N       E                     dE             d eps       ncg     rms          rms(c)
DAV:   1    -0.232379016476E+04    0.61708E-01   -0.38525E+00  4560   0.193E+00    0.574E-01
RMM:   2    -0.232385823463E+04   -0.68070E-01   -0.70507E-01  6452   0.436E-01    0.500E-01
RMM:   3    -0.232386455471E+04   -0.63201E-02   -0.77134E-02  6270   0.160E-01    0.569E-01
RMM:   4    -0.232386162736E+04    0.29273E-02   -0.77586E-03  5962   0.392E-02    0.256E-01
RMM:   5    -0.232386128251E+04    0.34484E-03   -0.12330E-03  4790   0.165E-02    0.205E-01
RMM:   6    -0.232386077021E+04    0.51230E-03   -0.83376E-04  4835   0.181E-02    0.613E-02
RMM:   7    -0.232386074563E+04    0.24583E-04   -0.27347E-04  4409   0.130E-02    0.224E-02
RMM:   8    -0.232386074071E+04    0.49122E-05   -0.28127E-05  3020   0.548E-03
   9 F= -.23452747E+04 E0= -.23452747E+04  d E =-.159568E-01  mag=     2.0000
       N       E                     dE             d eps       ncg     rms          rms(c)
DAV:   1    -0.232385140874E+04    0.93369E-02   -0.53236E-01  4672   0.715E-01    0.214E-01
RMM:   2    -0.232386090510E+04   -0.94964E-02   -0.97566E-02  6420   0.163E-01    0.205E-01
RMM:   3    -0.232386168864E+04   -0.78354E-03   -0.10379E-02  5878   0.573E-02    0.223E-01
RMM:   4    -0.232386125900E+04    0.42964E-03   -0.10981E-03  3788   0.147E-02    0.985E-02
RMM:   5    -0.232386119108E+04    0.67917E-04   -0.17660E-04  2982   0.773E-03    0.706E-02
RMM:   6    -0.232386114108E+04    0.49996E-04   -0.13451E-04  3714   0.810E-03    0.355E-02
RMM:   7    -0.232386113588E+04    0.52047E-05   -0.66742E-05  2992   0.686E-03
  10 F= -.23452756E+04 E0= -.23452756E+04  d E =-.167896E-01  mag=     2.0000
       N       E                     dE             d eps       ncg     rms          rms(c)
DAV:   1    -0.232385045055E+04    0.10691E-01   -0.90998E-01  4560   0.969E-01    0.334E-01
RMM:   2    -0.232386619488E+04   -0.15744E-01   -0.16597E-01  6257   0.224E-01    0.245E-01
RMM:   3    -0.232386837333E+04   -0.21784E-02   -0.18372E-02  6045   0.883E-02    0.404E-01
RMM:   4    -0.232386686614E+04    0.15072E-02   -0.20167E-03  5196   0.222E-02    0.113E-01
RMM:   5    -0.232386677938E+04    0.86757E-04   -0.46812E-04  3959   0.115E-02    0.997E-02
RMM:   6    -0.232386667603E+04    0.10335E-03   -0.33530E-04  4481   0.117E-02    0.560E-02
RMM:   7    -0.232386666093E+04    0.15109E-04   -0.12542E-04  3045   0.840E-03    0.457E-02
RMM:   8    -0.232386662796E+04    0.32969E-04   -0.32843E-05  2917   0.529E-03    0.982E-03
RMM:   9    -0.232386662526E+04    0.26973E-05   -0.69365E-06  2888   0.358E-03
  11 F= -.23452816E+04 E0= -.23452816E+04  d E =-.607762E-02  mag=     2.0000
       N       E                     dE             d eps       ncg     rms          rms(c)
DAV:   1    -0.232384962932E+04    0.16999E-01   -0.99142E-01  4544   0.101E+00    0.346E-01
RMM:   2    -0.232386678860E+04   -0.17159E-01   -0.18026E-01  6217   0.233E-01    0.262E-01
RMM:   3    -0.232386918262E+04   -0.23940E-02   -0.20106E-02  6019   0.927E-02    0.429E-01
RMM:   4    -0.232386747949E+04    0.17031E-02   -0.21840E-03  5294   0.232E-02    0.116E-01
RMM:   5    -0.232386738466E+04    0.94834E-04   -0.51296E-04  4120   0.120E-02    0.103E-01
RMM:   6    -0.232386726507E+04    0.11959E-03   -0.37909E-04  4604   0.122E-02    0.562E-02
RMM:   7    -0.232386725197E+04    0.13097E-04   -0.12943E-04  3049   0.867E-03    0.480E-02
RMM:   8    -0.232386721495E+04    0.37017E-04   -0.35124E-05  2919   0.526E-03    0.105E-02
RMM:   9    -0.232386721143E+04    0.35203E-05   -0.76203E-06  2894   0.364E-03
  12 F= -.23452828E+04 E0= -.23452828E+04  d E =-.727090E-02  mag=     2.0000
       N       E                     dE             d eps       ncg     rms          rms(c)
DAV:   1    -0.232384703908E+04    0.20176E-01   -0.10233E+00  4560   0.915E-01    0.327E-01
RMM:   2    -0.232386972366E+04   -0.22685E-01   -0.23807E-01  6528   0.234E-01    0.249E-01
RMM:   3    -0.232387221727E+04   -0.24936E-02   -0.26730E-02  6039   0.894E-02    0.358E-01
RMM:   4    -0.232387116664E+04    0.10506E-02   -0.27101E-03  4163   0.213E-02    0.137E-01
RMM:   5    -0.232387099536E+04    0.17128E-03   -0.41591E-04  3237   0.971E-03    0.938E-02
RMM:   6    -0.232387086919E+04    0.12618E-03   -0.30386E-04  4117   0.105E-02    0.344E-02
RMM:   7    -0.232387087550E+04   -0.63185E-05   -0.96840E-05  3149   0.713E-03
  13 F= -.23452876E+04 E0= -.23452876E+04  d E =-.480290E-02  mag=     2.0000
       N       E                     dE             d eps       ncg     rms          rms(c)
DAV:   1    -0.232378868477E+04    0.82184E-01   -0.34750E+00  4516   0.169E+00    0.606E-01
RMM:   2    -0.232386556320E+04   -0.76878E-01   -0.80949E-01  6531   0.429E-01    0.451E-01
RMM:   3    -0.232387402320E+04   -0.84600E-02   -0.91348E-02  6142   0.166E-01    0.635E-01
RMM:   4    -0.232387074050E+04    0.32827E-02   -0.91887E-03  5849   0.391E-02    0.266E-01
RMM:   5    -0.232387013228E+04    0.60822E-03   -0.14769E-03  4965   0.158E-02    0.175E-01
RMM:   6    -0.232386972333E+04    0.40895E-03   -0.10206E-03  5177   0.168E-02    0.733E-02
RMM:   7    -0.232386980232E+04   -0.78989E-04   -0.41643E-04  4190   0.116E-02    0.952E-02
RMM:   8    -0.232386967565E+04    0.12667E-03   -0.15318E-04  2998   0.742E-03    0.261E-02
RMM:   9    -0.232386966500E+04    0.10647E-04   -0.20504E-05  2934   0.451E-03    0.119E-02
RMM:  10    -0.232386966401E+04    0.99586E-06   -0.15075E-05  2932   0.298E-03
  14 F= -.23452885E+04 E0= -.23452885E+04  d E =-.567918E-02  mag=     2.0000
       N       E                     dE             d eps       ncg     rms          rms(c)
DAV:   1    -0.232385831962E+04    0.11345E-01   -0.56044E-01  4560   0.676E-01    0.243E-01
RMM:   2    -0.232387088932E+04   -0.12570E-01   -0.13074E-01  6508   0.174E-01    0.210E-01
RMM:   3    -0.232387221997E+04   -0.13307E-02   -0.14717E-02  5896   0.667E-02    0.289E-01
RMM:   4    -0.232387154014E+04    0.67984E-03   -0.15088E-03  3365   0.162E-02    0.996E-02
RMM:   5    -0.232387144301E+04    0.97128E-04   -0.24538E-04  3018   0.812E-03    0.696E-02
RMM:   6    -0.232387138295E+04    0.60062E-04   -0.18764E-04  3430   0.822E-03    0.325E-02
RMM:   7    -0.232387139967E+04   -0.16721E-04   -0.73696E-05  2999   0.626E-03    0.445E-02
RMM:   8    -0.232387137270E+04    0.26968E-04   -0.33562E-05  2912   0.456E-03    0.998E-03
RMM:   9    -0.232387137137E+04    0.13261E-05   -0.48421E-06  2876   0.269E-03
  15 F= -.23452894E+04 E0= -.23452894E+04  d E =-.655011E-02  mag=     2.0000
       N       E                     dE             d eps       ncg     rms          rms(c)
DAV:   1    -0.232385807200E+04    0.13301E-01   -0.98632E-01  4528   0.100E+00    0.363E-01
RMM:   2    -0.232387504368E+04   -0.16972E-01   -0.17915E-01  6208   0.237E-01    0.255E-01
RMM:   3    -0.232387691941E+04   -0.18757E-02   -0.19300E-02  5952   0.954E-02    0.336E-01
RMM:   4    -0.232387581407E+04    0.11053E-02   -0.20295E-03  5360   0.235E-02    0.141E-01
RMM:   5    -0.232387577131E+04    0.42767E-04   -0.56243E-04  4091   0.129E-02    0.126E-01
RMM:   6    -0.232387559354E+04    0.17777E-03   -0.33843E-04  4579   0.118E-02    0.600E-02
RMM:   7    -0.232387557621E+04    0.17328E-04   -0.15839E-04  3212   0.916E-03    0.449E-02
RMM:   8    -0.232387554365E+04    0.32565E-04   -0.37805E-05  2947   0.569E-03    0.103E-02
RMM:   9    -0.232387554141E+04    0.22366E-05   -0.85103E-06  2901   0.370E-03
  16 F= -.23452948E+04 E0= -.23452948E+04  d E =-.541458E-02  mag=     2.0000
       N       E                     dE             d eps       ncg     rms          rms(c)
DAV:   1    -0.232387403614E+04    0.15075E-02   -0.77887E-02  4888   0.282E-01    0.102E-01
RMM:   2    -0.232387539180E+04   -0.13557E-02   -0.14237E-02  6203   0.677E-02    0.765E-02
RMM:   3    -0.232387553613E+04   -0.14434E-03   -0.15263E-03  3914   0.271E-02    0.982E-02
RMM:   4    -0.232387544362E+04    0.92517E-04   -0.16318E-04  2956   0.784E-03    0.410E-02
RMM:   5    -0.232387543753E+04    0.60894E-05   -0.46334E-05  2945   0.465E-03
  17 F= -.23452951E+04 E0= -.23452951E+04  d E =-.566064E-02  mag=     2.0000
       N       E                     dE             d eps       ncg     rms          rms(c)
DAV:   1    -0.232386460764E+04    0.10836E-01   -0.77048E-01  4528   0.879E-01    0.272E-01
RMM:   2    -0.232387898432E+04   -0.14377E-01   -0.14217E-01  6347   0.202E-01    0.349E-01
RMM:   3    -0.232387923185E+04   -0.24753E-03   -0.16235E-02  5921   0.812E-02    0.239E-01
RMM:   4    -0.232387876466E+04    0.46719E-03   -0.14933E-03  4822   0.185E-02    0.129E-01
RMM:   5    -0.232387864688E+04    0.11779E-03   -0.26952E-04  3021   0.929E-03    0.812E-02
RMM:   6    -0.232387855402E+04    0.92861E-04   -0.21939E-04  4303   0.102E-02    0.381E-02
RMM:   7    -0.232387855819E+04   -0.41698E-05   -0.94671E-05  3002   0.880E-03
  18 F= -.23452988E+04 E0= -.23452988E+04  d E =-.375659E-02  mag=     2.0000
       N       E                     dE             d eps       ncg     rms          rms(c)
DAV:   1    -0.232385570198E+04    0.22852E-01   -0.12188E+00  4516   0.111E+00    0.345E-01
RMM:   2    -0.232387832049E+04   -0.22619E-01   -0.22553E-01  6341   0.254E-01    0.437E-01
RMM:   3    -0.232387892880E+04   -0.60831E-03   -0.25756E-02  5994   0.105E-01    0.314E-01
RMM:   4    -0.232387811732E+04    0.81149E-03   -0.23641E-03  5325   0.236E-02    0.156E-01
RMM:   5    -0.232387794503E+04    0.17228E-03   -0.43863E-04  3276   0.114E-02    0.103E-01
RMM:   6    -0.232387778059E+04    0.16444E-03   -0.32259E-04  4517   0.122E-02    0.408E-02
RMM:   7    -0.232387777919E+04    0.13963E-05   -0.12727E-04  3587   0.102E-02    0.353E-02
RMM:   8    -0.232387776184E+04    0.17353E-04   -0.34722E-05  2911   0.494E-03    0.111E-02
RMM:   9    -0.232387775841E+04    0.34302E-05   -0.66685E-06  2891   0.331E-03
  19 F= -.23452988E+04 E0= -.23452988E+04  d E =-.376283E-02  mag=     2.0000
       N       E                     dE             d eps       ncg     rms          rms(c)
DAV:   1    -0.232387407848E+04    0.36834E-02   -0.26035E-01  4544   0.510E-01    0.157E-01
RMM:   2    -0.232387884642E+04   -0.47679E-02   -0.47792E-02  6318   0.117E-01    0.194E-01
RMM:   3    -0.232387902535E+04   -0.17893E-03   -0.54680E-03  5239   0.456E-02    0.148E-01
RMM:   4    -0.232387884227E+04    0.18309E-03   -0.49601E-04  3164   0.111E-02    0.724E-02
RMM:   5    -0.232387880321E+04    0.39052E-04   -0.91176E-05  2956   0.626E-03    0.470E-02
RMM:   6    -0.232387876791E+04    0.35307E-04   -0.79006E-05  3424   0.639E-03    0.170E-02
RMM:   7    -0.232387876651E+04    0.13961E-05   -0.22135E-05  2960   0.529E-03
  20 F= -.23452995E+04 E0= -.23452995E+04  d E =-.439804E-02  mag=     2.0000
       N       E                     dE             d eps       ncg     rms          rms(c)
DAV:   1    -0.232386918977E+04    0.95781E-02   -0.74978E-01  4528   0.871E-01    0.250E-01
RMM:   2    -0.232388146499E+04   -0.12275E-01   -0.12530E-01  6298   0.192E-01    0.269E-01
RMM:   3    -0.232388234234E+04   -0.87735E-03   -0.13667E-02  5870   0.746E-02    0.249E-01
RMM:   4    -0.232388176809E+04    0.57426E-03   -0.13070E-03  4729   0.177E-02    0.105E-01
RMM:   5    -0.232388172331E+04    0.44780E-04   -0.23581E-04  3025   0.889E-03    0.854E-02
RMM:   6    -0.232388161236E+04    0.11094E-03   -0.19364E-04  4087   0.966E-03    0.289E-02
RMM:   7    -0.232388160642E+04    0.59458E-05   -0.66953E-05  3203   0.765E-03
  21 F= -.23453026E+04 E0= -.23453026E+04  d E =-.316156E-02  mag=     2.0000
       N       E                     dE             d eps       ncg     rms          rms(c)
DAV:   1    -0.232385488699E+04    0.26725E-01   -0.15940E+00  4516   0.127E+00    0.369E-01
RMM:   2    -0.232388109832E+04   -0.26211E-01   -0.26783E-01  6365   0.281E-01    0.398E-01
RMM:   3    -0.232388295513E+04   -0.18568E-02   -0.29359E-02  6002   0.111E-01    0.367E-01
RMM:   4    -0.232388171684E+04    0.12383E-02   -0.28116E-03  5484   0.261E-02    0.154E-01
RMM:   5    -0.232388162751E+04    0.89325E-04   -0.51418E-04  3621   0.124E-02    0.126E-01
RMM:   6    -0.232388139367E+04    0.23384E-03   -0.39280E-04  4542   0.129E-02    0.441E-02
RMM:   7    -0.232388138353E+04    0.10139E-04   -0.15143E-04  3896   0.106E-02    0.318E-02
RMM:   8    -0.232388137126E+04    0.12276E-04   -0.35424E-05  2922   0.509E-03    0.138E-02
RMM:   9    -0.232388136625E+04    0.50060E-05   -0.70732E-06  2892   0.336E-03
  22 F= -.23453028E+04 E0= -.23453028E+04  d E =-.339148E-02  mag=     2.0000
       N       E                     dE             d eps       ncg     rms          rms(c)
DAV:   1    -0.232387721722E+04    0.41540E-02   -0.29525E-01  4528   0.547E-01    0.157E-01
RMM:   2    -0.232388202526E+04   -0.48080E-02   -0.49249E-02  6344   0.121E-01    0.164E-01
RMM:   3    -0.232388239646E+04   -0.37120E-03   -0.53765E-03  5251   0.456E-02    0.158E-01
RMM:   4    -0.232388216247E+04    0.23399E-03   -0.50983E-04  3180   0.114E-02    0.670E-02
RMM:   5    -0.232388214305E+04    0.19419E-04   -0.94965E-05  2964   0.644E-03    0.528E-02
RMM:   6    -0.232388210256E+04    0.40492E-04   -0.80637E-05  3238   0.643E-03    0.184E-02
RMM:   7    -0.232388210094E+04    0.16169E-05   -0.24943E-05  2966   0.537E-03
  23 F= -.23453034E+04 E0= -.23453034E+04  d E =-.392384E-02  mag=     2.0000
       N       E                     dE             d eps       ncg     rms          rms(c)
DAV:   1    -0.232386941809E+04    0.12684E-01   -0.96139E-01  4516   0.101E+00    0.289E-01
RMM:   2    -0.232388348584E+04   -0.14068E-01   -0.15082E-01  6199   0.218E-01    0.179E-01
RMM:   3    -0.232388502602E+04   -0.15402E-02   -0.15638E-02  5907   0.863E-02    0.260E-01
RMM:   4    -0.232388447332E+04    0.55270E-03   -0.15662E-03  4922   0.195E-02    0.111E-01
RMM:   5    -0.232388436663E+04    0.10669E-03   -0.32548E-04  4232   0.121E-02    0.713E-02
RMM:   6    -0.232388434642E+04    0.20205E-04   -0.23879E-04  3657   0.102E-02    0.618E-02
RMM:   7    -0.232388430221E+04    0.44213E-04   -0.73952E-05  3285   0.716E-03    0.244E-02
RMM:   8    -0.232388429427E+04    0.79348E-05   -0.23147E-05  2906   0.526E-03
  24 F= -.23453059E+04 E0= -.23453059E+04  d E =-.254664E-02  mag=     2.0000
       N       E                     dE             d eps       ncg     rms          rms(c)
DAV:   1    -0.232388384587E+04    0.45634E-03   -0.26485E-02  5000   0.168E-01    0.503E-02
RMM:   2    -0.232388424540E+04   -0.39953E-03   -0.42732E-03  6335   0.375E-02    0.390E-02
RMM:   3    -0.232388429471E+04   -0.49310E-04   -0.44256E-04  3013   0.139E-02    0.558E-02
RMM:   4    -0.232388426609E+04    0.28628E-04   -0.46339E-05  2926   0.469E-03    0.173E-02
RMM:   5    -0.232388426554E+04    0.54964E-06   -0.13167E-05  2887   0.270E-03
  25 F= -.23453060E+04 E0= -.23453060E+04  d E =-.257658E-02  mag=     2.0000
       N       E                     dE             d eps       ncg     rms          rms(c)
DAV:   1    -0.232387896775E+04    0.52983E-02   -0.45298E-01  4528   0.702E-01    0.193E-01
RMM:   2    -0.232388529369E+04   -0.63259E-02   -0.67802E-02  6303   0.148E-01    0.119E-01
RMM:   3    -0.232388586678E+04   -0.57308E-03   -0.68498E-03  5763   0.565E-02    0.146E-01
RMM:   4    -0.232388566572E+04    0.20106E-03   -0.66232E-04  3409   0.130E-02    0.691E-02
RMM:   5    -0.232388566100E+04    0.47131E-05   -0.16435E-04  3056   0.879E-03    0.687E-02
RMM:   6    -0.232388560683E+04    0.54173E-04   -0.11101E-04  3623   0.751E-03    0.439E-02
RMM:   7    -0.232388559859E+04    0.82398E-05   -0.64393E-05  2922   0.656E-03
  26 F= -.23453077E+04 E0= -.23453077E+04  d E =-.176421E-02  mag=     2.0000
       N       E                     dE             d eps       ncg     rms          rms(c)
DAV:   1    -0.232387634951E+04    0.92573E-02   -0.57807E-01  4528   0.792E-01    0.221E-01
RMM:   2    -0.232388444002E+04   -0.80905E-02   -0.86821E-02  6330   0.168E-01    0.139E-01
RMM:   3    -0.232388524727E+04   -0.80725E-03   -0.90804E-03  5834   0.662E-02    0.180E-01
RMM:   4    -0.232388491183E+04    0.33544E-03   -0.86955E-04  3816   0.151E-02    0.717E-02
RMM:   5    -0.232388489718E+04    0.14649E-04   -0.20201E-04  3302   0.954E-03    0.720E-02
RMM:   6    -0.232388484313E+04    0.54054E-04   -0.13778E-04  3872   0.808E-03    0.541E-02
RMM:   7    -0.232388483004E+04    0.13093E-04   -0.85952E-05  2925   0.691E-03    0.412E-02
RMM:   8    -0.232388481100E+04    0.19034E-04   -0.19045E-05  2905   0.482E-03    0.722E-03
RMM:   9    -0.232388480949E+04    0.15129E-05   -0.44832E-06  2859   0.288E-03
  27 F= -.23453074E+04 E0= -.23453074E+04  d E =-.146530E-02  mag=     2.0000
       N       E                     dE             d eps       ncg     rms          rms(c)
DAV:   1    -0.232388282267E+04    0.19883E-02   -0.18713E-01  4528   0.450E-01    0.124E-01
RMM:   2    -0.232388542216E+04   -0.25995E-02   -0.27887E-02  6330   0.948E-02    0.753E-02
RMM:   3    -0.232388567813E+04   -0.25597E-03   -0.28644E-03  4712   0.355E-02    0.992E-02
RMM:   4    -0.232388557043E+04    0.10770E-03   -0.27643E-04  2993   0.913E-03    0.375E-02
RMM:   5    -0.232388556269E+04    0.77471E-05   -0.65745E-05  2960   0.589E-03
  28 F= -.23453079E+04 E0= -.23453079E+04  d E =-.193979E-02  mag=     2.0000
       N       E                     dE             d eps       ncg     rms          rms(c)
DAV:   1    -0.232388110012E+04    0.44703E-02   -0.38420E-01  4528   0.654E-01    0.191E-01
RMM:   2    -0.232388668602E+04   -0.55859E-02   -0.56236E-02  6225   0.139E-01    0.220E-01
RMM:   3    -0.232388702805E+04   -0.34203E-03   -0.57101E-03  5788   0.518E-02    0.198E-01
RMM:   4    -0.232388664176E+04    0.38629E-03   -0.58415E-04  4116   0.133E-02    0.622E-02
RMM:   5    -0.232388662086E+04    0.20901E-04   -0.14235E-04  3009   0.780E-03    0.545E-02
RMM:   6    -0.232388657834E+04    0.42515E-04   -0.12042E-04  3655   0.794E-03    0.209E-02
RMM:   7    -0.232388658318E+04   -0.48323E-05   -0.30737E-05  2944   0.592E-03
  29 F= -.23453093E+04 E0= -.23453093E+04  d E =-.140741E-02  mag=     2.0000
       N       E                     dE             d eps       ncg     rms          rms(c)
DAV:   1    -0.232388087391E+04    0.57044E-02   -0.35823E-01  4528   0.632E-01    0.183E-01
RMM:   2    -0.232388591451E+04   -0.50406E-02   -0.52582E-02  6329   0.135E-01    0.160E-01
RMM:   3    -0.232388642794E+04   -0.51343E-03   -0.53347E-03  5667   0.518E-02    0.192E-01
RMM:   4    -0.232388609346E+04    0.33448E-03   -0.56907E-04  3628   0.130E-02    0.697E-02
RMM:   5    -0.232388606678E+04    0.26685E-04   -0.14522E-04  2972   0.802E-03    0.520E-02
RMM:   6    -0.232388602515E+04    0.41625E-04   -0.11027E-04  3689   0.773E-03    0.176E-02
RMM:   7    -0.232388602183E+04    0.33247E-05   -0.21717E-05  2962   0.570E-03
  30 F= -.23453091E+04 E0= -.23453091E+04  d E =-.122387E-02  mag=     2.0000
       N       E                     dE             d eps       ncg     rms          rms(c)
DAV:   1    -0.232388505047E+04    0.97468E-03   -0.10249E-01  4528   0.338E-01    0.962E-02
RMM:   2    -0.232388648249E+04   -0.14320E-02   -0.14871E-02  6274   0.717E-02    0.879E-02
RMM:   3    -0.232388661574E+04   -0.13325E-03   -0.14931E-03  3892   0.254E-02    0.999E-02
RMM:   4    -0.232388652394E+04    0.91804E-04   -0.15859E-04  2965   0.776E-03    0.386E-02
RMM:   5    -0.232388651480E+04    0.91323E-05   -0.40722E-05  2932   0.460E-03
  31 F= -.23453094E+04 E0= -.23453094E+04  d E =-.151521E-02  mag=     2.0000
       N       E                     dE             d eps       ncg     rms          rms(c)
DAV:   1    -0.232388142548E+04    0.50985E-02   -0.38696E-01  4528   0.636E-01    0.197E-01
RMM:   2    -0.232388842962E+04   -0.70041E-02   -0.65007E-02  6356   0.141E-01    0.337E-01
RMM:   3    -0.232388798894E+04    0.44068E-03   -0.68528E-03  5750   0.520E-02    0.144E-01
RMM:   4    -0.232388781288E+04    0.17606E-03   -0.65510E-04  3893   0.127E-02    0.733E-02
RMM:   5    -0.232388777573E+04    0.37146E-04   -0.11937E-04  2957   0.729E-03    0.586E-02
RMM:   6    -0.232388774383E+04    0.31895E-04   -0.12540E-04  3868   0.772E-03    0.420E-02
RMM:   7    -0.232388772888E+04    0.14956E-04   -0.50903E-05  2921   0.663E-03    0.224E-02
RMM:   8    -0.232388772178E+04    0.70941E-05   -0.10546E-05  2905   0.307E-03
  32 F= -.23453108E+04 E0= -.23453108E+04  d E =-.135141E-02  mag=     2.0000
       N       E                     dE             d eps       ncg     rms          rms(c)
DAV:   1    -0.232388570560E+04    0.20233E-02   -0.12822E-01  4528   0.367E-01    0.115E-01
RMM:   2    -0.232388805122E+04   -0.23456E-02   -0.21765E-02  6297   0.819E-02    0.195E-01
RMM:   3    -0.232388789408E+04    0.15713E-03   -0.22830E-03  4318   0.287E-02    0.834E-02
RMM:   4    -0.232388783931E+04    0.54776E-04   -0.22087E-04  3011   0.806E-03    0.463E-02
RMM:   5    -0.232388782385E+04    0.15463E-04   -0.44046E-05  2924   0.485E-03    0.335E-02
RMM:   6    -0.232388781418E+04    0.96704E-05   -0.44080E-05  2983   0.482E-03
  33 F= -.23453109E+04 E0= -.23453109E+04  d E =-.152894E-02  mag=     2.0000
       N       E                     dE             d eps       ncg     rms          rms(c)
DAV:   1    -0.232388126038E+04    0.65635E-02   -0.46334E-01  4528   0.692E-01    0.222E-01
RMM:   2    -0.232388955721E+04   -0.82968E-02   -0.76115E-02  6202   0.154E-01    0.382E-01
RMM:   3    -0.232388889175E+04    0.66547E-03   -0.83160E-03  5849   0.594E-02    0.158E-01
RMM:   4    -0.232388868842E+04    0.20333E-03   -0.78761E-04  4459   0.141E-02    0.868E-02
RMM:   5    -0.232388864808E+04    0.40342E-04   -0.16584E-04  2966   0.849E-03    0.704E-02
RMM:   6    -0.232388858294E+04    0.65143E-04   -0.16750E-04  4139   0.914E-03    0.334E-02
RMM:   7    -0.232388858019E+04    0.27423E-05   -0.52125E-05  2929   0.750E-03
  34 F= -.23453119E+04 E0= -.23453119E+04  d E =-.937748E-03  mag=     2.0000
       N       E                     dE             d eps       ncg     rms          rms(c)
DAV:   1    -0.232388856849E+04    0.14447E-04   -0.11419E-03  5304   0.344E-02    0.102E-02
RMM:   2    -0.232388858450E+04   -0.16015E-04   -0.17272E-04  3481   0.816E-03    0.836E-03
RMM:   3    -0.232388858591E+04   -0.14028E-05   -0.17440E-05  2826   0.466E-03
  35 F= -.23453119E+04 E0= -.23453119E+04  d E =-.935095E-03  mag=     2.0000
       N       E                     dE             d eps       ncg     rms          rms(c)
DAV:   1    -0.232388692742E+04    0.16571E-02   -0.16162E-01  4528   0.420E-01    0.133E-01
RMM:   2    -0.232388932878E+04   -0.24014E-02   -0.22846E-02  6178   0.908E-02    0.193E-01
RMM:   3    -0.232388925219E+04    0.76588E-04   -0.23992E-03  5107   0.342E-02    0.116E-01
RMM:   4    -0.232388910785E+04    0.14434E-03   -0.22570E-04  3178   0.925E-03    0.345E-02
RMM:   5    -0.232388910093E+04    0.69235E-05   -0.80305E-05  3267   0.742E-03
  36 F= -.23453125E+04 E0= -.23453125E+04  d E =-.583731E-03  mag=     2.0000
       N       E                     dE             d eps       ncg     rms          rms(c)
DAV:   1    -0.232388782401E+04    0.12838E-02   -0.80278E-02  4528   0.297E-01    0.935E-02
RMM:   2    -0.232388896958E+04   -0.11456E-02   -0.11510E-02  6378   0.668E-02    0.111E-01
RMM:   3    -0.232388901166E+04   -0.42081E-04   -0.12230E-03  4007   0.247E-02    0.916E-02
RMM:   4    -0.232388893284E+04    0.78826E-04   -0.12167E-04  2958   0.781E-03    0.348E-02
RMM:   5    -0.232388893096E+04    0.18794E-05   -0.47233E-05  2936   0.530E-03
  37 F= -.23453123E+04 E0= -.23453123E+04  d E =-.463264E-03  mag=     2.0000
       N       E                     dE             d eps       ncg     rms          rms(c)
DAV:   1    -0.232388864634E+04    0.28650E-03   -0.32513E-02  4544   0.188E-01    0.610E-02
RMM:   2    -0.232388917262E+04   -0.52628E-03   -0.45996E-03  6376   0.421E-02    0.108E-01
RMM:   3    -0.232388909783E+04    0.74797E-04   -0.47292E-04  3075   0.140E-02    0.432E-02
RMM:   4    -0.232388908180E+04    0.16021E-04   -0.51361E-05  2957   0.515E-03    0.251E-02
RMM:   5    -0.232388907633E+04    0.54746E-05   -0.13982E-05  2869   0.308E-03
  38 F= -.23453124E+04 E0= -.23453124E+04  d E =-.577740E-03  mag=     2.0000
       N       E                     dE             d eps       ncg     rms          rms(c)
DAV:   1    -0.232388832317E+04    0.75864E-03   -0.90823E-02  4528   0.308E-01    0.895E-02
RMM:   2    -0.232388961876E+04   -0.12956E-02   -0.12541E-02  6460   0.662E-02    0.129E-01
RMM:   3    -0.232388959094E+04    0.27826E-04   -0.13528E-03  3942   0.234E-02    0.766E-02
RMM:   4    -0.232388953998E+04    0.50954E-04   -0.13457E-04  2988   0.714E-03    0.383E-02
RMM:   5    -0.232388952979E+04    0.10196E-04   -0.34095E-05  2913   0.426E-03    0.258E-02
RMM:   6    -0.232388952834E+04    0.14457E-05   -0.29441E-05  2980   0.392E-03
  39 F= -.23453129E+04 E0= -.23453129E+04  d E =-.495249E-03  mag=     2.0000
       N       E                     dE             d eps       ncg     rms          rms(c)
DAV:   1    -0.232388690123E+04    0.26286E-02   -0.20716E-01  4528   0.465E-01    0.131E-01
RMM:   2    -0.232388964205E+04   -0.27408E-02   -0.28442E-02  6312   0.989E-02    0.134E-01
RMM:   3    -0.232388988271E+04   -0.24066E-03   -0.30844E-03  5071   0.370E-02    0.141E-01
RMM:   4    -0.232388969174E+04    0.19098E-03   -0.28968E-04  3064   0.950E-03    0.488E-02
RMM:   5    -0.232388970261E+04   -0.10877E-04   -0.88726E-05  2953   0.631E-03    0.537E-02
RMM:   6    -0.232388966532E+04    0.37292E-04   -0.69126E-05  3148   0.607E-03    0.194E-02
RMM:   7    -0.232388966533E+04   -0.10856E-07   -0.22873E-05  2917   0.494E-03
  40 F= -.23453131E+04 E0= -.23453131E+04  d E =-.698809E-03  mag=     2.0000
       N       E                     dE             d eps       ncg     rms          rms(c)
DAV:   1    -0.232388832429E+04    0.13410E-02   -0.15803E-01  4528   0.411E-01    0.116E-01
RMM:   2    -0.232389024020E+04   -0.19159E-02   -0.20266E-02  6348   0.863E-02    0.955E-02
RMM:   3    -0.232389046595E+04   -0.22575E-03   -0.22004E-03  4709   0.319E-02    0.126E-01
RMM:   4    -0.232389030330E+04    0.16265E-03   -0.21876E-04  2987   0.889E-03    0.418E-02
RMM:   5    -0.232389031324E+04   -0.99392E-05   -0.67226E-05  2953   0.574E-03
  41 F= -.23453138E+04 E0= -.23453138E+04  d E =-.655272E-03  mag=     2.0000
       N       E                     dE             d eps       ncg     rms          rms(c)
DAV:   1    -0.232388853233E+04    0.17710E-02   -0.15094E-01  4528   0.402E-01    0.114E-01
RMM:   2    -0.232389038154E+04   -0.18492E-02   -0.19510E-02  6440   0.850E-02    0.966E-02
RMM:   3    -0.232389058063E+04   -0.19909E-03   -0.21768E-03  4669   0.314E-02    0.116E-01
RMM:   4    -0.232389042618E+04    0.15444E-03   -0.20847E-04  2985   0.889E-03    0.406E-02
RMM:   5    -0.232389044689E+04   -0.20707E-04   -0.76552E-05  2941   0.606E-03    0.603E-02
RMM:   6    -0.232389040765E+04    0.39242E-04   -0.50887E-05  3047   0.572E-03    0.122E-02
RMM:   7    -0.232389040800E+04   -0.35623E-06   -0.11749E-05  2921   0.461E-03
  42 F= -.23453139E+04 E0= -.23453139E+04  d E =-.757661E-03  mag=     2.0000
       N       E                     dE             d eps       ncg     rms          rms(c)
DAV:   1    -0.232388789082E+04    0.25168E-02   -0.20682E-01  4528   0.458E-01    0.133E-01
RMM:   2    -0.232389075730E+04   -0.28665E-02   -0.30827E-02  6398   0.985E-02    0.978E-02
RMM:   3    -0.232389113249E+04   -0.37519E-03   -0.33285E-03  4987   0.368E-02    0.152E-01
RMM:   4    -0.232389092076E+04    0.21173E-03   -0.33507E-04  3011   0.962E-03    0.453E-02
RMM:   5    -0.232389092831E+04   -0.75479E-05   -0.95562E-05  2976   0.673E-03
  43 F= -.23453145E+04 E0= -.23453145E+04  d E =-.570598E-03  mag=     2.0000
       N       E                     dE             d eps       ncg     rms          rms(c)
DAV:   1    -0.232388995071E+04    0.97005E-03   -0.65245E-02  4560   0.258E-01    0.784E-02
RMM:   2    -0.232389090744E+04   -0.95673E-03   -0.99810E-03  6479   0.571E-02    0.739E-02
RMM:   3    -0.232389097973E+04   -0.72289E-04   -0.11024E-03  3528   0.210E-02    0.729E-02
RMM:   4    -0.232389091496E+04    0.64768E-04   -0.10355E-04  2950   0.689E-03    0.257E-02
RMM:   5    -0.232389092548E+04   -0.10522E-04   -0.45653E-05  2933   0.474E-03    0.449E-02
RMM:   6    -0.232389090849E+04    0.16993E-04   -0.21559E-05  2928   0.427E-03    0.127E-02
RMM:   7    -0.232389090766E+04    0.82831E-06   -0.61115E-06  2876   0.272E-03
  44 F= -.23453145E+04 E0= -.23453145E+04  d E =-.579025E-03  mag=     2.0000
       N       E                     dE             d eps       ncg     rms          rms(c)
DAV:   1    -0.232388862758E+04    0.22809E-02   -0.15561E-01  4528   0.389E-01    0.122E-01
RMM:   2    -0.232389115265E+04   -0.25251E-02   -0.26801E-02  6334   0.865E-02    0.106E-01
RMM:   3    -0.232389146808E+04   -0.31543E-03   -0.29061E-03  4619   0.324E-02    0.152E-01
RMM:   4    -0.232389126224E+04    0.20584E-03   -0.28730E-04  2976   0.910E-03    0.382E-02
RMM:   5    -0.232389125290E+04    0.93413E-05   -0.78033E-05  3035   0.653E-03
  45 F= -.23453150E+04 E0= -.23453150E+04  d E =-.492137E-03  mag=     2.0000
       N       E                     dE             d eps       ncg     rms          rms(c)
DAV:   1    -0.232389063053E+04    0.63172E-03   -0.33604E-02  4688   0.181E-01    0.618E-02
RMM:   2    -0.232389123904E+04   -0.60851E-03   -0.59770E-03  6482   0.429E-02    0.795E-02
RMM:   3    -0.232389123378E+04    0.52579E-05   -0.67890E-04  3079   0.155E-02    0.523E-02
RMM:   4    -0.232389120720E+04    0.26581E-04   -0.60500E-05  2936   0.533E-03    0.263E-02
RMM:   5    -0.232389120803E+04   -0.82690E-06   -0.18224E-05  2904   0.291E-03
  46 F= -.23453150E+04 E0= -.23453150E+04  d E =-.516538E-03  mag=     2.0000
       N       E                     dE             d eps       ncg     rms          rms(c)
DAV:   1    -0.232388951621E+04    0.16910E-02   -0.12561E-01  4528   0.362E-01    0.113E-01
RMM:   2    -0.232389132636E+04   -0.18101E-02   -0.19221E-02  6261   0.772E-02    0.935E-02
RMM:   3    -0.232389157026E+04   -0.24390E-03   -0.21358E-03  4503   0.299E-02    0.141E-01
RMM:   4    -0.232389138275E+04    0.18751E-03   -0.21036E-04  2954   0.858E-03    0.341E-02
RMM:   5    -0.232389137720E+04    0.55475E-05   -0.78562E-05  3073   0.625E-03
  47 F= -.23453154E+04 E0= -.23453154E+04  d E =-.393280E-03  mag=     2.0000
       N       E                     dE             d eps       ncg     rms          rms(c)
DAV:   1    -0.232389107399E+04    0.30876E-03   -0.14169E-02  4848   0.122E-01    0.412E-02
RMM:   2    -0.232389129702E+04   -0.22303E-03   -0.22931E-03  6220   0.284E-02    0.425E-02
RMM:   3    -0.232389131121E+04   -0.14191E-04   -0.24853E-04  2952   0.107E-02    0.453E-02
RMM:   4    -0.232389129196E+04    0.19248E-04   -0.27204E-05  2919   0.411E-03    0.184E-02
RMM:   5    -0.232389129017E+04    0.17964E-05   -0.94575E-06  2854   0.214E-03
  48 F= -.23453154E+04 E0= -.23453154E+04  d E =-.382615E-03  mag=     2.0000
       N       E                     dE             d eps       ncg     rms          rms(c)
DAV:   1    -0.232388986738E+04    0.14246E-02   -0.13104E-01  4528   0.374E-01    0.106E-01
RMM:   2    -0.232389135503E+04   -0.14876E-02   -0.15916E-02  6180   0.751E-02    0.778E-02
RMM:   3    -0.232389152177E+04   -0.16675E-03   -0.18666E-03  4263   0.303E-02    0.101E-01
RMM:   4    -0.232389140074E+04    0.12103E-03   -0.17170E-04  2961   0.835E-03    0.341E-02
RMM:   5    -0.232389141980E+04   -0.19059E-04   -0.76535E-05  2989   0.587E-03    0.587E-02
RMM:   6    -0.232389138607E+04    0.33733E-04   -0.49920E-05  2957   0.580E-03    0.256E-02
RMM:   7    -0.232389138065E+04    0.54220E-05   -0.18788E-05  2913   0.446E-03
  49 F= -.23453157E+04 E0= -.23453157E+04  d E =-.339564E-03  mag=     2.0000
       N       E                     dE             d eps       ncg     rms          rms(c)
DAV:   1    -0.232389110669E+04    0.27938E-03   -0.15964E-02  4656   0.131E-01    0.375E-02
RMM:   2    -0.232389128859E+04   -0.18189E-03   -0.19893E-03  6221   0.280E-02    0.225E-02
RMM:   3    -0.232389131140E+04   -0.22812E-04   -0.22670E-04  2948   0.111E-02    0.359E-02
RMM:   4    -0.232389129930E+04    0.12096E-04   -0.21574E-05  2926   0.356E-03    0.127E-02
RMM:   5    -0.232389130122E+04   -0.19220E-05   -0.92460E-06  2885   0.212E-03
  50 F= -.23453157E+04 E0= -.23453157E+04  d E =-.347432E-03  mag=     2.0000
       N       E                     dE             d eps       ncg     rms          rms(c)
DAV:   1    -0.232389070736E+04    0.59194E-03   -0.90351E-02  4528   0.311E-01    0.849E-02
RMM:   2    -0.232389150188E+04   -0.79452E-03   -0.85135E-03  6059   0.596E-02    0.604E-02
RMM:   3    -0.232389160579E+04   -0.10391E-03   -0.92203E-04  3771   0.232E-02    0.919E-02
RMM:   4    -0.232389151672E+04    0.89077E-04   -0.10040E-04  2943   0.699E-03    0.300E-02
RMM:   5    -0.232389153155E+04   -0.14835E-04   -0.49900E-05  2945   0.483E-03    0.466E-02
RMM:   6    -0.232389150546E+04    0.26095E-04   -0.28861E-05  2964   0.462E-03    0.668E-03
RMM:   7    -0.232389150522E+04    0.23207E-06   -0.47378E-06  2870   0.328E-03
  51 F= -.23453161E+04 E0= -.23453161E+04  d E =-.374143E-03  mag=     2.0000
       N       E                     dE             d eps       ncg     rms          rms(c)
DAV:   1    -0.232389074902E+04    0.75643E-03   -0.76927E-02  4528   0.287E-01    0.782E-02
RMM:   2    -0.232389142214E+04   -0.67311E-03   -0.72671E-03  6180   0.559E-02    0.493E-02
RMM:   3    -0.232389150437E+04   -0.82234E-04   -0.75544E-04  3656   0.213E-02    0.764E-02
RMM:   4    -0.232389144480E+04    0.59566E-04   -0.83330E-05  2945   0.641E-03    0.274E-02
RMM:   5    -0.232389145525E+04   -0.10441E-04   -0.40619E-05  2940   0.454E-03    0.407E-02
RMM:   6    -0.232389143563E+04    0.19618E-04   -0.21338E-05  2934   0.417E-03    0.864E-03
RMM:   7    -0.232389143551E+04    0.12048E-06   -0.54757E-06  2877   0.282E-03
  52 F= -.23453162E+04 E0= -.23453162E+04  d E =-.461522E-03  mag=     2.0000
       N       E                     dE             d eps       ncg     rms          rms(c)
DAV:   1    -0.232389089781E+04    0.53782E-03   -0.96847E-02  4528   0.320E-01    0.866E-02
RMM:   2    -0.232389176370E+04   -0.86589E-03   -0.87640E-03  6129   0.621E-02    0.926E-02
RMM:   3    -0.232389181698E+04   -0.53288E-04   -0.89651E-04  3823   0.232E-02    0.955E-02
RMM:   4    -0.232389172599E+04    0.90991E-04   -0.96041E-05  2949   0.734E-03    0.255E-02
RMM:   5    -0.232389172861E+04   -0.26132E-05   -0.47902E-05  2969   0.565E-03
  53 F= -.23453166E+04 E0= -.23453166E+04  d E =-.438776E-03  mag=     2.0000
       N       E                     dE             d eps       ncg     rms          rms(c)
DAV:   1    -0.232389065618E+04    0.10698E-02   -0.11634E-01  4528   0.351E-01    0.964E-02
RMM:   2    -0.232389172392E+04   -0.10677E-02   -0.10681E-02  6302   0.700E-02    0.108E-01
RMM:   3    -0.232389175821E+04   -0.34290E-04   -0.11267E-03  4004   0.248E-02    0.979E-02
RMM:   4    -0.232389166118E+04    0.97029E-04   -0.11524E-04  2964   0.800E-03    0.331E-02
RMM:   5    -0.232389167845E+04   -0.17266E-04   -0.59928E-05  2940   0.574E-03    0.488E-02
RMM:   6    -0.232389164840E+04    0.30046E-04   -0.37422E-05  2988   0.537E-03    0.942E-03
RMM:   7    -0.232389164848E+04   -0.74040E-07   -0.78733E-06  2899   0.409E-03
  54 F= -.23453167E+04 E0= -.23453167E+04  d E =-.519279E-03  mag=     2.0000
       N       E                     dE             d eps       ncg     rms          rms(c)
DAV:   1    -0.232389100644E+04    0.64197E-03   -0.90263E-02  4528   0.304E-01    0.829E-02
RMM:   2    -0.232389187285E+04   -0.86642E-03   -0.86194E-03  6134   0.596E-02    0.983E-02
RMM:   3    -0.232389189995E+04   -0.27096E-04   -0.87890E-04  3723   0.224E-02    0.860E-02
RMM:   4    -0.232389182807E+04    0.71881E-04   -0.92458E-05  2961   0.702E-03    0.250E-02
RMM:   5    -0.232389183639E+04   -0.83235E-05   -0.42959E-05  2981   0.488E-03
  55 F= -.23453171E+04 E0= -.23453171E+04  d E =-.367576E-03  mag=     2.0000
       N       E                     dE             d eps       ncg     rms          rms(c)
DAV:   1    -0.232389023869E+04    0.15894E-02   -0.16064E-01  4528   0.405E-01    0.112E-01
RMM:   2    -0.232389180187E+04   -0.15632E-02   -0.15354E-02  6265   0.811E-02    0.139E-01
RMM:   3    -0.232389181504E+04   -0.13171E-04   -0.15782E-03  4687   0.296E-02    0.111E-01
RMM:   4    -0.232389169614E+04    0.11890E-03   -0.16335E-04  2996   0.857E-03    0.365E-02
RMM:   5    -0.232389172082E+04   -0.24676E-04   -0.81001E-05  2966   0.628E-03    0.550E-02
RMM:   6    -0.232389167951E+04    0.41310E-04   -0.49031E-05  2963   0.594E-03    0.959E-03
RMM:   7    -0.232389167944E+04    0.69864E-07   -0.90207E-06  2918   0.422E-03
  56 F= -.23453172E+04 E0= -.23453172E+04  d E =-.451664E-03  mag=     2.0000
       N       E                     dE             d eps       ncg     rms          rms(c)
DAV:   1    -0.232389084736E+04    0.83215E-03   -0.10314E-01  4528   0.323E-01    0.939E-02
RMM:   2    -0.232389186886E+04   -0.10215E-02   -0.10477E-02  6171   0.652E-02    0.903E-02
RMM:   3    -0.232389196180E+04   -0.92933E-04   -0.10896E-03  4040   0.255E-02    0.106E-01
RMM:   4    -0.232389185121E+04    0.11059E-03   -0.12269E-04  2956   0.789E-03    0.318E-02
RMM:   5    -0.232389186438E+04   -0.13173E-04   -0.55796E-05  2962   0.541E-03    0.446E-02
RMM:   6    -0.232389183737E+04    0.27006E-04   -0.37490E-05  2943   0.523E-03    0.872E-03
RMM:   7    -0.232389183727E+04    0.10637E-06   -0.74068E-06  2909   0.371E-03
  57 F= -.23453176E+04 E0= -.23453176E+04  d E =-.413512E-03  mag=     2.0000
       N       E                     dE             d eps       ncg     rms          rms(c)
DAV:   1    -0.232389127353E+04    0.56384E-03   -0.45676E-02  4544   0.215E-01    0.628E-02
RMM:   2    -0.232389172872E+04   -0.45518E-03   -0.46684E-03  6240   0.441E-02    0.593E-02
RMM:   3    -0.232389177164E+04   -0.42919E-04   -0.48586E-04  3337   0.170E-02    0.709E-02
RMM:   4    -0.232389172169E+04    0.49945E-04   -0.55336E-05  2936   0.583E-03    0.216E-02
RMM:   5    -0.232389172726E+04   -0.55721E-05   -0.25153E-05  2940   0.369E-03
  58 F= -.23453176E+04 E0= -.23453176E+04  d E =-.474150E-03  mag=     2.0000
       N       E                     dE             d eps       ncg     rms          rms(c)
DAV:   1    -0.232389097618E+04    0.74551E-03   -0.75645E-02  4528   0.280E-01    0.857E-02
RMM:   2    -0.232389181535E+04   -0.83917E-03   -0.90720E-03  6182   0.582E-02    0.534E-02
RMM:   3    -0.232389191805E+04   -0.10270E-03   -0.10079E-03  3721   0.240E-02    0.817E-02
RMM:   4    -0.232389185563E+04    0.62422E-04   -0.10043E-04  2943   0.699E-03    0.318E-02
RMM:   5    -0.232389185631E+04   -0.68378E-06   -0.49487E-05  2943   0.501E-03
  59 F= -.23453180E+04 E0= -.23453180E+04  d E =-.356973E-03  mag=     2.0000
       N       E                     dE             d eps       ncg     rms          rms(c)
DAV:   1    -0.232389115643E+04    0.69920E-03   -0.47354E-02  4560   0.221E-01    0.694E-02
RMM:   2    -0.232389169979E+04   -0.54336E-03   -0.57572E-03  6399   0.474E-02    0.527E-02
RMM:   3    -0.232389176053E+04   -0.60743E-04   -0.67602E-04  3316   0.181E-02    0.640E-02
RMM:   4    -0.232389170755E+04    0.52983E-04   -0.63940E-05  2928   0.634E-03    0.224E-02
RMM:   5    -0.232389171356E+04   -0.60125E-05   -0.39848E-05  2936   0.450E-03
  60 F= -.23453180E+04 E0= -.23453180E+04  d E =-.395268E-03  mag=     2.0000
       N       E                     dE             d eps       ncg     rms          rms(c)
DAV:   1    -0.232389074832E+04    0.95923E-03   -0.81237E-02  4528   0.290E-01    0.856E-02
RMM:   2    -0.232389172638E+04   -0.97806E-03   -0.10673E-02  6290   0.610E-02    0.438E-02
RMM:   3    -0.232389179285E+04   -0.66468E-04   -0.11298E-03  3719   0.246E-02    0.322E-02
RMM:   4    -0.232389180812E+04   -0.15268E-04   -0.11377E-04  3001   0.629E-03    0.510E-02
RMM:   5    -0.232389178598E+04    0.22136E-04   -0.40046E-05  2927   0.480E-03    0.200E-02
RMM:   6    -0.232389178713E+04   -0.11519E-05   -0.17822E-05  2928   0.370E-03
  61 F= -.23453183E+04 E0= -.23453183E+04  d E =-.311158E-03  mag=     2.0000
       N       E                     dE             d eps       ncg     rms          rms(c)
DAV:   1    -0.232389090855E+04    0.87743E-03   -0.57164E-02  4528   0.243E-01    0.725E-02
RMM:   2    -0.232389160743E+04   -0.69888E-03   -0.75338E-03  6294   0.501E-02    0.458E-02
RMM:   3    -0.232389168976E+04   -0.82325E-04   -0.82417E-04  3277   0.194E-02    0.680E-02
RMM:   4    -0.232389164330E+04    0.46457E-04   -0.80840E-05  2935   0.594E-03    0.267E-02
RMM:   5    -0.232389164676E+04   -0.34624E-05   -0.32302E-05  2934   0.376E-03
  62 F= -.23453184E+04 E0= -.23453184E+04  d E =-.370312E-03  mag=     2.0000
       N       E                     dE             d eps       ncg     rms          rms(c)
DAV:   1    -0.232389068120E+04    0.96210E-03   -0.99652E-02  4528   0.324E-01    0.985E-02
RMM:   2    -0.232389177246E+04   -0.10913E-02   -0.11763E-02  6147   0.663E-02    0.597E-02
RMM:   3    -0.232389190055E+04   -0.12808E-03   -0.12777E-03  3953   0.271E-02    0.857E-02
RMM:   4    -0.232389182200E+04    0.78544E-04   -0.13162E-04  2940   0.759E-03    0.325E-02
RMM:   5    -0.232389183018E+04   -0.81706E-05   -0.61407E-05  2957   0.564E-03
  63 F= -.23453188E+04 E0= -.23453188E+04  d E =-.398381E-03  mag=     2.0000
       N       E                     dE             d eps       ncg     rms          rms(c)
DAV:   1    -0.232389068233E+04    0.11397E-02   -0.85603E-02  4528   0.300E-01    0.926E-02
RMM:   2    -0.232389163088E+04   -0.94856E-03   -0.10242E-02  6338   0.632E-02    0.552E-02
RMM:   3    -0.232389173909E+04   -0.10820E-03   -0.11161E-03  3805   0.244E-02    0.761E-02
RMM:   4    -0.232389167106E+04    0.68026E-04   -0.11636E-04  2939   0.756E-03    0.287E-02
RMM:   5    -0.232389166512E+04    0.59399E-05   -0.44660E-05  3016   0.505E-03
  64 F= -.23453188E+04 E0= -.23453188E+04  d E =-.433242E-03  mag=     2.0000
       N       E                     dE             d eps       ncg     rms          rms(c)
DAV:   1    -0.232389076100E+04    0.91006E-03   -0.97587E-02  4528   0.307E-01    0.927E-02
RMM:   2    -0.232389192691E+04   -0.11659E-02   -0.11309E-02  6296   0.638E-02    0.126E-01
RMM:   3    -0.232389192953E+04   -0.26217E-05   -0.12680E-03  3845   0.248E-02    0.902E-02
RMM:   4    -0.232389184818E+04    0.81345E-04   -0.11642E-04  2969   0.764E-03    0.276E-02
RMM:   5    -0.232389184711E+04    0.10758E-05   -0.62326E-05  3066   0.572E-03
  65 F= -.23453192E+04 E0= -.23453192E+04  d E =-.331067E-03  mag=     2.0000
       N       E                     dE             d eps       ncg     rms          rms(c)
DAV:   1    -0.232389041202E+04    0.14362E-02   -0.11904E-01  4528   0.339E-01    0.982E-02
RMM:   2    -0.232389169413E+04   -0.12821E-02   -0.13783E-02  6313   0.703E-02    0.659E-02
RMM:   3    -0.232389185438E+04   -0.16024E-03   -0.14616E-03  3970   0.272E-02    0.101E-01
RMM:   4    -0.232389175780E+04    0.96581E-04   -0.15301E-04  2947   0.809E-03    0.377E-02
RMM:   5    -0.232389176005E+04   -0.22595E-05   -0.68880E-05  2971   0.552E-03
  66 F= -.23453192E+04 E0= -.23453192E+04  d E =-.409567E-03  mag=     2.0000
       N       E                     dE             d eps       ncg     rms          rms(c)
DAV:   1    -0.232389057259E+04    0.11852E-02   -0.13539E-01  4528   0.362E-01    0.111E-01
RMM:   2    -0.232389196848E+04   -0.13959E-02   -0.14723E-02  6232   0.740E-02    0.919E-02
RMM:   3    -0.232389214270E+04   -0.17422E-03   -0.16170E-03  4136   0.297E-02    0.124E-01
RMM:   4    -0.232389199315E+04    0.14955E-03   -0.17732E-04  2965   0.885E-03    0.381E-02
RMM:   5    -0.232389200735E+04   -0.14202E-04   -0.80387E-05  2983   0.640E-03    0.494E-02
RMM:   6    -0.232389197953E+04    0.27818E-04   -0.43825E-05  2961   0.575E-03    0.186E-02
RMM:   7    -0.232389197853E+04    0.10067E-05   -0.17520E-05  2912   0.418E-03
  67 F= -.23453196E+04 E0= -.23453196E+04  d E =-.382360E-03  mag=     2.0000
       N       E                     dE             d eps       ncg     rms          rms(c)
DAV:   1    -0.232389157687E+04    0.40266E-03   -0.32673E-02  4640   0.178E-01    0.540E-02
RMM:   2    -0.232389190913E+04   -0.33226E-03   -0.35780E-03  6256   0.370E-02    0.345E-02
RMM:   3    -0.232389195098E+04   -0.41852E-04   -0.37378E-04  3084   0.144E-02    0.552E-02
RMM:   4    -0.232389192536E+04    0.25622E-04   -0.42914E-05  2931   0.471E-03    0.195E-02
RMM:   5    -0.232389192393E+04    0.14305E-05   -0.15202E-05  2951   0.295E-03
  68 F= -.23453197E+04 E0= -.23453197E+04  d E =-.408479E-03  mag=     2.0000
       N       E                     dE             d eps       ncg     rms          rms(c)
DAV:   1    -0.232389114587E+04    0.77949E-03   -0.94232E-02  4528   0.305E-01    0.988E-02
RMM:   2    -0.232389213683E+04   -0.99096E-03   -0.10333E-02  6121   0.615E-02    0.900E-02
RMM:   3    -0.232389223718E+04   -0.10035E-03   -0.11511E-03  3921   0.260E-02    0.108E-01
RMM:   4    -0.232389212588E+04    0.11130E-03   -0.13041E-04  2954   0.808E-03    0.364E-02
RMM:   5    -0.232389212963E+04   -0.37466E-05   -0.60861E-05  2952   0.550E-03
  69 F= -.23453200E+04 E0= -.23453200E+04  d E =-.383927E-03  mag=     2.0000
       N       E                     dE             d eps       ncg     rms          rms(c)
DAV:   1    -0.232389177503E+04    0.35085E-03   -0.24261E-02  4624   0.155E-01    0.541E-02
RMM:   2    -0.232389205981E+04   -0.28478E-03   -0.27685E-03  6290   0.332E-02    0.599E-02
RMM:   3    -0.232389205420E+04    0.56174E-05   -0.33017E-04  3068   0.129E-02    0.454E-02
RMM:   4    -0.232389203029E+04    0.23904E-04   -0.35141E-05  2928   0.489E-03    0.230E-02
RMM:   5    -0.232389203009E+04    0.19993E-06   -0.16895E-05  2892   0.302E-03
  70 F= -.23453200E+04 E0= -.23453200E+04  d E =-.376374E-03  mag=     2.0000
       N       E                     dE             d eps       ncg     rms          rms(c)
DAV:   1    -0.232389107295E+04    0.95734E-03   -0.99979E-02  4528   0.309E-01    0.972E-02
RMM:   2    -0.232389217803E+04   -0.11051E-02   -0.11847E-02  6162   0.625E-02    0.687E-02
RMM:   3    -0.232389225225E+04   -0.74227E-04   -0.12403E-03  3878   0.260E-02    0.655E-02
RMM:   4    -0.232389220572E+04    0.46534E-04   -0.12941E-04  2973   0.762E-03    0.356E-02
RMM:   5    -0.232389221140E+04   -0.56788E-05   -0.57721E-05  2951   0.523E-03
  71 F= -.23453204E+04 E0= -.23453204E+04  d E =-.345215E-03  mag=     2.0000
       N       E                     dE             d eps       ncg     rms          rms(c)
DAV:   1    -0.232389168336E+04    0.52236E-03   -0.36253E-02  4528   0.187E-01    0.606E-02
RMM:   2    -0.232389210667E+04   -0.42331E-03   -0.43884E-03  6384   0.397E-02    0.570E-02
RMM:   3    -0.232389214921E+04   -0.42534E-04   -0.48201E-04  3160   0.153E-02    0.708E-02
RMM:   4    -0.232389210387E+04    0.45338E-04   -0.55852E-05  2929   0.549E-03    0.270E-02
RMM:   5    -0.232389210198E+04    0.18920E-05   -0.21776E-05  2918   0.320E-03
  72 F= -.23453204E+04 E0= -.23453204E+04  d E =-.335709E-03  mag=     2.0000
       N       E                     dE             d eps       ncg     rms          rms(c)
DAV:   1    -0.232389122819E+04    0.87568E-03   -0.10207E-01  4528   0.311E-01    0.953E-02
RMM:   2    -0.232389227365E+04   -0.10455E-02   -0.11496E-02  6142   0.616E-02    0.522E-02
RMM:   3    -0.232389236526E+04   -0.91609E-04   -0.12296E-03  3800   0.257E-02    0.616E-02
RMM:   4    -0.232389234279E+04    0.22474E-04   -0.12879E-04  2956   0.682E-03    0.422E-02
RMM:   5    -0.232389234218E+04    0.60273E-06   -0.62362E-05  2978   0.520E-03
  73 F= -.23453207E+04 E0= -.23453207E+04  d E =-.342661E-03  mag=     2.0000
       N       E                     dE             d eps       ncg     rms          rms(c)
DAV:   1    -0.232389195073E+04    0.39206E-03   -0.29573E-02  4608   0.168E-01    0.538E-02
RMM:   2    -0.232389227541E+04   -0.32468E-03   -0.34413E-03  6290   0.358E-02    0.425E-02
RMM:   3    -0.232389231076E+04   -0.35346E-04   -0.40100E-04  3093   0.137E-02    0.524E-02
RMM:   4    -0.232389227986E+04    0.30892E-04   -0.42405E-05  2919   0.489E-03    0.232E-02
RMM:   5    -0.232389228118E+04   -0.13191E-05   -0.17874E-05  2914   0.280E-03
  74 F= -.23453207E+04 E0= -.23453207E+04  d E =-.337306E-03  mag=     2.0000
       N       E                     dE             d eps       ncg     rms          rms(c)
DAV:   1    -0.232389113388E+04    0.11460E-02   -0.12594E-01  4528   0.347E-01    0.105E-01
RMM:   2    -0.232389252092E+04   -0.13870E-02   -0.15161E-02  6097   0.696E-02    0.585E-02
RMM:   3    -0.232389264372E+04   -0.12281E-03   -0.16009E-03  4031   0.292E-02    0.736E-02
RMM:   4    -0.232389261834E+04    0.25381E-04   -0.16195E-04  2966   0.741E-03    0.467E-02
RMM:   5    -0.232389261100E+04    0.73473E-05   -0.70482E-05  2992   0.594E-03
  75 F= -.23453211E+04 E0= -.23453211E+04  d E =-.398356E-03  mag=     2.0000
       N       E                     dE             d eps       ncg     rms          rms(c)
DAV:   1    -0.232389221470E+04    0.40364E-03   -0.29748E-02  4672   0.169E-01    0.540E-02
RMM:   2    -0.232389256632E+04   -0.35161E-03   -0.37285E-03  6281   0.370E-02    0.434E-02
RMM:   3    -0.232389260130E+04   -0.34983E-04   -0.42898E-04  3071   0.141E-02    0.485E-02
RMM:   4    -0.232389257208E+04    0.29219E-04   -0.41844E-05  2926   0.513E-03    0.181E-02
RMM:   5    -0.232389257748E+04   -0.53970E-05   -0.24219E-05  2933   0.340E-03
  76 F= -.23453211E+04 E0= -.23453211E+04  d E =-.398705E-03  mag=     2.0000
       N       E                     dE             d eps       ncg     rms          rms(c)
DAV:   1    -0.232389115009E+04    0.14220E-02   -0.13197E-01  4528   0.360E-01    0.114E-01
RMM:   2    -0.232389272274E+04   -0.15727E-02   -0.17113E-02  6085   0.737E-02    0.669E-02
RMM:   3    -0.232389291151E+04   -0.18876E-03   -0.18554E-03  4210   0.320E-02    0.101E-01
RMM:   4    -0.232389281852E+04    0.92984E-04   -0.19183E-04  2963   0.841E-03    0.438E-02
RMM:   5    -0.232389282214E+04   -0.36166E-05   -0.74249E-05  2940   0.578E-03
  77 F= -.23453214E+04 E0= -.23453214E+04  d E =-.323014E-03  mag=     2.0000
       N       E                     dE             d eps       ncg     rms          rms(c)
DAV:   1    -0.232389273228E+04    0.86242E-04   -0.33431E-03  5464   0.585E-02    0.274E-02
RMM:   2    -0.232389281118E+04   -0.78899E-04   -0.50875E-04  4609   0.138E-02    0.539E-02
RMM:   3    -0.232389277656E+04    0.34624E-04   -0.68960E-05  2906   0.655E-03    0.164E-02
RMM:   4    -0.232389277669E+04   -0.13548E-06   -0.11258E-05  2831   0.247E-03
  78 F= -.23453214E+04 E0= -.23453214E+04  d E =-.290518E-03  mag=     2.0000
       N       E                     dE             d eps       ncg     rms          rms(c)
DAV:   1    -0.232389200242E+04    0.77414E-03   -0.77820E-02  4528   0.281E-01    0.916E-02
RMM:   2    -0.232389288596E+04   -0.88354E-03   -0.96643E-03  6014   0.559E-02    0.520E-02
RMM:   3    -0.232389298563E+04   -0.99676E-04   -0.10432E-03  3690   0.241E-02    0.773E-02
RMM:   4    -0.232389293471E+04    0.50927E-04   -0.10887E-04  2937   0.675E-03    0.345E-02
RMM:   5    -0.232389293882E+04   -0.41160E-05   -0.52931E-05  2961   0.540E-03
  79 F= -.23453216E+04 E0= -.23453216E+04  d E =-.248369E-03  mag=     2.0000
       N       E                     dE             d eps       ncg     rms          rms(c)
DAV:   1    -0.232389290065E+04    0.34061E-04   -0.62022E-04  5424   0.268E-02    0.155E-02
RMM:   2    -0.232389292213E+04   -0.21488E-04   -0.10187E-04  3111   0.657E-03    0.335E-02
RMM:   3    -0.232389290725E+04    0.14881E-04   -0.18566E-05  2680   0.421E-03    0.816E-03
RMM:   4    -0.232389290717E+04    0.80719E-07   -0.29489E-06  2459   0.142E-03
  80 F= -.23453216E+04 E0= -.23453216E+04  d E =-.224642E-03  mag=     2.0000
       N       E                     dE             d eps       ncg     rms          rms(c)
DAV:   1    -0.232389237045E+04    0.53680E-03   -0.55005E-02  4528   0.240E-01    0.776E-02
RMM:   2    -0.232389296751E+04   -0.59706E-03   -0.65601E-03  5988   0.471E-02    0.402E-02
RMM:   3    -0.232389301650E+04   -0.48986E-04   -0.69321E-04  3533   0.208E-02    0.489E-02
RMM:   4    -0.232389300120E+04    0.15297E-04   -0.73443E-05  2939   0.577E-03    0.318E-02
RMM:   5    -0.232389300331E+04   -0.21147E-05   -0.33701E-05  2967   0.431E-03
  81 F= -.23453218E+04 E0= -.23453218E+04  d E =-.207022E-03  mag=     2.0000
       N       E                     dE             d eps       ncg     rms          rms(c)
DAV:   1    -0.232389295409E+04    0.47108E-04   -0.12380E-03  5488   0.371E-02    0.164E-02
RMM:   2    -0.232389297931E+04   -0.25223E-04   -0.17514E-04  3471   0.890E-03    0.303E-02
RMM:   3    -0.232389296950E+04    0.98120E-05   -0.23377E-05  2714   0.514E-03
  82 F= -.23453218E+04 E0= -.23453218E+04  d E =-.190312E-03  mag=     2.0000
       N       E                     dE             d eps       ncg     rms          rms(c)
DAV:   1    -0.232389267070E+04    0.30861E-03   -0.43458E-02  4528   0.216E-01    0.685E-02
RMM:   2    -0.232389309509E+04   -0.42439E-03   -0.44387E-03  6066   0.416E-02    0.593E-02
RMM:   3    -0.232389315053E+04   -0.55433E-04   -0.51562E-04  3445   0.182E-02    0.818E-02
RMM:   4    -0.232389308697E+04    0.63553E-04   -0.59594E-05  2915   0.597E-03    0.249E-02
RMM:   5    -0.232389308974E+04   -0.27696E-05   -0.27807E-05  2926   0.384E-03
  83 F= -.23453220E+04 E0= -.23453220E+04  d E =-.163184E-03  mag=     2.0000
       N       E                     dE             d eps       ncg     rms          rms(c)
DAV:   1    -0.232389304826E+04    0.38715E-04   -0.15469E-03  5376   0.418E-02    0.158E-02
RMM:   2    -0.232389306651E+04   -0.18254E-04   -0.18266E-04  3546   0.959E-03    0.170E-02
RMM:   3    -0.232389306491E+04    0.16056E-05   -0.22162E-05  2769   0.550E-03
  84 F= -.23453220E+04 E0= -.23453220E+04  d E =-.146881E-03  mag=     2.0000
       N       E                     dE             d eps       ncg     rms          rms(c)
DAV:   1    -0.232389289011E+04    0.17641E-03   -0.38945E-02  4522   0.204E-01    0.619E-02
RMM:   2    -0.232389321769E+04   -0.32758E-03   -0.36060E-03  6058   0.381E-02    0.308E-02
RMM:   3    -0.232389323773E+04   -0.20036E-04   -0.36528E-04  3291   0.162E-02    0.283E-02
RMM:   4    -0.232389323936E+04   -0.16335E-05   -0.45345E-05  2928   0.459E-03
  85 F= -.23453221E+04 E0= -.23453221E+04  d E =-.150359E-03  mag=     2.0000
       N       E                     dE             d eps       ncg     rms          rms(c)
DAV:   1    -0.232389318621E+04    0.51515E-04   -0.60161E-03  5024   0.805E-02    0.279E-02
RMM:   2    -0.232389325051E+04   -0.64302E-04   -0.58978E-04  5437   0.158E-02    0.389E-02
RMM:   3    -0.232389324652E+04    0.39931E-05   -0.67868E-05  2916   0.715E-03
  86 F= -.23453221E+04 E0= -.23453221E+04  d E =-.147868E-03  mag=     2.0000
       N       E                     dE             d eps       ncg     rms          rms(c)
DAV:   1    -0.232389305089E+04    0.19962E-03   -0.40833E-02  4528   0.209E-01    0.638E-02
RMM:   2    -0.232389339498E+04   -0.34409E-03   -0.36851E-03  6023   0.400E-02    0.435E-02
RMM:   3    -0.232389344801E+04   -0.53025E-04   -0.38664E-04  3284   0.163E-02    0.701E-02
RMM:   4    -0.232389340073E+04    0.47275E-04   -0.48859E-05  2919   0.542E-03    0.225E-02
RMM:   5    -0.232389340446E+04   -0.37256E-05   -0.26364E-05  2948   0.401E-03
  87 F= -.23453223E+04 E0= -.23453223E+04  d E =-.157337E-03  mag=     2.0000
       N       E                     dE             d eps       ncg     rms          rms(c)
DAV:   1    -0.232389334732E+04    0.53411E-04   -0.50739E-03  4928   0.743E-02    0.244E-02
RMM:   2    -0.232389339671E+04   -0.49391E-04   -0.49054E-04  5325   0.161E-02    0.232E-02
RMM:   3    -0.232389339836E+04   -0.16468E-05   -0.53680E-05  2905   0.659E-03
  88 F= -.23453223E+04 E0= -.23453223E+04  d E =-.151073E-03  mag=     2.0000
       N       E                     dE             d eps       ncg     rms          rms(c)
DAV:   1    -0.232389307470E+04    0.32202E-03   -0.42085E-02  4528   0.209E-01    0.651E-02
RMM:   2    -0.232389347028E+04   -0.39558E-03   -0.40920E-03  6079   0.408E-02    0.555E-02
RMM:   3    -0.232389351848E+04   -0.48198E-04   -0.44958E-04  3189   0.162E-02    0.743E-02
RMM:   4    -0.232389346509E+04    0.53385E-04   -0.56329E-05  2933   0.559E-03    0.259E-02
RMM:   5    -0.232389346512E+04   -0.28522E-07   -0.24502E-05  2924   0.357E-03
  89 F= -.23453224E+04 E0= -.23453224E+04  d E =-.135926E-03  mag=     2.0000
       N       E                     dE             d eps       ncg     rms          rms(c)
DAV:   1    -0.232389338085E+04    0.84244E-04   -0.50885E-03  4960   0.732E-02    0.267E-02
RMM:   2    -0.232389344500E+04   -0.64148E-04   -0.53241E-04  5332   0.157E-02    0.380E-02
RMM:   3    -0.232389343128E+04    0.13718E-04   -0.64269E-05  2907   0.667E-03    0.173E-02
RMM:   4    -0.232389342888E+04    0.23964E-05   -0.86178E-06  2906   0.252E-03
  90 F= -.23453224E+04 E0= -.23453224E+04  d E =-.124341E-03  mag=     2.0000
       N       E                     dE             d eps       ncg     rms          rms(c)
DAV:   1    -0.232389311800E+04    0.31328E-03   -0.40623E-02  4528   0.203E-01    0.643E-02
RMM:   2    -0.232389354904E+04   -0.43105E-03   -0.41334E-03  6097   0.394E-02    0.812E-02
RMM:   3    -0.232389354961E+04   -0.56796E-06   -0.47034E-04  3172   0.161E-02    0.653E-02
RMM:   4    -0.232389350838E+04    0.41236E-04   -0.51098E-05  2951   0.537E-03    0.224E-02
RMM:   5    -0.232389351208E+04   -0.37021E-05   -0.24531E-05  2918   0.370E-03
  91 F= -.23453225E+04 E0= -.23453225E+04  d E =-.156053E-03  mag=     2.0000
       N       E                     dE             d eps       ncg     rms          rms(c)
DAV:   1    -0.232389334032E+04    0.16805E-03   -0.12535E-02  4544   0.113E-01    0.367E-02
RMM:   2    -0.232389347015E+04   -0.12982E-03   -0.13229E-03  5979   0.238E-02    0.353E-02
RMM:   3    -0.232389347651E+04   -0.63658E-05   -0.15403E-04  2955   0.938E-03    0.325E-02
RMM:   4    -0.232389346560E+04    0.10909E-04   -0.16466E-05  2910   0.329E-03    0.151E-02
RMM:   5    -0.232389346515E+04    0.45431E-06   -0.80756E-06  2820   0.205E-03
  92 F= -.23453225E+04 E0= -.23453225E+04  d E =-.150321E-03  mag=     2.0000
       N       E                     dE             d eps       ncg     rms          rms(c)
DAV:   1    -0.232389317221E+04    0.29339E-03   -0.37208E-02  4528   0.194E-01    0.615E-02
RMM:   2    -0.232389359106E+04   -0.41885E-03   -0.43567E-03  6099   0.392E-02    0.508E-02
RMM:   3    -0.232389362422E+04   -0.33153E-04   -0.50403E-04  3179   0.162E-02    0.522E-02
RMM:   4    -0.232389358916E+04    0.35056E-04   -0.52252E-05  2926   0.528E-03    0.220E-02
RMM:   5    -0.232389359352E+04   -0.43628E-05   -0.21010E-05  2915   0.322E-03
  93 F= -.23453227E+04 E0= -.23453227E+04  d E =-.173382E-03  mag=     2.0000
       N       E                     dE             d eps       ncg     rms          rms(c)
DAV:   1    -0.232389339022E+04    0.19894E-03   -0.16231E-02  4544   0.129E-01    0.452E-02
RMM:   2    -0.232389360697E+04   -0.21675E-03   -0.19617E-03  6130   0.269E-02    0.692E-02
RMM:   3    -0.232389358598E+04    0.20992E-04   -0.23700E-04  2962   0.107E-02    0.396E-02
RMM:   4    -0.232389357667E+04    0.93141E-05   -0.31389E-05  2923   0.381E-03
  94 F= -.23453227E+04 E0= -.23453227E+04  d E =-.186522E-03  mag=     2.0000
       N       E                     dE             d eps       ncg     rms          rms(c)
DAV:   1    -0.232389327447E+04    0.31152E-03   -0.37347E-02  4528   0.199E-01    0.642E-02
RMM:   2    -0.232389367365E+04   -0.39919E-03   -0.43243E-03  6138   0.400E-02    0.396E-02
RMM:   3    -0.232389372851E+04   -0.54859E-04   -0.49422E-04  3215   0.170E-02    0.648E-02
RMM:   4    -0.232389369076E+04    0.37754E-04   -0.52940E-05  2930   0.516E-03    0.237E-02
RMM:   5    -0.232389369097E+04   -0.21223E-06   -0.31512E-05  2934   0.391E-03
  95 F= -.23453229E+04 E0= -.23453229E+04  d E =-.160479E-03  mag=     2.0000
       N       E                     dE             d eps       ncg     rms          rms(c)
DAV:   1    -0.232389358725E+04    0.10350E-03   -0.69912E-03  4896   0.867E-02    0.286E-02
RMM:   2    -0.232389366772E+04   -0.80471E-04   -0.86137E-04  5737   0.192E-02    0.219E-02
RMM:   3    -0.232389367794E+04   -0.10217E-04   -0.98912E-05  2908   0.794E-03    0.287E-02
RMM:   4    -0.232389366772E+04    0.10220E-04   -0.11107E-05  2904   0.295E-03    0.912E-03
RMM:   5    -0.232389366997E+04   -0.22529E-05   -0.58991E-06  2796   0.173E-03
  96 F= -.23453229E+04 E0= -.23453229E+04  d E =-.159747E-03  mag=     2.0000
       N       E                     dE             d eps       ncg     rms          rms(c)
DAV:   1    -0.232389330709E+04    0.36063E-03   -0.40961E-02  4528   0.207E-01    0.648E-02
RMM:   2    -0.232389371113E+04   -0.40404E-03   -0.44618E-03  6045   0.410E-02    0.326E-02
RMM:   3    -0.232389373791E+04   -0.26782E-04   -0.46503E-04  3336   0.175E-02    0.300E-02
RMM:   4    -0.232389373561E+04    0.23064E-05   -0.52241E-05  2953   0.500E-03
  97 F= -.23453230E+04 E0= -.23453230E+04  d E =-.131375E-03  mag=     2.0000
       N       E                     dE             d eps       ncg     rms          rms(c)
DAV:   1    -0.232389370320E+04    0.34717E-04   -0.10522E-03  5520   0.342E-02    0.211E-02
RMM:   2    -0.232389376426E+04   -0.61063E-04   -0.18288E-04  3495   0.834E-03    0.718E-02
RMM:   3    -0.232389371298E+04    0.51279E-04   -0.35087E-05  2832   0.501E-03    0.944E-03
RMM:   4    -0.232389371230E+04    0.67598E-06   -0.62578E-06  2536   0.174E-03
  98 F= -.23453230E+04 E0= -.23453230E+04  d E =-.119139E-03  mag=     2.0000
       N       E                     dE             d eps       ncg     rms          rms(c)
DAV:   1    -0.232389349615E+04    0.21683E-03   -0.33685E-02  4528   0.189E-01    0.615E-02
RMM:   2    -0.232389378791E+04   -0.29176E-03   -0.31950E-03  6080   0.368E-02    0.343E-02
RMM:   3    -0.232389381678E+04   -0.28868E-04   -0.32166E-04  3282   0.156E-02    0.458E-02
RMM:   4    -0.232389379590E+04    0.20883E-04   -0.40613E-05  2916   0.496E-03    0.284E-02
RMM:   5    -0.232389379400E+04    0.18962E-05   -0.21198E-05  2898   0.330E-03
  99 F= -.23453231E+04 E0= -.23453231E+04  d E =-.121300E-03  mag=     2.0000
       N       E                     dE             d eps       ncg     rms          rms(c)
DAV:   1    -0.232389377488E+04    0.21011E-04   -0.53948E-04  5384   0.249E-02    0.118E-02
RMM:   2    -0.232389378825E+04   -0.13361E-04   -0.70378E-05  3037   0.601E-03    0.247E-02
RMM:   3    -0.232389378001E+04    0.82378E-05   -0.11142E-05  2555   0.379E-03
 100 F= -.23453231E+04 E0= -.23453231E+04  d E =-.112634E-03  mag=     2.0000
       N       E                     dE             d eps       ncg     rms          rms(c)
DAV:   1    -0.232389361362E+04    0.17463E-03   -0.29782E-02  4528   0.178E-01    0.591E-02
RMM:   2    -0.232389390059E+04   -0.28697E-03   -0.28226E-03  6020   0.349E-02    0.642E-02
RMM:   3    -0.232389391362E+04   -0.13033E-04   -0.31091E-04  3199   0.148E-02    0.666E-02
RMM:   4    -0.232389387221E+04    0.41412E-04   -0.42584E-05  2933   0.506E-03    0.215E-02
RMM:   5    -0.232389387133E+04    0.87902E-06   -0.18289E-05  2888   0.338E-03
 101 F= -.23453232E+04 E0= -.23453232E+04  d E =-.117688E-03  mag=     2.0000
       N       E                     dE             d eps       ncg     rms          rms(c)
DAV:   1    -0.232389385194E+04    0.20268E-04   -0.86820E-04  5376   0.313E-02    0.166E-02
RMM:   2    -0.232389387666E+04   -0.24718E-04   -0.11770E-04  3274   0.752E-03    0.355E-02
RMM:   3    -0.232389385906E+04    0.17604E-04   -0.20325E-05  2682   0.442E-03    0.839E-03
RMM:   4    -0.232389385887E+04    0.18161E-06   -0.36217E-06  2450   0.156E-03
 102 F= -.23453232E+04 E0= -.23453232E+04  d E =-.109981E-03  mag=     2.0000
       N       E                     dE             d eps       ncg     rms          rms(c)
DAV:   1    -0.232389367757E+04    0.18148E-03   -0.28372E-02  4528   0.174E-01    0.570E-02
RMM:   2    -0.232389392442E+04   -0.24684E-03   -0.25984E-03  5907   0.337E-02    0.436E-02
RMM:   3    -0.232389396642E+04   -0.41998E-04   -0.28549E-04  3223   0.155E-02    0.692E-02
RMM:   4    -0.232389391906E+04    0.47354E-04   -0.37983E-05  2919   0.484E-03    0.185E-02
RMM:   5    -0.232389392114E+04   -0.20790E-05   -0.18011E-05  2905   0.326E-03
 103 F= -.23453233E+04 E0= -.23453233E+04  d E =-.964244E-04  mag=     2.0000
       N       E                     dE             d eps       ncg     rms          rms(c)
DAV:   1    -0.232389391203E+04    0.70342E-05   -0.48276E-05  4608   0.904E-03    0.965E-03
RMM:   2    -0.232389392208E+04   -0.10056E-04   -0.20446E-05  2713   0.398E-03    0.270E-02
RMM:   3    -0.232389391189E+04    0.10195E-04   -0.65693E-06  2358   0.224E-03    0.386E-03
RMM:   4    -0.232389391177E+04    0.11915E-06   -0.81478E-07  1658   0.105E-03
 104 F= -.23453233E+04 E0= -.23453233E+04  d E =-.885231E-04  mag=     2.0000
       N       E                     dE             d eps       ncg     rms          rms(c)
DAV:   1    -0.232389374355E+04    0.16834E-03   -0.26571E-02  4528   0.169E-01    0.579E-02
RMM:   2    -0.232389397315E+04   -0.22960E-03   -0.23807E-03  5996   0.327E-02    0.492E-02
RMM:   3    -0.232389400872E+04   -0.35565E-04   -0.26846E-04  3111   0.137E-02    0.694E-02
RMM:   4    -0.232389395981E+04    0.48903E-04   -0.35834E-05  2918   0.493E-03    0.177E-02
RMM:   5    -0.232389396324E+04   -0.34258E-05   -0.17913E-05  2903   0.340E-03
 105 F= -.23453234E+04 E0= -.23453234E+04  d E =-.983604E-04  mag=     2.0000
       N       E                     dE             d eps       ncg     rms          rms(c)
DAV:   1    -0.232389394873E+04    0.11082E-04   -0.15250E-04  5416   0.142E-02    0.851E-03
RMM:   2    -0.232389395408E+04   -0.53502E-05   -0.25038E-05  2785   0.357E-03
 106 F= -.23453234E+04 E0= -.23453234E+04  d E =-.929934E-04  mag=     2.0000
       N       E                     dE             d eps       ncg     rms          rms(c)
DAV:   1    -0.232389384299E+04    0.10574E-03   -0.20836E-02  4528   0.148E-01    0.503E-02
RMM:   2    -0.232389402102E+04   -0.17804E-03   -0.19198E-03  6130   0.299E-02    0.350E-02
RMM:   3    -0.232389405332E+04   -0.32291E-04   -0.21958E-04  3137   0.130E-02    0.567E-02
RMM:   4    -0.232389401973E+04    0.33586E-04   -0.28288E-05  2913   0.435E-03    0.178E-02
RMM:   5    -0.232389402204E+04   -0.23079E-05   -0.15534E-05  2910   0.309E-03
 107 F= -.23453235E+04 E0= -.23453235E+04  d E =-.826473E-04  mag=     2.0000
       N       E                     dE             d eps       ncg     rms          rms(c)
DAV:   1    -0.232389401040E+04    0.93264E-05   -0.25795E-04  5360   0.176E-02    0.983E-03
RMM:   2    -0.232389401882E+04   -0.84173E-05   -0.38570E-05  2888   0.436E-03
 108 F= -.23453235E+04 E0= -.23453235E+04  d E =-.811588E-04  mag=     2.0000
       N       E                     dE             d eps       ncg     rms          rms(c)
DAV:   1    -0.232389391207E+04    0.98331E-04   -0.20713E-02  4528   0.146E-01    0.489E-02
RMM:   2    -0.232389409439E+04   -0.18232E-03   -0.20189E-03  6179   0.303E-02    0.274E-02
RMM:   3    -0.232389411675E+04   -0.22353E-04   -0.21403E-04  3081   0.127E-02    0.420E-02
RMM:   4    -0.232389410097E+04    0.15775E-04   -0.25863E-05  2914   0.405E-03    0.199E-02
RMM:   5    -0.232389409878E+04    0.21949E-05   -0.14255E-05  2919   0.304E-03
 109 F= -.23453235E+04 E0= -.23453235E+04  d E =-.686713E-04  mag=     2.0000
       N       E                     dE             d eps       ncg     rms          rms(c)
DAV:   1    -0.232389409517E+04    0.58047E-05   -0.17064E-04  5368   0.143E-02    0.832E-03
RMM:   2    -0.232389410064E+04   -0.54691E-05   -0.26744E-05  2751   0.374E-03
 110 F= -.23453235E+04 E0= -.23453235E+04  d E =-.694663E-04  mag=     2.0000
       N       E                     dE             d eps       ncg     rms          rms(c)
DAV:   1    -0.232389397813E+04    0.11703E-03   -0.19360E-02  4528   0.140E-01    0.480E-02
RMM:   2    -0.232389415735E+04   -0.17922E-03   -0.19369E-03  6156   0.292E-02    0.341E-02
RMM:   3    -0.232389418840E+04   -0.31043E-04   -0.21244E-04  3044   0.123E-02    0.562E-02
RMM:   4    -0.232389415820E+04    0.30193E-04   -0.27706E-05  2916   0.424E-03    0.155E-02
RMM:   5    -0.232389415578E+04    0.24274E-05   -0.13249E-05  2932   0.322E-03
 111 F= -.23453236E+04 E0= -.23453236E+04  d E =-.800057E-04  mag=     2.0000
       N       E                     dE             d eps       ncg     rms          rms(c)
DAV:   1    -0.232389414887E+04    0.93332E-05   -0.24405E-04  5296   0.166E-02    0.856E-03
RMM:   2    -0.232389415373E+04   -0.48552E-05   -0.34666E-05  2772   0.425E-03
 112 F= -.23453236E+04 E0= -.23453236E+04  d E =-.808656E-04  mag=     2.0000
       N       E                     dE             d eps       ncg     rms          rms(c)
DAV:   1    -0.232389398911E+04    0.15976E-03   -0.19318E-02  4528   0.140E-01    0.483E-02
RMM:   2    -0.232389417033E+04   -0.18121E-03   -0.19664E-03  6195   0.296E-02    0.325E-02
[...]
DAV:   1    -0.232389501566E+04   -0.19519E-04   -0.68472E-04  4456   0.279E-02    0.107E-02
RMM:   2    -0.232389502156E+04   -0.59031E-05   -0.58922E-05  2887   0.646E-03
 157 F= -.23453247E+04 E0= -.23453247E+04  d E =-.392663E-05  mag=     2.0000
       N       E                     dE             d eps       ncg     rms          rms(c)
DAV:   1    -0.232389502436E+04   -0.87034E-05   -0.33444E-05  3642   0.780E-03    0.117E-02
RMM:   2    -0.232389504266E+04   -0.18299E-04   -0.27487E-05  2571   0.497E-03    0.444E-02
RMM:   3    -0.232389502405E+04    0.18612E-04   -0.85404E-06  2298   0.254E-03    0.391E-03
RMM:   4    -0.232389502411E+04   -0.69835E-07   -0.12320E-06  1997   0.128E-03
 158 F= -.23453247E+04 E0= -.23453247E+04  d E =-.404209E-05  mag=     2.0000
       N       E                     dE             d eps       ncg     rms          rms(c)
DAV:   1    -0.232389503291E+04   -0.88633E-05   -0.43282E-04  4304   0.218E-02    0.787E-03
RMM:   2    -0.232389503594E+04   -0.30359E-05   -0.23892E-05  2575   0.438E-03
 159 F= -.23453247E+04 E0= -.23453247E+04  d E =-.107264E-04  mag=     2.0000
       N       E                     dE             d eps       ncg     rms          rms(c)
DAV:   1    -0.232389503695E+04   -0.40459E-05   -0.71543E-05  4968   0.952E-03    0.829E-03
RMM:   2    -0.232389504404E+04   -0.70824E-05   -0.13097E-05  2436   0.305E-03
 160 F= -.23453247E+04 E0= -.23453247E+04  d E =-.183945E-04  mag=     2.0000
       N       E                     dE             d eps       ncg     rms          rms(c)
DAV:   1    -0.232389504203E+04   -0.50731E-05   -0.39771E-04  4456   0.215E-02    0.845E-03
RMM:   2    -0.232389504441E+04   -0.23867E-05   -0.28155E-05  2510   0.503E-03
 161 F= -.23453248E+04 E0= -.23453248E+04  d E =-.251171E-05  mag=     2.0000
       N       E                     dE             d eps       ncg     rms          rms(c)
DAV:   1    -0.232389504525E+04   -0.32240E-05   -0.19749E-05  3080   0.624E-03    0.119E-02
RMM:   2    -0.232389506614E+04   -0.20884E-04   -0.27001E-05  2609   0.461E-03    0.472E-02
RMM:   3    -0.232389504460E+04    0.21534E-04   -0.88074E-06  2306   0.231E-03    0.314E-03
RMM:   4    -0.232389504453E+04    0.71333E-07   -0.97835E-07  1989   0.115E-03
 162 F= -.23453248E+04 E0= -.23453248E+04  d E =-.306105E-05  mag=     2.0000
       N       E                     dE             d eps       ncg     rms          rms(c)
DAV:   1    -0.232389504379E+04    0.80967E-06   -0.62297E-05  4536   0.831E-03    0.351E-03
RMM:   2    -0.232389504467E+04   -0.87651E-06   -0.45535E-06  2329   0.193E-03
 163 F= -.23453248E+04 E0= -.23453248E+04  d E =-.406367E-05  mag=     2.0000
       N       E                     dE             d eps       ncg     rms          rms(c)
DAV:   1    -0.232389505665E+04   -0.12863E-04   -0.43833E-04  4256   0.213E-02    0.787E-03
RMM:   2    -0.232389505972E+04   -0.30702E-05   -0.24496E-05  2495   0.479E-03
 164 F= -.23453248E+04 E0= -.23453248E+04  d E =-.109269E-04  mag=     2.0000
       N       E                     dE             d eps       ncg     rms          rms(c)
DAV:   1    -0.232389506572E+04   -0.90679E-05   -0.35622E-04  4416   0.196E-02    0.109E-02
RMM:   2    -0.232389507468E+04   -0.89620E-05   -0.29503E-05  2875   0.516E-03
 165 F= -.23453248E+04 E0= -.23453248E+04  d E =-.221821E-04  mag=     2.0000
       N       E                     dE             d eps       ncg     rms          rms(c)
DAV:   1    -0.232389507941E+04   -0.13683E-04   -0.39336E-04  4424   0.205E-02    0.917E-03
RMM:   2    -0.232389508049E+04   -0.10862E-05   -0.15206E-05  2574   0.485E-03
 166 F= -.23453248E+04 E0= -.23453248E+04  d E =-.373934E-05  mag=     2.0000
       N       E                     dE             d eps       ncg     rms          rms(c)
DAV:   1    -0.232389508639E+04   -0.69878E-05   -0.19478E-04  4952   0.144E-02    0.130E-02
RMM:   2    -0.232389510495E+04   -0.18557E-04   -0.24347E-05  2762   0.434E-03    0.451E-02
RMM:   3    -0.232389508590E+04    0.19054E-04   -0.90598E-06  2377   0.295E-03    0.463E-03
RMM:   4    -0.232389508591E+04   -0.12253E-07   -0.14683E-06  2061   0.122E-03
 167 F= -.23453248E+04 E0= -.23453248E+04  d E =-.768540E-05  mag=     2.0000
       N       E                     dE             d eps       ncg     rms          rms(c)
DAV:   1    -0.232389508744E+04   -0.15468E-05   -0.75345E-04  4416   0.268E-02    0.940E-03
RMM:   2    -0.232389508954E+04   -0.21016E-05   -0.24047E-05  2844   0.525E-03
 168 F= -.23453248E+04 E0= -.23453248E+04  d E =-.839217E-05  mag=     2.0000
       N       E                     dE             d eps       ncg     rms          rms(c)
DAV:   1    -0.232389508906E+04   -0.16177E-05   -0.18657E-04  4384   0.140E-02    0.989E-03
RMM:   2    -0.232389510216E+04   -0.13097E-04   -0.21509E-05  2606   0.378E-03    0.330E-02
RMM:   3    -0.232389508887E+04    0.13292E-04   -0.67453E-06  2320   0.272E-03    0.417E-03
RMM:   4    -0.232389508864E+04    0.22151E-06   -0.75452E-07  1615   0.932E-04
 169 F= -.23453248E+04 E0= -.23453248E+04  d E =-.891349E-05  mag=     2.0000
       N       E                     dE             d eps       ncg     rms          rms(c)
DAV:   1    -0.232389510288E+04   -0.14016E-04   -0.35187E-04  4224   0.181E-02    0.576E-03
RMM:   2    -0.232389510392E+04   -0.10368E-05   -0.99617E-06  2362   0.342E-03
 170 F= -.23453248E+04 E0= -.23453248E+04  d E =-.113262E-04  mag=     2.0000
       N       E                     dE             d eps       ncg     rms          rms(c)
DAV:   1    -0.232389511902E+04   -0.16134E-04   -0.87170E-04  4384   0.288E-02    0.132E-02
RMM:   2    -0.232389513076E+04   -0.11743E-04   -0.36544E-05  2994   0.645E-03    0.335E-02
RMM:   3    -0.232389512076E+04    0.99996E-05   -0.93026E-06  2488   0.387E-03
 171 F= -.23453248E+04 E0= -.23453248E+04  d E =-.220051E-04  mag=     2.0000
       N       E                     dE             d eps       ncg     rms          rms(c)
DAV:   1    -0.232389512212E+04    0.86406E-05   -0.34301E-03  4528   0.563E-02    0.202E-02
RMM:   2    -0.232389513232E+04   -0.10202E-04   -0.10338E-04  3861   0.101E-02    0.190E-02
RMM:   3    -0.232389513433E+04   -0.20115E-05   -0.15799E-05  2913   0.576E-03
 172 F= -.23453248E+04 E0= -.23453248E+04  d E =-.232636E-04  mag=     2.0000
       N       E                     dE             d eps       ncg     rms          rms(c)
DAV:   1    -0.232389512206E+04    0.10257E-04   -0.13304E-03  4416   0.358E-02    0.108E-02
RMM:   2    -0.232389512829E+04   -0.62255E-05   -0.44874E-05  3002   0.691E-03
 173 F= -.23453248E+04 E0= -.23453248E+04  d E =-.247042E-04  mag=     2.0000
       N       E                     dE             d eps       ncg     rms          rms(c)
DAV:   1    -0.232389514219E+04   -0.20130E-04   -0.49368E-04  4360   0.225E-02    0.921E-03
RMM:   2    -0.232389515171E+04   -0.95134E-05   -0.23333E-05  2646   0.498E-03
 174 F= -.23453248E+04 E0= -.23453248E+04  d E =-.187172E-04  mag=     2.0000
       N       E                     dE             d eps       ncg     rms          rms(c)
DAV:   1    -0.232389516546E+04   -0.23263E-04   -0.20202E-03  4472   0.446E-02    0.140E-02
RMM:   2    -0.232389517198E+04   -0.65250E-05   -0.75769E-05  3439   0.953E-03
 175 F= -.23453248E+04 E0= -.23453248E+04  d E =-.295895E-04  mag=     2.0000
       N       E                     dE             d eps       ncg     rms          rms(c)
DAV:   1    -0.232389518319E+04   -0.17733E-04   -0.79156E-03  4504   0.870E-02    0.369E-02
RMM:   2    -0.232389530796E+04   -0.12477E-03   -0.40334E-04  5069   0.183E-02    0.106E-01
RMM:   3    -0.232389520348E+04    0.10448E-03   -0.68104E-05  2938   0.749E-03    0.159E-02
RMM:   4    -0.232389520002E+04    0.34575E-05   -0.95793E-06  2914   0.340E-03
 176 F= -.23453248E+04 E0= -.23453248E+04  d E =-.388257E-04  mag=     2.0000
       N       E                     dE             d eps       ncg     rms          rms(c)
DAV:   1    -0.232389522443E+04   -0.20953E-04   -0.81538E-04  4872   0.279E-02    0.161E-02
RMM:   2    -0.232389525046E+04   -0.26027E-04   -0.57519E-05  3036   0.626E-03    0.420E-02
RMM:   3    -0.232389522461E+04    0.25844E-04   -0.16360E-05  2672   0.401E-03    0.610E-03
RMM:   4    -0.232389522465E+04   -0.35390E-07   -0.28331E-06  2310   0.151E-03
 177 F= -.23453249E+04 E0= -.23453249E+04  d E =-.179443E-04  mag=     2.0000
       N       E                     dE             d eps       ncg     rms          rms(c)
DAV:   1    -0.232389525848E+04   -0.33872E-04   -0.63789E-03  4516   0.765E-02    0.235E-02
RMM:   2    -0.232389528882E+04   -0.30335E-04   -0.21518E-04  4983   0.125E-02    0.380E-02
RMM:   3    -0.232389527743E+04    0.11392E-04   -0.23714E-05  2918   0.592E-03    0.182E-02
RMM:   4    -0.232389527451E+04    0.29205E-05   -0.44099E-06  2683   0.203E-03
 178 F= -.23453249E+04 E0= -.23453249E+04  d E =-.495059E-04  mag=     2.0000
       N       E                     dE             d eps       ncg     rms          rms(c)
DAV:   1    -0.232389525611E+04    0.21317E-04   -0.25447E-02  4536   0.153E-01    0.457E-02
RMM:   2    -0.232389534690E+04   -0.90794E-04   -0.83555E-04  5774   0.243E-02    0.523E-02
RMM:   3    -0.232389534016E+04    0.67424E-05   -0.86096E-05  3012   0.957E-03
 179 F= -.23453249E+04 E0= -.23453249E+04  d E =-.786351E-04  mag=     2.0000
       N       E                     dE             d eps       ncg     rms          rms(c)
DAV:   1    -0.232389534835E+04   -0.14454E-05   -0.17621E-03  5032   0.410E-02    0.232E-02
RMM:   2    -0.232389536599E+04   -0.17638E-04   -0.91355E-05  3361   0.784E-03    0.346E-02
RMM:   3    -0.232389535271E+04    0.13279E-04   -0.22365E-05  2871   0.455E-03    0.187E-02
RMM:   4    -0.232389535328E+04   -0.57356E-06   -0.97583E-06  2741   0.205E-03
 180 F= -.23453249E+04 E0= -.23453249E+04  d E =-.488946E-05  mag=     2.0000
       N       E                     dE             d eps       ncg     rms          rms(c)
DAV:   1    -0.232389537888E+04   -0.26166E-04   -0.16088E-02  4504   0.120E-01    0.335E-02
RMM:   2    -0.232389544078E+04   -0.61902E-04   -0.56242E-04  5748   0.193E-02    0.393E-02
RMM:   3    -0.232389543526E+04    0.55178E-05   -0.54312E-05  2946   0.776E-03
 181 F= -.23453250E+04 E0= -.23453250E+04  d E =-.622303E-04  mag=     2.0000
       N       E                     dE             d eps       ncg     rms          rms(c)
DAV:   1    -0.232389531675E+04    0.12403E-03   -0.64755E-02  4536   0.240E-01    0.704E-02
RMM:   2    -0.232389555365E+04   -0.23690E-03   -0.22755E-03  5880   0.383E-02    0.744E-02
RMM:   3    -0.232389554597E+04    0.76752E-05   -0.19957E-04  3198   0.127E-02    0.693E-02
RMM:   4    -0.232389550308E+04    0.42891E-04   -0.43734E-05  2960   0.568E-03    0.312E-02
RMM:   5    -0.232389551085E+04   -0.77657E-05   -0.38534E-05  2915   0.452E-03
 182 F= -.23453250E+04 E0= -.23453250E+04  d E =-.888009E-04  mag=     2.0000
       N       E                     dE             d eps       ncg     rms          rms(c)
DAV:   1    -0.232389556223E+04   -0.59147E-04   -0.10266E-02  4688   0.969E-02    0.280E-02
RMM:   2    -0.232389559911E+04   -0.36879E-04   -0.37528E-04  5435   0.171E-02    0.232E-02
RMM:   3    -0.232389560473E+04   -0.56263E-05   -0.40030E-05  2924   0.683E-03
 183 F= -.23453251E+04 E0= -.23453251E+04  d E =-.707183E-04  mag=     2.0000
       N       E                     dE             d eps       ncg     rms          rms(c)
DAV:   1    -0.232389562453E+04   -0.25419E-04   -0.29717E-02  4536   0.164E-01    0.508E-02
RMM:   2    -0.232389572224E+04   -0.97712E-04   -0.10523E-03  5861   0.270E-02    0.374E-02
RMM:   3    -0.232389572738E+04   -0.51384E-05   -0.10221E-04  3005   0.983E-03    0.395E-02
RMM:   4    -0.232389571262E+04    0.14760E-04   -0.28497E-05  2939   0.445E-03    0.320E-02
RMM:   5    -0.232389570727E+04    0.53468E-05   -0.17593E-05  2832   0.310E-03
 184 F= -.23453251E+04 E0= -.23453251E+04  d E =-.134511E-03  mag=     2.0000
       N       E                     dE             d eps       ncg     rms          rms(c)
DAV:   1    -0.232389537489E+04    0.33773E-03   -0.11848E-01  4536   0.327E-01    0.913E-02
RMM:   2    -0.232389578834E+04   -0.41344E-03   -0.41150E-03  5837   0.521E-02    0.845E-02
RMM:   3    -0.232389582066E+04   -0.32322E-04   -0.37879E-04  3679   0.189E-02    0.101E-01
RMM:   4    -0.232389572068E+04    0.99978E-04   -0.79212E-05  3026   0.715E-03    0.354E-02
RMM:   5    -0.232389573823E+04   -0.17547E-04   -0.58030E-05  2937   0.579E-03    0.481E-02
RMM:   6    -0.232389570774E+04    0.30484E-04   -0.30263E-05  2959   0.497E-03    0.646E-03
RMM:   7    -0.232389570757E+04    0.17452E-06   -0.59637E-06  2888   0.361E-03
 185 F= -.23453251E+04 E0= -.23453251E+04  d E =-.577368E-04  mag=     2.0000
       N       E                     dE             d eps       ncg     rms          rms(c)
DAV:   1    -0.232389558749E+04    0.12026E-03   -0.54208E-02  4504   0.221E-01    0.609E-02
RMM:   2    -0.232389577713E+04   -0.18964E-03   -0.18692E-03  5692   0.347E-02    0.619E-02
RMM:   3    -0.232389578319E+04   -0.60654E-05   -0.16746E-04  3259   0.132E-02    0.671E-02
RMM:   4    -0.232389573745E+04    0.45745E-04   -0.34024E-05  2956   0.489E-03    0.185E-02
RMM:   5    -0.232389574337E+04   -0.59283E-05   -0.25640E-05  2937   0.402E-03
 186 F= -.23453252E+04 E0= -.23453252E+04  d E =-.145348E-03  mag=     2.0000
       N       E                     dE             d eps       ncg     rms          rms(c)
DAV:   1    -0.232389571583E+04    0.21615E-04   -0.23239E-03  4592   0.468E-02    0.147E-02
RMM:   2    -0.232389572832E+04   -0.12494E-04   -0.91175E-05  3589   0.919E-03    0.200E-02
RMM:   3    -0.232389572455E+04    0.37787E-05   -0.13358E-05  2832   0.494E-03
 187 F= -.23453252E+04 E0= -.23453252E+04  d E =-.137525E-03  mag=     2.0000
       N       E                     dE             d eps       ncg     rms          rms(c)
DAV:   1    -0.232389581767E+04   -0.89349E-04   -0.57547E-03  4512   0.750E-02    0.236E-02
RMM:   2    -0.232389584828E+04   -0.30604E-04   -0.26038E-04  5154   0.136E-02    0.304E-02
RMM:   3    -0.232389584373E+04    0.45516E-05   -0.29455E-05  2915   0.619E-03
 188 F= -.23453252E+04 E0= -.23453252E+04  d E =-.744088E-04  mag=     2.0000
       N       E                     dE             d eps       ncg     rms          rms(c)
DAV:   1    -0.232389589818E+04   -0.49906E-04   -0.77434E-03  4528   0.869E-02    0.329E-02
RMM:   2    -0.232389594022E+04   -0.42038E-04   -0.37263E-04  5501   0.159E-02    0.393E-02
RMM:   3    -0.232389593038E+04    0.98455E-05   -0.48708E-05  2913   0.652E-03
 189 F= -.23453253E+04 E0= -.23453253E+04  d E =-.108902E-03  mag=     2.0000
       N       E                     dE             d eps       ncg     rms          rms(c)
DAV:   1    -0.232389596698E+04   -0.26759E-04   -0.16394E-03  5144   0.441E-02    0.259E-02
RMM:   2    -0.232389601975E+04   -0.52768E-04   -0.18682E-04  3749   0.989E-03    0.627E-02
RMM:   3    -0.232389597611E+04    0.43640E-04   -0.39707E-05  2899   0.567E-03    0.185E-02
RMM:   4    -0.232389597413E+04    0.19807E-05   -0.10610E-05  2747   0.210E-03
 190 F= -.23453253E+04 E0= -.23453253E+04  d E =-.233758E-04  mag=     2.0000
       N       E                     dE             d eps       ncg     rms          rms(c)
DAV:   1    -0.232389599322E+04   -0.17112E-04   -0.21503E-03  4560   0.496E-02    0.197E-02
RMM:   2    -0.232389601128E+04   -0.18060E-04   -0.16717E-04  3924   0.102E-02    0.232E-02
RMM:   3    -0.232389600982E+04    0.14645E-05   -0.23647E-05  2904   0.586E-03
 191 F= -.23453253E+04 E0= -.23453253E+04  d E =-.354396E-04  mag=     2.0000
       N       E                     dE             d eps       ncg     rms          rms(c)
DAV:   1    -0.232389603526E+04   -0.23981E-04   -0.21618E-03  4576   0.509E-02    0.190E-02
RMM:   2    -0.232389605316E+04   -0.17895E-04   -0.15540E-04  3911   0.102E-02    0.222E-02
RMM:   3    -0.232389604854E+04    0.46146E-05   -0.20616E-05  2904   0.542E-03
 192 F= -.23453253E+04 E0= -.23453253E+04  d E =-.175226E-04  mag=     2.0000
       N       E                     dE             d eps       ncg     rms          rms(c)
DAV:   1    -0.232389605139E+04    0.17644E-05   -0.74564E-05  5368   0.992E-03    0.108E-02
RMM:   2    -0.232389606207E+04   -0.10676E-04   -0.20023E-05  2612   0.296E-03    0.308E-02
RMM:   3    -0.232389605094E+04    0.11133E-04   -0.67814E-06  2348   0.218E-03    0.753E-03
RMM:   4    -0.232389605039E+04    0.55008E-06   -0.11488E-06  1033   0.799E-04
 193 F= -.23453253E+04 E0= -.23453253E+04  d E =-.154589E-04  mag=     2.0000
       N       E                     dE             d eps       ncg     rms          rms(c)
DAV:   1    -0.232389608201E+04   -0.31069E-04   -0.26285E-03  4528   0.562E-02    0.192E-02
RMM:   2    -0.232389609312E+04   -0.11115E-04   -0.11001E-04  4340   0.945E-03    0.155E-02
RMM:   3    -0.232389609322E+04   -0.96552E-07   -0.14912E-05  2897   0.499E-03
 194 F= -.23453253E+04 E0= -.23453253E+04  d E =-.255400E-04  mag=     2.0000
       N       E                     dE             d eps       ncg     rms          rms(c)
DAV:   1    -0.232389609607E+04   -0.29505E-05   -0.32038E-04  5456   0.202E-02    0.985E-03
RMM:   2    -0.232389609970E+04   -0.36304E-05   -0.18655E-05  2638   0.429E-03
 195 F= -.23453253E+04 E0= -.23453253E+04  d E =-.259028E-04  mag=     2.0000
       N       E                     dE             d eps       ncg     rms          rms(c)
DAV:   1    -0.232389612704E+04   -0.30970E-04   -0.16168E-03  4560   0.447E-02    0.155E-02
RMM:   2    -0.232389613930E+04   -0.12264E-04   -0.73438E-05  3431   0.916E-03    0.282E-02
RMM:   3    -0.232389613304E+04    0.62670E-05   -0.13610E-05  2714   0.548E-03
 196 F= -.23453254E+04 E0= -.23453254E+04  d E =-.147132E-04  mag=     2.0000
       N       E                     dE             d eps       ncg     rms          rms(c)
DAV:   1    -0.232389613973E+04   -0.42045E-06   -0.22576E-04  5152   0.167E-02    0.686E-03
RMM:   2    -0.232389614053E+04   -0.80408E-06   -0.10370E-05  2488   0.382E-03
 197 F= -.23453254E+04 E0= -.23453254E+04  d E =-.150636E-04  mag=     2.0000
       N       E                     dE             d eps       ncg     rms          rms(c)
DAV:   1    -0.232389616851E+04   -0.28780E-04   -0.15316E-03  4512   0.435E-02    0.164E-02
RMM:   2    -0.232389618771E+04   -0.19203E-04   -0.98910E-05  3476   0.961E-03    0.364E-02
RMM:   3    -0.232389617594E+04    0.11768E-04   -0.17612E-05  2760   0.570E-03    0.932E-03
RMM:   4    -0.232389617490E+04    0.10377E-05   -0.25688E-06  2527   0.210E-03
 198 F= -.23453254E+04 E0= -.23453254E+04  d E =-.151867E-04  mag=     2.0000
       N       E                     dE             d eps       ncg     rms          rms(c)
DAV:   1    -0.232389617921E+04   -0.32669E-05   -0.62605E-05  5288   0.919E-03    0.783E-03
RMM:   2    -0.232389618599E+04   -0.67806E-05   -0.12381E-05  2521   0.267E-03
 199 F= -.23453254E+04 E0= -.23453254E+04  d E =-.222736E-04  mag=     2.0000
       N       E                     dE             d eps       ncg     rms          rms(c)
DAV:   1    -0.232389618304E+04   -0.38288E-05   -0.10184E-03  4464   0.356E-02    0.114E-02
RMM:   2    -0.232389619186E+04   -0.88270E-05   -0.73867E-05  3227   0.782E-03
 200 F= -.23453254E+04 E0= -.23453254E+04  d E =-.410854E-05  mag=     2.0000
       N       E                     dE             d eps       ncg     rms          rms(c)
DAV:   1    -0.232389618931E+04   -0.62718E-05   -0.25012E-05  3056   0.752E-03    0.974E-03
RMM:   2    -0.232389619981E+04   -0.10499E-04   -0.16763E-05  2430   0.415E-03    0.340E-02
RMM:   3    -0.232389618897E+04    0.10841E-04   -0.57662E-06  2016   0.223E-03    0.301E-03
RMM:   4    -0.232389618885E+04    0.12001E-06   -0.89386E-07  1886   0.127E-03
 201 F= -.23453254E+04 E0= -.23453254E+04  d E =-.128366E-05  mag=     2.0000
