       N       E                     dE             d eps       ncg     rms          rms(c)
DAV:   1     0.131301254265E+05    0.13130E+05   -0.84535E+05  4552   0.144E+03
DAV:   2    -0.102186097698E+04   -0.14152E+05   -0.13528E+05  4952   0.331E+02
DAV:   3    -0.249148933901E+04   -0.14696E+04   -0.14513E+04  5568   0.115E+02
DAV:   4    -0.253548508024E+04   -0.43996E+02   -0.43742E+02  6680   0.282E+01
DAV:   5    -0.253641130741E+04   -0.92623E+00   -0.92388E+00  6216   0.348E+00    0.170E+02
RMM:   6    -0.149879336028E+04    0.10376E+04   -0.19744E+03  4488   0.384E+01    0.740E+01
RMM:   7    -0.169986211116E+04   -0.20107E+03   -0.31630E+02  5221   0.151E+01    0.658E+01
RMM:   8    -0.170167668065E+04   -0.18146E+01   -0.10585E+02  5524   0.901E+00    0.452E+01
RMM:   9    -0.177328185942E+04   -0.71605E+02   -0.51720E+01  5035   0.744E+00    0.334E+01
RMM:  10    -0.190497036200E+04   -0.13169E+03   -0.54734E+01  5310   0.711E+00    0.274E+01
RMM:  11    -0.198595772706E+04   -0.80987E+02   -0.31350E+01  5177   0.504E+00    0.252E+01
RMM:  12    -0.206894267848E+04   -0.82985E+02   -0.35885E+01  5067   0.483E+00    0.166E+01
RMM:  13    -0.212592826577E+04   -0.56986E+02   -0.22953E+01  5308   0.379E+00    0.152E+01
RMM:  14    -0.222706353722E+04   -0.10114E+03   -0.69860E+01  4463   0.617E+00    0.948E+00
RMM:  15    -0.230265363237E+04   -0.75590E+02   -0.68385E+01  4714   0.593E+00    0.509E+00
RMM:  16    -0.232473710831E+04   -0.22083E+02   -0.23411E+01  4728   0.382E+00    0.374E+00
RMM:  17    -0.232882954598E+04   -0.40924E+01   -0.54308E+00  5423   0.157E+00    0.379E+00
RMM:  18    -0.232906376942E+04   -0.23422E+00   -0.42709E-01  5847   0.498E-01    0.344E+00
RMM:  19    -0.233293769033E+04   -0.38739E+01   -0.21642E+00  4478   0.982E-01    0.220E+00
RMM:  20    -0.233391578470E+04   -0.97809E+00   -0.64525E-01  4551   0.546E-01    0.107E+00
RMM:  21    -0.233432062312E+04   -0.40484E+00   -0.36487E-01  4809   0.363E-01    0.591E-01
RMM:  22    -0.233443864492E+04   -0.11802E+00   -0.15440E-01  4649   0.210E-01    0.378E-01
RMM:  23    -0.233450139485E+04   -0.62750E-01   -0.64946E-02  4550   0.140E-01    0.271E-01
RMM:  24    -0.233452902444E+04   -0.27630E-01   -0.20069E-02  4692   0.907E-02    0.162E-01
RMM:  25    -0.233454439137E+04   -0.15367E-01   -0.64188E-03  4800   0.573E-02    0.101E-01
RMM:  26    -0.233455622558E+04   -0.11834E-01   -0.34713E-03  4485   0.439E-02    0.811E-02
RMM:  27    -0.233456277531E+04   -0.65497E-02   -0.17740E-03  4610   0.339E-02    0.455E-02
RMM:  28    -0.233456717144E+04   -0.43961E-02   -0.11039E-03  4215   0.253E-02    0.287E-02
RMM:  29    -0.233456900969E+04   -0.18382E-02   -0.55873E-04  4242   0.191E-02    0.169E-02
RMM:  30    -0.233456951435E+04   -0.50466E-03   -0.18549E-04  4020   0.110E-02    0.946E-03
RMM:  31    -0.233456972104E+04   -0.20669E-03   -0.52199E-05  3566   0.634E-03    0.567E-03
RMM:  32    -0.233456981264E+04   -0.91606E-04   -0.19271E-05  3044   0.451E-03    0.298E-03
RMM:  33    -0.233456986324E+04   -0.50595E-04   -0.13384E-05  2919   0.376E-03    0.171E-03
RMM:  34    -0.233456988408E+04   -0.20847E-04   -0.80891E-06  2866   0.316E-03    0.113E-03
RMM:  35    -0.233456988936E+04   -0.52747E-05   -0.35439E-06  2460   0.227E-03
   1 F= -.23560607E+04 E0= -.23560607E+04  d E =-.235606E+04  mag=     4.0000
       N       E                     dE             d eps       ncg     rms          rms(c)
DAV:   1    -0.233524283157E+04   -0.67295E+00   -0.39035E+01  4880   0.412E+00    0.163E+00
RMM:   2    -0.233551977832E+04   -0.27695E+00   -0.31714E+00  6455   0.921E-01    0.146E+00
RMM:   3    -0.233552153567E+04   -0.17573E-02   -0.35138E-01  6365   0.328E-01    0.122E+00
RMM:   4    -0.233550444840E+04    0.17087E-01   -0.52374E-02  6129   0.919E-02    0.626E-01
RMM:   5    -0.233550272612E+04    0.17223E-02   -0.22488E-02  5951   0.647E-02    0.670E-01
RMM:   6    -0.233549973767E+04    0.29884E-02   -0.11684E-02  5953   0.473E-02    0.388E-01
RMM:   7    -0.233549864599E+04    0.10917E-02   -0.25027E-03  5394   0.206E-02    0.206E-01
RMM:   8    -0.233549812420E+04    0.52179E-03   -0.84567E-04  4205   0.134E-02    0.811E-02
RMM:   9    -0.233549802240E+04    0.10180E-03   -0.21241E-04  3436   0.771E-03    0.328E-02
RMM:  10    -0.233549800417E+04    0.18226E-04   -0.47597E-05  3064   0.590E-03    0.145E-02
RMM:  11    -0.233549799924E+04    0.49264E-05   -0.21851E-05  2965   0.456E-03
   2 F= -.23569865E+04 E0= -.23569865E+04  d E =-.925863E+00  mag=     4.0000
       N       E                     dE             d eps       ncg     rms          rms(c)
DAV:   1    -0.233555736763E+04   -0.59363E-01   -0.41461E+01  4592   0.395E+00    0.154E+00
RMM:   2    -0.233585274141E+04   -0.29537E+00   -0.32875E+00  6458   0.932E-01    0.131E+00
RMM:   3    -0.233585734882E+04   -0.46074E-02   -0.35425E-01  6319   0.338E-01    0.103E+00
RMM:   4    -0.233584686133E+04    0.10487E-01   -0.46723E-02  6120   0.872E-02    0.632E-01
RMM:   5    -0.233584444517E+04    0.24162E-02   -0.20377E-02  6092   0.656E-02    0.557E-01
RMM:   6    -0.233584196696E+04    0.24782E-02   -0.10993E-02  6046   0.468E-02    0.327E-01
RMM:   7    -0.233584067983E+04    0.12871E-02   -0.18274E-03  5367   0.192E-02    0.116E-01
RMM:   8    -0.233584074443E+04   -0.64596E-04   -0.59429E-04  3796   0.114E-02    0.129E-01
RMM:   9    -0.233584051732E+04    0.22711E-03   -0.24663E-04  3458   0.846E-03    0.343E-02
RMM:  10    -0.233584049856E+04    0.18759E-04   -0.64127E-05  3135   0.592E-03    0.148E-02
RMM:  11    -0.233584049541E+04    0.31457E-05   -0.22936E-05  2966   0.491E-03
   3 F= -.23573275E+04 E0= -.23573275E+04  d E =-.126686E+01  mag=     3.9999
       N       E                     dE             d eps       ncg     rms          rms(c)
DAV:   1    -0.233631098945E+04   -0.47049E+00   -0.13396E+01  4712   0.264E+00    0.106E+00
RMM:   2    -0.233641190703E+04   -0.10092E+00   -0.10982E+00  6232   0.567E-01    0.868E-01
RMM:   3    -0.233641564031E+04   -0.37333E-02   -0.13912E-01  6197   0.227E-01    0.685E-01
RMM:   4    -0.233641185671E+04    0.37836E-02   -0.15679E-02  5800   0.566E-02    0.470E-01
RMM:   5    -0.233641138653E+04    0.47018E-03   -0.66056E-03  5708   0.362E-02    0.452E-01
RMM:   6    -0.233640962473E+04    0.17618E-02   -0.38179E-03  5521   0.318E-02    0.125E-01
RMM:   7    -0.233640964098E+04   -0.16249E-04   -0.83530E-04  4482   0.180E-02    0.134E-01
RMM:   8    -0.233640940293E+04    0.23805E-03   -0.24834E-04  3185   0.764E-03    0.355E-02
RMM:   9    -0.233640937953E+04    0.23396E-04   -0.57115E-05  3049   0.477E-03    0.169E-02
RMM:  10    -0.233640937037E+04    0.91675E-05   -0.32052E-05  3030   0.429E-03
   4 F= -.23578971E+04 E0= -.23578971E+04  d E =-.569602E+00  mag=     3.9999
       N       E                     dE             d eps       ncg     rms          rms(c)
DAV:   1    -0.233654092384E+04   -0.13154E+00   -0.25807E+01  4560   0.369E+00    0.146E+00
RMM:   2    -0.233673721512E+04   -0.19629E+00   -0.21367E+00  6176   0.787E-01    0.122E+00
RMM:   3    -0.233674068293E+04   -0.34678E-02   -0.26668E-01  6134   0.318E-01    0.907E-01
RMM:   4    -0.233673508071E+04    0.56022E-02   -0.29872E-02  5850   0.781E-02    0.674E-01
RMM:   5    -0.233673346542E+04    0.16153E-02   -0.11993E-02  5862   0.496E-02    0.601E-01
RMM:   6    -0.233673055271E+04    0.29127E-02   -0.73535E-03  5509   0.436E-02    0.187E-01
RMM:   7    -0.233673045183E+04    0.10087E-03   -0.16192E-03  5004   0.253E-02    0.181E-01
RMM:   8    -0.233673003496E+04    0.41687E-03   -0.46376E-04  3712   0.101E-02    0.552E-02
RMM:   9    -0.233672997738E+04    0.57579E-04   -0.11148E-04  3162   0.622E-03    0.249E-02
RMM:  10    -0.233672995784E+04    0.19541E-04   -0.59683E-05  3296   0.578E-03    0.109E-02
RMM:  11    -0.233672995502E+04    0.28184E-05   -0.12786E-05  2940   0.467E-03
   5 F= -.23582193E+04 E0= -.23582192E+04  d E =-.891739E+00  mag=     3.9991
       N       E                     dE             d eps       ncg     rms          rms(c)
DAV:   1    -0.233697191216E+04   -0.24195E+00   -0.10935E+01  4624   0.218E+00    0.867E-01
RMM:   2    -0.233706765910E+04   -0.95747E-01   -0.10526E+00  6539   0.471E-01    0.718E-01
RMM:   3    -0.233707338610E+04   -0.57270E-02   -0.11837E-01  6305   0.189E-01    0.657E-01
RMM:   4    -0.233706953744E+04    0.38487E-02   -0.14938E-02  5856   0.518E-02    0.355E-01
RMM:   5    -0.233707037872E+04   -0.84128E-03   -0.69738E-03  5593   0.373E-02    0.430E-01
RMM:   6    -0.233706827514E+04    0.21036E-02   -0.32070E-03  5259   0.260E-02    0.170E-01
RMM:   7    -0.233706804708E+04    0.22806E-03   -0.68959E-04  3896   0.128E-02    0.947E-02
RMM:   8    -0.233706794477E+04    0.10231E-03   -0.22519E-04  3095   0.807E-03    0.494E-02
RMM:   9    -0.233706791454E+04    0.30229E-04   -0.62725E-05  3096   0.463E-03    0.167E-02
RMM:  10    -0.233706791104E+04    0.35046E-05   -0.18585E-05  2997   0.347E-03
   6 F= -.23585584E+04 E0= -.23585584E+04  d E =-.339154E+00  mag=     3.9996
       N       E                     dE             d eps       ncg     rms          rms(c)
DAV:   1    -0.233707703117E+04   -0.91166E-02   -0.10775E+01  4616   0.215E+00    0.857E-01
RMM:   2    -0.233717142828E+04   -0.94397E-01   -0.10256E+00  6545   0.458E-01    0.725E-01
RMM:   3    -0.233717764271E+04   -0.62144E-02   -0.11862E-01  6331   0.186E-01    0.676E-01
RMM:   4    -0.233717385367E+04    0.37890E-02   -0.14820E-02  5878   0.503E-02    0.352E-01
RMM:   5    -0.233717512228E+04   -0.12686E-02   -0.67027E-03  5576   0.353E-02    0.463E-01
RMM:   6    -0.233717259394E+04    0.25283E-02   -0.33077E-03  5301   0.259E-02    0.147E-01
RMM:   7    -0.233717249850E+04    0.95443E-04   -0.69777E-04  3860   0.130E-02    0.998E-02
RMM:   8    -0.233717237441E+04    0.12408E-03   -0.23607E-04  3085   0.805E-03    0.462E-02
RMM:   9    -0.233717234830E+04    0.26116E-04   -0.61199E-05  3061   0.452E-03    0.158E-02
RMM:  10    -0.233717234480E+04    0.35017E-05   -0.16995E-05  2996   0.346E-03
   7 F= -.23586644E+04 E0= -.23586644E+04  d E =-.445148E+00  mag=     3.9998
       N       E                     dE             d eps       ncg     rms          rms(c)
DAV:   1    -0.233725596972E+04   -0.83621E-01   -0.52704E+00  4608   0.172E+00    0.755E-01
RMM:   2    -0.233733513478E+04   -0.79165E-01   -0.79133E-01  6620   0.386E-01    0.938E-01
RMM:   3    -0.233733586363E+04   -0.72885E-03   -0.98140E-02  6327   0.167E-01    0.693E-01
RMM:   4    -0.233733230253E+04    0.35611E-02   -0.97975E-03  5575   0.396E-02    0.268E-01
RMM:   5    -0.233733257183E+04   -0.26930E-03   -0.32331E-03  5434   0.234E-02    0.313E-01
RMM:   6    -0.233733150698E+04    0.10648E-02   -0.22821E-03  4922   0.212E-02    0.118E-01
RMM:   7    -0.233733146062E+04    0.46365E-04   -0.50155E-04  3505   0.114E-02    0.941E-02
RMM:   8    -0.233733136381E+04    0.96812E-04   -0.16821E-04  3026   0.727E-03    0.322E-02
RMM:   9    -0.233733135148E+04    0.12324E-04   -0.35246E-05  2984   0.402E-03    0.127E-02
RMM:  10    -0.233733135167E+04   -0.18835E-06   -0.97240E-06  2945   0.270E-03
   8 F= -.23588240E+04 E0= -.23588240E+04  d E =-.159583E+00  mag=     3.9999
       N       E                     dE             d eps       ncg     rms          rms(c)
DAV:   1    -0.233725962564E+04    0.71726E-01   -0.10879E+01  4536   0.244E+00    0.107E+00
RMM:   2    -0.233742168947E+04   -0.16206E+00   -0.16313E+00  6582   0.555E-01    0.134E+00
RMM:   3    -0.233742535115E+04   -0.36617E-02   -0.20762E-01  6292   0.250E-01    0.104E+00
RMM:   4    -0.233741728426E+04    0.80669E-02   -0.20103E-02  5916   0.576E-02    0.379E-01
RMM:   5    -0.233741785806E+04   -0.57380E-03   -0.66778E-03  5759   0.335E-02    0.436E-01
RMM:   6    -0.233741571993E+04    0.21381E-02   -0.45954E-03  5424   0.297E-02    0.166E-01
RMM:   7    -0.233741565982E+04    0.60115E-04   -0.95979E-04  4238   0.148E-02    0.137E-01
RMM:   8    -0.233741545243E+04    0.20739E-03   -0.33569E-04  3162   0.893E-03    0.464E-02
RMM:   9    -0.233741542977E+04    0.22661E-04   -0.75159E-05  3004   0.552E-03    0.161E-02
RMM:  10    -0.233741543206E+04   -0.22908E-05   -0.19562E-05  2986   0.335E-03
   9 F= -.23589092E+04 E0= -.23589092E+04  d E =-.244795E+00  mag=     3.9999
       N       E                     dE             d eps       ncg     rms          rms(c)
DAV:   1    -0.233747842439E+04   -0.62995E-01   -0.74798E+00  4624   0.208E+00    0.917E-01
RMM:   2    -0.233759075941E+04   -0.11234E+00   -0.10112E+00  6508   0.496E-01    0.143E+00
RMM:   3    -0.233757641439E+04    0.14345E-01   -0.12246E-01  6402   0.191E-01    0.757E-01
RMM:   4    -0.233757337469E+04    0.30397E-02   -0.16497E-02  5940   0.508E-02    0.417E-01
RMM:   5    -0.233757185913E+04    0.15156E-02   -0.51255E-03  5797   0.293E-02    0.329E-01
RMM:   6    -0.233757074770E+04    0.11114E-02   -0.31380E-03  5450   0.279E-02    0.115E-01
RMM:   7    -0.233757078240E+04   -0.34700E-04   -0.81911E-04  4173   0.161E-02    0.112E-01
RMM:   8    -0.233757063050E+04    0.15190E-03   -0.23504E-04  3102   0.750E-03    0.401E-02
RMM:   9    -0.233757061716E+04    0.13342E-04   -0.44132E-05  3038   0.464E-03    0.136E-02
RMM:  10    -0.233757062246E+04   -0.53079E-05   -0.11805E-05  2926   0.321E-03
  10 F= -.23590642E+04 E0= -.23590641E+04  d E =-.154935E+00  mag=     3.9995
       N       E                     dE             d eps       ncg     rms          rms(c)
DAV:   1    -0.233750313700E+04    0.67480E-01   -0.11615E+01  4624   0.261E+00    0.116E+00
RMM:   2    -0.233767906801E+04   -0.17593E+00   -0.15843E+00  6526   0.618E-01    0.184E+00
RMM:   3    -0.233765432213E+04    0.24746E-01   -0.18592E-01  6405   0.232E-01    0.944E-01
RMM:   4    -0.233764929842E+04    0.50237E-02   -0.25503E-02  6050   0.629E-02    0.531E-01
RMM:   5    -0.233764699131E+04    0.23071E-02   -0.79402E-03  5939   0.361E-02    0.405E-01
RMM:   6    -0.233764538770E+04    0.16036E-02   -0.47240E-03  5547   0.332E-02    0.162E-01
RMM:   7    -0.233764552988E+04   -0.14218E-03   -0.15666E-03  4759   0.214E-02    0.174E-01
RMM:   8    -0.233764511651E+04    0.41337E-03   -0.40239E-04  3449   0.948E-03    0.523E-02
RMM:   9    -0.233764510710E+04    0.94129E-05   -0.75295E-05  3038   0.562E-03
  11 F= -.23591386E+04 E0= -.23591385E+04  d E =-.229371E+00  mag=     3.9981
       N       E                     dE             d eps       ncg     rms          rms(c)
DAV:   1    -0.233766405065E+04   -0.18934E-01   -0.64691E+00  4592   0.193E+00    0.866E-01
RMM:   2    -0.233778508612E+04   -0.12104E+00   -0.11436E+00  6628   0.489E-01    0.120E+00
RMM:   3    -0.233777743147E+04    0.76546E-02   -0.12082E-01  6395   0.183E-01    0.710E-01
RMM:   4    -0.233777505767E+04    0.23738E-02   -0.17241E-02  5822   0.486E-02    0.437E-01
RMM:   5    -0.233777321582E+04    0.18419E-02   -0.39890E-03  5597   0.255E-02    0.275E-01
RMM:   6    -0.233777254596E+04    0.66986E-03   -0.24767E-03  5487   0.241E-02    0.130E-01
RMM:   7    -0.233777266129E+04   -0.11533E-03   -0.11308E-03  4198   0.170E-02    0.141E-01
RMM:   8    -0.233777239877E+04    0.26252E-03   -0.26357E-04  3158   0.845E-03    0.346E-02
RMM:   9    -0.233777240034E+04   -0.15748E-05   -0.46348E-05  3037   0.465E-03
  12 F= -.23592663E+04 E0= -.23592660E+04  d E =-.127743E+00  mag=     3.9943
       N       E                     dE             d eps       ncg     rms          rms(c)
DAV:   1    -0.233746369491E+04    0.30870E+00   -0.24819E+01  4520   0.380E+00    0.172E+00
RMM:   2    -0.233794379489E+04   -0.48010E+00   -0.45356E+00  6606   0.100E+00    0.251E+00
RMM:   3    -0.233790476422E+04    0.39031E-01   -0.48180E-01  6402   0.369E-01    0.140E+00
RMM:   4    -0.233789514797E+04    0.96163E-02   -0.68594E-02  6311   0.982E-02    0.903E-01
RMM:   5    -0.233788749362E+04    0.76544E-02   -0.15640E-02  5972   0.502E-02    0.541E-01
RMM:   6    -0.233788507033E+04    0.24233E-02   -0.91475E-03  5835   0.452E-02    0.281E-01
RMM:   7    -0.233788546452E+04   -0.39419E-03   -0.51034E-03  5578   0.342E-02    0.297E-01
RMM:   8    -0.233788429373E+04    0.11708E-02   -0.11363E-03  4537   0.158E-02    0.723E-02
RMM:   9    -0.233788429171E+04    0.20157E-05   -0.19894E-04  3235   0.765E-03    0.393E-02
RMM:  10    -0.233788435253E+04   -0.60819E-04   -0.78726E-05  3085   0.614E-03    0.170E-02
RMM:  11    -0.233788440941E+04   -0.56879E-04   -0.23337E-05  3009   0.436E-03    0.110E-02
RMM:  12    -0.233788446342E+04   -0.54007E-04   -0.13749E-05  2928   0.352E-03    0.741E-03
RMM:  13    -0.233788449879E+04   -0.35372E-04   -0.87084E-06  2892   0.320E-03    0.466E-03
RMM:  14    -0.233788451555E+04   -0.16762E-04   -0.50215E-06  2779   0.255E-03    0.310E-03
RMM:  15    -0.233788452441E+04   -0.88577E-05   -0.36437E-06  2617   0.217E-03
  13 F= -.23593797E+04 E0= -.23593774E+04  d E =-.241087E+00  mag=     3.9434
       N       E                     dE             d eps       ncg     rms          rms(c)
DAV:   1    -0.233781800997E+04    0.66506E-01   -0.12923E+01  4544   0.272E+00    0.113E+00
RMM:   2    -0.233804958090E+04   -0.23157E+00   -0.23156E+00  6608   0.689E-01    0.133E+00
RMM:   3    -0.233805083832E+04   -0.12574E-02   -0.23956E-01  6414   0.262E-01    0.772E-01
RMM:   4    -0.233804974225E+04    0.10961E-02   -0.31473E-02  6076   0.651E-02    0.694E-01
RMM:   5    -0.233804593198E+04    0.38103E-02   -0.64790E-03  5581   0.319E-02    0.370E-01
RMM:   6    -0.233804452731E+04    0.14047E-02   -0.37737E-03  5331   0.309E-02    0.143E-01
RMM:   7    -0.233804451736E+04    0.99490E-05   -0.11593E-03  4498   0.207E-02    0.741E-02
RMM:   8    -0.233804450179E+04    0.15570E-04   -0.17079E-04  3188   0.744E-03    0.709E-02
RMM:   9    -0.233804447259E+04    0.29197E-04   -0.58400E-05  2977   0.527E-03    0.518E-02
RMM:  10    -0.233804447813E+04   -0.55371E-05   -0.81721E-05  3140   0.478E-03
  14 F= -.23595419E+04 E0= -.23595353E+04  d E =-.162233E+00  mag=     3.8503
       N       E                     dE             d eps       ncg     rms          rms(c)
DAV:   1    -0.233775462300E+04    0.28985E+00   -0.20264E+01  4520   0.342E+00    0.145E+00
RMM:   2    -0.233813224050E+04   -0.37762E+00   -0.36739E+00  6592   0.874E-01    0.247E+00
RMM:   3    -0.233812158835E+04    0.10652E-01   -0.37188E-01  6386   0.328E-01    0.131E+00
RMM:   4    -0.233813692381E+04   -0.15335E-01   -0.50106E-02  5830   0.804E-02    0.202E+00
RMM:   5    -0.233813683786E+04    0.85951E-04   -0.21999E-03  3742   0.220E-02    0.192E+00
RMM:   6    -0.233811824733E+04    0.18591E-01   -0.19740E-02  4939   0.560E-02    0.832E-01
RMM:   7    -0.233811480878E+04    0.34386E-02   -0.98951E-03  5641   0.460E-02    0.772E-01
RMM:   8    -0.233811360463E+04    0.12042E-02   -0.76986E-03  5738   0.388E-02    0.587E-01
RMM:   9    -0.233811064070E+04    0.29639E-02   -0.41911E-03  5424   0.304E-02    0.431E-01
RMM:  10    -0.233810986343E+04    0.77727E-03   -0.72362E-04  3945   0.148E-02    0.374E-01
RMM:  11    -0.233810866634E+04    0.11971E-02   -0.64360E-04  4258   0.123E-02    0.369E-01
RMM:  12    -0.233810817960E+04    0.48675E-03   -0.18115E-04  3164   0.820E-03    0.399E-01
RMM:  13    -0.233810891142E+04   -0.73182E-03   -0.13243E-04  3072   0.615E-03    0.368E-01
RMM:  14    -0.233811089663E+04   -0.19852E-02   -0.20457E-03  4544   0.190E-02    0.360E-01
RMM:  15    -0.233811227827E+04   -0.13816E-02   -0.13000E-03  4104   0.169E-02    0.444E-01
RMM:  16    -0.233811115996E+04    0.11183E-02   -0.27876E-04  3249   0.831E-03    0.307E-01
RMM:  17    -0.233811060150E+04    0.55846E-03   -0.24464E-04  3296   0.809E-03    0.297E-01
RMM:  18    -0.233810842233E+04    0.21792E-02   -0.25047E-03  4795   0.209E-02    0.332E-01
RMM:  19    -0.233810755431E+04    0.86802E-03   -0.52371E-04  3671   0.124E-02    0.394E-01
RMM:  20    -0.233810962011E+04   -0.20658E-02   -0.10727E-03  4076   0.140E-02    0.318E-01
RMM:  21    -0.233811253252E+04   -0.29124E-02   -0.34310E-03  4841   0.249E-02    0.467E-01
RMM:  22    -0.233811330957E+04   -0.77705E-03   -0.72742E-04  3800   0.130E-02    0.498E-01
RMM:  23    -0.233811318293E+04    0.12664E-03   -0.91445E-05  2971   0.420E-03    0.475E-01
RMM:  24    -0.233811194024E+04    0.12427E-02   -0.34766E-04  3368   0.802E-03    0.359E-01
RMM:  25    -0.233810933315E+04    0.26071E-02   -0.32382E-03  4831   0.233E-02    0.281E-01
RMM:  26    -0.233810652170E+04    0.28114E-02   -0.29208E-03  4641   0.241E-02    0.456E-01
RMM:  27    -0.233810721211E+04   -0.69040E-03   -0.14868E-04  3021   0.701E-03    0.412E-01
RMM:  28    -0.233810725711E+04   -0.44998E-04   -0.16452E-05  2853   0.280E-03    0.407E-01
RMM:  29    -0.233810720302E+04    0.54081E-04   -0.26685E-06  2507   0.159E-03    0.411E-01
RMM:  30    -0.233810713052E+04    0.72508E-04   -0.25922E-06  2316   0.132E-03    0.416E-01
RMM:  31    -0.233810834023E+04   -0.12097E-02   -0.40727E-04  3434   0.813E-03    0.338E-01
RMM:  32    -0.233811209122E+04   -0.37510E-02   -0.56285E-03  4984   0.307E-02    0.408E-01
RMM:  33    -0.233812063995E+04   -0.85487E-02   -0.86103E-03  5154   0.405E-02    0.109E+00
RMM:  34    -0.233812878937E+04   -0.81494E-02   -0.42573E-03  5116   0.281E-02    0.146E+00
RMM:  35    -0.233812782097E+04    0.96840E-03   -0.43252E-04  3223   0.105E-02    0.135E+00
RMM:  36    -0.233812754887E+04    0.27210E-03   -0.64418E-05  2954   0.432E-03    0.136E+00
RMM:  37    -0.233812774422E+04   -0.19536E-03   -0.54057E-06  2777   0.214E-03    0.137E+00
RMM:  38    -0.233812296282E+04    0.47814E-02   -0.57111E-04  3809   0.986E-03    0.109E+00
RMM:  39    -0.233812146026E+04    0.15026E-02   -0.18791E-04  3011   0.739E-03    0.105E+00
RMM:  40    -0.233811997231E+04    0.14880E-02   -0.21634E-04  3405   0.654E-03    0.957E-01
RMM:  41    -0.233811980466E+04    0.16765E-03   -0.36708E-05  2933   0.486E-03    0.971E-01
RMM:  42    -0.233811847789E+04    0.13268E-02   -0.12373E-04  3096   0.557E-03    0.864E-01
RMM:  43    -0.233811600928E+04    0.24686E-02   -0.48094E-04  4058   0.967E-03    0.673E-01
RMM:  44    -0.233811324726E+04    0.27620E-02   -0.11773E-03  4315   0.147E-02    0.445E-01
RMM:  45    -0.233811105922E+04    0.21880E-02   -0.17187E-03  4680   0.178E-02    0.305E-01
RMM:  46    -0.233810954926E+04    0.15100E-02   -0.15290E-03  4401   0.166E-02    0.292E-01
RMM:  47    -0.233810742390E+04    0.21254E-02   -0.21340E-03  4862   0.196E-02    0.401E-01
RMM:  48    -0.233810551596E+04    0.19079E-02   -0.11707E-03  4280   0.156E-02    0.539E-01
RMM:  49    -0.233810501353E+04    0.50244E-03   -0.23581E-04  3145   0.677E-03    0.573E-01
RMM:  50    -0.233810520342E+04   -0.18989E-03   -0.12881E-05  2890   0.349E-03    0.560E-01
RMM:  51    -0.233810591258E+04   -0.70916E-03   -0.68957E-05  2847   0.373E-03    0.511E-01
RMM:  52    -0.233810640439E+04   -0.49181E-03   -0.55732E-05  2853   0.345E-03    0.476E-01
RMM:  53    -0.233810732897E+04   -0.92457E-03   -0.20858E-04  3141   0.606E-03    0.412E-01
RMM:  54    -0.233810814336E+04   -0.81440E-03   -0.24390E-04  3353   0.680E-03    0.358E-01
RMM:  55    -0.233810933892E+04   -0.11956E-02   -0.66553E-04  4020   0.108E-02    0.307E-01
RMM:  56    -0.233811024376E+04   -0.90484E-03   -0.56899E-04  3749   0.108E-02    0.301E-01
RMM:  57    -0.233811169113E+04   -0.14474E-02   -0.10621E-03  4447   0.138E-02    0.378E-01
RMM:  58    -0.233811280838E+04   -0.11172E-02   -0.57969E-04  3723   0.114E-02    0.458E-01
RMM:  59    -0.233811352045E+04   -0.71208E-03   -0.25583E-04  3184   0.757E-03    0.510E-01
RMM:  60    -0.233811356392E+04   -0.43465E-04   -0.25234E-05  2904   0.428E-03    0.503E-01
RMM:  61    -0.233811353343E+04    0.30489E-04   -0.40747E-06  2693   0.209E-03    0.502E-01
RMM:  62    -0.233811335684E+04    0.17659E-03   -0.49504E-06  2544   0.188E-03    0.484E-01
RMM:  63    -0.233811303581E+04    0.32103E-03   -0.21092E-05  2568   0.210E-03    0.456E-01
RMM:  64    -0.233811269020E+04    0.34561E-03   -0.31685E-05  2731   0.248E-03    0.429E-01
RMM:  65    -0.233811261982E+04    0.70384E-04   -0.70661E-06  2354   0.159E-03    0.429E-01
RMM:  66    -0.233811275012E+04   -0.13030E-03   -0.25939E-06  1939   0.113E-03    0.442E-01
RMM:  67    -0.233811270587E+04    0.44245E-04   -0.55297E-07  1333   0.764E-04    0.436E-01
RMM:  68    -0.233811268703E+04    0.18840E-04   -0.27149E-07  1065   0.712E-04    0.436E-01
RMM:  69    -0.233811276339E+04   -0.76358E-04   -0.62697E-07  1026   0.710E-04    0.443E-01
RMM:  70    -0.233811283794E+04   -0.74551E-04   -0.18937E-06  1335   0.802E-04    0.449E-01
RMM:  71    -0.233811294206E+04   -0.10412E-03   -0.26540E-06  1603   0.972E-04    0.458E-01
RMM:  72    -0.233811444397E+04   -0.15019E-02   -0.34215E-04  3553   0.766E-03    0.602E-01
RMM:  73    -0.233811396356E+04    0.48041E-03   -0.28453E-05  2838   0.432E-03    0.523E-01
RMM:  74    -0.233811401633E+04   -0.52770E-04   -0.29797E-06  2328   0.168E-03    0.546E-01
RMM:  75    -0.233811341239E+04    0.60394E-03   -0.51912E-05  2673   0.316E-03    0.480E-01
RMM:  76    -0.233811296947E+04    0.44292E-03   -0.49155E-05  2781   0.315E-03    0.450E-01
RMM:  77    -0.233811236004E+04    0.60943E-03   -0.10714E-04  2936   0.447E-03    0.398E-01
RMM:  78    -0.233811126851E+04    0.10915E-02   -0.42803E-04  3833   0.836E-03    0.316E-01
RMM:  79    -0.233811049683E+04    0.77168E-03   -0.36756E-04  3308   0.847E-03    0.292E-01
RMM:  80    -0.233810973973E+04    0.75710E-03   -0.41643E-04  3726   0.854E-03    0.287E-01
RMM:  81    -0.233810911121E+04    0.62852E-03   -0.28568E-04  3249   0.812E-03    0.305E-01
RMM:  82    -0.233810909596E+04    0.15248E-04   -0.36428E-05  2882   0.422E-03    0.310E-01
RMM:  83    -0.233810901205E+04    0.83908E-04   -0.10427E-05  2662   0.231E-03    0.312E-01
RMM:  84    -0.233810877274E+04    0.23931E-03   -0.27521E-05  2847   0.310E-03    0.322E-01
RMM:  85    -0.233810817579E+04    0.59695E-03   -0.14565E-04  3103   0.559E-03    0.354E-01
RMM:  86    -0.233810760159E+04    0.57421E-03   -0.13818E-04  3012   0.563E-03    0.393E-01
RMM:  87    -0.233810719849E+04    0.40310E-03   -0.82599E-05  2931   0.484E-03    0.420E-01
RMM:  88    -0.233810719965E+04   -0.11673E-05   -0.83657E-06  2652   0.270E-03
  15 F= -.23596078E+04 E0= -.23596049E+04  d E =-.228119E+00  mag=     4.0992
       N       E                     dE             d eps       ncg     rms          rms(c)
DAV:   1    -0.233805091332E+04    0.56285E-01   -0.83321E+00  4536   0.214E+00    0.103E+00
RMM:   2    -0.233823029653E+04   -0.17938E+00   -0.17969E+00  6647   0.571E-01    0.122E+00
RMM:   3    -0.233823789781E+04   -0.76013E-02   -0.19530E-01  6267   0.228E-01    0.714E-01
RMM:   4    -0.233824278454E+04   -0.48867E-02   -0.24183E-02  5763   0.570E-02    0.112E+00
RMM:   5    -0.233824226388E+04    0.52066E-03   -0.10499E-03  3484   0.155E-02    0.109E+00
RMM:   6    -0.233823838049E+04    0.38834E-02   -0.96857E-03  4881   0.413E-02    0.694E-01
RMM:   7    -0.233823477497E+04    0.36055E-02   -0.90116E-03  5406   0.403E-02    0.738E-01
RMM:   8    -0.233823054622E+04    0.42287E-02   -0.41569E-03  5422   0.266E-02    0.713E-01
RMM:   9    -0.233822423717E+04    0.63090E-02   -0.46506E-03  4863   0.287E-02    0.104E+00
RMM:  10    -0.233823658123E+04   -0.12344E-01   -0.20127E-02  4874   0.598E-02    0.582E-01
RMM:  11    -0.233823806692E+04   -0.14857E-02   -0.72249E-03  4962   0.456E-02    0.612E-01
RMM:  12    -0.233824206349E+04   -0.39966E-02   -0.46632E-03  5462   0.278E-02    0.942E-01
RMM:  13    -0.233823795599E+04    0.41075E-02   -0.18690E-03  4491   0.202E-02    0.450E-01
RMM:  14    -0.233823510846E+04    0.28475E-02   -0.29555E-03  4672   0.246E-02    0.390E-01
RMM:  15    -0.233823143288E+04    0.36756E-02   -0.52172E-03  5030   0.320E-02    0.537E-01
RMM:  16    -0.233822773936E+04    0.36935E-02   -0.27767E-03  4739   0.238E-02    0.761E-01
RMM:  17    -0.233822501099E+04    0.27284E-02   -0.10961E-03  4509   0.136E-02    0.909E-01
RMM:  18    -0.233822778083E+04   -0.27698E-02   -0.36454E-04  3520   0.888E-03    0.757E-01
RMM:  19    -0.233823039001E+04   -0.26092E-02   -0.87288E-04  4228   0.130E-02    0.589E-01
RMM:  20    -0.233823280907E+04   -0.24191E-02   -0.15267E-03  4579   0.172E-02    0.442E-01
RMM:  21    -0.233823429596E+04   -0.14869E-02   -0.97552E-04  4183   0.136E-02    0.398E-01
RMM:  22    -0.233823548996E+04   -0.11940E-02   -0.60888E-04  3872   0.106E-02    0.409E-01
RMM:  23    -0.233823577854E+04   -0.28858E-03   -0.10747E-04  3011   0.593E-03    0.410E-01
RMM:  24    -0.233823570671E+04    0.71827E-04   -0.10884E-05  2861   0.290E-03    0.403E-01
RMM:  25    -0.233823553881E+04    0.16790E-03   -0.67605E-06  2607   0.198E-03    0.397E-01
RMM:  26    -0.233823546339E+04    0.75414E-04   -0.27199E-06  2351   0.137E-03    0.396E-01
RMM:  27    -0.233823549520E+04   -0.31805E-04   -0.33212E-07  1931   0.823E-04    0.397E-01
RMM:  28    -0.233823492810E+04    0.56710E-03   -0.81496E-05  2888   0.377E-03    0.384E-01
RMM:  29    -0.233823228005E+04    0.26481E-02   -0.18129E-03  4666   0.170E-02    0.451E-01
RMM:  30    -0.233823492424E+04   -0.26442E-02   -0.12388E-03  4696   0.145E-02    0.412E-01
RMM:  31    -0.233823649562E+04   -0.15714E-02   -0.84050E-04  4119   0.126E-02    0.447E-01
RMM:  32    -0.233824334701E+04   -0.68514E-02   -0.53083E-03  5087   0.296E-02    0.940E-01
RMM:  33    -0.233824806590E+04   -0.47189E-02   -0.22646E-03  4541   0.220E-02    0.118E+00
RMM:  34    -0.233824789336E+04    0.17254E-03   -0.28729E-04  3102   0.765E-03    0.112E+00
RMM:  35    -0.233824795541E+04   -0.62050E-04   -0.32808E-05  2925   0.389E-03    0.114E+00
RMM:  36    -0.233825466894E+04   -0.67135E-02   -0.97983E-04  4641   0.128E-02    0.152E+00
RMM:  37    -0.233824963333E+04    0.50356E-02   -0.45819E-04  3654   0.104E-02    0.117E+00
RMM:  38    -0.233824387402E+04    0.57593E-02   -0.14516E-03  4575   0.155E-02    0.850E-01
RMM:  39    -0.233825225349E+04   -0.83795E-02   -0.16992E-03  4742   0.173E-02    0.147E+00
RMM:  40    -0.233824940189E+04    0.28516E-02   -0.16532E-04  3059   0.829E-03    0.119E+00
RMM:  41    -0.233824398221E+04    0.54197E-02   -0.11734E-03  4524   0.141E-02    0.880E-01
RMM:  42    -0.233824288736E+04    0.10949E-02   -0.27343E-04  3071   0.926E-03    0.885E-01
RMM:  43    -0.233824116469E+04    0.17227E-02   -0.42451E-04  3743   0.782E-03    0.748E-01
RMM:  44    -0.233823915026E+04    0.20144E-02   -0.47376E-04  3603   0.980E-03    0.614E-01
RMM:  45    -0.233823885204E+04    0.29822E-03   -0.91791E-05  2918   0.581E-03    0.625E-01
RMM:  46    -0.233823816019E+04    0.69185E-03   -0.12039E-04  3033   0.479E-03    0.569E-01
RMM:  47    -0.233823765788E+04    0.50231E-03   -0.59666E-05  2908   0.449E-03    0.543E-01
RMM:  48    -0.233823804195E+04   -0.38407E-03   -0.16523E-05  2722   0.290E-03    0.579E-01
RMM:  49    -0.233823779333E+04    0.24863E-03   -0.75965E-06  2343   0.157E-03    0.551E-01
RMM:  50    -0.233823774347E+04    0.49856E-04   -0.17391E-06  2244   0.135E-03    0.551E-01
RMM:  51    -0.233823748064E+04    0.26283E-03   -0.14068E-05  2704   0.182E-03    0.527E-01
RMM:  52    -0.233823562419E+04    0.18564E-02   -0.73591E-04  4184   0.109E-02    0.421E-01
RMM:  53    -0.233823407968E+04    0.15445E-02   -0.78484E-04  3996   0.124E-02    0.426E-01
RMM:  54    -0.233823329981E+04    0.77986E-03   -0.34212E-04  3347   0.762E-03    0.448E-01
RMM:  55    -0.233823285565E+04    0.44416E-03   -0.10146E-04  2987   0.508E-03    0.464E-01
RMM:  56    -0.233823248620E+04    0.36945E-03   -0.48601E-05  2936   0.420E-03    0.479E-01
RMM:  57    -0.233823258340E+04   -0.97200E-04   -0.42571E-06  2627   0.251E-03    0.476E-01
RMM:  58    -0.233823257730E+04    0.61040E-05   -0.10969E-06  2264   0.112E-03
  16 F= -.23597364E+04 E0= -.23597324E+04  d E =-.128581E+00  mag=     4.0873
       N       E                     dE             d eps       ncg     rms          rms(c)
DAV:   1    -0.233699778271E+04    0.12348E+01   -0.63613E+01  4520   0.592E+00    0.284E+00
RMM:   2    -0.233850232786E+04   -0.15045E+01   -0.14497E+01  6669   0.167E+00    0.532E+00
RMM:   3    -0.233846731872E+04    0.35009E-01   -0.15305E+00  6320   0.643E-01    0.281E+00
RMM:   4    -0.233856662254E+04   -0.99304E-01   -0.18937E-01  5560   0.158E-01    0.402E+00
RMM:   5    -0.233855919001E+04    0.74325E-02   -0.59423E-02  5889   0.104E-01    0.326E+00
RMM:   6    -0.233853591830E+04    0.23272E-01   -0.11273E-01  5154   0.150E-01    0.157E+00
RMM:   7    -0.233853943877E+04   -0.35205E-02   -0.51014E-02  5684   0.997E-02    0.129E+00
RMM:   8    -0.233855407768E+04   -0.14639E-01   -0.27744E-02  5253   0.757E-02    0.116E+00
RMM:   9    -0.233856866218E+04   -0.14584E-01   -0.19710E-02  4987   0.654E-02    0.842E-01
RMM:  10    -0.233858110298E+04   -0.12441E-01   -0.14661E-02  5095   0.620E-02    0.541E-01
RMM:  11    -0.233859251937E+04   -0.11416E-01   -0.41406E-03  4840   0.363E-02    0.345E-01
RMM:  12    -0.233860371520E+04   -0.11196E-01   -0.52363E-03  4821   0.409E-02    0.189E-01
RMM:  13    -0.233861332802E+04   -0.96128E-02   -0.19382E-03  4380   0.307E-02    0.114E-01
RMM:  14    -0.233861783432E+04   -0.45063E-02   -0.96584E-04  4405   0.226E-02    0.826E-02
RMM:  15    -0.233862152264E+04   -0.36883E-02   -0.56352E-04  4139   0.166E-02    0.610E-02
RMM:  16    -0.233862424296E+04   -0.27203E-02   -0.53724E-04  4146   0.169E-02    0.380E-02
RMM:  17    -0.233862539552E+04   -0.11526E-02   -0.25930E-04  4203   0.124E-02    0.229E-02
RMM:  18    -0.233862570131E+04   -0.30579E-03   -0.62148E-05  3788   0.639E-03    0.108E-02
RMM:  19    -0.233862584506E+04   -0.14376E-03   -0.19071E-05  3064   0.402E-03    0.566E-03
RMM:  20    -0.233862590365E+04   -0.58583E-04   -0.74879E-06  2854   0.323E-03    0.293E-03
RMM:  21    -0.233862592871E+04   -0.25061E-04   -0.51758E-06  2775   0.249E-03    0.160E-03
RMM:  22    -0.233862593540E+04   -0.66907E-05   -0.25447E-06  2580   0.208E-03
  17 F= -.23601394E+04 E0= -.23601394E+04  d E =-.531571E+00  mag=     2.0004
       N       E                     dE             d eps       ncg     rms          rms(c)
DAV:   1    -0.233834628568E+04    0.27964E+00   -0.13507E+01  4532   0.277E+00    0.118E+00
RMM:   2    -0.233863794426E+04   -0.29166E+00   -0.29382E+00  6645   0.737E-01    0.130E+00
RMM:   3    -0.233864695836E+04   -0.90141E-02   -0.31460E-01  6453   0.286E-01    0.877E-01
RMM:   4    -0.233864079569E+04    0.61627E-02   -0.33353E-02  6172   0.662E-02    0.622E-01
RMM:   5    -0.233863874291E+04    0.20528E-02   -0.45560E-03  5071   0.257E-02    0.379E-01
RMM:   6    -0.233863799986E+04    0.74305E-03   -0.38744E-03  5466   0.278E-02    0.287E-01
RMM:   7    -0.233863757581E+04    0.42405E-03   -0.29849E-03  5200   0.242E-02    0.188E-01
RMM:   8    -0.233863710519E+04    0.47062E-03   -0.58006E-04  4383   0.116E-02    0.498E-02
RMM:   9    -0.233863706415E+04    0.41043E-04   -0.94706E-05  3088   0.616E-03    0.364E-02
RMM:  10    -0.233863704459E+04    0.19558E-04   -0.94907E-05  3031   0.561E-03    0.734E-03
RMM:  11    -0.233863704568E+04   -0.10958E-05   -0.11059E-05  2933   0.321E-03
  18 F= -.23601553E+04 E0= -.23601553E+04  d E =-.547482E+00  mag=     2.0001
       N       E                     dE             d eps       ncg     rms          rms(c)
DAV:   1    -0.233844099699E+04    0.19605E+00   -0.18088E+01  4520   0.325E+00    0.131E+00
RMM:   2    -0.233879773739E+04   -0.35674E+00   -0.36467E+00  6607   0.861E-01    0.128E+00
RMM:   3    -0.233881605970E+04   -0.18322E-01   -0.39784E-01  6465   0.332E-01    0.102E+00
RMM:   4    -0.233880542047E+04    0.10639E-01   -0.39045E-02  6134   0.766E-02    0.555E-01
RMM:   5    -0.233880532304E+04    0.97428E-04   -0.61143E-03  5632   0.337E-02    0.523E-01
RMM:   6    -0.233880229140E+04    0.30316E-02   -0.49873E-03  5652   0.331E-02    0.218E-01
RMM:   7    -0.233880231585E+04   -0.24450E-04   -0.22610E-03  5352   0.242E-02    0.159E-01
RMM:   8    -0.233880200424E+04    0.31161E-03   -0.67952E-04  3981   0.134E-02    0.685E-02
RMM:   9    -0.233880192451E+04    0.79729E-04   -0.12735E-04  3218   0.697E-03    0.381E-02
RMM:  10    -0.233880190316E+04    0.21352E-04   -0.67941E-05  3011   0.584E-03    0.112E-02
RMM:  11    -0.233880190157E+04    0.15907E-05   -0.20228E-05  2995   0.405E-03
  19 F= -.23603249E+04 E0= -.23603249E+04  d E =-.169595E+00  mag=     2.0000
       N       E                     dE             d eps       ncg     rms          rms(c)
DAV:   1    -0.233861103237E+04    0.19087E+00   -0.11569E+01  4568   0.260E+00    0.104E+00
RMM:   2    -0.233883607993E+04   -0.22505E+00   -0.23111E+00  6604   0.683E-01    0.984E-01
RMM:   3    -0.233885002878E+04   -0.13949E-01   -0.25138E-01  6452   0.264E-01    0.834E-01
RMM:   4    -0.233884267972E+04    0.73491E-02   -0.24376E-02  6075   0.614E-02    0.422E-01
RMM:   5    -0.233884287612E+04   -0.19641E-03   -0.39892E-03  5418   0.274E-02    0.427E-01
RMM:   6    -0.233884082909E+04    0.20470E-02   -0.31954E-03  5547   0.267E-02    0.166E-01
RMM:   7    -0.233884081044E+04    0.18649E-04   -0.12757E-03  5102   0.186E-02    0.110E-01
RMM:   8    -0.233884066522E+04    0.14522E-03   -0.36095E-04  3363   0.103E-02    0.547E-02
RMM:   9    -0.233884061423E+04    0.50984E-04   -0.74225E-05  3103   0.597E-03    0.294E-02
RMM:  10    -0.233884060118E+04    0.13051E-04   -0.47786E-05  3002   0.484E-03    0.863E-03
RMM:  11    -0.233884060040E+04    0.78572E-06   -0.12972E-05  2948   0.352E-03
  20 F= -.23603675E+04 E0= -.23603675E+04  d E =-.212249E+00  mag=     2.0000
       N       E                     dE             d eps       ncg     rms          rms(c)
DAV:   1    -0.233875602529E+04    0.84576E-01   -0.97846E+00  4540   0.259E+00    0.109E+00
RMM:   2    -0.233897823076E+04   -0.22221E+00   -0.22061E+00  6514   0.699E-01    0.141E+00
RMM:   3    -0.233898249456E+04   -0.42638E-02   -0.23847E-01  6373   0.271E-01    0.944E-01
RMM:   4    -0.233897448285E+04    0.80117E-02   -0.24135E-02  6135   0.642E-02    0.404E-01
RMM:   5    -0.233897367375E+04    0.80910E-03   -0.42715E-03  5536   0.292E-02    0.343E-01
RMM:   6    -0.233897270950E+04    0.96425E-03   -0.28867E-03  5429   0.275E-02    0.255E-01
RMM:   7    -0.233897228498E+04    0.42452E-03   -0.19325E-03  5155   0.229E-02    0.147E-01
RMM:   8    -0.233897201134E+04    0.27364E-03   -0.37280E-04  4455   0.108E-02    0.358E-02
RMM:   9    -0.233897199145E+04    0.19888E-04   -0.61326E-05  3007   0.666E-03    0.177E-02
RMM:  10    -0.233897198864E+04    0.28099E-05   -0.24754E-05  2950   0.405E-03
  21 F= -.23605006E+04 E0= -.23605006E+04  d E =-.133072E+00  mag=     2.0000
       N       E                     dE             d eps       ncg     rms          rms(c)
DAV:   1    -0.233857230812E+04    0.39968E+00   -0.21213E+01  4520   0.384E+00    0.162E+00
RMM:   2    -0.233905830587E+04   -0.48600E+00   -0.48198E+00  6498   0.106E+00    0.206E+00
RMM:   3    -0.233906516086E+04   -0.68550E-02   -0.52512E-01  6381   0.404E-01    0.136E+00
RMM:   4    -0.233904737895E+04    0.17782E-01   -0.51550E-02  6199   0.943E-02    0.583E-01
RMM:   5    -0.233904602836E+04    0.13506E-02   -0.92582E-03  5806   0.427E-02    0.520E-01
RMM:   6    -0.233904370884E+04    0.23195E-02   -0.62355E-03  5531   0.403E-02    0.373E-01
RMM:   7    -0.233904277319E+04    0.93565E-03   -0.40543E-03  5386   0.326E-02    0.207E-01
RMM:   8    -0.233904223006E+04    0.54313E-03   -0.80817E-04  5128   0.154E-02    0.556E-02
RMM:   9    -0.233904218202E+04    0.48033E-04   -0.13027E-04  3207   0.908E-03    0.262E-02
RMM:  10    -0.233904217572E+04    0.63014E-05   -0.53047E-05  3094   0.548E-03
  22 F= -.23605734E+04 E0= -.23605734E+04  d E =-.205869E+00  mag=     2.0000
       N       E                     dE             d eps       ncg     rms          rms(c)
DAV:   1    -0.233899412106E+04    0.48061E-01   -0.64548E+00  4592   0.214E+00    0.956E-01
RMM:   2    -0.233916055163E+04   -0.16643E+00   -0.15251E+00  6503   0.594E-01    0.159E+00
RMM:   3    -0.233914758667E+04    0.12965E-01   -0.16602E-01  6369   0.229E-01    0.647E-01
RMM:   4    -0.233914384162E+04    0.37451E-02   -0.17037E-02  5940   0.526E-02    0.291E-01
RMM:   5    -0.233914377533E+04    0.66290E-04   -0.26630E-03  5381   0.251E-02    0.295E-01
RMM:   6    -0.233914297003E+04    0.80530E-03   -0.17390E-03  5409   0.225E-02    0.203E-01
RMM:   7    -0.233914274418E+04    0.22585E-03   -0.10965E-03  4780   0.180E-02    0.124E-01
RMM:   8    -0.233914254008E+04    0.20410E-03   -0.26786E-04  3638   0.906E-03    0.293E-02
RMM:   9    -0.233914252460E+04    0.15482E-04   -0.34717E-05  2988   0.543E-03    0.151E-02
RMM:  10    -0.233914252098E+04    0.36239E-05   -0.20561E-05  2955   0.356E-03
  23 F= -.23606751E+04 E0= -.23606751E+04  d E =-.101688E+00  mag=     2.0000
       N       E                     dE             d eps       ncg     rms          rms(c)
DAV:   1    -0.233833318955E+04    0.80934E+00   -0.38865E+01  4520   0.527E+00    0.232E+00
RMM:   2    -0.233931331974E+04   -0.98013E+00   -0.92513E+00  6507   0.150E+00    0.349E+00
RMM:   3    -0.233928457242E+04    0.28747E-01   -0.10742E+00  6348   0.584E-01    0.178E+00
RMM:   4    -0.233925063187E+04    0.33941E-01   -0.99712E-02  6240   0.132E-01    0.714E-01
RMM:   5    -0.233925163830E+04   -0.10064E-02   -0.16738E-02  5946   0.600E-02    0.799E-01
RMM:   6    -0.233924431399E+04    0.73243E-02   -0.10270E-02  5710   0.537E-02    0.408E-01
RMM:   7    -0.233924443091E+04   -0.11692E-03   -0.69237E-03  5667   0.431E-02    0.335E-01
RMM:   8    -0.233924279053E+04    0.16404E-02   -0.21149E-03  5459   0.233E-02    0.859E-02
RMM:   9    -0.233924265165E+04    0.13889E-03   -0.22096E-04  3481   0.110E-02    0.375E-02
RMM:  10    -0.233924261379E+04    0.37857E-04   -0.13087E-04  3969   0.777E-03    0.141E-02
RMM:  11    -0.233924260995E+04    0.38389E-05   -0.25648E-05  3004   0.511E-03
  24 F= -.23607786E+04 E0= -.23607786E+04  d E =-.205199E+00  mag=     2.0000
       N       E                     dE             d eps       ncg     rms          rms(c)
DAV:   1    -0.233912591662E+04    0.11670E+00   -0.99848E+00  4560   0.278E+00    0.114E+00
RMM:   2    -0.233934098984E+04   -0.21507E+00   -0.20773E+00  6303   0.727E-01    0.154E+00
RMM:   3    -0.233934238964E+04   -0.13998E-02   -0.23367E-01  6225   0.292E-01    0.982E-01
RMM:   4    -0.233933161810E+04    0.10772E-01   -0.22174E-02  6076   0.679E-02    0.304E-01
RMM:   5    -0.233933221654E+04   -0.59844E-03   -0.45946E-03  5695   0.363E-02    0.404E-01
RMM:   6    -0.233933044599E+04    0.17706E-02   -0.30898E-03  5694   0.295E-02    0.194E-01
RMM:   7    -0.233933004794E+04    0.39805E-03   -0.54708E-04  4926   0.159E-02    0.444E-02
RMM:   8    -0.233933000324E+04    0.44702E-04   -0.85139E-05  3153   0.786E-03    0.246E-02
RMM:   9    -0.233932998476E+04    0.18474E-04   -0.59448E-05  3216   0.583E-03    0.958E-03
RMM:  10    -0.233932998247E+04    0.22888E-05   -0.11921E-05  2949   0.430E-03
  25 F= -.23608684E+04 E0= -.23608684E+04  d E =-.898290E-01  mag=     2.0000
       N       E                     dE             d eps       ncg     rms          rms(c)
DAV:   1    -0.233926271847E+04    0.67266E-01   -0.40080E+00  4624   0.175E+00    0.726E-01
RMM:   2    -0.233934997687E+04   -0.87258E-01   -0.82956E-01  6318   0.454E-01    0.104E+00
RMM:   3    -0.233934824867E+04    0.17282E-02   -0.92244E-02  6201   0.183E-01    0.587E-01
RMM:   4    -0.233934444463E+04    0.38040E-02   -0.89125E-03  5777   0.424E-02    0.191E-01
RMM:   5    -0.233934468194E+04   -0.23731E-03   -0.18445E-03  5502   0.239E-02    0.256E-01
RMM:   6    -0.233934395540E+04    0.72655E-03   -0.12141E-03  5256   0.186E-02    0.121E-01
RMM:   7    -0.233934379249E+04    0.16291E-03   -0.21486E-04  4157   0.105E-02    0.262E-02
RMM:   8    -0.233934377676E+04    0.15736E-04   -0.37331E-05  2978   0.591E-03    0.192E-02
RMM:   9    -0.233934377302E+04    0.37346E-05   -0.27552E-05  2946   0.411E-03
  26 F= -.23608838E+04 E0= -.23608838E+04  d E =-.105200E+00  mag=     2.0000
       N       E                     dE             d eps       ncg     rms          rms(c)
DAV:   1    -0.233926237364E+04    0.81403E-01   -0.82970E+00  4520   0.232E+00    0.824E-01
RMM:   2    -0.233941378101E+04   -0.15141E+00   -0.15706E+00  6626   0.577E-01    0.687E-01
RMM:   3    -0.233943057300E+04   -0.16792E-01   -0.17094E-01  6345   0.219E-01    0.862E-01
RMM:   4    -0.233942313443E+04    0.74386E-02   -0.16852E-02  6211   0.530E-02    0.321E-01
RMM:   5    -0.233942277469E+04    0.35975E-03   -0.30314E-03  5393   0.231E-02    0.270E-01
RMM:   6    -0.233942195441E+04    0.82027E-03   -0.24339E-03  5433   0.247E-02    0.115E-01
RMM:   7    -0.233942187310E+04    0.81308E-04   -0.56698E-04  4562   0.125E-02    0.534E-02
RMM:   8    -0.233942188810E+04   -0.14998E-04   -0.13113E-04  2991   0.794E-03    0.653E-02
RMM:   9    -0.233942182626E+04    0.61842E-04   -0.51227E-05  2949   0.451E-03    0.193E-02
RMM:  10    -0.233942182074E+04    0.55210E-05   -0.32187E-05  2959   0.352E-03
  27 F= -.23609648E+04 E0= -.23609648E+04  d E =-.810235E-01  mag=     2.0000
       N       E                     dE             d eps       ncg     rms          rms(c)
DAV:   1    -0.233915474834E+04    0.26708E+00   -0.15884E+01  4520   0.319E+00    0.114E+00
RMM:   2    -0.233944620935E+04   -0.29146E+00   -0.30243E+00  6617   0.794E-01    0.972E-01
RMM:   3    -0.233947958746E+04   -0.33378E-01   -0.33237E-01  6382   0.305E-01    0.124E+00
RMM:   4    -0.233946395847E+04    0.15629E-01   -0.32339E-02  6391   0.736E-02    0.447E-01
RMM:   5    -0.233946320675E+04    0.75171E-03   -0.58121E-03  5604   0.316E-02    0.375E-01
RMM:   6    -0.233946176883E+04    0.14379E-02   -0.48724E-03  5814   0.336E-02    0.188E-01
RMM:   7    -0.233946155506E+04    0.21376E-03   -0.13619E-03  5078   0.177E-02    0.968E-02
RMM:   8    -0.233946156594E+04   -0.10873E-04   -0.36541E-04  3132   0.111E-02    0.108E-01
RMM:   9    -0.233946140042E+04    0.16552E-03   -0.11542E-04  3021   0.668E-03    0.268E-02
RMM:  10    -0.233946138966E+04    0.10763E-04   -0.81766E-05  3032   0.504E-03    0.847E-03
RMM:  11    -0.233946139102E+04   -0.13676E-05   -0.11567E-05  2958   0.338E-03
  28 F= -.23610086E+04 E0= -.23610086E+04  d E =-.124808E+00  mag=     2.0000
       N       E                     dE             d eps       ncg     rms          rms(c)
DAV:   1    -0.233935121795E+04    0.11017E+00   -0.97930E+00  4520   0.281E+00    0.104E+00
RMM:   2    -0.233951565602E+04   -0.16444E+00   -0.17336E+00  6323   0.684E-01    0.653E-01
RMM:   3    -0.233952918270E+04   -0.13527E-01   -0.18055E-01  6208   0.265E-01    0.611E-01
RMM:   4    -0.233952536953E+04    0.38132E-02   -0.18113E-02  6210   0.627E-02    0.351E-01
RMM:   5    -0.233952609521E+04   -0.72567E-03   -0.42032E-03  5713   0.321E-02    0.431E-01
RMM:   6    -0.233952402371E+04    0.20715E-02   -0.26726E-03  5686   0.281E-02    0.137E-01
RMM:   7    -0.233952413675E+04   -0.11304E-03   -0.79038E-04  4887   0.159E-02    0.160E-01
RMM:   8    -0.233952381915E+04    0.31760E-03   -0.31486E-04  3348   0.970E-03    0.525E-02
RMM:   9    -0.233952378008E+04    0.39066E-04   -0.39942E-05  3063   0.517E-03    0.176E-02
RMM:  10    -0.233952376876E+04    0.11322E-04   -0.25134E-05  2995   0.440E-03    0.834E-03
RMM:  11    -0.233952376617E+04    0.25878E-05   -0.88203E-06  2903   0.387E-03
  29 F= -.23610730E+04 E0= -.23610730E+04  d E =-.644418E-01  mag=     2.0000
       N       E                     dE             d eps       ncg     rms          rms(c)
DAV:   1    -0.233950463787E+04    0.19131E-01   -0.13448E+00  4688   0.104E+00    0.384E-01
RMM:   2    -0.233952701209E+04   -0.22374E-01   -0.23600E-01  6365   0.251E-01    0.240E-01
RMM:   3    -0.233952888248E+04   -0.18704E-02   -0.23914E-02  6133   0.959E-02    0.241E-01
RMM:   4    -0.233952834282E+04    0.53967E-03   -0.25290E-03  5426   0.233E-02    0.142E-01
RMM:   5    -0.233952839493E+04   -0.52109E-04   -0.58987E-04  4099   0.128E-02    0.155E-01
RMM:   6    -0.233952810629E+04    0.28863E-03   -0.40509E-04  4643   0.123E-02    0.441E-02
RMM:   7    -0.233952814023E+04   -0.33934E-04   -0.11970E-04  3077   0.782E-03    0.654E-02
RMM:   8    -0.233952808436E+04    0.55870E-04   -0.46077E-05  2968   0.499E-03    0.143E-02
RMM:   9    -0.233952808077E+04    0.35855E-05   -0.67142E-06  2908   0.272E-03
  30 F= -.23610781E+04 E0= -.23610781E+04  d E =-.695439E-01  mag=     2.0000
       N       E                     dE             d eps       ncg     rms          rms(c)
DAV:   1    -0.233938755566E+04    0.14053E+00   -0.91371E+00  4524   0.282E+00    0.105E+00
RMM:   2    -0.233956285909E+04   -0.17530E+00   -0.18403E+00  6317   0.709E-01    0.708E-01
RMM:   3    -0.233958066561E+04   -0.17807E-01   -0.20135E-01  6197   0.280E-01    0.858E-01
RMM:   4    -0.233957373170E+04    0.69339E-02   -0.19756E-02  6440   0.661E-02    0.418E-01
RMM:   5    -0.233957274277E+04    0.98893E-03   -0.43066E-03  5766   0.305E-02    0.322E-01
RMM:   6    -0.233957184316E+04    0.89962E-03   -0.29634E-03  5704   0.289E-02    0.222E-01
RMM:   7    -0.233957173207E+04    0.11109E-03   -0.14928E-03  5081   0.205E-02    0.198E-01
RMM:   8    -0.233957124334E+04    0.48873E-03   -0.47862E-04  5001   0.126E-02    0.461E-02
RMM:   9    -0.233957121317E+04    0.30169E-04   -0.50659E-05  3045   0.603E-03    0.221E-02
RMM:  10    -0.233957120090E+04    0.12267E-04   -0.36049E-05  2971   0.494E-03    0.892E-03
RMM:  11    -0.233957119942E+04    0.14857E-05   -0.98653E-06  2920   0.376E-03
  31 F= -.23611219E+04 E0= -.23611219E+04  d E =-.437532E-01  mag=     2.0000
       N       E                     dE             d eps       ncg     rms          rms(c)
DAV:   1    -0.233956356319E+04    0.76377E-02   -0.44798E-01  4720   0.626E-01    0.231E-01
RMM:   2    -0.233957212390E+04   -0.85607E-02   -0.89973E-02  6341   0.155E-01    0.157E-01
RMM:   3    -0.233957307029E+04   -0.94638E-03   -0.97042E-03  5904   0.605E-02    0.207E-01
RMM:   4    -0.233957263299E+04    0.43730E-03   -0.95800E-04  3904   0.150E-02    0.831E-02
RMM:   5    -0.233957260924E+04    0.23749E-04   -0.21513E-04  3301   0.873E-03    0.736E-02
RMM:   6    -0.233957255581E+04    0.53427E-04   -0.16592E-04  3595   0.842E-03    0.469E-02
RMM:   7    -0.233957255101E+04    0.47993E-05   -0.75973E-05  2974   0.658E-03
  32 F= -.23611234E+04 E0= -.23611234E+04  d E =-.452552E-01  mag=     2.0000
       N       E                     dE             d eps       ncg     rms          rms(c)
DAV:   1    -0.233944045889E+04    0.13210E+00   -0.87723E+00  4524   0.254E+00    0.932E-01
RMM:   2    -0.233961846577E+04   -0.17801E+00   -0.18181E+00  6572   0.649E-01    0.769E-01
RMM:   3    -0.233963403074E+04   -0.15565E-01   -0.18516E-01  6385   0.235E-01    0.779E-01
RMM:   4    -0.233962662016E+04    0.74106E-02   -0.18695E-02  6169   0.580E-02    0.320E-01
RMM:   5    -0.233962634560E+04    0.27455E-03   -0.25916E-03  5341   0.230E-02    0.280E-01
RMM:   6    -0.233962587918E+04    0.46642E-03   -0.19599E-03  5383   0.213E-02    0.232E-01
RMM:   7    -0.233962574891E+04    0.13028E-03   -0.14273E-03  4818   0.181E-02    0.181E-01
RMM:   8    -0.233962537985E+04    0.36906E-03   -0.36890E-04  4220   0.107E-02    0.326E-02
RMM:   9    -0.233962536539E+04    0.14456E-04   -0.46128E-05  3025   0.505E-03    0.237E-02
RMM:  10    -0.233962535679E+04    0.86059E-05   -0.31589E-05  2936   0.388E-03
  33 F= -.23611771E+04 E0= -.23611771E+04  d E =-.536713E-01  mag=     2.0000
       N       E                     dE             d eps       ncg     rms          rms(c)
DAV:   1    -0.233905244410E+04    0.57292E+00   -0.28430E+01  4520   0.458E+00    0.169E+00
RMM:   2    -0.233964168694E+04   -0.58924E+00   -0.60163E+00  6566   0.119E+00    0.138E+00
RMM:   3    -0.233968841268E+04   -0.46726E-01   -0.61617E-01  6371   0.432E-01    0.133E+00
RMM:   4    -0.233966664241E+04    0.21770E-01   -0.59982E-02  6378   0.104E-01    0.588E-01
RMM:   5    -0.233966501134E+04    0.16311E-02   -0.84698E-03  5864   0.405E-02    0.460E-01
RMM:   6    -0.233966403397E+04    0.97737E-03   -0.66344E-03  5807   0.387E-02    0.408E-01
RMM:   7    -0.233966381069E+04    0.22328E-03   -0.45188E-03  5574   0.309E-02    0.369E-01
RMM:   8    -0.233966239424E+04    0.14164E-02   -0.13135E-03  5414   0.183E-02    0.654E-02
RMM:   9    -0.233966233892E+04    0.55319E-04   -0.15367E-04  3218   0.724E-03    0.463E-02
RMM:  10    -0.233966230669E+04    0.32227E-04   -0.10257E-04  3022   0.664E-03    0.136E-02
RMM:  11    -0.233966230615E+04    0.53833E-06   -0.31243E-05  2971   0.444E-03
  34 F= -.23612157E+04 E0= -.23612157E+04  d E =-.922881E-01  mag=     2.0000
       N       E                     dE             d eps       ncg     rms          rms(c)
DAV:   1    -0.233963699739E+04    0.25309E-01   -0.26874E+00  4560   0.138E+00    0.517E-01
RMM:   2    -0.233969271129E+04   -0.55714E-01   -0.56231E-01  6571   0.351E-01    0.464E-01
RMM:   3    -0.233969689315E+04   -0.41819E-02   -0.57513E-02  6261   0.129E-01    0.424E-01
RMM:   4    -0.233969461865E+04    0.22745E-02   -0.55704E-03  5466   0.312E-02    0.162E-01
RMM:   5    -0.233969457941E+04    0.39247E-04   -0.74631E-04  4203   0.131E-02    0.150E-01
RMM:   6    -0.233969444941E+04    0.13000E-03   -0.60806E-04  4281   0.125E-02    0.126E-01
RMM:   7    -0.233969440455E+04    0.44864E-04   -0.40366E-04  3491   0.105E-02    0.960E-02
RMM:   8    -0.233969429766E+04    0.10689E-03   -0.10026E-04  3007   0.703E-03    0.154E-02
RMM:   9    -0.233969429350E+04    0.41552E-05   -0.13566E-05  2941   0.344E-03
  35 F= -.23612483E+04 E0= -.23612483E+04  d E =-.326360E-01  mag=     2.0000
       N       E                     dE             d eps       ncg     rms          rms(c)
DAV:   1    -0.233923792388E+04    0.45637E+00   -0.24139E+01  4520   0.414E+00    0.157E+00
RMM:   2    -0.233975632487E+04   -0.51840E+00   -0.51944E+00  6580   0.108E+00    0.150E+00
RMM:   3    -0.233978445255E+04   -0.28128E-01   -0.54402E-01  6374   0.396E-01    0.120E+00
RMM:   4    -0.233976631729E+04    0.18135E-01   -0.49521E-02  6350   0.922E-02    0.497E-01
RMM:   5    -0.233976520496E+04    0.11123E-02   -0.69274E-03  5670   0.359E-02    0.394E-01
RMM:   6    -0.233976432447E+04    0.88049E-03   -0.61608E-03  5679   0.366E-02    0.308E-01
RMM:   7    -0.233976444475E+04   -0.12028E-03   -0.29363E-03  5473   0.265E-02    0.346E-01
RMM:   8    -0.233976327507E+04    0.11697E-02   -0.90664E-04  4686   0.141E-02    0.593E-02
RMM:   9    -0.233976320928E+04    0.65787E-04   -0.11273E-04  3106   0.633E-03    0.382E-02
RMM:  10    -0.233976318388E+04    0.25399E-04   -0.87645E-05  2980   0.583E-03    0.110E-02
RMM:  11    -0.233976318219E+04    0.16857E-05   -0.22526E-05  2962   0.404E-03
  36 F= -.23613192E+04 E0= -.23613192E+04  d E =-.103498E+00  mag=     2.0000
       N       E                     dE             d eps       ncg     rms          rms(c)
DAV:   1    -0.233757313941E+04    0.21900E+01   -0.96224E+01  4520   0.830E+00    0.323E+00
RMM:   2    -0.233982353903E+04   -0.22504E+01   -0.22188E+01  6601   0.224E+00    0.353E+00
RMM:   3    -0.233983990197E+04   -0.16363E-01   -0.22953E+00  6340   0.815E-01    0.223E+00
RMM:   4    -0.233978558274E+04    0.54319E-01   -0.19939E-01  6306   0.180E-01    0.104E+00
RMM:   5    -0.233978422281E+04    0.13599E-02   -0.27962E-02  5982   0.678E-02    0.106E+00
RMM:   6    -0.233977706998E+04    0.71528E-02   -0.21586E-02  5915   0.674E-02    0.669E-01
RMM:   7    -0.233977750069E+04   -0.43071E-03   -0.15447E-02  5986   0.561E-02    0.604E-01
RMM:   8    -0.233977282275E+04    0.46779E-02   -0.47840E-03  5858   0.350E-02    0.129E-01
RMM:   9    -0.233977255072E+04    0.27202E-03   -0.48252E-04  4251   0.115E-02    0.748E-02
RMM:  10    -0.233977245374E+04    0.96977E-04   -0.28822E-04  3678   0.110E-02    0.208E-02
RMM:  11    -0.233977244960E+04    0.41453E-05   -0.74753E-05  3126   0.584E-03
  37 F= -.23613326E+04 E0= -.23613326E+04  d E =-.116917E+00  mag=     2.0000
       N       E                     dE             d eps       ncg     rms          rms(c)
DAV:   1    -0.233939519048E+04    0.37726E+00   -0.18153E+01  4520   0.359E+00    0.136E+00
RMM:   2    -0.233977604581E+04   -0.38086E+00   -0.38728E+00  6563   0.912E-01    0.123E+00
RMM:   3    -0.233981063964E+04   -0.34594E-01   -0.41237E-01  6324   0.356E-01    0.129E+00
RMM:   4    -0.233979264286E+04    0.17997E-01   -0.37269E-02  6298   0.829E-02    0.433E-01
RMM:   5    -0.233979256932E+04    0.73540E-04   -0.58328E-03  5618   0.327E-02    0.415E-01
RMM:   6    -0.233979121598E+04    0.13533E-02   -0.38014E-03  5544   0.284E-02    0.281E-01
RMM:   7    -0.233979089734E+04    0.31864E-03   -0.21942E-03  5364   0.226E-02    0.187E-01
RMM:   8    -0.233979044197E+04    0.45537E-03   -0.77031E-04  4182   0.145E-02    0.652E-02
RMM:   9    -0.233979037597E+04    0.66000E-04   -0.74509E-05  3066   0.558E-03    0.307E-02
RMM:  10    -0.233979035805E+04    0.17921E-04   -0.55220E-05  2973   0.512E-03    0.895E-03
RMM:  11    -0.233979035741E+04    0.63436E-06   -0.14190E-05  2956   0.337E-03
  38 F= -.23613487E+04 E0= -.23613487E+04  d E =-.132982E+00  mag=     2.0000
       N       E                     dE             d eps       ncg     rms          rms(c)
DAV:   1    -0.233964660844E+04    0.14375E+00   -0.89283E+00  4520   0.255E+00    0.998E-01
RMM:   2    -0.233982719000E+04   -0.18058E+00   -0.18079E+00  6356   0.647E-01    0.921E-01
RMM:   3    -0.233983858025E+04   -0.11390E-01   -0.19642E-01  6234   0.252E-01    0.785E-01
RMM:   4    -0.233983037326E+04    0.82070E-02   -0.18069E-02  6143   0.598E-02    0.300E-01
RMM:   5    -0.233983034714E+04    0.26118E-04   -0.31644E-03  5667   0.278E-02    0.312E-01
RMM:   6    -0.233982964889E+04    0.69826E-03   -0.24016E-03  5520   0.236E-02    0.245E-01
RMM:   7    -0.233982941675E+04    0.23213E-03   -0.14397E-03  5178   0.189E-02    0.179E-01
RMM:   8    -0.233982903426E+04    0.38249E-03   -0.34668E-04  4194   0.105E-02    0.292E-02
RMM:   9    -0.233982901144E+04    0.22822E-04   -0.50507E-05  2998   0.543E-03    0.203E-02
RMM:  10    -0.233982900080E+04    0.10636E-04   -0.31367E-05  2927   0.445E-03    0.707E-03
RMM:  11    -0.233982899882E+04    0.19814E-05   -0.95939E-06  2929   0.362E-03
  39 F= -.23613883E+04 E0= -.23613883E+04  d E =-.395851E-01  mag=     2.0000
       N       E                     dE             d eps       ncg     rms          rms(c)
DAV:   1    -0.233971771630E+04    0.11128E+00   -0.59182E+00  4524   0.208E+00    0.810E-01
RMM:   2    -0.233983642890E+04   -0.11871E+00   -0.11927E+00  6368   0.525E-01    0.728E-01
RMM:   3    -0.233984467590E+04   -0.82470E-02   -0.12843E-01  6231   0.203E-01    0.649E-01
RMM:   4    -0.233983911138E+04    0.55645E-02   -0.12088E-02  6039   0.489E-02    0.246E-01
RMM:   5    -0.233983916440E+04   -0.53017E-04   -0.21309E-03  5481   0.230E-02    0.269E-01
RMM:   6    -0.233983858878E+04    0.57562E-03   -0.15655E-03  5302   0.192E-02    0.193E-01
RMM:   7    -0.233983845606E+04    0.13272E-03   -0.98370E-04  4912   0.161E-02    0.140E-01
RMM:   8    -0.233983820986E+04    0.24619E-03   -0.23225E-04  3713   0.902E-03    0.234E-02
RMM:   9    -0.233983819456E+04    0.15300E-04   -0.33725E-05  2978   0.505E-03    0.162E-02
RMM:  10    -0.233983818774E+04    0.68230E-05   -0.22100E-05  2922   0.383E-03
  40 F= -.23613982E+04 E0= -.23613982E+04  d E =-.495541E-01  mag=     2.0000
       N       E                     dE             d eps       ncg     rms          rms(c)
DAV:   1    -0.233979505999E+04    0.43135E-01   -0.35677E+00  4560   0.157E+00    0.597E-01
RMM:   2    -0.233986275678E+04   -0.67697E-01   -0.67876E-01  6489   0.384E-01    0.561E-01
RMM:   3    -0.233986736762E+04   -0.46108E-02   -0.75481E-02  6292   0.152E-01    0.477E-01
RMM:   4    -0.233986454678E+04    0.28208E-02   -0.69959E-03  5700   0.359E-02    0.198E-01
RMM:   5    -0.233986466660E+04   -0.11982E-03   -0.12778E-03  4901   0.162E-02    0.234E-01
RMM:   6    -0.233986416195E+04    0.50465E-03   -0.95137E-04  4865   0.148E-02    0.132E-01
RMM:   7    -0.233986410980E+04    0.52151E-04   -0.61444E-04  3696   0.129E-02    0.930E-02
RMM:   8    -0.233986399883E+04    0.11097E-03   -0.11428E-04  3158   0.719E-03    0.175E-02
RMM:   9    -0.233986399722E+04    0.16116E-05   -0.17872E-05  2967   0.409E-03
  41 F= -.23614244E+04 E0= -.23614244E+04  d E =-.262200E-01  mag=     2.0000
       N       E                     dE             d eps       ncg     rms          rms(c)
DAV:   1    -0.233965125677E+04    0.21274E+00   -0.11870E+01  4520   0.287E+00    0.109E+00
RMM:   2    -0.233987839663E+04   -0.22714E+00   -0.22728E+00  6485   0.711E-01    0.104E+00
RMM:   3    -0.233989260322E+04   -0.14207E-01   -0.25908E-01  6320   0.281E-01    0.838E-01
RMM:   4    -0.233988367408E+04    0.89291E-02   -0.23280E-02  6176   0.651E-02    0.356E-01
RMM:   5    -0.233988412204E+04   -0.44797E-03   -0.41754E-03  5753   0.288E-02    0.428E-01
RMM:   6    -0.233988245440E+04    0.16676E-02   -0.30664E-03  5467   0.254E-02    0.241E-01
RMM:   7    -0.233988230531E+04    0.14909E-03   -0.19587E-03  5100   0.213E-02    0.177E-01
RMM:   8    -0.233988190991E+04    0.39540E-03   -0.42397E-04  4536   0.111E-02    0.332E-02
RMM:   9    -0.233988190552E+04    0.43917E-05   -0.58342E-05  3030   0.545E-03
  42 F= -.23614432E+04 E0= -.23614432E+04  d E =-.449386E-01  mag=     2.0000
       N       E                     dE             d eps       ncg     rms          rms(c)
DAV:   1    -0.233980601197E+04    0.75898E-01   -0.59492E+00  4524   0.218E+00    0.760E-01
RMM:   2    -0.233990425377E+04   -0.98242E-01   -0.10127E+00  6349   0.510E-01    0.556E-01
RMM:   3    -0.233991435506E+04   -0.10101E-01   -0.10968E-01  6194   0.201E-01    0.627E-01
RMM:   4    -0.233990937731E+04    0.49777E-02   -0.10543E-02  6150   0.483E-02    0.249E-01
RMM:   5    -0.233990968484E+04   -0.30753E-03   -0.22545E-03  5508   0.231E-02    0.306E-01
RMM:   6    -0.233990882330E+04    0.86154E-03   -0.16015E-03  5307   0.200E-02    0.165E-01
RMM:   7    -0.233990875222E+04    0.71080E-04   -0.87355E-04  4593   0.154E-02    0.119E-01
RMM:   8    -0.233990856247E+04    0.18975E-03   -0.20228E-04  3503   0.853E-03    0.237E-02
RMM:   9    -0.233990855819E+04    0.42797E-05   -0.27325E-05  2984   0.434E-03
  43 F= -.23614703E+04 E0= -.23614703E+04  d E =-.271815E-01  mag=     2.0000
       N       E                     dE             d eps       ncg     rms          rms(c)
DAV:   1    -0.233984777119E+04    0.60791E-01   -0.39118E+00  4544   0.177E+00    0.615E-01
RMM:   2    -0.233991220491E+04   -0.64434E-01   -0.66400E-01  6332   0.414E-01    0.452E-01
RMM:   3    -0.233991879597E+04   -0.65911E-02   -0.71513E-02  6176   0.162E-01    0.512E-01
RMM:   4    -0.233991551117E+04    0.32848E-02   -0.69265E-03  5996   0.393E-02    0.203E-01
RMM:   5    -0.233991576494E+04   -0.25377E-03   -0.14976E-03  5273   0.192E-02    0.259E-01
RMM:   6    -0.233991511029E+04    0.65465E-03   -0.10741E-03  5105   0.168E-02    0.125E-01
RMM:   7    -0.233991507681E+04    0.33478E-04   -0.57321E-04  4097   0.131E-02    0.930E-02
RMM:   8    -0.233991495536E+04    0.12145E-03   -0.12750E-04  3228   0.725E-03    0.190E-02
RMM:   9    -0.233991495060E+04    0.47639E-05   -0.18028E-05  2964   0.400E-03
  44 F= -.23614772E+04 E0= -.23614772E+04  d E =-.340434E-01  mag=     2.0000
       N       E                     dE             d eps       ncg     rms          rms(c)
DAV:   1    -0.233983407196E+04    0.80883E-01   -0.60479E+00  4520   0.233E+00    0.770E-01
RMM:   2    -0.233993341595E+04   -0.99344E-01   -0.10481E+00  6332   0.534E-01    0.442E-01
RMM:   3    -0.233994404748E+04   -0.10632E-01   -0.10678E-01  6106   0.206E-01    0.578E-01
RMM:   4    -0.233994025791E+04    0.37896E-02   -0.10393E-02  6239   0.469E-02    0.263E-01
RMM:   5    -0.233994027440E+04   -0.16489E-04   -0.22150E-03  5347   0.233E-02    0.281E-01
RMM:   6    -0.233993974159E+04    0.53281E-03   -0.14826E-03  5298   0.192E-02    0.168E-01
RMM:   7    -0.233993958598E+04    0.15560E-03   -0.67304E-04  5059   0.146E-02    0.100E-01
RMM:   8    -0.233993943576E+04    0.15022E-03   -0.17649E-04  3072   0.837E-03    0.252E-02
RMM:   9    -0.233993942072E+04    0.15038E-04   -0.23348E-05  2987   0.416E-03    0.153E-02
RMM:  10    -0.233993941562E+04    0.51038E-05   -0.18993E-05  2928   0.338E-03
  45 F= -.23615026E+04 E0= -.23615026E+04  d E =-.254423E-01  mag=     2.0000
       N       E                     dE             d eps       ncg     rms          rms(c)
DAV:   1    -0.233987590225E+04    0.63518E-01   -0.39679E+00  4560   0.188E+00    0.623E-01
RMM:   2    -0.233994101289E+04   -0.65111E-01   -0.68701E-01  6365   0.432E-01    0.357E-01
RMM:   3    -0.233994787473E+04   -0.68618E-02   -0.68984E-02  6105   0.165E-01    0.465E-01
RMM:   4    -0.233994539576E+04    0.24790E-02   -0.67997E-03  6027   0.380E-02    0.208E-01
RMM:   5    -0.233994543301E+04   -0.37247E-04   -0.14688E-03  5143   0.196E-02    0.232E-01
RMM:   6    -0.233994505560E+04    0.37741E-03   -0.95404E-04  5010   0.159E-02    0.133E-01
RMM:   7    -0.233994494824E+04    0.10736E-03   -0.39745E-04  4562   0.116E-02    0.741E-02
RMM:   8    -0.233994486524E+04    0.83003E-04   -0.10307E-04  3000   0.717E-03    0.203E-02
RMM:   9    -0.233994485544E+04    0.97946E-05   -0.15210E-05  2948   0.350E-03
  46 F= -.23615089E+04 E0= -.23615089E+04  d E =-.317180E-01  mag=     2.0000
       N       E                     dE             d eps       ncg     rms          rms(c)
DAV:   1    -0.233982671181E+04    0.11815E+00   -0.76194E+00  4520   0.264E+00    0.858E-01
RMM:   2    -0.233995738597E+04   -0.13067E+00   -0.13610E+00  6369   0.603E-01    0.646E-01
RMM:   3    -0.233997231249E+04   -0.14927E-01   -0.14146E-01  6147   0.233E-01    0.896E-01
RMM:   4    -0.233996404820E+04    0.82643E-02   -0.13809E-02  6253   0.551E-02    0.312E-01
RMM:   5    -0.233996434528E+04   -0.29708E-03   -0.32367E-03  5723   0.262E-02    0.350E-01
RMM:   6    -0.233996302279E+04    0.13225E-02   -0.24210E-03  5428   0.243E-02    0.134E-01
RMM:   7    -0.233996286257E+04    0.16022E-03   -0.68284E-04  5122   0.161E-02    0.707E-02
RMM:   8    -0.233996281281E+04    0.49757E-04   -0.18934E-04  3090   0.878E-03    0.421E-02
RMM:   9    -0.233996277524E+04    0.37575E-04   -0.42088E-05  2960   0.512E-03    0.185E-02
RMM:  10    -0.233996276918E+04    0.60552E-05   -0.36517E-05  2957   0.429E-03
  47 F= -.23615285E+04 E0= -.23615285E+04  d E =-.195886E-01  mag=     2.0000
       N       E                     dE             d eps       ncg     rms          rms(c)
DAV:   1    -0.233996174545E+04    0.10298E-02   -0.56961E-02  5192   0.227E-01    0.738E-02
RMM:   2    -0.233996271347E+04   -0.96802E-03   -0.10069E-02  6397   0.527E-02    0.541E-02
RMM:   3    -0.233996281880E+04   -0.10533E-03   -0.10345E-03  3281   0.205E-02    0.726E-02
RMM:   4    -0.233996276435E+04    0.54451E-04   -0.10315E-04  2968   0.614E-03    0.278E-02
RMM:   5    -0.233996276789E+04   -0.35426E-05   -0.26460E-05  2919   0.318E-03
  48 F= -.23615287E+04 E0= -.23615287E+04  d E =-.197361E-01  mag=     2.0000
       N       E                     dE             d eps       ncg     rms          rms(c)
DAV:   1    -0.233994757652E+04    0.15188E-01   -0.22265E+00  4560   0.147E+00    0.495E-01
RMM:   2    -0.233997777690E+04   -0.30200E-01   -0.29253E-01  6079   0.307E-01    0.589E-01
RMM:   3    -0.233997816190E+04   -0.38499E-03   -0.30795E-02  5949   0.121E-01    0.465E-01
RMM:   4    -0.233997607881E+04    0.20831E-02   -0.33849E-03  5496   0.315E-02    0.190E-01
RMM:   5    -0.233997604069E+04    0.38121E-04   -0.10336E-03  4867   0.184E-02    0.182E-01
RMM:   6    -0.233997560137E+04    0.43931E-03   -0.71252E-04  4604   0.168E-02    0.407E-02
RMM:   7    -0.233997559899E+04    0.23850E-05   -0.10125E-04  3321   0.105E-02    0.278E-02
RMM:   8    -0.233997559052E+04    0.84649E-05   -0.37302E-05  2943   0.400E-03
  49 F= -.23615422E+04 E0= -.23615422E+04  d E =-.135239E-01  mag=     2.0000
       N       E                     dE             d eps       ncg     rms          rms(c)
DAV:   1    -0.233996676111E+04    0.88379E-02   -0.85193E-01  4592   0.909E-01    0.307E-01
RMM:   2    -0.233997832227E+04   -0.11561E-01   -0.11174E-01  6093   0.190E-01    0.366E-01
RMM:   3    -0.233997845987E+04   -0.13760E-03   -0.11700E-02  5853   0.743E-02    0.290E-01
RMM:   4    -0.233997767122E+04    0.78866E-03   -0.13113E-03  5149   0.195E-02    0.120E-01
RMM:   5    -0.233997763576E+04    0.35459E-04   -0.38597E-04  3418   0.117E-02    0.110E-01
RMM:   6    -0.233997747325E+04    0.16251E-03   -0.27896E-04  4299   0.115E-02    0.247E-02
RMM:   7    -0.233997747269E+04    0.55863E-06   -0.44861E-05  3011   0.793E-03
  50 F= -.23615445E+04 E0= -.23615445E+04  d E =-.158483E-01  mag=     2.0000
       N       E                     dE             d eps       ncg     rms          rms(c)
DAV:   1    -0.233996910703E+04    0.83662E-02   -0.15014E+00  4524   0.118E+00    0.377E-01
RMM:   2    -0.233999019670E+04   -0.21090E-01   -0.20093E-01  6227   0.249E-01    0.515E-01
RMM:   3    -0.233998984414E+04    0.35256E-03   -0.21997E-02  5973   0.964E-02    0.328E-01
RMM:   4    -0.233998879472E+04    0.10494E-02   -0.22228E-03  5303   0.238E-02    0.135E-01
RMM:   5    -0.233998887470E+04   -0.79972E-04   -0.64200E-04  4200   0.142E-02    0.155E-01
RMM:   6    -0.233998856488E+04    0.30981E-03   -0.52902E-04  4745   0.135E-02    0.424E-02
RMM:   7    -0.233998856982E+04   -0.49345E-05   -0.11505E-04  3061   0.954E-03    0.425E-02
RMM:   8    -0.233998854404E+04    0.25781E-04   -0.33282E-05  2931   0.408E-03    0.993E-03
RMM:   9    -0.233998854173E+04    0.23069E-05   -0.72400E-06  2928   0.249E-03
  51 F= -.23615559E+04 E0= -.23615559E+04  d E =-.114225E-01  mag=     2.0000
       N       E                     dE             d eps       ncg     rms          rms(c)
DAV:   1    -0.233995411405E+04    0.34430E-01   -0.30832E+00  4520   0.169E+00    0.539E-01
RMM:   2    -0.233999770918E+04   -0.43595E-01   -0.41547E-01  6214   0.360E-01    0.739E-01
RMM:   3    -0.233999692195E+04    0.78723E-03   -0.45367E-02  6025   0.139E-01    0.463E-01
RMM:   4    -0.233999476858E+04    0.21534E-02   -0.45300E-03  5551   0.340E-02    0.191E-01
RMM:   5    -0.233999496865E+04   -0.20007E-03   -0.13280E-03  4987   0.200E-02    0.227E-01
RMM:   6    -0.233999427323E+04    0.69542E-03   -0.10981E-03  5035   0.187E-02    0.511E-02
RMM:   7    -0.233999426373E+04    0.94979E-05   -0.15968E-04  3437   0.113E-02    0.403E-02
RMM:   8    -0.233999424481E+04    0.18916E-04   -0.53126E-05  2967   0.465E-03    0.176E-02
RMM:   9    -0.233999423772E+04    0.70932E-05   -0.11040E-05  2946   0.326E-03
  52 F= -.23615622E+04 E0= -.23615622E+04  d E =-.176413E-01  mag=     2.0000
       N       E                     dE             d eps       ncg     rms          rms(c)
DAV:   1    -0.233997836506E+04    0.15880E-01   -0.17924E+00  4528   0.132E+00    0.404E-01
RMM:   2    -0.234000272806E+04   -0.24363E-01   -0.25225E-01  6158   0.283E-01    0.355E-01
RMM:   3    -0.234000566456E+04   -0.29365E-02   -0.28738E-02  5969   0.115E-01    0.446E-01
RMM:   4    -0.234000356327E+04    0.21013E-02   -0.27020E-03  5669   0.279E-02    0.135E-01
RMM:   5    -0.234000358379E+04   -0.20516E-04   -0.86749E-04  5042   0.171E-02    0.136E-01
RMM:   6    -0.234000339335E+04    0.19044E-03   -0.51529E-04  4640   0.131E-02    0.708E-02
RMM:   7    -0.234000336595E+04    0.27401E-04   -0.12854E-04  3172   0.764E-03    0.507E-02
RMM:   8    -0.234000333020E+04    0.35748E-04   -0.42895E-05  2941   0.557E-03    0.132E-02
RMM:   9    -0.234000332657E+04    0.36297E-05   -0.81879E-06  2933   0.260E-03
  53 F= -.23615718E+04 E0= -.23615718E+04  d E =-.961496E-02  mag=     2.0000
       N       E                     dE             d eps       ncg     rms          rms(c)
DAV:   1    -0.233999686263E+04    0.64676E-02   -0.54176E-01  4688   0.730E-01    0.222E-01
RMM:   2    -0.234000422678E+04   -0.73641E-02   -0.76252E-02  6169   0.156E-01    0.194E-01
RMM:   3    -0.234000511642E+04   -0.88964E-03   -0.86323E-03  5758   0.629E-02    0.246E-01
RMM:   4    -0.234000448006E+04    0.63636E-03   -0.81873E-04  4436   0.155E-02    0.749E-02
RMM:   5    -0.234000450090E+04   -0.20837E-04   -0.27102E-04  3976   0.101E-02    0.823E-02
RMM:   6    -0.234000442194E+04    0.78957E-04   -0.16420E-04  3187   0.838E-03    0.364E-02
RMM:   7    -0.234000441770E+04    0.42389E-05   -0.45841E-05  2968   0.597E-03
  54 F= -.23615731E+04 E0= -.23615731E+04  d E =-.109969E-01  mag=     2.0000
       N       E                     dE             d eps       ncg     rms          rms(c)
DAV:   1    -0.233999129743E+04    0.13125E-01   -0.12590E+00  4528   0.112E+00    0.331E-01
RMM:   2    -0.234000881675E+04   -0.17519E-01   -0.18987E-01  6200   0.236E-01    0.170E-01
RMM:   3    -0.234001021960E+04   -0.14029E-02   -0.21750E-02  5801   0.102E-01    0.115E-01
RMM:   4    -0.234001045224E+04   -0.23264E-03   -0.19590E-03  5148   0.216E-02    0.157E-01
RMM:   5    -0.234001014807E+04    0.30417E-03   -0.52081E-04  4478   0.137E-02    0.630E-02
RMM:   6    -0.234001015562E+04   -0.75458E-05   -0.18879E-04  3895   0.861E-03    0.714E-02
RMM:   7    -0.234001010811E+04    0.47506E-04   -0.58377E-05  2929   0.635E-03    0.249E-02
RMM:   8    -0.234001010488E+04    0.32287E-05   -0.19965E-05  2927   0.325E-03
  55 F= -.23615796E+04 E0= -.23615796E+04  d E =-.645071E-02  mag=     2.0000
       N       E                     dE             d eps       ncg     rms          rms(c)
DAV:   1    -0.234000345939E+04    0.66487E-02   -0.47731E-01  4608   0.690E-01    0.204E-01
RMM:   2    -0.234001011464E+04   -0.66553E-02   -0.72109E-02  6214   0.146E-01    0.104E-01
RMM:   3    -0.234001063908E+04   -0.52444E-03   -0.82253E-03  5602   0.625E-02    0.678E-02
RMM:   4    -0.234001068337E+04   -0.44289E-04   -0.72054E-04  4311   0.134E-02    0.786E-02
RMM:   5    -0.234001062382E+04    0.59556E-04   -0.16971E-04  3123   0.888E-03    0.455E-02
RMM:   6    -0.234001060722E+04    0.16595E-04   -0.59091E-05  3093   0.591E-03    0.318E-02
RMM:   7    -0.234001059839E+04    0.88292E-05   -0.20232E-05  2909   0.481E-03
  56 F= -.23615806E+04 E0= -.23615806E+04  d E =-.741230E-02  mag=     2.0000
       N       E                     dE             d eps       ncg     rms          rms(c)
DAV:   1    -0.233999300884E+04    0.17598E-01   -0.17037E+00  4520   0.131E+00    0.382E-01
RMM:   2    -0.234001468261E+04   -0.21674E-01   -0.23260E-01  6153   0.262E-01    0.252E-01
RMM:   3    -0.234001717301E+04   -0.24904E-02   -0.24896E-02  5872   0.112E-01    0.350E-01
RMM:   4    -0.234001593781E+04    0.12352E-02   -0.24512E-03  5594   0.250E-02    0.149E-01
RMM:   5    -0.234001597109E+04   -0.33283E-04   -0.83148E-04  5106   0.162E-02    0.162E-01
RMM:   6    -0.234001566014E+04    0.31096E-03   -0.52044E-04  4691   0.127E-02    0.611E-02
RMM:   7    -0.234001563452E+04    0.25616E-04   -0.13795E-04  3542   0.832E-03    0.394E-02
RMM:   8    -0.234001561415E+04    0.20369E-04   -0.42943E-05  2936   0.586E-03    0.146E-02
RMM:   9    -0.234001560843E+04    0.57179E-05   -0.96974E-06  2933   0.292E-03
  57 F= -.23615865E+04 E0= -.23615865E+04  d E =-.591856E-02  mag=     2.0000
       N       E                     dE             d eps       ncg     rms          rms(c)
DAV:   1    -0.234001080731E+04    0.48068E-02   -0.37444E-01  4592   0.613E-01    0.178E-01
RMM:   2    -0.234001555422E+04   -0.47469E-02   -0.51109E-02  6148   0.123E-01    0.108E-01
RMM:   3    -0.234001603058E+04   -0.47636E-03   -0.53563E-03  5428   0.510E-02    0.140E-01
RMM:   4    -0.234001585628E+04    0.17430E-03   -0.51727E-04  3189   0.115E-02    0.735E-02
RMM:   5    -0.234001584361E+04    0.12669E-04   -0.18125E-04  3601   0.893E-03    0.707E-02
RMM:   6    -0.234001578840E+04    0.55210E-04   -0.10583E-04  3078   0.728E-03    0.308E-02
RMM:   7    -0.234001577647E+04    0.11931E-04   -0.24881E-05  3014   0.512E-03    0.779E-03
RMM:   8    -0.234001577613E+04    0.33344E-06   -0.71212E-06  2892   0.388E-03
  58 F= -.23615871E+04 E0= -.23615871E+04  d E =-.650952E-02  mag=     2.0000
       N       E                     dE             d eps       ncg     rms          rms(c)
DAV:   1    -0.234000104397E+04    0.14732E-01   -0.13841E+00  4520   0.113E+00    0.326E-01
RMM:   2    -0.234002155915E+04   -0.20515E-01   -0.20891E-01  6347   0.231E-01    0.374E-01
RMM:   3    -0.234002281785E+04   -0.12587E-02   -0.22252E-02  5917   0.918E-02    0.328E-01
RMM:   4    -0.234002171296E+04    0.11049E-02   -0.21235E-03  5234   0.220E-02    0.130E-01
RMM:   5    -0.234002178544E+04   -0.72479E-04   -0.60700E-04  4419   0.130E-02    0.155E-01
RMM:   6    -0.234002146715E+04    0.31829E-03   -0.51456E-04  4646   0.122E-02    0.499E-02
RMM:   7    -0.234002147197E+04   -0.48215E-05   -0.14618E-04  3192   0.889E-03    0.458E-02
RMM:   8    -0.234002144337E+04    0.28605E-04   -0.45894E-05  2972   0.542E-03    0.122E-02
RMM:   9    -0.234002143861E+04    0.47587E-05   -0.94226E-06  2936   0.293E-03
  59 F= -.23615933E+04 E0= -.23615933E+04  d E =-.620078E-02  mag=     2.0000
       N       E                     dE             d eps       ncg     rms          rms(c)
DAV:   1    -0.233999845560E+04    0.22988E-01   -0.16773E+00  4520   0.125E+00    0.358E-01
RMM:   2    -0.234002321782E+04   -0.24762E-01   -0.25286E-01  6404   0.255E-01    0.401E-01
RMM:   3    -0.234002484705E+04   -0.16292E-02   -0.26968E-02  5974   0.101E-01    0.361E-01
RMM:   4    -0.234002350495E+04    0.13421E-02   -0.25426E-03  5400   0.242E-02    0.143E-01
RMM:   5    -0.234002359037E+04   -0.85427E-04   -0.75334E-04  4738   0.141E-02    0.171E-01
RMM:   6    -0.234002320614E+04    0.38424E-03   -0.62040E-04  4748   0.132E-02    0.556E-02
RMM:   7    -0.234002320366E+04    0.24794E-05   -0.17000E-04  3365   0.937E-03    0.461E-02
RMM:   8    -0.234002317534E+04    0.28316E-04   -0.52239E-05  2977   0.569E-03    0.144E-02
RMM:   9    -0.234002316878E+04    0.65627E-05   -0.10778E-05  2943   0.313E-03
  60 F= -.23615956E+04 E0= -.23615956E+04  d E =-.851642E-02  mag=     2.0000
       N       E                     dE             d eps       ncg     rms          rms(c)
DAV:   1    -0.234000045017E+04    0.22725E-01   -0.18634E+00  4520   0.132E+00    0.409E-01
RMM:   2    -0.234002953037E+04   -0.29080E-01   -0.29441E-01  6321   0.269E-01    0.467E-01
RMM:   3    -0.234003095771E+04   -0.14273E-02   -0.30670E-02  5980   0.106E-01    0.397E-01
RMM:   4    -0.234002934571E+04    0.16120E-02   -0.30495E-03  5460   0.263E-02    0.165E-01
RMM:   5    -0.234002942438E+04   -0.78665E-04   -0.89183E-04  4895   0.155E-02    0.190E-01
RMM:   6    -0.234002893374E+04    0.49063E-03   -0.80032E-04  4938   0.151E-02    0.485E-02
RMM:   7    -0.234002891784E+04    0.15906E-04   -0.13168E-04  3592   0.956E-03    0.196E-02
RMM:   8    -0.234002891421E+04    0.36322E-05   -0.27517E-05  2942   0.476E-03
  61 F= -.23616017E+04 E0= -.23616017E+04  d E =-.613646E-02  mag=     2.0000
       N       E                     dE             d eps       ncg     rms          rms(c)
DAV:   1    -0.234002268674E+04    0.62311E-02   -0.44294E-01  4640   0.645E-01    0.202E-01
RMM:   2    -0.234002963396E+04   -0.69472E-02   -0.70329E-02  6307   0.131E-01    0.232E-01
RMM:   3    -0.234002995826E+04   -0.32429E-03   -0.72775E-03  5538   0.510E-02    0.198E-01
RMM:   4    -0.234002955996E+04    0.39830E-03   -0.73466E-04  3621   0.131E-02    0.812E-02
[...]
RMM:   2    -0.234034682102E+04   -0.14056E-02   -0.15509E-02  6355   0.755E-02    0.736E-02
RMM:   3    -0.234034695908E+04   -0.13806E-03   -0.15455E-03  4139   0.267E-02    0.885E-02
RMM:   4    -0.234034688080E+04    0.78277E-04   -0.18208E-04  3011   0.805E-03    0.457E-02
RMM:   5    -0.234034689383E+04   -0.13025E-04   -0.10846E-04  3233   0.664E-03    0.553E-02
RMM:   6    -0.234034686105E+04    0.32771E-04   -0.50777E-05  2981   0.585E-03    0.260E-02
RMM:   7    -0.234034685683E+04    0.42256E-05   -0.17998E-05  2931   0.347E-03
 129 F= -.23619316E+04 E0= -.23619316E+04  d E =-.345001E-02  mag=     2.0000
       N       E                     dE             d eps       ncg     rms          rms(c)
DAV:   1    -0.234032867928E+04    0.18182E-01   -0.22938E+00  4520   0.140E+00    0.408E-01
RMM:   2    -0.234034840492E+04   -0.19726E-01   -0.21463E-01  6391   0.274E-01    0.268E-01
RMM:   3    -0.234035058199E+04   -0.21771E-02   -0.21254E-02  5982   0.962E-02    0.377E-01
RMM:   4    -0.234034938573E+04    0.11963E-02   -0.25101E-03  5444   0.250E-02    0.168E-01
RMM:   5    -0.234034944922E+04   -0.63492E-04   -0.11765E-03  5270   0.188E-02    0.164E-01
RMM:   6    -0.234034913295E+04    0.31627E-03   -0.58893E-04  4616   0.145E-02    0.690E-02
RMM:   7    -0.234034911309E+04    0.19860E-04   -0.14671E-04  3086   0.732E-03    0.520E-02
RMM:   8    -0.234034907189E+04    0.41204E-04   -0.40709E-05  2942   0.513E-03    0.130E-02
RMM:   9    -0.234034906840E+04    0.34841E-05   -0.98500E-06  2942   0.230E-03
 130 F= -.23619347E+04 E0= -.23619347E+04  d E =-.304906E-02  mag=     2.0000
       N       E                     dE             d eps       ncg     rms          rms(c)
DAV:   1    -0.234034546442E+04    0.36075E-02   -0.38761E-01  4520   0.577E-01    0.168E-01
RMM:   2    -0.234034881385E+04   -0.33494E-02   -0.36353E-02  6320   0.113E-01    0.113E-01
RMM:   3    -0.234034918150E+04   -0.36765E-03   -0.35563E-03  5269   0.391E-02    0.160E-01
RMM:   4    -0.234034896336E+04    0.21814E-03   -0.42507E-04  3136   0.108E-02    0.687E-02
RMM:   5    -0.234034897718E+04   -0.13815E-04   -0.20567E-04  3546   0.893E-03    0.689E-02
RMM:   6    -0.234034892073E+04    0.56447E-04   -0.11243E-04  3128   0.761E-03    0.289E-02
RMM:   7    -0.234034891743E+04    0.33056E-05   -0.30180E-05  2948   0.505E-03
 131 F= -.23619349E+04 E0= -.23619349E+04  d E =-.324423E-02  mag=     2.0000
       N       E                     dE             d eps       ncg     rms          rms(c)
DAV:   1    -0.234032707040E+04    0.21850E-01   -0.23059E+00  4520   0.139E+00    0.403E-01
RMM:   2    -0.234035081903E+04   -0.23749E-01   -0.24917E-01  6461   0.281E-01    0.366E-01
RMM:   3    -0.234035325591E+04   -0.24369E-02   -0.25623E-02  6111   0.102E-01    0.444E-01
RMM:   4    -0.234035137486E+04    0.18811E-02   -0.27864E-03  5483   0.266E-02    0.140E-01
RMM:   5    -0.234035119944E+04    0.17542E-03   -0.10609E-03  4715   0.182E-02    0.733E-02
RMM:   6    -0.234035123777E+04   -0.38337E-04   -0.38249E-04  3821   0.143E-02    0.799E-02
RMM:   7    -0.234035115318E+04    0.84596E-04   -0.98483E-05  3057   0.629E-03    0.237E-02
RMM:   8    -0.234035114933E+04    0.38436E-05   -0.25940E-05  2944   0.415E-03
 132 F= -.23619379E+04 E0= -.23619379E+04  d E =-.305837E-02  mag=     2.0000
       N       E                     dE             d eps       ncg     rms          rms(c)
DAV:   1    -0.234032662539E+04    0.24528E-01   -0.22667E+00  4520   0.138E+00    0.400E-01
RMM:   2    -0.234035012167E+04   -0.23496E-01   -0.24568E-01  6428   0.279E-01    0.373E-01
RMM:   3    -0.234035242451E+04   -0.23028E-02   -0.25222E-02  6110   0.984E-02    0.440E-01
RMM:   4    -0.234035058105E+04    0.18435E-02   -0.27307E-03  5473   0.262E-02    0.138E-01
RMM:   5    -0.234035040562E+04    0.17543E-03   -0.10540E-03  4714   0.182E-02    0.704E-02
RMM:   6    -0.234035043324E+04   -0.27619E-04   -0.36669E-04  3821   0.142E-02    0.720E-02
RMM:   7    -0.234035035893E+04    0.74312E-04   -0.90965E-05  3069   0.616E-03    0.186E-02
RMM:   8    -0.234035035913E+04   -0.20109E-06   -0.22195E-05  2959   0.395E-03
 133 F= -.23619380E+04 E0= -.23619380E+04  d E =-.309868E-02  mag=     2.0000
       N       E                     dE             d eps       ncg     rms          rms(c)
DAV:   1    -0.234034568586E+04    0.46731E-02   -0.52165E-01  4520   0.664E-01    0.189E-01
RMM:   2    -0.234035100979E+04   -0.53239E-02   -0.56319E-02  6435   0.134E-01    0.163E-01
RMM:   3    -0.234035160014E+04   -0.59035E-03   -0.57463E-03  5567   0.475E-02    0.214E-01
RMM:   4    -0.234035116874E+04    0.43141E-03   -0.62082E-04  3364   0.128E-02    0.684E-02
RMM:   5    -0.234035114517E+04    0.23570E-04   -0.27085E-04  3887   0.102E-02    0.527E-02
RMM:   6    -0.234035113365E+04    0.11519E-04   -0.12128E-04  3076   0.792E-03    0.429E-02
RMM:   7    -0.234035111219E+04    0.21459E-04   -0.30935E-05  2970   0.480E-03    0.153E-02
RMM:   8    -0.234035110948E+04    0.27134E-05   -0.94493E-06  2897   0.290E-03
 134 F= -.23619383E+04 E0= -.23619383E+04  d E =-.344890E-02  mag=     2.0000
       N       E                     dE             d eps       ncg     rms          rms(c)
DAV:   1    -0.234032706501E+04    0.24047E-01   -0.24363E+00  4520   0.144E+00    0.429E-01
RMM:   2    -0.234035411283E+04   -0.27048E-01   -0.27578E-01  6387   0.295E-01    0.465E-01
RMM:   3    -0.234035598368E+04   -0.18709E-02   -0.30402E-02  6124   0.111E-01    0.447E-01
RMM:   4    -0.234035401163E+04    0.19720E-02   -0.30225E-03  5492   0.282E-02    0.142E-01
RMM:   5    -0.234035399531E+04    0.16324E-04   -0.12288E-03  5297   0.195E-02    0.134E-01
RMM:   6    -0.234035382461E+04    0.17070E-03   -0.57149E-04  4466   0.139E-02    0.769E-02
RMM:   7    -0.234035377543E+04    0.49181E-04   -0.12776E-04  3116   0.699E-03    0.460E-02
RMM:   8    -0.234035374481E+04    0.30619E-04   -0.36718E-05  2935   0.499E-03    0.143E-02
RMM:   9    -0.234035374015E+04    0.46601E-05   -0.89150E-06  2947   0.238E-03
 135 F= -.23619418E+04 E0= -.23619418E+04  d E =-.348912E-02  mag=     2.0000
       N       E                     dE             d eps       ncg     rms          rms(c)
DAV:   1    -0.234034852348E+04    0.52213E-02   -0.47462E-01  4520   0.631E-01    0.189E-01
RMM:   2    -0.234035377837E+04   -0.52549E-02   -0.53727E-02  6349   0.130E-01    0.202E-01
RMM:   3    -0.234035416119E+04   -0.38282E-03   -0.57766E-03  5661   0.494E-02    0.201E-01
RMM:   4    -0.234035376553E+04    0.39566E-03   -0.58758E-04  3487   0.128E-02    0.632E-02
RMM:   5    -0.234035376713E+04   -0.15985E-05   -0.24736E-04  3941   0.981E-03    0.619E-02
RMM:   6    -0.234035372991E+04    0.37218E-04   -0.11559E-04  3053   0.761E-03    0.343E-02
RMM:   7    -0.234035371971E+04    0.10204E-04   -0.27760E-05  2947   0.463E-03    0.192E-02
RMM:   8    -0.234035371455E+04    0.51631E-05   -0.87504E-06  2891   0.302E-03
 136 F= -.23619422E+04 E0= -.23619422E+04  d E =-.384511E-02  mag=     2.0000
       N       E                     dE             d eps       ncg     rms          rms(c)
DAV:   1    -0.234033143007E+04    0.22290E-01   -0.23509E+00  4520   0.138E+00    0.419E-01
RMM:   2    -0.234035662725E+04   -0.25197E-01   -0.25848E-01  6399   0.284E-01    0.438E-01
RMM:   3    -0.234035857502E+04   -0.19478E-02   -0.29029E-02  6122   0.106E-01    0.439E-01
RMM:   4    -0.234035669982E+04    0.18752E-02   -0.29461E-03  5498   0.273E-02    0.151E-01
RMM:   5    -0.234035692515E+04   -0.22533E-03   -0.12306E-03  5258   0.181E-02    0.189E-01
RMM:   6    -0.234035647736E+04    0.44779E-03   -0.72271E-04  5029   0.141E-02    0.675E-02
RMM:   7    -0.234035647154E+04    0.58238E-05   -0.21091E-04  3146   0.869E-03    0.584E-02
RMM:   8    -0.234035641999E+04    0.51548E-04   -0.50688E-05  2939   0.517E-03    0.119E-02
RMM:   9    -0.234035641620E+04    0.37862E-05   -0.10700E-05  2951   0.253E-03
 137 F= -.23619457E+04 E0= -.23619457E+04  d E =-.350503E-02  mag=     2.0000
       N       E                     dE             d eps       ncg     rms          rms(c)
DAV:   1    -0.234034523517E+04    0.11185E-01   -0.10366E+00  4520   0.920E-01    0.277E-01
RMM:   2    -0.234035621881E+04   -0.10984E-01   -0.11325E-01  6398   0.188E-01    0.281E-01
RMM:   3    -0.234035721140E+04   -0.99258E-03   -0.12775E-02  5963   0.707E-02    0.296E-01
RMM:   4    -0.234035635812E+04    0.85327E-03   -0.13022E-03  4729   0.183E-02    0.100E-01
RMM:   5    -0.234035644937E+04   -0.91244E-04   -0.54965E-04  4428   0.126E-02    0.123E-01
RMM:   6    -0.234035625828E+04    0.19109E-03   -0.32135E-04  4069   0.102E-02    0.455E-02
RMM:   7    -0.234035625480E+04    0.34811E-05   -0.95395E-05  3009   0.681E-03
 138 F= -.23619460E+04 E0= -.23619460E+04  d E =-.388339E-02  mag=     2.0000
       N       E                     dE             d eps       ncg     rms          rms(c)
DAV:   1    -0.234034236666E+04    0.13892E-01   -0.14755E+00  4552   0.109E+00    0.323E-01
RMM:   2    -0.234035734048E+04   -0.14974E-01   -0.15808E-01  6391   0.219E-01    0.271E-01
RMM:   3    -0.234035920818E+04   -0.18677E-02   -0.17855E-02  6017   0.830E-02    0.353E-01
RMM:   4    -0.234035802206E+04    0.11861E-02   -0.18414E-03  4967   0.212E-02    0.122E-01
RMM:   5    -0.234035804174E+04   -0.19675E-04   -0.72443E-04  4662   0.142E-02    0.116E-01
RMM:   6    -0.234035790855E+04    0.13319E-03   -0.38471E-04  3721   0.112E-02    0.606E-02
RMM:   7    -0.234035788731E+04    0.21236E-04   -0.10405E-04  3055   0.678E-03    0.421E-02
RMM:   8    -0.234035786223E+04    0.25082E-04   -0.28949E-05  2928   0.453E-03    0.102E-02
RMM:   9    -0.234035786011E+04    0.21178E-05   -0.55974E-06  2919   0.207E-03
 139 F= -.23619485E+04 E0= -.23619485E+04  d E =-.247953E-02  mag=     2.0000
       N       E                     dE             d eps       ncg     rms          rms(c)
DAV:   1    -0.234033378288E+04    0.24079E-01   -0.23075E+00  4520   0.136E+00    0.401E-01
RMM:   2    -0.234035736734E+04   -0.23584E-01   -0.24748E-01  6431   0.274E-01    0.355E-01
RMM:   3    -0.234036005779E+04   -0.26904E-02   -0.27848E-02  6110   0.102E-01    0.439E-01
RMM:   4    -0.234035820667E+04    0.18511E-02   -0.28418E-03  5489   0.264E-02    0.150E-01
RMM:   5    -0.234035822802E+04   -0.21352E-04   -0.11668E-03  5033   0.177E-02    0.144E-01
RMM:   6    -0.234035802018E+04    0.20784E-03   -0.59920E-04  4311   0.135E-02    0.733E-02
RMM:   7    -0.234035798830E+04    0.31882E-04   -0.14847E-04  3136   0.731E-03    0.516E-02
RMM:   8    -0.234035795045E+04    0.37855E-04   -0.42260E-05  2936   0.513E-03    0.128E-02
RMM:   9    -0.234035794693E+04    0.35110E-05   -0.85806E-06  2945   0.229E-03
 140 F= -.23619497E+04 E0= -.23619497E+04  d E =-.367030E-02  mag=     2.0000
       N       E                     dE             d eps       ncg     rms          rms(c)
DAV:   1    -0.234034923060E+04    0.87198E-02   -0.10496E+00  4520   0.940E-01    0.293E-01
RMM:   2    -0.234035963426E+04   -0.10404E-01   -0.11207E-01  6196   0.192E-01    0.185E-01
RMM:   3    -0.234036079291E+04   -0.11587E-02   -0.12294E-02  5916   0.757E-02    0.257E-01
RMM:   4    -0.234036023068E+04    0.56223E-03   -0.12958E-03  4779   0.186E-02    0.122E-01
RMM:   5    -0.234036023644E+04   -0.57574E-05   -0.57682E-04  4466   0.138E-02    0.114E-01
RMM:   6    -0.234036009280E+04    0.14364E-03   -0.25964E-04  3301   0.106E-02    0.491E-02
RMM:   7    -0.234036006644E+04    0.26369E-04   -0.52929E-05  3042   0.607E-03    0.200E-02
RMM:   8    -0.234036006192E+04    0.45197E-05   -0.19853E-05  2933   0.432E-03
 141 F= -.23619528E+04 E0= -.23619528E+04  d E =-.303933E-02  mag=     2.0000
       N       E                     dE             d eps       ncg     rms          rms(c)
DAV:   1    -0.234035373260E+04    0.63338E-02   -0.58131E-01  4560   0.700E-01    0.219E-01
RMM:   2    -0.234035951606E+04   -0.57835E-02   -0.62317E-02  6198   0.143E-01    0.138E-01
RMM:   3    -0.234036016329E+04   -0.64724E-03   -0.68477E-03  5761   0.537E-02    0.192E-01
RMM:   4    -0.234035984818E+04    0.31512E-03   -0.71904E-04  3557   0.139E-02    0.906E-02
RMM:   5    -0.234035985669E+04   -0.85077E-05   -0.32891E-04  4045   0.110E-02    0.869E-02
RMM:   6    -0.234035977082E+04    0.85870E-04   -0.14882E-04  3098   0.839E-03    0.358E-02
RMM:   7    -0.234035975639E+04    0.14426E-04   -0.31166E-05  2978   0.523E-03    0.144E-02
RMM:   8    -0.234035975412E+04    0.22687E-05   -0.12242E-05  2920   0.358E-03
 142 F= -.23619531E+04 E0= -.23619531E+04  d E =-.342278E-02  mag=     2.0000
       N       E                     dE             d eps       ncg     rms          rms(c)
DAV:   1    -0.234034980446E+04    0.99519E-02   -0.97615E-01  4536   0.879E-01    0.265E-01
RMM:   2    -0.234036076284E+04   -0.10958E-01   -0.11651E-01  6438   0.183E-01    0.189E-01
RMM:   3    -0.234036188093E+04   -0.11181E-02   -0.12894E-02  5933   0.689E-02    0.229E-01
RMM:   4    -0.234036141841E+04    0.46252E-03   -0.12595E-03  4068   0.171E-02    0.117E-01
RMM:   5    -0.234036151280E+04   -0.94394E-04   -0.51570E-04  4043   0.119E-02    0.136E-01
RMM:   6    -0.234036129666E+04    0.21614E-03   -0.29972E-04  3603   0.994E-03    0.451E-02
RMM:   7    -0.234036129184E+04    0.48161E-05   -0.85764E-05  3049   0.662E-03
 143 F= -.23619556E+04 E0= -.23619556E+04  d E =-.246822E-02  mag=     2.0000
       N       E                     dE             d eps       ncg     rms          rms(c)
DAV:   1    -0.234030793236E+04    0.53364E-01   -0.44899E+00  4520   0.189E+00    0.571E-01
RMM:   2    -0.234035823155E+04   -0.50299E-01   -0.53522E-01  6443   0.396E-01    0.407E-01
RMM:   3    -0.234036358292E+04   -0.53514E-02   -0.60359E-02  6163   0.154E-01    0.485E-01
RMM:   4    -0.234036153267E+04    0.20503E-02   -0.58298E-03  6043   0.367E-02    0.251E-01
RMM:   5    -0.234036186946E+04   -0.33680E-03   -0.22490E-03  5348   0.228E-02    0.281E-01
RMM:   6    -0.234036096293E+04    0.90653E-03   -0.13015E-03  4956   0.184E-02    0.103E-01
RMM:   7    -0.234036092699E+04    0.35941E-04   -0.39720E-04  3864   0.108E-02    0.734E-02
RMM:   8    -0.234036084691E+04    0.80079E-04   -0.11315E-04  2982   0.685E-03    0.204E-02
RMM:   9    -0.234036083720E+04    0.97125E-05   -0.23688E-05  2992   0.325E-03
 144 F= -.23619572E+04 E0= -.23619572E+04  d E =-.402636E-02  mag=     2.0000
       N       E                     dE             d eps       ncg     rms          rms(c)
DAV:   1    -0.234035073289E+04    0.10114E-01   -0.11473E+00  4520   0.956E-01    0.296E-01
RMM:   2    -0.234036295791E+04   -0.12225E-01   -0.12755E-01  6387   0.198E-01    0.271E-01
RMM:   3    -0.234036424580E+04   -0.12879E-02   -0.13890E-02  6025   0.734E-02    0.318E-01
RMM:   4    -0.234036327837E+04    0.96743E-03   -0.14635E-03  4953   0.195E-02    0.109E-01
RMM:   5    -0.234036337338E+04   -0.95012E-04   -0.62277E-04  4734   0.133E-02    0.132E-01
RMM:   6    -0.234036315608E+04    0.21731E-03   -0.36142E-04  3640   0.110E-02    0.462E-02
RMM:   7    -0.234036314616E+04    0.99178E-05   -0.77421E-05  3066   0.646E-03
 145 F= -.23619605E+04 E0= -.23619605E+04  d E =-.332956E-02  mag=     2.0000
       N       E                     dE             d eps       ncg     rms          rms(c)
DAV:   1    -0.234033968268E+04    0.23473E-01   -0.21617E+00  4520   0.131E+00    0.407E-01
RMM:   2    -0.234036256112E+04   -0.22878E-01   -0.24063E-01  6353   0.272E-01    0.348E-01
RMM:   3    -0.234036520051E+04   -0.26394E-02   -0.26244E-02  6096   0.104E-01    0.437E-01
RMM:   4    -0.234036338061E+04    0.18199E-02   -0.27669E-03  5643   0.269E-02    0.151E-01
RMM:   5    -0.234036353057E+04   -0.14996E-03   -0.11324E-03  5030   0.175E-02    0.176E-01
RMM:   6    -0.234036315515E+04    0.37542E-03   -0.64351E-04  4325   0.143E-02    0.646E-02
RMM:   7    -0.234036312354E+04    0.31607E-04   -0.11875E-04  3244   0.709E-03    0.366E-02
RMM:   8    -0.234036310417E+04    0.19374E-04   -0.41152E-05  2940   0.521E-03    0.157E-02
RMM:   9    -0.234036309901E+04    0.51624E-05   -0.99900E-06  2948   0.239E-03
 146 F= -.23619619E+04 E0= -.23619619E+04  d E =-.469124E-02  mag=     2.0000
       N       E                     dE             d eps       ncg     rms          rms(c)
DAV:   1    -0.234035182618E+04    0.11278E-01   -0.12133E+00  4520   0.979E-01    0.310E-01
RMM:   2    -0.234036584404E+04   -0.14018E-01   -0.14176E-01  6387   0.205E-01    0.362E-01
RMM:   3    -0.234036665106E+04   -0.80702E-03   -0.15831E-02  6049   0.786E-02    0.315E-01
RMM:   4    -0.234036567458E+04    0.97648E-03   -0.15566E-03  5020   0.202E-02    0.102E-01
RMM:   5    -0.234036554935E+04    0.12523E-03   -0.63825E-04  4738   0.142E-02    0.465E-02
RMM:   6    -0.234036560592E+04   -0.56567E-04   -0.18853E-04  3221   0.105E-02    0.718E-02
RMM:   7    -0.234036553525E+04    0.70665E-04   -0.50251E-05  2982   0.551E-03    0.144E-02
RMM:   8    -0.234036553254E+04    0.27102E-05   -0.10543E-05  2939   0.317E-03
 147 F= -.23619654E+04 E0= -.23619654E+04  d E =-.351163E-02  mag=     2.0000
       N       E                     dE             d eps       ncg     rms          rms(c)
DAV:   1    -0.234034608287E+04    0.19452E-01   -0.17364E+00  4520   0.117E+00    0.372E-01
RMM:   2    -0.234036614180E+04   -0.20059E-01   -0.20310E-01  6386   0.245E-01    0.432E-01
RMM:   3    -0.234036733734E+04   -0.11955E-02   -0.22713E-02  6146   0.921E-02    0.380E-01
RMM:   4    -0.234036591903E+04    0.14183E-02   -0.22294E-03  5296   0.240E-02    0.122E-01
RMM:   5    -0.234036575136E+04    0.16767E-03   -0.91508E-04  4942   0.168E-02    0.621E-02
RMM:   6    -0.234036580523E+04   -0.53871E-04   -0.31470E-04  3573   0.121E-02    0.794E-02
RMM:   7    -0.234036572121E+04    0.84023E-04   -0.72371E-05  3018   0.612E-03    0.232E-02
RMM:   8    -0.234036571579E+04    0.54190E-05   -0.19761E-05  2928   0.380E-03
 148 F= -.23619669E+04 E0= -.23619669E+04  d E =-.499119E-02  mag=     2.0000
       N       E                     dE             d eps       ncg     rms          rms(c)
DAV:   1    -0.234035558254E+04    0.10139E-01   -0.11741E+00  4520   0.978E-01    0.309E-01
RMM:   2    -0.234036796811E+04   -0.12386E-01   -0.12781E-01  6277   0.199E-01    0.313E-01
RMM:   3    -0.234036909844E+04   -0.11303E-02   -0.14106E-02  6022   0.761E-02    0.340E-01
RMM:   4    -0.234036797775E+04    0.11207E-02   -0.14786E-03  5158   0.203E-02    0.103E-01
RMM:   5    -0.234036794523E+04    0.32520E-04   -0.66683E-04  4663   0.149E-02    0.911E-02
RMM:   6    -0.234036788312E+04    0.62104E-04   -0.30445E-04  3428   0.113E-02    0.555E-02
RMM:   7    -0.234036785403E+04    0.29093E-04   -0.53577E-05  3001   0.582E-03    0.299E-02
RMM:   8    -0.234036784109E+04    0.12940E-04   -0.17805E-05  2911   0.397E-03    0.113E-02
RMM:   9    -0.234036783842E+04    0.26705E-05   -0.57621E-06  2903   0.214E-03
 149 F= -.23619700E+04 E0= -.23619700E+04  d E =-.317490E-02  mag=     2.0000
       N       E                     dE             d eps       ncg     rms          rms(c)
DAV:   1    -0.234036426545E+04    0.35756E-02   -0.32797E-01  4560   0.517E-01    0.163E-01
RMM:   2    -0.234036772094E+04   -0.34555E-02   -0.35650E-02  6254   0.106E-01    0.164E-01
RMM:   3    -0.234036803428E+04   -0.31334E-03   -0.39414E-03  5425   0.418E-02    0.179E-01
RMM:   4    -0.234036772309E+04    0.31119E-03   -0.40855E-04  3307   0.112E-02    0.548E-02
RMM:   5    -0.234036770805E+04    0.15044E-04   -0.19107E-04  3912   0.882E-03    0.454E-02
RMM:   6    -0.234036769710E+04    0.10945E-04   -0.84388E-05  3002   0.722E-03    0.317E-02
RMM:   7    -0.234036768586E+04    0.11248E-04   -0.15627E-05  2924   0.367E-03    0.139E-02
RMM:   8    -0.234036768331E+04    0.25482E-05   -0.54047E-06  2870   0.263E-03
 150 F= -.23619704E+04 E0= -.23619704E+04  d E =-.357735E-02  mag=     2.0000
