       N       E                     dE             d eps       ncg     rms          rms(c)
DAV:   1     0.121005326868E+05    0.12101E+05   -0.81826E+05  4560   0.138E+03
DAV:   2    -0.121685673448E+04   -0.13317E+05   -0.12786E+05  5400   0.318E+02
DAV:   3    -0.248291671929E+04   -0.12661E+04   -0.12566E+04  5520   0.101E+02
DAV:   4    -0.250935252481E+04   -0.26436E+02   -0.26326E+02  5640   0.179E+01
DAV:   5    -0.251005422986E+04   -0.70171E+00   -0.70050E+00  5800   0.250E+00    0.170E+02
RMM:   6    -0.146961076391E+04    0.10404E+04   -0.18782E+03  4490   0.374E+01    0.726E+01
RMM:   7    -0.163238748122E+04   -0.16278E+03   -0.25935E+02  4971   0.134E+01    0.506E+01
RMM:   8    -0.168516064107E+04   -0.52773E+02   -0.50786E+01  5019   0.724E+00    0.369E+01
RMM:   9    -0.182353406978E+04   -0.13837E+03   -0.69402E+01  4756   0.832E+00    0.248E+01
RMM:  10    -0.196040376990E+04   -0.13687E+03   -0.52904E+01  4774   0.669E+00    0.164E+01
RMM:  11    -0.207812706279E+04   -0.11772E+03   -0.59827E+01  4578   0.572E+00    0.129E+01
RMM:  12    -0.225829779922E+04   -0.18017E+03   -0.18756E+02  4480   0.887E+00    0.608E+00
RMM:  13    -0.229075116285E+04   -0.32453E+02   -0.34683E+01  4563   0.441E+00    0.394E+00
RMM:  14    -0.229942206649E+04   -0.86709E+01   -0.10510E+01  4674   0.255E+00    0.630E+00
RMM:  15    -0.229990879076E+04   -0.48672E+00   -0.13764E+00  5126   0.112E+00    0.628E+00
RMM:  16    -0.229983786327E+04    0.70927E-01   -0.16030E-01  5943   0.209E-01    0.624E+00
RMM:  17    -0.230040093595E+04   -0.56307E+00   -0.31133E-01  4617   0.266E-01    0.576E+00
RMM:  18    -0.230169867263E+04   -0.12977E+01   -0.10477E+00  4576   0.555E-01    0.351E+00
RMM:  19    -0.230215814297E+04   -0.45947E+00   -0.34102E-01  4707   0.450E-01    0.315E+00
RMM:  20    -0.230233274651E+04   -0.17460E+00   -0.15757E-01  4863   0.288E-01    0.242E+00
RMM:  21    -0.230258868044E+04   -0.25593E+00   -0.25191E-01  4681   0.363E-01    0.120E+00
RMM:  22    -0.230271195457E+04   -0.12327E+00   -0.74380E-02  4937   0.252E-01    0.115E+00
RMM:  23    -0.230276620135E+04   -0.54247E-01   -0.36600E-02  4722   0.124E-01    0.750E-01
RMM:  24    -0.230279060611E+04   -0.24405E-01   -0.34749E-02  4865   0.119E-01    0.587E-01
RMM:  25    -0.230285485678E+04   -0.64251E-01   -0.16194E-02  4550   0.960E-02    0.151E-01
RMM:  26    -0.230287406508E+04   -0.19208E-01   -0.44348E-03  4859   0.569E-02    0.146E-01
RMM:  27    -0.230289331069E+04   -0.19246E-01   -0.35304E-03  4483   0.418E-02    0.113E-01
RMM:  28    -0.230290354519E+04   -0.10234E-01   -0.19659E-03  4619   0.333E-02    0.617E-02
RMM:  29    -0.230290964349E+04   -0.60983E-02   -0.15744E-03  4588   0.267E-02    0.286E-02
RMM:  30    -0.230291174242E+04   -0.20989E-02   -0.66554E-04  4301   0.210E-02    0.188E-02
RMM:  31    -0.230291223356E+04   -0.49114E-03   -0.20587E-04  4215   0.995E-03    0.115E-02
RMM:  32    -0.230291238221E+04   -0.14865E-03   -0.35532E-05  3412   0.588E-03    0.490E-03
RMM:  33    -0.230291244770E+04   -0.65486E-04   -0.14554E-05  3037   0.345E-03    0.411E-03
RMM:  34    -0.230291247473E+04   -0.27033E-04   -0.61150E-06  2936   0.271E-03    0.153E-03
RMM:  35    -0.230291248514E+04   -0.10408E-04   -0.32865E-06  2646   0.202E-03    0.142E-03
RMM:  36    -0.230291248840E+04   -0.32625E-05   -0.18722E-06  2457   0.157E-03
   1 F= -.23229172E+04 E0= -.23229172E+04  d E =-.225523E-10  mag=    -0.0001
       N       E                     dE             d eps       ncg     rms          rms(c)
DAV:   1    -0.230289130944E+04    0.21176E-01   -0.19799E+00  4400   0.625E-01    0.372E-01
RMM:   2    -0.230289106334E+04    0.24610E-03   -0.95775E-03  4052   0.390E-02    0.218E-01
RMM:   3    -0.230289095872E+04    0.10462E-03   -0.23352E-03  4873   0.187E-02    0.149E-01
RMM:   4    -0.230289066758E+04    0.29115E-03   -0.86356E-04  4282   0.120E-02    0.541E-02
RMM:   5    -0.230289065450E+04    0.13075E-04   -0.99151E-05  3005   0.539E-03    0.207E-02
RMM:   6    -0.230289065890E+04   -0.43979E-05   -0.19059E-05  2844   0.298E-03
   2 F= -.23228982E+04 E0= -.23228982E+04  d E =-.739546E-11  mag=    -0.0000
       N       E                     dE             d eps       ncg     rms          rms(c)
DAV:   1    -0.230291722825E+04   -0.26574E-01   -0.78838E+00  4520   0.124E+00    0.761E-01
RMM:   2    -0.230291566777E+04    0.15605E-02   -0.36723E-02  4289   0.818E-02    0.444E-01
RMM:   3    -0.230291509401E+04    0.57377E-03   -0.92382E-03  5353   0.397E-02    0.288E-01
RMM:   4    -0.230291400615E+04    0.10879E-02   -0.33150E-03  5058   0.231E-02    0.130E-01
RMM:   5    -0.230291398448E+04    0.21670E-04   -0.43390E-04  3712   0.999E-03    0.550E-02
RMM:   6    -0.230291400487E+04   -0.20387E-04   -0.15056E-04  3272   0.627E-03    0.285E-02
RMM:   7    -0.230291400398E+04    0.88551E-06   -0.29459E-05  2941   0.441E-03
   3 F= -.23229167E+04 E0= -.23229167E+04  d E =-.555601E-13  mag=    -0.0000
       N       E                     dE             d eps       ncg     rms          rms(c)
DAV:   1    -0.230290015006E+04    0.13855E-01   -0.36615E+00  4400   0.764E-01    0.502E-01
RMM:   2    -0.230289991871E+04    0.23135E-03   -0.15103E-02  4384   0.480E-02    0.299E-01
RMM:   3    -0.230289965474E+04    0.26397E-03   -0.34454E-03  5001   0.243E-02    0.207E-01
RMM:   4    -0.230289916581E+04    0.48894E-03   -0.14580E-03  4566   0.153E-02    0.769E-02
RMM:   5    -0.230289916278E+04    0.30263E-05   -0.15342E-04  3125   0.756E-03    0.328E-02
RMM:   6    -0.230289918180E+04   -0.19016E-04   -0.61558E-05  3002   0.425E-03    0.186E-02
RMM:   7    -0.230289918277E+04   -0.96869E-06   -0.21931E-05  2858   0.331E-03
   4 F= -.23229053E+04 E0= -.23229053E+04  d E =-.973320E-11  mag=    -0.0000
       N       E                     dE             d eps       ncg     rms          rms(c)
DAV:   1    -0.230290114012E+04   -0.19583E-02   -0.79821E+00  4480   0.125E+00    0.679E-01
RMM:   2    -0.230290048315E+04    0.65696E-03   -0.30585E-02  4180   0.785E-02    0.389E-01
RMM:   3    -0.230290007965E+04    0.40350E-03   -0.68926E-03  5245   0.347E-02    0.255E-01
RMM:   4    -0.230289933265E+04    0.74699E-03   -0.28865E-03  4920   0.215E-02    0.854E-02
RMM:   5    -0.230289928827E+04    0.44381E-04   -0.27469E-04  3278   0.833E-03    0.373E-02
RMM:   6    -0.230289929291E+04   -0.46367E-05   -0.53373E-05  2983   0.413E-03
   5 F= -.23229030E+04 E0= -.23229030E+04  d E =-.112784E-12  mag=    -0.0000
       N       E                     dE             d eps       ncg     rms          rms(c)
DAV:   1    -0.230293160035E+04   -0.32312E-01   -0.42470E+00  4480   0.862E-01    0.491E-01
RMM:   2    -0.230293154600E+04    0.54347E-04   -0.19824E-02  4088   0.621E-02    0.281E-01
RMM:   3    -0.230293088194E+04    0.66407E-03   -0.33977E-03  4831   0.266E-02    0.166E-01
RMM:   4    -0.230293060359E+04    0.27834E-03   -0.15821E-03  4785   0.152E-02    0.978E-02
RMM:   5    -0.230293051957E+04    0.84023E-04   -0.26151E-04  3454   0.801E-03    0.307E-02
RMM:   6    -0.230293054683E+04   -0.27264E-04   -0.63175E-05  3028   0.449E-03    0.186E-02
RMM:   7    -0.230293055230E+04   -0.54615E-05   -0.19194E-05  2842   0.319E-03
   6 F= -.23229341E+04 E0= -.23229341E+04  d E =-.308890E-11  mag=    -0.0000
       N       E                     dE             d eps       ncg     rms          rms(c)
DAV:   1    -0.230286361617E+04    0.66931E-01   -0.85487E+00  4400   0.131E+00    0.774E-01
RMM:   2    -0.230286294449E+04    0.67167E-03   -0.56099E-02  4237   0.928E-02    0.424E-01
RMM:   3    -0.230286048951E+04    0.24550E-02   -0.71352E-03  5225   0.405E-02    0.214E-01
RMM:   4    -0.230286055052E+04   -0.61017E-04   -0.29241E-03  4949   0.194E-02    0.174E-01
RMM:   5    -0.230286036169E+04    0.18883E-03   -0.71910E-04  4146   0.122E-02    0.638E-02
RMM:   6    -0.230286045111E+04   -0.89417E-04   -0.22197E-04  3396   0.662E-03    0.350E-02
RMM:   7    -0.230286045718E+04   -0.60714E-05   -0.47072E-05  2974   0.501E-03
   7 F= -.23228668E+04 E0= -.23228668E+04  d E =-.789021E-11  mag=    -0.0000
       N       E                     dE             d eps       ncg     rms          rms(c)
DAV:   1    -0.230292014035E+04   -0.59689E-01   -0.41679E+00  4480   0.775E-01    0.421E-01
RMM:   2    -0.230292213759E+04   -0.19972E-02   -0.32118E-02  4440   0.682E-02    0.260E-01
RMM:   3    -0.230292116181E+04    0.97578E-03   -0.31307E-03  4726   0.285E-02    0.139E-01
RMM:   4    -0.230292110974E+04    0.52073E-04   -0.15838E-03  4641   0.143E-02    0.899E-02
RMM:   5    -0.230292100354E+04    0.10619E-03   -0.29214E-04  3292   0.936E-03    0.275E-02
RMM:   6    -0.230292103031E+04   -0.26768E-04   -0.63156E-05  3058   0.414E-03    0.173E-02
RMM:   7    -0.230292103751E+04   -0.71966E-05   -0.13043E-05  2829   0.296E-03
   8 F= -.23229236E+04 E0= -.23229236E+04  d E =-.221935E-11  mag=     0.0000
       N       E                     dE             d eps       ncg     rms          rms(c)
DAV:   1    -0.230288530175E+04    0.35729E-01   -0.75645E+00  4480   0.813E-01    0.629E-01
RMM:   2    -0.230288421812E+04    0.10836E-02   -0.45045E-02  4687   0.690E-02    0.342E-01
RMM:   3    -0.230288347955E+04    0.73857E-03   -0.62231E-03  4438   0.361E-02    0.209E-01
RMM:   4    -0.230288336750E+04    0.11205E-03   -0.12962E-03  4550   0.131E-02    0.143E-01
RMM:   5    -0.230288320879E+04    0.15871E-03   -0.74597E-04  3807   0.120E-02    0.748E-02
RMM:   6    -0.230288315339E+04    0.55406E-04   -0.26824E-04  3701   0.672E-03    0.470E-02
RMM:   7    -0.230288317657E+04   -0.23186E-04   -0.80378E-05  3011   0.521E-03    0.161E-02
RMM:   8    -0.230288318301E+04   -0.64340E-05   -0.17573E-05  2795   0.287E-03
   9 F= -.23228907E+04 E0= -.23228907E+04  d E =-.872277E-12  mag=     0.0000
       N       E                     dE             d eps       ncg     rms          rms(c)
DAV:   1    -0.230291567234E+04   -0.32496E-01   -0.38421E+00  4480   0.559E-01    0.440E-01
RMM:   2    -0.230291561138E+04    0.60957E-04   -0.23507E-02  4405   0.480E-02    0.240E-01
RMM:   3    -0.230291505107E+04    0.56031E-03   -0.28547E-03  4355   0.245E-02    0.132E-01
RMM:   4    -0.230291508248E+04   -0.31406E-04   -0.51095E-04  3515   0.848E-03    0.768E-02
RMM:   5    -0.230291504426E+04    0.38214E-04   -0.33109E-04  3610   0.856E-03    0.454E-02
RMM:   6    -0.230291503438E+04    0.98860E-05   -0.84188E-05  2928   0.580E-03
  10 F= -.23229184E+04 E0= -.23229184E+04  d E =-.285772E-11  mag=     0.0000
       N       E                     dE             d eps       ncg     rms          rms(c)
DAV:   1    -0.230290608395E+04    0.89603E-02   -0.70840E+00  4400   0.770E-01    0.530E-01
RMM:   2    -0.230290506667E+04    0.10173E-02   -0.27736E-02  4534   0.502E-02    0.257E-01
RMM:   3    -0.230290428319E+04    0.78348E-03   -0.27772E-03  4468   0.260E-02    0.145E-01
RMM:   4    -0.230290425596E+04    0.27234E-04   -0.58792E-04  4191   0.944E-03    0.911E-02
RMM:   5    -0.230290422498E+04    0.30978E-04   -0.31400E-04  3352   0.858E-03    0.479E-02
RMM:   6    -0.230290420808E+04    0.16904E-04   -0.79861E-05  3077   0.473E-03    0.286E-02
RMM:   7    -0.230290421477E+04   -0.66954E-05   -0.24175E-05  2869   0.342E-03
  11 F= -.23229106E+04 E0= -.23229106E+04  d E =-.174890E-12  mag=     0.0000
       N       E                     dE             d eps       ncg     rms          rms(c)
DAV:   1    -0.230287575125E+04    0.28457E-01   -0.38105E+00  4480   0.544E-01    0.376E-01
RMM:   2    -0.230287627889E+04   -0.52764E-03   -0.19403E-02  4703   0.427E-02    0.212E-01
RMM:   3    -0.230287586754E+04    0.41135E-03   -0.17976E-03  3915   0.209E-02    0.130E-01
RMM:   4    -0.230287576969E+04    0.97848E-04   -0.73305E-04  4492   0.104E-02    0.769E-02
RMM:   5    -0.230287570485E+04    0.64840E-04   -0.16874E-04  3049   0.682E-03    0.241E-02
RMM:   6    -0.230287570571E+04   -0.85736E-06   -0.39311E-05  2915   0.351E-03
  12 F= -.23228828E+04 E0= -.23228828E+04  d E =-.547847E-11  mag=     0.0000
       N       E                     dE             d eps       ncg     rms          rms(c)
DAV:   1    -0.230294099210E+04   -0.65287E-01   -0.72565E+00  4480   0.853E-01    0.575E-01
RMM:   2    -0.230294091160E+04    0.80504E-04   -0.32641E-02  4862   0.635E-02    0.336E-01
RMM:   3    -0.230294058097E+04    0.33063E-03   -0.40028E-03  4317   0.305E-02    0.219E-01
RMM:   4    -0.230294008330E+04    0.49766E-03   -0.16822E-03  4966   0.155E-02    0.122E-01
RMM:   5    -0.230293994757E+04    0.13573E-03   -0.30983E-04  3311   0.875E-03    0.380E-02
RMM:   6    -0.230293996982E+04   -0.22251E-04   -0.87394E-05  3018   0.459E-03    0.235E-02
RMM:   7    -0.230293996900E+04    0.82047E-06   -0.18460E-05  2868   0.323E-03
  13 F= -.23229428E+04 E0= -.23229428E+04  d E =-.138792E-11  mag=     0.0000
       N       E                     dE             d eps       ncg     rms          rms(c)
DAV:   1    -0.230290774290E+04    0.32227E-01   -0.21725E+00  4560   0.520E-01    0.411E-01
RMM:   2    -0.230290643712E+04    0.13058E-02   -0.15112E-02  4560   0.453E-02    0.226E-01
RMM:   3    -0.230290613871E+04    0.29841E-03   -0.14736E-03  4073   0.194E-02    0.130E-01
RMM:   4    -0.230290607765E+04    0.61067E-04   -0.60259E-04  3899   0.983E-03    0.897E-02
RMM:   5    -0.230290599577E+04    0.81877E-04   -0.20117E-04  3245   0.703E-03    0.223E-02
RMM:   6    -0.230290599700E+04   -0.12319E-05   -0.34224E-05  2868   0.335E-03
  14 F= -.23229111E+04 E0= -.23229111E+04  d E =-.450807E-13  mag=     0.0000
       N       E                     dE             d eps       ncg     rms          rms(c)
DAV:   1    -0.230291101001E+04   -0.50142E-02   -0.12814E+00  4800   0.488E-01    0.527E-01
RMM:   2    -0.230290762993E+04    0.33801E-02   -0.13126E-02  4278   0.443E-02    0.295E-01
RMM:   3    -0.230290713983E+04    0.49010E-03   -0.16702E-03  4024   0.196E-02    0.162E-01
RMM:   4    -0.230290711929E+04    0.20534E-04   -0.94126E-04  3949   0.130E-02    0.894E-02
RMM:   5    -0.230290699676E+04    0.12253E-03   -0.32681E-04  3547   0.845E-03    0.448E-02
RMM:   6    -0.230290697421E+04    0.22553E-04   -0.48111E-05  2901   0.450E-03    0.159E-02
RMM:   7    -0.230290698040E+04   -0.61935E-05   -0.17338E-05  2740   0.256E-03
  15 F= -.23229114E+04 E0= -.23229114E+04  d E =-.498940E-12  mag=     0.0000
       N       E                     dE             d eps       ncg     rms          rms(c)
DAV:   1    -0.230288492130E+04    0.22053E-01   -0.61891E-01  4480   0.331E-01    0.335E-01
RMM:   2    -0.230288430653E+04    0.61477E-03   -0.25508E-03  3634   0.226E-02    0.186E-01
RMM:   3    -0.230288423897E+04    0.67558E-04   -0.10031E-03  3992   0.117E-02    0.101E-01
RMM:   4    -0.230288409481E+04    0.14416E-03   -0.36743E-04  3409   0.928E-03    0.401E-02
RMM:   5    -0.230288408007E+04    0.14745E-04   -0.44500E-05  2825   0.399E-03    0.144E-02
RMM:   6    -0.230288408438E+04   -0.43187E-05   -0.11259E-05  2634   0.215E-03
  16 F= -.23228886E+04 E0= -.23228886E+04  d E =-.372195E-13  mag=     0.0000
       N       E                     dE             d eps       ncg     rms          rms(c)
DAV:   1    -0.230293445413E+04   -0.50374E-01   -0.12387E+00  4880   0.475E-01    0.531E-01
RMM:   2    -0.230293162564E+04    0.28285E-02   -0.12750E-02  4486   0.464E-02    0.298E-01
RMM:   3    -0.230293112528E+04    0.50036E-03   -0.23196E-03  4655   0.212E-02    0.194E-01
RMM:   4    -0.230293084839E+04    0.27689E-03   -0.97324E-04  4008   0.131E-02    0.978E-02
RMM:   5    -0.230293070986E+04    0.13853E-03   -0.19602E-04  3486   0.688E-03    0.210E-02
RMM:   6    -0.230293070716E+04    0.27033E-05   -0.23427E-05  2794   0.315E-03
  17 F= -.23229358E+04 E0= -.23229358E+04  d E =-.639508E-12  mag=     0.0000
       N       E                     dE             d eps       ncg     rms          rms(c)
DAV:   1    -0.230290941305E+04    0.21297E-01   -0.65542E-01  4800   0.355E-01    0.431E-01
RMM:   2    -0.230290703204E+04    0.23810E-02   -0.10269E-02  4443   0.389E-02    0.235E-01
RMM:   3    -0.230290666377E+04    0.36828E-03   -0.14363E-03  4215   0.179E-02    0.145E-01
RMM:   4    -0.230290658407E+04    0.79697E-04   -0.63039E-04  3760   0.105E-02    0.875E-02
RMM:   5    -0.230290646747E+04    0.11660E-03   -0.19724E-04  3447   0.672E-03    0.235E-02
RMM:   6    -0.230290646116E+04    0.63129E-05   -0.23451E-05  2779   0.347E-03
  18 F= -.23229111E+04 E0= -.23229111E+04  d E =-.553831E-12  mag=     0.0000
       N       E                     dE             d eps       ncg     rms          rms(c)
DAV:   1    -0.230291005593E+04   -0.35885E-02   -0.12700E+00  4960   0.482E-01    0.486E-01
RMM:   2    -0.230290782602E+04    0.22299E-02   -0.13785E-02  4280   0.465E-02    0.265E-01
RMM:   3    -0.230290732440E+04    0.50162E-03   -0.15010E-03  4421   0.189E-02    0.142E-01
RMM:   4    -0.230290737029E+04   -0.45888E-04   -0.79040E-04  4165   0.117E-02    0.840E-02
RMM:   5    -0.230290725571E+04    0.11458E-03   -0.23220E-04  3475   0.687E-03    0.302E-02
RMM:   6    -0.230290724418E+04    0.11522E-04   -0.27367E-05  2836   0.372E-03    0.115E-02
RMM:   7    -0.230290724572E+04   -0.15389E-05   -0.89129E-06  2727   0.213E-03
  19 F= -.23229122E+04 E0= -.23229122E+04  d E =-.348570E-13  mag=     0.0000
       N       E                     dE             d eps       ncg     rms          rms(c)
DAV:   1    -0.230289364324E+04    0.13601E-01   -0.65115E-01  4920   0.373E-01    0.399E-01
RMM:   2    -0.230289160783E+04    0.20354E-02   -0.98075E-03  4228   0.385E-02    0.210E-01
RMM:   3    -0.230289134267E+04    0.26516E-03   -0.10083E-03  3987   0.165E-02    0.123E-01
RMM:   4    -0.230289134565E+04   -0.29815E-05   -0.50271E-04  3735   0.916E-03    0.812E-02
RMM:   5    -0.230289125367E+04    0.91976E-04   -0.17489E-04  3306   0.655E-03    0.237E-02
RMM:   6    -0.230289124928E+04    0.43958E-05   -0.25493E-05  2823   0.334E-03
  20 F= -.23228958E+04 E0= -.23228958E+04  d E =-.652655E-13  mag=     0.0000
       N       E                     dE             d eps       ncg     rms          rms(c)
DAV:   1    -0.230292660223E+04   -0.35349E-01   -0.12620E+00  4880   0.504E-01    0.523E-01
RMM:   2    -0.230292389389E+04    0.27083E-02   -0.13337E-02  4278   0.462E-02    0.289E-01
RMM:   3    -0.230292340748E+04    0.48641E-03   -0.17432E-03  4296   0.208E-02    0.167E-01
RMM:   4    -0.230292335261E+04    0.54870E-04   -0.10763E-03  4284   0.133E-02    0.101E-01
RMM:   5    -0.230292318335E+04    0.16926E-03   -0.21349E-04  3445   0.746E-03    0.202E-02
RMM:   6    -0.230292318142E+04    0.19278E-05   -0.24333E-05  2859   0.323E-03
  21 F= -.23229281E+04 E0= -.23229281E+04  d E =-.435218E-11  mag=     0.0000
       N       E                     dE             d eps       ncg     rms          rms(c)
DAV:   1    -0.230291856091E+04    0.46224E-02   -0.61182E-01  4480   0.347E-01    0.293E-01
RMM:   2    -0.230291826051E+04    0.30040E-03   -0.25196E-03  3708   0.227E-02    0.169E-01
RMM:   3    -0.230291819140E+04    0.69117E-04   -0.82799E-04  3995   0.114E-02    0.828E-02
RMM:   4    -0.230291814910E+04    0.42300E-04   -0.22520E-04  3231   0.791E-03    0.335E-02
RMM:   5    -0.230291813340E+04    0.15699E-04   -0.35895E-05  2890   0.354E-03    0.178E-02
RMM:   6    -0.230291813529E+04   -0.18900E-05   -0.99317E-06  2718   0.236E-03
  22 F= -.23229235E+04 E0= -.23229235E+04  d E =-.220955E-10  mag=     0.0000
       N       E                     dE             d eps       ncg     rms          rms(c)
DAV:   1    -0.230289675962E+04    0.21374E-01   -0.13116E+00  4920   0.510E-01    0.554E-01
RMM:   2    -0.230289308947E+04    0.36701E-02   -0.16408E-02  4402   0.512E-02    0.325E-01
RMM:   3    -0.230289263050E+04    0.45898E-03   -0.27168E-03  4632   0.234E-02    0.212E-01
RMM:   4    -0.230289241424E+04    0.21626E-03   -0.11318E-03  4015   0.145E-02    0.120E-01
RMM:   5    -0.230289221906E+04    0.19518E-03   -0.44161E-04  3859   0.937E-03    0.423E-02
RMM:   6    -0.230289220593E+04    0.13121E-04   -0.50747E-05  2989   0.474E-03    0.171E-02
RMM:   7    -0.230289221264E+04   -0.67083E-05   -0.16548E-05  2808   0.275E-03
  23 F= -.23228964E+04 E0= -.23228964E+04  d E =-.741644E-11  mag=     0.0000
       N       E                     dE             d eps       ncg     rms          rms(c)
DAV:   1    -0.230290314985E+04   -0.10944E-01   -0.63203E-01  4480   0.352E-01    0.263E-01
RMM:   2    -0.230290329323E+04   -0.14338E-03   -0.37882E-03  3785   0.245E-02    0.161E-01
RMM:   3    -0.230290327264E+04    0.20591E-04   -0.77698E-04  4467   0.105E-02    0.909E-02
RMM:   4    -0.230290318476E+04    0.87878E-04   -0.26840E-04  3295   0.820E-03    0.278E-02
RMM:   5    -0.230290317193E+04    0.12828E-04   -0.20979E-05  2814   0.328E-03    0.105E-02
RMM:   6    -0.230290317248E+04   -0.54584E-06   -0.72997E-06  2689   0.189E-03
  24 F= -.23229075E+04 E0= -.23229075E+04  d E =-.740113E-11  mag=     0.0000
       N       E                     dE             d eps       ncg     rms          rms(c)
DAV:   1    -0.230291360630E+04   -0.10434E-01   -0.12679E+00  4720   0.499E-01    0.481E-01
RMM:   2    -0.230291152772E+04    0.20786E-02   -0.13973E-02  4210   0.467E-02    0.264E-01
RMM:   3    -0.230291108670E+04    0.44102E-03   -0.16963E-03  4354   0.221E-02    0.152E-01
RMM:   4    -0.230291111029E+04   -0.23591E-04   -0.94017E-04  4013   0.126E-02    0.888E-02
RMM:   5    -0.230291097846E+04    0.13183E-03   -0.25152E-04  3545   0.747E-03    0.329E-02
RMM:   6    -0.230291096748E+04    0.10983E-04   -0.29531E-05  2872   0.379E-03    0.128E-02
RMM:   7    -0.230291097024E+04   -0.27655E-05   -0.87120E-06  2708   0.214E-03
  25 F= -.23229162E+04 E0= -.23229162E+04  d E =-.208462E-10  mag=     0.0000
