       N       E                     dE             d eps       ncg     rms          rms(c)
DAV:   1     0.120848682921E+05    0.12085E+05   -0.83111E+05  4640   0.140E+03
DAV:   2    -0.129936367412E+04   -0.13384E+05   -0.12880E+05  5200   0.318E+02
DAV:   3    -0.249465919389E+04   -0.11953E+04   -0.11862E+04  5600   0.101E+02
DAV:   4    -0.251943508551E+04   -0.24776E+02   -0.24668E+02  5600   0.174E+01
DAV:   5    -0.252011471225E+04   -0.67963E+00   -0.67850E+00  5920   0.252E+00    0.170E+02
RMM:   6    -0.147571081367E+04    0.10444E+04   -0.19064E+03  4496   0.376E+01    0.729E+01
RMM:   7    -0.164940269221E+04   -0.17369E+03   -0.26439E+02  5005   0.132E+01    0.500E+01
RMM:   8    -0.169839266498E+04   -0.48990E+02   -0.51616E+01  5079   0.734E+00    0.375E+01
RMM:   9    -0.183187967193E+04   -0.13349E+03   -0.70392E+01  4863   0.794E+00    0.371E+01
RMM:  10    -0.191435018350E+04   -0.82471E+02   -0.40721E+01  5081   0.594E+00    0.226E+01
RMM:  11    -0.203233793711E+04   -0.11799E+03   -0.48836E+01  4807   0.547E+00    0.191E+01
RMM:  12    -0.210399162286E+04   -0.71654E+02   -0.30728E+01  4818   0.429E+00    0.143E+01
RMM:  13    -0.222621380730E+04   -0.12222E+03   -0.94639E+01  4509   0.706E+00    0.135E+01
RMM:  14    -0.227679752976E+04   -0.50584E+02   -0.40526E+01  4547   0.477E+00    0.102E+01
RMM:  15    -0.229865428866E+04   -0.21857E+02   -0.20234E+01  4848   0.329E+00    0.722E+00
RMM:  16    -0.230800382257E+04   -0.93495E+01   -0.91740E+00  4724   0.217E+00    0.432E+00
RMM:  17    -0.230884619303E+04   -0.84237E+00   -0.12345E+00  5359   0.948E-01    0.316E+00
RMM:  18    -0.231177374173E+04   -0.29275E+01   -0.16714E+00  4516   0.673E-01    0.261E+00
RMM:  19    -0.231266414201E+04   -0.89040E+00   -0.50304E-01  4633   0.450E-01    0.136E+00
RMM:  20    -0.231309531591E+04   -0.43117E+00   -0.28712E-01  4789   0.301E-01    0.593E-01
RMM:  21    -0.231321269178E+04   -0.11738E+00   -0.11176E-01  4888   0.180E-01    0.371E-01
RMM:  22    -0.231325233082E+04   -0.39639E-01   -0.34543E-02  4748   0.107E-01    0.235E-01
RMM:  23    -0.231327355644E+04   -0.21226E-01   -0.10215E-02  4636   0.628E-02    0.158E-01
RMM:  24    -0.231329019310E+04   -0.16637E-01   -0.48276E-03  4527   0.479E-02    0.827E-02
RMM:  25    -0.231330037462E+04   -0.10182E-01   -0.30282E-03  4573   0.381E-02    0.512E-02
RMM:  26    -0.231330638635E+04   -0.60117E-02   -0.16135E-03  4675   0.306E-02    0.520E-02
RMM:  27    -0.231331007855E+04   -0.36922E-02   -0.10444E-03  4222   0.219E-02    0.284E-02
RMM:  28    -0.231331143306E+04   -0.13545E-02   -0.44725E-04  4211   0.169E-02    0.230E-02
RMM:  29    -0.231331177858E+04   -0.34553E-03   -0.11878E-04  3944   0.829E-03    0.979E-03
RMM:  30    -0.231331202889E+04   -0.25030E-03   -0.53240E-05  3593   0.608E-03    0.542E-03
RMM:  31    -0.231331209557E+04   -0.66680E-04   -0.14909E-05  3024   0.410E-03    0.304E-03
RMM:  32    -0.231331213966E+04   -0.44093E-04   -0.95895E-06  2947   0.300E-03    0.166E-03
RMM:  33    -0.231331215770E+04   -0.18039E-04   -0.54666E-06  2794   0.268E-03    0.984E-04
RMM:  34    -0.231331216370E+04   -0.60070E-05   -0.30233E-06  2488   0.195E-03
   1 F= -.23337632E+04 E0= -.23337631E+04  d E =-.135967E-03  mag=     4.9989
       N       E                     dE             d eps       ncg     rms          rms(c)
DAV:   1    -0.231330926527E+04    0.28924E-02   -0.21238E+00  4320   0.567E-01    0.267E-01
RMM:   2    -0.231330874334E+04    0.52193E-03   -0.93706E-03  3808   0.331E-02    0.162E-01
RMM:   3    -0.231330883951E+04   -0.96174E-04   -0.21745E-03  4703   0.182E-02    0.335E-01
RMM:   4    -0.231330815865E+04    0.68086E-03   -0.88085E-04  3783   0.104E-02    0.449E-02
RMM:   5    -0.231330817000E+04   -0.11359E-04   -0.13671E-04  2958   0.554E-03    0.265E-02
RMM:   6    -0.231330816961E+04    0.39554E-06   -0.20453E-05  2799   0.277E-03
   2 F= -.23337597E+04 E0= -.23337596E+04  d E =-.677754E-04  mag=     4.9993
       N       E                     dE             d eps       ncg     rms          rms(c)
DAV:   1    -0.231330281744E+04    0.53526E-02   -0.84622E+00  4480   0.114E+00    0.535E-01
RMM:   2    -0.231329970793E+04    0.31095E-02   -0.28685E-02  3975   0.628E-02    0.317E-01
RMM:   3    -0.231329985939E+04   -0.15146E-03   -0.81804E-03  5295   0.359E-02    0.602E-01
RMM:   4    -0.231329771026E+04    0.21491E-02   -0.31337E-03  4598   0.189E-02    0.106E-01
RMM:   5    -0.231329770922E+04    0.10430E-05   -0.41308E-04  3227   0.903E-03    0.489E-02
RMM:   6    -0.231329771379E+04   -0.45761E-05   -0.70543E-05  3071   0.478E-03
   3 F= -.23337484E+04 E0= -.23337483E+04  d E =-.267790E-03  mag=     4.9981
       N       E                     dE             d eps       ncg     rms          rms(c)
DAV:   1    -0.231329971585E+04   -0.20066E-02   -0.43402E+00  4640   0.896E-01    0.471E-01
RMM:   2    -0.231329748237E+04    0.22335E-02   -0.17157E-02  3872   0.518E-02    0.282E-01
RMM:   3    -0.231329791562E+04   -0.43325E-03   -0.60663E-03  5140   0.288E-02    0.537E-01
RMM:   4    -0.231329617089E+04    0.17447E-02   -0.26438E-03  4392   0.175E-02    0.102E-01
RMM:   5    -0.231329614050E+04    0.30390E-04   -0.24320E-04  3117   0.754E-03    0.465E-02
RMM:   6    -0.231329612890E+04    0.11599E-04   -0.62707E-05  2913   0.375E-03    0.419E-02
RMM:   7    -0.231329611893E+04    0.99760E-05   -0.16362E-05  2729   0.273E-03
   4 F= -.23337470E+04 E0= -.23337470E+04  d E =-.784995E-04  mag=     4.9990
       N       E                     dE             d eps       ncg     rms          rms(c)
DAV:   1    -0.231330176931E+04   -0.56404E-02   -0.85785E+00  4480   0.131E+00    0.678E-01
RMM:   2    -0.231329583764E+04    0.59317E-02   -0.30233E-02  3934   0.685E-02    0.371E-01
RMM:   3    -0.231329416892E+04    0.16687E-02   -0.11520E-02  4980   0.371E-02    0.355E-01
RMM:   4    -0.231329375412E+04    0.41480E-03   -0.30958E-03  4586   0.227E-02    0.277E-01
RMM:   5    -0.231329333699E+04    0.41713E-03   -0.41137E-04  3379   0.872E-03    0.511E-02
RMM:   6    -0.231329331971E+04    0.17274E-04   -0.91040E-05  3021   0.479E-03    0.386E-02
RMM:   7    -0.231329331003E+04    0.96794E-05   -0.29090E-05  2878   0.305E-03
   5 F= -.23337445E+04 E0= -.23337444E+04  d E =-.226946E-03  mag=     4.9983
       N       E                     dE             d eps       ncg     rms          rms(c)
DAV:   1    -0.231328580483E+04    0.75149E-02   -0.44666E+00  4480   0.909E-01    0.612E-01
RMM:   2    -0.231327867950E+04    0.71253E-02   -0.32193E-02  4074   0.664E-02    0.389E-01
RMM:   3    -0.231328025309E+04   -0.15736E-02   -0.85514E-03  4726   0.415E-02    0.788E-01
RMM:   4    -0.231327637297E+04    0.38801E-02   -0.38329E-03  4743   0.231E-02    0.109E-01
RMM:   5    -0.231327626470E+04    0.10827E-03   -0.10593E-03  3798   0.119E-02    0.418E-02
RMM:   6    -0.231327625443E+04    0.10271E-04   -0.10900E-04  3119   0.621E-03    0.192E-02
RMM:   7    -0.231327625216E+04    0.22715E-05   -0.18016E-05  2860   0.287E-03
   6 F= -.23337274E+04 E0= -.23337274E+04  d E =-.860766E-04  mag=     4.9990
       N       E                     dE             d eps       ncg     rms          rms(c)
DAV:   1    -0.231331981376E+04   -0.43559E-01   -0.89081E+00  4480   0.129E+00    0.856E-01
RMM:   2    -0.231330486314E+04    0.14951E-01   -0.70806E-02  4168   0.970E-02    0.675E-01
RMM:   3    -0.231330755180E+04   -0.26887E-02   -0.19607E-02  5232   0.578E-02    0.114E+00
RMM:   4    -0.231329928747E+04    0.82643E-02   -0.64022E-03  4846   0.305E-02    0.191E-01
RMM:   5    -0.231329897661E+04    0.31086E-03   -0.28978E-03  4071   0.185E-02    0.570E-02
RMM:   6    -0.231329895248E+04    0.24128E-04   -0.29188E-04  3416   0.934E-03    0.295E-02
RMM:   7    -0.231329895141E+04    0.10684E-05   -0.50145E-05  3100   0.406E-03
   7 F= -.23337499E+04 E0= -.23337498E+04  d E =-.205512E-03  mag=     4.9985
       N       E                     dE             d eps       ncg     rms          rms(c)
DAV:   1    -0.231331729600E+04   -0.18344E-01   -0.46461E+00  4480   0.865E-01    0.624E-01
RMM:   2    -0.231331108688E+04    0.62091E-02   -0.40979E-02  4049   0.648E-02    0.306E-01
RMM:   3    -0.231330950196E+04    0.15849E-02   -0.47048E-03  4318   0.358E-02    0.342E-01
RMM:   4    -0.231330922907E+04    0.27288E-03   -0.24091E-03  4412   0.175E-02    0.234E-01
RMM:   5    -0.231330881396E+04    0.41511E-03   -0.10084E-03  4165   0.123E-02    0.759E-02
RMM:   6    -0.231330878561E+04    0.28358E-04   -0.11755E-04  3122   0.684E-03    0.313E-02
RMM:   7    -0.231330878552E+04    0.85623E-07   -0.42156E-05  3042   0.362E-03
   8 F= -.23337606E+04 E0= -.23337605E+04  d E =-.350622E-04  mag=     4.9994
       N       E                     dE             d eps       ncg     rms          rms(c)
DAV:   1    -0.231329297428E+04    0.15811E-01   -0.85506E+00  4480   0.106E+00    0.688E-01
RMM:   2    -0.231329254053E+04    0.43375E-03   -0.43748E-02  4116   0.812E-02    0.687E-01
RMM:   3    -0.231329177970E+04    0.76083E-03   -0.97048E-03  4447   0.462E-02    0.611E-01
RMM:   4    -0.231328903077E+04    0.27489E-02   -0.64087E-03  4763   0.277E-02    0.291E-01
RMM:   5    -0.231328862009E+04    0.41068E-03   -0.10659E-03  3791   0.202E-02    0.573E-02
RMM:   6    -0.231328863565E+04   -0.15562E-04   -0.18907E-04  3427   0.628E-03    0.313E-02
RMM:   7    -0.231328864114E+04   -0.54886E-05   -0.36130E-05  3004   0.436E-03
   9 F= -.23337388E+04 E0= -.23337386E+04  d E =-.458071E-03  mag=     4.9971
       N       E                     dE             d eps       ncg     rms          rms(c)
DAV:   1    -0.231331606773E+04   -0.27432E-01   -0.41752E+00  4480   0.803E-01    0.425E-01
RMM:   2    -0.231331564227E+04    0.42546E-03   -0.16427E-02  3986   0.488E-02    0.379E-01
RMM:   3    -0.231331575901E+04   -0.11673E-03   -0.35669E-03  4591   0.240E-02    0.433E-01
RMM:   4    -0.231331454395E+04    0.12151E-02   -0.27583E-03  4281   0.170E-02    0.121E-01
RMM:   5    -0.231331450186E+04    0.42093E-04   -0.33387E-04  3260   0.107E-02    0.476E-02
RMM:   6    -0.231331450200E+04   -0.14006E-06   -0.67439E-05  3085   0.421E-03
  10 F= -.23337656E+04 E0= -.23337655E+04  d E =-.205913E-03  mag=     4.9978
       N       E                     dE             d eps       ncg     rms          rms(c)
DAV:   1    -0.231330268043E+04    0.11821E-01   -0.79035E+00  4480   0.976E-01    0.575E-01
RMM:   2    -0.231330057452E+04    0.21059E-02   -0.22075E-02  4096   0.574E-02    0.351E-01
RMM:   3    -0.231330321324E+04   -0.26387E-02   -0.86184E-03  4798   0.368E-02    0.775E-01
RMM:   4    -0.231329964712E+04    0.35661E-02   -0.29436E-03  4649   0.203E-02    0.129E-01
RMM:   5    -0.231329970643E+04   -0.59318E-04   -0.66926E-04  3369   0.932E-03    0.715E-02
RMM:   6    -0.231329972587E+04   -0.19435E-04   -0.14565E-04  3136   0.647E-03    0.333E-02
RMM:   7    -0.231329974019E+04   -0.14323E-04   -0.43191E-05  2985   0.426E-03    0.249E-02
RMM:   8    -0.231329974113E+04   -0.93234E-06   -0.13382E-05  2890   0.301E-03
  11 F= -.23337508E+04 E0= -.23337507E+04  d E =-.899851E-04  mag=     4.9990
       N       E                     dE             d eps       ncg     rms          rms(c)
DAV:   1    -0.231330550817E+04   -0.57680E-02   -0.43280E+00  4640   0.826E-01    0.534E-01
RMM:   2    -0.231330361935E+04    0.18888E-02   -0.24894E-02  4093   0.603E-02    0.519E-01
RMM:   3    -0.231330358417E+04    0.35182E-04   -0.68114E-03  4868   0.331E-02    0.567E-01
RMM:   4    -0.231330146000E+04    0.21242E-02   -0.37320E-03  4281   0.214E-02    0.125E-01
RMM:   5    -0.231330144098E+04    0.19025E-04   -0.66176E-04  3490   0.149E-02    0.765E-02
RMM:   6    -0.231330144321E+04   -0.22278E-05   -0.14948E-04  3218   0.599E-03    0.376E-02
RMM:   7    -0.231330145108E+04   -0.78731E-05   -0.42372E-05  2972   0.413E-03
  12 F= -.23337522E+04 E0= -.23337521E+04  d E =-.197810E-03  mag=     4.9984
       N       E                     dE             d eps       ncg     rms          rms(c)
DAV:   1    -0.231329144987E+04    0.99933E-02   -0.89274E+00  4480   0.123E+00    0.901E-01
RMM:   2    -0.231328428442E+04    0.71654E-02   -0.70928E-02  4323   0.100E-01    0.871E-01
RMM:   3    -0.231328390797E+04    0.37645E-03   -0.20726E-02  5257   0.596E-02    0.953E-01
RMM:   4    -0.231327737363E+04    0.65343E-02   -0.96698E-03  4863   0.349E-02    0.156E-01
RMM:   5    -0.231327723258E+04    0.14105E-03   -0.13545E-03  3854   0.204E-02    0.962E-02
RMM:   6    -0.231327724710E+04   -0.14518E-04   -0.25738E-04  3358   0.814E-03    0.406E-02
RMM:   7    -0.231327725414E+04   -0.70456E-05   -0.48461E-05  3057   0.539E-03
  13 F= -.23337285E+04 E0= -.23337285E+04  d E =-.872944E-04  mag=     4.9991
       N       E                     dE             d eps       ncg     rms          rms(c)
DAV:   1    -0.231331923965E+04   -0.41993E-01   -0.25443E+00  4720   0.667E-01    0.511E-01
RMM:   2    -0.231331611387E+04    0.31258E-02   -0.26920E-02  4012   0.598E-02    0.421E-01
RMM:   3    -0.231331680467E+04   -0.69080E-03   -0.65782E-03  4966   0.326E-02    0.594E-01
RMM:   4    -0.231331450619E+04    0.22985E-02   -0.30188E-03  4709   0.196E-02    0.115E-01
RMM:   5    -0.231331439935E+04    0.10684E-03   -0.40589E-04  3382   0.970E-03    0.435E-02
RMM:   6    -0.231331440921E+04   -0.98663E-05   -0.82914E-05  3073   0.508E-03
  14 F= -.23337656E+04 E0= -.23337656E+04  d E =-.915812E-04  mag=     4.9991
       N       E                     dE             d eps       ncg     rms          rms(c)
DAV:   1    -0.231330255441E+04    0.11845E-01   -0.12438E+00  4880   0.448E-01    0.476E-01
RMM:   2    -0.231330004920E+04    0.25052E-02   -0.12251E-02  3913   0.380E-02    0.271E-01
RMM:   3    -0.231330119437E+04   -0.11452E-02   -0.33844E-03  4634   0.221E-02    0.513E-01
RMM:   4    -0.231329944658E+04    0.17478E-02   -0.13178E-03  3991   0.134E-02    0.111E-01
RMM:   5    -0.231329948205E+04   -0.35470E-04   -0.35099E-04  3312   0.734E-03    0.985E-02
RMM:   6    -0.231329941721E+04    0.64840E-04   -0.85294E-05  2840   0.484E-03    0.221E-02
RMM:   7    -0.231329941537E+04    0.18439E-05   -0.10759E-05  2610   0.216E-03
  15 F= -.23337502E+04 E0= -.23337501E+04  d E =-.205740E-03  mag=     4.9985
       N       E                     dE             d eps       ncg     rms          rms(c)
DAV:   1    -0.231329507251E+04    0.43447E-02   -0.64084E-01  5040   0.310E-01    0.424E-01
RMM:   2    -0.231329208523E+04    0.29873E-02   -0.10508E-02  3867   0.359E-02    0.220E-01
RMM:   3    -0.231329231034E+04   -0.22511E-03   -0.19342E-03  4161   0.189E-02    0.336E-01
RMM:   4    -0.231329159198E+04    0.71836E-03   -0.91929E-04  3740   0.112E-02    0.129E-01
RMM:   5    -0.231329155172E+04    0.40261E-04   -0.20635E-04  3153   0.617E-03    0.876E-02
RMM:   6    -0.231329149897E+04    0.52751E-04   -0.71088E-05  2808   0.446E-03    0.164E-02
RMM:   7    -0.231329149812E+04    0.84385E-06   -0.75083E-06  2534   0.204E-03
  16 F= -.23337429E+04 E0= -.23337428E+04  d E =-.181886E-03  mag=     4.9985
       N       E                     dE             d eps       ncg     rms          rms(c)
DAV:   1    -0.231332335947E+04   -0.31861E-01   -0.12569E+00  4880   0.447E-01    0.493E-01
RMM:   2    -0.231332012010E+04    0.32394E-02   -0.12891E-02  3887   0.368E-02    0.261E-01
RMM:   3    -0.231331956947E+04    0.55064E-03   -0.16158E-03  3746   0.202E-02    0.130E-01
RMM:   4    -0.231332008574E+04   -0.51627E-03   -0.11260E-03  3860   0.125E-02    0.306E-01
RMM:   5    -0.231331951358E+04    0.57216E-03   -0.30960E-04  3130   0.880E-03    0.561E-02
RMM:   6    -0.231331949836E+04    0.15216E-04   -0.98789E-05  2882   0.380E-03    0.153E-02
RMM:   7    -0.231331949903E+04   -0.66851E-06   -0.78954E-06  2636   0.239E-03
  17 F= -.23337702E+04 E0= -.23337701E+04  d E =-.988571E-04  mag=     4.9990
       N       E                     dE             d eps       ncg     rms          rms(c)
DAV:   1    -0.231330886628E+04    0.10632E-01   -0.62724E-01  4800   0.296E-01    0.246E-01
RMM:   2    -0.231330876522E+04    0.10106E-03   -0.23085E-03  3563   0.179E-02    0.146E-01
RMM:   3    -0.231330876086E+04    0.43616E-05   -0.53466E-04  3598   0.886E-03    0.841E-02
RMM:   4    -0.231330880463E+04   -0.43763E-04   -0.26959E-04  2940   0.687E-03    0.125E-01
RMM:   5    -0.231330872352E+04    0.81110E-04   -0.50565E-05  2647   0.367E-03    0.260E-02
RMM:   6    -0.231330871927E+04    0.42458E-05   -0.14145E-05  2460   0.203E-03
  18 F= -.23337599E+04 E0= -.23337598E+04  d E =-.130293E-03  mag=     4.9990
       N       E                     dE             d eps       ncg     rms          rms(c)
DAV:   1    -0.231330873399E+04   -0.10479E-04   -0.12540E+00  4800   0.417E-01    0.409E-01
RMM:   2    -0.231330730252E+04    0.14315E-02   -0.80404E-03  3757   0.329E-02    0.225E-01
RMM:   3    -0.231330714852E+04    0.15400E-03   -0.15667E-03  3922   0.171E-02    0.193E-01
RMM:   4    -0.231330717823E+04   -0.29714E-04   -0.86904E-04  3832   0.108E-02    0.169E-01
RMM:   5    -0.231330700774E+04    0.17049E-03   -0.21750E-04  3260   0.681E-03    0.540E-02
RMM:   6    -0.231330699021E+04    0.17527E-04   -0.25089E-05  2810   0.332E-03    0.963E-03
RMM:   7    -0.231330699023E+04   -0.22090E-07   -0.58719E-06  2585   0.190E-03
  19 F= -.23337578E+04 E0= -.23337578E+04  d E =-.140848E-03  mag=     4.9989
       N       E                     dE             d eps       ncg     rms          rms(c)
DAV:   1    -0.231330920427E+04   -0.22141E-02   -0.62448E-01  4800   0.337E-01    0.295E-01
RMM:   2    -0.231330839755E+04    0.80672E-03   -0.49913E-03  3797   0.257E-02    0.169E-01
RMM:   3    -0.231330893139E+04   -0.53384E-03   -0.13221E-03  4045   0.144E-02    0.329E-01
RMM:   4    -0.231330824913E+04    0.68226E-03   -0.54042E-04  3396   0.889E-03    0.688E-02
RMM:   5    -0.231330827551E+04   -0.26386E-04   -0.14769E-04  3072   0.507E-03    0.609E-02
RMM:   6    -0.231330825225E+04    0.23267E-04   -0.32883E-05  2709   0.341E-03    0.136E-02
RMM:   7    -0.231330825195E+04    0.29802E-06   -0.39295E-06  2481   0.163E-03
  20 F= -.23337592E+04 E0= -.23337590E+04  d E =-.209142E-03  mag=     4.9985
       N       E                     dE             d eps       ncg     rms          rms(c)
DAV:   1    -0.231331352041E+04   -0.52682E-02   -0.12008E+00  4560   0.425E-01    0.379E-01
RMM:   2    -0.231331291222E+04    0.60819E-03   -0.71624E-03  4053   0.314E-02    0.256E-01
RMM:   3    -0.231331427939E+04   -0.13672E-02   -0.29994E-03  4861   0.200E-02    0.533E-01
RMM:   4    -0.231331259917E+04    0.16802E-02   -0.10396E-03  3723   0.123E-02    0.945E-02
RMM:   5    -0.231331264261E+04   -0.43443E-04   -0.37764E-04  3386   0.759E-03    0.759E-02
RMM:   6    -0.231331260433E+04    0.38278E-04   -0.47382E-05  2827   0.405E-03    0.169E-02
RMM:   7    -0.231331260364E+04    0.69468E-06   -0.70757E-06  2605   0.184E-03
  21 F= -.23337637E+04 E0= -.23337637E+04  d E =-.872395E-04  mag=     4.9990
       N       E                     dE             d eps       ncg     rms          rms(c)
DAV:   1    -0.231331479915E+04   -0.21948E-02   -0.63804E-01  4960   0.322E-01    0.392E-01
RMM:   2    -0.231331242123E+04    0.23779E-02   -0.96311E-03  3939   0.323E-02    0.202E-01
RMM:   3    -0.231331247792E+04   -0.56691E-04   -0.13985E-03  4032   0.165E-02    0.272E-01
RMM:   4    -0.231331206634E+04    0.41159E-03   -0.77256E-04  3554   0.984E-03    0.138E-01
RMM:   5    -0.231331201941E+04    0.46931E-04   -0.15994E-04  3116   0.577E-03    0.782E-02
RMM:   6    -0.231331198245E+04    0.36961E-04   -0.58490E-05  2756   0.413E-03    0.113E-02
RMM:   7    -0.231331198302E+04   -0.57106E-06   -0.76105E-06  2495   0.191E-03
  22 F= -.23337625E+04 E0= -.23337624E+04  d E =-.114990E-03  mag=     4.9991
       N       E                     dE             d eps       ncg     rms          rms(c)
DAV:   1    -0.231329857844E+04    0.13404E-01   -0.12579E+00  4960   0.429E-01    0.554E-01
RMM:   2    -0.231329386739E+04    0.47111E-02   -0.17860E-02  3922   0.475E-02    0.292E-01
RMM:   3    -0.231329330522E+04    0.56217E-03   -0.24217E-03  4024   0.253E-02    0.262E-01
RMM:   4    -0.231329346275E+04   -0.15753E-03   -0.16527E-03  4148   0.148E-02    0.265E-01
RMM:   5    -0.231329305649E+04    0.40626E-03   -0.63754E-04  3828   0.105E-02    0.116E-01
RMM:   6    -0.231329297308E+04    0.83406E-04   -0.73668E-05  2961   0.502E-03    0.142E-02
RMM:   7    -0.231329297400E+04   -0.91812E-06   -0.11683E-05  2631   0.222E-03
  23 F= -.23337445E+04 E0= -.23337445E+04  d E =-.158639E-03  mag=     4.9988
       N       E                     dE             d eps       ncg     rms          rms(c)
DAV:   1    -0.231331155996E+04   -0.18587E-01   -0.64465E-01  5040   0.337E-01    0.431E-01
RMM:   2    -0.231330836512E+04    0.31948E-02   -0.11763E-02  3902   0.374E-02    0.216E-01
RMM:   3    -0.231330787295E+04    0.49216E-03   -0.13882E-03  3869   0.175E-02    0.106E-01
RMM:   4    -0.231330782749E+04    0.45469E-04   -0.44869E-04  3475   0.803E-03    0.475E-02
RMM:   5    -0.231330788536E+04   -0.57874E-04   -0.17881E-04  2974   0.689E-03    0.105E-01
RMM:   6    -0.231330781525E+04    0.70107E-04   -0.57230E-05  2613   0.355E-03    0.168E-02
RMM:   7    -0.231330781478E+04    0.47589E-06   -0.59295E-06  2425   0.171E-03
  24 F= -.23337588E+04 E0= -.23337587E+04  d E =-.150639E-03  mag=     4.9988
       N       E                     dE             d eps       ncg     rms          rms(c)
DAV:   1    -0.231330906721E+04   -0.12520E-02   -0.12400E+00  4640   0.431E-01    0.441E-01
RMM:   2    -0.231330683037E+04    0.22368E-02   -0.10908E-02  3888   0.378E-02    0.232E-01
RMM:   3    -0.231330652294E+04    0.30743E-03   -0.15704E-03  3920   0.212E-02    0.140E-01
RMM:   4    -0.231330705018E+04   -0.52724E-03   -0.12481E-03  3967   0.130E-02    0.322E-01
RMM:   5    -0.231330644986E+04    0.60032E-03   -0.36131E-04  3193   0.932E-03    0.573E-02
RMM:   6    -0.231330643541E+04    0.14446E-04   -0.11145E-04  2887   0.404E-03    0.182E-02
RMM:   7    -0.231330643383E+04    0.15846E-05   -0.88086E-06  2601   0.229E-03
  25 F= -.23337575E+04 E0= -.23337574E+04  d E =-.123556E-03  mag=     4.9989
       N       E                     dE             d eps       ncg     rms          rms(c)
DAV:   1    -0.231330011661E+04    0.63188E-02   -0.61503E-01  4640   0.324E-01    0.312E-01
RMM:   2    -0.231329905679E+04    0.10598E-02   -0.66435E-03  3976   0.287E-02    0.167E-01
RMM:   3    -0.231329912002E+04   -0.63228E-04   -0.82050E-04  3589   0.146E-02    0.212E-01
RMM:   4    -0.231329892030E+04    0.19972E-03   -0.50588E-04  3474   0.840E-03    0.117E-01
RMM:   5    -0.231329886828E+04    0.52023E-04   -0.11743E-04  3154   0.539E-03    0.299E-02
RMM:   6    -0.231329886444E+04    0.38429E-05   -0.18845E-05  2643   0.336E-03
  26 F= -.23337507E+04 E0= -.23337506E+04  d E =-.138085E-03  mag=     4.9989
       N       E                     dE             d eps       ncg     rms          rms(c)
DAV:   1    -0.231331710760E+04   -0.18239E-01   -0.12453E+00  4800   0.414E-01    0.440E-01
RMM:   2    -0.231331540268E+04    0.17049E-02   -0.10389E-02  4264   0.322E-02    0.246E-01
RMM:   3    -0.231331511024E+04    0.29244E-03   -0.13449E-03  3824   0.174E-02    0.212E-01
RMM:   4    -0.231331528202E+04   -0.17178E-03   -0.10737E-03  3887   0.117E-02    0.247E-01
RMM:   5    -0.231331496103E+04    0.32099E-03   -0.49353E-04  3654   0.959E-03    0.706E-02
RMM:   6    -0.231331493038E+04    0.30658E-04   -0.40059E-05  2929   0.413E-03    0.156E-02
RMM:   7    -0.231331493041E+04   -0.32654E-07   -0.10343E-05  2678   0.221E-03
  27 F= -.23337651E+04 E0= -.23337651E+04  d E =-.134081E-03  mag=     4.9989
       N       E                     dE             d eps       ncg     rms          rms(c)
DAV:   1    -0.231331312715E+04    0.18032E-02   -0.62369E-01  4880   0.269E-01    0.347E-01
RMM:   2    -0.231331192175E+04    0.12054E-02   -0.63726E-03  4178   0.270E-02    0.202E-01
RMM:   3    -0.231331197116E+04   -0.49406E-04   -0.11575E-03  3893   0.149E-02    0.269E-01
RMM:   4    -0.231331162672E+04    0.34444E-03   -0.83290E-04  3646   0.105E-02    0.163E-01
RMM:   5    -0.231331150106E+04    0.12566E-03   -0.19060E-04  3323   0.654E-03    0.467E-02
RMM:   6    -0.231331148766E+04    0.13400E-04   -0.40371E-05  2798   0.400E-03    0.211E-02
RMM:   7    -0.231331148581E+04    0.18439E-05   -0.78627E-06  2548   0.205E-03
  28 F= -.23337628E+04 E0= -.23337627E+04  d E =-.112731E-03  mag=     4.9990
       N       E                     dE             d eps       ncg     rms          rms(c)
DAV:   1    -0.231330892686E+04    0.25608E-02   -0.12026E+00  4800   0.399E-01    0.409E-01
RMM:   2    -0.231330833370E+04    0.59316E-03   -0.59550E-03  4171   0.282E-02    0.325E-01
RMM:   3    -0.231330926258E+04   -0.92888E-03   -0.32337E-03  4785   0.191E-02    0.519E-01
RMM:   4    -0.231330762661E+04    0.16360E-02   -0.11838E-03  3913   0.137E-02    0.893E-02
RMM:   5    -0.231330759817E+04    0.28435E-04   -0.29645E-04  3363   0.817E-03    0.362E-02
RMM:   6    -0.231330759540E+04    0.27730E-05   -0.38536E-05  2965   0.411E-03
  29 F= -.23337584E+04 E0= -.23337583E+04  d E =-.172446E-03  mag=     4.9988
       N       E                     dE             d eps       ncg     rms          rms(c)
DAV:   1    -0.231329302718E+04    0.14571E-01   -0.61711E-01  4960   0.280E-01    0.391E-01
RMM:   2    -0.231329096346E+04    0.20637E-02   -0.10431E-02  4390   0.335E-02    0.214E-01
RMM:   3    -0.231329050327E+04    0.46019E-03   -0.10162E-03  3682   0.172E-02    0.143E-01
RMM:   4    -0.231329102056E+04   -0.51729E-03   -0.11769E-03  4005   0.120E-02    0.328E-01
RMM:   5    -0.231329036799E+04    0.65256E-03   -0.38842E-04  3278   0.868E-03    0.543E-02
RMM:   6    -0.231329035310E+04    0.14887E-04   -0.10484E-04  2930   0.404E-03    0.257E-02
RMM:   7    -0.231329034739E+04    0.57169E-05   -0.10044E-05  2601   0.237E-03
  30 F= -.23337418E+04 E0= -.23337418E+04  d E =-.133355E-03  mag=     4.9989
       N       E                     dE             d eps       ncg     rms          rms(c)
DAV:   1    -0.231332476251E+04   -0.34409E-01   -0.12755E+00  4960   0.408E-01    0.565E-01
RMM:   2    -0.231332031159E+04    0.44509E-02   -0.22127E-02  4512   0.449E-02    0.334E-01
RMM:   3    -0.231332019507E+04    0.11653E-03   -0.36752E-03  4152   0.290E-02    0.446E-01
RMM:   4    -0.231331940943E+04    0.78564E-03   -0.19078E-03  4114   0.157E-02    0.214E-01
RMM:   5    -0.231331917547E+04    0.23396E-03   -0.68296E-04  3827   0.108E-02    0.104E-01
RMM:   6    -0.231331911382E+04    0.61657E-04   -0.10334E-04  3050   0.629E-03    0.198E-02
RMM:   7    -0.231331911191E+04    0.19052E-05   -0.19052E-05  2873   0.266E-03
  31 F= -.23337697E+04 E0= -.23337696E+04  d E =-.136427E-03  mag=     4.9989
