       N       E                     dE             d eps       ncg     rms          rms(c)
DAV:   1     0.121091207955E+05    0.12109E+05   -0.82063E+05  4560   0.139E+03
DAV:   2    -0.124135439750E+04   -0.13350E+05   -0.12831E+05  5440   0.319E+02
DAV:   3    -0.249056826922E+04   -0.12492E+04   -0.12401E+04  5520   0.101E+02
DAV:   4    -0.251645672861E+04   -0.25888E+02   -0.25780E+02  5680   0.177E+01
DAV:   5    -0.251714323494E+04   -0.68651E+00   -0.68534E+00  5720   0.248E+00    0.171E+02
RMM:   6    -0.146446026720E+04    0.10527E+04   -0.18893E+03  4486   0.374E+01    0.723E+01
RMM:   7    -0.163349199157E+04   -0.16903E+03   -0.24988E+02  4972   0.130E+01    0.499E+01
RMM:   8    -0.169028377192E+04   -0.56792E+02   -0.52251E+01  4999   0.709E+00    0.370E+01
RMM:   9    -0.182309173667E+04   -0.13281E+03   -0.62000E+01  4616   0.782E+00    0.251E+01
RMM:  10    -0.197116771205E+04   -0.14808E+03   -0.58462E+01  4664   0.699E+00    0.165E+01
RMM:  11    -0.209587246836E+04   -0.12470E+03   -0.67234E+01  4510   0.606E+00    0.127E+01
RMM:  12    -0.224487589644E+04   -0.14900E+03   -0.13652E+02  4496   0.805E+00    0.665E+00
RMM:  13    -0.229745403258E+04   -0.52578E+02   -0.50517E+01  4538   0.508E+00    0.379E+00
RMM:  14    -0.230992565715E+04   -0.12472E+02   -0.14396E+01  4809   0.307E+00    0.217E+00
RMM:  15    -0.231322050846E+04   -0.32949E+01   -0.39918E+00  4968   0.144E+00    0.726E+00
RMM:  16    -0.231330378529E+04   -0.83277E-01   -0.49655E-01  5644   0.493E-01    0.671E+00
RMM:  17    -0.231329953834E+04    0.42469E-02   -0.10743E-01  5934   0.122E-01    0.665E+00
RMM:  18    -0.231292100650E+04    0.37853E+00   -0.13227E+00  4637   0.415E-01    0.408E+00
RMM:  19    -0.231286046979E+04    0.60537E-01   -0.87058E-01  4558   0.494E-01    0.269E+00
RMM:  20    -0.231403279164E+04   -0.11723E+01   -0.50667E-01  4497   0.397E-01    0.482E+00
RMM:  21    -0.231399640447E+04    0.36387E-01   -0.88375E-02  5071   0.188E-01    0.406E+00
RMM:  22    -0.231398112303E+04    0.15281E-01   -0.10882E-01  4643   0.163E-01    0.299E+00
RMM:  23    -0.231403787526E+04   -0.56752E-01   -0.32655E-02  4749   0.985E-02    0.243E+00
RMM:  24    -0.231415173510E+04   -0.11386E+00   -0.42817E-02  4594   0.871E-02    0.206E+00
RMM:  25    -0.231442720303E+04   -0.27547E+00   -0.24327E-01  4480   0.206E-01    0.133E+00
RMM:  26    -0.231458670086E+04   -0.15950E+00   -0.22741E-01  4566   0.211E-01    0.971E-01
RMM:  27    -0.231463202385E+04   -0.45323E-01   -0.67594E-02  4575   0.152E-01    0.697E-01
RMM:  28    -0.231465600103E+04   -0.23977E-01   -0.45743E-02  4607   0.131E-01    0.911E-01
RMM:  29    -0.231466201960E+04   -0.60186E-02   -0.88637E-03  4988   0.658E-02    0.911E-01
RMM:  30    -0.231467540542E+04   -0.13386E-01   -0.99145E-03  4550   0.500E-02    0.396E-01
RMM:  31    -0.231468202998E+04   -0.66246E-02   -0.49508E-03  4617   0.493E-02    0.464E-01
RMM:  32    -0.231469007233E+04   -0.80423E-02   -0.26258E-03  4709   0.339E-02    0.301E-01
RMM:  33    -0.231469410161E+04   -0.40293E-02   -0.16915E-03  4374   0.240E-02    0.172E-01
RMM:  34    -0.231469643303E+04   -0.23314E-02   -0.61194E-04  4415   0.183E-02    0.107E-01
RMM:  35    -0.231469885906E+04   -0.24260E-02   -0.75423E-04  4310   0.171E-02    0.431E-02
RMM:  36    -0.231469934786E+04   -0.48881E-03   -0.17328E-04  3806   0.128E-02    0.224E-02
RMM:  37    -0.231469956703E+04   -0.21917E-03   -0.76975E-05  3578   0.583E-03    0.172E-02
RMM:  38    -0.231469962758E+04   -0.60545E-04   -0.15097E-05  3032   0.517E-03    0.182E-02
RMM:  39    -0.231469965965E+04   -0.32072E-04   -0.96917E-06  2971   0.274E-03    0.192E-02
RMM:  40    -0.231469967420E+04   -0.14552E-04   -0.38963E-06  2922   0.238E-03    0.162E-02
RMM:  41    -0.231469967831E+04   -0.41087E-05   -0.24708E-06  2534   0.153E-03
   1 F= -.23348362E+04 E0= -.23348362E+04  d E =-.236417E-14  mag=     0.9993
       N       E                     dE             d eps       ncg     rms          rms(c)
DAV:   1    -0.231468216807E+04    0.17506E-01   -0.21452E+00  4400   0.636E-01    0.318E-01
RMM:   2    -0.231468085819E+04    0.13099E-02   -0.11887E-02  3808   0.398E-02    0.174E-01
RMM:   3    -0.231468018209E+04    0.67610E-03   -0.31017E-03  4329   0.193E-02    0.381E-02
RMM:   4    -0.231468016887E+04    0.13227E-04   -0.24825E-04  3374   0.966E-03    0.253E-02
RMM:   5    -0.231468015892E+04    0.99481E-05   -0.27396E-05  2725   0.310E-03
   2 F= -.23348183E+04 E0= -.23348183E+04  d E =-.206425E-18  mag=     0.9997
       N       E                     dE             d eps       ncg     rms          rms(c)
DAV:   1    -0.231469558676E+04   -0.15418E-01   -0.84674E+00  4400   0.127E+00    0.613E-01
RMM:   2    -0.231469017581E+04    0.54109E-02   -0.39936E-02  3992   0.799E-02    0.345E-01
RMM:   3    -0.231468749175E+04    0.26841E-02   -0.12852E-02  4641   0.387E-02    0.611E-02
RMM:   4    -0.231468743059E+04    0.61164E-04   -0.93035E-04  3885   0.197E-02    0.356E-02
RMM:   5    -0.231468741230E+04    0.18293E-04   -0.75271E-05  3248   0.428E-03    0.225E-02
RMM:   6    -0.231468740704E+04    0.52522E-05   -0.41598E-05  3024   0.356E-03
   3 F= -.23348224E+04 E0= -.23348224E+04  d E =-.278737E-18  mag=     0.9999
       N       E                     dE             d eps       ncg     rms          rms(c)
DAV:   1    -0.231468030404E+04    0.71083E-02   -0.43077E+00  4480   0.965E-01    0.437E-01
RMM:   2    -0.231467824635E+04    0.20577E-02   -0.19627E-02  3864   0.587E-02    0.249E-01
RMM:   3    -0.231467708899E+04    0.11574E-02   -0.66224E-03  4474   0.272E-02    0.469E-02
RMM:   4    -0.231467702536E+04    0.63631E-04   -0.48717E-04  3530   0.153E-02    0.298E-02
RMM:   5    -0.231467701010E+04    0.15254E-04   -0.50792E-05  2943   0.365E-03    0.167E-02
RMM:   6    -0.231467700474E+04    0.53631E-05   -0.20069E-05  2807   0.250E-03
   4 F= -.23348135E+04 E0= -.23348135E+04  d E =-.964481E-18  mag=     1.0000
       N       E                     dE             d eps       ncg     rms          rms(c)
DAV:   1    -0.231468389861E+04   -0.68885E-02   -0.87055E+00  4480   0.137E+00    0.617E-01
RMM:   2    -0.231468070552E+04    0.31931E-02   -0.36988E-02  3957   0.839E-02    0.369E-01
RMM:   3    -0.231467871468E+04    0.19908E-02   -0.16209E-02  4505   0.407E-02    0.594E-02
RMM:   4    -0.231467838221E+04    0.33247E-03   -0.89336E-04  3896   0.222E-02    0.326E-02
RMM:   5    -0.231467835145E+04    0.30767E-04   -0.93463E-05  3298   0.450E-03    0.194E-02
RMM:   6    -0.231467834916E+04    0.22867E-05   -0.24145E-05  2912   0.308E-03
   5 F= -.23348149E+04 E0= -.23348149E+04  d E =-.407038E-14  mag=     1.0000
       N       E                     dE             d eps       ncg     rms          rms(c)
DAV:   1    -0.231469007679E+04   -0.11725E-01   -0.42208E+00  4400   0.919E-01    0.405E-01
RMM:   2    -0.231468885392E+04    0.12229E-02   -0.17631E-02  3825   0.538E-02    0.238E-01
RMM:   3    -0.231468779212E+04    0.10618E-02   -0.48894E-03  4590   0.243E-02    0.722E-02
RMM:   4    -0.231468772910E+04    0.63024E-04   -0.50832E-04  3755   0.123E-02    0.350E-02
RMM:   5    -0.231468770177E+04    0.27325E-04   -0.45266E-05  2975   0.385E-03    0.162E-02
RMM:   6    -0.231468769835E+04    0.34224E-05   -0.23774E-05  2771   0.247E-03
   6 F= -.23348232E+04 E0= -.23348232E+04  d E =-.812691E-15  mag=     1.0000
       N       E                     dE             d eps       ncg     rms          rms(c)
DAV:   1    -0.231468977003E+04   -0.20683E-02   -0.81817E+00  4480   0.117E+00    0.544E-01
RMM:   2    -0.231468850754E+04    0.12625E-02   -0.37209E-02  3924   0.762E-02    0.306E-01
RMM:   3    -0.231468669186E+04    0.18157E-02   -0.66628E-03  4806   0.332E-02    0.120E-01
RMM:   4    -0.231468658931E+04    0.10255E-03   -0.11340E-03  4072   0.149E-02    0.486E-02
RMM:   5    -0.231468655921E+04    0.30101E-04   -0.14076E-04  3150   0.588E-03    0.234E-02
RMM:   6    -0.231468655492E+04    0.42960E-05   -0.36675E-05  2984   0.304E-03
   7 F= -.23348241E+04 E0= -.23348241E+04  d E =-.286920E-13  mag=     1.0000
       N       E                     dE             d eps       ncg     rms          rms(c)
DAV:   1    -0.231468304712E+04    0.35121E-02   -0.42741E+00  4400   0.907E-01    0.407E-01
RMM:   2    -0.231468441772E+04   -0.13706E-02   -0.37897E-02  4141   0.773E-02    0.291E-01
RMM:   3    -0.231468269815E+04    0.17196E-02   -0.29810E-03  4626   0.262E-02    0.163E-01
RMM:   4    -0.231468242398E+04    0.27417E-03   -0.22802E-03  4129   0.160E-02    0.301E-02
RMM:   5    -0.231468238592E+04    0.38054E-04   -0.19975E-04  3204   0.139E-02    0.180E-02
RMM:   6    -0.231468238022E+04    0.57010E-05   -0.69157E-05  3293   0.323E-03
   8 F= -.23348181E+04 E0= -.23348181E+04  d E =-.255461E-13  mag=     1.0000
       N       E                     dE             d eps       ncg     rms          rms(c)
DAV:   1    -0.231467806533E+04    0.43206E-02   -0.81694E+00  4480   0.118E+00    0.664E-01
RMM:   2    -0.231468139634E+04   -0.33310E-02   -0.72520E-02  4442   0.103E-01    0.497E-01
RMM:   3    -0.231467752421E+04    0.38721E-02   -0.67992E-03  5001   0.369E-02    0.263E-01
RMM:   4    -0.231467694213E+04    0.58209E-03   -0.36730E-03  4636   0.204E-02    0.531E-02
RMM:   5    -0.231467693780E+04    0.43311E-05   -0.27876E-04  3278   0.127E-02    0.308E-02
RMM:   6    -0.231467692357E+04    0.14223E-04   -0.90386E-05  3312   0.406E-03    0.138E-02
RMM:   7    -0.231467692492E+04   -0.13475E-05   -0.13813E-05  2922   0.306E-03
   9 F= -.23348144E+04 E0= -.23348144E+04  d E =-.921359E-14  mag=     1.0000
       N       E                     dE             d eps       ncg     rms          rms(c)
DAV:   1    -0.231469961975E+04   -0.22696E-01   -0.40183E+00  4480   0.745E-01    0.466E-01
RMM:   2    -0.231469973916E+04   -0.11942E-03   -0.26920E-02  4256   0.607E-02    0.274E-01
RMM:   3    -0.231469873976E+04    0.99941E-03   -0.31690E-03  4726   0.234E-02    0.165E-01
RMM:   4    -0.231469844974E+04    0.29002E-03   -0.85971E-04  4377   0.114E-02    0.605E-02
RMM:   5    -0.231469844441E+04    0.53324E-05   -0.15473E-04  3108   0.665E-03    0.265E-02
RMM:   6    -0.231469844854E+04   -0.41342E-05   -0.20501E-05  2905   0.308E-03
  10 F= -.23348348E+04 E0= -.23348348E+04  d E =-.340588E-13  mag=     1.0000
       N       E                     dE             d eps       ncg     rms          rms(c)
DAV:   1    -0.231470049921E+04   -0.20548E-02   -0.77267E+00  4440   0.956E-01    0.642E-01
RMM:   2    -0.231469746298E+04    0.30362E-02   -0.26533E-02  4255   0.620E-02    0.269E-01
RMM:   3    -0.231469696410E+04    0.49889E-03   -0.27228E-03  4364   0.317E-02    0.135E-01
RMM:   4    -0.231469706261E+04   -0.98512E-04   -0.62314E-04  3774   0.114E-02    0.838E-02
RMM:   5    -0.231469705401E+04    0.85964E-05   -0.14390E-04  3329   0.675E-03    0.393E-02
RMM:   6    -0.231469705300E+04    0.10097E-05   -0.49290E-05  3039   0.432E-03
  11 F= -.23348337E+04 E0= -.23348337E+04  d E =-.118499E-13  mag=     1.0000
       N       E                     dE             d eps       ncg     rms          rms(c)
DAV:   1    -0.231468998875E+04    0.70653E-02   -0.39244E+00  4400   0.776E-01    0.431E-01
RMM:   2    -0.231469022657E+04   -0.23783E-03   -0.23560E-02  4204   0.564E-02    0.216E-01
RMM:   3    -0.231468933256E+04    0.89401E-03   -0.20376E-03  4603   0.244E-02    0.994E-02
RMM:   4    -0.231468938883E+04   -0.56272E-04   -0.42489E-04  3828   0.931E-03    0.478E-02
RMM:   5    -0.231468937999E+04    0.88472E-05   -0.77819E-05  3133   0.635E-03
  12 F= -.23348256E+04 E0= -.23348256E+04  d E =-.441887E-14  mag=     1.0000
       N       E                     dE             d eps       ncg     rms          rms(c)
DAV:   1    -0.231468740312E+04    0.19857E-02   -0.78401E+00  4400   0.115E+00    0.568E-01
RMM:   2    -0.231469094386E+04   -0.35407E-02   -0.63902E-02  4247   0.922E-02    0.332E-01
RMM:   3    -0.231468834999E+04    0.25939E-02   -0.50854E-03  5065   0.341E-02    0.168E-01
RMM:   4    -0.231468830320E+04    0.46789E-04   -0.16160E-03  4618   0.161E-02    0.707E-02
RMM:   5    -0.231468821244E+04    0.90762E-04   -0.22451E-04  3407   0.906E-03    0.294E-02
RMM:   6    -0.231468819888E+04    0.13557E-04   -0.55072E-05  3149   0.397E-03    0.140E-02
RMM:   7    -0.231468819449E+04    0.43868E-05   -0.15448E-05  2974   0.329E-03
  13 F= -.23348254E+04 E0= -.23348254E+04  d E =-.138305E-12  mag=     1.0000
       N       E                     dE             d eps       ncg     rms          rms(c)
DAV:   1    -0.231469712543E+04   -0.89266E-02   -0.22920E+00  4400   0.673E-01    0.321E-01
RMM:   2    -0.231469839140E+04   -0.12660E-02   -0.20801E-02  4123   0.522E-02    0.190E-01
RMM:   3    -0.231469771900E+04    0.67240E-03   -0.16615E-03  4529   0.196E-02    0.811E-02
RMM:   4    -0.231469777673E+04   -0.57733E-04   -0.40078E-04  3758   0.909E-03    0.269E-02
RMM:   5    -0.231469776658E+04    0.10156E-04   -0.53973E-05  3011   0.551E-03    0.151E-02
RMM:   6    -0.231469776340E+04    0.31767E-05   -0.16339E-05  2811   0.256E-03
  14 F= -.23348341E+04 E0= -.23348341E+04  d E =-.293629E-13  mag=     1.0000
       N       E                     dE             d eps       ncg     rms          rms(c)
DAV:   1    -0.231469730358E+04    0.46299E-03   -0.12332E+00  4480   0.449E-01    0.336E-01
RMM:   2    -0.231469763337E+04   -0.32978E-03   -0.79298E-03  3688   0.323E-02    0.202E-01
RMM:   3    -0.231469761929E+04    0.14077E-04   -0.12860E-03  3985   0.134E-02    0.546E-02
RMM:   4    -0.231469757668E+04    0.42611E-04   -0.20537E-04  3238   0.875E-03    0.225E-02
RMM:   5    -0.231469756691E+04    0.97715E-05   -0.21298E-05  2708   0.275E-03
  15 F= -.23348341E+04 E0= -.23348341E+04  d E =-.378734E-13  mag=     1.0000
       N       E                     dE             d eps       ncg     rms          rms(c)
DAV:   1    -0.231468864037E+04    0.89363E-02   -0.62201E-01  4840   0.316E-01    0.286E-01
RMM:   2    -0.231468810139E+04    0.53898E-03   -0.59501E-03  3603   0.283E-02    0.162E-01
RMM:   3    -0.231468797410E+04    0.12728E-03   -0.12270E-03  3895   0.116E-02    0.564E-02
RMM:   4    -0.231468794120E+04    0.32905E-04   -0.17725E-04  3266   0.767E-03    0.311E-02
RMM:   5    -0.231468792348E+04    0.17717E-04   -0.36779E-05  2871   0.309E-03    0.718E-03
RMM:   6    -0.231468792338E+04    0.10703E-06   -0.35923E-06  2401   0.184E-03
  16 F= -.23348249E+04 E0= -.23348249E+04  d E =-.423244E-13  mag=     1.0000
       N       E                     dE             d eps       ncg     rms          rms(c)
DAV:   1    -0.231469437401E+04   -0.64505E-02   -0.13091E+00  5120   0.467E-01    0.557E-01
RMM:   2    -0.231469017131E+04    0.42027E-02   -0.21241E-02  3892   0.548E-02    0.300E-01
RMM:   3    -0.231468942583E+04    0.74548E-03   -0.45666E-03  4509   0.290E-02    0.143E-01
RMM:   4    -0.231468919578E+04    0.23004E-03   -0.99435E-04  4171   0.132E-02    0.675E-02
RMM:   5    -0.231468911132E+04    0.84463E-04   -0.17136E-04  3514   0.627E-03    0.158E-02
RMM:   6    -0.231468911088E+04    0.44434E-06   -0.17427E-05  2790   0.313E-03
  17 F= -.23348251E+04 E0= -.23348251E+04  d E =-.367906E-13  mag=     1.0000
       N       E                     dE             d eps       ncg     rms          rms(c)
DAV:   1    -0.231469499213E+04   -0.58808E-02   -0.62699E-01  4480   0.317E-01    0.268E-01
RMM:   2    -0.231469491252E+04    0.79607E-04   -0.46620E-03  3622   0.251E-02    0.158E-01
RMM:   3    -0.231469482179E+04    0.90725E-04   -0.88253E-04  4190   0.115E-02    0.603E-02
RMM:   4    -0.231469478077E+04    0.41020E-04   -0.16174E-04  3275   0.647E-03    0.227E-02
RMM:   5    -0.231469477151E+04    0.92653E-05   -0.21720E-05  2785   0.282E-03
  18 F= -.23348310E+04 E0= -.23348310E+04  d E =-.102491E-12  mag=     1.0000
       N       E                     dE             d eps       ncg     rms          rms(c)
DAV:   1    -0.231469721594E+04   -0.24352E-02   -0.12425E+00  4720   0.460E-01    0.431E-01
RMM:   2    -0.231469600891E+04    0.12070E-02   -0.12528E-02  3698   0.392E-02    0.241E-01
RMM:   3    -0.231469548235E+04    0.52656E-03   -0.23928E-03  4591   0.171E-02    0.718E-02
RMM:   4    -0.231469545248E+04    0.29865E-04   -0.31172E-04  3414   0.932E-03    0.440E-02
RMM:   5    -0.231469541552E+04    0.36959E-04   -0.67060E-05  3047   0.419E-03    0.103E-02
RMM:   6    -0.231469541541E+04    0.11169E-06   -0.82413E-06  2606   0.225E-03
  19 F= -.23348321E+04 E0= -.23348321E+04  d E =-.171389E-13  mag=     1.0000
       N       E                     dE             d eps       ncg     rms          rms(c)
DAV:   1    -0.231468803783E+04    0.73777E-02   -0.60824E-01  4840   0.349E-01    0.337E-01
RMM:   2    -0.231468742555E+04    0.61229E-03   -0.77335E-03  3579   0.331E-02    0.198E-01
RMM:   3    -0.231468701399E+04    0.41156E-03   -0.14734E-03  4130   0.147E-02    0.377E-02
RMM:   4    -0.231468699388E+04    0.20107E-04   -0.10222E-04  3037   0.620E-03    0.221E-02
RMM:   5    -0.231468698454E+04    0.93436E-05   -0.21780E-05  2647   0.269E-03
  20 F= -.23348238E+04 E0= -.23348238E+04  d E =-.281712E-13  mag=     1.0000
       N       E                     dE             d eps       ncg     rms          rms(c)
DAV:   1    -0.231469336309E+04   -0.63692E-02   -0.12547E+00  4840   0.440E-01    0.602E-01
RMM:   2    -0.231468783373E+04    0.55294E-02   -0.24729E-02  3803   0.533E-02    0.311E-01
RMM:   3    -0.231468677649E+04    0.10572E-02   -0.53430E-03  4555   0.268E-02    0.121E-01
RMM:   4    -0.231468659918E+04    0.17730E-03   -0.75102E-04  4018   0.122E-02    0.729E-02
RMM:   5    -0.231468650012E+04    0.99060E-04   -0.17583E-04  3446   0.627E-03    0.159E-02
RMM:   6    -0.231468649807E+04    0.20555E-05   -0.19361E-05  2760   0.295E-03
  21 F= -.23348227E+04 E0= -.23348227E+04  d E =-.649111E-13  mag=     1.0000
       N       E                     dE             d eps       ncg     rms          rms(c)
DAV:   1    -0.231469963374E+04   -0.13134E-01   -0.62212E-01  4600   0.305E-01    0.325E-01
RMM:   2    -0.231469859139E+04    0.10423E-02   -0.71979E-03  3594   0.285E-02    0.177E-01
RMM:   3    -0.231469836404E+04    0.22735E-03   -0.13722E-03  4150   0.135E-02    0.650E-02
RMM:   4    -0.231469833629E+04    0.27749E-04   -0.20304E-04  3282   0.679E-03    0.383E-02
RMM:   5    -0.231469831015E+04    0.26143E-04   -0.46925E-05  2931   0.363E-03    0.876E-03
RMM:   6    -0.231469830981E+04    0.34137E-06   -0.51490E-06  2451   0.194E-03
  22 F= -.23348347E+04 E0= -.23348347E+04  d E =-.408620E-13  mag=     1.0000
       N       E                     dE             d eps       ncg     rms          rms(c)
DAV:   1    -0.231469720951E+04    0.11006E-02   -0.12141E+00  4400   0.408E-01    0.317E-01
RMM:   2    -0.231469735540E+04   -0.14589E-03   -0.54237E-03  3599   0.290E-02    0.189E-01
RMM:   3    -0.231469733258E+04    0.22820E-04   -0.10245E-03  3905   0.129E-02    0.272E-02
RMM:   4    -0.231469733140E+04    0.11819E-05   -0.67031E-05  2989   0.572E-03
  23 F= -.23348339E+04 E0= -.23348339E+04  d E =-.578357E-13  mag=     1.0000
       N       E                     dE             d eps       ncg     rms          rms(c)
DAV:   1    -0.231469763081E+04   -0.29822E-03   -0.59483E-01  4400   0.302E-01    0.214E-01
RMM:   2    -0.231469782436E+04   -0.19355E-03   -0.31392E-03  3459   0.202E-02    0.129E-01
RMM:   3    -0.231469781165E+04    0.12707E-04   -0.46797E-04  3604   0.834E-03    0.274E-02
RMM:   4    -0.231469780215E+04    0.94951E-05   -0.62224E-05  2652   0.520E-03
  24 F= -.23348345E+04 E0= -.23348345E+04  d E =-.392341E-13  mag=     1.0000
       N       E                     dE             d eps       ncg     rms          rms(c)
DAV:   1    -0.231469845507E+04   -0.64342E-03   -0.11645E+00  4400   0.416E-01    0.326E-01
RMM:   2    -0.231469842805E+04    0.27023E-04   -0.63949E-03  3620   0.263E-02    0.189E-01
RMM:   3    -0.231469831187E+04    0.11617E-03   -0.84735E-04  3842   0.123E-02    0.486E-02
RMM:   4    -0.231469831176E+04    0.11313E-06   -0.15231E-04  3131   0.649E-03    0.258E-02
RMM:   5    -0.231469830018E+04    0.11579E-04   -0.20858E-05  2638   0.286E-03    0.677E-03
RMM:   6    -0.231469830006E+04    0.11940E-06   -0.52520E-06  2417   0.169E-03
  25 F= -.23348345E+04 E0= -.23348345E+04  d E =-.683301E-13  mag=     1.0000
       N       E                     dE             d eps       ncg     rms          rms(c)
DAV:   1    -0.231469781177E+04    0.48841E-03   -0.60458E-01  4400   0.326E-01    0.252E-01
RMM:   2    -0.231469794152E+04   -0.12975E-03   -0.34722E-03  3480   0.233E-02    0.153E-01
RMM:   3    -0.231469786249E+04    0.79030E-04   -0.52905E-04  3730   0.951E-03    0.315E-02
RMM:   4    -0.231469784820E+04    0.14281E-04   -0.58930E-05  2738   0.487E-03    0.131E-02
RMM:   5    -0.231469784452E+04    0.36852E-05   -0.84484E-06  2372   0.187E-03
  26 F= -.23348342E+04 E0= -.23348342E+04  d E =-.414811E-13  mag=     1.0000
       N       E                     dE             d eps       ncg     rms          rms(c)
DAV:   1    -0.231469543639E+04    0.24118E-02   -0.12382E+00  4640   0.446E-01    0.377E-01
RMM:   2    -0.231469493330E+04    0.50309E-03   -0.82978E-03  3697   0.345E-02    0.219E-01
RMM:   3    -0.231469484805E+04    0.85250E-04   -0.16750E-03  4218   0.166E-02    0.894E-02
RMM:   4    -0.231469477032E+04    0.77733E-04   -0.38642E-04  3673   0.935E-03    0.372E-02
RMM:   5    -0.231469474664E+04    0.23679E-04   -0.49873E-05  3024   0.379E-03    0.100E-02
RMM:   6    -0.231469474708E+04   -0.43683E-06   -0.78643E-06  2624   0.219E-03
  27 F= -.23348314E+04 E0= -.23348314E+04  d E =-.642624E-13  mag=     1.0000
       N       E                     dE             d eps       ncg     rms          rms(c)
DAV:   1    -0.231469337045E+04    0.13762E-02   -0.65151E-01  4800   0.321E-01    0.385E-01
RMM:   2    -0.231469141136E+04    0.19591E-02   -0.98277E-03  3744   0.350E-02    0.208E-01
RMM:   3    -0.231469109186E+04    0.31950E-03   -0.21239E-03  4353   0.177E-02    0.102E-01
RMM:   4    -0.231469097073E+04    0.12113E-03   -0.42944E-04  3728   0.900E-03    0.467E-02
RMM:   5    -0.231469093698E+04    0.33747E-04   -0.79352E-05  3189   0.409E-03    0.113E-02
RMM:   6    -0.231469093684E+04    0.14360E-06   -0.77074E-06  2536   0.240E-03
  28 F= -.23348270E+04 E0= -.23348270E+04  d E =-.711175E-13  mag=     1.0000
       N       E                     dE             d eps       ncg     rms          rms(c)
DAV:   1    -0.231469406966E+04   -0.31327E-02   -0.12863E+00  4880   0.455E-01    0.526E-01
RMM:   2    -0.231469043198E+04    0.36377E-02   -0.18776E-02  3807   0.485E-02    0.283E-01
RMM:   3    -0.231468985622E+04    0.57576E-03   -0.40091E-03  4563   0.255E-02    0.131E-01
RMM:   4    -0.231468968345E+04    0.17277E-03   -0.88861E-04  4118   0.122E-02    0.655E-02
RMM:   5    -0.231468960402E+04    0.79432E-04   -0.15594E-04  3482   0.551E-03    0.150E-02
RMM:   6    -0.231468960260E+04    0.14207E-05   -0.13155E-05  2744   0.304E-03
  29 F= -.23348265E+04 E0= -.23348265E+04  d E =-.343411E-13  mag=     1.0000
       N       E                     dE             d eps       ncg     rms          rms(c)
DAV:   1    -0.231469815444E+04   -0.85504E-02   -0.65271E-01  4880   0.326E-01    0.413E-01
RMM:   2    -0.231469578783E+04    0.23666E-02   -0.12575E-02  3714   0.381E-02    0.218E-01
RMM:   3    -0.231469530142E+04    0.48641E-03   -0.25518E-03  4373   0.193E-02    0.998E-02
RMM:   4    -0.231469518262E+04    0.11880E-03   -0.44461E-04  3739   0.956E-03    0.504E-02
RMM:   5    -0.231469513709E+04    0.45526E-04   -0.86451E-05  3187   0.427E-03    0.109E-02
RMM:   6    -0.231469513658E+04    0.50738E-06   -0.85756E-06  2536   0.251E-03
  30 F= -.23348313E+04 E0= -.23348313E+04  d E =-.731545E-13  mag=     1.0000
       N       E                     dE             d eps       ncg     rms          rms(c)
DAV:   1    -0.231469635050E+04   -0.12134E-02   -0.12426E+00  4560   0.465E-01    0.438E-01
RMM:   2    -0.231469501262E+04    0.13379E-02   -0.13594E-02  3716   0.392E-02    0.243E-01
RMM:   3    -0.231469444501E+04    0.56760E-03   -0.24766E-03  4610   0.185E-02    0.810E-02
RMM:   4    -0.231469441212E+04    0.32896E-04   -0.37683E-04  3523   0.902E-03    0.492E-02
RMM:   5    -0.231469436653E+04    0.45591E-04   -0.73223E-05  3147   0.444E-03    0.109E-02
RMM:   6    -0.231469436634E+04    0.18382E-06   -0.82105E-06  2626   0.220E-03
  31 F= -.23348311E+04 E0= -.23348311E+04  d E =-.342299E-13  mag=     1.0000
       N       E                     dE             d eps       ncg     rms          rms(c)
DAV:   1    -0.231469167119E+04    0.26953E-02   -0.62778E-01  4800   0.358E-01    0.357E-01
RMM:   2    -0.231469086436E+04    0.80683E-03   -0.10175E-02  3944   0.380E-02    0.231E-01
RMM:   3    -0.231469028367E+04    0.58069E-03   -0.18925E-03  4493   0.177E-02    0.144E-01
RMM:   4    -0.231469008614E+04    0.19753E-03   -0.70925E-04  3912   0.988E-03    0.308E-02
RMM:   5    -0.231469006310E+04    0.23043E-04   -0.65798E-05  2937   0.557E-03    0.111E-02
RMM:   6    -0.231469006484E+04   -0.17409E-05   -0.13512E-05  2682   0.219E-03
  32 F= -.23348259E+04 E0= -.23348259E+04  d E =-.457559E-13  mag=     1.0000
       N       E                     dE             d eps       ncg     rms          rms(c)
DAV:   1    -0.231469385277E+04   -0.37897E-02   -0.12366E+00  5240   0.409E-01    0.568E-01
RMM:   2    -0.231469083522E+04    0.30175E-02   -0.21811E-02  4242   0.528E-02    0.373E-01
RMM:   3    -0.231468915406E+04    0.16812E-02   -0.42817E-03  4649   0.293E-02    0.213E-01
RMM:   4    -0.231468868488E+04    0.46919E-03   -0.12451E-03  4074   0.132E-02    0.515E-02
RMM:   5    -0.231468867465E+04    0.10230E-04   -0.12408E-04  3136   0.727E-03    0.149E-02
RMM:   6    -0.231468867562E+04   -0.96721E-06   -0.17876E-05  2778   0.256E-03
  33 F= -.23348258E+04 E0= -.23348258E+04  d E =-.540137E-13  mag=     1.0000
       N       E                     dE             d eps       ncg     rms          rms(c)
DAV:   1    -0.231470011750E+04   -0.11443E-01   -0.60074E-01  4760   0.297E-01    0.331E-01
RMM:   2    -0.231469935615E+04    0.76135E-03   -0.63373E-03  3957   0.285E-02    0.211E-01
RMM:   3    -0.231469894577E+04    0.41037E-03   -0.13703E-03  4159   0.148E-02    0.131E-01
RMM:   4    -0.231469877830E+04    0.16747E-03   -0.41015E-04  3756   0.826E-03    0.267E-02
RMM:   5    -0.231469877742E+04    0.87489E-06   -0.34234E-05  2841   0.389E-03
  34 F= -.23348353E+04 E0= -.23348353E+04  d E =-.428802E-13  mag=     1.0000
       N       E                     dE             d eps       ncg     rms          rms(c)
DAV:   1    -0.231469973144E+04   -0.95314E-03   -0.11749E+00  4480   0.400E-01    0.374E-01
RMM:   2    -0.231469943755E+04    0.29390E-03   -0.53121E-03  3749   0.262E-02    0.217E-01
RMM:   3    -0.231469925999E+04    0.17756E-03   -0.11084E-03  3894   0.129E-02    0.472E-02
RMM:   4    -0.231469923014E+04    0.29841E-04   -0.11747E-04  2999   0.707E-03    0.224E-02
RMM:   5    -0.231469922273E+04    0.74116E-05   -0.18482E-05  2794   0.261E-03
  35 F= -.23348357E+04 E0= -.23348357E+04  d E =-.608105E-13  mag=     1.0000
       N       E                     dE             d eps       ncg     rms          rms(c)
DAV:   1    -0.231469475349E+04    0.44767E-02   -0.59408E-01  4600   0.289E-01    0.303E-01
RMM:   2    -0.231469440019E+04    0.35330E-03   -0.53026E-03  3822   0.251E-02    0.189E-01
RMM:   3    -0.231469421029E+04    0.18990E-03   -0.10797E-03  4058   0.127E-02    0.124E-01
RMM:   4    -0.231469405717E+04    0.15312E-03   -0.37505E-04  3673   0.824E-03    0.201E-02
RMM:   5    -0.231469405597E+04    0.11979E-05   -0.27938E-05  2778   0.328E-03
  36 F= -.23348300E+04 E0= -.23348300E+04  d E =-.696406E-13  mag=     1.0000
       N       E                     dE             d eps       ncg     rms          rms(c)
DAV:   1    -0.231469606747E+04   -0.20103E-02   -0.11768E+00  5040   0.396E-01    0.469E-01
RMM:   2    -0.231469464916E+04    0.14183E-02   -0.13116E-02  4046   0.420E-02    0.297E-01
RMM:   3    -0.231469386210E+04    0.78706E-03   -0.25782E-03  4477   0.223E-02    0.184E-01
RMM:   4    -0.231469355124E+04    0.31086E-03   -0.80898E-04  3965   0.118E-02    0.379E-02
RMM:   5    -0.231469355247E+04   -0.12282E-05   -0.84763E-05  3030   0.528E-03
  37 F= -.23348306E+04 E0= -.23348306E+04  d E =-.379526E-13  mag=     1.0000
       N       E                     dE             d eps       ncg     rms          rms(c)
DAV:   1    -0.231469802654E+04   -0.44753E-02   -0.57656E-01  4560   0.296E-01    0.267E-01
RMM:   2    -0.231469789874E+04    0.12779E-03   -0.56419E-03  3689   0.281E-02    0.154E-01
RMM:   3    -0.231469771132E+04    0.18742E-03   -0.78873E-04  3988   0.126E-02    0.915E-02
RMM:   4    -0.231469762777E+04    0.83556E-04   -0.35149E-04  3440   0.819E-03    0.272E-02
RMM:   5    -0.231469761882E+04    0.89477E-05   -0.33124E-05  2875   0.333E-03
  38 F= -.23348337E+04 E0= -.23348337E+04  d E =-.259610E-13  mag=     1.0000
       N       E                     dE             d eps       ncg     rms          rms(c)
DAV:   1    -0.231469447817E+04    0.31496E-02   -0.11050E+00  4480   0.362E-01    0.290E-01
RMM:   2    -0.231469481275E+04   -0.33458E-03   -0.81474E-03  4147   0.346E-02    0.188E-01
RMM:   3    -0.231469447529E+04    0.33746E-03   -0.10972E-03  3921   0.153E-02    0.108E-01
RMM:   4    -0.231469433662E+04    0.13867E-03   -0.51336E-04  4095   0.822E-03    0.365E-02
RMM:   5    -0.231469432778E+04    0.88415E-05   -0.50976E-05  2888   0.474E-03
  39 F= -.23348312E+04 E0= -.23348312E+04  d E =-.111749E-12  mag=     1.0000
       N       E                     dE             d eps       ncg     rms          rms(c)
DAV:   1    -0.231469909468E+04   -0.47581E-02   -0.55385E-01  4480   0.261E-01    0.179E-01
RMM:   2    -0.231469930547E+04   -0.21079E-03   -0.27721E-03  3791   0.197E-02    0.111E-01
RMM:   3    -0.231469923050E+04    0.74975E-04   -0.37970E-04  3457   0.876E-03    0.654E-02
RMM:   4    -0.231469920067E+04    0.29825E-04   -0.15798E-04  3553   0.521E-03    0.225E-02
RMM:   5    -0.231469919807E+04    0.25995E-05   -0.19409E-05  2712   0.326E-03
  40 F= -.23348361E+04 E0= -.23348361E+04  d E =-.420161E-13  mag=     1.0000
       N       E                     dE             d eps       ncg     rms          rms(c)
DAV:   1    -0.231469932457E+04   -0.12390E-03   -0.11089E+00  4480   0.365E-01    0.234E-01
RMM:   2    -0.231469989282E+04   -0.56825E-03   -0.35534E-03  3647   0.208E-02    0.138E-01
RMM:   3    -0.231469984394E+04    0.48883E-04   -0.33171E-04  3333   0.899E-03    0.634E-02
RMM:   4    -0.231469986940E+04   -0.25469E-04   -0.14683E-04  3070   0.533E-03    0.226E-02
RMM:   5    -0.231469986421E+04    0.51949E-05   -0.23247E-05  2666   0.302E-03
  41 F= -.23348360E+04 E0= -.23348360E+04  d E =-.790173E-13  mag=     1.0000
       N       E                     dE             d eps       ncg     rms          rms(c)
DAV:   1    -0.231469626155E+04    0.36079E-02   -0.53223E-01  4480   0.257E-01    0.224E-01
RMM:   2    -0.231469599660E+04    0.26495E-03   -0.48813E-03  3799   0.244E-02    0.125E-01
RMM:   3    -0.231469583218E+04    0.16442E-03   -0.75864E-04  3572   0.144E-02    0.761E-02
RMM:   4    -0.231469576483E+04    0.67349E-04   -0.21557E-04  3535   0.672E-03    0.304E-02
RMM:   5    -0.231469575455E+04    0.10274E-04   -0.36338E-05  2871   0.334E-03    0.853E-03
RMM:   6    -0.231469575435E+04    0.20330E-06   -0.48884E-06  2631   0.210E-03
  42 F= -.23348350E+04 E0= -.23348350E+04  d E =-.211452E-13  mag=     1.0000
       N       E                     dE             d eps       ncg     rms          rms(c)
DAV:   1    -0.231470115178E+04   -0.53972E-02   -0.10450E+00  4640   0.382E-01    0.375E-01
RMM:   2    -0.231469990999E+04    0.12418E-02   -0.14136E-02  4224   0.373E-02    0.212E-01
RMM:   3    -0.231469922974E+04    0.68025E-03   -0.22949E-03  4267   0.219E-02    0.135E-01
RMM:   4    -0.231469893812E+04    0.29162E-03   -0.61641E-04  4173   0.104E-02    0.447E-02
RMM:   5    -0.231469891536E+04    0.22767E-04   -0.84561E-05  3078   0.477E-03    0.139E-02
RMM:   6    -0.231469891442E+04    0.93303E-06   -0.10507E-05  2848   0.298E-03
  43 F= -.23348331E+04 E0= -.23348331E+04  d E =-.143661E-12  mag=     1.0000
