       N       E                     dE             d eps       ncg     rms          rms(c)
DAV:   1     0.127686358725E+05    0.12769E+05   -0.84900E+05  4640   0.144E+03
DAV:   2    -0.122692166527E+04   -0.13996E+05   -0.13418E+05  5200   0.326E+02
DAV:   3    -0.250682534553E+04   -0.12799E+04   -0.12694E+04  5440   0.107E+02
DAV:   4    -0.253762411344E+04   -0.30799E+02   -0.30614E+02  5600   0.212E+01
DAV:   5    -0.253869159682E+04   -0.10675E+01   -0.10650E+01  5680   0.324E+00    0.171E+02
RMM:   6    -0.150154969679E+04    0.10371E+04   -0.19679E+03  4510   0.381E+01    0.726E+01
RMM:   7    -0.166780330750E+04   -0.16625E+03   -0.28458E+02  5168   0.144E+01    0.528E+01
RMM:   8    -0.172656863867E+04   -0.58765E+02   -0.84800E+01  5400   0.788E+00    0.453E+01
RMM:   9    -0.179115308465E+04   -0.64584E+02   -0.60660E+01  5138   0.738E+00    0.395E+01
RMM:  10    -0.187502406582E+04   -0.83871E+02   -0.54920E+01  5148   0.709E+00    0.323E+01
RMM:  11    -0.197450611604E+04   -0.99482E+02   -0.42044E+01  5214   0.585E+00    0.260E+01
RMM:  12    -0.203663507743E+04   -0.62129E+02   -0.23957E+01  5236   0.424E+00    0.205E+01
RMM:  13    -0.212589934829E+04   -0.89264E+02   -0.42271E+01  5057   0.500E+00    0.156E+01
RMM:  14    -0.221428707377E+04   -0.88388E+02   -0.59219E+01  4688   0.553E+00    0.129E+01
RMM:  15    -0.229104370506E+04   -0.76757E+02   -0.64541E+01  4812   0.584E+00    0.108E+01
RMM:  16    -0.232198035978E+04   -0.30937E+02   -0.30091E+01  4744   0.406E+00    0.583E+00
RMM:  17    -0.233270664482E+04   -0.10726E+02   -0.11789E+01  4875   0.235E+00    0.280E+00
RMM:  18    -0.233533604757E+04   -0.26294E+01   -0.23039E+00  5359   0.113E+00    0.201E+00
RMM:  19    -0.233648812633E+04   -0.11521E+01   -0.69649E-01  4842   0.560E-01    0.124E+00
RMM:  20    -0.233687477716E+04   -0.38665E+00   -0.31688E-01  4732   0.404E-01    0.619E-01
RMM:  21    -0.233698390340E+04   -0.10913E+00   -0.91293E-02  4727   0.218E-01    0.318E-01
RMM:  22    -0.233702478852E+04   -0.40885E-01   -0.32868E-02  4800   0.130E-01    0.212E-01
RMM:  23    -0.233704927361E+04   -0.24485E-01   -0.11074E-02  4566   0.815E-02    0.118E-01
RMM:  24    -0.233706635273E+04   -0.17079E-01   -0.62536E-03  4558   0.681E-02    0.770E-02
RMM:  25    -0.233707739278E+04   -0.11040E-01   -0.39226E-03  4556   0.503E-02    0.490E-02
RMM:  26    -0.233708277635E+04   -0.53836E-02   -0.20606E-03  4617   0.385E-02    0.289E-02
RMM:  27    -0.233708543149E+04   -0.26551E-02   -0.10909E-03  4330   0.257E-02    0.218E-02
RMM:  28    -0.233708615263E+04   -0.72114E-03   -0.31678E-04  4130   0.170E-02    0.116E-02
RMM:  29    -0.233708643287E+04   -0.28024E-03   -0.10818E-04  3754   0.841E-03    0.588E-03
RMM:  30    -0.233708656623E+04   -0.13337E-03   -0.33646E-05  3369   0.623E-03    0.394E-03
RMM:  31    -0.233708663747E+04   -0.71236E-04   -0.17883E-05  3044   0.373E-03    0.217E-03
RMM:  32    -0.233708666773E+04   -0.30256E-04   -0.80803E-06  2886   0.303E-03    0.118E-03
RMM:  33    -0.233708667712E+04   -0.93916E-05   -0.42948E-06  2520   0.226E-03
   1 F= -.23586830E+04 E0= -.23586830E+04  d E =-.845188E-09  mag=     4.0001
       N       E                     dE             d eps       ncg     rms          rms(c)
DAV:   1    -0.233712030235E+04   -0.33635E-01   -0.21481E+00  4480   0.874E-01    0.352E-01
RMM:   2    -0.233711944610E+04    0.85625E-03   -0.12920E-02  4591   0.577E-02    0.310E-01
RMM:   3    -0.233711976784E+04   -0.32174E-03   -0.41299E-03  5580   0.365E-02    0.388E-01
RMM:   4    -0.233711843958E+04    0.13283E-02   -0.21552E-03  4977   0.206E-02    0.218E-01
RMM:   5    -0.233711801086E+04    0.42872E-03   -0.90285E-04  4391   0.147E-02    0.798E-02
RMM:   6    -0.233711795258E+04    0.58283E-04   -0.14398E-04  3383   0.614E-03    0.216E-02
RMM:   7    -0.233711795190E+04    0.67402E-06   -0.29999E-05  2835   0.405E-03
   2 F= -.23587143E+04 E0= -.23587143E+04  d E =-.833143E-09  mag=     4.0000
       N       E                     dE             d eps       ncg     rms          rms(c)
DAV:   1    -0.233702826826E+04    0.89684E-01   -0.85313E+00  4480   0.174E+00    0.706E-01
RMM:   2    -0.233702383391E+04    0.44343E-02   -0.40593E-02  4766   0.112E-01    0.616E-01
RMM:   3    -0.233702545384E+04   -0.16199E-02   -0.15871E-02  5745   0.757E-02    0.780E-01
RMM:   4    -0.233702008716E+04    0.53667E-02   -0.93017E-03  5579   0.425E-02    0.439E-01
RMM:   5    -0.233701822248E+04    0.18647E-02   -0.34389E-03  5082   0.295E-02    0.137E-01
RMM:   6    -0.233701806143E+04    0.16105E-03   -0.46988E-04  3929   0.968E-03    0.428E-02
RMM:   7    -0.233701805316E+04    0.82739E-05   -0.97041E-05  3083   0.661E-03
   3 F= -.23586144E+04 E0= -.23586144E+04  d E =-.867322E-09  mag=     4.0000
       N       E                     dE             d eps       ncg     rms          rms(c)
DAV:   1    -0.233710607359E+04   -0.88012E-01   -0.44102E+00  4480   0.125E+00    0.452E-01
RMM:   2    -0.233710395307E+04    0.21205E-02   -0.13896E-02  4252   0.655E-02    0.378E-01
RMM:   3    -0.233710542190E+04   -0.14688E-02   -0.59949E-03  5580   0.430E-02    0.558E-01
RMM:   4    -0.233710226831E+04    0.31536E-02   -0.47458E-03  4951   0.298E-02    0.183E-01
RMM:   5    -0.233710195160E+04    0.31672E-03   -0.99834E-04  4028   0.224E-02    0.757E-02
RMM:   6    -0.233710188084E+04    0.70759E-04   -0.97109E-05  3297   0.540E-03    0.214E-02
RMM:   7    -0.233710187798E+04    0.28552E-05   -0.41516E-05  2982   0.410E-03
   4 F= -.23586982E+04 E0= -.23586982E+04  d E =-.794313E-09  mag=     4.0000
       N       E                     dE             d eps       ncg     rms          rms(c)
DAV:   1    -0.233705143979E+04    0.50441E-01   -0.84626E+00  4480   0.164E+00    0.532E-01
RMM:   2    -0.233704855933E+04    0.28805E-02   -0.27839E-02  4454   0.870E-02    0.344E-01
RMM:   3    -0.233705048427E+04   -0.19249E-02   -0.90990E-03  5011   0.563E-02    0.575E-01
RMM:   4    -0.233704724778E+04    0.32365E-02   -0.52759E-03  5019   0.309E-02    0.258E-01
RMM:   5    -0.233704658317E+04    0.66461E-03   -0.12607E-03  4316   0.229E-02    0.919E-02
RMM:   6    -0.233704648974E+04    0.93437E-04   -0.13036E-04  3182   0.586E-03    0.256E-02
RMM:   7    -0.233704648901E+04    0.72678E-06   -0.46795E-05  3081   0.433E-03
   5 F= -.23586429E+04 E0= -.23586429E+04  d E =-.913085E-09  mag=     4.0000
       N       E                     dE             d eps       ncg     rms          rms(c)
DAV:   1    -0.233708513223E+04   -0.38642E-01   -0.42559E+00  4480   0.117E+00    0.403E-01
RMM:   2    -0.233708321806E+04    0.19142E-02   -0.16390E-02  4069   0.665E-02    0.264E-01
RMM:   3    -0.233708575075E+04   -0.25327E-02   -0.57017E-03  5124   0.451E-02    0.600E-01
RMM:   4    -0.233708196740E+04    0.37834E-02   -0.40408E-03  5281   0.273E-02    0.911E-02
RMM:   5    -0.233708194348E+04    0.23919E-04   -0.56933E-04  3562   0.128E-02    0.753E-02
RMM:   6    -0.233708187209E+04    0.71397E-04   -0.88889E-05  3035   0.511E-03    0.200E-02
RMM:   7    -0.233708186721E+04    0.48719E-05   -0.37891E-05  3067   0.362E-03
   6 F= -.23586786E+04 E0= -.23586786E+04  d E =-.628419E-09  mag=     4.0000
       N       E                     dE             d eps       ncg     rms          rms(c)
DAV:   1    -0.233707007289E+04    0.11799E-01   -0.83396E+00  4480   0.164E+00    0.661E-01
RMM:   2    -0.233706523704E+04    0.48358E-02   -0.38300E-02  4604   0.102E-01    0.451E-01
RMM:   3    -0.233706953401E+04   -0.42970E-02   -0.14308E-02  5814   0.703E-02    0.799E-01
RMM:   4    -0.233706297276E+04    0.65612E-02   -0.91789E-03  5699   0.425E-02    0.365E-01
RMM:   5    -0.233706170083E+04    0.12719E-02   -0.22874E-03  4884   0.241E-02    0.110E-01
RMM:   6    -0.233706159877E+04    0.10206E-03   -0.25085E-04  3521   0.709E-03    0.375E-02
RMM:   7    -0.233706160520E+04   -0.64319E-05   -0.94323E-05  3075   0.585E-03
   7 F= -.23586576E+04 E0= -.23586576E+04  d E =-.111097E-08  mag=     4.0000
       N       E                     dE             d eps       ncg     rms          rms(c)
DAV:   1    -0.233706508114E+04   -0.34824E-02   -0.41573E+00  4480   0.128E+00    0.421E-01
RMM:   2    -0.233706349333E+04    0.15878E-02   -0.18938E-02  4102   0.785E-02    0.268E-01
RMM:   3    -0.233706556640E+04   -0.20731E-02   -0.63768E-03  5672   0.448E-02    0.508E-01
RMM:   4    -0.233706245080E+04    0.31156E-02   -0.38167E-03  5267   0.280E-02    0.187E-01
RMM:   5    -0.233706216277E+04    0.28803E-03   -0.73684E-04  3583   0.127E-02    0.697E-02
RMM:   6    -0.233706210521E+04    0.57558E-04   -0.90434E-05  3156   0.499E-03    0.222E-02
RMM:   7    -0.233706210237E+04    0.28369E-05   -0.30474E-05  3056   0.373E-03
   8 F= -.23586578E+04 E0= -.23586578E+04  d E =-.911682E-09  mag=     4.0000
       N       E                     dE             d eps       ncg     rms          rms(c)
DAV:   1    -0.233708333023E+04   -0.21225E-01   -0.84091E+00  4480   0.176E+00    0.651E-01
RMM:   2    -0.233707866986E+04    0.46604E-02   -0.37105E-02  4522   0.106E-01    0.438E-01
RMM:   3    -0.233708022783E+04   -0.15580E-02   -0.12476E-02  5807   0.621E-02    0.596E-01
RMM:   4    -0.233707615588E+04    0.40720E-02   -0.60694E-03  5552   0.353E-02    0.281E-01
RMM:   5    -0.233707596277E+04    0.19311E-03   -0.20899E-03  4650   0.236E-02    0.227E-01
RMM:   6    -0.233707541707E+04    0.54570E-03   -0.38012E-04  3695   0.943E-03    0.379E-02
RMM:   7    -0.233707542287E+04   -0.58069E-05   -0.11874E-04  3118   0.603E-03    0.480E-02
RMM:   8    -0.233707538871E+04    0.34159E-04   -0.46977E-05  3066   0.416E-03    0.124E-02
RMM:   9    -0.233707538735E+04    0.13662E-05   -0.15380E-05  2901   0.320E-03
   9 F= -.23586724E+04 E0= -.23586724E+04  d E =-.881179E-09  mag=     4.0000
       N       E                     dE             d eps       ncg     rms          rms(c)
DAV:   1    -0.233705937585E+04    0.16013E-01   -0.42751E+00  4640   0.124E+00    0.427E-01
RMM:   2    -0.233705847953E+04    0.89631E-03   -0.15234E-02  4176   0.693E-02    0.419E-01
RMM:   3    -0.233705849145E+04   -0.11919E-04   -0.49815E-03  5641   0.383E-02    0.456E-01
RMM:   4    -0.233705676164E+04    0.17298E-02   -0.43909E-03  4291   0.285E-02    0.216E-01
RMM:   5    -0.233705619358E+04    0.56806E-03   -0.94249E-04  3842   0.232E-02    0.412E-02
RMM:   6    -0.233705616094E+04    0.32640E-04   -0.80943E-05  3251   0.443E-03    0.223E-02
RMM:   7    -0.233705615780E+04    0.31472E-05   -0.26485E-05  2702   0.319E-03
  10 F= -.23586528E+04 E0= -.23586528E+04  d E =-.533579E-09  mag=     4.0000
       N       E                     dE             d eps       ncg     rms          rms(c)
DAV:   1    -0.233709451276E+04   -0.38352E-01   -0.82777E+00  4480   0.170E+00    0.631E-01
RMM:   2    -0.233709283704E+04    0.16757E-02   -0.39004E-02  4364   0.109E-01    0.662E-01
RMM:   3    -0.233709170883E+04    0.11282E-02   -0.12177E-02  5531   0.645E-02    0.648E-01
RMM:   4    -0.233708787690E+04    0.38319E-02   -0.72000E-03  4786   0.376E-02    0.330E-01
RMM:   5    -0.233708693386E+04    0.94304E-03   -0.25890E-03  4493   0.323E-02    0.139E-01
RMM:   6    -0.233708673950E+04    0.19436E-03   -0.38984E-04  3840   0.976E-03    0.278E-02
RMM:   7    -0.233708671869E+04    0.20814E-04   -0.62562E-05  3309   0.607E-03    0.171E-02
RMM:   8    -0.233708672008E+04   -0.13908E-05   -0.36077E-05  3057   0.399E-03
  11 F= -.23586828E+04 E0= -.23586828E+04  d E =-.128757E-08  mag=     4.0000
       N       E                     dE             d eps       ncg     rms          rms(c)
DAV:   1    -0.233706749129E+04    0.19227E-01   -0.42173E+00  4480   0.125E+00    0.403E-01
RMM:   2    -0.233706597325E+04    0.15180E-02   -0.16316E-02  4039   0.696E-02    0.328E-01
RMM:   3    -0.233706734655E+04   -0.13733E-02   -0.51332E-03  5079   0.437E-02    0.525E-01
RMM:   4    -0.233706446777E+04    0.28788E-02   -0.37006E-03  4664   0.272E-02    0.130E-01
RMM:   5    -0.233706437180E+04    0.95967E-04   -0.72078E-04  3917   0.185E-02    0.834E-02
RMM:   6    -0.233706428917E+04    0.82627E-04   -0.97698E-05  3173   0.559E-03    0.198E-02
RMM:   7    -0.233706428507E+04    0.41024E-05   -0.34848E-05  3092   0.363E-03
  12 F= -.23586605E+04 E0= -.23586605E+04  d E =-.721418E-09  mag=     4.0000
       N       E                     dE             d eps       ncg     rms          rms(c)
DAV:   1    -0.233709390767E+04   -0.29618E-01   -0.82830E+00  4480   0.167E+00    0.501E-01
RMM:   2    -0.233709126164E+04    0.26460E-02   -0.29956E-02  4110   0.911E-02    0.305E-01
RMM:   3    -0.233709271641E+04   -0.14548E-02   -0.78445E-03  5177   0.522E-02    0.498E-01
RMM:   4    -0.233708957971E+04    0.31367E-02   -0.45232E-03  5213   0.309E-02    0.203E-01
RMM:   5    -0.233708933576E+04    0.24395E-03   -0.10020E-03  4356   0.137E-02    0.129E-01
RMM:   6    -0.233708918268E+04    0.15308E-03   -0.14831E-04  3082   0.660E-03    0.300E-02
RMM:   7    -0.233708919498E+04   -0.12299E-04   -0.53572E-05  2918   0.410E-03    0.372E-02
RMM:   8    -0.233708917958E+04    0.15395E-04   -0.26380E-05  2692   0.356E-03    0.866E-03
RMM:   9    -0.233708918050E+04   -0.92329E-06   -0.50142E-06  2581   0.177E-03
  13 F= -.23586856E+04 E0= -.23586856E+04  d E =-.100055E-08  mag=     4.0000
       N       E                     dE             d eps       ncg     rms          rms(c)
DAV:   1    -0.233705364670E+04    0.35533E-01   -0.24373E+00  4480   0.897E-01    0.391E-01
RMM:   2    -0.233705182010E+04    0.18266E-02   -0.12586E-02  4106   0.629E-02    0.218E-01
RMM:   3    -0.233705264911E+04   -0.82901E-03   -0.35155E-03  4836   0.386E-02    0.348E-01
RMM:   4    -0.233705124873E+04    0.14004E-02   -0.19906E-03  4917   0.212E-02    0.140E-01
RMM:   5    -0.233705124817E+04    0.56042E-06   -0.63164E-04  3758   0.101E-02    0.144E-01
RMM:   6    -0.233705106487E+04    0.18330E-03   -0.16132E-04  3152   0.688E-03    0.177E-02
RMM:   7    -0.233705106521E+04   -0.34392E-06   -0.22385E-05  2822   0.326E-03
  14 F= -.23586473E+04 E0= -.23586473E+04  d E =-.912783E-09  mag=     4.0000
       N       E                     dE             d eps       ncg     rms          rms(c)
DAV:   1    -0.233710685034E+04   -0.55785E-01   -0.13806E+00  4880   0.650E-01    0.581E-01
RMM:   2    -0.233710222207E+04    0.46283E-02   -0.20302E-02  4556   0.658E-02    0.321E-01
RMM:   3    -0.233710304930E+04   -0.82723E-03   -0.56038E-03  5247   0.474E-02    0.392E-01
RMM:   4    -0.233710138877E+04    0.16605E-02   -0.30649E-03  5554   0.273E-02    0.204E-01
RMM:   5    -0.233710161571E+04   -0.22695E-03   -0.12619E-03  4587   0.146E-02    0.264E-01
RMM:   6    -0.233710094403E+04    0.67168E-03   -0.40153E-04  3278   0.929E-03    0.266E-02
RMM:   7    -0.233710095030E+04   -0.62685E-05   -0.59730E-05  2980   0.445E-03
  15 F= -.23586975E+04 E0= -.23586975E+04  d E =-.776450E-09  mag=     4.0000
       N       E                     dE             d eps       ncg     rms          rms(c)
DAV:   1    -0.233705707392E+04    0.43870E-01   -0.75298E-01  4960   0.481E-01    0.485E-01
RMM:   2    -0.233705345267E+04    0.36213E-02   -0.15257E-02  4531   0.566E-02    0.269E-01
RMM:   3    -0.233705517153E+04   -0.17189E-02   -0.43689E-03  5274   0.392E-02    0.494E-01
RMM:   4    -0.233705272258E+04    0.24489E-02   -0.21957E-03  5268   0.220E-02    0.157E-01
RMM:   5    -0.233705277314E+04   -0.50558E-04   -0.81643E-04  4439   0.129E-02    0.149E-01
RMM:   6    -0.233705249604E+04    0.27710E-03   -0.26481E-04  3326   0.847E-03    0.225E-02
RMM:   7    -0.233705249420E+04    0.18423E-05   -0.26419E-05  2895   0.340E-03
  16 F= -.23586488E+04 E0= -.23586488E+04  d E =-.809173E-09  mag=     4.0000
       N       E                     dE             d eps       ncg     rms          rms(c)
DAV:   1    -0.233710761482E+04   -0.55119E-01   -0.13629E+00  4640   0.646E-01    0.532E-01
RMM:   2    -0.233710455441E+04    0.30604E-02   -0.15044E-02  4491   0.589E-02    0.315E-01
RMM:   3    -0.233710751242E+04   -0.29580E-02   -0.57840E-03  5238   0.463E-02    0.621E-01
RMM:   4    -0.233710370404E+04    0.38084E-02   -0.29699E-03  5480   0.257E-02    0.146E-01
RMM:   5    -0.233710374798E+04   -0.43946E-04   -0.73454E-04  4475   0.133E-02    0.131E-01
RMM:   6    -0.233710354347E+04    0.20452E-03   -0.25284E-04  3306   0.847E-03    0.285E-02
RMM:   7    -0.233710353608E+04    0.73823E-05   -0.25253E-05  2893   0.351E-03
  17 F= -.23586998E+04 E0= -.23586998E+04  d E =-.880317E-09  mag=     4.0000
       N       E                     dE             d eps       ncg     rms          rms(c)
DAV:   1    -0.233708032513E+04    0.23218E-01   -0.64563E-01  4800   0.449E-01    0.295E-01
RMM:   2    -0.233707988096E+04    0.44417E-03   -0.37093E-03  4071   0.299E-02    0.178E-01
RMM:   3    -0.233708110354E+04   -0.12226E-02   -0.18530E-03  5306   0.225E-02    0.369E-01
RMM:   4    -0.233707970913E+04    0.13944E-02   -0.10235E-03  4741   0.147E-02    0.746E-02
RMM:   5    -0.233707972835E+04   -0.19219E-04   -0.25872E-04  3413   0.769E-03    0.733E-02
RMM:   6    -0.233707966385E+04    0.64498E-04   -0.64093E-05  2803   0.508E-03    0.112E-02
RMM:   7    -0.233707966383E+04    0.19587E-07   -0.96235E-06  2539   0.200E-03
  18 F= -.23586760E+04 E0= -.23586760E+04  d E =-.906294E-09  mag=     4.0000
       N       E                     dE             d eps       ncg     rms          rms(c)
DAV:   1    -0.233709067089E+04   -0.11007E-01   -0.12665E+00  4720   0.624E-01    0.386E-01
RMM:   2    -0.233709032913E+04    0.34176E-03   -0.53360E-03  4083   0.376E-02    0.226E-01
RMM:   3    -0.233709051485E+04   -0.18572E-03   -0.18630E-03  4546   0.277E-02    0.173E-01
RMM:   4    -0.233709014375E+04    0.37110E-03   -0.54858E-04  4408   0.121E-02    0.667E-02
RMM:   5    -0.233709014013E+04    0.36188E-05   -0.12836E-04  2947   0.539E-03    0.689E-02
RMM:   6    -0.233709009280E+04    0.47329E-04   -0.37294E-05  2749   0.371E-03    0.132E-02
RMM:   7    -0.233709009062E+04    0.21750E-05   -0.13526E-05  2761   0.218E-03
  19 F= -.23586864E+04 E0= -.23586864E+04  d E =-.795203E-09  mag=     4.0000
       N       E                     dE             d eps       ncg     rms          rms(c)
DAV:   1    -0.233708198038E+04    0.81124E-02   -0.62745E-01  4880   0.453E-01    0.282E-01
RMM:   2    -0.233708122636E+04    0.75402E-03   -0.46095E-03  4168   0.305E-02    0.161E-01
RMM:   3    -0.233708155900E+04   -0.33264E-03   -0.15687E-03  4959   0.227E-02    0.204E-01
RMM:   4    -0.233708108281E+04    0.47619E-03   -0.74057E-04  4517   0.139E-02    0.954E-02
RMM:   5    -0.233708113132E+04   -0.48513E-04   -0.28035E-04  3350   0.752E-03    0.117E-01
RMM:   6    -0.233708100027E+04    0.13105E-03   -0.81686E-05  2763   0.508E-03    0.128E-02
RMM:   7    -0.233708100107E+04   -0.80645E-06   -0.12797E-05  2669   0.225E-03
  20 F= -.23586775E+04 E0= -.23586775E+04  d E =-.787812E-09  mag=     4.0000
       N       E                     dE             d eps       ncg     rms          rms(c)
DAV:   1    -0.233708535318E+04   -0.43529E-02   -0.12373E+00  4640   0.560E-01    0.426E-01
RMM:   2    -0.233708355081E+04    0.18024E-02   -0.92531E-03  4415   0.431E-02    0.244E-01
RMM:   3    -0.233708466623E+04   -0.11154E-02   -0.33934E-03  5176   0.345E-02    0.357E-01
RMM:   4    -0.233708331903E+04    0.13472E-02   -0.16555E-03  5162   0.206E-02    0.174E-01
RMM:   5    -0.233708329218E+04    0.26846E-04   -0.72936E-04  3936   0.110E-02    0.160E-01
RMM:   6    -0.233708304122E+04    0.25096E-03   -0.18171E-04  2939   0.700E-03    0.188E-02
RMM:   7    -0.233708304495E+04   -0.37263E-05   -0.29472E-05  2768   0.327E-03
  21 F= -.23586793E+04 E0= -.23586793E+04  d E =-.916381E-09  mag=     4.0000
       N       E                     dE             d eps       ncg     rms          rms(c)
DAV:   1    -0.233709288792E+04   -0.98467E-02   -0.61532E-01  4480   0.395E-01    0.248E-01
RMM:   2    -0.233709268519E+04    0.20273E-03   -0.27901E-03  3984   0.240E-02    0.153E-01
RMM:   3    -0.233709353433E+04   -0.84914E-03   -0.13567E-03  4912   0.178E-02    0.320E-01
RMM:   4    -0.233709258317E+04    0.95116E-03   -0.66345E-04  4067   0.118E-02    0.491E-02
RMM:   5    -0.233709257495E+04    0.82130E-05   -0.65343E-05  3009   0.503E-03
  22 F= -.23586885E+04 E0= -.23586885E+04  d E =-.944902E-09  mag=     4.0000
       N       E                     dE             d eps       ncg     rms          rms(c)
DAV:   1    -0.233707795139E+04    0.14632E-01   -0.12015E+00  4640   0.555E-01    0.336E-01
RMM:   2    -0.233707801806E+04   -0.66673E-04   -0.51752E-03  4208   0.357E-02    0.223E-01
RMM:   3    -0.233707904095E+04   -0.10229E-02   -0.28575E-03  5129   0.237E-02    0.343E-01
RMM:   4    -0.233707798677E+04    0.10542E-02   -0.11338E-03  4111   0.150E-02    0.154E-01
RMM:   5    -0.233707775096E+04    0.23581E-03   -0.32407E-04  3371   0.102E-02    0.513E-02
RMM:   6    -0.233707772613E+04    0.24831E-04   -0.32686E-05  2812   0.409E-03    0.121E-02
RMM:   7    -0.233707772782E+04   -0.16905E-05   -0.94484E-06  2631   0.225E-03
  23 F= -.23586745E+04 E0= -.23586745E+04  d E =-.765262E-09  mag=     4.0000
       N       E                     dE             d eps       ncg     rms          rms(c)
DAV:   1    -0.233709230027E+04   -0.14574E-01   -0.63779E-01  4960   0.413E-01    0.365E-01
RMM:   2    -0.233709068794E+04    0.16123E-02   -0.84575E-03  4410   0.398E-02    0.198E-01
RMM:   3    -0.233709080979E+04   -0.12184E-03   -0.19819E-03  4865   0.283E-02    0.215E-01
RMM:   4    -0.233709031711E+04    0.49268E-03   -0.10058E-03  4736   0.160E-02    0.116E-01
RMM:   5    -0.233709038547E+04   -0.68359E-04   -0.36836E-04  3741   0.920E-03    0.151E-01
RMM:   6    -0.233709015912E+04    0.22635E-03   -0.14158E-04  2871   0.629E-03    0.191E-02
RMM:   7    -0.233709015944E+04   -0.31669E-06   -0.17182E-05  2665   0.259E-03
  24 F= -.23586868E+04 E0= -.23586868E+04  d E =-.839412E-09  mag=     4.0000
       N       E                     dE             d eps       ncg     rms          rms(c)
DAV:   1    -0.233706902179E+04    0.21137E-01   -0.12656E+00  4960   0.589E-01    0.549E-01
RMM:   2    -0.233706452723E+04    0.44946E-02   -0.19330E-02  4418   0.626E-02    0.287E-01
RMM:   3    -0.233706464030E+04   -0.11307E-03   -0.35619E-03  4773   0.412E-02    0.317E-01
RMM:   4    -0.233706410729E+04    0.53301E-03   -0.22394E-03  5370   0.226E-02    0.248E-01
RMM:   5    -0.233706385073E+04    0.25656E-03   -0.91118E-04  4365   0.136E-02    0.174E-01
RMM:   6    -0.233706348354E+04    0.36719E-03   -0.31140E-04  3317   0.878E-03    0.279E-02
RMM:   7    -0.233706347612E+04    0.74208E-05   -0.27735E-05  2880   0.353E-03
  25 F= -.23586596E+04 E0= -.23586596E+04  d E =-.853642E-09  mag=     4.0000
       N       E                     dE             d eps       ncg     rms          rms(c)
DAV:   1    -0.233707023367E+04   -0.67501E-02   -0.59719E-01  5120   0.425E-01    0.302E-01
RMM:   2    -0.233706979773E+04    0.43594E-03   -0.47624E-03  4083   0.369E-02    0.187E-01
RMM:   3    -0.233707125085E+04   -0.14531E-02   -0.23959E-03  5227   0.239E-02    0.396E-01
RMM:   4    -0.233706947979E+04    0.17711E-02   -0.11860E-03  4815   0.163E-02    0.980E-02
RMM:   5    -0.233706937994E+04    0.99851E-04   -0.20764E-04  3051   0.667E-03    0.301E-02
RMM:   6    -0.233706936613E+04    0.13807E-04   -0.24088E-05  2782   0.331E-03    0.113E-02
RMM:   7    -0.233706936646E+04   -0.32462E-06   -0.11627E-05  2631   0.238E-03
  26 F= -.23586653E+04 E0= -.23586653E+04  d E =-.861729E-09  mag=     4.0000
       N       E                     dE             d eps       ncg     rms          rms(c)
DAV:   1    -0.233709484564E+04   -0.25480E-01   -0.11715E+00  4880   0.559E-01    0.417E-01
RMM:   2    -0.233709325815E+04    0.15875E-02   -0.12434E-02  4504   0.515E-02    0.283E-01
RMM:   3    -0.233709526268E+04   -0.20045E-02   -0.48326E-03  5386   0.391E-02    0.501E-01
RMM:   4    -0.233709259941E+04    0.26633E-02   -0.21321E-03  5043   0.220E-02    0.197E-01
RMM:   5    -0.233709239527E+04    0.20414E-03   -0.83704E-04  3973   0.127E-02    0.122E-01
RMM:   6    -0.233709225519E+04    0.14008E-03   -0.13999E-04  3219   0.715E-03    0.176E-02
RMM:   7    -0.233709225618E+04   -0.98727E-06   -0.21103E-05  2854   0.345E-03
  27 F= -.23586891E+04 E0= -.23586891E+04  d E =-.843285E-09  mag=     4.0000
       N       E                     dE             d eps       ncg     rms          rms(c)
DAV:   1    -0.233708235500E+04    0.99002E-02   -0.58176E-01  4480   0.375E-01    0.285E-01
RMM:   2    -0.233708149428E+04    0.86072E-03   -0.52876E-03  4828   0.326E-02    0.184E-01
RMM:   3    -0.233708191553E+04   -0.42125E-03   -0.20814E-03  4945   0.254E-02    0.253E-01
RMM:   4    -0.233708120014E+04    0.71539E-03   -0.81176E-04  4356   0.145E-02    0.129E-01
RMM:   5    -0.233708115802E+04    0.42123E-04   -0.35671E-04  3268   0.809E-03    0.114E-01
RMM:   6    -0.233708104585E+04    0.11216E-03   -0.84345E-05  2949   0.547E-03    0.167E-02
RMM:   7    -0.233708105032E+04   -0.44670E-05   -0.22637E-05  2714   0.321E-03
  28 F= -.23586777E+04 E0= -.23586777E+04  d E =-.894543E-09  mag=     4.0000
       N       E                     dE             d eps       ncg     rms          rms(c)
DAV:   1    -0.233708958779E+04   -0.85419E-02   -0.11534E+00  4480   0.529E-01    0.305E-01
RMM:   2    -0.233708966637E+04   -0.78572E-04   -0.52607E-03  4968   0.386E-02    0.238E-01
RMM:   3    -0.233708996443E+04   -0.29807E-03   -0.22331E-03  4429   0.264E-02    0.279E-01
RMM:   4    -0.233708954106E+04    0.42337E-03   -0.10851E-03  4700   0.147E-02    0.206E-01
RMM:   5    -0.233708914537E+04    0.39570E-03   -0.50282E-04  4073   0.116E-02    0.689E-02
RMM:   6    -0.233708909660E+04    0.48770E-04   -0.49238E-05  2992   0.492E-03    0.148E-02
RMM:   7    -0.233708909790E+04   -0.13047E-05   -0.15070E-05  2770   0.286E-03
  29 F= -.23586851E+04 E0= -.23586851E+04  d E =-.783389E-09  mag=     4.0000
       N       E                     dE             d eps       ncg     rms          rms(c)
DAV:   1    -0.233708128121E+04    0.78154E-02   -0.57081E-01  4640   0.385E-01    0.307E-01
RMM:   2    -0.233708026446E+04    0.10168E-02   -0.62910E-03  5050   0.357E-02    0.207E-01
RMM:   3    -0.233708049737E+04   -0.23291E-03   -0.26365E-03  4816   0.293E-02    0.251E-01
RMM:   4    -0.233707968340E+04    0.81396E-03   -0.77407E-04  4315   0.147E-02    0.106E-01
RMM:   5    -0.233707976362E+04   -0.80215E-04   -0.37681E-04  3582   0.834E-03    0.143E-01
RMM:   6    -0.233707957078E+04    0.19284E-03   -0.11179E-04  2987   0.620E-03    0.158E-02
RMM:   7    -0.233707957466E+04   -0.38737E-05   -0.23021E-05  2760   0.302E-03
  30 F= -.23586760E+04 E0= -.23586760E+04  d E =-.790540E-09  mag=     4.0000
       N       E                     dE             d eps       ncg     rms          rms(c)
DAV:   1    -0.233708979181E+04   -0.10221E-01   -0.11767E+00  4720   0.557E-01    0.474E-01
RMM:   2    -0.233708706599E+04    0.27258E-02   -0.14659E-02  4873   0.540E-02    0.303E-01
RMM:   3    -0.233708896877E+04   -0.19028E-02   -0.61212E-03  5557   0.447E-02    0.516E-01
RMM:   4    -0.233708617343E+04    0.27953E-02   -0.24721E-03  5308   0.243E-02    0.229E-01
RMM:   5    -0.233708581541E+04    0.35802E-03   -0.10104E-03  4328   0.131E-02    0.133E-01
RMM:   6    -0.233708563365E+04    0.18176E-03   -0.16624E-04  3333   0.712E-03    0.231E-02
RMM:   7    -0.233708564226E+04   -0.86105E-05   -0.44651E-05  2878   0.419E-03
  31 F= -.23586820E+04 E0= -.23586820E+04  d E =-.913525E-09  mag=     4.0000
       N       E                     dE             d eps       ncg     rms          rms(c)
DAV:   1    -0.233709094125E+04   -0.53076E-02   -0.60220E-01  4640   0.426E-01    0.297E-01
RMM:   2    -0.233709016698E+04    0.77426E-03   -0.60608E-03  4296   0.379E-02    0.189E-01
RMM:   3    -0.233709116285E+04   -0.99587E-03   -0.24136E-03  5215   0.278E-02    0.346E-01
RMM:   4    -0.233708991976E+04    0.12431E-02   -0.10831E-03  4530   0.162E-02    0.140E-01
RMM:   5    -0.233708978308E+04    0.13667E-03   -0.40545E-04  3448   0.886E-03    0.750E-02
RMM:   6    -0.233708973479E+04    0.48293E-04   -0.58658E-05  2981   0.495E-03    0.152E-02
RMM:   7    -0.233708973662E+04   -0.18329E-05   -0.16511E-05  2640   0.309E-03
  32 F= -.23586855E+04 E0= -.23586855E+04  d E =-.829476E-09  mag=     4.0000
       N       E                     dE             d eps       ncg     rms          rms(c)
DAV:   1    -0.233707825811E+04    0.11477E-01   -0.12117E+00  4800   0.579E-01    0.352E-01
RMM:   2    -0.233707763691E+04    0.62120E-03   -0.63454E-03  3873   0.391E-02    0.203E-01
RMM:   3    -0.233707830624E+04   -0.66933E-03   -0.18030E-03  4812   0.260E-02    0.275E-01
RMM:   4    -0.233707754333E+04    0.76290E-03   -0.94284E-04  4483   0.146E-02    0.113E-01
RMM:   5    -0.233707754202E+04    0.13166E-05   -0.31428E-04  3246   0.770E-03    0.984E-02
RMM:   6    -0.233707744242E+04    0.99600E-04   -0.95475E-05  2829   0.565E-03    0.135E-02
RMM:   7    -0.233707743989E+04    0.25249E-05   -0.10770E-05  2658   0.233E-03
  33 F= -.23586743E+04 E0= -.23586743E+04  d E =-.855319E-09  mag=     4.0000
       N       E                     dE             d eps       ncg     rms          rms(c)
DAV:   1    -0.233710006046E+04   -0.22618E-01   -0.63268E-01  4960   0.427E-01    0.369E-01
RMM:   2    -0.233709805416E+04    0.20063E-02   -0.77377E-03  4022   0.431E-02    0.193E-01
RMM:   3    -0.233709813016E+04   -0.75999E-04   -0.16024E-03  4232   0.264E-02    0.193E-01
RMM:   4    -0.233709792224E+04    0.20792E-03   -0.96993E-04  4549   0.154E-02    0.145E-01
RMM:   5    -0.233709784205E+04    0.80185E-04   -0.37523E-04  3497   0.848E-03    0.133E-01
RMM:   6    -0.233709768336E+04    0.15870E-03   -0.13431E-04  2826   0.619E-03    0.185E-02
RMM:   7    -0.233709768148E+04    0.18739E-05   -0.13060E-05  2626   0.268E-03
  34 F= -.23586938E+04 E0= -.23586938E+04  d E =-.908329E-09  mag=     4.0000
       N       E                     dE             d eps       ncg     rms          rms(c)
DAV:   1    -0.233706285280E+04    0.34831E-01   -0.12439E+00  4960   0.600E-01    0.512E-01
RMM:   2    -0.233705911227E+04    0.37405E-02   -0.16357E-02  4178   0.599E-02    0.266E-01
RMM:   3    -0.233705892083E+04    0.19143E-03   -0.26450E-03  4334   0.356E-02    0.233E-01
RMM:   4    -0.233705894786E+04   -0.27022E-04   -0.17364E-03  5070   0.201E-02    0.238E-01
RMM:   5    -0.233705853146E+04    0.41639E-03   -0.63214E-04  3958   0.112E-02    0.150E-01
RMM:   6    -0.233705832672E+04    0.20475E-03   -0.22919E-04  3068   0.815E-03    0.285E-02
RMM:   7    -0.233705831791E+04    0.88031E-05   -0.17791E-05  2756   0.323E-03
  35 F= -.23586549E+04 E0= -.23586549E+04  d E =-.786340E-09  mag=     4.0000
       N       E                     dE             d eps       ncg     rms          rms(c)
DAV:   1    -0.233709800131E+04   -0.39675E-01   -0.63381E-01  4960   0.433E-01    0.408E-01
RMM:   2    -0.233709546066E+04    0.25407E-02   -0.10827E-02  4146   0.489E-02    0.225E-01
RMM:   3    -0.233709685039E+04   -0.13897E-02   -0.33137E-03  4813   0.345E-02    0.417E-01
RMM:   4    -0.233709497494E+04    0.18755E-02   -0.15732E-03  5029   0.195E-02    0.136E-01
RMM:   5    -0.233709500238E+04   -0.27441E-04   -0.60463E-04  3779   0.105E-02    0.133E-01
RMM:   6    -0.233709481212E+04    0.19026E-03   -0.18393E-04  3257   0.767E-03    0.206E-02
RMM:   7    -0.233709481124E+04    0.88013E-06   -0.19295E-05  2678   0.314E-03
  36 F= -.23586909E+04 E0= -.23586909E+04  d E =-.745612E-09  mag=     4.0000
       N       E                     dE             d eps       ncg     rms          rms(c)
DAV:   1    -0.233707220500E+04    0.22607E-01   -0.12131E+00  4800   0.593E-01    0.430E-01
RMM:   2    -0.233707065938E+04    0.15456E-02   -0.10522E-02  4155   0.484E-02    0.275E-01
RMM:   3    -0.233707340267E+04   -0.27433E-02   -0.48303E-03  5380   0.380E-02    0.556E-01
RMM:   4    -0.233707009372E+04    0.33089E-02   -0.21344E-03  5267   0.223E-02    0.150E-01
RMM:   5    -0.233707009561E+04   -0.18938E-05   -0.77893E-04  4173   0.122E-02    0.131E-01
RMM:   6    -0.233706992114E+04    0.17448E-03   -0.16815E-04  3178   0.751E-03    0.179E-02
RMM:   7    -0.233706992153E+04   -0.39724E-06   -0.19969E-05  2723   0.326E-03
  37 F= -.23586665E+04 E0= -.23586665E+04  d E =-.953995E-09  mag=     4.0000
       N       E                     dE             d eps       ncg     rms          rms(c)
DAV:   1    -0.233707678766E+04   -0.68665E-02   -0.60573E-01  4800   0.429E-01    0.351E-01
RMM:   2    -0.233707512585E+04    0.16618E-02   -0.94150E-03  4309   0.453E-02    0.246E-01
RMM:   3    -0.233707664168E+04   -0.15158E-02   -0.37966E-03  4933   0.356E-02    0.442E-01
RMM:   4    -0.233707457097E+04    0.20707E-02   -0.13644E-03  4779   0.182E-02    0.150E-01
RMM:   5    -0.233707445844E+04    0.11253E-03   -0.50160E-04  3576   0.999E-03    0.942E-02
RMM:   6    -0.233707437743E+04    0.81006E-04   -0.10167E-04  3122   0.618E-03    0.184E-02
RMM:   7    -0.233707438045E+04   -0.30145E-05   -0.17091E-05  2715   0.340E-03
  38 F= -.23586705E+04 E0= -.23586705E+04  d E =-.962653E-09  mag=     4.0000
       N       E                     dE             d eps       ncg     rms          rms(c)
DAV:   1    -0.233709225336E+04   -0.17876E-01   -0.11904E+00  4960   0.527E-01    0.489E-01
RMM:   2    -0.233708925921E+04    0.29942E-02   -0.15091E-02  4469   0.555E-02    0.326E-01
RMM:   3    -0.233709233514E+04   -0.30759E-02   -0.68050E-03  5500   0.454E-02    0.617E-01
RMM:   4    -0.233708820800E+04    0.41271E-02   -0.28683E-03  5340   0.258E-02    0.213E-01
RMM:   5    -0.233708794138E+04    0.26662E-03   -0.10468E-03  4281   0.137E-02    0.125E-01
RMM:   6    -0.233708778891E+04    0.15247E-03   -0.17423E-04  3475   0.734E-03    0.212E-02
RMM:   7    -0.233708778863E+04    0.28731E-06   -0.24078E-05  2802   0.386E-03
  39 F= -.23586844E+04 E0= -.23586844E+04  d E =-.738930E-09  mag=     4.0000
       N       E                     dE             d eps       ncg     rms          rms(c)
DAV:   1    -0.233709324054E+04   -0.54516E-02   -0.59058E-01  4480   0.369E-01    0.184E-01
RMM:   2    -0.233709327909E+04   -0.38553E-04   -0.15794E-03  3687   0.198E-02    0.115E-01
RMM:   3    -0.233709388199E+04   -0.60289E-03   -0.80665E-04  4681   0.136E-02    0.252E-01
RMM:   4    -0.233709324673E+04    0.63526E-03   -0.42129E-04  3756   0.974E-03    0.358E-02
RMM:   5    -0.233709324184E+04    0.48895E-05   -0.68516E-05  2811   0.449E-03
  40 F= -.23586896E+04 E0= -.23586896E+04  d E =-.838312E-09  mag=     4.0000
       N       E                     dE             d eps       ncg     rms          rms(c)
DAV:   1    -0.233707392108E+04    0.19326E-01   -0.11934E+00  4960   0.540E-01    0.458E-01
RMM:   2    -0.233707155275E+04    0.23683E-02   -0.11893E-02  4405   0.507E-02    0.279E-01
RMM:   3    -0.233707411844E+04   -0.25657E-02   -0.54123E-03  5410   0.397E-02    0.535E-01
RMM:   4    -0.233707088793E+04    0.32305E-02   -0.25656E-03  5310   0.247E-02    0.207E-01
RMM:   5    -0.233707061594E+04    0.27198E-03   -0.81873E-04  3842   0.117E-02    0.112E-01
RMM:   6    -0.233707050737E+04    0.10857E-03   -0.13789E-04  3192   0.675E-03    0.217E-02
RMM:   7    -0.233707051002E+04   -0.26499E-05   -0.26056E-05  2820   0.395E-03
  41 F= -.23586669E+04 E0= -.23586669E+04  d E =-.865104E-09  mag=     4.0000
       N       E                     dE             d eps       ncg     rms          rms(c)
DAV:   1    -0.233708057486E+04   -0.10067E-01   -0.59430E-01  4480   0.374E-01    0.294E-01
RMM:   2    -0.233707970557E+04    0.86929E-03   -0.50985E-03  4650   0.317E-02    0.177E-01
RMM:   3    -0.233708021892E+04   -0.51335E-03   -0.20787E-03  4276   0.259E-02    0.251E-01
RMM:   4    -0.233707935644E+04    0.86248E-03   -0.76357E-04  4183   0.141E-02    0.806E-02
RMM:   5    -0.233707948153E+04   -0.12509E-03   -0.30469E-04  3583   0.780E-03    0.136E-01
RMM:   6    -0.233707930154E+04    0.17999E-03   -0.10841E-04  2889   0.610E-03    0.195E-02
RMM:   7    -0.233707930442E+04   -0.28744E-05   -0.24169E-05  2689   0.281E-03
  42 F= -.23586759E+04 E0= -.23586759E+04  d E =-.909474E-09  mag=     4.0000
       N       E                     dE             d eps       ncg     rms          rms(c)
DAV:   1    -0.233709048735E+04   -0.11186E-01   -0.11759E+00  4480   0.520E-01    0.325E-01
RMM:   2    -0.233709071645E+04   -0.22910E-03   -0.57963E-03  4858   0.393E-02    0.267E-01
RMM:   3    -0.233709086941E+04   -0.15296E-03   -0.24287E-03  4837   0.276E-02    0.291E-01
RMM:   4    -0.233709058552E+04    0.28389E-03   -0.13811E-03  4871   0.165E-02    0.252E-01
RMM:   5    -0.233708995528E+04    0.63024E-03   -0.59161E-04  3791   0.116E-02    0.577E-02
RMM:   6    -0.233708992425E+04    0.31030E-04   -0.45082E-05  2916   0.428E-03    0.166E-02
RMM:   7    -0.233708992645E+04   -0.22015E-05   -0.16188E-05  2663   0.270E-03
  43 F= -.23586860E+04 E0= -.23586860E+04  d E =-.771811E-09  mag=     4.0000
       N       E                     dE             d eps       ncg     rms          rms(c)
DAV:   1    -0.233706899857E+04    0.20926E-01   -0.61218E-01  4880   0.456E-01    0.321E-01
RMM:   2    -0.233706775474E+04    0.12438E-02   -0.73631E-03  4393   0.427E-02    0.185E-01
RMM:   3    -0.233706811950E+04   -0.36476E-03   -0.20793E-03  4426   0.274E-02    0.238E-01
RMM:   4    -0.233706734782E+04    0.77168E-03   -0.89153E-04  4483   0.144E-02    0.722E-02
RMM:   5    -0.233706733347E+04    0.14349E-04   -0.15408E-04  3410   0.686E-03    0.592E-02
RMM:   6    -0.233706731358E+04    0.19891E-04   -0.70425E-05  2682   0.461E-03    0.380E-02
RMM:   7    -0.233706730840E+04    0.51758E-05   -0.18270E-05  2568   0.265E-03
  44 F= -.23586637E+04 E0= -.23586637E+04  d E =-.888401E-09  mag=     4.0000
       N       E                     dE             d eps       ncg     rms          rms(c)
DAV:   1    -0.233709066653E+04   -0.23353E-01   -0.13024E+00  4800   0.635E-01    0.573E-01
RMM:   2    -0.233708566351E+04    0.50030E-02   -0.19499E-02  4314   0.702E-02    0.315E-01
RMM:   3    -0.233708827309E+04   -0.26096E-02   -0.62825E-03  5070   0.484E-02    0.567E-01
RMM:   4    -0.233708480448E+04    0.34686E-02   -0.28767E-03  5476   0.266E-02    0.184E-01
RMM:   5    -0.233708489504E+04   -0.90564E-04   -0.10972E-03  4433   0.141E-02    0.188E-01
RMM:   6    -0.233708451440E+04    0.38065E-03   -0.34889E-04  3740   0.971E-03    0.277E-02
RMM:   7    -0.233708450710E+04    0.72988E-05   -0.27603E-05  2782   0.357E-03
  45 F= -.23586808E+04 E0= -.23586808E+04  d E =-.792335E-09  mag=     4.0000
       N       E                     dE             d eps       ncg     rms          rms(c)
DAV:   1    -0.233708630096E+04   -0.17866E-02   -0.65916E-01  4800   0.456E-01    0.423E-01
RMM:   2    -0.233708350614E+04    0.27948E-02   -0.11078E-02  4044   0.516E-02    0.238E-01
RMM:   3    -0.233708516046E+04   -0.16543E-02   -0.38078E-03  4998   0.371E-02    0.452E-01
RMM:   4    -0.233708294079E+04    0.22197E-02   -0.17427E-03  5156   0.208E-02    0.142E-01
RMM:   5    -0.233708296782E+04   -0.27031E-04   -0.66968E-04  3814   0.110E-02    0.137E-01
RMM:   6    -0.233708276620E+04    0.20162E-03   -0.19886E-04  3482   0.783E-03    0.218E-02
RMM:   7    -0.233708276436E+04    0.18401E-05   -0.21344E-05  2670   0.323E-03
  46 F= -.23586794E+04 E0= -.23586794E+04  d E =-.784867E-09  mag=     4.0000
       N       E                     dE             d eps       ncg     rms          rms(c)
DAV:   1    -0.233708494220E+04   -0.21760E-02   -0.12500E+00  4480   0.618E-01    0.393E-01
RMM:   2    -0.233708383698E+04    0.11052E-02   -0.72717E-03  3884   0.414E-02    0.227E-01
RMM:   3    -0.233708519546E+04   -0.13585E-02   -0.27316E-03  5017   0.299E-02    0.394E-01
RMM:   4    -0.233708358638E+04    0.16091E-02   -0.14080E-03  4877   0.180E-02    0.115E-01
RMM:   5    -0.233708360438E+04   -0.18006E-04   -0.39436E-04  3485   0.887E-03    0.103E-01
RMM:   6    -0.233708348945E+04    0.11493E-03   -0.12754E-04  2908   0.648E-03    0.182E-02
RMM:   7    -0.233708348617E+04    0.32832E-05   -0.13819E-05  2615   0.265E-03
  47 F= -.23586796E+04 E0= -.23586796E+04  d E =-.919454E-09  mag=     4.0000
       N       E                     dE             d eps       ncg     rms          rms(c)
DAV:   1    -0.233708215694E+04    0.13325E-02   -0.61924E-01  4480   0.430E-01    0.240E-01
RMM:   2    -0.233708226503E+04   -0.10809E-03   -0.29206E-03  3650   0.266E-02    0.161E-01
RMM:   3    -0.233708324669E+04   -0.98166E-03   -0.15460E-03  5116   0.182E-02    0.336E-01
RMM:   4    -0.233708218476E+04    0.10619E-02   -0.77003E-04  4317   0.134E-02    0.825E-02
RMM:   5    -0.233708210293E+04    0.81827E-04   -0.13523E-04  2926   0.655E-03    0.228E-02
RMM:   6    -0.233708209456E+04    0.83726E-05   -0.11837E-05  2599   0.287E-03
  48 F= -.23586784E+04 E0= -.23586784E+04  d E =-.960849E-09  mag=     4.0000
       N       E                     dE             d eps       ncg     rms          rms(c)
DAV:   1    -0.233708672503E+04   -0.46221E-02   -0.12337E+00  4480   0.604E-01    0.380E-01
RMM:   2    -0.233708624851E+04    0.47652E-03   -0.70612E-03  4113   0.445E-02    0.235E-01
RMM:   3    -0.233708778241E+04   -0.15339E-02   -0.34131E-03  4717   0.335E-02    0.443E-01
RMM:   4    -0.233708607950E+04    0.17029E-02   -0.16028E-03  4894   0.180E-02    0.120E-01
RMM:   5    -0.233708605792E+04    0.21579E-04   -0.48065E-04  3640   0.109E-02    0.988E-02
RMM:   6    -0.233708592294E+04    0.13498E-03   -0.88496E-05  2880   0.574E-03    0.165E-02
RMM:   7    -0.233708592532E+04   -0.23749E-05   -0.21430E-05  2641   0.295E-03
  49 F= -.23586823E+04 E0= -.23586823E+04  d E =-.754425E-09  mag=     4.0000
