       N       E                     dE             d eps       ncg     rms          rms(c)
DAV:   1     0.117894915274E+05    0.11789E+05   -0.82393E+05  4640   0.139E+03
DAV:   2    -0.133595480525E+04   -0.13125E+05   -0.12648E+05  5280   0.314E+02
DAV:   3    -0.249241922881E+04   -0.11565E+04   -0.11483E+04  5600   0.979E+01
DAV:   4    -0.251434951448E+04   -0.21930E+02   -0.21852E+02  5680   0.154E+01
DAV:   5    -0.251483576499E+04   -0.48625E+00   -0.48551E+00  5920   0.212E+00    0.171E+02
RMM:   6    -0.147779580585E+04    0.10370E+04   -0.18930E+03  4492   0.375E+01    0.734E+01
RMM:   7    -0.163020647602E+04   -0.15241E+03   -0.26372E+02  4964   0.135E+01    0.516E+01
RMM:   8    -0.169052793364E+04   -0.60321E+02   -0.61336E+01  5082   0.735E+00    0.387E+01
RMM:   9    -0.180864592351E+04   -0.11812E+03   -0.64555E+01  4826   0.780E+00    0.260E+01
RMM:  10    -0.195153313483E+04   -0.14289E+03   -0.53234E+01  4838   0.654E+00    0.170E+01
RMM:  11    -0.207869253970E+04   -0.12716E+03   -0.66134E+01  4572   0.606E+00    0.132E+01
RMM:  12    -0.222988276433E+04   -0.15119E+03   -0.13272E+02  4515   0.814E+00    0.705E+00
RMM:  13    -0.229403280114E+04   -0.64150E+02   -0.63804E+01  4508   0.554E+00    0.390E+00
RMM:  14    -0.230609416122E+04   -0.12061E+02   -0.14953E+01  4892   0.331E+00    0.235E+00
RMM:  15    -0.230866026841E+04   -0.25661E+01   -0.37545E+00  5128   0.131E+00    0.157E+00
RMM:  16    -0.230962103371E+04   -0.96077E+00   -0.64636E-01  4796   0.628E-01    0.969E-01
RMM:  17    -0.231010784929E+04   -0.48682E+00   -0.14595E-01  4976   0.376E-01    0.492E-01
RMM:  18    -0.231023550436E+04   -0.12766E+00   -0.48924E-02  4748   0.186E-01    0.359E-01
RMM:  19    -0.231025265098E+04   -0.17147E-01   -0.11948E-02  4773   0.108E-01    0.239E-01
RMM:  20    -0.231028215625E+04   -0.29505E-01   -0.10258E-02  4501   0.827E-02    0.146E-01
RMM:  21    -0.231029550509E+04   -0.13349E-01   -0.52787E-03  4516   0.658E-02    0.120E-01
RMM:  22    -0.231030075419E+04   -0.52491E-02   -0.20580E-03  4714   0.436E-02    0.840E-02
RMM:  23    -0.231030685640E+04   -0.61022E-02   -0.21003E-03  4482   0.356E-02    0.475E-02
RMM:  24    -0.231031332093E+04   -0.64645E-02   -0.21554E-03  4498   0.372E-02    0.304E-02
RMM:  25    -0.231031489742E+04   -0.15765E-02   -0.64810E-04  4175   0.255E-02    0.174E-02
RMM:  26    -0.231031587592E+04   -0.97850E-03   -0.36036E-04  4010   0.142E-02    0.110E-02
RMM:  27    -0.231031620028E+04   -0.32436E-03   -0.14437E-04  3738   0.130E-02    0.605E-03
RMM:  28    -0.231031629350E+04   -0.93222E-04   -0.46056E-05  3578   0.602E-03    0.438E-03
RMM:  29    -0.231031637642E+04   -0.82919E-04   -0.20298E-05  3177   0.473E-03    0.252E-03
RMM:  30    -0.231031641688E+04   -0.40462E-04   -0.13989E-05  3047   0.359E-03    0.192E-03
RMM:  31    -0.231031643032E+04   -0.13444E-04   -0.52774E-06  2651   0.266E-03    0.118E-03
RMM:  32    -0.231031643529E+04   -0.49689E-05   -0.28422E-06  2479   0.184E-03
   1 F= -.23304330E+04 E0= -.23304330E+04  d E =-.113525E-13  mag=     2.0001
       N       E                     dE             d eps       ncg     rms          rms(c)
DAV:   1    -0.231030608791E+04    0.10342E-01   -0.19680E+00  4560   0.595E-01    0.333E-01
RMM:   2    -0.231030612362E+04   -0.35713E-04   -0.83761E-03  4516   0.351E-02    0.217E-01
RMM:   3    -0.231030565692E+04    0.46670E-03   -0.20128E-03  4889   0.191E-02    0.138E-01
RMM:   4    -0.231030545676E+04    0.20016E-03   -0.84653E-04  4025   0.112E-02    0.414E-02
RMM:   5    -0.231030550426E+04   -0.47497E-04   -0.82158E-05  3106   0.642E-03    0.371E-02
RMM:   6    -0.231030550654E+04   -0.22829E-05   -0.18282E-05  2797   0.283E-03
   2 F= -.23304253E+04 E0= -.23304253E+04  d E =-.969114E-15  mag=     2.0000
       N       E                     dE             d eps       ncg     rms          rms(c)
DAV:   1    -0.231031886784E+04   -0.13364E-01   -0.78060E+00  4480   0.118E+00    0.660E-01
RMM:   2    -0.231031834569E+04    0.52215E-03   -0.27168E-02  4647   0.681E-02    0.427E-01
RMM:   3    -0.231031648165E+04    0.18640E-02   -0.74332E-03  5522   0.367E-02    0.268E-01
RMM:   4    -0.231031572699E+04    0.75466E-03   -0.31973E-03  4633   0.214E-02    0.870E-02
RMM:   5    -0.231031592795E+04   -0.20096E-03   -0.36261E-04  3695   0.109E-02    0.804E-02
RMM:   6    -0.231031593028E+04   -0.23300E-05   -0.79069E-05  3031   0.497E-03
   3 F= -.23304291E+04 E0= -.23304291E+04  d E =-.724788E-12  mag=     2.0000
       N       E                     dE             d eps       ncg     rms          rms(c)
DAV:   1    -0.231031365193E+04    0.22760E-02   -0.39418E+00  4480   0.722E-01    0.432E-01
RMM:   2    -0.231031420199E+04   -0.55006E-03   -0.11903E-02  4307   0.411E-02    0.288E-01
RMM:   3    -0.231031381724E+04    0.38474E-03   -0.26920E-03  4653   0.256E-02    0.199E-01
RMM:   4    -0.231031356799E+04    0.24925E-03   -0.14778E-03  4387   0.165E-02    0.109E-01
RMM:   5    -0.231031354248E+04    0.25508E-04   -0.44960E-04  4025   0.947E-03    0.526E-02
RMM:   6    -0.231031355382E+04   -0.11335E-04   -0.72272E-05  2982   0.477E-03    0.332E-02
RMM:   7    -0.231031354866E+04    0.51536E-05   -0.30681E-05  2853   0.320E-03
   4 F= -.23304283E+04 E0= -.23304283E+04  d E =-.128301E-10  mag=     2.0000
       N       E                     dE             d eps       ncg     rms          rms(c)
DAV:   1    -0.231029558734E+04    0.17966E-01   -0.83459E+00  4480   0.124E+00    0.789E-01
RMM:   2    -0.231029752402E+04   -0.19367E-02   -0.32240E-02  4290   0.716E-02    0.599E-01
RMM:   3    -0.231029587017E+04    0.16538E-02   -0.69319E-03  4348   0.471E-02    0.429E-01
RMM:   4    -0.231029433092E+04    0.15392E-02   -0.99568E-03  4911   0.378E-02    0.187E-01
RMM:   5    -0.231029448348E+04   -0.15256E-03   -0.14765E-03  4524   0.228E-02    0.102E-01
RMM:   6    -0.231029442009E+04    0.63392E-04   -0.33998E-04  3546   0.834E-03    0.565E-02
RMM:   7    -0.231029440388E+04    0.16211E-04   -0.77991E-05  3031   0.491E-03    0.231E-02
RMM:   8    -0.231029440325E+04    0.62872E-06   -0.17342E-05  2940   0.307E-03
   5 F= -.23304129E+04 E0= -.23304129E+04  d E =-.548025E-12  mag=     2.0000
       N       E                     dE             d eps       ncg     rms          rms(c)
DAV:   1    -0.231026208212E+04    0.32322E-01   -0.42665E+00  4480   0.838E-01    0.485E-01
RMM:   2    -0.231026251455E+04   -0.43243E-03   -0.22079E-02  4128   0.573E-02    0.319E-01
RMM:   3    -0.231026169559E+04    0.81897E-03   -0.27366E-03  4590   0.261E-02    0.211E-01
RMM:   4    -0.231026131762E+04    0.37797E-03   -0.21728E-03  4860   0.180E-02    0.962E-02
RMM:   5    -0.231026132780E+04   -0.10181E-04   -0.33942E-04  3598   0.108E-02    0.518E-02
RMM:   6    -0.231026134473E+04   -0.16937E-04   -0.94240E-05  2989   0.481E-03    0.352E-02
RMM:   7    -0.231026133533E+04    0.94039E-05   -0.31187E-05  2840   0.320E-03
   6 F= -.23303764E+04 E0= -.23303764E+04  d E =-.236674E-12  mag=     2.0000
       N       E                     dE             d eps       ncg     rms          rms(c)
DAV:   1    -0.231033751926E+04   -0.76175E-01   -0.83281E+00  4480   0.113E+00    0.618E-01
RMM:   2    -0.231033661259E+04    0.90667E-03   -0.32860E-02  4182   0.789E-02    0.360E-01
RMM:   3    -0.231033526399E+04    0.13486E-02   -0.48088E-03  5178   0.324E-02    0.207E-01
RMM:   4    -0.231033482430E+04    0.43969E-03   -0.23136E-03  4734   0.181E-02    0.704E-02
RMM:   5    -0.231033485151E+04   -0.27202E-04   -0.19928E-04  3213   0.870E-03    0.411E-02
RMM:   6    -0.231033485916E+04   -0.76572E-05   -0.37922E-05  2901   0.347E-03
   7 F= -.23304530E+04 E0= -.23304530E+04  d E =-.147229E-10  mag=     2.0000
       N       E                     dE             d eps       ncg     rms          rms(c)
DAV:   1    -0.231032582809E+04    0.90234E-02   -0.42556E+00  4480   0.957E-01    0.393E-01
RMM:   2    -0.231032607148E+04   -0.24338E-03   -0.23197E-02  4147   0.639E-02    0.269E-01
RMM:   3    -0.231032506879E+04    0.10027E-02   -0.21997E-03  4996   0.222E-02    0.149E-01
RMM:   4    -0.231032488386E+04    0.18493E-03   -0.13546E-03  4298   0.133E-02    0.408E-02
RMM:   5    -0.231032489671E+04   -0.12852E-04   -0.11057E-04  3178   0.987E-03    0.300E-02
RMM:   6    -0.231032489231E+04    0.43984E-05   -0.29040E-05  2805   0.248E-03
   8 F= -.23304384E+04 E0= -.23304384E+04  d E =-.187473E-10  mag=     2.0000
       N       E                     dE             d eps       ncg     rms          rms(c)
DAV:   1    -0.231028234682E+04    0.42550E-01   -0.83312E+00  4480   0.129E+00    0.633E-01
RMM:   2    -0.231028107382E+04    0.12730E-02   -0.36750E-02  4304   0.841E-02    0.395E-01
RMM:   3    -0.231027949241E+04    0.15814E-02   -0.45241E-03  4958   0.346E-02    0.212E-01
RMM:   4    -0.231027916999E+04    0.32242E-03   -0.20486E-03  4462   0.178E-02    0.932E-02
RMM:   5    -0.231027919135E+04   -0.21366E-04   -0.35448E-04  3602   0.132E-02    0.384E-02
RMM:   6    -0.231027920955E+04   -0.18198E-04   -0.60877E-05  3104   0.451E-03    0.177E-02
RMM:   7    -0.231027921551E+04   -0.59567E-05   -0.10211E-05  2850   0.290E-03
   9 F= -.23303988E+04 E0= -.23303988E+04  d E =-.176773E-10  mag=     2.0000
       N       E                     dE             d eps       ncg     rms          rms(c)
DAV:   1    -0.231031609645E+04   -0.36887E-01   -0.41171E+00  4480   0.831E-01    0.428E-01
RMM:   2    -0.231031578287E+04    0.31358E-03   -0.12476E-02  4049   0.483E-02    0.251E-01
RMM:   3    -0.231031526687E+04    0.51600E-03   -0.21667E-03  4402   0.257E-02    0.144E-01
RMM:   4    -0.231031522528E+04    0.41588E-04   -0.13568E-03  4550   0.148E-02    0.670E-02
RMM:   5    -0.231031522850E+04   -0.32244E-05   -0.18525E-04  3285   0.857E-03    0.410E-02
RMM:   6    -0.231031521281E+04    0.15690E-04   -0.44927E-05  2928   0.405E-03    0.215E-02
RMM:   7    -0.231031521443E+04   -0.16220E-05   -0.15678E-05  2819   0.269E-03
  10 F= -.23304338E+04 E0= -.23304338E+04  d E =-.822659E-13  mag=     2.0000
       N       E                     dE             d eps       ncg     rms          rms(c)
DAV:   1    -0.231030787071E+04    0.73421E-02   -0.77133E+00  4480   0.117E+00    0.589E-01
RMM:   2    -0.231030819565E+04   -0.32494E-03   -0.20367E-02  4199   0.636E-02    0.352E-01
RMM:   3    -0.231030698509E+04    0.12106E-02   -0.50914E-03  4769   0.384E-02    0.187E-01
RMM:   4    -0.231030702045E+04   -0.35364E-04   -0.20376E-03  4682   0.217E-02    0.976E-02
RMM:   5    -0.231030708676E+04   -0.66313E-04   -0.27765E-04  3664   0.864E-03    0.729E-02
RMM:   6    -0.231030705450E+04    0.32264E-04   -0.96899E-05  3050   0.538E-03    0.461E-02
RMM:   7    -0.231030704582E+04    0.86850E-05   -0.62435E-05  3004   0.463E-03
  11 F= -.23304216E+04 E0= -.23304216E+04  d E =-.508550E-11  mag=     2.0000
       N       E                     dE             d eps       ncg     rms          rms(c)
DAV:   1    -0.231030475813E+04    0.22964E-02   -0.39043E+00  4480   0.811E-01    0.426E-01
RMM:   2    -0.231030438233E+04    0.37581E-03   -0.11826E-02  4387   0.475E-02    0.252E-01
RMM:   3    -0.231030370142E+04    0.68091E-03   -0.29106E-03  5091   0.263E-02    0.153E-01
RMM:   4    -0.231030349142E+04    0.21000E-03   -0.11345E-03  4309   0.140E-02    0.540E-02
RMM:   5    -0.231030355727E+04   -0.65857E-04   -0.12352E-04  3262   0.675E-03    0.487E-02
RMM:   6    -0.231030355396E+04    0.33104E-05   -0.27689E-05  2824   0.334E-03
  12 F= -.23304227E+04 E0= -.23304227E+04  d E =-.638409E-14  mag=     2.0000
       N       E                     dE             d eps       ncg     rms          rms(c)
DAV:   1    -0.231029822661E+04    0.53307E-02   -0.83847E+00  4480   0.143E+00    0.681E-01
RMM:   2    -0.231029653861E+04    0.16880E-02   -0.29366E-02  4200   0.779E-02    0.428E-01
RMM:   3    -0.231029435765E+04    0.21810E-02   -0.96977E-03  5254   0.435E-02    0.231E-01
RMM:   4    -0.231029392305E+04    0.43460E-03   -0.30829E-03  4813   0.250E-02    0.874E-02
RMM:   5    -0.231029403104E+04   -0.10800E-03   -0.31420E-04  3548   0.913E-03    0.672E-02
RMM:   6    -0.231029403003E+04    0.10106E-05   -0.80229E-05  3046   0.503E-03
  13 F= -.23304081E+04 E0= -.23304081E+04  d E =-.810462E-12  mag=     2.0000
       N       E                     dE             d eps       ncg     rms          rms(c)
DAV:   1    -0.231030518166E+04   -0.11151E-01   -0.24324E+00  4480   0.768E-01    0.408E-01
RMM:   2    -0.231030390534E+04    0.12763E-02   -0.10453E-02  4018   0.474E-02    0.238E-01
RMM:   3    -0.231030316946E+04    0.73588E-03   -0.23569E-03  4774   0.231E-02    0.105E-01
RMM:   4    -0.231030320335E+04   -0.33888E-04   -0.70626E-04  3943   0.119E-02    0.441E-02
RMM:   5    -0.231030320361E+04   -0.25875E-06   -0.89053E-05  3121   0.552E-03
  14 F= -.23304199E+04 E0= -.23304199E+04  d E =-.879729E-11  mag=     2.0000
       N       E                     dE             d eps       ncg     rms          rms(c)
DAV:   1    -0.231032493810E+04   -0.21735E-01   -0.12834E+00  4720   0.500E-01    0.484E-01
RMM:   2    -0.231032260429E+04    0.23338E-02   -0.98553E-03  4196   0.384E-02    0.284E-01
RMM:   3    -0.231032201497E+04    0.58932E-03   -0.17109E-03  4162   0.192E-02    0.161E-01
RMM:   4    -0.231032189454E+04    0.12043E-03   -0.88652E-04  4438   0.127E-02    0.664E-02
RMM:   5    -0.231032185134E+04    0.43202E-04   -0.17567E-04  3312   0.744E-03    0.234E-02
RMM:   6    -0.231032185558E+04   -0.42367E-05   -0.32251E-05  2948   0.366E-03
  15 F= -.23304384E+04 E0= -.23304384E+04  d E =-.114308E-10  mag=     2.0000
       N       E                     dE             d eps       ncg     rms          rms(c)
DAV:   1    -0.231029879058E+04    0.23061E-01   -0.62968E-01  4640   0.350E-01    0.301E-01
RMM:   2    -0.231029842029E+04    0.37029E-03   -0.25560E-03  3845   0.215E-02    0.178E-01
RMM:   3    -0.231029830046E+04    0.11983E-03   -0.69763E-04  4145   0.107E-02    0.929E-02
RMM:   4    -0.231029823659E+04    0.63868E-04   -0.31048E-04  3520   0.842E-03    0.414E-02
RMM:   5    -0.231029822426E+04    0.12331E-04   -0.43003E-05  2911   0.401E-03    0.184E-02
RMM:   6    -0.231029822390E+04    0.35843E-06   -0.13091E-05  2788   0.245E-03
  16 F= -.23304147E+04 E0= -.23304147E+04  d E =-.129844E-10  mag=     2.0000
       N       E                     dE             d eps       ncg     rms          rms(c)
DAV:   1    -0.231032119653E+04   -0.22972E-01   -0.13129E+00  4960   0.515E-01    0.605E-01
RMM:   2    -0.231031615606E+04    0.50405E-02   -0.23054E-02  4481   0.552E-02    0.341E-01
RMM:   3    -0.231031490566E+04    0.12504E-02   -0.33014E-03  4753   0.261E-02    0.193E-01
RMM:   4    -0.231031461485E+04    0.29080E-03   -0.13094E-03  4673   0.147E-02    0.910E-02
RMM:   5    -0.231031455530E+04    0.59552E-04   -0.26360E-04  3495   0.790E-03    0.418E-02
RMM:   6    -0.231031453704E+04    0.18259E-04   -0.67233E-05  3122   0.447E-03    0.241E-02
RMM:   7    -0.231031452999E+04    0.70571E-05   -0.24906E-05  2888   0.363E-03
  17 F= -.23304312E+04 E0= -.23304312E+04  d E =-.375735E-11  mag=     2.0000
       N       E                     dE             d eps       ncg     rms          rms(c)
DAV:   1    -0.231030946589E+04    0.50712E-02   -0.63356E-01  4640   0.370E-01    0.317E-01
RMM:   2    -0.231030874631E+04    0.71958E-03   -0.53379E-03  3959   0.279E-02    0.189E-01
RMM:   3    -0.231030851142E+04    0.23490E-03   -0.68014E-04  4297   0.126E-02    0.114E-01
RMM:   4    -0.231030845895E+04    0.52465E-04   -0.42920E-04  4020   0.921E-03    0.558E-02
RMM:   5    -0.231030843708E+04    0.21870E-04   -0.13032E-04  3162   0.591E-03    0.256E-02
RMM:   6    -0.231030844433E+04   -0.72518E-05   -0.25348E-05  2826   0.346E-03
  18 F= -.23304253E+04 E0= -.23304253E+04  d E =-.108696E-11  mag=     2.0000
       N       E                     dE             d eps       ncg     rms          rms(c)
DAV:   1    -0.231032159252E+04   -0.13155E-01   -0.12081E+00  4480   0.487E-01    0.380E-01
RMM:   2    -0.231032206949E+04   -0.47697E-03   -0.49471E-03  4143   0.306E-02    0.275E-01
RMM:   3    -0.231032185591E+04    0.21359E-03   -0.16942E-03  4677   0.183E-02    0.185E-01
RMM:   4    -0.231032157251E+04    0.28340E-03   -0.11330E-03  4275   0.137E-02    0.770E-02
RMM:   5    -0.231032162894E+04   -0.56433E-04   -0.15266E-04  3340   0.697E-03    0.489E-02
RMM:   6    -0.231032163240E+04   -0.34635E-05   -0.44382E-05  2885   0.397E-03
  19 F= -.23304380E+04 E0= -.23304380E+04  d E =-.790985E-12  mag=     2.0000
       N       E                     dE             d eps       ncg     rms          rms(c)
DAV:   1    -0.231032713314E+04   -0.55042E-02   -0.60361E-01  4640   0.346E-01    0.276E-01
RMM:   2    -0.231032717071E+04   -0.37569E-04   -0.27732E-03  3884   0.246E-02    0.181E-01
RMM:   3    -0.231032701274E+04    0.15797E-03   -0.82846E-04  4419   0.128E-02    0.100E-01
RMM:   4    -0.231032694191E+04    0.70828E-04   -0.33426E-04  3435   0.809E-03    0.433E-02
RMM:   5    -0.231032695423E+04   -0.12312E-04   -0.59027E-05  2951   0.459E-03    0.279E-02
RMM:   6    -0.231032695823E+04   -0.40004E-05   -0.16387E-05  2656   0.258E-03
  20 F= -.23304432E+04 E0= -.23304432E+04  d E =-.169877E-11  mag=     2.0000
       N       E                     dE             d eps       ncg     rms          rms(c)
DAV:   1    -0.231030108636E+04    0.25868E-01   -0.11775E+00  4880   0.443E-01    0.386E-01
RMM:   2    -0.231030012020E+04    0.96616E-03   -0.63882E-03  4022   0.293E-02    0.221E-01
RMM:   3    -0.231029981840E+04    0.30180E-03   -0.77580E-04  3789   0.131E-02    0.104E-01
RMM:   4    -0.231029985992E+04   -0.41523E-04   -0.35456E-04  3570   0.796E-03    0.360E-02
RMM:   5    -0.231029984729E+04    0.12634E-04   -0.51136E-05  2889   0.455E-03    0.215E-02
RMM:   6    -0.231029984602E+04    0.12741E-05   -0.14735E-05  2654   0.251E-03
  21 F= -.23304168E+04 E0= -.23304168E+04  d E =-.891101E-11  mag=     2.0000
       N       E                     dE             d eps       ncg     rms          rms(c)
DAV:   1    -0.231030929128E+04   -0.94440E-02   -0.58785E-01  4560   0.306E-01    0.238E-01
RMM:   2    -0.231030927953E+04    0.11754E-04   -0.16878E-03  3760   0.172E-02    0.151E-01
RMM:   3    -0.231030931037E+04   -0.30843E-04   -0.76149E-04  4198   0.105E-02    0.951E-02
RMM:   4    -0.231030921020E+04    0.10017E-03   -0.24139E-04  3286   0.743E-03    0.315E-02
RMM:   5    -0.231030920812E+04    0.20797E-05   -0.51556E-05  2881   0.352E-03
  22 F= -.23304258E+04 E0= -.23304258E+04  d E =-.209672E-11  mag=     2.0000
       N       E                     dE             d eps       ncg     rms          rms(c)
DAV:   1    -0.231031912778E+04   -0.99176E-02   -0.11945E+00  4720   0.436E-01    0.357E-01
RMM:   2    -0.231031902860E+04    0.99179E-04   -0.57545E-03  4199   0.295E-02    0.241E-01
RMM:   3    -0.231031885304E+04    0.17556E-03   -0.13499E-03  4539   0.161E-02    0.159E-01
RMM:   4    -0.231031867751E+04    0.17553E-03   -0.72520E-04  4141   0.113E-02    0.587E-02
RMM:   5    -0.231031868221E+04   -0.46948E-05   -0.11674E-04  3098   0.575E-03    0.290E-02
RMM:   6    -0.231031869797E+04   -0.15763E-04   -0.23554E-05  2822   0.332E-03    0.250E-02
RMM:   7    -0.231031869549E+04    0.24811E-05   -0.13862E-05  2686   0.215E-03
  23 F= -.23304353E+04 E0= -.23304353E+04  d E =-.554100E-11  mag=     2.0000
       N       E                     dE             d eps       ncg     rms          rms(c)
DAV:   1    -0.231034116808E+04   -0.22470E-01   -0.61835E-01  4640   0.323E-01    0.289E-01
RMM:   2    -0.231034068177E+04    0.48631E-03   -0.47379E-03  3978   0.255E-02    0.170E-01
RMM:   3    -0.231034046799E+04    0.21378E-03   -0.74179E-04  4027   0.126E-02    0.928E-02
RMM:   4    -0.231034044265E+04    0.25342E-04   -0.38804E-04  3760   0.823E-03    0.383E-02
RMM:   5    -0.231034043184E+04    0.10810E-04   -0.65221E-05  2974   0.448E-03    0.181E-02
RMM:   6    -0.231034043403E+04   -0.21910E-05   -0.11693E-05  2604   0.249E-03
  24 F= -.23304563E+04 E0= -.23304563E+04  d E =-.238143E-11  mag=     2.0000
       N       E                     dE             d eps       ncg     rms          rms(c)
DAV:   1    -0.231028077906E+04    0.59653E-01   -0.12563E+00  5040   0.480E-01    0.580E-01
RMM:   2    -0.231027600220E+04    0.47769E-02   -0.22999E-02  4396   0.517E-02    0.322E-01
RMM:   3    -0.231027479940E+04    0.12028E-02   -0.35534E-03  4591   0.273E-02    0.185E-01
RMM:   4    -0.231027450368E+04    0.29571E-03   -0.14517E-03  4514   0.145E-02    0.770E-02
RMM:   5    -0.231027443946E+04    0.64222E-04   -0.23936E-04  3411   0.701E-03    0.272E-02
RMM:   6    -0.231027443372E+04    0.57417E-05   -0.45800E-05  2958   0.417E-03
  25 F= -.23303919E+04 E0= -.23303919E+04  d E =-.442844E-11  mag=     2.0000
       N       E                     dE             d eps       ncg     rms          rms(c)
DAV:   1    -0.231030891160E+04   -0.34472E-01   -0.63128E-01  4960   0.364E-01    0.363E-01
RMM:   2    -0.231030742235E+04    0.14893E-02   -0.81680E-03  4239   0.353E-02    0.219E-01
RMM:   3    -0.231030697768E+04    0.44467E-03   -0.21496E-03  4777   0.185E-02    0.136E-01
RMM:   4    -0.231030678781E+04    0.18987E-03   -0.67081E-04  4165   0.101E-02    0.416E-02
RMM:   5    -0.231030676643E+04    0.21378E-04   -0.96741E-05  3089   0.642E-03    0.169E-02
RMM:   6    -0.231030676858E+04   -0.21431E-05   -0.18853E-05  2808   0.255E-03
  26 F= -.23304231E+04 E0= -.23304231E+04  d E =-.114458E-11  mag=     2.0000
       N       E                     dE             d eps       ncg     rms          rms(c)
DAV:   1    -0.231031661101E+04   -0.98446E-02   -0.12566E+00  4480   0.500E-01    0.501E-01
RMM:   2    -0.231031371294E+04    0.28981E-02   -0.13920E-02  4345   0.458E-02    0.286E-01
RMM:   3    -0.231031305631E+04    0.65663E-03   -0.19678E-03  4743   0.203E-02    0.167E-01
RMM:   4    -0.231031292293E+04    0.13338E-03   -0.95781E-04  4504   0.128E-02    0.718E-02
RMM:   5    -0.231031287352E+04    0.49414E-04   -0.17545E-04  3340   0.734E-03    0.248E-02
RMM:   6    -0.231031287670E+04   -0.31882E-05   -0.39578E-05  2985   0.385E-03
  27 F= -.23304298E+04 E0= -.23304298E+04  d E =-.896939E-11  mag=     2.0000
       N       E                     dE             d eps       ncg     rms          rms(c)
DAV:   1    -0.231031054494E+04    0.23286E-02   -0.62188E-01  4480   0.352E-01    0.349E-01
RMM:   2    -0.231030924169E+04    0.13033E-02   -0.63978E-03  4412   0.313E-02    0.210E-01
RMM:   3    -0.231030892133E+04    0.32036E-03   -0.11444E-03  4312   0.148E-02    0.124E-01
RMM:   4    -0.231030882051E+04    0.10081E-03   -0.42941E-04  3904   0.898E-03    0.499E-02
RMM:   5    -0.231030880385E+04    0.16661E-04   -0.83821E-05  3036   0.543E-03    0.185E-02
RMM:   6    -0.231030880299E+04    0.86823E-06   -0.18905E-05  2842   0.299E-03
  28 F= -.23304254E+04 E0= -.23304254E+04  d E =-.636374E-11  mag=     2.0000
       N       E                     dE             d eps       ncg     rms          rms(c)
DAV:   1    -0.231032282856E+04   -0.14025E-01   -0.12043E+00  4480   0.481E-01    0.395E-01
RMM:   2    -0.231032223415E+04    0.59440E-03   -0.54580E-03  4366   0.317E-02    0.244E-01
RMM:   3    -0.231032196645E+04    0.26770E-03   -0.14680E-03  4690   0.161E-02    0.145E-01
RMM:   4    -0.231032182039E+04    0.14606E-03   -0.54572E-04  3899   0.107E-02    0.383E-02
RMM:   5    -0.231032182680E+04   -0.64064E-05   -0.68768E-05  2996   0.487E-03
  29 F= -.23304384E+04 E0= -.23304384E+04  d E =-.126917E-11  mag=     2.0000
       N       E                     dE             d eps       ncg     rms          rms(c)
DAV:   1    -0.231029585948E+04    0.25961E-01   -0.60695E-01  4480   0.341E-01    0.289E-01
RMM:   2    -0.231029533368E+04    0.52580E-03   -0.32183E-03  4218   0.247E-02    0.175E-01
RMM:   3    -0.231029513613E+04    0.19755E-03   -0.69973E-04  3934   0.111E-02    0.104E-01
RMM:   4    -0.231029507514E+04    0.60995E-04   -0.30566E-04  3742   0.814E-03    0.354E-02
RMM:   5    -0.231029506746E+04    0.76739E-05   -0.46598E-05  2903   0.432E-03
  30 F= -.23304122E+04 E0= -.23304122E+04  d E =-.288459E-11  mag=     2.0000
       N       E                     dE             d eps       ncg     rms          rms(c)
DAV:   1    -0.231032871143E+04   -0.33636E-01   -0.12470E+00  4880   0.501E-01    0.558E-01
RMM:   2    -0.231032489387E+04    0.38176E-02   -0.18663E-02  4729   0.528E-02    0.359E-01
RMM:   3    -0.231032365488E+04    0.12390E-02   -0.33460E-03  4737   0.263E-02    0.203E-01
RMM:   4    -0.231032334025E+04    0.31463E-03   -0.11118E-03  4232   0.135E-02    0.816E-02
RMM:   5    -0.231032329895E+04    0.41296E-04   -0.23978E-04  3407   0.915E-03    0.257E-02
RMM:   6    -0.231032330053E+04   -0.15774E-05   -0.44619E-05  3010   0.406E-03
  31 F= -.23304394E+04 E0= -.23304394E+04  d E =-.430011E-11  mag=     2.0000
       N       E                     dE             d eps       ncg     rms          rms(c)
DAV:   1    -0.231031281088E+04    0.10488E-01   -0.61513E-01  4800   0.393E-01    0.307E-01
RMM:   2    -0.231031200190E+04    0.80898E-03   -0.44735E-03  4198   0.286E-02    0.190E-01
RMM:   3    -0.231031173341E+04    0.26849E-03   -0.10844E-03  4314   0.138E-02    0.114E-01
RMM:   4    -0.231031163733E+04    0.96082E-04   -0.45039E-04  3971   0.914E-03    0.325E-02
RMM:   5    -0.231031163188E+04    0.54434E-05   -0.50473E-05  2911   0.512E-03
  32 F= -.23304277E+04 E0= -.23304277E+04  d E =-.188874E-11  mag=     2.0000
       N       E                     dE             d eps       ncg     rms          rms(c)
DAV:   1    -0.231031629722E+04   -0.46599E-02   -0.12092E+00  4560   0.541E-01    0.372E-01
RMM:   2    -0.231031559580E+04    0.70142E-03   -0.60686E-03  3865   0.329E-02    0.214E-01
RMM:   3    -0.231031535764E+04    0.23815E-03   -0.13164E-03  4654   0.154E-02    0.106E-01
RMM:   4    -0.231031533427E+04    0.23370E-04   -0.45893E-04  3772   0.985E-03    0.347E-02
RMM:   5    -0.231031532349E+04    0.10779E-04   -0.59985E-05  3080   0.437E-03    0.146E-02
RMM:   6    -0.231031532262E+04    0.87474E-06   -0.12872E-05  2739   0.261E-03
  33 F= -.23304324E+04 E0= -.23304324E+04  d E =-.432940E-11  mag=     2.0000
       N       E                     dE             d eps       ncg     rms          rms(c)
DAV:   1    -0.231030426802E+04    0.11055E-01   -0.60043E-01  4480   0.374E-01    0.238E-01
RMM:   2    -0.231030425032E+04    0.17704E-04   -0.19693E-03  3792   0.213E-02    0.149E-01
RMM:   3    -0.231030424079E+04    0.95345E-05   -0.66467E-04  4317   0.100E-02    0.912E-02
RMM:   4    -0.231030416783E+04    0.72960E-04   -0.21174E-04  3594   0.749E-03    0.189E-02
RMM:   5    -0.231030416918E+04   -0.13585E-05   -0.26234E-05  2810   0.314E-03
  34 F= -.23304213E+04 E0= -.23304213E+04  d E =-.147775E-11  mag=     2.0000
       N       E                     dE             d eps       ncg     rms          rms(c)
DAV:   1    -0.231032413157E+04   -0.19964E-01   -0.12442E+00  4480   0.549E-01    0.440E-01
RMM:   2    -0.231032287464E+04    0.12569E-02   -0.99246E-03  4331   0.400E-02    0.275E-01
RMM:   3    -0.231032228829E+04    0.58635E-03   -0.21338E-03  4656   0.209E-02    0.166E-01
RMM:   4    -0.231032210986E+04    0.17843E-03   -0.69739E-04  3963   0.117E-02    0.491E-02
RMM:   5    -0.231032210761E+04    0.22566E-05   -0.10028E-04  3176   0.614E-03    0.220E-02
RMM:   6    -0.231032210200E+04    0.56075E-05   -0.23830E-05  2868   0.312E-03
  35 F= -.23304382E+04 E0= -.23304382E+04  d E =-.523148E-11  mag=     2.0000
       N       E                     dE             d eps       ncg     rms          rms(c)
DAV:   1    -0.231032729731E+04   -0.51897E-02   -0.61325E-01  4480   0.379E-01    0.288E-01
RMM:   2    -0.231032691893E+04    0.37838E-03   -0.31467E-03  3782   0.236E-02    0.167E-01
RMM:   3    -0.231032674888E+04    0.17005E-03   -0.51072E-04  3860   0.112E-02    0.790E-02
RMM:   4    -0.231032675366E+04   -0.47772E-05   -0.20242E-04  3447   0.691E-03    0.266E-02
RMM:   5    -0.231032674645E+04    0.72060E-05   -0.25846E-05  2800   0.396E-03
  36 F= -.23304430E+04 E0= -.23304430E+04  d E =-.166694E-11  mag=     2.0000
       N       E                     dE             d eps       ncg     rms          rms(c)
DAV:   1    -0.231029227266E+04    0.34481E-01   -0.12772E+00  4960   0.559E-01    0.588E-01
RMM:   2    -0.231028773989E+04    0.45328E-02   -0.24267E-02  4354   0.602E-02    0.356E-01
RMM:   3    -0.231028632148E+04    0.14184E-02   -0.36009E-03  4824   0.284E-02    0.198E-01
RMM:   4    -0.231028601860E+04    0.30287E-03   -0.12204E-03  4396   0.147E-02    0.796E-02
RMM:   5    -0.231028596715E+04    0.51456E-04   -0.24223E-04  3516   0.793E-03    0.254E-02
RMM:   6    -0.231028596104E+04    0.61088E-05   -0.45896E-05  3039   0.419E-03
  37 F= -.23304029E+04 E0= -.23304029E+04  d E =-.403084E-11  mag=     2.0000
