       N       E                     dE             d eps       ncg     rms          rms(c)
DAV:   1     0.130949906515E+05    0.13095E+05   -0.84176E+05  4544   0.144E+03
DAV:   2    -0.101685445393E+04   -0.14112E+05   -0.13483E+05  4936   0.331E+02
DAV:   3    -0.248003203147E+04   -0.14632E+04   -0.14448E+04  5552   0.115E+02
DAV:   4    -0.252577929119E+04   -0.45747E+02   -0.45498E+02  6720   0.293E+01
DAV:   5    -0.252664418619E+04   -0.86490E+00   -0.86283E+00  6312   0.349E+00    0.170E+02
RMM:   6    -0.148930538282E+04    0.10373E+04   -0.19623E+03  4467   0.383E+01    0.728E+01
RMM:   7    -0.167528674158E+04   -0.18598E+03   -0.29954E+02  5228   0.148E+01    0.562E+01
RMM:   8    -0.170614479193E+04   -0.30858E+02   -0.86526E+01  5181   0.849E+00    0.427E+01
RMM:   9    -0.178166065033E+04   -0.75516E+02   -0.51956E+01  5082   0.731E+00    0.314E+01
RMM:  10    -0.191732013277E+04   -0.13566E+03   -0.63038E+01  5466   0.755E+00    0.262E+01
RMM:  11    -0.200604594238E+04   -0.88726E+02   -0.38828E+01  5500   0.523E+00    0.164E+01
RMM:  12    -0.210726633553E+04   -0.10122E+03   -0.51200E+01  4778   0.546E+00    0.169E+01
RMM:  13    -0.215528632646E+04   -0.48020E+02   -0.21145E+01  5266   0.380E+00    0.123E+01
RMM:  14    -0.226338080567E+04   -0.10809E+03   -0.89398E+01  4462   0.673E+00    0.995E+00
RMM:  15    -0.229930501747E+04   -0.35924E+02   -0.31989E+01  4498   0.434E+00    0.487E+00
RMM:  16    -0.231477708471E+04   -0.15472E+02   -0.15215E+01  4915   0.286E+00    0.281E+00
RMM:  17    -0.231987224861E+04   -0.50952E+01   -0.47962E+00  4923   0.149E+00    0.228E+00
RMM:  18    -0.232123101898E+04   -0.13588E+01   -0.14254E+00  5198   0.728E-01    0.300E+00
RMM:  19    -0.232132021819E+04   -0.89199E-01   -0.16032E-01  5739   0.274E-01    0.317E+00
RMM:  20    -0.232157865492E+04   -0.25844E+00   -0.31678E-01  4636   0.281E-01    0.192E+00
RMM:  21    -0.232207479360E+04   -0.49614E+00   -0.24977E-01  4566   0.273E-01    0.232E+00
RMM:  22    -0.232201250572E+04    0.62288E-01   -0.28869E-01  4724   0.262E-01    0.351E+00
RMM:  23    -0.232218512596E+04   -0.17262E+00   -0.86722E-02  4934   0.125E-01    0.297E+00
RMM:  24    -0.232242578763E+04   -0.24066E+00   -0.21482E-01  4519   0.172E-01    0.260E+00
RMM:  25    -0.232287666636E+04   -0.45088E+00   -0.85394E-01  4586   0.344E-01    0.437E+00
RMM:  26    -0.232299375377E+04   -0.11709E+00   -0.19769E-01  4635   0.250E-01    0.313E+00
RMM:  27    -0.232300202634E+04   -0.82726E-02   -0.61808E-02  5660   0.114E-01    0.217E+00
RMM:  28    -0.232300676010E+04   -0.47338E-02   -0.84920E-03  5726   0.465E-02    0.188E+00
RMM:  29    -0.232304660763E+04   -0.39848E-01   -0.27228E-02  4821   0.769E-02    0.111E+00
RMM:  30    -0.232312031283E+04   -0.73705E-01   -0.27615E-02  4523   0.952E-02    0.734E-01
RMM:  31    -0.232317315368E+04   -0.52841E-01   -0.28050E-02  4681   0.962E-02    0.308E-01
RMM:  32    -0.232320983211E+04   -0.36678E-01   -0.11388E-02  4591   0.747E-02    0.265E-01
RMM:  33    -0.232323065874E+04   -0.20827E-01   -0.60403E-03  4722   0.539E-02    0.141E-01
RMM:  34    -0.232323768826E+04   -0.70295E-02   -0.20655E-03  4952   0.342E-02    0.197E-01
RMM:  35    -0.232324259594E+04   -0.49077E-02   -0.17484E-03  4307   0.242E-02    0.385E-02
RMM:  36    -0.232324453161E+04   -0.19357E-02   -0.44358E-04  4184   0.171E-02    0.313E-02
RMM:  37    -0.232324558398E+04   -0.10524E-02   -0.29708E-04  4024   0.110E-02    0.164E-02
RMM:  38    -0.232324586590E+04   -0.28192E-03   -0.77363E-05  3831   0.831E-03    0.778E-03
RMM:  39    -0.232324597924E+04   -0.11334E-03   -0.29596E-05  3218   0.412E-03    0.699E-03
RMM:  40    -0.232324605954E+04   -0.80300E-04   -0.14674E-05  2958   0.402E-03    0.481E-03
RMM:  41    -0.232324609765E+04   -0.38106E-04   -0.86134E-06  2843   0.289E-03    0.509E-03
RMM:  42    -0.232324611405E+04   -0.16403E-04   -0.40884E-06  2518   0.243E-03    0.364E-03
RMM:  43    -0.232324611951E+04   -0.54581E-05   -0.23620E-06  2498   0.178E-03
   1 F= -.23446409E+04 E0= -.23446409E+04  d E =-.234464E+04  mag=     2.0000
       N       E                     dE             d eps       ncg     rms          rms(c)
DAV:   1    -0.232315514176E+04    0.90972E-01   -0.54032E+00  5072   0.190E+00    0.788E-01
RMM:   2    -0.232332349258E+04   -0.16835E+00   -0.16828E+00  6613   0.593E-01    0.118E+00
RMM:   3    -0.232332429119E+04   -0.79861E-03   -0.19611E-01  6450   0.222E-01    0.700E-01
RMM:   4    -0.232332024018E+04    0.40510E-02   -0.15874E-02  5795   0.492E-02    0.518E-01
RMM:   5    -0.232331826354E+04    0.19766E-02   -0.20374E-03  5005   0.202E-02    0.259E-01
RMM:   6    -0.232331705637E+04    0.12072E-02   -0.40276E-03  5782   0.296E-02    0.115E-01
RMM:   7    -0.232331701015E+04    0.46219E-04   -0.61616E-04  5178   0.157E-02    0.547E-02
RMM:   8    -0.232331699882E+04    0.11326E-04   -0.12207E-04  3146   0.718E-03    0.518E-02
RMM:   9    -0.232331695508E+04    0.43744E-04   -0.57501E-05  2988   0.533E-03    0.172E-02
RMM:  10    -0.232331694825E+04    0.68298E-05   -0.36753E-05  3122   0.336E-03
   2 F= -.23447120E+04 E0= -.23447120E+04  d E =-.710993E-01  mag=     2.0000
       N       E                     dE             d eps       ncg     rms          rms(c)
DAV:   1    -0.232322276595E+04    0.94189E-01   -0.37307E+00  4736   0.157E+00    0.647E-01
RMM:   2    -0.232333767979E+04   -0.11491E+00   -0.11464E+00  6614   0.481E-01    0.959E-01
RMM:   3    -0.232333818241E+04   -0.50262E-03   -0.12934E-01  6447   0.177E-01    0.570E-01
RMM:   4    -0.232333552576E+04    0.26566E-02   -0.10906E-02  5633   0.400E-02    0.418E-01
RMM:   5    -0.232333421952E+04    0.13062E-02   -0.13793E-03  4603   0.167E-02    0.213E-01
RMM:   6    -0.232333340248E+04    0.81705E-03   -0.27655E-03  5673   0.243E-02    0.102E-01
RMM:   7    -0.232333342501E+04   -0.22534E-04   -0.55683E-04  4896   0.143E-02    0.830E-02
RMM:   8    -0.232333333986E+04    0.85150E-04   -0.15038E-04  3150   0.702E-03    0.354E-02
RMM:   9    -0.232333331383E+04    0.26029E-04   -0.39556E-05  2976   0.475E-03    0.140E-02
RMM:  10    -0.232333330948E+04    0.43483E-05   -0.22862E-05  3017   0.305E-03
   3 F= -.23447287E+04 E0= -.23447287E+04  d E =-.877808E-01  mag=     2.0000
       N       E                     dE             d eps       ncg     rms          rms(c)
DAV:   1    -0.232334298260E+04   -0.96688E-02   -0.23545E+00  4672   0.158E+00    0.621E-01
RMM:   2    -0.232337934729E+04   -0.36365E-01   -0.34928E-01  6117   0.384E-01    0.713E-01
RMM:   3    -0.232337762832E+04    0.17190E-02   -0.40586E-02  6033   0.149E-01    0.484E-01
RMM:   4    -0.232337542061E+04    0.22077E-02   -0.48668E-03  5571   0.400E-02    0.395E-01
RMM:   5    -0.232337412900E+04    0.12916E-02   -0.13377E-03  5026   0.233E-02    0.144E-01
RMM:   6    -0.232337378644E+04    0.34256E-03   -0.10607E-03  4782   0.209E-02    0.604E-02
RMM:   7    -0.232337379237E+04   -0.59320E-05   -0.25295E-04  4010   0.154E-02    0.619E-02
RMM:   8    -0.232337373142E+04    0.60953E-04   -0.74065E-05  3216   0.552E-03    0.200E-02
RMM:   9    -0.232337372025E+04    0.11167E-04   -0.15384E-05  2943   0.412E-03    0.102E-02
RMM:  10    -0.232337371518E+04    0.50689E-05   -0.13993E-05  2895   0.359E-03
   4 F= -.23447695E+04 E0= -.23447695E+04  d E =-.408138E-01  mag=     2.0000
       N       E                     dE             d eps       ncg     rms          rms(c)
DAV:   1    -0.232336200598E+04    0.11714E-01   -0.16865E+00  4640   0.134E+00    0.527E-01
RMM:   2    -0.232338839592E+04   -0.26390E-01   -0.25161E-01  6148   0.329E-01    0.617E-01
RMM:   3    -0.232338688534E+04    0.15106E-02   -0.28910E-02  6042   0.124E-01    0.410E-01
RMM:   4    -0.232338539584E+04    0.14895E-02   -0.35834E-03  5489   0.340E-02    0.344E-01
RMM:   5    -0.232338438647E+04    0.10094E-02   -0.10002E-03  4916   0.203E-02    0.120E-01
RMM:   6    -0.232338412702E+04    0.25945E-03   -0.79105E-04  4762   0.181E-02    0.461E-02
RMM:   7    -0.232338412403E+04    0.29977E-05   -0.14797E-04  3785   0.131E-02    0.459E-02
RMM:   8    -0.232338409133E+04    0.32695E-04   -0.49500E-05  3028   0.473E-03    0.180E-02
RMM:   9    -0.232338408212E+04    0.92084E-05   -0.11535E-05  2917   0.376E-03
   5 F= -.23447802E+04 E0= -.23447802E+04  d E =-.514977E-01  mag=     2.0000
       N       E                     dE             d eps       ncg     rms          rms(c)
DAV:   1    -0.232340101167E+04   -0.16920E-01   -0.61388E-01  4688   0.719E-01    0.252E-01
RMM:   2    -0.232341001114E+04   -0.89995E-02   -0.91937E-02  6113   0.179E-01    0.277E-01
RMM:   3    -0.232341046088E+04   -0.44974E-03   -0.10679E-02  5852   0.666E-02    0.231E-01
RMM:   4    -0.232341001447E+04    0.44641E-03   -0.12065E-03  4771   0.166E-02    0.170E-01
RMM:   5    -0.232340978336E+04    0.23111E-03   -0.27234E-04  3287   0.926E-03    0.755E-02
RMM:   6    -0.232340971444E+04    0.68924E-04   -0.25014E-04  4485   0.106E-02    0.282E-02
RMM:   7    -0.232340972490E+04   -0.10463E-04   -0.70571E-05  3076   0.789E-03    0.336E-02
RMM:   8    -0.232340970831E+04    0.16590E-04   -0.23175E-05  2922   0.397E-03    0.922E-03
RMM:   9    -0.232340970624E+04    0.20723E-05   -0.53146E-06  2837   0.241E-03
   6 F= -.23448060E+04 E0= -.23448060E+04  d E =-.257972E-01  mag=     2.0000
       N       E                     dE             d eps       ncg     rms          rms(c)
DAV:   1    -0.232337801814E+04    0.31690E-01   -0.55124E+00  4560   0.216E+00    0.757E-01
RMM:   2    -0.232345813331E+04   -0.80115E-01   -0.82406E-01  6131   0.549E-01    0.804E-01
RMM:   3    -0.232346248276E+04   -0.43494E-02   -0.96785E-02  6119   0.203E-01    0.648E-01
RMM:   4    -0.232345870806E+04    0.37747E-02   -0.10593E-02  5982   0.497E-02    0.499E-01
RMM:   5    -0.232345678832E+04    0.19197E-02   -0.23799E-03  5521   0.245E-02    0.232E-01
RMM:   6    -0.232345611773E+04    0.67058E-03   -0.19908E-03  5125   0.269E-02    0.939E-02
RMM:   7    -0.232345619258E+04   -0.74841E-04   -0.68780E-04  4592   0.204E-02    0.107E-01
RMM:   8    -0.232345601245E+04    0.18013E-03   -0.20450E-04  3923   0.805E-03    0.269E-02
RMM:   9    -0.232345598922E+04    0.23229E-04   -0.34079E-05  2960   0.497E-03    0.142E-02
RMM:  10    -0.232345597828E+04    0.10940E-04   -0.25266E-05  2953   0.406E-03    0.559E-03
RMM:  11    -0.232345597548E+04    0.28000E-05   -0.75326E-06  2903   0.375E-03
   7 F= -.23448527E+04 E0= -.23448527E+04  d E =-.725095E-01  mag=     2.0000
       N       E                     dE             d eps       ncg     rms          rms(c)
DAV:   1    -0.232310047720E+04    0.35550E+00   -0.21891E+01  4504   0.437E+00    0.153E+00
RMM:   2    -0.232342106150E+04   -0.32058E+00   -0.32975E+00  6162   0.112E+00    0.162E+00
RMM:   3    -0.232343453120E+04   -0.13470E-01   -0.38230E-01  6168   0.405E-01    0.118E+00
RMM:   4    -0.232342070625E+04    0.13825E-01   -0.40675E-02  6102   0.994E-02    0.929E-01
RMM:   5    -0.232341464628E+04    0.60600E-02   -0.94470E-03  5868   0.481E-02    0.499E-01
RMM:   6    -0.232341214690E+04    0.24994E-02   -0.74926E-03  5201   0.501E-02    0.251E-01
RMM:   7    -0.232341201129E+04    0.13560E-03   -0.33120E-03  5035   0.401E-02    0.207E-01
RMM:   8    -0.232341132404E+04    0.68725E-03   -0.73077E-04  5310   0.156E-02    0.521E-02
RMM:   9    -0.232341124181E+04    0.82229E-04   -0.11921E-04  3535   0.801E-03    0.277E-02
RMM:  10    -0.232341120011E+04    0.41702E-04   -0.79545E-05  3923   0.717E-03    0.119E-02
RMM:  11    -0.232341118896E+04    0.11150E-04   -0.25734E-05  3129   0.555E-03    0.756E-03
RMM:  12    -0.232341118450E+04    0.44630E-05   -0.16327E-05  2906   0.428E-03
   8 F= -.23448084E+04 E0= -.23448084E+04  d E =-.282733E-01  mag=     2.0000
       N       E                     dE             d eps       ncg     rms          rms(c)
DAV:   1    -0.232328932866E+04    0.12186E+00   -0.11951E+01  4516   0.324E+00    0.119E+00
RMM:   2    -0.232349173336E+04   -0.20240E+00   -0.19329E+00  6234   0.842E-01    0.169E+00
RMM:   3    -0.232347530931E+04    0.16424E-01   -0.19651E-01  6106   0.285E-01    0.102E+00
RMM:   4    -0.232346900287E+04    0.63064E-02   -0.26880E-02  6201   0.731E-02    0.778E-01
RMM:   5    -0.232346378231E+04    0.52206E-02   -0.62028E-03  5956   0.394E-02    0.342E-01
RMM:   6    -0.232346327006E+04    0.51225E-03   -0.55066E-03  5500   0.405E-02    0.290E-01
RMM:   7    -0.232346230040E+04    0.96966E-03   -0.25682E-03  5434   0.320E-02    0.119E-01
RMM:   8    -0.232346204915E+04    0.25126E-03   -0.25110E-04  4374   0.103E-02    0.386E-02
RMM:   9    -0.232346199539E+04    0.53756E-04   -0.10359E-04  3287   0.769E-03    0.200E-02
RMM:  10    -0.232346197615E+04    0.19239E-04   -0.42915E-05  3203   0.568E-03    0.847E-03
RMM:  11    -0.232346196931E+04    0.68380E-05   -0.13283E-05  2906   0.473E-03
   9 F= -.23448589E+04 E0= -.23448589E+04  d E =-.786895E-01  mag=     2.0000
       N       E                     dE             d eps       ncg     rms          rms(c)
DAV:   1    -0.232345036527E+04    0.11611E-01   -0.17522E+00  4560   0.117E+00    0.430E-01
RMM:   2    -0.232348631084E+04   -0.35946E-01   -0.37498E-01  6426   0.316E-01    0.509E-01
RMM:   3    -0.232348987090E+04   -0.35601E-02   -0.40909E-02  6199   0.112E-01    0.557E-01
RMM:   4    -0.232348700969E+04    0.28612E-02   -0.37916E-03  5568   0.279E-02    0.139E-01
RMM:   5    -0.232348704969E+04   -0.39999E-04   -0.95530E-04  5005   0.160E-02    0.159E-01
RMM:   6    -0.232348670426E+04    0.34543E-03   -0.60242E-04  5121   0.137E-02    0.648E-02
RMM:   7    -0.232348671024E+04   -0.59721E-05   -0.22283E-04  3583   0.104E-02    0.683E-02
RMM:   8    -0.232348664374E+04    0.66494E-04   -0.56410E-05  2957   0.581E-03    0.129E-02
RMM:   9    -0.232348663685E+04    0.68895E-05   -0.12906E-05  2938   0.352E-03
  10 F= -.23448838E+04 E0= -.23448838E+04  d E =-.249456E-01  mag=     2.0000
       N       E                     dE             d eps       ncg     rms          rms(c)
DAV:   1    -0.232332742455E+04    0.15922E+00   -0.84024E+00  4516   0.258E+00    0.936E-01
RMM:   2    -0.232349889085E+04   -0.17147E+00   -0.18106E+00  6442   0.689E-01    0.103E+00
RMM:   3    -0.232351993863E+04   -0.21048E-01   -0.19796E-01  6296   0.245E-01    0.129E+00
RMM:   4    -0.232350490597E+04    0.15033E-01   -0.18590E-02  6080   0.619E-02    0.313E-01
RMM:   5    -0.232350521548E+04   -0.30951E-03   -0.43468E-03  5697   0.314E-02    0.364E-01
RMM:   6    -0.232350336761E+04    0.18479E-02   -0.29254E-03  5748   0.289E-02    0.142E-01
RMM:   7    -0.232350323706E+04    0.13056E-03   -0.87265E-04  5264   0.192E-02    0.106E-01
RMM:   8    -0.232350309747E+04    0.13959E-03   -0.26976E-04  3822   0.976E-03    0.436E-02
RMM:   9    -0.232350304650E+04    0.50962E-04   -0.55175E-05  3118   0.611E-03    0.221E-02
RMM:  10    -0.232350302924E+04    0.17265E-04   -0.34033E-05  3147   0.512E-03    0.848E-03
RMM:  11    -0.232350302484E+04    0.43954E-05   -0.13002E-05  2926   0.444E-03
  11 F= -.23449009E+04 E0= -.23449009E+04  d E =-.419949E-01  mag=     2.0000
       N       E                     dE             d eps       ncg     rms          rms(c)
DAV:   1    -0.232348901089E+04    0.14018E-01   -0.11408E+00  4688   0.888E-01    0.357E-01
RMM:   2    -0.232351894848E+04   -0.29938E-01   -0.30407E-01  6587   0.259E-01    0.520E-01
RMM:   3    -0.232352060079E+04   -0.16523E-02   -0.32625E-02  6162   0.924E-02    0.431E-01
RMM:   4    -0.232351895694E+04    0.16439E-02   -0.27932E-03  4723   0.214E-02    0.112E-01
RMM:   5    -0.232351892833E+04    0.28615E-04   -0.54451E-04  4488   0.118E-02    0.114E-01
RMM:   6    -0.232351878810E+04    0.14022E-03   -0.29762E-04  3868   0.944E-03    0.584E-02
RMM:   7    -0.232351875585E+04    0.32249E-04   -0.76770E-05  3112   0.680E-03    0.203E-02
RMM:   8    -0.232351875534E+04    0.51298E-06   -0.22020E-05  2919   0.462E-03
  12 F= -.23449169E+04 E0= -.23449169E+04  d E =-.160003E-01  mag=     2.0000
       N       E                     dE             d eps       ncg     rms          rms(c)
DAV:   1    -0.232326711687E+04    0.25164E+00   -0.10259E+01  4516   0.267E+00    0.107E+00
RMM:   2    -0.232353320620E+04   -0.26609E+00   -0.27571E+00  6603   0.765E-01    0.140E+00
RMM:   3    -0.232355795790E+04   -0.24752E-01   -0.30467E-01  6371   0.277E-01    0.142E+00
RMM:   4    -0.232354061623E+04    0.17342E-01   -0.26658E-02  6067   0.677E-02    0.385E-01
RMM:   5    -0.232354052328E+04    0.92959E-04   -0.44406E-03  5600   0.295E-02    0.387E-01
RMM:   6    -0.232353865111E+04    0.18722E-02   -0.31473E-03  5672   0.279E-02    0.185E-01
RMM:   7    -0.232353868581E+04   -0.34697E-04   -0.15507E-03  5300   0.203E-02    0.158E-01
RMM:   8    -0.232353834774E+04    0.33807E-03   -0.47217E-04  3986   0.116E-02    0.444E-02
RMM:   9    -0.232353831183E+04    0.35915E-04   -0.63936E-05  3085   0.581E-03    0.220E-02
RMM:  10    -0.232353830519E+04    0.66367E-05   -0.24105E-05  2959   0.407E-03
  13 F= -.23449373E+04 E0= -.23449373E+04  d E =-.364533E-01  mag=     2.0000
       N       E                     dE             d eps       ncg     rms          rms(c)
DAV:   1    -0.232354585440E+04   -0.75426E-02   -0.37787E-01  4688   0.604E-01    0.230E-01
RMM:   2    -0.232355268950E+04   -0.68351E-02   -0.72257E-02  6267   0.147E-01    0.201E-01
RMM:   3    -0.232355308345E+04   -0.39395E-03   -0.83249E-03  5889   0.613E-02    0.180E-01
RMM:   4    -0.232355279479E+04    0.28866E-03   -0.91783E-04  5117   0.158E-02    0.135E-01
RMM:   5    -0.232355268959E+04    0.10520E-03   -0.25051E-04  3111   0.917E-03    0.872E-02
RMM:   6    -0.232355269227E+04   -0.26768E-05   -0.24908E-04  4307   0.102E-02    0.861E-02
RMM:   7    -0.232355259161E+04    0.10066E-03   -0.13314E-04  3502   0.884E-03    0.229E-02
RMM:   8    -0.232355258166E+04    0.99471E-05   -0.18341E-05  2936   0.459E-03
  14 F= -.23449518E+04 E0= -.23449518E+04  d E =-.144809E-01  mag=     2.0000
       N       E                     dE             d eps       ncg     rms          rms(c)
DAV:   1    -0.232354301706E+04    0.95746E-02   -0.10195E+00  4560   0.994E-01    0.379E-01
RMM:   2    -0.232356160698E+04   -0.18590E-01   -0.19605E-01  6253   0.242E-01    0.341E-01
RMM:   3    -0.232356271452E+04   -0.11075E-02   -0.22666E-02  6100   0.968E-02    0.323E-01
RMM:   4    -0.232356186690E+04    0.84762E-03   -0.25959E-03  5753   0.257E-02    0.238E-01
RMM:   5    -0.232356148673E+04    0.38017E-03   -0.72583E-04  4472   0.145E-02    0.135E-01
RMM:   6    -0.232356147938E+04    0.73468E-05   -0.65666E-04  5115   0.154E-02    0.135E-01
RMM:   7    -0.232356121943E+04    0.25995E-03   -0.35467E-04  4499   0.132E-02    0.369E-02
RMM:   8    -0.232356118987E+04    0.29565E-04   -0.44416E-05  3172   0.550E-03    0.113E-02
RMM:   9    -0.232356118433E+04    0.55405E-05   -0.10069E-05  2920   0.453E-03
  15 F= -.23449607E+04 E0= -.23449607E+04  d E =-.234234E-01  mag=     2.0000
       N       E                     dE             d eps       ncg     rms          rms(c)
DAV:   1    -0.232355427067E+04    0.69192E-02   -0.84902E-01  4576   0.830E-01    0.312E-01
RMM:   2    -0.232357491649E+04   -0.20646E-01   -0.20878E-01  6514   0.227E-01    0.384E-01
RMM:   3    -0.232357605407E+04   -0.11376E-02   -0.22809E-02  6229   0.857E-02    0.356E-01
RMM:   4    -0.232357516897E+04    0.88510E-03   -0.27897E-03  4903   0.206E-02    0.180E-01
RMM:   5    -0.232357486677E+04    0.30220E-03   -0.46332E-04  3370   0.106E-02    0.891E-02
RMM:   6    -0.232357484499E+04    0.21779E-04   -0.31985E-04  4463   0.104E-02    0.905E-02
RMM:   7    -0.232357474824E+04    0.96756E-04   -0.21140E-04  3545   0.964E-03    0.390E-02
RMM:   8    -0.232357473136E+04    0.16878E-04   -0.36743E-05  2994   0.538E-03    0.999E-03
RMM:   9    -0.232357473032E+04    0.10423E-05   -0.63896E-06  2892   0.383E-03
  16 F= -.23449743E+04 E0= -.23449743E+04  d E =-.136106E-01  mag=     2.0000
       N       E                     dE             d eps       ncg     rms          rms(c)
DAV:   1    -0.232349520623E+04    0.79525E-01   -0.37616E+00  4516   0.175E+00    0.661E-01
RMM:   2    -0.232358770085E+04   -0.92495E-01   -0.92867E-01  6518   0.482E-01    0.851E-01
RMM:   3    -0.232359154480E+04   -0.38439E-02   -0.10239E-01  6386   0.180E-01    0.720E-01
RMM:   4    -0.232358802198E+04    0.35228E-02   -0.12347E-02  6005   0.431E-02    0.380E-01
RMM:   5    -0.232358665601E+04    0.13660E-02   -0.20455E-03  5155   0.207E-02    0.188E-01
RMM:   6    -0.232358654666E+04    0.10935E-03   -0.14027E-03  5360   0.192E-02    0.189E-01
RMM:   7    -0.232358610392E+04    0.44274E-03   -0.92674E-04  5154   0.181E-02    0.798E-02
RMM:   8    -0.232358602580E+04    0.78122E-04   -0.15375E-04  4057   0.819E-03    0.209E-02
RMM:   9    -0.232358601829E+04    0.75038E-05   -0.19137E-05  2944   0.580E-03
  17 F= -.23449858E+04 E0= -.23449858E+04  d E =-.250350E-01  mag=     2.0000
       N       E                     dE             d eps       ncg     rms          rms(c)
DAV:   1    -0.232358093367E+04    0.50921E-02   -0.76181E-01  4560   0.787E-01    0.284E-01
RMM:   2    -0.232359877835E+04   -0.17845E-01   -0.17968E-01  6535   0.213E-01    0.365E-01
RMM:   3    -0.232359952629E+04   -0.74794E-03   -0.18081E-02  6050   0.751E-02    0.301E-01
RMM:   4    -0.232359885215E+04    0.67414E-03   -0.22856E-03  4840   0.188E-02    0.156E-01
RMM:   5    -0.232359866220E+04    0.18995E-03   -0.36070E-04  3279   0.100E-02    0.852E-02
RMM:   6    -0.232359862566E+04    0.36545E-04   -0.26664E-04  4320   0.103E-02    0.772E-02
RMM:   7    -0.232359857058E+04    0.55074E-04   -0.16262E-04  3245   0.862E-03    0.392E-02
RMM:   8    -0.232359855265E+04    0.17931E-04   -0.30276E-05  2933   0.515E-03    0.102E-02
RMM:   9    -0.232359855158E+04    0.10669E-05   -0.59859E-06  2883   0.343E-03
  18 F= -.23449981E+04 E0= -.23449981E+04  d E =-.122968E-01  mag=     2.0000
       N       E                     dE             d eps       ncg     rms          rms(c)
DAV:   1    -0.232345786970E+04    0.14068E+00   -0.68370E+00  4504   0.236E+00    0.857E-01
RMM:   2    -0.232362169202E+04   -0.16382E+00   -0.16315E+00  6528   0.646E-01    0.119E+00
RMM:   3    -0.232362470621E+04   -0.30142E-02   -0.16589E-01  6366   0.225E-01    0.860E-01
RMM:   4    -0.232361947838E+04    0.52278E-02   -0.20659E-02  6008   0.554E-02    0.453E-01
RMM:   5    -0.232361789042E+04    0.15880E-02   -0.31954E-03  5610   0.268E-02    0.257E-01
RMM:   6    -0.232361733827E+04    0.55215E-03   -0.23227E-03  5398   0.271E-02    0.204E-01
RMM:   7    -0.232361706026E+04    0.27801E-03   -0.13710E-03  5045   0.219E-02    0.133E-01
RMM:   8    -0.232361682473E+04    0.23553E-03   -0.27168E-04  4396   0.101E-02    0.317E-02
RMM:   9    -0.232361680438E+04    0.20352E-04   -0.42399E-05  2958   0.688E-03    0.207E-02
RMM:  10    -0.232361679988E+04    0.45038E-05   -0.26088E-05  2924   0.403E-03
  19 F= -.23450156E+04 E0= -.23450156E+04  d E =-.298226E-01  mag=     2.0000
       N       E                     dE             d eps       ncg     rms          rms(c)
DAV:   1    -0.232360679096E+04    0.10013E-01   -0.12154E+00  4576   0.992E-01    0.369E-01
RMM:   2    -0.232363512176E+04   -0.28331E-01   -0.27675E-01  6511   0.260E-01    0.530E-01
RMM:   3    -0.232363452516E+04    0.59660E-03   -0.30967E-02  6023   0.979E-02    0.305E-01
RMM:   4    -0.232363402285E+04    0.50230E-03   -0.33699E-03  5313   0.227E-02    0.244E-01
RMM:   5    -0.232363356926E+04    0.45359E-03   -0.54628E-04  3326   0.112E-02    0.101E-01
RMM:   6    -0.232363352641E+04    0.42853E-04   -0.42078E-04  4523   0.112E-02    0.993E-02
RMM:   7    -0.232363342016E+04    0.10624E-03   -0.29147E-04  3681   0.105E-02    0.422E-02
RMM:   8    -0.232363339759E+04    0.22575E-04   -0.37868E-05  2959   0.528E-03    0.122E-02
RMM:   9    -0.232363339486E+04    0.27288E-05   -0.81014E-06  2897   0.361E-03
  20 F= -.23450323E+04 E0= -.23450323E+04  d E =-.166832E-01  mag=     2.0000
       N       E                     dE             d eps       ncg     rms          rms(c)
DAV:   1    -0.232349324372E+04    0.14015E+00   -0.71041E+00  4504   0.238E+00    0.896E-01
RMM:   2    -0.232366089352E+04   -0.16765E+00   -0.16317E+00  6515   0.622E-01    0.133E+00
RMM:   3    -0.232365593084E+04    0.49627E-02   -0.18370E-01  6225   0.236E-01    0.745E-01
RMM:   4    -0.232365280450E+04    0.31263E-02   -0.20002E-02  6081   0.542E-02    0.571E-01
RMM:   5    -0.232365036443E+04    0.24401E-02   -0.31228E-03  5504   0.248E-02    0.245E-01
RMM:   6    -0.232365021944E+04    0.14499E-03   -0.23092E-03  5372   0.230E-02    0.263E-01
RMM:   7    -0.232364945700E+04    0.76244E-03   -0.19264E-03  5435   0.238E-02    0.102E-01
RMM:   8    -0.232364931968E+04    0.13732E-03   -0.22447E-04  3872   0.914E-03    0.336E-02
RMM:   9    -0.232364929629E+04    0.23395E-04   -0.42494E-05  2942   0.640E-03    0.197E-02
RMM:  10    -0.232364929198E+04    0.43101E-05   -0.32007E-05  2946   0.423E-03
  21 F= -.23450484E+04 E0= -.23450484E+04  d E =-.327957E-01  mag=     2.0000
       N       E                     dE             d eps       ncg     rms          rms(c)
DAV:   1    -0.232364541641E+04    0.38799E-02   -0.87311E-01  4688   0.820E-01    0.308E-01
RMM:   2    -0.232366484621E+04   -0.19430E-01   -0.17915E-01  6570   0.211E-01    0.538E-01
RMM:   3    -0.232366287560E+04    0.19706E-02   -0.18393E-02  5933   0.751E-02    0.239E-01
RMM:   4    -0.232366272853E+04    0.14708E-03   -0.23243E-03  4779   0.191E-02    0.218E-01
RMM:   5    -0.232366232737E+04    0.40115E-03   -0.42755E-04  3175   0.101E-02    0.819E-02
RMM:   6    -0.232366233805E+04   -0.10680E-04   -0.31604E-04  3940   0.951E-03    0.885E-02
RMM:   7    -0.232366225118E+04    0.86876E-04   -0.19613E-04  3246   0.866E-03    0.329E-02
RMM:   8    -0.232366223933E+04    0.11844E-04   -0.23682E-05  2949   0.467E-03    0.968E-03
RMM:   9    -0.232366223820E+04    0.11373E-05   -0.54574E-06  2847   0.262E-03
  22 F= -.23450618E+04 E0= -.23450618E+04  d E =-.133954E-01  mag=     2.0000
       N       E                     dE             d eps       ncg     rms          rms(c)
DAV:   1    -0.232353657812E+04    0.12566E+00   -0.78460E+00  4504   0.244E+00    0.932E-01
RMM:   2    -0.232371338727E+04   -0.17681E+00   -0.16150E+00  6577   0.627E-01    0.166E+00
RMM:   3    -0.232369195637E+04    0.21431E-01   -0.16657E-01  6280   0.227E-01    0.694E-01
RMM:   4    -0.232369060543E+04    0.13509E-02   -0.21385E-02  6184   0.564E-02    0.626E-01
RMM:   5    -0.232368733958E+04    0.32659E-02   -0.37212E-03  5635   0.270E-02    0.246E-01
RMM:   6    -0.232368754807E+04   -0.20849E-03   -0.25771E-03  5457   0.229E-02    0.291E-01
RMM:   7    -0.232368659710E+04    0.95097E-03   -0.20603E-03  5532   0.236E-02    0.945E-02
RMM:   8    -0.232368648400E+04    0.11310E-03   -0.20309E-04  3258   0.850E-03    0.328E-02
RMM:   9    -0.232368646644E+04    0.17555E-04   -0.40345E-05  2918   0.552E-03    0.148E-02
RMM:  10    -0.232368646623E+04    0.21765E-06   -0.26300E-05  2930   0.384E-03
  23 F= -.23450874E+04 E0= -.23450874E+04  d E =-.389852E-01  mag=     2.0000
       N       E                     dE             d eps       ncg     rms          rms(c)
DAV:   1    -0.232304738265E+04    0.63908E+00   -0.31168E+01  4504   0.481E+00    0.191E+00
RMM:   2    -0.232379431247E+04   -0.74693E+00   -0.66914E+00  6580   0.126E+00    0.357E+00
RMM:   3    -0.232367141938E+04    0.12289E+00   -0.66561E-01  6295   0.448E-01    0.134E+00
RMM:   4    -0.232366515584E+04    0.62635E-02   -0.86504E-02  6261   0.112E-01    0.116E+00
RMM:   5    -0.232365416929E+04    0.10987E-01   -0.14465E-02  6116   0.517E-02    0.498E-01
RMM:   6    -0.232365480788E+04   -0.63859E-03   -0.86696E-03  5761   0.404E-02    0.611E-01
RMM:   7    -0.232365092449E+04    0.38834E-02   -0.91377E-03  6042   0.487E-02    0.204E-01
RMM:   8    -0.232365040604E+04    0.51844E-03   -0.10305E-03  5020   0.180E-02    0.882E-02
RMM:   9    -0.232365031143E+04    0.94614E-04   -0.18230E-04  3189   0.932E-03    0.336E-02
RMM:  10    -0.232365031110E+04    0.32921E-06   -0.92500E-05  3115   0.623E-03
  24 F= -.23450540E+04 E0= -.23450540E+04  d E =-.557899E-02  mag=     2.0000
       N       E                     dE             d eps       ncg     rms          rms(c)
DAV:   1    -0.232331468951E+04    0.33562E+00   -0.19671E+01  4504   0.377E+00    0.142E+00
RMM:   2    -0.232372771275E+04   -0.41302E+00   -0.39288E+00  6592   0.938E-01    0.227E+00
RMM:   3    -0.232370654565E+04    0.21167E-01   -0.41244E-01  6278   0.346E-01    0.121E+00
RMM:   4    -0.232370047060E+04    0.60751E-02   -0.48070E-02  6348   0.874E-02    0.102E+00
RMM:   5    -0.232369124473E+04    0.92259E-02   -0.98510E-03  6025   0.434E-02    0.364E-01
RMM:   6    -0.232368979782E+04    0.14469E-02   -0.58942E-03  4873   0.385E-02    0.243E-01
RMM:   7    -0.232368973131E+04    0.66515E-04   -0.26004E-03  4755   0.321E-02    0.199E-01
RMM:   8    -0.232368922645E+04    0.50486E-03   -0.55912E-04  4666   0.133E-02    0.483E-02
RMM:   9    -0.232368918160E+04    0.44851E-04   -0.81929E-05  3004   0.694E-03    0.234E-02
RMM:  10    -0.232368917185E+04    0.97535E-05   -0.44882E-05  2936   0.479E-03
  25 F= -.23450907E+04 E0= -.23450907E+04  d E =-.422615E-01  mag=     2.0000
       N       E                     dE             d eps       ncg     rms          rms(c)
DAV:   1    -0.232368790642E+04    0.12752E-02   -0.19241E+00  4516   0.117E+00    0.463E-01
RMM:   2    -0.232372523077E+04   -0.37324E-01   -0.31530E-01  6550   0.304E-01    0.964E-01
RMM:   3    -0.232371838301E+04    0.68478E-02   -0.29880E-02  6344   0.100E-01    0.315E-01
RMM:   4    -0.232371770951E+04    0.67350E-03   -0.41202E-03  5518   0.275E-02    0.186E-01
RMM:   5    -0.232371743518E+04    0.27433E-03   -0.99651E-04  4610   0.159E-02    0.132E-01
RMM:   6    -0.232371737343E+04    0.61747E-04   -0.72084E-04  5208   0.153E-02    0.116E-01
RMM:   7    -0.232371723577E+04    0.13766E-03   -0.25703E-04  3096   0.108E-02    0.562E-02
RMM:   8    -0.232371719679E+04    0.38988E-04   -0.38980E-05  2959   0.476E-03    0.133E-02
RMM:   9    -0.232371719268E+04    0.41106E-05   -0.11149E-05  2931   0.316E-03
  26 F= -.23451188E+04 E0= -.23451188E+04  d E =-.281551E-01  mag=     2.0000
       N       E                     dE             d eps       ncg     rms          rms(c)
DAV:   1    -0.232361419857E+04    0.10300E+00   -0.81357E+00  4504   0.240E+00    0.964E-01
RMM:   2    -0.232377548596E+04   -0.16129E+00   -0.13608E+00  6550   0.630E-01    0.199E+00
RMM:   3    -0.232374385462E+04    0.31631E-01   -0.12626E-01  6414   0.206E-01    0.614E-01
RMM:   4    -0.232374135823E+04    0.24964E-02   -0.17497E-02  5829   0.562E-02    0.377E-01
RMM:   5    -0.232374037367E+04    0.98456E-03   -0.40612E-03  5677   0.316E-02    0.289E-01
RMM:   6    -0.232374010534E+04    0.26833E-03   -0.30331E-03  5614   0.292E-02    0.255E-01
RMM:   7    -0.232373937642E+04    0.72892E-03   -0.12943E-03  4837   0.207E-02    0.110E-01
RMM:   8    -0.232373922518E+04    0.15124E-03   -0.16661E-04  3387   0.739E-03    0.284E-02
RMM:   9    -0.232373920637E+04    0.18809E-04   -0.40168E-05  2953   0.560E-03    0.128E-02
RMM:  10    -0.232373920336E+04    0.30037E-05   -0.25754E-05  2941   0.412E-03
  27 F= -.23451411E+04 E0= -.23451411E+04  d E =-.504383E-01  mag=     2.0000
       N       E                     dE             d eps       ncg     rms          rms(c)
DAV:   1    -0.232373527958E+04    0.39268E-02   -0.13343E+00  4592   0.912E-01    0.405E-01
RMM:   2    -0.232376872033E+04   -0.33441E-01   -0.28117E-01  6660   0.260E-01    0.889E-01
RMM:   3    -0.232376282362E+04    0.58967E-02   -0.27161E-02  6347   0.876E-02    0.245E-01
RMM:   4    -0.232376249023E+04    0.33339E-03   -0.33309E-03  4915   0.216E-02    0.138E-01
RMM:   5    -0.232376235882E+04    0.13141E-03   -0.60011E-04  3737   0.111E-02    0.110E-01
RMM:   6    -0.232376226100E+04    0.97820E-04   -0.45633E-04  4813   0.120E-02    0.708E-02
RMM:   7    -0.232376225202E+04    0.89825E-05   -0.13017E-04  2955   0.774E-03    0.550E-02
RMM:   8    -0.232376221007E+04    0.41945E-04   -0.34941E-05  2911   0.401E-03    0.128E-02
RMM:   9    -0.232376220673E+04    0.33475E-05   -0.79088E-06  2878   0.229E-03
  28 F= -.23451639E+04 E0= -.23451639E+04  d E =-.227882E-01  mag=     2.0000
       N       E                     dE             d eps       ncg     rms          rms(c)
DAV:   1    -0.232358424538E+04    0.17796E+00   -0.10396E+01  4504   0.255E+00    0.114E+00
RMM:   2    -0.232384501103E+04   -0.26077E+00   -0.22270E+00  6660   0.738E-01    0.238E+00
RMM:   3    -0.232380208518E+04    0.42926E-01   -0.22520E-01  6462   0.253E-01    0.690E-01
RMM:   4    -0.232379944154E+04    0.26436E-02   -0.26219E-02  5984   0.610E-02    0.391E-01
RMM:   5    -0.232379860361E+04    0.83793E-03   -0.46793E-03  5629   0.289E-02    0.341E-01
RMM:   6    -0.232379821436E+04    0.38925E-03   -0.37410E-03  5836   0.300E-02    0.290E-01
RMM:   7    -0.232379733388E+04    0.88049E-03   -0.17342E-03  5004   0.209E-02    0.136E-01
RMM:   8    -0.232379711028E+04    0.22360E-03   -0.24516E-04  3331   0.836E-03    0.382E-02
RMM:   9    -0.232379708183E+04    0.28450E-04   -0.55757E-05  2943   0.586E-03    0.172E-02
RMM:  10    -0.232379707793E+04    0.39048E-05   -0.35547E-05  2923   0.424E-03
  29 F= -.23451982E+04 E0= -.23451982E+04  d E =-.570781E-01  mag=     2.0000
       N       E                     dE             d eps       ncg     rms          rms(c)
DAV:   1    -0.232378292468E+04    0.14157E-01   -0.79303E-01  4672   0.702E-01    0.319E-01
RMM:   2    -0.232380293803E+04   -0.20013E-01   -0.16837E-01  6650   0.201E-01    0.687E-01
RMM:   3    -0.232379930716E+04    0.36309E-02   -0.16852E-02  6197   0.684E-02    0.183E-01
RMM:   4    -0.232379910250E+04    0.20465E-03   -0.19312E-03  4075   0.166E-02    0.101E-01
RMM:   5    -0.232379905012E+04    0.52380E-04   -0.33769E-04  3275   0.892E-03    0.864E-02
RMM:   6    -0.232379898281E+04    0.67313E-04   -0.26080E-04  4203   0.979E-03    0.520E-02
RMM:   7    -0.232379898024E+04    0.25744E-05   -0.69458E-05  2933   0.630E-03
  30 F= -.23451999E+04 E0= -.23451999E+04  d E =-.588285E-01  mag=     2.0000
       N       E                     dE             d eps       ncg     rms          rms(c)
DAV:   1    -0.232379486458E+04    0.41182E-02   -0.12505E+00  4528   0.970E-01    0.396E-01
RMM:   2    -0.232382354184E+04   -0.28677E-01   -0.27195E-01  6250   0.254E-01    0.602E-01
RMM:   3    -0.232382227871E+04    0.12631E-02   -0.32808E-02  5954   0.106E-01    0.309E-01
RMM:   4    -0.232382157573E+04    0.70299E-03   -0.31870E-03  5209   0.252E-02    0.189E-01
RMM:   5    -0.232382132611E+04    0.24962E-03   -0.59082E-04  3872   0.141E-02    0.123E-01
RMM:   6    -0.232382116164E+04    0.16447E-03   -0.55632E-04  4884   0.145E-02    0.730E-02
RMM:   7    -0.232382112922E+04    0.32416E-04   -0.24075E-04  3257   0.118E-02    0.493E-02
RMM:   8    -0.232382109118E+04    0.38045E-04   -0.40939E-05  2916   0.530E-03    0.121E-02
RMM:   9    -0.232382108732E+04    0.38548E-05   -0.98086E-06  2916   0.345E-03
  31 F= -.23452220E+04 E0= -.23452220E+04  d E =-.220775E-01  mag=     2.0000
       N       E                     dE             d eps       ncg     rms          rms(c)
DAV:   1    -0.232377363208E+04    0.47459E-01   -0.28611E+00  4504   0.147E+00    0.595E-01
RMM:   2    -0.232383856530E+04   -0.64933E-01   -0.61882E-01  6251   0.386E-01    0.897E-01
RMM:   3    -0.232383656111E+04    0.20042E-02   -0.77368E-02  6025   0.163E-01    0.482E-01
RMM:   4    -0.232383488394E+04    0.16772E-02   -0.74318E-03  5475   0.382E-02    0.291E-01
RMM:   5    -0.232383425527E+04    0.62867E-03   -0.13703E-03  5031   0.208E-02    0.185E-01
RMM:   6    -0.232383395240E+04    0.30287E-03   -0.12768E-03  5064   0.208E-02    0.133E-01
RMM:   7    -0.232383378768E+04    0.16471E-03   -0.65811E-04  4304   0.171E-02    0.717E-02
RMM:   8    -0.232383370647E+04    0.81208E-04   -0.94642E-05  3399   0.674E-03    0.190E-02
RMM:   9    -0.232383369548E+04    0.10994E-04   -0.20921E-05  2924   0.500E-03    0.119E-02
RMM:  10    -0.232383369199E+04    0.34953E-05   -0.17057E-05  2909   0.335E-03
  32 F= -.23452346E+04 E0= -.23452346E+04  d E =-.346457E-01  mag=     2.0000
       N       E                     dE             d eps       ncg     rms          rms(c)
DAV:   1    -0.232381275551E+04    0.20940E-01   -0.17402E+00  4528   0.116E+00    0.432E-01
RMM:   2    -0.232384815487E+04   -0.35399E-01   -0.36096E-01  6303   0.278E-01    0.478E-01
RMM:   3    -0.232385046432E+04   -0.23094E-02   -0.45330E-02  6023   0.124E-01    0.387E-01
RMM:   4    -0.232384895909E+04    0.15052E-02   -0.40210E-03  5399   0.268E-02    0.182E-01
RMM:   5    -0.232384880615E+04    0.15294E-03   -0.67851E-04  3757   0.132E-02    0.145E-01
RMM:   6    -0.232384850916E+04    0.29698E-03   -0.53935E-04  4819   0.133E-02    0.530E-02
RMM:   7    -0.232384850118E+04    0.79826E-05   -0.17433E-04  3976   0.104E-02    0.339E-02
RMM:   8    -0.232384848720E+04    0.13979E-04   -0.50983E-05  2931   0.545E-03    0.200E-02
RMM:   9    -0.232384847904E+04    0.81587E-05   -0.10680E-05  2900   0.360E-03
  33 F= -.23452499E+04 E0= -.23452499E+04  d E =-.153590E-01  mag=     2.0000
       N       E                     dE             d eps       ncg     rms          rms(c)
DAV:   1    -0.232382440286E+04    0.24084E-01   -0.13566E+00  4528   0.102E+00    0.383E-01
RMM:   2    -0.232385212758E+04   -0.27725E-01   -0.28176E-01  6291   0.246E-01    0.433E-01
RMM:   3    -0.232385377743E+04   -0.16499E-02   -0.35093E-02  5990   0.110E-01    0.343E-01
RMM:   4    -0.232385264220E+04    0.11352E-02   -0.31510E-03  5250   0.238E-02    0.167E-01
RMM:   5    -0.232385249183E+04    0.15037E-03   -0.53135E-04  3437   0.120E-02    0.125E-01
RMM:   6    -0.232385226249E+04    0.22934E-03   -0.41980E-04  4682   0.121E-02    0.466E-02
RMM:   7    -0.232385225573E+04    0.67576E-05   -0.14127E-04  3748   0.960E-03    0.305E-02
RMM:   8    -0.232385224380E+04    0.11937E-04   -0.41391E-05  2931   0.526E-03    0.179E-02
RMM:   9    -0.232385223693E+04    0.68631E-05   -0.93138E-06  2897   0.346E-03
  34 F= -.23452542E+04 E0= -.23452542E+04  d E =-.196232E-01  mag=     2.0000
       N       E                     dE             d eps       ncg     rms          rms(c)
DAV:   1    -0.232381705619E+04    0.35188E-01   -0.22009E+00  4504   0.131E+00    0.455E-01
RMM:   2    -0.232386232405E+04   -0.45268E-01   -0.48616E-01  6324   0.304E-01    0.311E-01
RMM:   3    -0.232386809772E+04   -0.57737E-02   -0.50722E-02  6000   0.130E-01    0.487E-01
RMM:   4    -0.232386622373E+04    0.18740E-02   -0.54736E-03  5620   0.288E-02    0.160E-01
RMM:   5    -0.232386614692E+04    0.76802E-04   -0.77981E-04  4654   0.142E-02    0.155E-01
RMM:   6    -0.232386589253E+04    0.25440E-03   -0.48552E-04  4542   0.125E-02    0.819E-02
RMM:   7    -0.232386581298E+04    0.79549E-04   -0.23051E-04  4334   0.101E-02    0.315E-02
RMM:   8    -0.232386580821E+04    0.47718E-05   -0.52386E-05  2918   0.736E-03
  35 F= -.23452685E+04 E0= -.23452685E+04  d E =-.142680E-01  mag=     2.0000
       N       E                     dE             d eps       ncg     rms          rms(c)
DAV:   1    -0.232380991336E+04    0.55900E-01   -0.27025E+00  4504   0.145E+00    0.509E-01
RMM:   2    -0.232386556818E+04   -0.55655E-01   -0.59852E-01  6313   0.338E-01    0.353E-01
RMM:   3    -0.232387276142E+04   -0.71932E-02   -0.62995E-02  6022   0.142E-01    0.548E-01
RMM:   4    -0.232387032490E+04    0.24365E-02   -0.67319E-03  5779   0.320E-02    0.178E-01
RMM:   5    -0.232387026074E+04    0.64158E-04   -0.10235E-03  4849   0.156E-02    0.179E-01
RMM:   6    -0.232386990600E+04    0.35473E-03   -0.62051E-04  4888   0.137E-02    0.895E-02
RMM:   7    -0.232386981113E+04    0.94874E-04   -0.29782E-04  4592   0.110E-02    0.389E-02
RMM:   8    -0.232386980046E+04    0.10666E-04   -0.80294E-05  2934   0.799E-03    0.348E-02
RMM:   9    -0.232386977904E+04    0.21425E-04   -0.24516E-05  2912   0.433E-03    0.107E-02
RMM:  10    -0.232386977468E+04    0.43602E-05   -0.10522E-05  2934   0.328E-03
  36 F= -.23452732E+04 E0= -.23452732E+04  d E =-.190089E-01  mag=     2.0000
       N       E                     dE             d eps       ncg     rms          rms(c)
DAV:   1    -0.232383040545E+04    0.39374E-01   -0.21596E+00  4504   0.125E+00    0.437E-01
RMM:   2    -0.232387708077E+04   -0.46675E-01   -0.49969E-01  6473   0.294E-01    0.264E-01
RMM:   3    -0.232388233810E+04   -0.52573E-02   -0.51593E-02  6128   0.123E-01    0.389E-01
RMM:   4    -0.232388121241E+04    0.11257E-02   -0.52342E-03  5087   0.268E-02    0.156E-01
RMM:   5    -0.232388116834E+04    0.44075E-04   -0.60372E-04  3654   0.119E-02    0.153E-01
RMM:   6    -0.232388092370E+04    0.24463E-03   -0.44183E-04  4194   0.106E-02    0.874E-02
RMM:   7    -0.232388086222E+04    0.61483E-04   -0.27757E-04  4211   0.101E-02    0.448E-02
RMM:   8    -0.232388084482E+04    0.17405E-04   -0.71361E-05  2925   0.663E-03    0.248E-02
RMM:   9    -0.232388083503E+04    0.97876E-05   -0.13690E-05  2903   0.368E-03
  37 F= -.23452851E+04 E0= -.23452851E+04  d E =-.118603E-01  mag=     2.0000
       N       E                     dE             d eps       ncg     rms          rms(c)
DAV:   1    -0.232380243311E+04    0.78412E-01   -0.35429E+00  4504   0.160E+00    0.562E-01
RMM:   2    -0.232387902613E+04   -0.76593E-01   -0.82005E-01  6483   0.378E-01    0.343E-01
RMM:   3    -0.232388766836E+04   -0.86422E-02   -0.84872E-02  6217   0.158E-01    0.504E-01
RMM:   4    -0.232388576594E+04    0.19024E-02   -0.85839E-03  5746   0.345E-02    0.203E-01
RMM:   5    -0.232388565771E+04    0.10824E-03   -0.10155E-03  4375   0.146E-02    0.190E-01
RMM:   6    -0.232388529384E+04    0.36386E-03   -0.71170E-04  4538   0.127E-02    0.116E-01
RMM:   7    -0.232388517514E+04    0.11870E-03   -0.48046E-04  4810   0.127E-02    0.598E-02
RMM:   8    -0.232388514318E+04    0.31958E-04   -0.12487E-04  2984   0.781E-03    0.339E-02
RMM:   9    -0.232388512373E+04    0.19455E-04   -0.25249E-05  2912   0.477E-03    0.132E-02
RMM:  10    -0.232388512016E+04    0.35677E-05   -0.10807E-05  2933   0.320E-03
  38 F= -.23452904E+04 E0= -.23452904E+04  d E =-.171832E-01  mag=     2.0000
       N       E                     dE             d eps       ncg     rms          rms(c)
DAV:   1    -0.232386908262E+04    0.16041E-01   -0.11652E+00  4560   0.992E-01    0.339E-01
RMM:   2    -0.232388955408E+04   -0.20471E-01   -0.21978E-01  6250   0.227E-01    0.202E-01
RMM:   3    -0.232389160369E+04   -0.20496E-02   -0.24019E-02  5884   0.966E-02    0.242E-01
RMM:   4    -0.232389132783E+04    0.27586E-03   -0.23451E-03  4699   0.206E-02    0.146E-01
RMM:   5    -0.232389117629E+04    0.15154E-03   -0.48690E-04  4616   0.129E-02    0.987E-02
RMM:   6    -0.232389106827E+04    0.10802E-03   -0.40935E-04  4413   0.121E-02    0.558E-02
RMM:   7    -0.232389102095E+04    0.47321E-04   -0.92052E-05  3396   0.782E-03    0.166E-02
RMM:   8    -0.232389101966E+04    0.12919E-05   -0.17993E-05  2906   0.528E-03
  39 F= -.23452968E+04 E0= -.23452968E+04  d E =-.642701E-02  mag=     2.0000
       N       E                     dE             d eps       ncg     rms          rms(c)
DAV:   1    -0.232389003217E+04    0.98879E-03   -0.56771E-02  4928   0.219E-01    0.770E-02
RMM:   2    -0.232389105256E+04   -0.10204E-02   -0.10868E-02  6337   0.512E-02    0.584E-02
RMM:   3    -0.232389115788E+04   -0.10532E-03   -0.11428E-03  3246   0.208E-02    0.691E-02
RMM:   4    -0.232389111432E+04    0.43559E-04   -0.11883E-04  2966   0.650E-03    0.310E-02
RMM:   5    -0.232389111403E+04    0.29005E-06   -0.29264E-05  2928   0.371E-03
  40 F= -.23452970E+04 E0= -.23452970E+04  d E =-.663955E-02  mag=     2.0000
       N       E                     dE             d eps       ncg     rms          rms(c)
DAV:   1    -0.232388735485E+04    0.37595E-02   -0.29013E-01  4592   0.507E-01    0.189E-01
RMM:   2    -0.232389400950E+04   -0.66546E-02   -0.63074E-02  6422   0.127E-01    0.270E-01
RMM:   3    -0.232389381340E+04    0.19610E-03   -0.66624E-03  5792   0.493E-02    0.147E-01
RMM:   4    -0.232389365364E+04    0.15976E-03   -0.71297E-04  3555   0.122E-02    0.924E-02
RMM:   5    -0.232389357984E+04    0.73806E-04   -0.12357E-04  2929   0.704E-03    0.518E-02
RMM:   6    -0.232389354719E+04    0.32651E-04   -0.10743E-04  3860   0.697E-03    0.325E-02
RMM:   7    -0.232389354209E+04    0.50918E-05   -0.46978E-05  2912   0.631E-03
  41 F= -.23452999E+04 E0= -.23452999E+04  d E =-.283397E-02  mag=     2.0000
       N       E                     dE             d eps       ncg     rms          rms(c)
DAV:   1    -0.232386643194E+04    0.27115E-01   -0.12373E+00  4504   0.105E+00    0.391E-01
RMM:   2    -0.232389426305E+04   -0.27831E-01   -0.26814E-01  6431   0.260E-01    0.538E-01
RMM:   3    -0.232389422886E+04    0.34192E-04   -0.28952E-02  6224   0.103E-01    0.342E-01
RMM:   4    -0.232389337406E+04    0.85480E-03   -0.31241E-03  5550   0.254E-02    0.190E-01
RMM:   5    -0.232389301940E+04    0.35466E-03   -0.56997E-04  3348   0.122E-02    0.106E-01
RMM:   6    -0.232389289547E+04    0.12393E-03   -0.44034E-04  4901   0.131E-02    0.762E-02
RMM:   7    -0.232389284399E+04    0.51482E-04   -0.21665E-04  3409   0.106E-02    0.405E-02
RMM:   8    -0.232389281649E+04    0.27499E-04   -0.38545E-05  2960   0.536E-03    0.121E-02
RMM:   9    -0.232389281272E+04    0.37689E-05   -0.97073E-06  2902   0.386E-03
  42 F= -.23453000E+04 E0= -.23453000E+04  d E =-.295937E-02  mag=     2.0000
       N       E                     dE             d eps       ncg     rms          rms(c)
DAV:   1    -0.232388836292E+04    0.44536E-02   -0.27054E-01  4528   0.488E-01    0.183E-01
RMM:   2    -0.232389449131E+04   -0.61284E-02   -0.58491E-02  6420   0.122E-01    0.263E-01
RMM:   3    -0.232389438191E+04    0.10940E-03   -0.62165E-03  5668   0.461E-02    0.149E-01
RMM:   4    -0.232389421814E+04    0.16377E-03   -0.65740E-04  3430   0.119E-02    0.843E-02
RMM:   5    -0.232389415273E+04    0.65411E-04   -0.11886E-04  2938   0.686E-03    0.492E-02
RMM:   6    -0.232389412696E+04    0.25768E-04   -0.95315E-05  3515   0.658E-03    0.343E-02
RMM:   7    -0.232389411783E+04    0.91295E-05   -0.45365E-05  2918   0.594E-03
  43 F= -.23453009E+04 E0= -.23453009E+04  d E =-.386214E-02  mag=     2.0000
       N       E                     dE             d eps       ncg     rms          rms(c)
DAV:   1    -0.232389130071E+04    0.28262E-02   -0.19922E-01  4528   0.414E-01    0.156E-01
RMM:   2    -0.232389602679E+04   -0.47261E-02   -0.43896E-02  6459   0.104E-01    0.252E-01
RMM:   3    -0.232389579827E+04    0.22852E-03   -0.46066E-03  5380   0.391E-02    0.119E-01
RMM:   4    -0.232389572728E+04    0.70995E-04   -0.50843E-04  3069   0.989E-03    0.794E-02
RMM:   5    -0.232389565769E+04    0.69588E-04   -0.86393E-05  2922   0.589E-03    0.365E-02
RMM:   6    -0.232389564070E+04    0.16985E-04   -0.58837E-05  3091   0.549E-03    0.233E-02
RMM:   7    -0.232389563911E+04    0.15928E-05   -0.25372E-05  2891   0.475E-03
  44 F= -.23453030E+04 E0= -.23453030E+04  d E =-.208310E-02  mag=     2.0000
       N       E                     dE             d eps       ncg     rms          rms(c)
DAV:   1    -0.232386498843E+04    0.30652E-01   -0.14268E+00  4504   0.111E+00    0.422E-01
RMM:   2    -0.232389883739E+04   -0.33849E-01   -0.31525E-01  6543   0.277E-01    0.665E-01
RMM:   3    -0.232389739312E+04    0.14443E-02   -0.33764E-02  6312   0.105E-01    0.335E-01
RMM:   4    -0.232389686005E+04    0.53307E-03   -0.37612E-03  5469   0.259E-02    0.223E-01
RMM:   5    -0.232389630391E+04    0.55615E-03   -0.64599E-04  3423   0.126E-02    0.974E-02
RMM:   6    -0.232389619729E+04    0.10661E-03   -0.38804E-04  4704   0.128E-02    0.646E-02
RMM:   7    -0.232389618260E+04    0.14695E-04   -0.17898E-04  3293   0.102E-02    0.444E-02
RMM:   8    -0.232389615113E+04    0.31471E-04   -0.40354E-05  2908   0.519E-03    0.124E-02
RMM:   9    -0.232389614743E+04    0.37011E-05   -0.84447E-06  2898   0.343E-03
  45 F= -.23453050E+04 E0= -.23453050E+04  d E =-.411121E-02  mag=     2.0000
       N       E                     dE             d eps       ncg     rms          rms(c)
DAV:   1    -0.232389218272E+04    0.39684E-02   -0.22924E-01  4624   0.429E-01    0.163E-01
RMM:   2    -0.232389772583E+04   -0.55431E-02   -0.52830E-02  6564   0.109E-01    0.254E-01
RMM:   3    -0.232389766586E+04    0.59967E-04   -0.56179E-03  5401   0.405E-02    0.139E-01
RMM:   4    -0.232389752987E+04    0.13599E-03   -0.56369E-04  3025   0.101E-02    0.665E-02
RMM:   5    -0.232389748830E+04    0.41571E-04   -0.84199E-05  2941   0.568E-03    0.442E-02
RMM:   6    -0.232389746368E+04    0.24627E-04   -0.57370E-05  2973   0.543E-03    0.170E-02
RMM:   7    -0.232389746546E+04   -0.17852E-05   -0.19445E-05  2917   0.432E-03
  46 F= -.23453070E+04 E0= -.23453070E+04  d E =-.199542E-02  mag=     2.0000
       N       E                     dE             d eps       ncg     rms          rms(c)
DAV:   1    -0.232385050805E+04    0.46956E-01   -0.20589E+00  4504   0.129E+00    0.491E-01
RMM:   2    -0.232390001095E+04   -0.49503E-01   -0.47501E-01  6582   0.327E-01    0.734E-01
RMM:   3    -0.232390001674E+04   -0.57927E-05   -0.51463E-02  6383   0.122E-01    0.436E-01
RMM:   4    -0.232389872881E+04    0.12879E-02   -0.52568E-03  5494   0.297E-02    0.219E-01
RMM:   5    -0.232389822664E+04    0.50217E-03   -0.85090E-04  3843   0.136E-02    0.130E-01
RMM:   6    -0.232389801165E+04    0.21499E-03   -0.48181E-04  4512   0.141E-02    0.548E-02
RMM:   7    -0.232389803041E+04   -0.18763E-04   -0.19937E-04  3482   0.107E-02    0.488E-02
RMM:   8    -0.232389799388E+04    0.36537E-04   -0.55732E-05  2921   0.553E-03    0.161E-02
RMM:   9    -0.232389798957E+04    0.43047E-05   -0.10315E-05  2916   0.352E-03
  47 F= -.23453096E+04 E0= -.23453096E+04  d E =-.456168E-02  mag=     2.0000
       N       E                     dE             d eps       ncg     rms          rms(c)
DAV:   1    -0.232389562650E+04    0.23674E-02   -0.15347E-01  4624   0.349E-01    0.136E-01
RMM:   2    -0.232389929353E+04   -0.36670E-02   -0.36251E-02  6430   0.913E-02    0.181E-01
RMM:   3    -0.232389943868E+04   -0.14515E-03   -0.40635E-03  4761   0.364E-02    0.139E-01
RMM:   4    -0.232389926603E+04    0.17266E-03   -0.36939E-04  3001   0.961E-03    0.431E-02
RMM:   5    -0.232389926065E+04    0.53791E-05   -0.73352E-05  2967   0.575E-03
  48 F= -.23453113E+04 E0= -.23453113E+04  d E =-.172139E-02  mag=     2.0000
       N       E                     dE             d eps       ncg     rms          rms(c)
DAV:   1    -0.232389380471E+04    0.54613E-02   -0.23754E-01  4528   0.435E-01    0.170E-01
RMM:   2    -0.232389942985E+04   -0.56251E-02   -0.56059E-02  6509   0.114E-01    0.217E-01
RMM:   3    -0.232389969921E+04   -0.26935E-03   -0.62322E-03  5534   0.450E-02    0.171E-01
RMM:   4    -0.232389943516E+04    0.26405E-03   -0.56995E-04  3125   0.114E-02    0.577E-02
RMM:   5    -0.232389944262E+04   -0.74624E-05   -0.12897E-04  2987   0.717E-03    0.680E-02
RMM:   6    -0.232389939348E+04    0.49141E-04   -0.10657E-04  3144   0.765E-03    0.292E-02
RMM:   7    -0.232389938869E+04    0.47915E-05   -0.43449E-05  2927   0.603E-03
  49 F= -.23453120E+04 E0= -.23453120E+04  d E =-.241255E-02  mag=     2.0000
       N       E                     dE             d eps       ncg     rms          rms(c)
DAV:   1    -0.232389760795E+04    0.17855E-02   -0.12247E-01  4528   0.346E-01    0.126E-01
RMM:   2    -0.232390013034E+04   -0.25224E-02   -0.25161E-02  6443   0.829E-02    0.144E-01
RMM:   3    -0.232390027902E+04   -0.14868E-03   -0.27675E-03  4639   0.332E-02    0.139E-01
RMM:   4    -0.232390011024E+04    0.16878E-03   -0.30622E-04  2996   0.921E-03    0.478E-02
RMM:   5    -0.232390008718E+04    0.23062E-04   -0.64473E-05  2944   0.542E-03    0.346E-02
RMM:   6    -0.232390007578E+04    0.11399E-04   -0.52135E-05  2945   0.558E-03    0.219E-02
RMM:   7    -0.232390007394E+04    0.18444E-05   -0.21181E-05  2906   0.473E-03
  50 F= -.23453130E+04 E0= -.23453130E+04  d E =-.102829E-02  mag=     2.0000
       N       E                     dE             d eps       ncg     rms          rms(c)
DAV:   1    -0.232389723986E+04    0.28359E-02   -0.13805E-01  4528   0.367E-01    0.133E-01
RMM:   2    -0.232390009998E+04   -0.28601E-02   -0.28375E-02  6400   0.875E-02    0.156E-01
RMM:   3    -0.232390025193E+04   -0.15195E-03   -0.31085E-03  4821   0.356E-02    0.145E-01
RMM:   4    -0.232390006552E+04    0.18641E-03   -0.33913E-04  3007   0.953E-03    0.502E-02
RMM:   5    -0.232390004043E+04    0.25090E-04   -0.72535E-05  2942   0.572E-03    0.364E-02
RMM:   6    -0.232390002509E+04    0.15346E-04   -0.60085E-05  3010   0.591E-03    0.209E-02
RMM:   7    -0.232390002448E+04    0.60325E-06   -0.21952E-05  2910   0.493E-03
  51 F= -.23453133E+04 E0= -.23453133E+04  d E =-.134386E-02  mag=     2.0000
       N       E                     dE             d eps       ncg     rms          rms(c)
DAV:   1    -0.232389830104E+04    0.17240E-02   -0.12543E-01  4528   0.356E-01    0.118E-01
RMM:   2    -0.232390082402E+04   -0.25230E-02   -0.24144E-02  6524   0.833E-02    0.163E-01
RMM:   3    -0.232390079859E+04    0.25431E-04   -0.24991E-03  4606   0.315E-02    0.111E-01
RMM:   4    -0.232390071029E+04    0.88293E-04   -0.29771E-04  3001   0.870E-03    0.569E-02
RMM:   5    -0.232390068018E+04    0.30108E-04   -0.58621E-05  2927   0.503E-03    0.355E-02
RMM:   6    -0.232390068004E+04    0.14601E-06   -0.44426E-05  2943   0.466E-03
  52 F= -.23453144E+04 E0= -.23453144E+04  d E =-.107134E-02  mag=     2.0000
       N       E                     dE             d eps       ncg     rms          rms(c)
DAV:   1    -0.232389344161E+04    0.72386E-02   -0.37713E-01  4528   0.617E-01    0.202E-01
RMM:   2    -0.232390094648E+04   -0.75049E-02   -0.72517E-02  6394   0.143E-01    0.271E-01
RMM:   3    -0.232390096960E+04   -0.23119E-04   -0.75548E-03  5800   0.561E-02    0.197E-01
RMM:   4    -0.232390068896E+04    0.28064E-03   -0.91100E-04  3535   0.135E-02    0.990E-02
RMM:   5    -0.232390059518E+04    0.93779E-04   -0.17558E-04  2971   0.785E-03    0.630E-02
RMM:   6    -0.232390059424E+04    0.94068E-06   -0.14799E-04  3571   0.799E-03    0.606E-02
RMM:   7    -0.232390054313E+04    0.51116E-04   -0.89805E-05  2967   0.730E-03    0.160E-02
RMM:   8    -0.232390053974E+04    0.33835E-05   -0.13119E-05  2933   0.424E-03
  53 F= -.23453150E+04 E0= -.23453150E+04  d E =-.165585E-02  mag=     2.0000
       N       E                     dE             d eps       ncg     rms          rms(c)
DAV:   1    -0.232389791946E+04    0.26237E-02   -0.17385E-01  4544   0.423E-01    0.144E-01
RMM:   2    -0.232390134660E+04   -0.34271E-02   -0.31188E-02  6410   0.989E-02    0.226E-01
RMM:   3    -0.232390104709E+04    0.29951E-03   -0.33829E-03  5204   0.403E-02    0.115E-01
RMM:   4    -0.232390098345E+04    0.63638E-04   -0.40431E-04  3117   0.967E-03    0.817E-02
RMM:   5    -0.232390091843E+04    0.65018E-04   -0.89167E-05  2922   0.621E-03    0.402E-02
RMM:   6    -0.232390091718E+04    0.12566E-05   -0.71683E-05  3234   0.588E-03
  54 F= -.23453159E+04 E0= -.23453159E+04  d E =-.895051E-03  mag=     2.0000
       N       E                     dE             d eps       ncg     rms          rms(c)
DAV:   1    -0.232389998615E+04    0.93228E-03   -0.42604E-02  4768   0.210E-01    0.699E-02
RMM:   2    -0.232390075820E+04   -0.77204E-03   -0.75715E-03  6479   0.498E-02    0.839E-02
RMM:   3    -0.232390076954E+04   -0.11340E-04   -0.82014E-04  3338   0.194E-02    0.651E-02
RMM:   4    -0.232390073827E+04    0.31268E-04   -0.90635E-05  2973   0.602E-03    0.372E-02
RMM:   5    -0.232390072735E+04    0.10922E-04   -0.21552E-05  2885   0.317E-03    0.220E-02
RMM:   6    -0.232390072624E+04    0.11040E-05   -0.19263E-05  2909   0.324E-03
  55 F= -.23453159E+04 E0= -.23453159E+04  d E =-.962281E-03  mag=     2.0000
       N       E                     dE             d eps       ncg     rms          rms(c)
DAV:   1    -0.232390004436E+04    0.68298E-03   -0.76274E-02  4528   0.285E-01    0.927E-02
RMM:   2    -0.232390124442E+04   -0.12001E-02   -0.11553E-02  6425   0.645E-02    0.118E-01
RMM:   3    -0.232390123033E+04    0.14088E-04   -0.13186E-03  4044   0.260E-02    0.821E-02
RMM:   4    -0.232390117730E+04    0.53028E-04   -0.13164E-04  2962   0.741E-03    0.455E-02
RMM:   5    -0.232390116040E+04    0.16904E-04   -0.37447E-05  2914   0.467E-03    0.299E-02
RMM:   6    -0.232390115159E+04    0.88093E-05   -0.34033E-05  3003   0.461E-03
  56 F= -.23453165E+04 E0= -.23453165E+04  d E =-.577248E-03  mag=     2.0000
       N       E                     dE             d eps       ncg     rms          rms(c)
DAV:   1    -0.232390056976E+04    0.59063E-03   -0.40360E-02  4592   0.207E-01    0.690E-02
RMM:   2    -0.232390121241E+04   -0.64265E-03   -0.62220E-03  6423   0.474E-02    0.861E-02
RMM:   3    -0.232390119679E+04    0.15622E-04   -0.65202E-04  3304   0.181E-02    0.584E-02
RMM:   4    -0.232390117120E+04    0.25588E-04   -0.70239E-05  2960   0.587E-03    0.354E-02
RMM:   5    -0.232390116099E+04    0.10213E-04   -0.21637E-05  2883   0.347E-03    0.219E-02
RMM:   6    -0.232390115897E+04    0.20173E-05   -0.22028E-05  2937   0.353E-03
  57 F= -.23453166E+04 E0= -.23453166E+04  d E =-.695531E-03  mag=     2.0000
       N       E                     dE             d eps       ncg     rms          rms(c)
DAV:   1    -0.232390056675E+04    0.59424E-03   -0.90717E-02  4528   0.306E-01    0.898E-02
RMM:   2    -0.232390165054E+04   -0.10838E-02   -0.11058E-02  6381   0.639E-02    0.893E-02
RMM:   3    -0.232390173544E+04   -0.84907E-04   -0.11623E-03  3869   0.244E-02    0.958E-02
RMM:   4    -0.232390165477E+04    0.80675E-04   -0.12629E-04  2965   0.743E-03    0.352E-02
RMM:   5    -0.232390165030E+04    0.44731E-05   -0.41679E-05  2958   0.459E-03
  58 F= -.23453172E+04 E0= -.23453172E+04  d E =-.624105E-03  mag=     2.0000
       N       E                     dE             d eps       ncg     rms          rms(c)
DAV:   1    -0.232390021716E+04    0.14376E-02   -0.12338E-01  4528   0.356E-01    0.108E-01
RMM:   2    -0.232390177577E+04   -0.15586E-02   -0.15112E-02  6337   0.746E-02    0.130E-01
RMM:   3    -0.232390177869E+04   -0.29222E-05   -0.16284E-03  4424   0.287E-02    0.962E-02
RMM:   4    -0.232390169418E+04    0.84506E-04   -0.16993E-04  2997   0.834E-03    0.492E-02
RMM:   5    -0.232390168292E+04    0.11265E-04   -0.55162E-05  2930   0.529E-03    0.389E-02
RMM:   6    -0.232390166355E+04    0.19368E-04   -0.46753E-05  3129   0.540E-03    0.113E-02
RMM:   7    -0.232390166421E+04   -0.65674E-06   -0.10044E-05  2894   0.438E-03
  59 F= -.23453174E+04 E0= -.23453174E+04  d E =-.794033E-03  mag=     2.0000
       N       E                     dE             d eps       ncg     rms          rms(c)
DAV:   1    -0.232390123543E+04    0.42812E-03   -0.55193E-02  4560   0.237E-01    0.659E-02
RMM:   2    -0.232390192481E+04   -0.68937E-03   -0.70951E-03  6329   0.493E-02    0.659E-02
RMM:   3    -0.232390199359E+04   -0.68782E-04   -0.76566E-04  3298   0.192E-02    0.752E-02
RMM:   4    -0.232390194056E+04    0.53032E-04   -0.76366E-05  2942   0.601E-03    0.206E-02
RMM:   5    -0.232390194333E+04   -0.27715E-05   -0.22791E-05  2951   0.339E-03
  60 F= -.23453179E+04 E0= -.23453179E+04  d E =-.445282E-03  mag=     2.0000
       N       E                     dE             d eps       ncg     rms          rms(c)
DAV:   1    -0.232389658120E+04    0.53594E-02   -0.42452E-01  4528   0.658E-01    0.182E-01
RMM:   2    -0.232390190977E+04   -0.53286E-02   -0.54406E-02  6337   0.136E-01    0.193E-01
RMM:   3    -0.232390234418E+04   -0.43442E-03   -0.57527E-03  5644   0.511E-02    0.198E-01
RMM:   4    -0.232390197333E+04    0.37085E-03   -0.57774E-04  3591   0.131E-02    0.615E-02
RMM:   5    -0.232390200358E+04   -0.30250E-04   -0.17515E-04  3091   0.831E-03    0.785E-02
RMM:   6    -0.232390192323E+04    0.80349E-04   -0.13439E-04  3604   0.842E-03    0.242E-02
RMM:   7    -0.232390192435E+04   -0.11160E-05   -0.36391E-05  2940   0.578E-03
  61 F= -.23453183E+04 E0= -.23453183E+04  d E =-.888368E-03  mag=     2.0000
       N       E                     dE             d eps       ncg     rms          rms(c)
DAV:   1    -0.232390045382E+04    0.14694E-02   -0.12777E-01  4528   0.366E-01    0.111E-01
RMM:   2    -0.232390215838E+04   -0.17046E-02   -0.18106E-02  6316   0.789E-02    0.722E-02
RMM:   3    -0.232390237289E+04   -0.21452E-03   -0.19041E-03  4326   0.315E-02    0.111E-01
RMM:   4    -0.232390225460E+04    0.11829E-03   -0.20658E-04  2968   0.864E-03    0.418E-02
RMM:   5    -0.232390225395E+04    0.65296E-06   -0.57995E-05  2943   0.513E-03
  62 F= -.23453189E+04 E0= -.23453189E+04  d E =-.637762E-03  mag=     2.0000
       N       E                     dE             d eps       ncg     rms          rms(c)
DAV:   1    -0.232390122591E+04    0.10287E-02   -0.64249E-02  4624   0.259E-01    0.808E-02
RMM:   2    -0.232390212113E+04   -0.89523E-03   -0.91753E-03  6411   0.568E-02    0.740E-02
RMM:   3    -0.232390219149E+04   -0.70356E-04   -0.99413E-04  3527   0.219E-02    0.757E-02
RMM:   4    -0.232390212876E+04    0.62732E-04   -0.10286E-04  2948   0.722E-03    0.329E-02
RMM:   5    -0.232390213342E+04   -0.46584E-05   -0.35020E-05  2924   0.413E-03
  63 F= -.23453190E+04 E0= -.23453190E+04  d E =-.737438E-03  mag=     2.0000
       N       E                     dE             d eps       ncg     rms          rms(c)
DAV:   1    -0.232390074084E+04    0.13879E-02   -0.99809E-02  4528   0.315E-01    0.102E-01
RMM:   2    -0.232390234213E+04   -0.16013E-02   -0.16844E-02  6306   0.716E-02    0.711E-02
RMM:   3    -0.232390250845E+04   -0.16633E-03   -0.18018E-03  4083   0.293E-02    0.917E-02
RMM:   4    -0.232390242830E+04    0.80155E-04   -0.19378E-04  2977   0.816E-03    0.452E-02
RMM:   5    -0.232390241964E+04    0.86564E-05   -0.44831E-05  2936   0.434E-03
  64 F= -.23453196E+04 E0= -.23453196E+04  d E =-.510363E-03  mag=     2.0000
       N       E                     dE             d eps       ncg     rms          rms(c)
DAV:   1    -0.232390100094E+04    0.14274E-02   -0.79237E-02  4528   0.280E-01    0.922E-02
RMM:   2    -0.232390231446E+04   -0.13135E-02   -0.13371E-02  6386   0.636E-02    0.847E-02
RMM:   3    -0.232390240048E+04   -0.86024E-04   -0.14869E-03  3748   0.254E-02    0.766E-02
RMM:   4    -0.232390232351E+04    0.76970E-04   -0.14122E-04  2961   0.761E-03    0.270E-02
RMM:   5    -0.232390232273E+04    0.77931E-06   -0.44037E-05  2979   0.491E-03
  65 F= -.23453197E+04 E0= -.23453197E+04  d E =-.614201E-03  mag=     2.0000
       N       E                     dE             d eps       ncg     rms          rms(c)
DAV:   1    -0.232390037410E+04    0.19494E-02   -0.13487E-01  4528   0.375E-01    0.119E-01
RMM:   2    -0.232390242615E+04   -0.20521E-02   -0.21621E-02  6358   0.848E-02    0.777E-02
RMM:   3    -0.232390260353E+04   -0.17738E-03   -0.23006E-03  4550   0.333E-02    0.808E-02
RMM:   4    -0.232390252358E+04    0.79954E-04   -0.23139E-04  2984   0.884E-03    0.387E-02
RMM:   5    -0.232390252320E+04    0.38079E-06   -0.62952E-05  2955   0.557E-03
  66 F= -.23453201E+04 E0= -.23453201E+04  d E =-.395780E-03  mag=     2.0000
       N       E                     dE             d eps       ncg     rms          rms(c)
DAV:   1    -0.232390203788E+04    0.48570E-03   -0.24015E-02  4800   0.159E-01    0.519E-02
RMM:   2    -0.232390241659E+04   -0.37871E-03   -0.39464E-03  6354   0.368E-02    0.441E-02
RMM:   3    -0.232390245316E+04   -0.36569E-04   -0.42507E-04  3014   0.140E-02    0.551E-02
RMM:   4    -0.232390243098E+04    0.22173E-04   -0.49096E-05  2943   0.473E-03    0.237E-02
RMM:   5    -0.232390242772E+04    0.32660E-05   -0.14816E-05  2912   0.253E-03
  67 F= -.23453200E+04 E0= -.23453200E+04  d E =-.383948E-03  mag=     2.0000
       N       E                     dE             d eps       ncg     rms          rms(c)
DAV:   1    -0.232390028678E+04    0.21442E-02   -0.13718E-01  4528   0.373E-01    0.119E-01
RMM:   2    -0.232390250648E+04   -0.22197E-02   -0.22910E-02  6268   0.849E-02    0.107E-01
RMM:   3    -0.232390274259E+04   -0.23611E-03   -0.25155E-03  4725   0.331E-02    0.128E-01
RMM:   4    -0.232390257941E+04    0.16318E-03   -0.25226E-04  2984   0.906E-03    0.448E-02
RMM:   5    -0.232390258130E+04   -0.18869E-05   -0.68202E-05  2944   0.546E-03
  68 F= -.23453204E+04 E0= -.23453204E+04  d E =-.345990E-03  mag=     2.0000
       N       E                     dE             d eps       ncg     rms          rms(c)
DAV:   1    -0.232390235313E+04    0.22628E-03   -0.83044E-03  5040   0.923E-02    0.329E-02
RMM:   2    -0.232390250171E+04   -0.14858E-03   -0.14552E-03  5900   0.222E-02    0.370E-02
RMM:   3    -0.232390250333E+04   -0.16254E-05   -0.17895E-04  2927   0.895E-03    0.256E-02
RMM:   4    -0.232390249650E+04    0.68299E-05   -0.17646E-05  2936   0.320E-03
  69 F= -.23453204E+04 E0= -.23453204E+04  d E =-.309853E-03  mag=     2.0000
       N       E                     dE             d eps       ncg     rms          rms(c)
DAV:   1    -0.232390053065E+04    0.19727E-02   -0.11949E-01  4528   0.337E-01    0.107E-01
RMM:   2    -0.232390260509E+04   -0.20744E-02   -0.21160E-02  6456   0.787E-02    0.113E-01
RMM:   3    -0.232390278264E+04   -0.17755E-03   -0.23143E-03  4150   0.291E-02    0.115E-01
RMM:   4    -0.232390265284E+04    0.12979E-03   -0.22529E-04  2988   0.838E-03    0.387E-02
RMM:   5    -0.232390264976E+04    0.30803E-05   -0.59544E-05  2947   0.510E-03
  70 F= -.23453207E+04 E0= -.23453207E+04  d E =-.363579E-03  mag=     2.0000
       N       E                     dE             d eps       ncg     rms          rms(c)
DAV:   1    -0.232390184752E+04    0.80533E-03   -0.38503E-02  4544   0.192E-01    0.634E-02
RMM:   2    -0.232390254322E+04   -0.69570E-03   -0.69158E-03  6447   0.461E-02    0.802E-02
RMM:   3    -0.232390257285E+04   -0.29628E-04   -0.78555E-04  3074   0.172E-02    0.619E-02
RMM:   4    -0.232390253690E+04    0.35953E-04   -0.73773E-05  2958   0.576E-03    0.225E-02
RMM:   5    -0.232390253745E+04   -0.55175E-06   -0.23173E-05  2910   0.322E-03
  71 F= -.23453207E+04 E0= -.23453207E+04  d E =-.371968E-03  mag=     2.0000
       N       E                     dE             d eps       ncg     rms          rms(c)
DAV:   1    -0.232390072042E+04    0.18165E-02   -0.13032E-01  4528   0.363E-01    0.123E-01
RMM:   2    -0.232390292396E+04   -0.22035E-02   -0.20268E-02  6241   0.828E-02    0.196E-01
RMM:   3    -0.232390278173E+04    0.14223E-03   -0.21397E-03  4648   0.310E-02    0.970E-02
RMM:   4    -0.232390268230E+04    0.99428E-04   -0.20967E-04  3058   0.852E-03    0.320E-02
RMM:   5    -0.232390268684E+04   -0.45335E-05   -0.61831E-05  2997   0.620E-03
  72 F= -.23453211E+04 E0= -.23453211E+04  d E =-.354181E-03  mag=     2.0000
       N       E                     dE             d eps       ncg     rms          rms(c)
DAV:   1    -0.232390249114E+04    0.19116E-03   -0.73499E-03  5112   0.872E-02    0.310E-02
RMM:   2    -0.232390261495E+04   -0.12381E-03   -0.11769E-03  5939   0.214E-02    0.368E-02
RMM:   3    -0.232390261324E+04    0.17096E-05   -0.14115E-04  2912   0.841E-03    0.231E-02
RMM:   4    -0.232390260622E+04    0.70200E-05   -0.12375E-05  2933   0.306E-03
  73 F= -.23453210E+04 E0= -.23453210E+04  d E =-.323168E-03  mag=     2.0000
       N       E                     dE             d eps       ncg     rms          rms(c)
DAV:   1    -0.232390070443E+04    0.19088E-02   -0.13042E-01  4528   0.359E-01    0.126E-01
RMM:   2    -0.232390320361E+04   -0.24992E-02   -0.20855E-02  6421   0.822E-02    0.258E-01
RMM:   3    -0.232390275935E+04    0.44427E-03   -0.21108E-03  4619   0.288E-02    0.782E-02
RMM:   4    -0.232390270262E+04    0.56723E-04   -0.22809E-04  3035   0.819E-03    0.385E-02
RMM:   5    -0.232390269661E+04    0.60079E-05   -0.57161E-05  2943   0.538E-03
  74 F= -.23453214E+04 E0= -.23453214E+04  d E =-.331644E-03  mag=     2.0000
       N       E                     dE             d eps       ncg     rms          rms(c)
DAV:   1    -0.232390211022E+04    0.59240E-03   -0.28720E-02  4576   0.169E-01    0.555E-02
RMM:   2    -0.232390256863E+04   -0.45840E-03   -0.45211E-03  6429   0.396E-02    0.615E-02
RMM:   3    -0.232390258556E+04   -0.16932E-04   -0.49646E-04  3036   0.145E-02    0.496E-02
RMM:   4    -0.232390256086E+04    0.24699E-04   -0.51044E-05  2963   0.518E-03    0.252E-02
RMM:   5    -0.232390255862E+04    0.22408E-05   -0.13500E-05  2882   0.263E-03
  75 F= -.23453214E+04 E0= -.23453214E+04  d E =-.308920E-03  mag=     2.0000
       N       E                     dE             d eps       ncg     rms          rms(c)
DAV:   1    -0.232390064836E+04    0.19125E-02   -0.11749E-01  4528   0.341E-01    0.115E-01
RMM:   2    -0.232390267399E+04   -0.20256E-02   -0.19736E-02  6310   0.790E-02    0.153E-01
RMM:   3    -0.232390270035E+04   -0.26366E-04   -0.20124E-03  4352   0.295E-02    0.108E-01
RMM:   4    -0.232390259172E+04    0.10863E-03   -0.21211E-04  2993   0.856E-03    0.391E-02
RMM:   5    -0.232390258749E+04    0.42332E-05   -0.53949E-05  2946   0.521E-03
  76 F= -.23453217E+04 E0= -.23453217E+04  d E =-.307786E-03  mag=     2.0000
       N       E                     dE             d eps       ncg     rms          rms(c)
DAV:   1    -0.232390205363E+04    0.53809E-03   -0.23550E-02  4736   0.153E-01    0.548E-02
RMM:   2    -0.232390249214E+04   -0.43851E-03   -0.40013E-03  6381   0.365E-02    0.792E-02
RMM:   3    -0.232390246039E+04    0.31758E-04   -0.45768E-04  3009   0.138E-02    0.412E-02
RMM:   4    -0.232390244814E+04    0.12246E-04   -0.49424E-05  2964   0.491E-03    0.294E-02
RMM:   5    -0.232390244227E+04    0.58700E-05   -0.13169E-05  2851   0.254E-03
  77 F= -.23453216E+04 E0= -.23453216E+04  d E =-.289273E-03  mag=     2.0000
       N       E                     dE             d eps       ncg     rms          rms(c)
DAV:   1    -0.232390055300E+04    0.18951E-02   -0.11064E-01  4528   0.328E-01    0.109E-01
RMM:   2    -0.232390240176E+04   -0.18488E-02   -0.19254E-02  6251   0.761E-02    0.899E-02
RMM:   3    -0.232390259031E+04   -0.18856E-03   -0.20358E-03  4180   0.303E-02    0.112E-01
RMM:   4    -0.232390247379E+04    0.11653E-03   -0.21346E-04  2968   0.860E-03    0.430E-02
RMM:   5    -0.232390247082E+04    0.29717E-05   -0.56263E-05  2938   0.500E-03
  78 F= -.23453220E+04 E0= -.23453220E+04  d E =-.319095E-03  mag=     2.0000
       N       E                     dE             d eps       ncg     rms          rms(c)
DAV:   1    -0.232390170415E+04    0.76964E-03   -0.33700E-02  4560   0.181E-01    0.642E-02
RMM:   2    -0.232390231392E+04   -0.60977E-03   -0.59581E-03  6421   0.432E-02    0.747E-02
RMM:   3    -0.232390232205E+04   -0.81343E-05   -0.67532E-04  3108   0.166E-02    0.539E-02
RMM:   4    -0.232390229345E+04    0.28601E-04   -0.68415E-05  2956   0.570E-03    0.310E-02
RMM:   5    -0.232390228891E+04    0.45356E-05   -0.18956E-05  2886   0.298E-03
  79 F= -.23453219E+04 E0= -.23453219E+04  d E =-.299243E-03  mag=     2.0000
       N       E                     dE             d eps       ncg     rms          rms(c)
DAV:   1    -0.232390082972E+04    0.14637E-02   -0.83655E-02  4528   0.279E-01    0.896E-02
RMM:   2    -0.232390221861E+04   -0.13889E-02   -0.14553E-02  6340   0.646E-02    0.660E-02
RMM:   3    -0.232390235203E+04   -0.13342E-03   -0.15672E-03  3724   0.255E-02    0.774E-02
RMM:   4    -0.232390229057E+04    0.61456E-04   -0.15347E-04  2960   0.740E-03    0.347E-02
RMM:   5    -0.232390229501E+04   -0.44428E-05   -0.41910E-05  2919   0.423E-03
  80 F= -.23453222E+04 E0= -.23453222E+04  d E =-.277375E-03  mag=     2.0000
       N       E                     dE             d eps       ncg     rms          rms(c)
DAV:   1    -0.232389990271E+04    0.23879E-02   -0.11953E-01  4528   0.333E-01    0.109E-01
RMM:   2    -0.232390192919E+04   -0.20265E-02   -0.20954E-02  6416   0.779E-02    0.942E-02
RMM:   3    -0.232390211379E+04   -0.18459E-03   -0.22390E-03  4232   0.302E-02    0.106E-01
RMM:   4    -0.232390199926E+04    0.11453E-03   -0.22901E-04  2982   0.863E-03    0.480E-02
RMM:   5    -0.232390199309E+04    0.61626E-05   -0.56495E-05  2936   0.478E-03
  81 F= -.23453222E+04 E0= -.23453222E+04  d E =-.300659E-03  mag=     2.0000
       N       E                     dE             d eps       ncg     rms          rms(c)
DAV:   1    -0.232390012809E+04    0.18712E-02   -0.11662E-01  4528   0.337E-01    0.110E-01
RMM:   2    -0.232390186934E+04   -0.17413E-02   -0.17901E-02  6340   0.761E-02    0.100E-01
RMM:   3    -0.232390202970E+04   -0.16036E-03   -0.19554E-03  4244   0.297E-02    0.113E-01
RMM:   4    -0.232390190322E+04    0.12648E-03   -0.20187E-04  2977   0.877E-03    0.427E-02
RMM:   5    -0.232390190968E+04   -0.64614E-05   -0.63828E-05  2939   0.535E-03
  82 F= -.23453225E+04 E0= -.23453225E+04  d E =-.273287E-03  mag=     2.0000
       N       E                     dE             d eps       ncg     rms          rms(c)
DAV:   1    -0.232390133015E+04    0.57308E-03   -0.24534E-02  4720   0.155E-01    0.535E-02
RMM:   2    -0.232390172395E+04   -0.39380E-03   -0.38902E-03  6325   0.361E-02    0.601E-02
RMM:   3    -0.232390173605E+04   -0.12103E-04   -0.43108E-04  3016   0.137E-02    0.523E-02
RMM:   4    -0.232390171337E+04    0.22686E-04   -0.51626E-05  2950   0.494E-03    0.277E-02
RMM:   5    -0.232390170715E+04    0.62183E-05   -0.15117E-05  2887   0.261E-03
  83 F= -.23453225E+04 E0= -.23453225E+04  d E =-.236383E-03  mag=     2.0000
       N       E                     dE             d eps       ncg     rms          rms(c)
DAV:   1    -0.232390059450E+04    0.11189E-02   -0.87039E-02  4528   0.294E-01    0.971E-02
RMM:   2    -0.232390174552E+04   -0.11510E-02   -0.11395E-02  6136   0.642E-02    0.109E-01
RMM:   3    -0.232390178271E+04   -0.37198E-04   -0.12180E-03  4007   0.254E-02    0.954E-02
RMM:   4    -0.232390169700E+04    0.85715E-04   -0.13835E-04  2973   0.785E-03    0.407E-02
RMM:   5    -0.232390169266E+04    0.43411E-05   -0.46343E-05  2916   0.484E-03
  84 F= -.23453228E+04 E0= -.23453228E+04  d E =-.277242E-03  mag=     2.0000
       N       E                     dE             d eps       ncg     rms          rms(c)
DAV:   1    -0.232390149813E+04    0.19887E-03   -0.65950E-03  5088   0.816E-02    0.275E-02
RMM:   2    -0.232390158334E+04   -0.85209E-04   -0.90253E-04  5788   0.192E-02    0.225E-02
RMM:   3    -0.232390159631E+04   -0.12974E-04   -0.10019E-04  2919   0.752E-03    0.341E-02
RMM:   4    -0.232390158528E+04    0.11030E-04   -0.11807E-05  2916   0.283E-03    0.962E-03
RMM:   5    -0.232390158571E+04   -0.42966E-06   -0.56604E-06  2815   0.180E-03
  85 F= -.23453227E+04 E0= -.23453227E+04  d E =-.253014E-03  mag=     2.0000
       N       E                     dE             d eps       ncg     rms          rms(c)
DAV:   1    -0.232390109331E+04    0.49197E-03   -0.60687E-02  4528   0.250E-01    0.814E-02
RMM:   2    -0.232390170580E+04   -0.61249E-03   -0.61063E-03  6051   0.511E-02    0.837E-02
RMM:   3    -0.232390174617E+04   -0.40375E-04   -0.66667E-04  3665   0.203E-02    0.886E-02
RMM:   4    -0.232390166999E+04    0.76186E-04   -0.83817E-05  2942   0.691E-03    0.295E-02
RMM:   5    -0.232390167053E+04   -0.54603E-06   -0.31523E-05  2917   0.435E-03
  86 F= -.23453230E+04 E0= -.23453230E+04  d E =-.227498E-03  mag=     2.0000
       N       E                     dE             d eps       ncg     rms          rms(c)
DAV:   1    -0.232390159041E+04    0.79572E-04   -0.30006E-03  5208   0.562E-02    0.193E-02
RMM:   2    -0.232390162083E+04   -0.30419E-04   -0.32033E-04  4580   0.128E-02    0.148E-02
RMM:   3    -0.232390162620E+04   -0.53648E-05   -0.41793E-05  2898   0.618E-03
  87 F= -.23453229E+04 E0= -.23453229E+04  d E =-.216105E-03  mag=     2.0000
       N       E                     dE             d eps       ncg     rms          rms(c)
DAV:   1    -0.232390127450E+04    0.34633E-03   -0.53265E-02  4528   0.239E-01    0.757E-02
RMM:   2    -0.232390172699E+04   -0.45249E-03   -0.47254E-03  6119   0.475E-02    0.573E-02
RMM:   3    -0.232390176425E+04   -0.37264E-04   -0.49470E-04  3526   0.191E-02    0.664E-02
RMM:   4    -0.232390170561E+04    0.58640E-04   -0.60555E-05  2922   0.661E-03    0.257E-02
RMM:   5    -0.232390171373E+04   -0.81142E-05   -0.32868E-05  2925   0.459E-03
  88 F= -.23453231E+04 E0= -.23453231E+04  d E =-.175270E-03  mag=     2.0000
       N       E                     dE             d eps       ncg     rms          rms(c)
DAV:   1    -0.232390167776E+04    0.27855E-04   -0.58935E-04  5400   0.265E-02    0.164E-02
RMM:   2    -0.232390169810E+04   -0.20346E-04   -0.90191E-05  3147   0.671E-03    0.383E-02
RMM:   3    -0.232390168242E+04    0.15686E-04   -0.19861E-05  2650   0.437E-03    0.109E-02
RMM:   4    -0.232390168175E+04    0.67141E-06   -0.40524E-06  2442   0.146E-03
  89 F= -.23453231E+04 E0= -.23453231E+04  d E =-.152994E-03  mag=     2.0000
       N       E                     dE             d eps       ncg     rms          rms(c)
DAV:   1    -0.232390118087E+04    0.50155E-03   -0.54872E-02  4528   0.247E-01    0.751E-02
RMM:   2    -0.232390165630E+04   -0.47543E-03   -0.51209E-03  5994   0.475E-02    0.426E-02
RMM:   3    -0.232390170545E+04   -0.49150E-04   -0.51989E-04  3600   0.199E-02    0.564E-02
RMM:   4    -0.232390166252E+04    0.42927E-04   -0.60879E-05  2917   0.599E-03    0.247E-02
RMM:   5    -0.232390166872E+04   -0.61999E-05   -0.29729E-05  2948   0.410E-03
  90 F= -.23453232E+04 E0= -.23453232E+04  d E =-.145907E-03  mag=     2.0000
       N       E                     dE             d eps       ncg     rms          rms(c)
DAV:   1    -0.232390163564E+04    0.26885E-04   -0.35399E-04  5416   0.211E-02    0.125E-02
RMM:   2    -0.232390165301E+04   -0.17372E-04   -0.55083E-05  3020   0.522E-03    0.367E-02
RMM:   3    -0.232390163864E+04    0.14367E-04   -0.12519E-05  2555   0.350E-03    0.772E-03
RMM:   4    -0.232390163831E+04    0.32925E-06   -0.26156E-06  2188   0.120E-03
  91 F= -.23453232E+04 E0= -.23453232E+04  d E =-.128667E-03  mag=     2.0000
       N       E                     dE             d eps       ncg     rms          rms(c)
DAV:   1    -0.232390107945E+04    0.55919E-03   -0.45991E-02  4528   0.231E-01    0.711E-02
RMM:   2    -0.232390156685E+04   -0.48741E-03   -0.52157E-03  5953   0.454E-02    0.416E-02
RMM:   3    -0.232390162715E+04   -0.60295E-04   -0.54145E-04  3561   0.202E-02    0.659E-02
RMM:   4    -0.232390158259E+04    0.44560E-04   -0.61843E-05  2930   0.578E-03    0.258E-02
RMM:   5    -0.232390158643E+04   -0.38404E-05   -0.25542E-05  2931   0.377E-03
  92 F= -.23453234E+04 E0= -.23453234E+04  d E =-.150838E-03  mag=     2.0000
       N       E                     dE             d eps       ncg     rms          rms(c)
DAV:   1    -0.232390154198E+04    0.40612E-04   -0.51205E-04  5392   0.254E-02    0.107E-02
RMM:   2    -0.232390155095E+04   -0.89772E-05   -0.67401E-05  3071   0.594E-03
  93 F= -.23453234E+04 E0= -.23453234E+04  d E =-.137764E-03  mag=     2.0000
       N       E                     dE             d eps       ncg     rms          rms(c)
DAV:   1    -0.232390099131E+04    0.55066E-03   -0.42058E-02  4528   0.219E-01    0.672E-02
[...]
RMM:   5    -0.232390136052E+04   -0.92265E-06   -0.17273E-05  2909   0.279E-03
 108 F= -.23453242E+04 E0= -.23453242E+04  d E =-.958327E-04  mag=     2.0000
       N       E                     dE             d eps       ncg     rms          rms(c)
DAV:   1    -0.232390126473E+04    0.94872E-04   -0.32232E-03  5000   0.568E-02    0.215E-02
RMM:   2    -0.232390132306E+04   -0.58331E-04   -0.56775E-04  4540   0.136E-02    0.242E-02
RMM:   3    -0.232390132354E+04   -0.48421E-06   -0.64085E-05  2904   0.674E-03
 109 F= -.23453242E+04 E0= -.23453242E+04  d E =-.922041E-04  mag=     2.0000
       N       E                     dE             d eps       ncg     rms          rms(c)
DAV:   1    -0.232390082653E+04    0.49653E-03   -0.25853E-02  4528   0.157E-01    0.540E-02
RMM:   2    -0.232390129346E+04   -0.46693E-03   -0.47971E-03  6160   0.367E-02    0.449E-02
RMM:   3    -0.232390132712E+04   -0.33655E-04   -0.52913E-04  3004   0.155E-02    0.410E-02
RMM:   4    -0.232390130354E+04    0.23578E-04   -0.50742E-05  2933   0.472E-03    0.179E-02
RMM:   5    -0.232390130042E+04    0.31159E-05   -0.16769E-05  2934   0.299E-03
 110 F= -.23453243E+04 E0= -.23453243E+04  d E =-.790553E-04  mag=     2.0000
       N       E                     dE             d eps       ncg     rms          rms(c)
DAV:   1    -0.232390125870E+04    0.44842E-04   -0.10077E-03  5168   0.317E-02    0.163E-02
RMM:   2    -0.232390129763E+04   -0.38934E-04   -0.21517E-04  3377   0.830E-03    0.440E-02
RMM:   3    -0.232390127717E+04    0.20462E-04   -0.28448E-05  2715   0.502E-03    0.102E-02
RMM:   4    -0.232390127658E+04    0.59257E-06   -0.52818E-06  2503   0.159E-03
 111 F= -.23453243E+04 E0= -.23453243E+04  d E =-.758427E-04  mag=     2.0000
       N       E                     dE             d eps       ncg     rms          rms(c)
DAV:   1    -0.232390078066E+04    0.49651E-03   -0.26196E-02  4528   0.161E-01    0.564E-02
RMM:   2    -0.232390122539E+04   -0.44473E-03   -0.46490E-03  6134   0.365E-02    0.414E-02
RMM:   3    -0.232390127335E+04   -0.47956E-04   -0.51772E-04  3064   0.158E-02    0.518E-02
RMM:   4    -0.232390124453E+04    0.28817E-04   -0.51537E-05  2933   0.463E-03    0.219E-02
RMM:   5    -0.232390124627E+04   -0.17421E-05   -0.15533E-05  2901   0.260E-03
 112 F= -.23453244E+04 E0= -.23453244E+04  d E =-.934627E-04  mag=     2.0000
       N       E                     dE             d eps       ncg     rms          rms(c)
DAV:   1    -0.232390120450E+04    0.40030E-04   -0.67019E-04  5176   0.263E-02    0.114E-02
RMM:   2    -0.232390121868E+04   -0.14180E-04   -0.13341E-04  3228   0.665E-03    0.142E-02
RMM:   3    -0.232390121756E+04    0.11214E-05   -0.15149E-05  2572   0.414E-03
 113 F= -.23453244E+04 E0= -.23453244E+04  d E =-.853516E-04  mag=     2.0000
       N       E                     dE             d eps       ncg     rms          rms(c)
DAV:   1    -0.232390083646E+04    0.38221E-03   -0.19377E-02  4528   0.137E-01    0.476E-02
RMM:   2    -0.232390116158E+04   -0.32511E-03   -0.34438E-03  6124   0.318E-02    0.318E-02
RMM:   3    -0.232390119523E+04   -0.33657E-04   -0.37408E-04  2969   0.138E-02    0.391E-02
RMM:   4    -0.232390117877E+04    0.16468E-04   -0.38560E-05  2939   0.407E-03    0.196E-02
RMM:   5    -0.232390118063E+04   -0.18676E-05   -0.12691E-05  2886   0.233E-03
 114 F= -.23453245E+04 E0= -.23453245E+04  d E =-.811178E-04  mag=     2.0000
       N       E                     dE             d eps       ncg     rms          rms(c)
DAV:   1    -0.232390116063E+04    0.18132E-04   -0.13594E-04  5360   0.123E-02    0.743E-03
RMM:   2    -0.232390116509E+04   -0.44558E-05   -0.28436E-05  2717   0.324E-03
 115 F= -.23453245E+04 E0= -.23453245E+04  d E =-.757304E-04  mag=     2.0000
       N       E                     dE             d eps       ncg     rms          rms(c)
DAV:   1    -0.232390095080E+04    0.20983E-03   -0.14474E-02  4528   0.121E-01    0.430E-02
RMM:   2    -0.232390116471E+04   -0.21391E-03   -0.23130E-03  6173   0.276E-02    0.227E-02
RMM:   3    -0.232390118485E+04   -0.20141E-04   -0.25048E-04  2965   0.121E-02    0.306E-02
RMM:   4    -0.232390117933E+04    0.55273E-05   -0.26940E-05  2946   0.340E-03
 116 F= -.23453245E+04 E0= -.23453245E+04  d E =-.627865E-04  mag=     2.0000
       N       E                     dE             d eps       ncg     rms          rms(c)
DAV:   1    -0.232390116510E+04    0.19758E-04   -0.33117E-04  5320   0.188E-02    0.176E-02
RMM:   2    -0.232390120472E+04   -0.39622E-04   -0.10014E-04  3050   0.540E-03    0.541E-02
RMM:   3    -0.232390116823E+04    0.36485E-04   -0.26453E-05  2628   0.388E-03    0.972E-03
RMM:   4    -0.232390116760E+04    0.63676E-06   -0.43581E-06  1784   0.119E-03
 117 F= -.23453245E+04 E0= -.23453245E+04  d E =-.587282E-04  mag=     2.0000
       N       E                     dE             d eps       ncg     rms          rms(c)
DAV:   1    -0.232390096182E+04    0.20642E-03   -0.13998E-02  4528   0.118E-01    0.412E-02
RMM:   2    -0.232390117438E+04   -0.21257E-03   -0.23046E-03  6092   0.264E-02    0.207E-02
RMM:   3    -0.232390118847E+04   -0.14084E-04   -0.24231E-04  2933   0.116E-02    0.150E-02
RMM:   4    -0.232390119062E+04   -0.21537E-05   -0.26385E-05  2959   0.324E-03
 118 F= -.23453246E+04 E0= -.23453246E+04  d E =-.600135E-04  mag=     2.0000
       N       E                     dE             d eps       ncg     rms          rms(c)
DAV:   1    -0.232390118232E+04    0.61520E-05   -0.65387E-05  4816   0.898E-03    0.102E-02
RMM:   2    -0.232390119594E+04   -0.13625E-04   -0.25241E-05  2736   0.342E-03    0.352E-02
RMM:   3    -0.232390118282E+04    0.13117E-04   -0.77557E-06  2395   0.220E-03    0.507E-03
RMM:   4    -0.232390118262E+04    0.20492E-06   -0.11617E-06  1358   0.862E-04
 119 F= -.23453246E+04 E0= -.23453246E+04  d E =-.545910E-04  mag=     2.0000
       N       E                     dE             d eps       ncg     rms          rms(c)
DAV:   1    -0.232390094007E+04    0.24275E-03   -0.14460E-02  4592   0.122E-01    0.432E-02
RMM:   2    -0.232390114773E+04   -0.20766E-03   -0.22435E-03  6029   0.264E-02    0.222E-02
RMM:   3    -0.232390116803E+04   -0.20292E-04   -0.23930E-04  2917   0.116E-02    0.301E-02
RMM:   4    -0.232390116122E+04    0.68067E-05   -0.24831E-05  2934   0.333E-03
 120 F= -.23453246E+04 E0= -.23453246E+04  d E =-.562801E-04  mag=     2.0000
       N       E                     dE             d eps       ncg     rms          rms(c)
DAV:   1    -0.232390115314E+04    0.14885E-04   -0.77790E-05  5208   0.945E-03    0.159E-02
RMM:   2    -0.232390117721E+04   -0.24073E-04   -0.48280E-05  2857   0.365E-03    0.446E-02
RMM:   3    -0.232390115219E+04    0.25028E-04   -0.14436E-05  2455   0.277E-03    0.813E-03
RMM:   4    -0.232390115146E+04    0.72176E-06   -0.18599E-06  1155   0.865E-04
 121 F= -.23453246E+04 E0= -.23453246E+04  d E =-.523476E-04  mag=     2.0000
       N       E                     dE             d eps       ncg     rms          rms(c)
DAV:   1    -0.232390093410E+04    0.21809E-03   -0.12784E-02  4528   0.115E-01    0.420E-02
RMM:   2    -0.232390111514E+04   -0.18104E-03   -0.18857E-03  6025   0.250E-02    0.323E-02
RMM:   3    -0.232390113438E+04   -0.19241E-04   -0.21603E-04  2909   0.109E-02    0.385E-02
RMM:   4    -0.232390111663E+04    0.17750E-04   -0.22843E-05  2909   0.352E-03    0.155E-02
RMM:   5    -0.232390111830E+04   -0.16719E-05   -0.95283E-06  2836   0.214E-03
 122 F= -.23453247E+04 E0= -.23453247E+04  d E =-.522697E-04  mag=     2.0000
       N       E                     dE             d eps       ncg     rms          rms(c)
DAV:   1    -0.232390111579E+04    0.83656E-06   -0.23215E-05  4144   0.593E-03    0.550E-03
RMM:   2    -0.232390111777E+04   -0.19715E-05   -0.74893E-06  2449   0.287E-03
 123 F= -.23453247E+04 E0= -.23453247E+04  d E =-.496273E-04  mag=     2.0000
       N       E                     dE             d eps       ncg     rms          rms(c)
DAV:   1    -0.232390093121E+04    0.18459E-03   -0.11749E-02  4528   0.109E-01    0.385E-02
RMM:   2    -0.232390108922E+04   -0.15802E-03   -0.16748E-03  5992   0.241E-02    0.256E-02
RMM:   3    -0.232390110816E+04   -0.18937E-04   -0.18915E-04  2930   0.107E-02    0.340E-02
RMM:   4    -0.232390109399E+04    0.14173E-04   -0.20418E-05  2906   0.342E-03    0.134E-02
RMM:   5    -0.232390109584E+04   -0.18518E-05   -0.80487E-06  2841   0.196E-03
 124 F= -.23453247E+04 E0= -.23453247E+04  d E =-.433113E-04  mag=     2.0000
       N       E                     dE             d eps       ncg     rms          rms(c)
DAV:   1    -0.232390108991E+04    0.40745E-05   -0.11369E-05  3976   0.446E-03    0.554E-03
RMM:   2    -0.232390109313E+04   -0.32212E-05   -0.59619E-06  2259   0.198E-03
 125 F= -.23453247E+04 E0= -.23453247E+04  d E =-.420447E-04  mag=     2.0000
       N       E                     dE             d eps       ncg     rms          rms(c)
DAV:   1    -0.232390095539E+04    0.13452E-03   -0.10996E-02  4528   0.105E-01    0.376E-02
RMM:   2    -0.232390109439E+04   -0.13900E-03   -0.15100E-03  6002   0.231E-02    0.208E-02
RMM:   3    -0.232390110671E+04   -0.12320E-04   -0.16781E-04  2926   0.101E-02    0.229E-02
RMM:   4    -0.232390110165E+04    0.50555E-05   -0.17870E-05  2925   0.300E-03
 126 F= -.23453248E+04 E0= -.23453248E+04  d E =-.403541E-04  mag=     2.0000
       N       E                     dE             d eps       ncg     rms          rms(c)
DAV:   1    -0.232390110230E+04    0.44070E-05   -0.12509E-05  4024   0.459E-03    0.160E-02
RMM:   2    -0.232390113926E+04   -0.36955E-04   -0.45634E-05  2751   0.347E-03    0.596E-02
RMM:   3    -0.232390110051E+04    0.38749E-04   -0.15749E-05  2166   0.261E-03    0.843E-03
RMM:   4    -0.232390109935E+04    0.11561E-05   -0.20139E-06  1330   0.910E-04
 127 F= -.23453248E+04 E0= -.23453248E+04  d E =-.379102E-04  mag=     2.0000
       N       E                     dE             d eps       ncg     rms          rms(c)
DAV:   1    -0.232390099171E+04    0.10880E-03   -0.95130E-03  4528   0.979E-02    0.346E-02
RMM:   2    -0.232390110877E+04   -0.11707E-03   -0.12875E-03  5990   0.213E-02    0.161E-02
RMM:   3    -0.232390111522E+04   -0.64452E-05   -0.13524E-04  2915   0.940E-03    0.108E-02
RMM:   4    -0.232390111777E+04   -0.25498E-05   -0.16970E-05  2958   0.272E-03
 128 F= -.23453248E+04 E0= -.23453248E+04  d E =-.454473E-04  mag=     2.0000
       N       E                     dE             d eps       ncg     rms          rms(c)
DAV:   1    -0.232390110843E+04    0.67874E-05   -0.15746E-04  5368   0.131E-02    0.829E-03
RMM:   2    -0.232390111558E+04   -0.71495E-05   -0.29125E-05  2684   0.339E-03
 129 F= -.23453248E+04 E0= -.23453248E+04  d E =-.467898E-04  mag=     2.0000
       N       E                     dE             d eps       ncg     rms          rms(c)
DAV:   1    -0.232390097661E+04    0.13182E-03   -0.86417E-03  4528   0.934E-02    0.334E-02
RMM:   2    -0.232390109340E+04   -0.11680E-03   -0.12678E-03  5963   0.219E-02    0.178E-02
RMM:   3    -0.232390110217E+04   -0.87699E-05   -0.13640E-04  2910   0.985E-03    0.163E-02
RMM:   4    -0.232390110116E+04    0.10159E-05   -0.14908E-05  2934   0.269E-03
 130 F= -.23453249E+04 E0= -.23453249E+04  d E =-.367729E-04  mag=     2.0000
       N       E                     dE             d eps       ncg     rms          rms(c)
DAV:   1    -0.232390109524E+04    0.69345E-05   -0.28955E-05  4312   0.617E-03    0.863E-03
RMM:   2    -0.232390110264E+04   -0.74048E-05   -0.15432E-05  2551   0.321E-03
 131 F= -.23453249E+04 E0= -.23453249E+04  d E =-.413133E-04  mag=     2.0000
       N       E                     dE             d eps       ncg     rms          rms(c)
DAV:   1    -0.232390096036E+04    0.13488E-03   -0.68678E-03  4528   0.817E-02    0.300E-02
RMM:   2    -0.232390105858E+04   -0.98223E-04   -0.10561E-03  5924   0.192E-02    0.178E-02
RMM:   3    -0.232390106641E+04   -0.78316E-05   -0.11207E-04  2912   0.846E-03    0.180E-02
RMM:   4    -0.232390106355E+04    0.28611E-05   -0.11947E-05  2910   0.259E-03
 132 F= -.23453249E+04 E0= -.23453249E+04  d E =-.299955E-04  mag=     2.0000
       N       E                     dE             d eps       ncg     rms          rms(c)
DAV:   1    -0.232390104353E+04    0.22881E-04   -0.28032E-04  5216   0.168E-02    0.119E-02
RMM:   2    -0.232390105550E+04   -0.11972E-04   -0.58781E-05  2900   0.436E-03    0.246E-02
RMM:   3    -0.232390104709E+04    0.84181E-05   -0.10621E-05  2437   0.291E-03
 133 F= -.23453249E+04 E0= -.23453249E+04  d E =-.279262E-04  mag=     2.0000
       N       E                     dE             d eps       ncg     rms          rms(c)
DAV:   1    -0.232390093545E+04    0.12006E-03   -0.67219E-03  4528   0.806E-02    0.295E-02
RMM:   2    -0.232390103094E+04   -0.95496E-04   -0.10192E-03  5961   0.183E-02    0.200E-02
RMM:   3    -0.232390104348E+04   -0.12534E-04   -0.11593E-04  2902   0.833E-03    0.304E-02
RMM:   4    -0.232390103447E+04    0.90021E-05   -0.12454E-05  2900   0.268E-03
 134 F= -.23453249E+04 E0= -.23453249E+04  d E =-.347164E-04  mag=     2.0000
       N       E                     dE             d eps       ncg     rms          rms(c)
DAV:   1    -0.232390102349E+04    0.19985E-04   -0.18975E-04  5336   0.140E-02    0.131E-02
RMM:   2    -0.232390103516E+04   -0.11674E-04   -0.49942E-05  2824   0.386E-03    0.298E-02
RMM:   3    -0.232390102523E+04    0.99382E-05   -0.11644E-05  2410   0.276E-03
 135 F= -.23453249E+04 E0= -.23453249E+04  d E =-.336600E-04  mag=     2.0000
       N       E                     dE             d eps       ncg     rms          rms(c)
DAV:   1    -0.232390095730E+04    0.77864E-04   -0.59188E-03  4528   0.771E-02    0.282E-02
RMM:   2    -0.232390103081E+04   -0.73508E-04   -0.80113E-04  5912   0.168E-02    0.153E-02
RMM:   3    -0.232390103618E+04   -0.53721E-05   -0.88642E-05  2903   0.778E-03
 136 F= -.23453250E+04 E0= -.23453250E+04  d E =-.387209E-04  mag=     2.0000
       N       E                     dE             d eps       ncg     rms          rms(c)
DAV:   1    -0.232390099589E+04    0.34921E-04   -0.17669E-03  4920   0.425E-02    0.196E-02
RMM:   2    -0.232390102334E+04   -0.27448E-04   -0.26039E-04  3813   0.980E-03    0.230E-02
RMM:   3    -0.232390102215E+04    0.11831E-05   -0.32626E-05  2890   0.528E-03
 137 F= -.23453250E+04 E0= -.23453250E+04  d E =-.399984E-04  mag=     2.0000
       N       E                     dE             d eps       ncg     rms          rms(c)
DAV:   1    -0.232390093190E+04    0.91432E-04   -0.56733E-03  4528   0.745E-02    0.292E-02
RMM:   2    -0.232390102134E+04   -0.89432E-04   -0.79928E-04  5714   0.168E-02    0.418E-02
RMM:   3    -0.232390101321E+04    0.81257E-05   -0.96527E-05  2902   0.770E-03
 138 F= -.23453250E+04 E0= -.23453250E+04  d E =-.302763E-04  mag=     2.0000
       N       E                     dE             d eps       ncg     rms          rms(c)
DAV:   1    -0.232390100330E+04    0.18033E-04   -0.71040E-05  4768   0.901E-03    0.171E-02
RMM:   2    -0.232390102921E+04   -0.25908E-04   -0.45769E-05  2837   0.415E-03    0.488E-02
RMM:   3    -0.232390100160E+04    0.27614E-04   -0.16086E-05  2437   0.279E-03    0.915E-03
RMM:   4    -0.232390100130E+04    0.29894E-06   -0.30131E-06  1547   0.112E-03
 139 F= -.23453250E+04 E0= -.23453250E+04  d E =-.222670E-04  mag=     2.0000
       N       E                     dE             d eps       ncg     rms          rms(c)
DAV:   1    -0.232390092159E+04    0.80006E-04   -0.57094E-03  4528   0.770E-02    0.286E-02
RMM:   2    -0.232390099015E+04   -0.68564E-04   -0.74739E-04  5837   0.168E-02    0.182E-02
RMM:   3    -0.232390099706E+04   -0.69110E-05   -0.83849E-05  2908   0.764E-03
 140 F= -.23453250E+04 E0= -.23453250E+04  d E =-.427971E-04  mag=     2.0000
       N       E                     dE             d eps       ncg     rms          rms(c)
DAV:   1    -0.232390098169E+04    0.84627E-05   -0.17899E-04  5376   0.142E-02    0.143E-02
RMM:   2    -0.232390100261E+04   -0.20922E-04   -0.44276E-05  2906   0.408E-03    0.453E-02
RMM:   3    -0.232390098247E+04    0.20139E-04   -0.13262E-05  2444   0.291E-03    0.727E-03
RMM:   4    -0.232390098240E+04    0.74782E-07   -0.32827E-06  1635   0.111E-03
 141 F= -.23453250E+04 E0= -.23453250E+04  d E =-.361697E-04  mag=     2.0000
       N       E                     dE             d eps       ncg     rms          rms(c)
DAV:   1    -0.232390090392E+04    0.78549E-04   -0.56006E-03  4528   0.751E-02    0.267E-02
RMM:   2    -0.232390097160E+04   -0.67679E-04   -0.74646E-04  5851   0.164E-02    0.135E-02
RMM:   3    -0.232390097534E+04   -0.37341E-05   -0.80608E-05  2902   0.743E-03
 142 F= -.23453250E+04 E0= -.23453250E+04  d E =-.247911E-04  mag=     2.0000
       N       E                     dE             d eps       ncg     rms          rms(c)
DAV:   1    -0.232390097477E+04   -0.31625E-05   -0.86566E-06  3744   0.301E-03    0.725E-03
RMM:   2    -0.232390098070E+04   -0.59289E-05   -0.80319E-06  2497   0.211E-03
 143 F= -.23453250E+04 E0= -.23453250E+04  d E =-.304022E-04  mag=     2.0000
       N       E                     dE             d eps       ncg     rms          rms(c)
DAV:   1    -0.232390092347E+04    0.51294E-04   -0.50700E-03  4528   0.722E-02    0.260E-02
RMM:   2    -0.232390098599E+04   -0.62519E-04   -0.65756E-04  5706   0.165E-02    0.204E-02
RMM:   3    -0.232390099511E+04   -0.91161E-05   -0.70143E-05  2906   0.729E-03
 144 F= -.23453251E+04 E0= -.23453251E+04  d E =-.330687E-04  mag=     2.0000
       N       E                     dE             d eps       ncg     rms          rms(c)
DAV:   1    -0.232390098019E+04    0.57964E-05   -0.17742E-04  5368   0.142E-02    0.104E-02
RMM:   2    -0.232390098338E+04   -0.31839E-05   -0.28692E-05  2612   0.359E-03
 145 F= -.23453251E+04 E0= -.23453251E+04  d E =-.247497E-04  mag=     2.0000
       N       E                     dE             d eps       ncg     rms          rms(c)
DAV:   1    -0.232390091453E+04    0.65665E-04   -0.45007E-03  4528   0.682E-02    0.251E-02
RMM:   2    -0.232390096974E+04   -0.55213E-04   -0.60614E-04  5599   0.162E-02    0.140E-02
RMM:   3    -0.232390097600E+04   -0.62578E-05   -0.70942E-05  2904   0.770E-03
 146 F= -.23453251E+04 E0= -.23453251E+04  d E =-.277389E-04  mag=     2.0000
       N       E                     dE             d eps       ncg     rms          rms(c)
DAV:   1    -0.232390097252E+04   -0.27793E-05   -0.14850E-05  3920   0.447E-03    0.101E-02
RMM:   2    -0.232390098109E+04   -0.85715E-05   -0.10033E-05  2480   0.219E-03
 147 F= -.23453251E+04 E0= -.23453251E+04  d E =-.333206E-04  mag=     2.0000
       N       E                     dE             d eps       ncg     rms          rms(c)
DAV:   1    -0.232390090581E+04    0.66713E-04   -0.36886E-03  4512   0.614E-02    0.221E-02
RMM:   2    -0.232390095274E+04   -0.46934E-04   -0.51496E-04  5233   0.142E-02    0.127E-02
RMM:   3    -0.232390095739E+04   -0.46443E-05   -0.54604E-05  2896   0.680E-03
 148 F= -.23453251E+04 E0= -.23453251E+04  d E =-.151554E-04  mag=     2.0000
       N       E                     dE             d eps       ncg     rms          rms(c)
DAV:   1    -0.232390094985E+04    0.28887E-05   -0.44501E-05  4312   0.739E-03    0.102E-02
RMM:   2    -0.232390095878E+04   -0.89243E-05   -0.15705E-05  2563   0.345E-03
 149 F= -.23453251E+04 E0= -.23453251E+04  d E =-.204870E-04  mag=     2.0000
       N       E                     dE             d eps       ncg     rms          rms(c)
DAV:   1    -0.232390088308E+04    0.66769E-04   -0.37315E-03  4512   0.618E-02    0.232E-02
RMM:   2    -0.232390093381E+04   -0.50726E-04   -0.53559E-04  5331   0.147E-02    0.178E-02
RMM:   3    -0.232390094125E+04   -0.74391E-05   -0.56250E-05  2902   0.690E-03
 150 F= -.23453251E+04 E0= -.23453251E+04  d E =-.176014E-04  mag=     2.0000
