       N       E                     dE             d eps       ncg     rms          rms(c)
DAV:   1     0.126917467982E+05    0.12692E+05   -0.84458E+05  4640   0.143E+03
DAV:   2    -0.121154048419E+04   -0.13903E+05   -0.13325E+05  5040   0.324E+02
DAV:   3    -0.249028825114E+04   -0.12787E+04   -0.12672E+04  5440   0.107E+02
DAV:   4    -0.252129435926E+04   -0.31006E+02   -0.30816E+02  5680   0.213E+01
DAV:   5    -0.252228518467E+04   -0.99083E+00   -0.98888E+00  5840   0.312E+00    0.170E+02
RMM:   6    -0.149099428205E+04    0.10313E+04   -0.19286E+03  4511   0.378E+01    0.726E+01
RMM:   7    -0.165809448374E+04   -0.16710E+03   -0.28647E+02  5120   0.145E+01    0.529E+01
RMM:   8    -0.171251412077E+04   -0.54420E+02   -0.87548E+01  5481   0.824E+00    0.423E+01
RMM:   9    -0.179407949779E+04   -0.81565E+02   -0.58646E+01  5162   0.755E+00    0.305E+01
RMM:  10    -0.192418521857E+04   -0.13011E+03   -0.64972E+01  5518   0.760E+00    0.259E+01
RMM:  11    -0.200053154307E+04   -0.76346E+02   -0.32472E+01  5518   0.491E+00    0.164E+01
RMM:  12    -0.209721717398E+04   -0.96686E+02   -0.43985E+01  4696   0.513E+00    0.151E+01
RMM:  13    -0.217473200775E+04   -0.77515E+02   -0.42111E+01  5019   0.494E+00    0.140E+01
RMM:  14    -0.226831107071E+04   -0.93579E+02   -0.79033E+01  4535   0.641E+00    0.752E+00
RMM:  15    -0.230171708658E+04   -0.33406E+02   -0.32877E+01  4579   0.451E+00    0.450E+00
RMM:  16    -0.231068219567E+04   -0.89651E+01   -0.11626E+01  5022   0.229E+00    0.324E+00
RMM:  17    -0.231429852397E+04   -0.36163E+01   -0.29948E+00  4828   0.123E+00    0.339E+00
RMM:  18    -0.231482073804E+04   -0.52221E+00   -0.45769E-01  5651   0.506E-01    0.301E+00
RMM:  19    -0.231628266928E+04   -0.14619E+01   -0.78054E-01  4592   0.481E-01    0.127E+00
RMM:  20    -0.231720509760E+04   -0.92243E+00   -0.66054E-01  4682   0.428E-01    0.919E-01
RMM:  21    -0.231744391272E+04   -0.23882E+00   -0.14920E-01  4809   0.268E-01    0.443E-01
RMM:  22    -0.231754775297E+04   -0.10384E+00   -0.75867E-02  4777   0.144E-01    0.404E-01
RMM:  23    -0.231759746946E+04   -0.49716E-01   -0.17668E-02  4643   0.100E-01    0.200E-01
RMM:  24    -0.231763106320E+04   -0.33594E-01   -0.89020E-03  4601   0.630E-02    0.128E-01
RMM:  25    -0.231765717274E+04   -0.26110E-01   -0.58303E-03  4528   0.578E-02    0.761E-02
RMM:  26    -0.231767060427E+04   -0.13432E-01   -0.34097E-03  4732   0.421E-02    0.520E-02
RMM:  27    -0.231767684650E+04   -0.62422E-02   -0.18935E-03  4697   0.302E-02    0.370E-02
RMM:  28    -0.231767927881E+04   -0.24323E-02   -0.84518E-04  4365   0.198E-02    0.193E-02
RMM:  29    -0.231767979512E+04   -0.51631E-03   -0.20127E-04  4057   0.112E-02    0.917E-03
RMM:  30    -0.231767997438E+04   -0.17926E-03   -0.53511E-05  3546   0.600E-03    0.592E-03
RMM:  31    -0.231768005435E+04   -0.79970E-04   -0.19930E-05  3081   0.450E-03    0.239E-03
RMM:  32    -0.231768008016E+04   -0.25818E-04   -0.72824E-06  2896   0.321E-03    0.189E-03
RMM:  33    -0.231768009688E+04   -0.16718E-04   -0.48972E-06  2710   0.242E-03    0.129E-03
RMM:  34    -0.231768010275E+04   -0.58728E-05   -0.27087E-06  2538   0.201E-03
   1 F= -.23389617E+04 E0= -.23389617E+04  d E =-.113263E-06  mag=     3.0001
       N       E                     dE             d eps       ncg     rms          rms(c)
DAV:   1    -0.231768189495E+04   -0.17981E-02   -0.18784E+00  4480   0.657E-01    0.300E-01
RMM:   2    -0.231768264795E+04   -0.75300E-03   -0.86864E-03  4510   0.408E-02    0.339E-01
RMM:   3    -0.231768271890E+04   -0.70956E-04   -0.26460E-03  4586   0.247E-02    0.402E-01
RMM:   4    -0.231768226692E+04    0.45198E-03   -0.14617E-03  5058   0.169E-02    0.209E-01
RMM:   5    -0.231768169987E+04    0.56706E-03   -0.57235E-04  3830   0.125E-02    0.558E-02
RMM:   6    -0.231768170079E+04   -0.92326E-06   -0.88304E-05  3010   0.503E-03
   2 F= -.23389644E+04 E0= -.23389644E+04  d E =-.586710E-07  mag=     3.0000
       N       E                     dE             d eps       ncg     rms          rms(c)
DAV:   1    -0.231767483008E+04    0.68698E-02   -0.74686E+00  4480   0.131E+00    0.594E-01
RMM:   2    -0.231767760662E+04   -0.27765E-02   -0.32428E-02  4668   0.799E-02    0.683E-01
RMM:   3    -0.231767752589E+04    0.80726E-04   -0.96690E-03  5226   0.468E-02    0.782E-01
RMM:   4    -0.231767619075E+04    0.13351E-02   -0.59472E-03  5672   0.329E-02    0.446E-01
RMM:   5    -0.231767356295E+04    0.26278E-02   -0.23064E-03  4887   0.240E-02    0.104E-01
RMM:   6    -0.231767354653E+04    0.16424E-04   -0.28988E-04  3458   0.782E-03    0.472E-02
RMM:   7    -0.231767356822E+04   -0.21689E-04   -0.10335E-04  3161   0.605E-03    0.468E-02
RMM:   8    -0.231767354663E+04    0.21583E-04   -0.36833E-05  2931   0.455E-03    0.261E-02
RMM:   9    -0.231767354759E+04   -0.95832E-06   -0.73072E-06  2703   0.232E-03
   3 F= -.23389538E+04 E0= -.23389538E+04  d E =-.219819E-06  mag=     3.0000
       N       E                     dE             d eps       ncg     rms          rms(c)
DAV:   1    -0.231764518020E+04    0.28366E-01   -0.39486E+00  4640   0.110E+00    0.427E-01
RMM:   2    -0.231764646639E+04   -0.12862E-02   -0.19443E-02  4360   0.680E-02    0.476E-01
RMM:   3    -0.231764634799E+04    0.11840E-03   -0.44927E-03  4957   0.366E-02    0.544E-01
RMM:   4    -0.231764511649E+04    0.12315E-02   -0.31925E-03  5385   0.262E-02    0.278E-01
RMM:   5    -0.231764421779E+04    0.89869E-03   -0.11355E-03  4796   0.161E-02    0.706E-02
RMM:   6    -0.231764417758E+04    0.40210E-04   -0.12925E-04  3213   0.610E-03    0.427E-02
RMM:   7    -0.231764416952E+04    0.80666E-05   -0.58298E-05  3004   0.477E-03
   4 F= -.23389254E+04 E0= -.23389254E+04  d E =-.888280E-07  mag=     3.0000
       N       E                     dE             d eps       ncg     rms          rms(c)
DAV:   1    -0.231767793225E+04   -0.33755E-01   -0.83613E+00  4480   0.163E+00    0.680E-01
RMM:   2    -0.231768013716E+04   -0.22049E-02   -0.51107E-02  4897   0.115E-01    0.670E-01
RMM:   3    -0.231767787584E+04    0.22613E-02   -0.12995E-02  5592   0.604E-02    0.619E-01
RMM:   4    -0.231767773525E+04    0.14058E-03   -0.70581E-03  5747   0.356E-02    0.761E-01
RMM:   5    -0.231767371081E+04    0.40244E-02   -0.36996E-03  5506   0.257E-02    0.139E-01
RMM:   6    -0.231767353223E+04    0.17858E-03   -0.39682E-04  4129   0.101E-02    0.403E-02
RMM:   7    -0.231767354908E+04   -0.16857E-04   -0.12086E-04  3526   0.634E-03    0.491E-02
RMM:   8    -0.231767351665E+04    0.32438E-04   -0.48383E-05  2976   0.476E-03    0.215E-02
RMM:   9    -0.231767351609E+04    0.55120E-06   -0.10644E-05  2830   0.263E-03
   5 F= -.23389555E+04 E0= -.23389555E+04  d E =-.145817E-06  mag=     3.0000
       N       E                     dE             d eps       ncg     rms          rms(c)
DAV:   1    -0.231767609554E+04   -0.25789E-02   -0.42097E+00  4480   0.116E+00    0.472E-01
RMM:   2    -0.231767869909E+04   -0.26035E-02   -0.24740E-02  4672   0.824E-02    0.655E-01
RMM:   3    -0.231767556042E+04    0.31387E-02   -0.51998E-03  5118   0.395E-02    0.442E-01
RMM:   4    -0.231767591446E+04   -0.35404E-03   -0.41214E-03  5531   0.295E-02    0.418E-01
RMM:   5    -0.231767405527E+04    0.18592E-02   -0.22116E-03  5355   0.214E-02    0.877E-02
RMM:   6    -0.231767401296E+04    0.42311E-04   -0.30953E-04  3669   0.932E-03    0.638E-02
RMM:   7    -0.231767395363E+04    0.59326E-04   -0.88093E-05  3103   0.583E-03    0.208E-02
RMM:   8    -0.231767394576E+04    0.78693E-05   -0.32984E-05  3106   0.325E-03
   6 F= -.23389549E+04 E0= -.23389549E+04  d E =-.123812E-06  mag=     3.0000
       N       E                     dE             d eps       ncg     rms          rms(c)
DAV:   1    -0.231766509420E+04    0.88594E-02   -0.78552E+00  4480   0.143E+00    0.558E-01
RMM:   2    -0.231767052147E+04   -0.54273E-02   -0.40468E-02  4669   0.996E-02    0.869E-01
RMM:   3    -0.231766545024E+04    0.50712E-02   -0.83377E-03  5051   0.484E-02    0.529E-01
RMM:   4    -0.231766604156E+04   -0.59132E-03   -0.61691E-03  5792   0.361E-02    0.441E-01
RMM:   5    -0.231766331532E+04    0.27262E-02   -0.21851E-03  5523   0.252E-02    0.546E-02
RMM:   6    -0.231766330703E+04    0.82872E-05   -0.19441E-04  3306   0.694E-03    0.438E-02
RMM:   7    -0.231766331209E+04   -0.50599E-05   -0.80959E-05  2969   0.515E-03
   7 F= -.23389454E+04 E0= -.23389454E+04  d E =-.961982E-07  mag=     3.0000
       N       E                     dE             d eps       ncg     rms          rms(c)
DAV:   1    -0.231768187397E+04   -0.18567E-01   -0.22365E+00  4480   0.793E-01    0.316E-01
RMM:   2    -0.231768319470E+04   -0.13207E-02   -0.11474E-02  4292   0.545E-02    0.425E-01
RMM:   3    -0.231768220230E+04    0.99240E-03   -0.23231E-03  4342   0.276E-02    0.312E-01
RMM:   4    -0.231768244360E+04   -0.24130E-03   -0.19814E-03  5180   0.212E-02    0.251E-01
RMM:   5    -0.231768154303E+04    0.90057E-03   -0.71164E-04  4614   0.148E-02    0.304E-02
RMM:   6    -0.231768154599E+04   -0.29652E-05   -0.71878E-05  3033   0.466E-03
   8 F= -.23389631E+04 E0= -.23389631E+04  d E =-.111178E-06  mag=     3.0000
       N       E                     dE             d eps       ncg     rms          rms(c)
DAV:   1    -0.231767716762E+04    0.43754E-02   -0.11818E+00  4800   0.574E-01    0.369E-01
RMM:   2    -0.231767697834E+04    0.18928E-03   -0.39860E-03  4390   0.342E-02    0.264E-01
RMM:   3    -0.231767943650E+04   -0.24582E-02   -0.33812E-03  5627   0.267E-02    0.572E-01
RMM:   4    -0.231767717453E+04    0.22620E-02   -0.19379E-03  4971   0.195E-02    0.261E-01
RMM:   5    -0.231767648910E+04    0.68543E-03   -0.77976E-04  4214   0.139E-02    0.360E-02
RMM:   6    -0.231767648790E+04    0.12017E-05   -0.93514E-05  3087   0.502E-03
   9 F= -.23389580E+04 E0= -.23389580E+04  d E =-.120659E-06  mag=     3.0000
       N       E                     dE             d eps       ncg     rms          rms(c)
DAV:   1    -0.231768162277E+04   -0.51337E-02   -0.65206E-01  4960   0.424E-01    0.379E-01
RMM:   2    -0.231767984259E+04    0.17802E-02   -0.79294E-03  4842   0.404E-02    0.215E-01
RMM:   3    -0.231768017055E+04   -0.32796E-03   -0.17339E-03  4229   0.264E-02    0.314E-01
RMM:   4    -0.231767967426E+04    0.49629E-03   -0.11019E-03  4532   0.147E-02    0.231E-01
RMM:   5    -0.231767951664E+04    0.15762E-03   -0.58804E-04  4201   0.116E-02    0.128E-01
RMM:   6    -0.231767928459E+04    0.23205E-03   -0.19056E-04  3239   0.765E-03    0.226E-02
RMM:   7    -0.231767928489E+04   -0.29859E-06   -0.25356E-05  2790   0.344E-03
  10 F= -.23389605E+04 E0= -.23389605E+04  d E =-.115058E-06  mag=     3.0000
       N       E                     dE             d eps       ncg     rms          rms(c)
DAV:   1    -0.231766449348E+04    0.14791E-01   -0.13161E+00  5120   0.593E-01    0.593E-01
RMM:   2    -0.231765981973E+04    0.46737E-02   -0.23099E-02  5217   0.685E-02    0.377E-01
RMM:   3    -0.231766276970E+04   -0.29500E-02   -0.73566E-03  4942   0.494E-02    0.707E-01
RMM:   4    -0.231765860152E+04    0.41682E-02   -0.32554E-03  5444   0.258E-02    0.317E-01
RMM:   5    -0.231765858665E+04    0.14870E-04   -0.21576E-03  5056   0.190E-02    0.239E-01
RMM:   6    -0.231765784559E+04    0.74106E-03   -0.59682E-04  4232   0.129E-02    0.303E-02
RMM:   7    -0.231765784281E+04    0.27713E-05   -0.57875E-05  3006   0.481E-03
  11 F= -.23389398E+04 E0= -.23389398E+04  d E =-.115357E-06  mag=     3.0000
       N       E                     dE             d eps       ncg     rms          rms(c)
DAV:   1    -0.231768045201E+04   -0.22606E-01   -0.67217E-01  5040   0.430E-01    0.427E-01
RMM:   2    -0.231767784284E+04    0.26092E-02   -0.11892E-02  5126   0.493E-02    0.235E-01
RMM:   3    -0.231767772892E+04    0.11392E-03   -0.22047E-03  4264   0.299E-02    0.243E-01
RMM:   4    -0.231767769117E+04    0.37755E-04   -0.14866E-03  4851   0.176E-02    0.279E-01
RMM:   5    -0.231767740669E+04    0.28448E-03   -0.80770E-04  4378   0.124E-02    0.211E-01
RMM:   6    -0.231767698736E+04    0.41933E-03   -0.30366E-04  3358   0.875E-03    0.209E-02
RMM:   7    -0.231767698902E+04   -0.16629E-05   -0.38362E-05  2817   0.384E-03
  12 F= -.23389584E+04 E0= -.23389584E+04  d E =-.122102E-06  mag=     3.0000
       N       E                     dE             d eps       ncg     rms          rms(c)
DAV:   1    -0.231767816495E+04   -0.11776E-02   -0.12188E+00  4640   0.577E-01    0.432E-01
RMM:   2    -0.231767687887E+04    0.12861E-02   -0.90280E-03  4852   0.443E-02    0.278E-01
RMM:   3    -0.231767865983E+04   -0.17810E-02   -0.39278E-03  5254   0.349E-02    0.525E-01
RMM:   4    -0.231767673079E+04    0.19290E-02   -0.21062E-03  5189   0.208E-02    0.286E-01
RMM:   5    -0.231767624711E+04    0.48368E-03   -0.11196E-03  4512   0.155E-02    0.113E-01
RMM:   6    -0.231767607037E+04    0.17674E-03   -0.17382E-04  3516   0.803E-03    0.194E-02
RMM:   7    -0.231767607866E+04   -0.82893E-05   -0.35058E-05  2849   0.391E-03
  13 F= -.23389578E+04 E0= -.23389578E+04  d E =-.103126E-06  mag=     3.0000
       N       E                     dE             d eps       ncg     rms          rms(c)
DAV:   1    -0.231767270394E+04    0.33664E-02   -0.57232E-01  4480   0.408E-01    0.237E-01
RMM:   2    -0.231767246498E+04    0.23896E-03   -0.31454E-03  4338   0.288E-02    0.161E-01
RMM:   3    -0.231767319337E+04   -0.72839E-03   -0.13235E-03  4595   0.197E-02    0.327E-01
RMM:   4    -0.231767242944E+04    0.76393E-03   -0.74634E-04  4305   0.125E-02    0.152E-01
RMM:   5    -0.231767226923E+04    0.16021E-03   -0.36075E-04  3669   0.929E-03    0.529E-02
RMM:   6    -0.231767223338E+04    0.35851E-04   -0.46606E-05  2894   0.476E-03    0.144E-02
RMM:   7    -0.231767223624E+04   -0.28585E-05   -0.14774E-05  2618   0.290E-03
  14 F= -.23389534E+04 E0= -.23389534E+04  d E =-.135353E-06  mag=     3.0000
       N       E                     dE             d eps       ncg     rms          rms(c)
DAV:   1    -0.231768705520E+04   -0.14822E-01   -0.10662E+00  4480   0.450E-01    0.222E-01
RMM:   2    -0.231768708635E+04   -0.31150E-04   -0.28304E-03  4124   0.232E-02    0.137E-01
RMM:   3    -0.231768784303E+04   -0.75668E-03   -0.12660E-03  4418   0.185E-02    0.272E-01
RMM:   4    -0.231768713061E+04    0.71242E-03   -0.46561E-04  3904   0.111E-02    0.109E-01
RMM:   5    -0.231768708293E+04    0.47681E-04   -0.20057E-04  3064   0.649E-03    0.551E-02
RMM:   6    -0.231768705659E+04    0.26340E-04   -0.29883E-05  2765   0.394E-03    0.126E-02
RMM:   7    -0.231768705879E+04   -0.22069E-05   -0.12151E-05  2618   0.217E-03
  15 F= -.23389690E+04 E0= -.23389690E+04  d E =-.963298E-07  mag=     3.0000
       N       E                     dE             d eps       ncg     rms          rms(c)
DAV:   1    -0.231768346487E+04    0.35917E-02   -0.53685E-01  4480   0.326E-01    0.193E-01
RMM:   2    -0.231768436480E+04   -0.89993E-03   -0.38143E-03  4935   0.306E-02    0.291E-01
RMM:   3    -0.231768354705E+04    0.81775E-03   -0.94946E-04  4329   0.178E-02    0.197E-01
RMM:   4    -0.231768348323E+04    0.63817E-04   -0.51563E-04  3531   0.978E-03    0.136E-01
RMM:   5    -0.231768332200E+04    0.16123E-03   -0.20809E-04  3409   0.748E-03    0.234E-02
RMM:   6    -0.231768332687E+04   -0.48708E-05   -0.36171E-05  2824   0.415E-03
  16 F= -.23389650E+04 E0= -.23389650E+04  d E =-.133530E-06  mag=     3.0000
       N       E                     dE             d eps       ncg     rms          rms(c)
DAV:   1    -0.231767059659E+04    0.12725E-01   -0.10616E+00  4480   0.455E-01    0.309E-01
RMM:   2    -0.231767485518E+04   -0.42586E-02   -0.14824E-02  5522   0.610E-02    0.622E-01
RMM:   3    -0.231767049158E+04    0.43636E-02   -0.31116E-03  5207   0.325E-02    0.307E-01
RMM:   4    -0.231767002304E+04    0.46853E-03   -0.11701E-03  4155   0.147E-02    0.167E-01
RMM:   5    -0.231766983413E+04    0.18891E-03   -0.42928E-04  4182   0.101E-02    0.498E-02
RMM:   6    -0.231766985584E+04   -0.21710E-04   -0.14867E-04  3098   0.723E-03    0.579E-02
RMM:   7    -0.231766980681E+04    0.49029E-04   -0.37398E-05  2806   0.437E-03    0.110E-02
RMM:   8    -0.231766980498E+04    0.18337E-05   -0.79889E-06  2694   0.189E-03
  17 F= -.23389513E+04 E0= -.23389513E+04  d E =-.997717E-07  mag=     3.0000
       N       E                     dE             d eps       ncg     rms          rms(c)
DAV:   1    -0.231766372955E+04    0.60773E-02   -0.54878E-01  4480   0.345E-01    0.244E-01
RMM:   2    -0.231766636386E+04   -0.26343E-02   -0.81497E-03  5413   0.454E-02    0.535E-01
RMM:   3    -0.231766347867E+04    0.28852E-02   -0.20710E-03  5032   0.251E-02    0.242E-01
RMM:   4    -0.231766317143E+04    0.30725E-03   -0.78639E-04  3849   0.121E-02    0.116E-01
RMM:   5    -0.231766305959E+04    0.11184E-03   -0.34358E-04  4072   0.848E-03    0.309E-02
RMM:   6    -0.231766307293E+04   -0.13335E-04   -0.50765E-05  2805   0.445E-03    0.360E-02
RMM:   7    -0.231766305723E+04    0.15694E-04   -0.19066E-05  2519   0.301E-03    0.121E-02
RMM:   8    -0.231766305707E+04    0.16352E-06   -0.47581E-06  2390   0.152E-03
  18 F= -.23389446E+04 E0= -.23389446E+04  d E =-.102980E-06  mag=     3.0000
       N       E                     dE             d eps       ncg     rms          rms(c)
DAV:   1    -0.231768981242E+04   -0.26755E-01   -0.10880E+00  4480   0.483E-01    0.300E-01
RMM:   2    -0.231769161259E+04   -0.18002E-02   -0.93710E-03  5252   0.478E-02    0.508E-01
RMM:   3    -0.231768960188E+04    0.20107E-02   -0.24421E-03  5036   0.271E-02    0.301E-01
RMM:   4    -0.231768955197E+04    0.49912E-04   -0.17407E-03  4481   0.174E-02    0.211E-01
RMM:   5    -0.231768896773E+04    0.58424E-03   -0.62294E-04  4539   0.123E-02    0.371E-02
RMM:   6    -0.231768896399E+04    0.37410E-05   -0.57295E-05  3021   0.533E-03
  19 F= -.23389705E+04 E0= -.23389705E+04  d E =-.124710E-06  mag=     3.0000
       N       E                     dE             d eps       ncg     rms          rms(c)
DAV:   1    -0.231767809049E+04    0.10877E-01   -0.54787E-01  4480   0.344E-01    0.188E-01
RMM:   2    -0.231767914276E+04   -0.10523E-02   -0.42212E-03  4946   0.301E-02    0.372E-01
RMM:   3    -0.231767788593E+04    0.12568E-02   -0.95066E-04  4282   0.162E-02    0.152E-01
RMM:   4    -0.231767801361E+04   -0.12768E-03   -0.76674E-04  3912   0.117E-02    0.159E-01
RMM:   5    -0.231767771773E+04    0.29588E-03   -0.30409E-04  3800   0.915E-03    0.249E-02
RMM:   6    -0.231767772274E+04   -0.50040E-05   -0.46333E-05  2866   0.397E-03
  20 F= -.23389589E+04 E0= -.23389589E+04  d E =-.107135E-06  mag=     3.0000
       N       E                     dE             d eps       ncg     rms          rms(c)
DAV:   1    -0.231768260707E+04   -0.48893E-02   -0.11044E+00  4480   0.478E-01    0.245E-01
RMM:   2    -0.231768281231E+04   -0.20523E-03   -0.30998E-03  4614   0.265E-02    0.308E-01
RMM:   3    -0.231768219780E+04    0.61451E-03   -0.12634E-03  4485   0.177E-02    0.233E-01
RMM:   4    -0.231768240147E+04   -0.20367E-03   -0.11669E-03  4530   0.146E-02    0.257E-01
RMM:   5    -0.231768172313E+04    0.67833E-03   -0.56357E-04  4200   0.117E-02    0.469E-02
RMM:   6    -0.231768172431E+04   -0.11720E-05   -0.10165E-04  3141   0.560E-03    0.396E-02
RMM:   7    -0.231768170219E+04    0.22119E-04   -0.28061E-05  2750   0.393E-03    0.121E-02
RMM:   8    -0.231768170240E+04   -0.21174E-06   -0.51203E-06  2608   0.176E-03
  21 F= -.23389636E+04 E0= -.23389636E+04  d E =-.125443E-06  mag=     3.0000
       N       E                     dE             d eps       ncg     rms          rms(c)
DAV:   1    -0.231768783726E+04   -0.61351E-02   -0.54773E-01  4480   0.341E-01    0.194E-01
RMM:   2    -0.231768791325E+04   -0.75986E-04   -0.28744E-03  4547   0.268E-02    0.200E-01
RMM:   3    -0.231768772963E+04    0.18362E-03   -0.92153E-04  4053   0.159E-02    0.200E-01
RMM:   4    -0.231768776039E+04   -0.30763E-04   -0.54390E-04  4091   0.107E-02    0.199E-01
RMM:   5    -0.231768737307E+04    0.38732E-03   -0.29931E-04  3665   0.932E-03    0.338E-02
RMM:   6    -0.231768737721E+04   -0.41368E-05   -0.76136E-05  3012   0.435E-03
  22 F= -.23389691E+04 E0= -.23389691E+04  d E =-.123290E-06  mag=     3.0000
       N       E                     dE             d eps       ncg     rms          rms(c)
DAV:   1    -0.231767288220E+04    0.14491E-01   -0.10852E+00  4480   0.491E-01    0.294E-01
RMM:   2    -0.231767252165E+04    0.36054E-03   -0.60206E-03  4810   0.382E-02    0.202E-01
RMM:   3    -0.231767266925E+04   -0.14760E-03   -0.18326E-03  5309   0.212E-02    0.259E-01
RMM:   4    -0.231767226335E+04    0.40590E-03   -0.97171E-04  4430   0.138E-02    0.229E-01
RMM:   5    -0.231767189216E+04    0.37120E-03   -0.42718E-04  3638   0.109E-02    0.770E-02
RMM:   6    -0.231767184262E+04    0.49538E-04   -0.60949E-05  3017   0.478E-03    0.207E-02
RMM:   7    -0.231767184617E+04   -0.35492E-05   -0.24589E-05  2814   0.351E-03
  23 F= -.23389532E+04 E0= -.23389532E+04  d E =-.110572E-06  mag=     3.0000
       N       E                     dE             d eps       ncg     rms          rms(c)
DAV:   1    -0.231767569891E+04   -0.38563E-02   -0.56028E-01  4480   0.339E-01    0.206E-01
RMM:   2    -0.231767557895E+04    0.11995E-03   -0.33649E-03  4132   0.254E-02    0.205E-01
RMM:   3    -0.231767567276E+04   -0.93806E-04   -0.98465E-04  4349   0.168E-02    0.268E-01
RMM:   4    -0.231767539630E+04    0.27646E-03   -0.87989E-04  4186   0.127E-02    0.156E-01
RMM:   5    -0.231767508050E+04    0.31580E-03   -0.28314E-04  3709   0.877E-03    0.222E-02
RMM:   6    -0.231767507237E+04    0.81284E-05   -0.24188E-05  2725   0.310E-03
  24 F= -.23389566E+04 E0= -.23389566E+04  d E =-.112525E-06  mag=     3.0000
       N       E                     dE             d eps       ncg     rms          rms(c)
DAV:   1    -0.231767777044E+04   -0.26899E-02   -0.11193E+00  4560   0.492E-01    0.305E-01
RMM:   2    -0.231767889366E+04   -0.11232E-02   -0.95752E-03  5200   0.502E-02    0.429E-01
RMM:   3    -0.231767718404E+04    0.17096E-02   -0.22030E-03  4995   0.263E-02    0.281E-01
RMM:   4    -0.231767725763E+04   -0.73591E-04   -0.15673E-03  4425   0.166E-02    0.281E-01
RMM:   5    -0.231767643814E+04    0.81949E-03   -0.71285E-04  4772   0.124E-02    0.329E-02
RMM:   6    -0.231767641840E+04    0.19740E-04   -0.72543E-05  3149   0.468E-03    0.235E-02
RMM:   7    -0.231767641320E+04    0.51976E-05   -0.23609E-05  2764   0.333E-03
  25 F= -.23389587E+04 E0= -.23389587E+04  d E =-.110186E-06  mag=     3.0000
