       N       E                     dE             d eps       ncg     rms          rms(c)
DAV:   1     0.128822827921E+05    0.12882E+05   -0.83439E+05  4488   0.144E+03
DAV:   2    -0.104724004527E+04   -0.13930E+05   -0.13322E+05  5096   0.330E+02
DAV:   3    -0.247280999427E+04   -0.14256E+04   -0.14104E+04  5392   0.112E+02
DAV:   4    -0.251827685444E+04   -0.45467E+02   -0.45227E+02  6720   0.299E+01
DAV:   5    -0.251910527815E+04   -0.82842E+00   -0.82700E+00  6000   0.344E+00    0.170E+02
RMM:   6    -0.149027938151E+04    0.10288E+04   -0.19334E+03  4419   0.383E+01    0.722E+01
RMM:   7    -0.166580843551E+04   -0.17553E+03   -0.29503E+02  5011   0.140E+01    0.504E+01
RMM:   8    -0.171493961092E+04   -0.49131E+02   -0.45537E+01  5314   0.685E+00    0.479E+01
RMM:   9    -0.177250574542E+04   -0.57566E+02   -0.74525E+01  4917   0.700E+00    0.365E+01
RMM:  10    -0.190189759796E+04   -0.12939E+03   -0.67793E+01  5242   0.798E+00    0.314E+01
RMM:  11    -0.195742880457E+04   -0.55531E+02   -0.24748E+01  5393   0.422E+00    0.264E+01
RMM:  12    -0.202196125598E+04   -0.64532E+02   -0.21229E+01  4790   0.355E+00    0.173E+01
RMM:  13    -0.211779555603E+04   -0.95834E+02   -0.45746E+01  4530   0.510E+00    0.138E+01
RMM:  14    -0.219717195568E+04   -0.79376E+02   -0.53814E+01  4823   0.524E+00    0.109E+01
RMM:  15    -0.225764584423E+04   -0.60474E+02   -0.42425E+01  4559   0.486E+00    0.713E+00
RMM:  16    -0.230079956909E+04   -0.43154E+02   -0.38978E+01  4480   0.436E+00    0.633E+00
RMM:  17    -0.230938698307E+04   -0.85874E+01   -0.92240E+00  4646   0.271E+00    0.430E+00
RMM:  18    -0.231405398417E+04   -0.46670E+01   -0.44166E+00  4526   0.133E+00    0.222E+00
RMM:  19    -0.231493541301E+04   -0.88143E+00   -0.63358E-01  4673   0.943E-01    0.148E+00
RMM:  20    -0.231577900917E+04   -0.84360E+00   -0.34953E-01  4535   0.365E-01    0.836E-01
RMM:  21    -0.231593493959E+04   -0.15593E+00   -0.62142E-02  4598   0.281E-01    0.471E-01
RMM:  22    -0.231601975319E+04   -0.84814E-01   -0.34381E-02  4468   0.132E-01    0.283E-01
RMM:  23    -0.231605323016E+04   -0.33477E-01   -0.10174E-02  4490   0.106E-01    0.170E-01
RMM:  24    -0.231608030397E+04   -0.27074E-01   -0.71108E-03  4444   0.618E-02    0.113E-01
RMM:  25    -0.231609572769E+04   -0.15424E-01   -0.43435E-03  4451   0.591E-02    0.798E-02
RMM:  26    -0.231610340981E+04   -0.76821E-02   -0.22478E-03  4715   0.369E-02    0.578E-02
RMM:  27    -0.231610923660E+04   -0.58268E-02   -0.15154E-03  4439   0.293E-02    0.381E-02
RMM:  28    -0.231611203641E+04   -0.27998E-02   -0.91912E-04  4209   0.227E-02    0.208E-02
RMM:  29    -0.231611282720E+04   -0.79079E-03   -0.26277E-04  3977   0.154E-02    0.114E-02
RMM:  30    -0.231611318836E+04   -0.36116E-03   -0.11195E-04  3683   0.878E-03    0.605E-03
RMM:  31    -0.231611334640E+04   -0.15805E-03   -0.42417E-05  3406   0.673E-03    0.388E-03
RMM:  32    -0.231611341677E+04   -0.70367E-04   -0.20955E-05  3080   0.421E-03    0.216E-03
RMM:  33    -0.231611344486E+04   -0.28090E-04   -0.11176E-05  2882   0.368E-03    0.120E-03
RMM:  34    -0.231611344992E+04   -0.50542E-05   -0.48054E-06  2576   0.257E-03
   1 F= -.23369310E+04 E0= -.23369310E+04  d E =-.233693E+04  mag=     8.0000
       N       E                     dE             d eps       ncg     rms          rms(c)
DAV:   1    -0.231611804234E+04   -0.45975E-02   -0.31713E-01  5212   0.387E-01    0.194E-01
RMM:   2    -0.231612014353E+04   -0.21012E-02   -0.28723E-02  5728   0.734E-02    0.132E-01
RMM:   3    -0.231612017866E+04   -0.35136E-04   -0.30109E-03  4181   0.351E-02    0.104E-01
RMM:   4    -0.231612010522E+04    0.73445E-04   -0.62674E-04  3394   0.108E-02    0.619E-02
RMM:   5    -0.231612007397E+04    0.31243E-04   -0.14500E-04  3022   0.785E-03    0.269E-02
RMM:   6    -0.231612006840E+04    0.55783E-05   -0.31175E-05  2917   0.458E-03
   2 F= -.23369381E+04 E0= -.23369381E+04  d E =-.703219E-02  mag=     8.0000
       N       E                     dE             d eps       ncg     rms          rms(c)
DAV:   1    -0.231612010559E+04   -0.31612E-04   -0.28302E-02  4916   0.114E-01    0.608E-02
RMM:   2    -0.231612029854E+04   -0.19296E-03   -0.26131E-03  5174   0.233E-02    0.450E-02
RMM:   3    -0.231612030658E+04   -0.80364E-05   -0.29768E-04  2945   0.109E-02    0.406E-02
RMM:   4    -0.231612029255E+04    0.14027E-04   -0.55512E-05  2904   0.383E-03    0.199E-02
RMM:   5    -0.231612028912E+04    0.34259E-05   -0.18088E-05  2836   0.276E-03
   3 F= -.23369384E+04 E0= -.23369384E+04  d E =-.737780E-02  mag=     8.0000
       N       E                     dE             d eps       ncg     rms          rms(c)
DAV:   1    -0.231611960448E+04    0.68807E-03   -0.17526E-01  4704   0.354E-01    0.178E-01
RMM:   2    -0.231612220481E+04   -0.26003E-02   -0.28654E-02  5795   0.705E-02    0.126E-01
RMM:   3    -0.231612237002E+04   -0.16521E-03   -0.31113E-03  4019   0.340E-02    0.888E-02
RMM:   4    -0.231612231002E+04    0.60008E-04   -0.36246E-04  3131   0.879E-03    0.452E-02
RMM:   5    -0.231612228788E+04    0.22132E-04   -0.86605E-05  3007   0.646E-03    0.273E-02
RMM:   6    -0.231612228620E+04    0.16854E-05   -0.38086E-05  2910   0.522E-03
   4 F= -.23369407E+04 E0= -.23369407E+04  d E =-.231733E-02  mag=     8.0000
       N       E                     dE             d eps       ncg     rms          rms(c)
DAV:   1    -0.231612214013E+04    0.14776E-03   -0.84145E-03  5256   0.778E-02    0.397E-02
RMM:   2    -0.231612226629E+04   -0.12616E-03   -0.14244E-03  4480   0.172E-02    0.215E-02
RMM:   3    -0.231612227762E+04   -0.11329E-04   -0.15907E-04  2880   0.892E-03    0.182E-02
RMM:   4    -0.231612227685E+04    0.76677E-06   -0.21514E-05  2888   0.262E-03
   5 F= -.23369408E+04 E0= -.23369408E+04  d E =-.237924E-02  mag=     8.0000
       N       E                     dE             d eps       ncg     rms          rms(c)
DAV:   1    -0.231612068557E+04    0.15920E-02   -0.12806E-01  4600   0.280E-01    0.135E-01
RMM:   2    -0.231612322294E+04   -0.25374E-02   -0.25724E-02  5897   0.582E-02    0.107E-01
RMM:   3    -0.231612340030E+04   -0.17735E-03   -0.26356E-03  3453   0.271E-02    0.595E-02
RMM:   4    -0.231612339100E+04    0.92995E-05   -0.28692E-04  2938   0.649E-03    0.335E-02
RMM:   5    -0.231612337642E+04    0.14575E-04   -0.34395E-05  2882   0.404E-03    0.207E-02
RMM:   6    -0.231612337603E+04    0.39590E-06   -0.27414E-05  2868   0.384E-03
   6 F= -.23369421E+04 E0= -.23369421E+04  d E =-.133598E-02  mag=     8.0000
       N       E                     dE             d eps       ncg     rms          rms(c)
DAV:   1    -0.231610951441E+04    0.13862E-01   -0.68118E-01  4592   0.646E-01    0.318E-01
RMM:   2    -0.231612312203E+04   -0.13608E-01   -0.13829E-01  5768   0.133E-01    0.254E-01
RMM:   3    -0.231612407144E+04   -0.94941E-03   -0.14459E-02  4923   0.644E-02    0.139E-01
RMM:   4    -0.231612399092E+04    0.80519E-04   -0.15270E-03  3566   0.132E-02    0.771E-02
RMM:   5    -0.231612392506E+04    0.65857E-04   -0.16993E-04  3085   0.831E-03    0.578E-02
RMM:   6    -0.231612390628E+04    0.18785E-04   -0.15367E-04  3172   0.762E-03    0.454E-02
RMM:   7    -0.231612389005E+04    0.16226E-04   -0.40185E-05  2918   0.612E-03    0.145E-02
RMM:   8    -0.231612388838E+04    0.16745E-05   -0.11696E-05  2866   0.393E-03
   7 F= -.23369432E+04 E0= -.23369432E+04  d E =-.239099E-02  mag=     8.0000
       N       E                     dE             d eps       ncg     rms          rms(c)
DAV:   1    -0.231612384238E+04    0.47668E-04   -0.21212E-02  4760   0.100E-01    0.528E-02
RMM:   2    -0.231612428687E+04   -0.44448E-03   -0.45261E-03  4693   0.225E-02    0.414E-02
RMM:   3    -0.231612432052E+04   -0.33652E-04   -0.45191E-04  2881   0.104E-02    0.220E-02
RMM:   4    -0.231612432015E+04    0.36968E-06   -0.51759E-05  2876   0.289E-03
   8 F= -.23369437E+04 E0= -.23369437E+04  d E =-.525213E-03  mag=     8.0000
       N       E                     dE             d eps       ncg     rms          rms(c)
DAV:   1    -0.231612120183E+04    0.31187E-02   -0.19004E-01  4564   0.300E-01    0.158E-01
RMM:   2    -0.231612522246E+04   -0.40206E-02   -0.40385E-02  6017   0.632E-02    0.146E-01
RMM:   3    -0.231612544370E+04   -0.22124E-03   -0.38857E-03  3337   0.289E-02    0.700E-02
RMM:   4    -0.231612543183E+04    0.11879E-04   -0.45686E-04  2964   0.688E-03    0.395E-02
RMM:   5    -0.231612541168E+04    0.20143E-04   -0.39693E-05  2859   0.361E-03    0.233E-02
RMM:   6    -0.231612540813E+04    0.35489E-05   -0.34093E-05  2883   0.359E-03
   9 F= -.23369451E+04 E0= -.23369451E+04  d E =-.189182E-02  mag=     8.0000
       N       E                     dE             d eps       ncg     rms          rms(c)
DAV:   1    -0.231610980690E+04    0.15605E-01   -0.76148E-01  4544   0.600E-01    0.324E-01
RMM:   2    -0.231612592179E+04   -0.16115E-01   -0.16239E-01  5972   0.127E-01    0.296E-01
RMM:   3    -0.231612683933E+04   -0.91754E-03   -0.16237E-02  4638   0.619E-02    0.140E-01
RMM:   4    -0.231612680630E+04    0.33027E-04   -0.18648E-03  3255   0.123E-02    0.752E-02
RMM:   5    -0.231612673684E+04    0.69461E-04   -0.13466E-04  2964   0.630E-03    0.517E-02
RMM:   6    -0.231612673668E+04    0.16307E-06   -0.15074E-04  2989   0.613E-03    0.540E-02
RMM:   7    -0.231612671435E+04    0.22334E-04   -0.46318E-05  2871   0.493E-03    0.103E-02
RMM:   8    -0.231612671481E+04   -0.46124E-06   -0.78224E-06  2784   0.269E-03
  10 F= -.23369469E+04 E0= -.23369469E+04  d E =-.374721E-02  mag=     8.0000
       N       E                     dE             d eps       ncg     rms          rms(c)
DAV:   1    -0.231605776810E+04    0.68946E-01   -0.30484E+00  4496   0.120E+00    0.652E-01
RMM:   2    -0.231612272371E+04   -0.64956E-01   -0.65269E-01  6091   0.257E-01    0.617E-01
RMM:   3    -0.231612625446E+04   -0.35307E-02   -0.68869E-02  5493   0.117E-01    0.274E-01
RMM:   4    -0.231612611249E+04    0.14197E-03   -0.74685E-03  4277   0.236E-02    0.151E-01
RMM:   5    -0.231612586219E+04    0.25030E-03   -0.56089E-04  3465   0.115E-02    0.116E-01
RMM:   6    -0.231612581738E+04    0.44810E-04   -0.54795E-04  3450   0.107E-02    0.103E-01
RMM:   7    -0.231612573749E+04    0.79894E-04   -0.20208E-04  3134   0.846E-03    0.209E-02
RMM:   8    -0.231612573941E+04   -0.19288E-05   -0.28824E-05  2884   0.506E-03
  11 F= -.23369470E+04 E0= -.23369470E+04  d E =-.383089E-02  mag=     8.0000
       N       E                     dE             d eps       ncg     rms          rms(c)
DAV:   1    -0.231611221938E+04    0.13518E-01   -0.65688E-01  4512   0.558E-01    0.294E-01
RMM:   2    -0.231612602265E+04   -0.13803E-01   -0.13979E-01  6108   0.117E-01    0.241E-01
RMM:   3    -0.231612694279E+04   -0.92014E-03   -0.13388E-02  4688   0.526E-02    0.130E-01
RMM:   4    -0.231612687684E+04    0.65946E-04   -0.15401E-03  3115   0.115E-02    0.717E-02
RMM:   5    -0.231612682227E+04    0.54569E-04   -0.12194E-04  2944   0.581E-03    0.504E-02
RMM:   6    -0.231612681214E+04    0.10136E-04   -0.11421E-04  2944   0.555E-03    0.474E-02
RMM:   7    -0.231612679587E+04    0.16266E-04   -0.44694E-05  2877   0.461E-03    0.100E-02
RMM:   8    -0.231612679541E+04    0.46269E-06   -0.75896E-06  2791   0.266E-03
  12 F= -.23369476E+04 E0= -.23369476E+04  d E =-.440210E-02  mag=     8.0000
       N       E                     dE             d eps       ncg     rms          rms(c)
DAV:   1    -0.231612543996E+04    0.13559E-02   -0.10612E-01  4576   0.237E-01    0.133E-01
RMM:   2    -0.231612795227E+04   -0.25123E-02   -0.25151E-02  6002   0.531E-02    0.124E-01
RMM:   3    -0.231612807671E+04   -0.12444E-03   -0.24812E-03  3263   0.242E-02    0.594E-02
RMM:   4    -0.231612806159E+04    0.15119E-04   -0.29847E-04  2926   0.619E-03    0.287E-02
RMM:   5    -0.231612805156E+04    0.10032E-04   -0.20189E-05  2841   0.329E-03    0.203E-02
RMM:   6    -0.231612805091E+04    0.65033E-06   -0.22038E-05  2844   0.325E-03
  13 F= -.23369490E+04 E0= -.23369490E+04  d E =-.138560E-02  mag=     8.0000
       N       E                     dE             d eps       ncg     rms          rms(c)
DAV:   1    -0.231610675523E+04    0.21296E-01   -0.95334E-01  4496   0.711E-01    0.397E-01
RMM:   2    -0.231612920302E+04   -0.22448E-01   -0.22582E-01  5962   0.159E-01    0.351E-01
RMM:   3    -0.231613053445E+04   -0.13314E-02   -0.22870E-02  5271   0.733E-02    0.181E-01
RMM:   4    -0.231613040193E+04    0.13253E-03   -0.27082E-03  3741   0.161E-02    0.884E-02
RMM:   5    -0.231613030761E+04    0.94322E-04   -0.17240E-04  3097   0.857E-03    0.581E-02
RMM:   6    -0.231613030128E+04    0.63301E-05   -0.21345E-04  3407   0.868E-03    0.657E-02
RMM:   7    -0.231613026613E+04    0.35143E-04   -0.63900E-05  2890   0.661E-03    0.114E-02
RMM:   8    -0.231613026677E+04   -0.63769E-06   -0.13556E-05  2886   0.338E-03
  14 F= -.23369516E+04 E0= -.23369516E+04  d E =-.398793E-02  mag=     8.0000
       N       E                     dE             d eps       ncg     rms          rms(c)
DAV:   1    -0.231603335308E+04    0.96913E-01   -0.38172E+00  4480   0.142E+00    0.794E-01
RMM:   2    -0.231612360510E+04   -0.90252E-01   -0.90937E-01  5983   0.321E-01    0.696E-01
RMM:   3    -0.231612936566E+04   -0.57606E-02   -0.94588E-02  5569   0.145E-01    0.375E-01
RMM:   4    -0.231612876748E+04    0.59818E-03   -0.10853E-02  4936   0.321E-02    0.179E-01
RMM:   5    -0.231612837591E+04    0.39157E-03   -0.69927E-04  4126   0.161E-02    0.112E-01
RMM:   6    -0.231612822493E+04    0.15098E-03   -0.84364E-04  4362   0.165E-02    0.432E-02
RMM:   7    -0.231612822717E+04   -0.22439E-05   -0.14421E-04  3034   0.102E-02    0.400E-02
RMM:   8    -0.231612821816E+04    0.90074E-05   -0.35398E-05  2890   0.389E-03
  15 F= -.23369503E+04 E0= -.23369503E+04  d E =-.269286E-02  mag=     8.0000
       N       E                     dE             d eps       ncg     rms          rms(c)
DAV:   1    -0.231609256896E+04    0.35658E-01   -0.15465E+00  4480   0.906E-01    0.508E-01
RMM:   2    -0.231612904901E+04   -0.36480E-01   -0.36514E-01  5991   0.203E-01    0.480E-01
RMM:   3    -0.231613087206E+04   -0.18230E-02   -0.36571E-02  5472   0.918E-02    0.232E-01
RMM:   4    -0.231613075810E+04    0.11396E-03   -0.44419E-03  4283   0.202E-02    0.108E-01
RMM:   5    -0.231613060998E+04    0.14812E-03   -0.27481E-04  3349   0.105E-02    0.748E-02
RMM:   6    -0.231613060244E+04    0.75331E-05   -0.31559E-04  3661   0.103E-02    0.815E-02
RMM:   7    -0.231613054702E+04    0.55420E-04   -0.10048E-04  2926   0.761E-03    0.155E-02
RMM:   8    -0.231613054714E+04   -0.11420E-06   -0.17485E-05  2891   0.396E-03
  16 F= -.23369521E+04 E0= -.23369521E+04  d E =-.454557E-02  mag=     8.0000
       N       E                     dE             d eps       ncg     rms          rms(c)
DAV:   1    -0.231612989665E+04    0.65038E-03   -0.59946E-02  4680   0.161E-01    0.986E-02
RMM:   2    -0.231613139744E+04   -0.15008E-02   -0.15031E-02  5779   0.382E-02    0.873E-02
RMM:   3    -0.231613148603E+04   -0.88597E-04   -0.14520E-03  2941   0.168E-02    0.444E-02
RMM:   4    -0.231613147821E+04    0.78246E-05   -0.17641E-04  2913   0.454E-03    0.217E-02
RMM:   5    -0.231613147321E+04    0.50036E-05   -0.95571E-06  2706   0.199E-03
  17 F= -.23369532E+04 E0= -.23369532E+04  d E =-.102429E-02  mag=     8.0000
       N       E                     dE             d eps       ncg     rms          rms(c)
DAV:   1    -0.231611970235E+04    0.11776E-01   -0.53880E-01  4504   0.481E-01    0.293E-01
RMM:   2    -0.231613325846E+04   -0.13556E-01   -0.13560E-01  6138   0.111E-01    0.268E-01
RMM:   3    -0.231613402871E+04   -0.77025E-03   -0.13302E-02  4671   0.505E-02    0.133E-01
RMM:   4    -0.231613396839E+04    0.60324E-04   -0.16038E-03  3046   0.114E-02    0.662E-02
RMM:   5    -0.231613391901E+04    0.49376E-04   -0.82523E-05  2915   0.532E-03    0.451E-02
RMM:   6    -0.231613390387E+04    0.15137E-04   -0.11925E-04  2970   0.595E-03    0.337E-02
RMM:   7    -0.231613389612E+04    0.77593E-05   -0.27430E-05  2850   0.439E-03
  18 F= -.23369559E+04 E0= -.23369559E+04  d E =-.374009E-02  mag=     8.0000
       N       E                     dE             d eps       ncg     rms          rms(c)
DAV:   1    -0.231608037516E+04    0.53529E-01   -0.21589E+00  4488   0.965E-01    0.593E-01
RMM:   2    -0.231613445603E+04   -0.54081E-01   -0.54284E-01  6209   0.225E-01    0.532E-01
RMM:   3    -0.231613787689E+04   -0.34209E-02   -0.55109E-02  5491   0.102E-01    0.276E-01
RMM:   4    -0.231613763279E+04    0.24411E-03   -0.64764E-03  3936   0.223E-02    0.130E-01
RMM:   5    -0.231613744293E+04    0.18985E-03   -0.32406E-04  3137   0.947E-03    0.883E-02
RMM:   6    -0.231613738682E+04    0.56117E-04   -0.46949E-04  3763   0.107E-02    0.717E-02
RMM:   7    -0.231613734847E+04    0.38346E-04   -0.10092E-04  2907   0.737E-03    0.210E-02
RMM:   8    -0.231613734968E+04   -0.12104E-05   -0.20682E-05  2884   0.311E-03
  19 F= -.23369599E+04 E0= -.23369599E+04  d E =-.777120E-02  mag=     8.0000
       N       E                     dE             d eps       ncg     rms          rms(c)
DAV:   1    -0.231590858688E+04    0.22876E+00   -0.86371E+00  4472   0.193E+00    0.118E+00
RMM:   2    -0.231612598457E+04   -0.21740E+00   -0.21880E+00  6179   0.453E-01    0.104E+00
RMM:   3    -0.231614093143E+04   -0.14947E-01   -0.22776E-01  5684   0.202E-01    0.583E-01
RMM:   4    -0.231613963627E+04    0.12952E-02   -0.25515E-02  5128   0.444E-02    0.268E-01
RMM:   5    -0.231613886380E+04    0.77248E-03   -0.13478E-03  3998   0.176E-02    0.179E-01
RMM:   6    -0.231613853162E+04    0.33218E-03   -0.18924E-03  4498   0.202E-02    0.108E-01
RMM:   7    -0.231613847829E+04    0.53327E-04   -0.40722E-04  3316   0.123E-02    0.646E-02
RMM:   8    -0.231613845939E+04    0.18903E-04   -0.10021E-04  2912   0.551E-03    0.234E-02
RMM:   9    -0.231613847208E+04   -0.12691E-04   -0.38401E-05  2870   0.428E-03    0.942E-03
RMM:  10    -0.231613848121E+04   -0.91319E-05   -0.11130E-05  2854   0.284E-03
  20 F= -.23369621E+04 E0= -.23369621E+04  d E =-.100221E-01  mag=     8.0000
       N       E                     dE             d eps       ncg     rms          rms(c)
DAV:   1    -0.231612735083E+04    0.11121E-01   -0.51148E-01  4632   0.441E-01    0.285E-01
RMM:   2    -0.231613990345E+04   -0.12553E-01   -0.12555E-01  6203   0.106E-01    0.258E-01
RMM:   3    -0.231614066828E+04   -0.76484E-03   -0.12475E-02  4431   0.471E-02    0.125E-01
RMM:   4    -0.231614063180E+04    0.36480E-04   -0.14979E-03  3034   0.111E-02    0.631E-02
RMM:   5    -0.231614059330E+04    0.38507E-04   -0.77710E-05  2890   0.514E-03    0.459E-02
RMM:   6    -0.231614058897E+04    0.43253E-05   -0.82705E-05  2897   0.485E-03
  21 F= -.23369646E+04 E0= -.23369646E+04  d E =-.242085E-02  mag=     8.0000
       N       E                     dE             d eps       ncg     rms          rms(c)
DAV:   1    -0.231602446967E+04    0.11612E+00   -0.45898E+00  4480   0.132E+00    0.855E-01
RMM:   2    -0.231613774789E+04   -0.11328E+00   -0.11343E+00  6223   0.320E-01    0.778E-01
RMM:   3    -0.231614491308E+04   -0.71652E-02   -0.11717E-01  5667   0.146E-01    0.387E-01
RMM:   4    -0.231614456870E+04    0.34438E-03   -0.13487E-02  4742   0.320E-02    0.192E-01
RMM:   5    -0.231614419085E+04    0.37785E-03   -0.71764E-04  3513   0.136E-02    0.130E-01
RMM:   6    -0.231614415270E+04    0.38146E-04   -0.88197E-04  3989   0.135E-02    0.130E-01
RMM:   7    -0.231614402673E+04    0.12598E-03   -0.29016E-04  3068   0.966E-03    0.336E-02
RMM:   8    -0.231614403154E+04   -0.48142E-05   -0.58159E-05  2910   0.492E-03
  22 F= -.23369689E+04 E0= -.23369689E+04  d E =-.676790E-02  mag=     8.0000
       N       E                     dE             d eps       ncg     rms          rms(c)
DAV:   1    -0.231565330744E+04    0.49072E+00   -0.18377E+01  4472   0.266E+00    0.171E+00
RMM:   2    -0.231611224968E+04   -0.45894E+00   -0.46067E+00  6256   0.654E-01    0.153E+00
RMM:   3    -0.231614291095E+04   -0.30661E-01   -0.49147E-01  5789   0.290E-01    0.785E-01
RMM:   4    -0.231614119703E+04    0.17139E-02   -0.52720E-02  5337   0.639E-02    0.387E-01
RMM:   5    -0.231613960533E+04    0.15917E-02   -0.29999E-03  4567   0.262E-02    0.252E-01
RMM:   6    -0.231613898493E+04    0.62040E-03   -0.34806E-03  4670   0.269E-02    0.106E-01
RMM:   7    -0.231613898090E+04    0.40312E-05   -0.80864E-04  3801   0.160E-02    0.614E-02
RMM:   8    -0.231613899475E+04   -0.13850E-04   -0.15723E-04  2975   0.665E-03    0.512E-02
RMM:   9    -0.231613899923E+04   -0.44772E-05   -0.57171E-05  2878   0.485E-03
  23 F= -.23369655E+04 E0= -.23369655E+04  d E =-.339610E-02  mag=     8.0000
       N       E                     dE             d eps       ncg     rms          rms(c)
DAV:   1    -0.231590644579E+04    0.23255E+00   -0.90959E+00  4464   0.187E+00    0.120E+00
RMM:   2    -0.231613142910E+04   -0.22498E+00   -0.22545E+00  6295   0.458E-01    0.109E+00
RMM:   3    -0.231614580409E+04   -0.14375E-01   -0.22951E-01  5782   0.196E-01    0.550E-01
RMM:   4    -0.231614540655E+04    0.39754E-03   -0.26166E-02  4969   0.444E-02    0.267E-01
RMM:   5    -0.231614466429E+04    0.74226E-03   -0.15227E-03  4152   0.188E-02    0.191E-01
RMM:   6    -0.231614455550E+04    0.10879E-03   -0.15041E-03  4437   0.172E-02    0.196E-01
RMM:   7    -0.231614425706E+04    0.29844E-03   -0.68765E-04  3766   0.129E-02    0.420E-02
RMM:   8    -0.231614426572E+04   -0.86559E-05   -0.13705E-04  2959   0.687E-03    0.215E-02
RMM:   9    -0.231614427107E+04   -0.53504E-05   -0.21644E-05  2877   0.437E-03
  24 F= -.23369697E+04 E0= -.23369697E+04  d E =-.751997E-02  mag=     8.0000
       N       E                     dE             d eps       ncg     rms          rms(c)
DAV:   1    -0.231614263316E+04    0.16326E-02   -0.16532E-01  4576   0.306E-01    0.154E-01
RMM:   2    -0.231614603169E+04   -0.33985E-02   -0.34568E-02  6029   0.657E-02    0.116E-01
RMM:   3    -0.231614627216E+04   -0.24046E-03   -0.33486E-03  3615   0.296E-02    0.642E-02
RMM:   4    -0.231614625851E+04    0.13642E-04   -0.38284E-04  2947   0.731E-03    0.371E-02
RMM:   5    -0.231614624179E+04    0.16724E-04   -0.43949E-05  2899   0.465E-03    0.183E-02
RMM:   6    -0.231614624097E+04    0.81505E-06   -0.24928E-05  2920   0.411E-03
  25 F= -.23369719E+04 E0= -.23369719E+04  d E =-.223121E-02  mag=     8.0000
       N       E                     dE             d eps       ncg     rms          rms(c)
DAV:   1    -0.231611588094E+04    0.30361E-01   -0.14902E+00  4480   0.918E-01    0.475E-01
RMM:   2    -0.231614677911E+04   -0.30898E-01   -0.31236E-01  5911   0.195E-01    0.411E-01
RMM:   3    -0.231614870398E+04   -0.19249E-02   -0.32504E-02  5360   0.900E-02    0.202E-01
RMM:   4    -0.231614860803E+04    0.95954E-04   -0.36758E-03  4427   0.195E-02    0.108E-01
RMM:   5    -0.231614847230E+04    0.13572E-03   -0.36387E-04  3580   0.116E-02    0.791E-02
RMM:   6    -0.231614845677E+04    0.15537E-04   -0.28428E-04  3556   0.978E-03    0.698E-02
RMM:   7    -0.231614841947E+04    0.37300E-04   -0.75554E-05  2921   0.741E-03    0.177E-02
RMM:   8    -0.231614841938E+04    0.90542E-07   -0.20511E-05  2898   0.446E-03
  26 F= -.23369748E+04 E0= -.23369748E+04  d E =-.517198E-02  mag=     8.0000
       N       E                     dE             d eps       ncg     rms          rms(c)
DAV:   1    -0.231614237229E+04    0.60472E-02   -0.38122E-01  4480   0.471E-01    0.228E-01
RMM:   2    -0.231614998204E+04   -0.76097E-02   -0.77279E-02  5999   0.972E-02    0.163E-01
RMM:   3    -0.231615054539E+04   -0.56336E-03   -0.76288E-03  4465   0.438E-02    0.946E-02
RMM:   4    -0.231615052334E+04    0.22054E-04   -0.84082E-04  3001   0.971E-03    0.558E-02
RMM:   5    -0.231615048468E+04    0.38662E-04   -0.10164E-04  2946   0.617E-03    0.367E-02
RMM:   6    -0.231615047933E+04    0.53532E-05   -0.76653E-05  2944   0.585E-03
  27 F= -.23369772E+04 E0= -.23369772E+04  d E =-.240833E-02  mag=     8.0000
       N       E                     dE             d eps       ncg     rms          rms(c)
DAV:   1    -0.231613175450E+04    0.18730E-01   -0.90826E-01  4480   0.726E-01    0.353E-01
RMM:   2    -0.231614979238E+04   -0.18038E-01   -0.18334E-01  5948   0.149E-01    0.250E-01
RMM:   3    -0.231615127836E+04   -0.14860E-02   -0.19694E-02  5183   0.687E-02    0.144E-01
RMM:   4    -0.231615124282E+04    0.35542E-04   -0.20429E-03  3587   0.144E-02    0.907E-02
RMM:   5    -0.231615116642E+04    0.76401E-04   -0.22325E-04  3113   0.870E-03    0.721E-02
RMM:   6    -0.231615112377E+04    0.42650E-04   -0.21402E-04  3370   0.840E-03    0.422E-02
RMM:   7    -0.231615111353E+04    0.10242E-04   -0.44082E-05  2907   0.626E-03    0.235E-02
RMM:   8    -0.231615110983E+04    0.36989E-05   -0.18523E-05  2881   0.408E-03
  28 F= -.23369784E+04 E0= -.23369784E+04  d E =-.356372E-02  mag=     8.0000
       N       E                     dE             d eps       ncg     rms          rms(c)
DAV:   1    -0.231614037827E+04    0.10735E-01   -0.54629E-01  4480   0.578E-01    0.275E-01
RMM:   2    -0.231615154269E+04   -0.11164E-01   -0.11365E-01  5945   0.119E-01    0.192E-01
RMM:   3    -0.231615246817E+04   -0.92547E-03   -0.12222E-02  4884   0.546E-02    0.115E-01
RMM:   4    -0.231615243255E+04    0.35620E-04   -0.12120E-03  3144   0.114E-02    0.685E-02
RMM:   5    -0.231615237462E+04    0.57933E-04   -0.14175E-04  2993   0.719E-03    0.460E-02
RMM:   6    -0.231615236379E+04    0.10822E-04   -0.11872E-04  3061   0.686E-03    0.398E-02
RMM:   7    -0.231615235359E+04    0.10204E-04   -0.29402E-05  2885   0.534E-03    0.178E-02
RMM:   8    -0.231615235171E+04    0.18816E-05   -0.10021E-05  2843   0.308E-03
  29 F= -.23369800E+04 E0= -.23369800E+04  d E =-.162157E-02  mag=     8.0000
       N       E                     dE             d eps       ncg     rms          rms(c)
DAV:   1    -0.231614316590E+04    0.91877E-02   -0.40705E-01  4480   0.499E-01    0.238E-01
RMM:   2    -0.231615165717E+04   -0.84913E-02   -0.86441E-02  5883   0.103E-01    0.167E-01
RMM:   3    -0.231615228278E+04   -0.62561E-03   -0.85076E-03  4567   0.454E-02    0.100E-01
RMM:   4    -0.231615226004E+04    0.22739E-04   -0.88116E-04  3032   0.100E-02    0.588E-02
RMM:   5    -0.231615221057E+04    0.49473E-04   -0.11134E-04  2953   0.637E-03    0.330E-02
RMM:   6    -0.231615220409E+04    0.64771E-05   -0.70954E-05  3002   0.591E-03
  30 F= -.23369802E+04 E0= -.23369802E+04  d E =-.179462E-02  mag=     8.0000
       N       E                     dE             d eps       ncg     rms          rms(c)
DAV:   1    -0.231615151589E+04    0.69468E-03   -0.38526E-02  4648   0.154E-01    0.738E-02
RMM:   2    -0.231615232995E+04   -0.81405E-03   -0.81697E-03  5825   0.346E-02    0.623E-02
RMM:   3    -0.231615238024E+04   -0.50296E-04   -0.81342E-04  2924   0.143E-02    0.387E-02
RMM:   4    -0.231615237230E+04    0.79446E-05   -0.87219E-05  2904   0.421E-03
  31 F= -.23369803E+04 E0= -.23369803E+04  d E =-.186520E-02  mag=     8.0000
       N       E                     dE             d eps       ncg     rms          rms(c)
DAV:   1    -0.231615090118E+04    0.14791E-02   -0.13675E-01  4480   0.344E-01    0.143E-01
RMM:   2    -0.231615293483E+04   -0.20336E-02   -0.21469E-02  5632   0.657E-02    0.979E-02
RMM:   3    -0.231615306942E+04   -0.13459E-03   -0.20937E-03  3924   0.312E-02    0.690E-02
RMM:   4    -0.231615303602E+04    0.33402E-04   -0.24501E-04  2965   0.766E-03    0.319E-02
RMM:   5    -0.231615302051E+04    0.15503E-04   -0.41157E-05  2910   0.546E-03    0.150E-02
RMM:   6    -0.231615301782E+04    0.26887E-05   -0.18439E-05  2926   0.470E-03
  32 F= -.23369811E+04 E0= -.23369811E+04  d E =-.799466E-03  mag=     8.0000
       N       E                     dE             d eps       ncg     rms          rms(c)
DAV:   1    -0.231615282670E+04    0.19381E-03   -0.10998E-02  4824   0.976E-02    0.402E-02
RMM:   2    -0.231615299342E+04   -0.16672E-03   -0.17455E-03  5127   0.209E-02    0.294E-02
RMM:   3    -0.231615300587E+04   -0.12451E-04   -0.18338E-04  2890   0.929E-03    0.227E-02
RMM:   4    -0.231615300249E+04    0.33755E-05   -0.21845E-05  2886   0.301E-03
  33 F= -.23369811E+04 E0= -.23369811E+04  d E =-.828032E-03  mag=     8.0000
       N       E                     dE             d eps       ncg     rms          rms(c)
DAV:   1    -0.231615200360E+04    0.10023E-02   -0.97117E-02  4476   0.308E-01    0.110E-01
RMM:   2    -0.231615333669E+04   -0.13331E-02   -0.13939E-02  5643   0.550E-02    0.616E-02
RMM:   3    -0.231615343959E+04   -0.10291E-03   -0.13114E-03  3647   0.256E-02    0.452E-02
RMM:   4    -0.231615342990E+04    0.96950E-05   -0.16370E-04  2937   0.615E-03    0.298E-02
RMM:   5    -0.231615342085E+04    0.90470E-05   -0.23578E-05  2885   0.402E-03
  34 F= -.23369817E+04 E0= -.23369817E+04  d E =-.557016E-03  mag=     8.0000
       N       E                     dE             d eps       ncg     rms          rms(c)
DAV:   1    -0.231615189540E+04    0.15345E-02   -0.10431E-01  4480   0.319E-01    0.116E-01
RMM:   2    -0.231615335636E+04   -0.14610E-02   -0.15139E-02  5921   0.586E-02    0.828E-02
RMM:   3    -0.231615344998E+04   -0.93621E-04   -0.14316E-03  3615   0.244E-02    0.605E-02
RMM:   4    -0.231615342372E+04    0.26254E-04   -0.18219E-04  2928   0.667E-03    0.282E-02
RMM:   5    -0.231615341425E+04    0.94737E-05   -0.27853E-05  2910   0.439E-03
  35 F= -.23369818E+04 E0= -.23369818E+04  d E =-.694790E-03  mag=     8.0000
       N       E                     dE             d eps       ncg     rms          rms(c)
DAV:   1    -0.231615210861E+04    0.13151E-02   -0.91806E-02  4512   0.281E-01    0.105E-01
RMM:   2    -0.231615367001E+04   -0.15614E-02   -0.15930E-02  6170   0.546E-02    0.810E-02
RMM:   3    -0.231615379377E+04   -0.12376E-03   -0.16399E-03  3249   0.215E-02    0.561E-02
RMM:   4    -0.231615378005E+04    0.13711E-04   -0.18551E-04  2918   0.599E-03    0.286E-02
RMM:   5    -0.231615377501E+04    0.50482E-05   -0.19933E-05  2888   0.317E-03
  36 F= -.23369823E+04 E0= -.23369823E+04  d E =-.491913E-03  mag=     8.0000
       N       E                     dE             d eps       ncg     rms          rms(c)
DAV:   1    -0.231614880325E+04    0.49768E-02   -0.28048E-01  4480   0.492E-01    0.178E-01
RMM:   2    -0.231615353077E+04   -0.47275E-02   -0.48453E-02  5936   0.921E-02    0.121E-01
RMM:   3    -0.231615390954E+04   -0.37877E-03   -0.48067E-03  4137   0.393E-02    0.823E-02
RMM:   4    -0.231615388434E+04    0.25203E-04   -0.55061E-04  2980   0.933E-03    0.491E-02
RMM:   5    -0.231615385599E+04    0.28348E-04   -0.59303E-05  2907   0.584E-03    0.250E-02
RMM:   6    -0.231615385148E+04    0.45112E-05   -0.44589E-05  2986   0.572E-03
  37 F= -.23369826E+04 E0= -.23369826E+04  d E =-.797087E-03  mag=     8.0000
       N       E                     dE             d eps       ncg     rms          rms(c)
DAV:   1    -0.231615222126E+04    0.16347E-02   -0.12750E-01  4480   0.340E-01    0.128E-01
RMM:   2    -0.231615412890E+04   -0.19076E-02   -0.19939E-02  6058   0.649E-02    0.712E-02
RMM:   3    -0.231615429313E+04   -0.16423E-03   -0.19269E-03  3692   0.265E-02    0.522E-02
RMM:   4    -0.231615428454E+04    0.85936E-05   -0.23091E-04  2939   0.657E-03    0.345E-02
RMM:   5    -0.231615427446E+04    0.10076E-04   -0.27987E-05  2892   0.408E-03    0.202E-02
RMM:   6    -0.231615427330E+04    0.11605E-05   -0.22654E-05  2884   0.391E-03
  38 F= -.23369831E+04 E0= -.23369831E+04  d E =-.529798E-03  mag=     8.0000
       N       E                     dE             d eps       ncg     rms          rms(c)
DAV:   1    -0.231615283206E+04    0.14424E-02   -0.89548E-02  4544   0.285E-01    0.107E-01
RMM:   2    -0.231615417747E+04   -0.13454E-02   -0.14058E-02  6004   0.543E-02    0.550E-02
RMM:   3    -0.231615429396E+04   -0.11649E-03   -0.13665E-03  3473   0.234E-02    0.340E-02
RMM:   4    -0.231615429527E+04   -0.13098E-05   -0.15830E-04  2935   0.561E-03    0.284E-02
RMM:   5    -0.231615428885E+04    0.64135E-05   -0.20363E-05  2871   0.356E-03
  39 F= -.23369832E+04 E0= -.23369832E+04  d E =-.635812E-03  mag=     8.0000
       N       E                     dE             d eps       ncg     rms          rms(c)
DAV:   1    -0.231615222833E+04    0.20669E-02   -0.14312E-01  4480   0.351E-01    0.128E-01
RMM:   2    -0.231615447184E+04   -0.22435E-02   -0.23229E-02  5967   0.653E-02    0.753E-02
RMM:   3    -0.231615464433E+04   -0.17249E-03   -0.20075E-03  3710   0.273E-02    0.519E-02
RMM:   4    -0.231615463681E+04    0.75201E-05   -0.25572E-04  2940   0.701E-03    0.356E-02
RMM:   5    -0.231615462498E+04    0.11831E-04   -0.30875E-05  2895   0.451E-03    0.177E-02
RMM:   6    -0.231615462318E+04    0.18004E-05   -0.20255E-05  2908   0.423E-03
  40 F= -.23369837E+04 E0= -.23369837E+04  d E =-.486876E-03  mag=     8.0000
       N       E                     dE             d eps       ncg     rms          rms(c)
DAV:   1    -0.231615096012E+04    0.36649E-02   -0.21593E-01  4472   0.431E-01    0.158E-01
RMM:   2    -0.231615432331E+04   -0.33632E-02   -0.34952E-02  5770   0.792E-02    0.847E-02
RMM:   3    -0.231615458380E+04   -0.26049E-03   -0.30088E-03  4021   0.352E-02    0.517E-02
RMM:   4    -0.231615458568E+04   -0.18849E-05   -0.38463E-04  3000   0.809E-03    0.438E-02
RMM:   5    -0.231615456929E+04    0.16397E-04   -0.46829E-05  2889   0.528E-03    0.224E-02
RMM:   6    -0.231615456419E+04    0.51009E-05   -0.26331E-05  2941   0.467E-03
  41 F= -.23369838E+04 E0= -.23369838E+04  d E =-.614022E-03  mag=     8.0000
       N       E                     dE             d eps       ncg     rms          rms(c)
DAV:   1    -0.231615312962E+04    0.14397E-02   -0.92363E-02  4544   0.275E-01    0.105E-01
RMM:   2    -0.231615466412E+04   -0.15345E-02   -0.15846E-02  6130   0.527E-02    0.593E-02
RMM:   3    -0.231615478882E+04   -0.12470E-03   -0.13973E-03  3252   0.207E-02    0.401E-02
RMM:   4    -0.231615478705E+04    0.17688E-05   -0.17449E-04  2925   0.551E-03    0.283E-02
RMM:   5    -0.231615478023E+04    0.68197E-05   -0.17633E-05  2879   0.320E-03
  42 F= -.23369842E+04 E0= -.23369842E+04  d E =-.389333E-03  mag=     8.0000
       N       E                     dE             d eps       ncg     rms          rms(c)
DAV:   1    -0.231614478866E+04    0.99984E-02   -0.55115E-01  4472   0.672E-01    0.256E-01
RMM:   2    -0.231615395849E+04   -0.91698E-02   -0.94706E-02  5879   0.124E-01    0.143E-01
RMM:   3    -0.231615471297E+04   -0.75447E-03   -0.84694E-03  4664   0.544E-02    0.926E-02
RMM:   4    -0.231615470898E+04    0.39913E-05   -0.10413E-03  3212   0.116E-02    0.692E-02
RMM:   5    -0.231615466647E+04    0.42508E-04   -0.10005E-04  2967   0.726E-03    0.353E-02
RMM:   6    -0.231615465441E+04    0.12055E-04   -0.72956E-05  3253   0.670E-03    0.141E-02
RMM:   7    -0.231615465425E+04    0.16016E-06   -0.11881E-05  2874   0.510E-03
  43 F= -.23369845E+04 E0= -.23369845E+04  d E =-.684432E-03  mag=     8.0000
       N       E                     dE             d eps       ncg     rms          rms(c)
DAV:   1    -0.231615232264E+04    0.23318E-02   -0.13885E-01  4512   0.316E-01    0.128E-01
RMM:   2    -0.231615481184E+04   -0.24892E-02   -0.25692E-02  5904   0.609E-02    0.775E-02
RMM:   3    -0.231615502588E+04   -0.21404E-03   -0.23908E-03  3549   0.285E-02    0.511E-02
RMM:   4    -0.231615502817E+04   -0.22985E-05   -0.28983E-04  2932   0.634E-03    0.347E-02
RMM:   5    -0.231615501777E+04    0.10408E-04   -0.27040E-05  2880   0.366E-03    0.184E-02
RMM:   6    -0.231615501539E+04    0.23735E-05   -0.17978E-05  2910   0.335E-03
  44 F= -.23369851E+04 E0= -.23369851E+04  d E =-.597878E-03  mag=     8.0000
       N       E                     dE             d eps       ncg     rms          rms(c)
DAV:   1    -0.231613991153E+04    0.15106E-01   -0.77835E-01  4472   0.748E-01    0.301E-01
RMM:   2    -0.231615383620E+04   -0.13925E-01   -0.14390E-01  5733   0.143E-01    0.174E-01
RMM:   3    -0.231615507245E+04   -0.12362E-02   -0.13722E-02  4699   0.667E-02    0.106E-01
RMM:   4    -0.231615509697E+04   -0.24522E-04   -0.15921E-03  3473   0.131E-02    0.822E-02
RMM:   5    -0.231615504009E+04    0.56881E-04   -0.15545E-04  2989   0.782E-03    0.455E-02
RMM:   6    -0.231615502093E+04    0.19162E-04   -0.95309E-05  3339   0.682E-03    0.213E-02
RMM:   7    -0.231615501822E+04    0.27114E-05   -0.17667E-05  2895   0.533E-03
  45 F= -.23369857E+04 E0= -.23369857E+04  d E =-.115656E-02  mag=     8.0000
       N       E                     dE             d eps       ncg     rms          rms(c)
DAV:   1    -0.231615039176E+04    0.46292E-02   -0.27281E-01  4472   0.458E-01    0.192E-01
RMM:   2    -0.231615508978E+04   -0.46980E-02   -0.48743E-02  5924   0.884E-02    0.105E-01
RMM:   3    -0.231615549457E+04   -0.40479E-03   -0.45837E-03  4139   0.404E-02    0.703E-02
RMM:   4    -0.231615549101E+04    0.35630E-05   -0.54558E-04  2996   0.894E-03    0.497E-02
RMM:   5    -0.231615546907E+04    0.21940E-04   -0.58591E-05  2896   0.567E-03    0.258E-02
RMM:   6    -0.231615546423E+04    0.48423E-05   -0.37602E-05  2945   0.518E-03
  46 F= -.23369864E+04 E0= -.23369864E+04  d E =-.734277E-03  mag=     8.0000
       N       E                     dE             d eps       ncg     rms          rms(c)
DAV:   1    -0.231615145927E+04    0.40098E-02   -0.20847E-01  4496   0.400E-01    0.167E-01
RMM:   2    -0.231615505199E+04   -0.35927E-02   -0.37337E-02  5977   0.778E-02    0.831E-02
RMM:   3    -0.231615536322E+04   -0.31123E-03   -0.34685E-03  3979   0.333E-02    0.479E-02
RMM:   4    -0.231615537407E+04   -0.10843E-04   -0.41355E-04  2974   0.766E-03    0.450E-02
RMM:   5    -0.231615535758E+04    0.16491E-04   -0.46463E-05  2898   0.475E-03    0.248E-02
RMM:   6    -0.231615535209E+04    0.54917E-05   -0.28312E-05  2913   0.436E-03
  47 F= -.23369866E+04 E0= -.23369866E+04  d E =-.872078E-03  mag=     8.0000
       N       E                     dE             d eps       ncg     rms          rms(c)
DAV:   1    -0.231615071429E+04    0.46433E-02   -0.24090E-01  4472   0.409E-01    0.177E-01
RMM:   2    -0.231615528138E+04   -0.45671E-02   -0.47365E-02  6168   0.823E-02    0.903E-02
RMM:   3    -0.231615567359E+04   -0.39221E-03   -0.41959E-03  3835   0.345E-02    0.477E-02
RMM:   4    -0.231615568912E+04   -0.15528E-04   -0.51304E-04  2991   0.801E-03    0.417E-02
RMM:   5    -0.231615567857E+04    0.10548E-04   -0.51698E-05  2884   0.496E-03    0.303E-02
RMM:   6    -0.231615567089E+04    0.76856E-05   -0.28574E-05  2913   0.431E-03
  48 F= -.23369871E+04 E0= -.23369871E+04  d E =-.540283E-03  mag=     8.0000
       N       E                     dE             d eps       ncg     rms          rms(c)
DAV:   1    -0.231615268430E+04    0.29943E-02   -0.14276E-01  4480   0.314E-01    0.137E-01
RMM:   2    -0.231615539143E+04   -0.27071E-02   -0.28049E-02  6140   0.632E-02    0.726E-02
RMM:   3    -0.231615562147E+04   -0.23004E-03   -0.24667E-03  3411   0.260E-02    0.427E-02
RMM:   4    -0.231615563020E+04   -0.87228E-05   -0.30867E-04  2948   0.651E-03    0.377E-02
RMM:   5    -0.231615561972E+04    0.10480E-04   -0.30463E-05  2874   0.388E-03    0.203E-02
RMM:   6    -0.231615561616E+04    0.35579E-05   -0.18035E-05  2904   0.351E-03
  49 F= -.23369872E+04 E0= -.23369872E+04  d E =-.654436E-03  mag=     8.0000
       N       E                     dE             d eps       ncg     rms          rms(c)
DAV:   1    -0.231615145260E+04    0.41671E-02   -0.22919E-01  4472   0.411E-01    0.178E-01
RMM:   2    -0.231615571770E+04   -0.42651E-02   -0.44349E-02  5976   0.823E-02    0.912E-02
RMM:   3    -0.231615606245E+04   -0.34475E-03   -0.37248E-03  3948   0.366E-02    0.560E-02
RMM:   4    -0.231615607072E+04   -0.82720E-05   -0.48520E-04  2988   0.839E-03    0.487E-02
RMM:   5    -0.231615605208E+04    0.18638E-04   -0.53370E-05  2884   0.527E-03    0.254E-02
RMM:   6    -0.231615604560E+04    0.64847E-05   -0.30906E-05  2933   0.479E-03
  50 F= -.23369878E+04 E0= -.23369878E+04  d E =-.566635E-03  mag=     8.0000
       N       E                     dE             d eps       ncg     rms          rms(c)
DAV:   1    -0.231615511669E+04    0.93539E-03   -0.44556E-02  4624   0.181E-01    0.787E-02
RMM:   2    -0.231615595089E+04   -0.83420E-03   -0.86723E-03  6033   0.383E-02    0.410E-02
RMM:   3    -0.231615602046E+04   -0.69573E-04   -0.74558E-04  2986   0.149E-02    0.281E-02
RMM:   4    -0.231615602172E+04   -0.12580E-05   -0.98280E-05  2912   0.417E-03
  51 F= -.23369878E+04 E0= -.23369878E+04  d E =-.603096E-03  mag=     8.0000
       N       E                     dE             d eps       ncg     rms          rms(c)
DAV:   1    -0.231615212426E+04    0.38962E-02   -0.21827E-01  4472   0.390E-01    0.160E-01
RMM:   2    -0.231615612334E+04   -0.39991E-02   -0.41328E-02  5968   0.765E-02    0.876E-02
RMM:   3    -0.231615644535E+04   -0.32201E-03   -0.34766E-03  3733   0.320E-02    0.550E-02
RMM:   4    -0.231615645410E+04   -0.87422E-05   -0.45534E-04  2955   0.782E-03    0.494E-02
RMM:   5    -0.231615643359E+04    0.20509E-04   -0.47927E-05  2898   0.466E-03    0.256E-02
RMM:   6    -0.231615642746E+04    0.61315E-05   -0.35179E-05  2939   0.456E-03
  52 F= -.23369883E+04 E0= -.23369883E+04  d E =-.520496E-03  mag=     8.0000
       N       E                     dE             d eps       ncg     rms          rms(c)
DAV:   1    -0.231614931926E+04    0.71143E-02   -0.35939E-01  4472   0.500E-01    0.210E-01
RMM:   2    -0.231615585712E+04   -0.65379E-02   -0.67914E-02  5691   0.975E-02    0.108E-01
RMM:   3    -0.231615639856E+04   -0.54144E-03   -0.57684E-03  4237   0.456E-02    0.606E-02
RMM:   4    -0.231615642418E+04   -0.25623E-04   -0.73934E-04  3064   0.943E-03    0.543E-02
RMM:   5    -0.231615640330E+04    0.20884E-04   -0.71199E-05  2897   0.550E-03    0.361E-02
RMM:   6    -0.231615638900E+04    0.14302E-04   -0.50737E-05  2965   0.512E-03    0.113E-02
RMM:   7    -0.231615638878E+04    0.21711E-06   -0.79435E-06  2862   0.403E-03
  53 F= -.23369884E+04 E0= -.23369884E+04  d E =-.628952E-03  mag=     8.0000
       N       E                     dE             d eps       ncg     rms          rms(c)
DAV:   1    -0.231615432863E+04    0.20604E-02   -0.11890E-01  4496   0.288E-01    0.120E-01
RMM:   2    -0.231615649806E+04   -0.21694E-02   -0.22482E-02  5989   0.562E-02    0.633E-02
RMM:   3    -0.231615667267E+04   -0.17462E-03   -0.18313E-03  3266   0.235E-02    0.382E-02
RMM:   4    -0.231615667936E+04   -0.66890E-05   -0.24156E-04  2934   0.574E-03    0.332E-02
RMM:   5    -0.231615667102E+04    0.83406E-05   -0.21387E-05  2852   0.316E-03
  54 F= -.23369888E+04 E0= -.23369888E+04  d E =-.397432E-03  mag=     8.0000
       N       E                     dE             d eps       ncg     rms          rms(c)
DAV:   1    -0.231614117191E+04    0.15507E-01   -0.79354E-01  4472   0.743E-01    0.308E-01
RMM:   2    -0.231615562860E+04   -0.14457E-01   -0.14990E-01  6011   0.144E-01    0.157E-01
RMM:   3    -0.231615681049E+04   -0.11819E-02   -0.12486E-02  4854   0.596E-02    0.847E-02
RMM:   4    -0.231615687194E+04   -0.61446E-04   -0.16210E-03  3260   0.130E-02    0.754E-02
RMM:   5    -0.231615683569E+04    0.36245E-04   -0.14098E-04  2947   0.748E-03    0.539E-02
RMM:   6    -0.231615680827E+04    0.27423E-04   -0.10074E-04  3246   0.678E-03    0.163E-02
RMM:   7    -0.231615680743E+04    0.84305E-06   -0.13641E-05  2899   0.496E-03
  55 F= -.23369893E+04 E0= -.23369893E+04  d E =-.831032E-03  mag=     8.0000
       N       E                     dE             d eps       ncg     rms          rms(c)
DAV:   1    -0.231615540235E+04    0.14059E-02   -0.10494E-01  4496   0.299E-01    0.122E-01
RMM:   2    -0.231615714389E+04   -0.17415E-02   -0.18272E-02  5788   0.583E-02    0.594E-02
RMM:   3    -0.231615727331E+04   -0.12942E-03   -0.14892E-03  3732   0.266E-02    0.366E-02
RMM:   4    -0.231615727767E+04   -0.43580E-05   -0.20051E-04  2944   0.642E-03    0.344E-02
RMM:   5    -0.231615726823E+04    0.94355E-05   -0.26947E-05  2874   0.428E-03
  56 F= -.23369899E+04 E0= -.23369899E+04  d E =-.600416E-03  mag=     8.0000
       N       E                     dE             d eps       ncg     rms          rms(c)
DAV:   1    -0.231615556501E+04    0.17127E-02   -0.96979E-02  4544   0.287E-01    0.117E-01
RMM:   2    -0.231615718652E+04   -0.16215E-02   -0.16998E-02  6066   0.576E-02    0.568E-02
RMM:   3    -0.231615730592E+04   -0.11940E-03   -0.13819E-03  3583   0.235E-02    0.332E-02
RMM:   4    -0.231615731094E+04   -0.50211E-05   -0.18645E-04  2938   0.597E-03    0.318E-02
RMM:   5    -0.231615730332E+04    0.76210E-05   -0.26421E-05  2877   0.412E-03
  57 F= -.23369900E+04 E0= -.23369900E+04  d E =-.770014E-03  mag=     8.0000
       N       E                     dE             d eps       ncg     rms          rms(c)
DAV:   1    -0.231615657675E+04    0.73418E-03   -0.58257E-02  4576   0.232E-01    0.915E-02
RMM:   2    -0.231615744492E+04   -0.86816E-03   -0.91289E-03  6007   0.447E-02    0.419E-02
RMM:   3    -0.231615750800E+04   -0.63081E-04   -0.76614E-04  3356   0.189E-02    0.249E-02
RMM:   4    -0.231615751058E+04   -0.25858E-05   -0.10321E-04  2930   0.479E-03    0.214E-02
RMM:   5    -0.231615750767E+04    0.29084E-05   -0.15467E-05  2872   0.334E-03
  58 F= -.23369904E+04 E0= -.23369904E+04  d E =-.327956E-03  mag=     8.0000
       N       E                     dE             d eps       ncg     rms          rms(c)
DAV:   1    -0.231615617164E+04    0.13389E-02   -0.80910E-02  4480   0.273E-01    0.107E-01
RMM:   2    -0.231615737527E+04   -0.12036E-02   -0.12643E-02  5981   0.517E-02    0.493E-02
RMM:   3    -0.231615746255E+04   -0.87279E-04   -0.10612E-03  3497   0.220E-02    0.282E-02
RMM:   4    -0.231615746573E+04   -0.31738E-05   -0.13855E-04  2936   0.573E-03    0.249E-02
RMM:   5    -0.231615746212E+04    0.36052E-05   -0.21862E-05  2871   0.398E-03
  59 F= -.23369905E+04 E0= -.23369905E+04  d E =-.427599E-03  mag=     8.0000
       N       E                     dE             d eps       ncg     rms          rms(c)
DAV:   1    -0.231615630894E+04    0.11568E-02   -0.83561E-02  4480   0.274E-01    0.104E-01
RMM:   2    -0.231615755387E+04   -0.12449E-02   -0.12960E-02  6008   0.530E-02    0.524E-02
RMM:   3    -0.231615765158E+04   -0.97711E-04   -0.11526E-03  3466   0.221E-02    0.374E-02
RMM:   4    -0.231615765142E+04    0.15381E-06   -0.14778E-04  2920   0.555E-03    0.297E-02
RMM:   5    -0.231615764322E+04    0.82052E-05   -0.21158E-05  2883   0.376E-03
  60 F= -.23369908E+04 E0= -.23369908E+04  d E =-.306140E-03  mag=     8.0000
       N       E                     dE             d eps       ncg     rms          rms(c)
DAV:   1    -0.231615718617E+04    0.46525E-03   -0.25918E-02  4688   0.153E-01    0.591E-02
RMM:   2    -0.231615757933E+04   -0.39316E-03   -0.40698E-03  5889   0.306E-02    0.363E-02
RMM:   3    -0.231615760968E+04   -0.30350E-04   -0.35965E-04  2940   0.122E-02    0.300E-02
RMM:   4    -0.231615760592E+04    0.37570E-05   -0.47465E-05  2898   0.376E-03
  61 F= -.23369908E+04 E0= -.23369908E+04  d E =-.338795E-03  mag=     8.0000
       N       E                     dE             d eps       ncg     rms          rms(c)
DAV:   1    -0.231615693482E+04    0.67486E-03   -0.57801E-02  4480   0.234E-01    0.880E-02
RMM:   2    -0.231615776929E+04   -0.83447E-03   -0.87500E-03  5748   0.449E-02    0.465E-02
RMM:   3    -0.231615783148E+04   -0.62187E-04   -0.82120E-04  3426   0.210E-02    0.349E-02
RMM:   4    -0.231615782887E+04    0.26134E-05   -0.10293E-04  2924   0.522E-03    0.272E-02
RMM:   5    -0.231615782091E+04    0.79559E-05   -0.21231E-05  2877   0.381E-03
  62 F= -.23369911E+04 E0= -.23369911E+04  d E =-.245595E-03  mag=     8.0000
       N       E                     dE             d eps       ncg     rms          rms(c)
DAV:   1    -0.231615773426E+04    0.94609E-04   -0.52851E-03  5072   0.712E-02    0.281E-02
RMM:   2    -0.231615781344E+04   -0.79187E-04   -0.82739E-04  4598   0.159E-02    0.183E-02
RMM:   3    -0.231615782047E+04   -0.70220E-05   -0.84974E-05  2861   0.741E-03
  63 F= -.23369911E+04 E0= -.23369911E+04  d E =-.254541E-03  mag=     8.0000
       N       E                     dE             d eps       ncg     rms          rms(c)
DAV:   1    -0.231615727480E+04    0.53864E-03   -0.51438E-02  4480   0.226E-01    0.814E-02
RMM:   2    -0.231615796940E+04   -0.69460E-03   -0.72258E-03  5659   0.422E-02    0.475E-02
RMM:   3    -0.231615801750E+04   -0.48092E-04   -0.64583E-04  3305   0.189E-02    0.386E-02
RMM:   4    -0.231615801020E+04    0.72995E-05   -0.84624E-05  2910   0.496E-03
  64 F= -.23369913E+04 E0= -.23369913E+04  d E =-.212506E-03  mag=     8.0000
       N       E                     dE             d eps       ncg     rms          rms(c)
DAV:   1    -0.231615792890E+04    0.88596E-04   -0.54324E-03  4960   0.737E-02    0.280E-02
RMM:   2    -0.231615800311E+04   -0.74211E-04   -0.77201E-04  4469   0.148E-02    0.245E-02
RMM:   3    -0.231615800719E+04   -0.40827E-05   -0.84745E-05  2864   0.732E-03
  65 F= -.23369913E+04 E0= -.23369913E+04  d E =-.217001E-03  mag=     8.0000
       N       E                     dE             d eps       ncg     rms          rms(c)
DAV:   1    -0.231615756794E+04    0.43517E-03   -0.50641E-02  4480   0.229E-01    0.808E-02
RMM:   2    -0.231615813213E+04   -0.56419E-03   -0.59220E-03  5602   0.413E-02    0.454E-02
RMM:   3    -0.231615816325E+04   -0.31116E-04   -0.47024E-04  3344   0.179E-02    0.389E-02
RMM:   4    -0.231615815600E+04    0.72448E-05   -0.72825E-05  2913   0.498E-03
  66 F= -.23369915E+04 E0= -.23369915E+04  d E =-.195054E-03  mag=     8.0000
       N       E                     dE             d eps       ncg     rms          rms(c)
DAV:   1    -0.231615810267E+04    0.60580E-04   -0.35331E-03  5288   0.608E-02    0.244E-02
RMM:   2    -0.231615814428E+04   -0.41613E-04   -0.42337E-04  3822   0.123E-02    0.266E-02
RMM:   3    -0.231615814357E+04    0.70743E-06   -0.48569E-05  2852   0.659E-03
  67 F= -.23369915E+04 E0= -.23369915E+04  d E =-.195110E-03  mag=     8.0000
       N       E                     dE             d eps       ncg     rms          rms(c)
DAV:   1    -0.231615771970E+04    0.42458E-03   -0.45399E-02  4480   0.212E-01    0.745E-02
RMM:   2    -0.231615824440E+04   -0.52470E-03   -0.54744E-03  5670   0.383E-02    0.451E-02
RMM:   3    -0.231615827691E+04   -0.32510E-04   -0.46552E-04  3283   0.172E-02    0.378E-02
RMM:   4    -0.231615826926E+04    0.76546E-05   -0.66477E-05  2915   0.455E-03
  68 F= -.23369917E+04 E0= -.23369917E+04  d E =-.197267E-03  mag=     8.0000
       N       E                     dE             d eps       ncg     rms          rms(c)
DAV:   1    -0.231615803089E+04    0.24602E-03   -0.18093E-02  4544   0.134E-01    0.476E-02
RMM:   2    -0.231615823992E+04   -0.20903E-03   -0.21764E-03  5668   0.245E-02    0.363E-02
RMM:   3    -0.231615825135E+04   -0.11436E-04   -0.20502E-04  2894   0.106E-02    0.288E-02
RMM:   4    -0.231615824504E+04    0.63126E-05   -0.27524E-05  2898   0.323E-03
  69 F= -.23369917E+04 E0= -.23369917E+04  d E =-.218610E-03  mag=     8.0000
       N       E                     dE             d eps       ncg     rms          rms(c)
DAV:   1    -0.231615782822E+04    0.42313E-03   -0.45118E-02  4480   0.211E-01    0.743E-02
RMM:   2    -0.231615834618E+04   -0.51796E-03   -0.54027E-03  5752   0.377E-02    0.451E-02
RMM:   3    -0.231615837887E+04   -0.32690E-04   -0.46658E-04  3196   0.161E-02    0.397E-02
RMM:   4    -0.231615836828E+04    0.10589E-04   -0.64867E-05  2905   0.443E-03    0.187E-02
RMM:   5    -0.231615836414E+04    0.41399E-05   -0.12170E-05  2884   0.313E-03
  70 F= -.23369919E+04 E0= -.23369919E+04  d E =-.169870E-03  mag=     8.0000
       N       E                     dE             d eps       ncg     rms          rms(c)
DAV:   1    -0.231615813885E+04    0.22944E-03   -0.17491E-02  4640   0.132E-01    0.469E-02
RMM:   2    -0.231615834153E+04   -0.20268E-03   -0.21184E-03  5631   0.252E-02    0.267E-02
RMM:   3    -0.231615835492E+04   -0.13388E-04   -0.18025E-04  2907   0.101E-02    0.234E-02
RMM:   4    -0.231615835162E+04    0.33034E-05   -0.25813E-05  2897   0.314E-03
  71 F= -.23369919E+04 E0= -.23369919E+04  d E =-.189077E-03  mag=     8.0000
       N       E                     dE             d eps       ncg     rms          rms(c)
DAV:   1    -0.231615805289E+04    0.30203E-03   -0.36933E-02  4480   0.187E-01    0.662E-02
RMM:   2    -0.231615850329E+04   -0.45040E-03   -0.46427E-03  5740   0.337E-02    0.459E-02
RMM:   3    -0.231615852911E+04   -0.25816E-04   -0.40202E-04  3074   0.146E-02    0.370E-02
RMM:   4    -0.231615851965E+04    0.94592E-05   -0.54282E-05  2906   0.398E-03
  72 F= -.23369921E+04 E0= -.23369921E+04  d E =-.182754E-03  mag=     8.0000
       N       E                     dE             d eps       ncg     rms          rms(c)
DAV:   1    -0.231615796317E+04    0.56594E-03   -0.47516E-02  4480   0.212E-01    0.754E-02
RMM:   2    -0.231615854008E+04   -0.57691E-03   -0.59739E-03  5508   0.377E-02    0.523E-02
RMM:   3    -0.231615857483E+04   -0.34743E-04   -0.53457E-04  3426   0.193E-02    0.428E-02
RMM:   4    -0.231615856192E+04    0.12907E-04   -0.71487E-05  2908   0.453E-03    0.200E-02
RMM:   5    -0.231615855672E+04    0.52013E-05   -0.13770E-05  2882   0.325E-03
  73 F= -.23369921E+04 E0= -.23369921E+04  d E =-.236416E-03  mag=     8.0000
       N       E                     dE             d eps       ncg     rms          rms(c)
DAV:   1    -0.231615824113E+04    0.32079E-03   -0.39024E-02  4480   0.185E-01    0.695E-02
RMM:   2    -0.231615873827E+04   -0.49714E-03   -0.51316E-03  5935   0.353E-02    0.457E-02
RMM:   3    -0.231615876919E+04   -0.30921E-04   -0.43775E-04  3037   0.140E-02    0.372E-02
RMM:   4    -0.231615876054E+04    0.86545E-05   -0.59100E-05  2906   0.429E-03
  74 F= -.23369923E+04 E0= -.23369923E+04  d E =-.208847E-03  mag=     8.0000
       N       E                     dE             d eps       ncg     rms          rms(c)
DAV:   1    -0.231615795100E+04    0.81819E-03   -0.68077E-02  4472   0.245E-01    0.912E-02
RMM:   2    -0.231615881684E+04   -0.86584E-03   -0.89082E-03  5812   0.445E-02    0.674E-02
RMM:   3    -0.231615886518E+04   -0.48337E-04   -0.78890E-04  3365   0.189E-02    0.521E-02
RMM:   4    -0.231615884660E+04    0.18580E-04   -0.10403E-04  2918   0.522E-03    0.234E-02
RMM:   5    -0.231615883978E+04    0.68202E-05   -0.20761E-05  2902   0.374E-03
  75 F= -.23369924E+04 E0= -.23369924E+04  d E =-.294480E-03  mag=     8.0000
       N       E                     dE             d eps       ncg     rms          rms(c)
DAV:   1    -0.231615846254E+04    0.38406E-03   -0.45502E-02  4480   0.200E-01    0.787E-02
RMM:   2    -0.231615905676E+04   -0.59422E-03   -0.61047E-03  5998   0.394E-02    0.584E-02
RMM:   3    -0.231615908729E+04   -0.30530E-04   -0.53727E-04  3150   0.155E-02    0.441E-02
RMM:   4    -0.231615907303E+04    0.14260E-04   -0.72065E-05  2913   0.471E-03    0.185E-02
RMM:   5    -0.231615906970E+04    0.33351E-05   -0.13071E-05  2890   0.320E-03
  76 F= -.23369926E+04 E0= -.23369926E+04  d E =-.230750E-03  mag=     8.0000
       N       E                     dE             d eps       ncg     rms          rms(c)
DAV:   1    -0.231615870171E+04    0.37132E-03   -0.30816E-02  4496   0.164E-01    0.657E-02
RMM:   2    -0.231615911349E+04   -0.41178E-03   -0.41794E-03  5924   0.321E-02    0.595E-02
RMM:   3    -0.231615912273E+04   -0.92431E-05   -0.36956E-04  2987   0.128E-02    0.370E-02
RMM:   4    -0.231615911332E+04    0.94138E-05   -0.49003E-05  2904   0.417E-03
  77 F= -.23369927E+04 E0= -.23369927E+04  d E =-.274900E-03  mag=     8.0000
       N       E                     dE             d eps       ncg     rms          rms(c)
DAV:   1    -0.231615852694E+04    0.59579E-03   -0.54099E-02  4456   0.215E-01    0.850E-02
RMM:   2    -0.231615928905E+04   -0.76211E-03   -0.78186E-03  5915   0.411E-02    0.587E-02
RMM:   3    -0.231615933859E+04   -0.49534E-04   -0.70547E-04  3206   0.175E-02    0.477E-02
RMM:   4    -0.231615932449E+04    0.14099E-04   -0.88666E-05  2902   0.482E-03    0.221E-02
RMM:   5    -0.231615932029E+04    0.41961E-05   -0.17480E-05  2904   0.341E-03
  78 F= -.23369929E+04 E0= -.23369929E+04  d E =-.207381E-03  mag=     8.0000
       N       E                     dE             d eps       ncg     rms          rms(c)
DAV:   1    -0.231615892550E+04    0.39899E-03   -0.29371E-02  4512   0.158E-01    0.659E-02
RMM:   2    -0.231615935531E+04   -0.42981E-03   -0.42902E-03  5912   0.319E-02    0.630E-02
RMM:   3    -0.231615936278E+04   -0.74643E-05   -0.39768E-04  2943   0.125E-02    0.344E-02
RMM:   4    -0.231615935507E+04    0.77013E-05   -0.48533E-05  2909   0.392E-03
  79 F= -.23369929E+04 E0= -.23369929E+04  d E =-.242284E-03  mag=     8.0000
       N       E                     dE             d eps       ncg     rms          rms(c)
DAV:   1    -0.231615874636E+04    0.61642E-03   -0.55565E-02  4448   0.217E-01    0.858E-02
RMM:   2    -0.231615954668E+04   -0.80032E-03   -0.81997E-03  5896   0.419E-02    0.579E-02
RMM:   3    -0.231615960051E+04   -0.53831E-04   -0.75399E-04  3223   0.182E-02    0.459E-02
RMM:   4    -0.231615958678E+04    0.13730E-04   -0.94325E-05  2908   0.487E-03    0.237E-02
RMM:   5    -0.231615958202E+04    0.47651E-05   -0.17763E-05  2890   0.340E-03
  80 F= -.23369932E+04 E0= -.23369932E+04  d E =-.232567E-03  mag=     8.0000
       N       E                     dE             d eps       ncg     rms          rms(c)
DAV:   1    -0.231615917264E+04    0.41414E-03   -0.29602E-02  4464   0.158E-01    0.660E-02
RMM:   2    -0.231615962153E+04   -0.44889E-03   -0.44817E-03  5890   0.325E-02    0.656E-02
RMM:   3    -0.231615962727E+04   -0.57467E-05   -0.40983E-04  2954   0.128E-02    0.347E-02
RMM:   4    -0.231615962011E+04    0.71661E-05   -0.51132E-05  2898   0.400E-03
  81 F= -.23369932E+04 E0= -.23369932E+04  d E =-.274606E-03  mag=     8.0000
       N       E                     dE             d eps       ncg     rms          rms(c)
DAV:   1    -0.231615882971E+04    0.79757E-03   -0.71804E-02  4448   0.246E-01    0.989E-02
RMM:   2    -0.231615982974E+04   -0.10000E-02   -0.10267E-02  5884   0.473E-02    0.692E-02
RMM:   3    -0.231615989075E+04   -0.61015E-04   -0.92133E-04  3389   0.201E-02    0.552E-02
RMM:   4    -0.231615987094E+04    0.19815E-04   -0.11791E-04  2919   0.548E-03    0.257E-02
RMM:   5    -0.231615986488E+04    0.60571E-05   -0.23426E-05  2909   0.391E-03
  82 F= -.23369935E+04 E0= -.23369935E+04  d E =-.262742E-03  mag=     8.0000
       N       E                     dE             d eps       ncg     rms          rms(c)
DAV:   1    -0.231615960804E+04    0.26289E-03   -0.19114E-02  4624   0.127E-01    0.547E-02
RMM:   2    -0.231615988810E+04   -0.28006E-03   -0.27663E-03  5690   0.267E-02    0.576E-02
RMM:   3    -0.231615988627E+04    0.18308E-05   -0.26570E-04  2907   0.107E-02    0.268E-02
RMM:   4    -0.231615988182E+04    0.44502E-05   -0.32233E-05  2905   0.348E-03
  83 F= -.23369935E+04 E0= -.23369935E+04  d E =-.288858E-03  mag=     8.0000
       N       E                     dE             d eps       ncg     rms          rms(c)
DAV:   1    -0.231615921226E+04    0.67401E-03   -0.63548E-02  4448   0.229E-01    0.937E-02
RMM:   2    -0.231616009560E+04   -0.88333E-03   -0.91293E-03  5862   0.446E-02    0.628E-02
RMM:   3    -0.231616015097E+04   -0.55375E-04   -0.83181E-04  3321   0.195E-02    0.497E-02
RMM:   4    -0.231616013344E+04    0.17534E-04   -0.10653E-04  2915   0.530E-03    0.256E-02
RMM:   5    -0.231616012673E+04    0.67092E-05   -0.22197E-05  2891   0.393E-03
  84 F= -.23369937E+04 E0= -.23369937E+04  d E =-.240119E-03  mag=     8.0000
       N       E                     dE             d eps       ncg     rms          rms(c)
DAV:   1    -0.231616006575E+04    0.67687E-04   -0.45559E-03  5056   0.615E-02    0.301E-02
RMM:   2    -0.231616013972E+04   -0.73975E-04   -0.69808E-04  4248   0.141E-02    0.419E-02
RMM:   3    -0.231616013230E+04    0.74252E-05   -0.77427E-05  2862   0.694E-03
  85 F= -.23369937E+04 E0= -.23369937E+04  d E =-.244341E-03  mag=     8.0000
       N       E                     dE             d eps       ncg     rms          rms(c)
DAV:   1    -0.231615941317E+04    0.72655E-03   -0.67685E-02  4448   0.236E-01    0.100E-01
RMM:   2    -0.231616041162E+04   -0.99844E-03   -0.10092E-02  5740   0.461E-02    0.868E-02
RMM:   3    -0.231616044071E+04   -0.29097E-04   -0.89670E-04  3362   0.203E-02    0.544E-02
RMM:   4    -0.231616041905E+04    0.21663E-04   -0.11568E-04  2920   0.560E-03    0.241E-02
RMM:   5    -0.231616041067E+04    0.83761E-05   -0.22251E-05  2893   0.419E-03
  86 F= -.23369940E+04 E0= -.23369940E+04  d E =-.226213E-03  mag=     8.0000
       N       E                     dE             d eps       ncg     rms          rms(c)
DAV:   1    -0.231616032390E+04    0.95146E-04   -0.71732E-03  4928   0.772E-02    0.349E-02
RMM:   2    -0.231616043462E+04   -0.11071E-03   -0.11031E-03  4886   0.175E-02    0.373E-02
RMM:   3    -0.231616043467E+04   -0.54075E-07   -0.11090E-04  2867   0.764E-03    0.191E-02
RMM:   4    -0.231616043249E+04    0.21860E-05   -0.13991E-05  2873   0.263E-03
  87 F= -.23369940E+04 E0= -.23369940E+04  d E =-.230677E-03  mag=     8.0000
       N       E                     dE             d eps       ncg     rms          rms(c)
DAV:   1    -0.231615984301E+04    0.59166E-03   -0.60289E-02  4448   0.224E-01    0.925E-02
RMM:   2    -0.231616069775E+04   -0.85474E-03   -0.87888E-03  5824   0.428E-02    0.611E-02
RMM:   3    -0.231616074904E+04   -0.51288E-04   -0.75949E-04  3281   0.186E-02    0.482E-02
RMM:   4    -0.231616073374E+04    0.15302E-04   -0.97274E-05  2907   0.520E-03    0.236E-02
RMM:   5    -0.231616072756E+04    0.61805E-05   -0.20211E-05  2880   0.385E-03
  88 F= -.23369942E+04 E0= -.23369942E+04  d E =-.242495E-03  mag=     8.0000
       N       E                     dE             d eps       ncg     rms          rms(c)
DAV:   1    -0.231616054800E+04    0.18574E-03   -0.15354E-02  4592   0.113E-01    0.502E-02
RMM:   2    -0.231616077870E+04   -0.23070E-03   -0.22967E-03  5514   0.242E-02    0.493E-02
RMM:   3    -0.231616078064E+04   -0.19349E-05   -0.21666E-04  2891   0.987E-03    0.263E-02
RMM:   4    -0.231616077610E+04    0.45415E-05   -0.27255E-05  2894   0.328E-03
  89 F= -.23369942E+04 E0= -.23369942E+04  d E =-.264103E-03  mag=     8.0000
       N       E                     dE             d eps       ncg     rms          rms(c)
DAV:   1    -0.231616029106E+04    0.48958E-03   -0.54783E-02  4448   0.217E-01    0.884E-02
RMM:   2    -0.231616102269E+04   -0.73163E-03   -0.75964E-03  5805   0.416E-02    0.550E-02
RMM:   3    -0.231616106895E+04   -0.46266E-04   -0.67987E-04  3304   0.185E-02    0.444E-02
RMM:   4    -0.231616105547E+04    0.13482E-04   -0.88081E-05  2911   0.502E-03    0.241E-02
RMM:   5    -0.231616104910E+04    0.63665E-05   -0.20510E-05  2881   0.387E-03
  90 F= -.23369945E+04 E0= -.23369945E+04  d E =-.248931E-03  mag=     8.0000
       N       E                     dE             d eps       ncg     rms          rms(c)
DAV:   1    -0.231616095169E+04    0.10378E-03   -0.81612E-03  4832   0.839E-02    0.381E-02
RMM:   2    -0.231616107367E+04   -0.12198E-03   -0.11966E-03  4980   0.187E-02    0.444E-02
RMM:   3    -0.231616106929E+04    0.43768E-05   -0.11985E-04  2873   0.803E-03    0.187E-02
RMM:   4    -0.231616106714E+04    0.21546E-05   -0.15566E-05  2877   0.276E-03
  91 F= -.23369945E+04 E0= -.23369945E+04  d E =-.257460E-03  mag=     8.0000
       N       E                     dE             d eps       ncg     rms          rms(c)
DAV:   1    -0.231616049122E+04    0.57807E-03   -0.58717E-02  4448   0.222E-01    0.922E-02
RMM:   2    -0.231616129300E+04   -0.80177E-03   -0.82645E-03  5842   0.423E-02    0.612E-02
RMM:   3    -0.231616134243E+04   -0.49432E-04   -0.74297E-04  3244   0.180E-02    0.485E-02
RMM:   4    -0.231616132685E+04    0.15576E-04   -0.93422E-05  2903   0.515E-03    0.233E-02
RMM:   5    -0.231616132090E+04    0.59498E-05   -0.21654E-05  2891   0.390E-03
  92 F= -.23369947E+04 E0= -.23369947E+04  d E =-.216491E-03  mag=     8.0000
       N       E                     dE             d eps       ncg     rms          rms(c)
DAV:   1    -0.231616123469E+04    0.92159E-04   -0.74993E-03  4768   0.795E-02    0.377E-02
RMM:   2    -0.231616134825E+04   -0.11355E-03   -0.10999E-03  4885   0.176E-02    0.434E-02
RMM:   3    -0.231616134378E+04    0.44723E-05   -0.11343E-04  2868   0.770E-03    0.176E-02
RMM:   4    -0.231616134195E+04    0.18267E-05   -0.14150E-05  2885   0.262E-03
  93 F= -.23369947E+04 E0= -.23369947E+04  d E =-.223953E-03  mag=     8.0000
       N       E                     dE             d eps       ncg     rms          rms(c)
DAV:   1    -0.231616081457E+04    0.52921E-03   -0.59222E-02  4448   0.224E-01    0.927E-02
RMM:   2    -0.231616162553E+04   -0.81097E-03   -0.83702E-03  5806   0.429E-02    0.594E-02
RMM:   3    -0.231616167581E+04   -0.50275E-04   -0.75093E-04  3306   0.188E-02    0.465E-02
RMM:   4    -0.231616166042E+04    0.15387E-04   -0.93633E-05  2913   0.519E-03    0.241E-02
RMM:   5    -0.231616165376E+04    0.66598E-05   -0.21851E-05  2878   0.394E-03
  94 F= -.23369949E+04 E0= -.23369949E+04  d E =-.232923E-03  mag=     8.0000
       N       E                     dE             d eps       ncg     rms          rms(c)
DAV:   1    -0.231616157030E+04    0.90119E-04   -0.82201E-03  4792   0.836E-02    0.380E-02
RMM:   2    -0.231616169459E+04   -0.12428E-03   -0.12281E-03  4972   0.187E-02    0.422E-02
RMM:   3    -0.231616169235E+04    0.22387E-05   -0.12344E-04  2871   0.803E-03    0.195E-02
RMM:   4    -0.231616169001E+04    0.23413E-05   -0.15707E-05  2875   0.277E-03
  95 F= -.23369950E+04 E0= -.23369950E+04  d E =-.239302E-03  mag=     8.0000
       N       E                     dE             d eps       ncg     rms          rms(c)
DAV:   1    -0.231616100163E+04    0.69072E-03   -0.63026E-02  4448   0.224E-01    0.949E-02
RMM:   2    -0.231616192960E+04   -0.92797E-03   -0.94992E-03  5860   0.436E-02    0.668E-02
RMM:   3    -0.231616198579E+04   -0.56190E-04   -0.86359E-04  3252   0.188E-02    0.498E-02
RMM:   4    -0.231616196963E+04    0.16153E-04   -0.10498E-04  2906   0.522E-03    0.241E-02
RMM:   5    -0.231616196294E+04    0.66956E-05   -0.22047E-05  2887   0.388E-03
  96 F= -.23369952E+04 E0= -.23369952E+04  d E =-.222384E-03  mag=     8.0000
       N       E                     dE             d eps       ncg     rms          rms(c)
DAV:   1    -0.231616182694E+04    0.14270E-03   -0.10994E-02  4632   0.940E-02    0.443E-02
RMM:   2    -0.231616200208E+04   -0.17514E-03   -0.17112E-03  5248   0.207E-02    0.499E-02
RMM:   3    -0.231616199825E+04    0.38328E-05   -0.17076E-04  2877   0.870E-03    0.210E-02
RMM:   4    -0.231616199544E+04    0.28063E-05   -0.20767E-05  2893   0.287E-03
  97 F= -.23369952E+04 E0= -.23369952E+04  d E =-.233461E-03  mag=     8.0000
       N       E                     dE             d eps       ncg     rms          rms(c)
DAV:   1    -0.231616128273E+04    0.71552E-03   -0.66467E-02  4448   0.232E-01    0.977E-02
RMM:   2    -0.231616223035E+04   -0.94762E-03   -0.97326E-03  5831   0.449E-02    0.655E-02
RMM:   3    -0.231616228886E+04   -0.58511E-04   -0.88342E-04  3316   0.196E-02    0.497E-02
RMM:   4    -0.231616227117E+04    0.17685E-04   -0.10842E-04  2910   0.531E-03    0.252E-02
RMM:   5    -0.231616226383E+04    0.73375E-05   -0.22182E-05  2887   0.389E-03
  98 F= -.23369954E+04 E0= -.23369954E+04  d E =-.257838E-03  mag=     8.0000
       N       E                     dE             d eps       ncg     rms          rms(c)
DAV:   1    -0.231616194063E+04    0.33055E-03   -0.22742E-02  4544   0.136E-01    0.606E-02
RMM:   2    -0.231616228646E+04   -0.34583E-03   -0.34486E-03  5766   0.289E-02    0.618E-02
RMM:   3    -0.231616228806E+04   -0.15995E-05   -0.32961E-04  2932   0.115E-02    0.320E-02
RMM:   4    -0.231616228154E+04    0.65184E-05   -0.40606E-05  2898   0.372E-03
  99 F= -.23369955E+04 E0= -.23369955E+04  d E =-.269084E-03  mag=     8.0000
       N       E                     dE             d eps       ncg     rms          rms(c)
DAV:   1    -0.231616156025E+04    0.72781E-03   -0.61633E-02  4448   0.214E-01    0.909E-02
RMM:   2    -0.231616249483E+04   -0.93458E-03   -0.95075E-03  5978   0.422E-02    0.686E-02
RMM:   3    -0.231616255059E+04   -0.55768E-04   -0.87659E-04  3135   0.177E-02    0.491E-02
RMM:   4    -0.231616253690E+04    0.13697E-04   -0.10603E-04  2913   0.489E-03    0.241E-02
RMM:   5    -0.231616253214E+04    0.47588E-05   -0.20373E-05  2894   0.342E-03
 100 F= -.23369957E+04 E0= -.23369957E+04  d E =-.217280E-03  mag=     8.0000
       N       E                     dE             d eps       ncg     rms          rms(c)
DAV:   1    -0.231616209390E+04    0.44300E-03   -0.31983E-02  4480   0.154E-01    0.693E-02
RMM:   2    -0.231616259718E+04   -0.50328E-03   -0.49899E-03  5901   0.319E-02    0.720E-02
RMM:   3    -0.231616260047E+04   -0.32884E-05   -0.47355E-04  2926   0.129E-02    0.337E-02
RMM:   4    -0.231616259328E+04    0.71881E-05   -0.55820E-05  2911   0.389E-03
 101 F= -.23369957E+04 E0= -.23369957E+04  d E =-.254154E-03  mag=     8.0000
       N       E                     dE             d eps       ncg     rms          rms(c)
DAV:   1    -0.231616189818E+04    0.70229E-03   -0.75576E-02  4464   0.251E-01    0.107E-01
RMM:   2    -0.231616294503E+04   -0.10469E-02   -0.10739E-02  5834   0.482E-02    0.755E-02
RMM:   3    -0.231616300378E+04   -0.58742E-04   -0.98948E-04  3474   0.212E-02    0.577E-02
RMM:   4    -0.231616297799E+04    0.25785E-04   -0.12768E-04  2919   0.573E-03    0.274E-02
RMM:   5    -0.231616297122E+04    0.67742E-05   -0.27171E-05  2905   0.410E-03
 102 F= -.23369960E+04 E0= -.23369960E+04  d E =-.288432E-03  mag=     8.0000
       N       E                     dE             d eps       ncg     rms          rms(c)
DAV:   1    -0.231616288892E+04    0.89066E-04   -0.83176E-03  4888   0.834E-02    0.397E-02
RMM:   2    -0.231616301822E+04   -0.12930E-03   -0.12467E-03  4957   0.186E-02    0.491E-02
RMM:   3    -0.231616301081E+04    0.74074E-05   -0.13104E-04  2878   0.814E-03    0.182E-02
RMM:   4    -0.231616300899E+04    0.18248E-05   -0.16926E-05  2889   0.277E-03
 103 F= -.23369960E+04 E0= -.23369960E+04  d E =-.296070E-03  mag=     8.0000
       N       E                     dE             d eps       ncg     rms          rms(c)
DAV:   1    -0.231616228684E+04    0.72397E-03   -0.68823E-02  4464   0.239E-01    0.102E-01
RMM:   2    -0.231616327727E+04   -0.99043E-03   -0.10137E-02  5855   0.460E-02    0.733E-02
RMM:   3    -0.231616333044E+04   -0.53176E-04   -0.90310E-04  3316   0.195E-02    0.552E-02
RMM:   4    -0.231616331037E+04    0.20073E-04   -0.11746E-04  2908   0.557E-03    0.252E-02
RMM:   5    -0.231616330389E+04    0.64789E-05   -0.22818E-05  2895   0.406E-03
 104 F= -.23369962E+04 E0= -.23369962E+04  d E =-.227243E-03  mag=     8.0000
       N       E                     dE             d eps       ncg     rms          rms(c)
DAV:   1    -0.231616322714E+04    0.83230E-04   -0.67885E-03  4960   0.755E-02    0.365E-02
RMM:   2    -0.231616333477E+04   -0.10762E-03   -0.10313E-03  4802   0.168E-02    0.446E-02
RMM:   3    -0.231616332880E+04    0.59611E-05   -0.11313E-04  2867   0.761E-03    0.163E-02
RMM:   4    -0.231616332739E+04    0.14158E-05   -0.13884E-05  2890   0.254E-03
 105 F= -.23369962E+04 E0= -.23369962E+04  d E =-.229092E-03  mag=     8.0000
       N       E                     dE             d eps       ncg     rms          rms(c)
DAV:   1    -0.231616251890E+04    0.80991E-03   -0.71551E-02  4464   0.243E-01    0.105E-01
RMM:   2    -0.231616352953E+04   -0.10106E-02   -0.10403E-02  5837   0.469E-02    0.716E-02
RMM:   3    -0.231616358665E+04   -0.57118E-04   -0.93033E-04  3375   0.201E-02    0.551E-02
RMM:   4    -0.231616356373E+04    0.22925E-04   -0.12060E-04  2917   0.573E-03    0.259E-02
RMM:   5    -0.231616355483E+04    0.88984E-05   -0.25137E-05  2891   0.434E-03
 106 F= -.23369964E+04 E0= -.23369964E+04  d E =-.205531E-03  mag=     8.0000
       N       E                     dE             d eps       ncg     rms          rms(c)
DAV:   1    -0.231616354924E+04    0.14490E-04   -0.33229E-04  5248   0.176E-02    0.139E-02
RMM:   2    -0.231616355946E+04   -0.10221E-04   -0.72301E-05  2899   0.465E-03    0.269E-02
RMM:   3    -0.231616355382E+04    0.56417E-05   -0.11408E-05  2616   0.295E-03
 107 F= -.23369964E+04 E0= -.23369964E+04  d E =-.202902E-03  mag=     8.0000
       N       E                     dE             d eps       ncg     rms          rms(c)
DAV:   1    -0.231616284865E+04    0.71081E-03   -0.63861E-02  4464   0.226E-01    0.100E-01
RMM:   2    -0.231616377574E+04   -0.92709E-03   -0.94197E-03  5741   0.438E-02    0.812E-02
RMM:   3    -0.231616380924E+04   -0.33491E-04   -0.84173E-04  3211   0.182E-02    0.542E-02
RMM:   4    -0.231616378667E+04    0.22564E-04   -0.10944E-04  2905   0.560E-03    0.230E-02
RMM:   5    -0.231616377894E+04    0.77326E-05   -0.21540E-05  2897   0.413E-03
 108 F= -.23369966E+04 E0= -.23369966E+04  d E =-.201134E-03  mag=     8.0000
       N       E                     dE             d eps       ncg     rms          rms(c)
DAV:   1    -0.231616376539E+04    0.21282E-04   -0.97882E-04  5176   0.287E-02    0.181E-02
RMM:   2    -0.231616378554E+04   -0.20150E-04   -0.16756E-04  3017   0.707E-03    0.296E-02
RMM:   3    -0.231616378003E+04    0.55134E-05   -0.24369E-05  2720   0.452E-03
 109 F= -.23369966E+04 E0= -.23369966E+04  d E =-.199111E-03  mag=     8.0000
       N       E                     dE             d eps       ncg     rms          rms(c)
DAV:   1    -0.231616332526E+04    0.46028E-03   -0.50642E-02  4448   0.206E-01    0.919E-02
RMM:   2    -0.231616401277E+04   -0.68750E-03   -0.70125E-03  5743   0.396E-02    0.737E-02
RMM:   3    -0.231616403647E+04   -0.23709E-04   -0.66018E-04  3259   0.178E-02    0.500E-02
RMM:   4    -0.231616401613E+04    0.20345E-04   -0.84449E-05  2911   0.516E-03    0.204E-02
RMM:   5    -0.231616400961E+04    0.65225E-05   -0.18134E-05  2896   0.391E-03
 110 F= -.23369968E+04 E0= -.23369968E+04  d E =-.170420E-03  mag=     8.0000
       N       E                     dE             d eps       ncg     rms          rms(c)
DAV:   1    -0.231616400457E+04    0.11556E-04   -0.77148E-04  5168   0.261E-02    0.156E-02
RMM:   2    -0.231616401910E+04   -0.14528E-04   -0.12367E-04  2961   0.639E-03    0.248E-02
RMM:   3    -0.231616401539E+04    0.37146E-05   -0.18174E-05  2650   0.415E-03
 111 F= -.23369968E+04 E0= -.23369968E+04  d E =-.168558E-03  mag=     8.0000
       N       E                     dE             d eps       ncg     rms          rms(c)
DAV:   1    -0.231616366616E+04    0.35294E-03   -0.40838E-02  4456   0.182E-01    0.804E-02
RMM:   2    -0.231616422571E+04   -0.55955E-03   -0.57085E-03  5746   0.353E-02    0.656E-02
RMM:   3    -0.231616424656E+04   -0.20850E-04   -0.54420E-04  3082   0.158E-02    0.435E-02
RMM:   4    -0.231616423197E+04    0.14594E-04   -0.68609E-05  2905   0.465E-03    0.185E-02
RMM:   5    -0.231616422661E+04    0.53611E-05   -0.14809E-05  2885   0.351E-03
 112 F= -.23369970E+04 E0= -.23369970E+04  d E =-.160347E-03  mag=     8.0000
       N       E                     dE             d eps       ncg     rms          rms(c)
DAV:   1    -0.231616420118E+04    0.30787E-04   -0.27942E-03  5080   0.481E-02    0.228E-02
RMM:   2    -0.231616424126E+04   -0.40078E-04   -0.40089E-04  3597   0.112E-02    0.233E-02
RMM:   3    -0.231616424182E+04   -0.55766E-06   -0.47500E-05  2845   0.648E-03
 113 F= -.23369970E+04 E0= -.23369970E+04  d E =-.161919E-03  mag=     8.0000
       N       E                     dE             d eps       ncg     rms          rms(c)
DAV:   1    -0.231616390084E+04    0.34042E-03   -0.39088E-02  4448   0.176E-01    0.789E-02
RMM:   2    -0.231616443166E+04   -0.53081E-03   -0.53867E-03  5759   0.346E-02    0.665E-02
RMM:   3    -0.231616445107E+04   -0.19414E-04   -0.52680E-04  3044   0.153E-02    0.429E-02
RMM:   4    -0.231616443753E+04    0.13543E-04   -0.65752E-05  2907   0.447E-03    0.184E-02
RMM:   5    -0.231616443335E+04    0.41763E-05   -0.15022E-05  2890   0.334E-03
 114 F= -.23369971E+04 E0= -.23369971E+04  d E =-.160140E-03  mag=     8.0000
       N       E                     dE             d eps       ncg     rms          rms(c)
DAV:   1    -0.231616438716E+04    0.50365E-04   -0.44383E-03  4800   0.597E-02    0.290E-02
RMM:   2    -0.231616445066E+04   -0.63497E-04   -0.62286E-04  4028   0.136E-02    0.319E-02
RMM:   3    -0.231616444964E+04    0.10219E-05   -0.72063E-05  2869   0.717E-03
 115 F= -.23369971E+04 E0= -.23369971E+04  d E =-.165646E-03  mag=     8.0000
       N       E                     dE             d eps       ncg     rms          rms(c)
DAV:   1    -0.231616420661E+04    0.24405E-03   -0.31744E-02  4448   0.155E-01    0.697E-02
RMM:   2    -0.231616464370E+04   -0.43709E-03   -0.44171E-03  5755   0.309E-02    0.612E-02
RMM:   3    -0.231616465918E+04   -0.15479E-04   -0.43826E-04  2968   0.134E-02    0.377E-02
RMM:   4    -0.231616464964E+04    0.95422E-05   -0.55056E-05  2905   0.395E-03
 116 F= -.23369973E+04 E0= -.23369973E+04  d E =-.165692E-03  mag=     8.0000
       N       E                     dE             d eps       ncg     rms          rms(c)
DAV:   1    -0.231616447707E+04    0.18211E-03   -0.15798E-02  4496   0.109E-01    0.489E-02
RMM:   2    -0.231616468842E+04   -0.21134E-03   -0.21758E-03  5539   0.220E-02    0.409E-02
RMM:   3    -0.231616470054E+04   -0.12123E-04   -0.23918E-04  2878   0.106E-02    0.288E-02
RMM:   4    -0.231616469489E+04    0.56442E-05   -0.28568E-05  2893   0.304E-03
 117 F= -.23369973E+04 E0= -.23369973E+04  d E =-.186366E-03  mag=     8.0000
       N       E                     dE             d eps       ncg     rms          rms(c)
DAV:   1    -0.231616442264E+04    0.27790E-03   -0.36293E-02  4448   0.164E-01    0.717E-02
RMM:   2    -0.231616489744E+04   -0.47481E-03   -0.49138E-03  5823   0.324E-02    0.489E-02
RMM:   3    -0.231616493160E+04   -0.34151E-04   -0.50001E-04  2976   0.144E-02    0.395E-02
RMM:   4    -0.231616492209E+04    0.95067E-05   -0.60403E-05  2906   0.405E-03
 118 F= -.23369975E+04 E0= -.23369975E+04  d E =-.178548E-03  mag=     8.0000
       N       E                     dE             d eps       ncg     rms          rms(c)
DAV:   1    -0.231616471614E+04    0.21545E-03   -0.19550E-02  4488   0.120E-01    0.541E-02
RMM:   2    -0.231616497436E+04   -0.25821E-03   -0.26667E-03  5651   0.241E-02    0.432E-02
RMM:   3    -0.231616499086E+04   -0.16500E-04   -0.29089E-04  2896   0.117E-02    0.325E-02
RMM:   4    -0.231616498379E+04    0.70712E-05   -0.35441E-05  2895   0.334E-03
 119 F= -.23369975E+04 E0= -.23369975E+04  d E =-.204151E-03  mag=     8.0000
       N       E                     dE             d eps       ncg     rms          rms(c)
DAV:   1    -0.231616470094E+04    0.28991E-03   -0.35508E-02  4448   0.159E-01    0.712E-02
RMM:   2    -0.231616517509E+04   -0.47415E-03   -0.48936E-03  5820   0.321E-02    0.495E-02
RMM:   3    -0.231616521002E+04   -0.34933E-04   -0.50255E-04  2982   0.144E-02    0.402E-02
RMM:   4    -0.231616520014E+04    0.98836E-05   -0.60180E-05  2902   0.409E-03
[...]
RMM:   3    -0.231616938625E+04   -0.66892E-06   -0.11190E-04  2940   0.978E-03    0.341E-02
RMM:   4    -0.231616937569E+04    0.10564E-04   -0.19224E-05  2881   0.368E-03    0.129E-02
RMM:   5    -0.231616937442E+04    0.12664E-05   -0.97070E-06  2880   0.269E-03
 157 F= -.23370009E+04 E0= -.23370009E+04  d E =-.277740E-03  mag=     8.0000
       N       E                     dE             d eps       ncg     rms          rms(c)
DAV:   1    -0.231616952427E+04   -0.14858E-03   -0.31744E-02  4448   0.138E-01    0.637E-02
RMM:   2    -0.231616966884E+04   -0.14457E-03   -0.16137E-03  5360   0.260E-02    0.443E-02
RMM:   3    -0.231616967103E+04   -0.21981E-05   -0.15892E-04  3069   0.117E-02    0.419E-02
RMM:   4    -0.231616965589E+04    0.15149E-04   -0.31173E-05  2887   0.438E-03    0.161E-02
RMM:   5    -0.231616965412E+04    0.17650E-05   -0.13623E-05  2895   0.338E-03
 158 F= -.23370012E+04 E0= -.23370012E+04  d E =-.223787E-03  mag=     8.0000
       N       E                     dE             d eps       ncg     rms          rms(c)
DAV:   1    -0.231616966164E+04   -0.57507E-05   -0.14681E-02  4512   0.936E-02    0.440E-02
RMM:   2    -0.231616973062E+04   -0.68979E-04   -0.75204E-04  4857   0.191E-02    0.335E-02
RMM:   3    -0.231616973095E+04   -0.33787E-06   -0.78678E-05  2910   0.862E-03
 159 F= -.23370012E+04 E0= -.23370012E+04  d E =-.262600E-03  mag=     8.0000
       N       E                     dE             d eps       ncg     rms          rms(c)
DAV:   1    -0.231616983096E+04   -0.10034E-03   -0.38561E-02  4448   0.148E-01    0.740E-02
RMM:   2    -0.231617000121E+04   -0.17025E-03   -0.19434E-03  5391   0.275E-02    0.471E-02
RMM:   3    -0.231617000629E+04   -0.50859E-05   -0.20058E-04  2978   0.114E-02    0.465E-02
RMM:   4    -0.231616999036E+04    0.15928E-04   -0.41084E-05  2895   0.468E-03    0.204E-02
RMM:   5    -0.231616998813E+04    0.22311E-05   -0.17519E-05  2888   0.354E-03
 160 F= -.23370014E+04 E0= -.23370014E+04  d E =-.212620E-03  mag=     8.0000
       N       E                     dE             d eps       ncg     rms          rms(c)
DAV:   1    -0.231616996674E+04    0.23627E-04   -0.19732E-02  4496   0.106E-01    0.508E-02
RMM:   2    -0.231617006014E+04   -0.93401E-04   -0.99639E-04  5043   0.210E-02    0.399E-02
RMM:   3    -0.231617006000E+04    0.13469E-06   -0.10564E-04  2931   0.941E-03    0.323E-02
RMM:   4    -0.231617005061E+04    0.93975E-05   -0.17107E-05  2880   0.350E-03
 161 F= -.23370014E+04 E0= -.23370014E+04  d E =-.243363E-03  mag=     8.0000
       N       E                     dE             d eps       ncg     rms          rms(c)
DAV:   1    -0.231617018645E+04   -0.12645E-03   -0.28133E-02  4464   0.121E-01    0.583E-02
RMM:   2    -0.231617031435E+04   -0.12789E-03   -0.14268E-03  5378   0.223E-02    0.385E-02
RMM:   3    -0.231617032029E+04   -0.59491E-05   -0.14682E-04  2942   0.108E-02    0.384E-02
RMM:   4    -0.231617030848E+04    0.11811E-04   -0.29194E-05  2883   0.379E-03    0.166E-02
RMM:   5    -0.231617030724E+04    0.12444E-05   -0.11274E-05  2890   0.283E-03
 162 F= -.23370017E+04 E0= -.23370017E+04  d E =-.221435E-03  mag=     8.0000
       N       E                     dE             d eps       ncg     rms          rms(c)
DAV:   1    -0.231617026043E+04    0.48058E-04   -0.40798E-02  4464   0.146E-01    0.698E-02
RMM:   2    -0.231617045448E+04   -0.19405E-03   -0.20978E-03  5517   0.272E-02    0.541E-02
RMM:   3    -0.231617045416E+04    0.32075E-06   -0.20417E-04  3070   0.123E-02    0.445E-02
RMM:   4    -0.231617043632E+04    0.17835E-04   -0.34922E-05  2893   0.441E-03    0.175E-02
RMM:   5    -0.231617043384E+04    0.24852E-05   -0.15186E-05  2899   0.347E-03
 163 F= -.23370018E+04 E0= -.23370018E+04  d E =-.306058E-03  mag=     8.0000
       N       E                     dE             d eps       ncg     rms          rms(c)
DAV:   1    -0.231617060240E+04   -0.16608E-03   -0.42149E-02  4512   0.157E-01    0.742E-02
RMM:   2    -0.231617079670E+04   -0.19430E-03   -0.21751E-03  5527   0.301E-02    0.507E-02
RMM:   3    -0.231617080247E+04   -0.57711E-05   -0.22270E-04  3172   0.132E-02    0.479E-02
RMM:   4    -0.231617078180E+04    0.20671E-04   -0.39164E-05  2890   0.488E-03    0.189E-02
RMM:   5    -0.231617077983E+04    0.19665E-05   -0.18793E-05  2909   0.378E-03
 164 F= -.23370020E+04 E0= -.23370020E+04  d E =-.280411E-03  mag=     8.0000
       N       E                     dE             d eps       ncg     rms          rms(c)
DAV:   1    -0.231617079141E+04   -0.96179E-05   -0.14934E-02  4600   0.934E-02    0.452E-02
RMM:   2    -0.231617086527E+04   -0.73858E-04   -0.79665E-04  4845   0.192E-02    0.369E-02
RMM:   3    -0.231617086407E+04    0.12065E-05   -0.85890E-05  2904   0.869E-03
 165 F= -.23370021E+04 E0= -.23370021E+04  d E =-.325576E-03  mag=     8.0000
       N       E                     dE             d eps       ncg     rms          rms(c)
DAV:   1    -0.231617101221E+04   -0.14694E-03   -0.30277E-02  4464   0.143E-01    0.694E-02
RMM:   2    -0.231617113703E+04   -0.12482E-03   -0.14954E-03  5304   0.270E-02    0.416E-02
RMM:   3    -0.231617113891E+04   -0.18796E-05   -0.15336E-04  3021   0.113E-02    0.419E-02
RMM:   4    -0.231617112485E+04    0.14061E-04   -0.33967E-05  2882   0.471E-03    0.188E-02
RMM:   5    -0.231617112190E+04    0.29411E-05   -0.16048E-05  2890   0.368E-03
 166 F= -.23370023E+04 E0= -.23370023E+04  d E =-.207056E-03  mag=     8.0000
       N       E                     dE             d eps       ncg     rms          rms(c)
DAV:   1    -0.231617113677E+04   -0.11920E-04   -0.47519E-03  4784   0.568E-02    0.272E-02
RMM:   2    -0.231617115973E+04   -0.22965E-04   -0.24587E-04  3819   0.125E-02    0.239E-02
RMM:   3    -0.231617115874E+04    0.99005E-06   -0.31057E-05  2874   0.676E-03
 167 F= -.23370023E+04 E0= -.23370023E+04  d E =-.223646E-03  mag=     8.0000
       N       E                     dE             d eps       ncg     rms          rms(c)
DAV:   1    -0.231617128717E+04   -0.12744E-03   -0.25235E-02  4448   0.132E-01    0.634E-02
RMM:   2    -0.231617138641E+04   -0.99237E-04   -0.11946E-03  5236   0.246E-02    0.386E-02
RMM:   3    -0.231617138759E+04   -0.11807E-05   -0.12320E-04  2995   0.105E-02    0.403E-02
RMM:   4    -0.231617137318E+04    0.14403E-04   -0.28265E-05  2889   0.436E-03    0.158E-02
RMM:   5    -0.231617137040E+04    0.27782E-05   -0.12423E-05  2880   0.343E-03
 168 F= -.23370025E+04 E0= -.23370025E+04  d E =-.174905E-03  mag=     8.0000
       N       E                     dE             d eps       ncg     rms          rms(c)
DAV:   1    -0.231617137662E+04   -0.34326E-05   -0.14724E-03  5168   0.323E-02    0.153E-02
RMM:   2    -0.231617138330E+04   -0.66808E-05   -0.74870E-05  3087   0.738E-03
 169 F= -.23370025E+04 E0= -.23370025E+04  d E =-.178797E-03  mag=     8.0000
       N       E                     dE             d eps       ncg     rms          rms(c)
DAV:   1    -0.231617148772E+04   -0.11110E-03   -0.25282E-02  4448   0.138E-01    0.646E-02
RMM:   2    -0.231617158427E+04   -0.96557E-04   -0.11401E-03  5339   0.273E-02    0.455E-02
RMM:   3    -0.231617158350E+04    0.77105E-06   -0.13127E-04  3195   0.112E-02    0.439E-02
RMM:   4    -0.231617156625E+04    0.17249E-04   -0.29004E-05  2884   0.481E-03    0.150E-02
RMM:   5    -0.231617156460E+04    0.16545E-05   -0.13431E-05  2882   0.359E-03
 170 F= -.23370026E+04 E0= -.23370026E+04  d E =-.160288E-03  mag=     8.0000
       N       E                     dE             d eps       ncg     rms          rms(c)
DAV:   1    -0.231617156504E+04    0.12085E-05   -0.93500E-04  5232   0.271E-02    0.136E-02
RMM:   2    -0.231617156987E+04   -0.48292E-05   -0.46820E-05  2948   0.622E-03
 171 F= -.23370026E+04 E0= -.23370026E+04  d E =-.161449E-03  mag=     8.0000
       N       E                     dE             d eps       ncg     rms          rms(c)
DAV:   1    -0.231617169526E+04   -0.13022E-03   -0.21258E-02  4448   0.130E-01    0.603E-02
RMM:   2    -0.231617176495E+04   -0.69690E-04   -0.86159E-04  5229   0.251E-02    0.357E-02
RMM:   3    -0.231617176549E+04   -0.53467E-06   -0.90799E-05  3112   0.102E-02
 172 F= -.23370028E+04 E0= -.23370028E+04  d E =-.161316E-03  mag=     8.0000
       N       E                     dE             d eps       ncg     rms          rms(c)
DAV:   1    -0.231617176116E+04    0.37964E-05   -0.23359E-03  5384   0.444E-02    0.278E-02
RMM:   2    -0.231617176542E+04   -0.42636E-05   -0.94563E-05  3279   0.897E-03
 173 F= -.23370028E+04 E0= -.23370028E+04  d E =-.149653E-03  mag=     8.0000
       N       E                     dE             d eps       ncg     rms          rms(c)
DAV:   1    -0.231617188956E+04   -0.12840E-03   -0.18796E-02  4448   0.122E-01    0.579E-02
RMM:   2    -0.231617194628E+04   -0.56722E-04   -0.72489E-04  4972   0.242E-02    0.352E-02
RMM:   3    -0.231617194984E+04   -0.35632E-05   -0.94253E-05  3095   0.103E-02
 174 F= -.23370029E+04 E0= -.23370029E+04  d E =-.140871E-03  mag=     8.0000
       N       E                     dE             d eps       ncg     rms          rms(c)
DAV:   1    -0.231617195453E+04   -0.82522E-05   -0.37772E-03  4992   0.557E-02    0.325E-02
RMM:   2    -0.231617196373E+04   -0.91916E-05   -0.14697E-04  3668   0.113E-02    0.250E-02
RMM:   3    -0.231617196289E+04    0.83266E-06   -0.27162E-05  2882   0.605E-03
 175 F= -.23370029E+04 E0= -.23370029E+04  d E =-.134150E-03  mag=     8.0000
       N       E                     dE             d eps       ncg     rms          rms(c)
DAV:   1    -0.231617205041E+04   -0.86689E-04   -0.13868E-02  4456   0.989E-02    0.465E-02
RMM:   2    -0.231617209361E+04   -0.43199E-04   -0.55502E-04  4753   0.185E-02    0.233E-02
RMM:   3    -0.231617209017E+04    0.34442E-05   -0.50691E-05  2910   0.822E-03
 176 F= -.23370030E+04 E0= -.23370030E+04  d E =-.105478E-03  mag=     8.0000
       N       E                     dE             d eps       ncg     rms          rms(c)
DAV:   1    -0.231617209556E+04   -0.19425E-05   -0.19617E-03  5144   0.375E-02    0.243E-02
RMM:   2    -0.231617210455E+04   -0.89937E-05   -0.93434E-05  3133   0.810E-03
 177 F= -.23370030E+04 E0= -.23370030E+04  d E =-.111506E-03  mag=     8.0000
       N       E                     dE             d eps       ncg     rms          rms(c)
DAV:   1    -0.231617220199E+04   -0.10644E-03   -0.15686E-02  4456   0.113E-01    0.539E-02
RMM:   2    -0.231617224787E+04   -0.45876E-04   -0.62105E-04  4939   0.229E-02    0.284E-02
RMM:   3    -0.231617224810E+04   -0.23111E-06   -0.72181E-05  3070   0.968E-03
 178 F= -.23370032E+04 E0= -.23370032E+04  d E =-.133301E-03  mag=     8.0000
       N       E                     dE             d eps       ncg     rms          rms(c)
DAV:   1    -0.231617224897E+04   -0.10974E-05   -0.30478E-03  5040   0.505E-02    0.308E-02
RMM:   2    -0.231617225991E+04   -0.10940E-04   -0.13262E-04  3551   0.107E-02    0.317E-02
RMM:   3    -0.231617225489E+04    0.50116E-05   -0.26932E-05  2877   0.598E-03
 179 F= -.23370032E+04 E0= -.23370032E+04  d E =-.135556E-03  mag=     8.0000
       N       E                     dE             d eps       ncg     rms          rms(c)
DAV:   1    -0.231617236196E+04   -0.10206E-03   -0.88709E-03  4456   0.856E-02    0.407E-02
RMM:   2    -0.231617238862E+04   -0.26656E-04   -0.35623E-04  4576   0.167E-02    0.230E-02
RMM:   3    -0.231617238820E+04    0.41834E-06   -0.37930E-05  2907   0.733E-03
 180 F= -.23370033E+04 E0= -.23370033E+04  d E =-.109494E-03  mag=     8.0000
       N       E                     dE             d eps       ncg     rms          rms(c)
DAV:   1    -0.231617239153E+04   -0.29098E-05   -0.86036E-04  5440   0.275E-02    0.187E-02
RMM:   2    -0.231617239313E+04   -0.16012E-05   -0.37600E-05  2965   0.596E-03
 181 F= -.23370033E+04 E0= -.23370033E+04  d E =-.106857E-03  mag=     8.0000
       N       E                     dE             d eps       ncg     rms          rms(c)
DAV:   1    -0.231617249826E+04   -0.10673E-03   -0.84165E-03  4456   0.865E-02    0.415E-02
RMM:   2    -0.231617252138E+04   -0.23127E-04   -0.32802E-04  4625   0.179E-02    0.266E-02
RMM:   3    -0.231617252205E+04   -0.66654E-06   -0.45493E-05  2948   0.826E-03
 182 F= -.23370034E+04 E0= -.23370034E+04  d E =-.914103E-04  mag=     8.0000
       N       E                     dE             d eps       ncg     rms          rms(c)
DAV:   1    -0.231617252122E+04    0.16400E-06   -0.30479E-04  5440   0.181E-02    0.138E-02
RMM:   2    -0.231617252156E+04   -0.33589E-06   -0.16931E-05  2750   0.414E-03
 183 F= -.23370034E+04 E0= -.23370034E+04  d E =-.836423E-04  mag=     8.0000
       N       E                     dE             d eps       ncg     rms          rms(c)
DAV:   1    -0.231617261113E+04   -0.89911E-04   -0.75182E-03  4456   0.820E-02    0.384E-02
RMM:   2    -0.231617262819E+04   -0.17058E-04   -0.25050E-04  4443   0.162E-02    0.247E-02
RMM:   3    -0.231617262816E+04    0.24738E-07   -0.36534E-05  2962   0.832E-03
 184 F= -.23370034E+04 E0= -.23370034E+04  d E =-.788290E-04  mag=     8.0000
       N       E                     dE             d eps       ncg     rms          rms(c)
DAV:   1    -0.231617262278E+04    0.54064E-05   -0.62024E-05  4888   0.917E-03    0.969E-03
RMM:   2    -0.231617262295E+04   -0.17113E-06   -0.58100E-06  2509   0.265E-03
 185 F= -.23370034E+04 E0= -.23370034E+04  d E =-.712152E-04  mag=     8.0000
       N       E                     dE             d eps       ncg     rms          rms(c)
DAV:   1    -0.231617268302E+04   -0.60233E-04   -0.65640E-03  4472   0.754E-02    0.343E-02
RMM:   2    -0.231617269432E+04   -0.11305E-04   -0.19244E-04  4230   0.134E-02    0.157E-02
RMM:   3    -0.231617269075E+04    0.35691E-05   -0.18309E-05  2887   0.829E-03
 186 F= -.23370035E+04 E0= -.23370035E+04  d E =-.589051E-04  mag=     8.0000
       N       E                     dE             d eps       ncg     rms          rms(c)
DAV:   1    -0.231617269126E+04    0.30605E-05   -0.34060E-04  5328   0.182E-02    0.157E-02
RMM:   2    -0.231617269672E+04   -0.54609E-05   -0.28379E-05  2808   0.452E-03
 187 F= -.23370035E+04 E0= -.23370035E+04  d E =-.627330E-04  mag=     8.0000
       N       E                     dE             d eps       ncg     rms          rms(c)
DAV:   1    -0.231617275402E+04   -0.62763E-04   -0.53016E-03  4496   0.651E-02    0.306E-02
RMM:   2    -0.231617276227E+04   -0.82509E-05   -0.14601E-04  4032   0.131E-02    0.154E-02
RMM:   3    -0.231617276034E+04    0.19374E-05   -0.16421E-05  2898   0.687E-03
 188 F= -.23370036E+04 E0= -.23370036E+04  d E =-.575788E-04  mag=     8.0000
       N       E                     dE             d eps       ncg     rms          rms(c)
DAV:   1    -0.231617276368E+04   -0.14057E-05   -0.57356E-04  5312   0.221E-02    0.152E-02
RMM:   2    -0.231617276633E+04   -0.26522E-05   -0.22986E-05  2856   0.512E-03
 189 F= -.23370036E+04 E0= -.23370036E+04  d E =-.615351E-04  mag=     8.0000
       N       E                     dE             d eps       ncg     rms          rms(c)
DAV:   1    -0.231617286196E+04   -0.98282E-04   -0.63307E-03  4456   0.740E-02    0.349E-02
RMM:   2    -0.231617287225E+04   -0.10290E-04   -0.17918E-04  4276   0.150E-02    0.168E-02
RMM:   3    -0.231617287060E+04    0.16523E-05   -0.20654E-05  2918   0.726E-03
 190 F= -.23370036E+04 E0= -.23370036E+04  d E =-.787680E-04  mag=     8.0000
       N       E                     dE             d eps       ncg     rms          rms(c)
DAV:   1    -0.231617288299E+04   -0.10735E-04   -0.13505E-03  5160   0.349E-02    0.207E-02
RMM:   2    -0.231617288591E+04   -0.29295E-05   -0.43973E-05  3204   0.766E-03
 191 F= -.23370036E+04 E0= -.23370036E+04  d E =-.820874E-04  mag=     8.0000
       N       E                     dE             d eps       ncg     rms          rms(c)
DAV:   1    -0.231617297722E+04   -0.94233E-04   -0.48141E-03  4488   0.574E-02    0.315E-02
RMM:   2    -0.231617298683E+04   -0.96092E-05   -0.12624E-04  3817   0.125E-02    0.293E-02
RMM:   3    -0.231617298369E+04    0.31349E-05   -0.27009E-05  2885   0.642E-03
 192 F= -.23370037E+04 E0= -.23370037E+04  d E =-.673491E-04  mag=     8.0000
       N       E                     dE             d eps       ncg     rms          rms(c)
DAV:   1    -0.231617301519E+04   -0.28358E-04   -0.37372E-03  4616   0.499E-02    0.264E-02
RMM:   2    -0.231617301848E+04   -0.32995E-05   -0.81121E-05  3521   0.988E-03
 193 F= -.23370037E+04 E0= -.23370037E+04  d E =-.748915E-04  mag=     8.0000
       N       E                     dE             d eps       ncg     rms          rms(c)
DAV:   1    -0.231617309993E+04   -0.84747E-04   -0.31801E-03  4488   0.455E-02    0.242E-02
RMM:   2    -0.231617310486E+04   -0.49238E-05   -0.76712E-05  3514   0.101E-02
 194 F= -.23370038E+04 E0= -.23370038E+04  d E =-.701356E-04  mag=     8.0000
       N       E                     dE             d eps       ncg     rms          rms(c)
DAV:   1    -0.231617318016E+04   -0.80229E-04   -0.10688E-02  4464   0.830E-02    0.467E-02
RMM:   2    -0.231617320152E+04   -0.21355E-04   -0.27444E-04  4468   0.176E-02    0.450E-02
RMM:   3    -0.231617319137E+04    0.10146E-04   -0.57747E-05  2922   0.801E-03    0.306E-02
RMM:   4    -0.231617318073E+04    0.10642E-04   -0.14184E-05  2876   0.370E-03    0.772E-03
RMM:   5    -0.231617318018E+04    0.54811E-06   -0.53899E-06  2809   0.265E-03
 195 F= -.23370038E+04 E0= -.23370038E+04  d E =-.115888E-03  mag=     8.0000
       N       E                     dE             d eps       ncg     rms          rms(c)
DAV:   1    -0.231617327748E+04   -0.96756E-04   -0.56780E-03  4528   0.610E-02    0.292E-02
RMM:   2    -0.231617328544E+04   -0.79523E-05   -0.12543E-04  3835   0.119E-02    0.150E-02
RMM:   3    -0.231617328561E+04   -0.17096E-06   -0.17434E-05  2888   0.655E-03
 196 F= -.23370039E+04 E0= -.23370039E+04  d E =-.998536E-04  mag=     8.0000
       N       E                     dE             d eps       ncg     rms          rms(c)
DAV:   1    -0.231617331514E+04   -0.29701E-04   -0.60248E-03  4472   0.630E-02    0.335E-02
RMM:   2    -0.231617332118E+04   -0.60387E-05   -0.13353E-04  3964   0.122E-02    0.181E-02
RMM:   3    -0.231617332056E+04    0.61779E-06   -0.19330E-05  2906   0.625E-03
 197 F= -.23370040E+04 E0= -.23370040E+04  d E =-.129084E-03  mag=     8.0000
       N       E                     dE             d eps       ncg     rms          rms(c)
DAV:   1    -0.231617341498E+04   -0.93802E-04   -0.66154E-03  4472   0.676E-02    0.350E-02
RMM:   2    -0.231617342467E+04   -0.96898E-05   -0.15456E-04  4082   0.132E-02    0.232E-02
RMM:   3    -0.231617342594E+04   -0.12673E-05   -0.29422E-05  2893   0.700E-03
 198 F= -.23370041E+04 E0= -.23370041E+04  d E =-.977774E-04  mag=     8.0000
       N       E                     dE             d eps       ncg     rms          rms(c)
DAV:   1    -0.231617343799E+04   -0.13321E-04   -0.29610E-03  4768   0.455E-02    0.258E-02
RMM:   2    -0.231617343983E+04   -0.18394E-05   -0.66493E-05  3489   0.910E-03
 199 F= -.23370041E+04 E0= -.23370041E+04  d E =-.106543E-03  mag=     8.0000
       N       E                     dE             d eps       ncg     rms          rms(c)
DAV:   1    -0.231617356356E+04   -0.12557E-03   -0.88394E-03  4456   0.794E-02    0.431E-02
RMM:   2    -0.231617358119E+04   -0.17632E-04   -0.23021E-04  4419   0.168E-02    0.374E-02
RMM:   3    -0.231617357700E+04    0.41866E-05   -0.48337E-05  2947   0.786E-03
 200 F= -.23370042E+04 E0= -.23370042E+04  d E =-.103523E-03  mag=     8.0000
       N       E                     dE             d eps       ncg     rms          rms(c)
DAV:   1    -0.231617359364E+04   -0.12452E-04   -0.30365E-03  4880   0.472E-02    0.274E-02
RMM:   2    -0.231617359424E+04   -0.60134E-06   -0.65578E-05  3456   0.932E-03
 201 F= -.23370042E+04 E0= -.23370042E+04  d E =-.100747E-03  mag=     8.0000
