       N       E                     dE             d eps       ncg     rms          rms(c)
DAV:   1     0.124632592318E+05    0.12463E+05   -0.82092E+05  4416   0.143E+03
DAV:   2    -0.109746844496E+04   -0.13561E+05   -0.13018E+05  5344   0.329E+02
DAV:   3    -0.247724620135E+04   -0.13798E+04   -0.13686E+04  5264   0.108E+02
DAV:   4    -0.251533312742E+04   -0.38087E+02   -0.37910E+02  6320   0.251E+01
DAV:   5    -0.251608422568E+04   -0.75110E+00   -0.75017E+00  5568   0.287E+00    0.170E+02
RMM:   6    -0.146915772284E+04    0.10469E+04   -0.19393E+03  4351   0.389E+01    0.726E+01
RMM:   7    -0.163847435121E+04   -0.16932E+03   -0.27872E+02  4878   0.140E+01    0.490E+01
RMM:   8    -0.169211831712E+04   -0.53644E+02   -0.40668E+01  4908   0.710E+00    0.354E+01
RMM:   9    -0.184225394140E+04   -0.15014E+03   -0.72802E+01  4643   0.870E+00    0.228E+01
RMM:  10    -0.198110165545E+04   -0.13885E+03   -0.56684E+01  4599   0.704E+00    0.162E+01
RMM:  11    -0.209376449785E+04   -0.11266E+03   -0.57805E+01  4549   0.577E+00    0.127E+01
RMM:  12    -0.227331077311E+04   -0.17955E+03   -0.19117E+02  4347   0.915E+00    0.598E+00
RMM:  13    -0.230230542583E+04   -0.28995E+02   -0.34462E+01  4463   0.478E+00    0.372E+00
RMM:  14    -0.230944796833E+04   -0.71425E+01   -0.97387E+00  4678   0.241E+00    0.372E+00
RMM:  15    -0.231032925717E+04   -0.88129E+00   -0.13052E+00  5094   0.108E+00    0.581E+00
RMM:  16    -0.231061521797E+04   -0.28596E+00   -0.67152E-01  4588   0.424E-01    0.175E+00
RMM:  17    -0.231134791974E+04   -0.73270E+00   -0.52638E-01  4410   0.592E-01    0.175E+00
RMM:  18    -0.231140176739E+04   -0.53848E-01   -0.14194E-01  4657   0.371E-01    0.164E+00
RMM:  19    -0.231122140229E+04    0.18037E+00   -0.20013E-01  4424   0.253E-01    0.206E+00
RMM:  20    -0.231045293563E+04    0.76847E+00   -0.37599E-01  4592   0.286E-01    0.277E+00
RMM:  21    -0.230991645620E+04    0.53648E+00   -0.13184E-01  4568   0.170E-01    0.321E+00
RMM:  22    -0.231052435275E+04   -0.60790E+00   -0.81706E-02  4495   0.109E-01    0.273E+00
RMM:  23    -0.231140646981E+04   -0.88212E+00   -0.37382E-01  4553   0.226E-01    0.169E+00
RMM:  24    -0.231192985146E+04   -0.52338E+00   -0.45296E-01  4492   0.273E-01    0.508E-01
RMM:  25    -0.231200367688E+04   -0.73825E-01   -0.65942E-02  4548   0.146E-01    0.284E+00
RMM:  26    -0.231201711293E+04   -0.13436E-01   -0.38852E-02  4947   0.637E-02    0.333E+00
RMM:  27    -0.231199912392E+04    0.17989E-01   -0.25311E-02  4446   0.374E-02    0.203E+00
RMM:  28    -0.231183245333E+04    0.16667E+00   -0.50019E-01  4493   0.204E-01    0.100E+00
RMM:  29    -0.231151179260E+04    0.32066E+00   -0.19613E-01  4458   0.200E-01    0.163E+00
RMM:  30    -0.231151808143E+04   -0.62888E-02   -0.96147E-03  4504   0.552E-02    0.157E+00
RMM:  31    -0.231156078974E+04   -0.42708E-01   -0.36521E-03  4175   0.354E-02    0.148E+00
RMM:  32    -0.231153898683E+04    0.21803E-01   -0.14895E-03  4301   0.254E-02    0.149E+00
RMM:  33    -0.231141996257E+04    0.11902E+00   -0.12202E-02  4248   0.523E-02    0.165E+00
RMM:  34    -0.231127406193E+04    0.14590E+00   -0.18324E-02  4409   0.573E-02    0.182E+00
RMM:  35    -0.231124898783E+04    0.25074E-01   -0.21431E-03  3668   0.213E-02    0.185E+00
RMM:  36    -0.231124304373E+04    0.59441E-02   -0.23396E-04  3327   0.783E-03    0.185E+00
RMM:  37    -0.231122043020E+04    0.22614E-01   -0.56980E-04  3263   0.104E-02    0.187E+00
RMM:  38    -0.231121538269E+04    0.50475E-02   -0.10481E-04  2859   0.548E-03    0.188E+00
RMM:  39    -0.231120541757E+04    0.99651E-02   -0.13805E-04  2884   0.582E-03    0.188E+00
RMM:  40    -0.231120381394E+04    0.16036E-02   -0.33281E-05  2571   0.338E-03    0.188E+00
RMM:  41    -0.231120396691E+04   -0.15297E-03   -0.23006E-06  2178   0.142E-03    0.188E+00
RMM:  42    -0.231120162271E+04    0.23442E-02   -0.16322E-05  2226   0.214E-03    0.188E+00
RMM:  43    -0.231120017235E+04    0.14504E-02   -0.27202E-05  2291   0.255E-03    0.188E+00
RMM:  44    -0.231119888073E+04    0.12916E-02   -0.56031E-06  2264   0.201E-03    0.188E+00
RMM:  45    -0.231117628853E+04    0.22592E-01   -0.53793E-04  3231   0.960E-03    0.190E+00
RMM:  46    -0.231116262054E+04    0.13668E-01   -0.24755E-04  3057   0.761E-03    0.191E+00
RMM:  47    -0.231114890069E+04    0.13720E-01   -0.23782E-04  2993   0.696E-03    0.192E+00
RMM:  48    -0.231114468996E+04    0.42107E-02   -0.55473E-05  2593   0.366E-03    0.192E+00
RMM:  49    -0.231113092191E+04    0.13768E-01   -0.19748E-04  2940   0.637E-03    0.194E+00
RMM:  50    -0.231113757006E+04   -0.66482E-02   -0.41069E-05  2534   0.361E-03    0.193E+00
RMM:  51    -0.231114760220E+04   -0.10032E-01   -0.11203E-04  2934   0.508E-03    0.191E+00
RMM:  52    -0.231117839752E+04   -0.30795E-01   -0.91717E-04  3361   0.119E-02    0.188E+00
RMM:  53    -0.231119264218E+04   -0.14245E-01   -0.37489E-04  3258   0.929E-03    0.184E+00
RMM:  54    -0.231121464927E+04   -0.22007E-01   -0.45691E-04  3397   0.104E-02    0.180E+00
RMM:  55    -0.231134614266E+04   -0.13149E+00   -0.12347E-02  4394   0.446E-02    0.163E+00
RMM:  56    -0.231152792480E+04   -0.18178E+00   -0.31019E-02  4481   0.710E-02    0.139E+00
RMM:  57    -0.231170132932E+04   -0.17340E+00   -0.41912E-02  4462   0.839E-02    0.114E+00
RMM:  58    -0.231178474923E+04   -0.83420E-01   -0.18079E-02  4237   0.605E-02    0.992E-01
RMM:  59    -0.231188964309E+04   -0.10489E+00   -0.31539E-02  4416   0.772E-02    0.782E-01
RMM:  60    -0.231192380959E+04   -0.34166E-01   -0.76727E-03  4137   0.454E-02    0.676E-01
RMM:  61    -0.231193214263E+04   -0.83330E-02   -0.14739E-03  3723   0.187E-02    0.657E-01
RMM:  62    -0.231194157377E+04   -0.94311E-02   -0.65259E-04  3346   0.137E-02    0.640E-01
RMM:  63    -0.231198839306E+04   -0.46819E-01   -0.15620E-02  4238   0.614E-02    0.485E-01
RMM:  64    -0.231200910007E+04   -0.20707E-01   -0.67891E-03  4120   0.459E-02    0.115E+00
RMM:  65    -0.231203580903E+04   -0.26709E-01   -0.12094E-02  4436   0.450E-02    0.304E+00
RMM:  66    -0.231205425739E+04   -0.18448E-01   -0.21368E-02  4654   0.542E-02    0.369E+00
RMM:  67    -0.231205435877E+04   -0.10138E-03   -0.17725E-03  3996   0.241E-02    0.356E+00
RMM:  68    -0.231205444374E+04   -0.84966E-04   -0.58304E-04  3178   0.612E-03    0.362E+00
RMM:  69    -0.231205629704E+04   -0.18533E-02   -0.17429E-04  3244   0.661E-03    0.368E+00
RMM:  70    -0.231205467092E+04    0.16261E-02   -0.26178E-05  2810   0.396E-03    0.356E+00
RMM:  71    -0.231207001474E+04   -0.15344E-01   -0.95768E-03  4470   0.401E-02    0.397E+00
RMM:  72    -0.231207193641E+04   -0.19217E-02   -0.11782E-03  3935   0.243E-02    0.390E+00
RMM:  73    -0.231207338552E+04   -0.14491E-02   -0.37970E-04  3701   0.783E-03    0.395E+00
RMM:  74    -0.231207452222E+04   -0.11367E-02   -0.99928E-05  3011   0.730E-03    0.397E+00
RMM:  75    -0.231207607106E+04   -0.15488E-02   -0.14730E-04  3410   0.544E-03    0.399E+00
RMM:  76    -0.231207399578E+04    0.20753E-02   -0.53682E-05  2883   0.506E-03    0.390E+00
RMM:  77    -0.231206884281E+04    0.51530E-02   -0.34462E-04  3582   0.817E-03    0.373E+00
RMM:  78    -0.231206688302E+04    0.19598E-02   -0.12127E-04  2989   0.618E-03    0.369E+00
RMM:  79    -0.231206684835E+04    0.34669E-04   -0.15435E-05  2766   0.332E-03    0.370E+00
RMM:  80    -0.231206736289E+04   -0.51454E-03   -0.32713E-06  2488   0.180E-03    0.372E+00
RMM:  81    -0.231206493562E+04    0.24273E-02   -0.39869E-04  3860   0.806E-03    0.369E+00
RMM:  82    -0.231206775193E+04   -0.28163E-02   -0.80290E-05  2915   0.583E-03    0.384E+00
RMM:  83    -0.231206928838E+04   -0.15365E-02   -0.16357E-04  3290   0.597E-03    0.383E+00
RMM:  84    -0.231207009665E+04   -0.80827E-03   -0.22904E-05  2628   0.373E-03    0.386E+00
RMM:  85    -0.231207017389E+04   -0.77244E-04   -0.10494E-05  2542   0.204E-03    0.385E+00
RMM:  86    -0.231205950746E+04    0.10666E-01   -0.89933E-03  4514   0.388E-02    0.369E+00
RMM:  87    -0.231206687983E+04   -0.73724E-02   -0.17534E-03  4474   0.234E-02    0.403E+00
RMM:  88    -0.231206806801E+04   -0.11882E-02   -0.25947E-04  3555   0.919E-03    0.396E+00
RMM:  89    -0.231206619768E+04    0.18703E-02   -0.55861E-05  2900   0.524E-03    0.390E+00
RMM:  90    -0.231206581032E+04    0.38736E-03   -0.12985E-05  2653   0.260E-03    0.390E+00
RMM:  91    -0.231205953929E+04    0.62710E-02   -0.15477E-03  4179   0.171E-02    0.370E+00
RMM:  92    -0.231205849097E+04    0.10483E-02   -0.18985E-04  3190   0.102E-02    0.371E+00
RMM:  93    -0.231205847179E+04    0.19185E-04   -0.37419E-05  2795   0.339E-03    0.371E+00
RMM:  94    -0.231205867245E+04   -0.20066E-03   -0.47725E-06  2543   0.235E-03    0.372E+00
RMM:  95    -0.231205870753E+04   -0.35075E-04   -0.13348E-06  2274   0.115E-03    0.372E+00
RMM:  96    -0.231202647084E+04    0.32237E-01   -0.46361E-02  4471   0.660E-02    0.203E+00
RMM:  97    -0.231199087976E+04    0.35591E-01   -0.44044E-02  4309   0.708E-02    0.586E-01
RMM:  98    -0.231195629451E+04    0.34585E-01   -0.17341E-02  4636   0.710E-02    0.674E-01
RMM:  99    -0.231194911900E+04    0.71755E-02   -0.17263E-03  4166   0.254E-02    0.718E-01
RMM: 100    -0.231195494229E+04   -0.58233E-02   -0.22453E-04  3234   0.840E-03    0.695E-01
RMM: 101    -0.231187809517E+04    0.76847E-01   -0.24648E-02  4327   0.749E-02    0.957E-01
RMM: 102    -0.231185917902E+04    0.18916E-01   -0.24707E-03  3791   0.280E-02    0.101E+00
RMM: 103    -0.231186412103E+04   -0.49420E-02   -0.21734E-04  3204   0.793E-03    0.100E+00
RMM: 104    -0.231186496186E+04   -0.84083E-03   -0.28303E-05  2731   0.344E-03    0.998E-01
RMM: 105    -0.231186695943E+04   -0.19976E-02   -0.20744E-05  2630   0.331E-03    0.991E-01
RMM: 106    -0.231186206820E+04    0.48912E-02   -0.89661E-05  2787   0.482E-03    0.100E+00
RMM: 107    -0.231186469551E+04   -0.26273E-02   -0.28468E-05  2595   0.325E-03    0.100E+00
RMM: 108    -0.231186606790E+04   -0.13724E-02   -0.12640E-05  2130   0.224E-03    0.997E-01
RMM: 109    -0.231186822640E+04   -0.21585E-02   -0.41394E-05  2338   0.313E-03    0.993E-01
RMM: 110    -0.231187603480E+04   -0.78084E-02   -0.25270E-04  3111   0.815E-03    0.969E-01
RMM: 111    -0.231186254148E+04    0.13493E-01   -0.27298E-03  3877   0.260E-02    0.105E+00
RMM: 112    -0.231184303110E+04    0.19510E-01   -0.15574E-03  3505   0.194E-02    0.109E+00
RMM: 113    -0.231180328835E+04    0.39743E-01   -0.43685E-03  3899   0.305E-02    0.118E+00
RMM: 114    -0.231180834249E+04   -0.50541E-02   -0.26519E-04  3090   0.960E-03    0.117E+00
RMM: 115    -0.231182438243E+04   -0.16040E-01   -0.74246E-04  3476   0.133E-02    0.113E+00
RMM: 116    -0.231185502766E+04   -0.30645E-01   -0.29602E-03  3775   0.252E-02    0.108E+00
RMM: 117    -0.231186612277E+04   -0.11095E-01   -0.65020E-04  3350   0.138E-02    0.106E+00
RMM: 118    -0.231187543178E+04   -0.93090E-02   -0.40910E-04  3228   0.107E-02    0.104E+00
RMM: 119    -0.231187911463E+04   -0.36829E-02   -0.18979E-04  2937   0.698E-03    0.104E+00
RMM: 120    -0.231188115059E+04   -0.20360E-02   -0.52558E-05  2752   0.444E-03    0.104E+00
RMM: 121    -0.231185430047E+04    0.26850E-01   -0.20466E-03  3495   0.206E-02    0.109E+00
RMM: 122    -0.231184834321E+04    0.59573E-02   -0.22242E-04  2993   0.796E-03    0.111E+00
RMM: 123    -0.231185787613E+04   -0.95329E-02   -0.21213E-04  2950   0.659E-03    0.108E+00
RMM: 124    -0.231187483336E+04   -0.16957E-01   -0.88612E-04  3386   0.141E-02    0.104E+00
RMM: 125    -0.231188281553E+04   -0.79822E-02   -0.35092E-04  3062   0.875E-03    0.102E+00
RMM: 126    -0.231190851423E+04   -0.25699E-01   -0.23120E-03  3555   0.215E-02    0.960E-01
RMM: 127    -0.231192247174E+04   -0.13958E-01   -0.10713E-03  3452   0.173E-02    0.914E-01
RMM: 128    -0.231194577028E+04   -0.23299E-01   -0.29690E-03  3727   0.267E-02    0.842E-01
RMM: 129    -0.231195051465E+04   -0.47444E-02   -0.39782E-04  3158   0.113E-02    0.828E-01
RMM: 130    -0.231195245043E+04   -0.19358E-02   -0.91929E-05  2885   0.546E-03    0.823E-01
RMM: 131    -0.231195121125E+04    0.12392E-02   -0.11822E-04  2971   0.658E-03    0.829E-01
RMM: 132    -0.231195050794E+04    0.70332E-03   -0.99689E-06  2517   0.260E-03    0.835E-01
RMM: 133    -0.231195087131E+04   -0.36337E-03   -0.35152E-06  2278   0.162E-03    0.832E-01
RMM: 134    -0.231195084056E+04    0.30746E-04   -0.42843E-07  1635   0.823E-04    0.833E-01
RMM: 135    -0.231195124160E+04   -0.40104E-03   -0.22290E-06  1762   0.126E-03    0.830E-01
RMM: 136    -0.231195265252E+04   -0.14109E-02   -0.45439E-05  2482   0.335E-03    0.830E-01
RMM: 137    -0.231195657299E+04   -0.39205E-02   -0.11009E-04  2855   0.535E-03    0.817E-01
RMM: 138    -0.231196136655E+04   -0.47936E-02   -0.14868E-04  3054   0.660E-03    0.795E-01
RMM: 139    -0.231196192202E+04   -0.55547E-03   -0.15049E-05  2465   0.255E-03    0.793E-01
RMM: 140    -0.231197031485E+04   -0.83928E-02   -0.53764E-04  3341   0.119E-02    0.752E-01
RMM: 141    -0.231206556404E+04   -0.95249E-01   -0.50614E-02  4436   0.116E-01    0.467E+00
RMM: 142    -0.231212207351E+04   -0.56509E-01   -0.83187E-02  4753   0.126E-01    0.502E+00
RMM: 143    -0.231211438393E+04    0.76896E-02   -0.66867E-03  4640   0.522E-02    0.488E+00
RMM: 144    -0.231211285488E+04    0.15291E-02   -0.11114E-03  4115   0.117E-02    0.486E+00
RMM: 145    -0.231212118058E+04   -0.83257E-02   -0.50603E-04  3871   0.123E-02    0.491E+00
RMM: 146    -0.231210415532E+04    0.17025E-01   -0.26473E-03  4254   0.200E-02    0.477E+00
RMM: 147    -0.231210981833E+04   -0.56630E-02   -0.27662E-04  3622   0.105E-02    0.485E+00
RMM: 148    -0.231210707378E+04    0.27446E-02   -0.10509E-04  3010   0.509E-03    0.484E+00
RMM: 149    -0.231210436966E+04    0.27041E-02   -0.52775E-04  4056   0.936E-03    0.489E+00
RMM: 150    -0.231210725520E+04   -0.28855E-02   -0.10991E-04  3094   0.632E-03    0.490E+00
RMM: 151    -0.231207836811E+04    0.28887E-01   -0.81188E-03  4453   0.352E-02    0.431E+00
RMM: 152    -0.231206777899E+04    0.10589E-01   -0.51750E-03  4607   0.360E-02    0.424E+00
RMM: 153    -0.231206739285E+04    0.38614E-03   -0.13101E-03  4608   0.177E-02    0.432E+00
RMM: 154    -0.231206727400E+04    0.11886E-03   -0.54773E-04  3899   0.110E-02    0.434E+00
RMM: 155    -0.231206636296E+04    0.91104E-03   -0.36468E-04  3718   0.103E-02    0.434E+00
RMM: 156    -0.231206971809E+04   -0.33551E-02   -0.30833E-04  3552   0.924E-03    0.445E+00
RMM: 157    -0.231206295027E+04    0.67678E-02   -0.95122E-04  3962   0.132E-02    0.420E+00
RMM: 158    -0.231205305906E+04    0.98912E-02   -0.61765E-03  4530   0.345E-02    0.404E+00
RMM: 159    -0.231205014387E+04    0.29152E-02   -0.10143E-03  4014   0.211E-02    0.404E+00
RMM: 160    -0.231201524155E+04    0.34902E-01   -0.41348E-02  4499   0.569E-02    0.167E+00
RMM: 161    -0.231186862150E+04    0.14662E+00   -0.23740E-01  4506   0.167E-01    0.141E+00
RMM: 162    -0.231170508223E+04    0.16354E+00   -0.64593E-02  4645   0.118E-01    0.165E+00
RMM: 163    -0.231156412314E+04    0.14096E+00   -0.36911E-02  4529   0.837E-02    0.180E+00
RMM: 164    -0.231151769568E+04    0.46427E-01   -0.60764E-03  4012   0.362E-02    0.185E+00
RMM: 165    -0.231153207100E+04   -0.14375E-01   -0.59161E-04  3419   0.103E-02    0.184E+00
RMM: 166    -0.231141396419E+04    0.11811E+00   -0.13334E-02  4164   0.494E-02    0.197E+00
RMM: 167    -0.231141467780E+04   -0.71361E-03   -0.37731E-04  3361   0.112E-02    0.197E+00
RMM: 168    -0.231141552327E+04   -0.84547E-03   -0.48501E-05  2865   0.318E-03    0.197E+00
RMM: 169    -0.231142639704E+04   -0.10874E-01   -0.14932E-04  2938   0.654E-03    0.196E+00
RMM: 170    -0.231141658417E+04    0.98129E-02   -0.10674E-04  2662   0.466E-03    0.197E+00
RMM: 171    -0.231122086564E+04    0.19572E+00   -0.25880E-02  4271   0.594E-02    0.218E+00
RMM: 172    -0.231122066677E+04    0.19887E-03   -0.87716E-04  3421   0.138E-02    0.219E+00
RMM: 173    -0.231121440677E+04    0.62600E-02   -0.10667E-04  3065   0.579E-03    0.220E+00
RMM: 174    -0.231120553223E+04    0.88745E-02   -0.12145E-04  2880   0.595E-03    0.221E+00
RMM: 175    -0.231128839464E+04   -0.82862E-01   -0.47403E-03  3661   0.258E-02    0.212E+00
RMM: 176    -0.231136168972E+04   -0.73295E-01   -0.55813E-03  4069   0.311E-02    0.202E+00
RMM: 177    -0.231147516408E+04   -0.11347E+00   -0.12136E-02  4174   0.466E-02    0.187E+00
RMM: 178    -0.231158732803E+04   -0.11216E+00   -0.15126E-02  4286   0.505E-02    0.170E+00
RMM: 179    -0.231171326785E+04   -0.12594E+00   -0.24119E-02  4358   0.643E-02    0.149E+00
RMM: 180    -0.231184913922E+04   -0.13587E+00   -0.36908E-02  4453   0.837E-02    0.119E+00
RMM: 181    -0.231192311505E+04   -0.73976E-01   -0.22469E-02  4447   0.693E-02    0.956E-01
RMM: 182    -0.231194614912E+04   -0.23034E-01   -0.53523E-03  4196   0.369E-02    0.865E-01
RMM: 183    -0.231194553795E+04    0.61117E-03   -0.52011E-04  3515   0.111E-02    0.865E-01
RMM: 184    -0.231194475073E+04    0.78722E-03   -0.38735E-05  2932   0.389E-03    0.869E-01
RMM: 185    -0.231194466667E+04    0.84054E-04   -0.11929E-05  2743   0.300E-03    0.879E-01
RMM: 186    -0.231178588411E+04    0.15878E+00   -0.68947E-02  4371   0.119E-01    0.131E+00
RMM: 187    -0.231176410595E+04    0.21778E-01   -0.36366E-03  3879   0.317E-02    0.134E+00
RMM: 188    -0.231174157105E+04    0.22535E-01   -0.12321E-03  3696   0.169E-02    0.139E+00
RMM: 189    -0.231178039763E+04   -0.38827E-01   -0.20322E-03  3588   0.187E-02    0.130E+00
RMM: 190    -0.231192594127E+04   -0.14554E+00   -0.48129E-02  4432   0.944E-02    0.856E-01
RMM: 191    -0.231201337651E+04   -0.87435E-01   -0.56458E-02  4523   0.115E-01    0.152E+00
RMM: 192    -0.231206576988E+04   -0.52393E-01   -0.34108E-02  4603   0.749E-02    0.475E+00
RMM: 193    -0.231214472096E+04   -0.78951E-01   -0.12316E-01  4692   0.143E-01    0.494E+00
RMM: 194    -0.231215283189E+04   -0.81109E-02   -0.17707E-02  4564   0.820E-02    0.473E+00
RMM: 195    -0.231215563888E+04   -0.28070E-02   -0.29605E-03  4478   0.205E-02    0.468E+00
RMM: 196    -0.231215178313E+04    0.38557E-02   -0.48602E-04  4221   0.168E-02    0.477E+00
RMM: 197    -0.231215316355E+04   -0.13804E-02   -0.38834E-05  2876   0.420E-03    0.475E+00
RMM: 198    -0.231215599851E+04   -0.28350E-02   -0.21539E-04  3482   0.591E-03    0.469E+00
RMM: 199    -0.231215595737E+04    0.41140E-04   -0.16866E-05  2747   0.377E-03    0.469E+00
RMM: 200    -0.231215843375E+04   -0.24764E-02   -0.11197E-04  3051   0.415E-03    0.465E+00
RMM: 201    -0.231220575259E+04   -0.47319E-01   -0.41786E-02  4556   0.778E-02    0.363E+00
RMM: 202    -0.231220095169E+04    0.48009E-02   -0.18324E-03  4043   0.381E-02    0.378E+00
RMM: 203    -0.231220127844E+04   -0.32675E-03   -0.18319E-04  3719   0.578E-03    0.378E+00
RMM: 204    -0.231220131150E+04   -0.33058E-04   -0.12060E-05  2733   0.313E-03    0.378E+00
RMM: 205    -0.231220215393E+04   -0.84242E-03   -0.68024E-05  2895   0.342E-03    0.375E+00
RMM: 206    -0.231218862402E+04    0.13530E-01   -0.25257E-03  4304   0.210E-02    0.399E+00
RMM: 207    -0.231220303360E+04   -0.14410E-01   -0.25690E-03  4619   0.208E-02    0.366E+00
RMM: 208    -0.231220346417E+04   -0.43057E-03   -0.16386E-04  3140   0.103E-02    0.368E+00
RMM: 209    -0.231220665950E+04   -0.31953E-02   -0.78957E-05  2974   0.441E-03    0.364E+00
RMM: 210    -0.231221595726E+04   -0.92978E-02   -0.99984E-04  4030   0.133E-02    0.346E+00
RMM: 211    -0.231219482066E+04    0.21137E-01   -0.10292E-02  4508   0.407E-02    0.402E+00
RMM: 212    -0.231220869885E+04   -0.13878E-01   -0.35073E-03  4788   0.283E-02    0.367E+00
RMM: 213    -0.231221651467E+04   -0.78158E-02   -0.10205E-03  4068   0.152E-02    0.351E+00
RMM: 214    -0.231223120106E+04   -0.14686E-01   -0.37504E-03  4533   0.254E-02    0.318E+00
RMM: 215    -0.231224010581E+04   -0.89047E-02   -0.19672E-03  4330   0.224E-02    0.296E+00
RMM: 216    -0.231218960043E+04    0.50505E-01   -0.67881E-02  4535   0.102E-01    0.444E+00
RMM: 217    -0.231221876455E+04   -0.29164E-01   -0.10348E-02  4848   0.552E-02    0.378E+00
RMM: 218    -0.231223035040E+04   -0.11586E-01   -0.54748E-03  4394   0.304E-02    0.343E+00
RMM: 219    -0.231223501541E+04   -0.46650E-02   -0.78697E-04  3923   0.175E-02    0.334E+00
RMM: 220    -0.231224525954E+04   -0.10244E-01   -0.37167E-03  4433   0.234E-02    0.303E+00
RMM: 221    -0.231223536502E+04    0.98945E-02   -0.11529E-02  4587   0.417E-02    0.360E+00
RMM: 222    -0.231224134024E+04   -0.59752E-02   -0.71671E-04  4069   0.220E-02    0.346E+00
RMM: 223    -0.231224301886E+04   -0.16786E-02   -0.16168E-04  3473   0.609E-03    0.341E+00
RMM: 224    -0.231224703234E+04   -0.40135E-02   -0.30973E-04  3498   0.839E-03    0.331E+00
RMM: 225    -0.231226761987E+04   -0.20588E-01   -0.13152E-02  4548   0.466E-02    0.263E+00
RMM: 226    -0.231227022450E+04   -0.26046E-02   -0.15548E-03  4168   0.271E-02    0.263E+00
RMM: 227    -0.231227751562E+04   -0.72911E-02   -0.78810E-03  4565   0.350E-02    0.213E+00
RMM: 228    -0.231228075232E+04   -0.32367E-02   -0.30318E-03  4449   0.319E-02    0.188E+00
RMM: 229    -0.231228212971E+04   -0.13774E-02   -0.14418E-03  4709   0.143E-02    0.178E+00
RMM: 230    -0.231228380999E+04   -0.16803E-02   -0.44092E-04  3858   0.108E-02    0.167E+00
RMM: 231    -0.231228911372E+04   -0.53037E-02   -0.42093E-03  4469   0.287E-02    0.127E+00
RMM: 232    -0.231229105887E+04   -0.19452E-02   -0.28626E-03  4460   0.283E-02    0.101E+00
RMM: 233    -0.231229162046E+04   -0.56159E-03   -0.92577E-04  4326   0.128E-02    0.931E-01
RMM: 234    -0.231229205495E+04   -0.43449E-03   -0.27928E-04  3620   0.842E-03    0.862E-01
RMM: 235    -0.231229258815E+04   -0.53320E-03   -0.82491E-04  4269   0.131E-02    0.711E-01
RMM: 236    -0.231229387255E+04   -0.12844E-02   -0.12411E-02  4592   0.470E-02    0.114E-01
RMM: 237    -0.231229383640E+04    0.36146E-04   -0.98511E-04  3888   0.250E-02    0.111E-01
RMM: 238    -0.231229384135E+04   -0.49473E-05   -0.17447E-04  3366   0.507E-03    0.107E-01
RMM: 239    -0.231229385971E+04   -0.18362E-04   -0.13051E-05  2703   0.431E-03    0.106E-01
RMM: 240    -0.231229387598E+04   -0.16266E-04   -0.49847E-06  2501   0.169E-03    0.107E-01
RMM: 241    -0.231229408459E+04   -0.20861E-03   -0.54991E-04  4010   0.101E-02    0.840E-02
RMM: 242    -0.231229403176E+04    0.52831E-04   -0.52592E-05  2985   0.726E-03    0.861E-02
RMM: 243    -0.231229404526E+04   -0.13502E-04   -0.59823E-05  2916   0.389E-03    0.916E-02
RMM: 244    -0.231229411032E+04   -0.65056E-04   -0.45276E-05  2858   0.418E-03    0.934E-02
RMM: 245    -0.231229416402E+04   -0.53699E-04   -0.44973E-05  2846   0.406E-03    0.921E-02
RMM: 246    -0.231229406917E+04    0.94845E-04   -0.43777E-05  2931   0.416E-03    0.832E-02
RMM: 247    -0.231229410453E+04   -0.35358E-04   -0.25271E-05  2758   0.367E-03    0.813E-02
RMM: 248    -0.231229410975E+04   -0.52184E-05   -0.88062E-06  2606   0.238E-03
   1 F= -.23323698E+04 E0= -.23323698E+04  d E =-.233237E+04  mag=    -0.0061
       N       E                     dE             d eps       ncg     rms          rms(c)
DAV:   1    -0.231206264758E+04    0.23146E+00   -0.39028E+01  4432   0.395E+00    0.184E+00
RMM:   2    -0.231263573664E+04   -0.57309E+00   -0.61087E+00  6383   0.119E+00    0.127E+00
RMM:   3    -0.231262229473E+04    0.13442E-01   -0.33654E-01  5593   0.314E-01    0.795E-01
RMM:   4    -0.231261737018E+04    0.49246E-02   -0.61807E-02  5036   0.838E-02    0.424E-01
RMM:   5    -0.231261516652E+04    0.22037E-02   -0.92813E-03  5018   0.610E-02    0.104E-01
RMM:   6    -0.231261502606E+04    0.14046E-03   -0.17428E-03  4963   0.256E-02    0.448E-02
RMM:   7    -0.231261496527E+04    0.60784E-04   -0.26522E-04  4277   0.121E-02    0.244E-02
RMM:   8    -0.231261493769E+04    0.27586E-04   -0.83280E-05  3777   0.707E-03    0.107E-02
RMM:   9    -0.231261493027E+04    0.74222E-05   -0.18092E-05  2873   0.493E-03
   2 F= -.23326931E+04 E0= -.23326931E+04  d E =-.323306E+00  mag=    -0.0007
       N       E                     dE             d eps       ncg     rms          rms(c)
DAV:   1    -0.231261416508E+04    0.77261E-03   -0.67391E-01  4752   0.537E-01    0.234E-01
RMM:   2    -0.231262352770E+04   -0.93626E-02   -0.10101E-01  6205   0.144E-01    0.145E-01
RMM:   3    -0.231262428443E+04   -0.75673E-03   -0.12739E-02  4872   0.601E-02    0.121E-01
RMM:   4    -0.231262429130E+04   -0.68657E-05   -0.13595E-03  3699   0.126E-02    0.791E-02
RMM:   5    -0.231262419152E+04    0.99773E-04   -0.21497E-04  3762   0.782E-03    0.264E-02
RMM:   6    -0.231262418463E+04    0.68886E-05   -0.33429E-05  2953   0.582E-03
   3 F= -.23327020E+04 E0= -.23327020E+04  d E =-.332250E+00  mag=    -0.0003
       N       E                     dE             d eps       ncg     rms          rms(c)
DAV:   1    -0.231271894686E+04   -0.94755E-01   -0.86894E+00  4416   0.198E+00    0.867E-01
RMM:   2    -0.231275689767E+04   -0.37951E-01   -0.55895E-01  5986   0.410E-01    0.379E-01
RMM:   3    -0.231275969670E+04   -0.27990E-02   -0.57869E-02  5386   0.129E-01    0.272E-01
RMM:   4    -0.231275967759E+04    0.19115E-04   -0.82431E-03  5443   0.385E-02    0.190E-01
RMM:   5    -0.231275920217E+04    0.47542E-03   -0.23529E-03  5112   0.255E-02    0.519E-02
RMM:   6    -0.231275912159E+04    0.80580E-04   -0.22409E-04  3497   0.101E-02    0.245E-02
RMM:   7    -0.231275911920E+04    0.23922E-05   -0.68941E-05  3149   0.538E-03
   4 F= -.23328361E+04 E0= -.23328361E+04  d E =-.134091E+00  mag=    -0.0001
       N       E                     dE             d eps       ncg     rms          rms(c)
DAV:   1    -0.231276143179E+04   -0.23102E-02   -0.12321E+01  4376   0.237E+00    0.102E+00
RMM:   2    -0.231281570868E+04   -0.54277E-01   -0.80230E-01  5917   0.501E-01    0.459E-01
RMM:   3    -0.231281998649E+04   -0.42778E-02   -0.84935E-02  5410   0.161E-01    0.336E-01
RMM:   4    -0.231281993777E+04    0.48727E-04   -0.12232E-02  5461   0.474E-02    0.235E-01
RMM:   5    -0.231281918841E+04    0.74936E-03   -0.37337E-03  5122   0.315E-02    0.611E-02
RMM:   6    -0.231281906928E+04    0.11913E-03   -0.31839E-04  3772   0.132E-02    0.305E-02
RMM:   7    -0.231281906657E+04    0.27091E-05   -0.13063E-04  3433   0.649E-03    0.123E-02
RMM:   8    -0.231281906263E+04    0.39385E-05   -0.16269E-05  2869   0.472E-03
   5 F= -.23328952E+04 E0= -.23328952E+04  d E =-.193154E+00  mag=    -0.0000
       N       E                     dE             d eps       ncg     rms          rms(c)
DAV:   1    -0.231284116557E+04   -0.22099E-01   -0.11600E+01  4376   0.244E+00    0.105E+00
RMM:   2    -0.231289264496E+04   -0.51479E-01   -0.74186E-01  5772   0.529E-01    0.627E-01
RMM:   3    -0.231289103217E+04    0.16128E-02   -0.69438E-02  5763   0.156E-01    0.368E-01
RMM:   4    -0.231288917117E+04    0.18610E-02   -0.99360E-03  5125   0.444E-02    0.194E-01
RMM:   5    -0.231288865949E+04    0.51168E-03   -0.25593E-03  5087   0.344E-02    0.423E-02
RMM:   6    -0.231288857092E+04    0.88577E-04   -0.21204E-04  4944   0.119E-02    0.236E-02
RMM:   7    -0.231288854463E+04    0.26283E-04   -0.93674E-05  3581   0.669E-03    0.992E-03
RMM:   8    -0.231288853753E+04    0.71071E-05   -0.14085E-05  2829   0.471E-03
   6 F= -.23329644E+04 E0= -.23329644E+04  d E =-.692551E-01  mag=    -0.0000
       N       E                     dE             d eps       ncg     rms          rms(c)
DAV:   1    -0.231288860810E+04   -0.63466E-04   -0.55662E-02  5152   0.168E-01    0.720E-02
RMM:   2    -0.231288887240E+04   -0.26430E-03   -0.37050E-03  5807   0.374E-02    0.476E-02
RMM:   3    -0.231288885174E+04    0.20651E-04   -0.27323E-04  3435   0.107E-02    0.275E-02
RMM:   4    -0.231288884121E+04    0.10536E-04   -0.47612E-05  2936   0.421E-03    0.144E-02
RMM:   5    -0.231288883792E+04    0.32899E-05   -0.16277E-05  2825   0.359E-03
   7 F= -.23329647E+04 E0= -.23329647E+04  d E =-.695451E-01  mag=    -0.0000
       N       E                     dE             d eps       ncg     rms          rms(c)
DAV:   1    -0.231288048046E+04    0.83607E-02   -0.25200E+00  4432   0.134E+00    0.598E-01
RMM:   2    -0.231291163464E+04   -0.31154E-01   -0.35300E-01  6174   0.350E-01    0.371E-01
RMM:   3    -0.231291151405E+04    0.12059E-03   -0.30028E-02  5846   0.875E-02    0.203E-01
RMM:   4    -0.231291100128E+04    0.51277E-03   -0.37847E-03  4830   0.251E-02    0.108E-01
RMM:   5    -0.231291075282E+04    0.24846E-03   -0.58414E-04  5055   0.192E-02    0.297E-02
RMM:   6    -0.231291071374E+04    0.39080E-04   -0.10404E-04  4241   0.852E-03    0.116E-02
RMM:   7    -0.231291069987E+04    0.13871E-04   -0.24336E-05  3010   0.570E-03    0.542E-03
RMM:   8    -0.231291069440E+04    0.54727E-05   -0.13547E-05  2812   0.386E-03
   8 F= -.23329863E+04 E0= -.23329863E+04  d E =-.215877E-01  mag=    -0.0000
       N       E                     dE             d eps       ncg     rms          rms(c)
DAV:   1    -0.231290841411E+04    0.22858E-02   -0.32571E-01  4656   0.481E-01    0.215E-01
RMM:   2    -0.231291253448E+04   -0.41204E-02   -0.46387E-02  6228   0.128E-01    0.143E-01
RMM:   3    -0.231291242587E+04    0.10861E-03   -0.40307E-03  5088   0.331E-02    0.710E-02
RMM:   4    -0.231291236068E+04    0.65189E-04   -0.49978E-04  3959   0.961E-03    0.382E-02
RMM:   5    -0.231291232779E+04    0.32886E-04   -0.75610E-05  3597   0.809E-03    0.123E-02
RMM:   6    -0.231291232165E+04    0.61411E-05   -0.22429E-05  2880   0.507E-03
   9 F= -.23329878E+04 E0= -.23329878E+04  d E =-.231114E-01  mag=    -0.0000
       N       E                     dE             d eps       ncg     rms          rms(c)
DAV:   1    -0.231292486641E+04   -0.12539E-01   -0.10132E+00  4432   0.823E-01    0.290E-01
RMM:   2    -0.231292991270E+04   -0.50463E-02   -0.58949E-02  6013   0.174E-01    0.198E-01
RMM:   3    -0.231292960548E+04    0.30722E-03   -0.49072E-03  5602   0.453E-02    0.113E-01
RMM:   4    -0.231292945945E+04    0.14603E-03   -0.81168E-04  4577   0.145E-02    0.531E-02
RMM:   5    -0.231292943610E+04    0.23351E-04   -0.11352E-04  3504   0.101E-02    0.152E-02
RMM:   6    -0.231292943435E+04    0.17524E-05   -0.22731E-05  2870   0.512E-03
  10 F= -.23330052E+04 E0= -.23330052E+04  d E =-.173332E-01  mag=    -0.0000
       N       E                     dE             d eps       ncg     rms          rms(c)
DAV:   1    -0.231292296907E+04    0.64670E-02   -0.45036E+00  4376   0.174E+00    0.607E-01
RMM:   2    -0.231294503707E+04   -0.22068E-01   -0.25890E-01  5949   0.365E-01    0.399E-01
RMM:   3    -0.231294404660E+04    0.99048E-03   -0.22643E-02  5833   0.983E-02    0.232E-01
RMM:   4    -0.231294338366E+04    0.66294E-03   -0.34000E-03  4911   0.304E-02    0.110E-01
RMM:   5    -0.231294329238E+04    0.91275E-04   -0.51907E-04  4639   0.202E-02    0.318E-02
RMM:   6    -0.231294327722E+04    0.15165E-04   -0.89791E-05  3555   0.730E-03    0.101E-02
RMM:   7    -0.231294327523E+04    0.19827E-05   -0.13854E-05  2861   0.516E-03
  11 F= -.23330195E+04 E0= -.23330195E+04  d E =-.316534E-01  mag=    -0.0000
       N       E                     dE             d eps       ncg     rms          rms(c)
DAV:   1    -0.231295331723E+04   -0.10040E-01   -0.15980E+00  4388   0.109E+00    0.318E-01
RMM:   2    -0.231296314310E+04   -0.98259E-02   -0.10753E-01  6140   0.215E-01    0.186E-01
RMM:   3    -0.231296323167E+04   -0.88574E-04   -0.72143E-03  5510   0.553E-02    0.120E-01
RMM:   4    -0.231296314746E+04    0.84211E-04   -0.12793E-03  4640   0.169E-02    0.680E-02
RMM:   5    -0.231296309128E+04    0.56185E-04   -0.25940E-04  4250   0.125E-02    0.212E-02
RMM:   6    -0.231296308322E+04    0.80559E-05   -0.31107E-05  2864   0.506E-03
  12 F= -.23330391E+04 E0= -.23330391E+04  d E =-.196125E-01  mag=    -0.0000
       N       E                     dE             d eps       ncg     rms          rms(c)
DAV:   1    -0.231292569638E+04    0.37395E-01   -0.91941E+00  4376   0.261E+00    0.761E-01
RMM:   2    -0.231298327335E+04   -0.57577E-01   -0.62979E-01  6139   0.507E-01    0.459E-01
RMM:   3    -0.231298354376E+04   -0.27041E-03   -0.36550E-02  5646   0.129E-01    0.327E-01
RMM:   4    -0.231298262036E+04    0.92339E-03   -0.62671E-03  5416   0.407E-02    0.195E-01
RMM:   5    -0.231298221120E+04    0.40916E-03   -0.18224E-03  5070   0.282E-02    0.417E-02
RMM:   6    -0.231298218088E+04    0.30328E-04   -0.18319E-04  4019   0.120E-02    0.152E-02
RMM:   7    -0.231298217638E+04    0.44940E-05   -0.23683E-05  2933   0.469E-03
  13 F= -.23330578E+04 E0= -.23330578E+04  d E =-.382634E-01  mag=    -0.0000
       N       E                     dE             d eps       ncg     rms          rms(c)
DAV:   1    -0.231299312138E+04   -0.10941E-01   -0.61548E-01  4656   0.649E-01    0.180E-01
RMM:   2    -0.231299608808E+04   -0.29667E-02   -0.33119E-02  5977   0.113E-01    0.107E-01
RMM:   3    -0.231299615658E+04   -0.68498E-04   -0.25145E-03  4885   0.329E-02    0.681E-02
RMM:   4    -0.231299614644E+04    0.10137E-04   -0.41263E-04  4129   0.112E-02    0.353E-02
RMM:   5    -0.231299613641E+04    0.10035E-04   -0.72513E-05  2966   0.763E-03    0.172E-02
RMM:   6    -0.231299613216E+04    0.42466E-05   -0.12083E-05  2814   0.398E-03
  14 F= -.23330717E+04 E0= -.23330717E+04  d E =-.139026E-01  mag=    -0.0000
       N       E                     dE             d eps       ncg     rms          rms(c)
DAV:   1    -0.231299905237E+04   -0.29160E-02   -0.55313E+00  4376   0.194E+00    0.539E-01
RMM:   2    -0.231302595151E+04   -0.26899E-01   -0.30000E-01  5988   0.337E-01    0.319E-01
RMM:   3    -0.231302645378E+04   -0.50227E-03   -0.21724E-02  5416   0.960E-02    0.204E-01
RMM:   4    -0.231302637232E+04    0.81453E-04   -0.37676E-03  4977   0.316E-02    0.112E-01
RMM:   5    -0.231302624125E+04    0.13107E-03   -0.70182E-04  4600   0.209E-02    0.467E-02
RMM:   6    -0.231302620318E+04    0.38068E-04   -0.10148E-04  3153   0.650E-03    0.149E-02
RMM:   7    -0.231302620017E+04    0.30189E-05   -0.22408E-05  2872   0.451E-03
  15 F= -.23331016E+04 E0= -.23331016E+04  d E =-.438554E-01  mag=    -0.0000
       N       E                     dE             d eps       ncg     rms          rms(c)
DAV:   1    -0.231292115164E+04    0.10505E+00   -0.22056E+01  4376   0.387E+00    0.107E+00
RMM:   2    -0.231303002438E+04   -0.10887E+00   -0.12120E+00  5963   0.678E-01    0.647E-01
RMM:   3    -0.231303238638E+04   -0.23620E-02   -0.86725E-02  5470   0.197E-01    0.422E-01
RMM:   4    -0.231303220902E+04    0.17736E-03   -0.15570E-02  5422   0.639E-02    0.296E-01
RMM:   5    -0.231303111032E+04    0.10987E-02   -0.39381E-03  5292   0.425E-02    0.791E-02
RMM:   6    -0.231303099964E+04    0.11068E-03   -0.44000E-04  4659   0.126E-02    0.310E-02
RMM:   7    -0.231303097890E+04    0.20741E-04   -0.94568E-05  3470   0.818E-03    0.107E-02
RMM:   8    -0.231303097357E+04    0.53266E-05   -0.17925E-05  2860   0.456E-03
  16 F= -.23331064E+04 E0= -.23331064E+04  d E =-.486159E-01  mag=    -0.0000
       N       E                     dE             d eps       ncg     rms          rms(c)
DAV:   1    -0.231301651003E+04    0.14469E-01   -0.44327E+00  4376   0.174E+00    0.482E-01
RMM:   2    -0.231303785046E+04   -0.21340E-01   -0.23730E-01  5942   0.304E-01    0.289E-01
RMM:   3    -0.231303848261E+04   -0.63214E-03   -0.20153E-02  5368   0.901E-02    0.184E-01
RMM:   4    -0.231303836028E+04    0.12232E-03   -0.31066E-03  4675   0.270E-02    0.717E-02
RMM:   5    -0.231303832215E+04    0.38134E-04   -0.28643E-04  4159   0.156E-02    0.303E-02
RMM:   6    -0.231303831245E+04    0.96950E-05   -0.71703E-05  3057   0.698E-03
  17 F= -.23331137E+04 E0= -.23331137E+04  d E =-.559229E-01  mag=    -0.0000
       N       E                     dE             d eps       ncg     rms          rms(c)
DAV:   1    -0.231305166554E+04   -0.13343E-01   -0.55881E-01  4432   0.637E-01    0.216E-01
RMM:   2    -0.231305431418E+04   -0.26486E-02   -0.31833E-02  5942   0.116E-01    0.122E-01
RMM:   3    -0.231305420624E+04    0.10794E-03   -0.21986E-03  4774   0.363E-02    0.697E-02
RMM:   4    -0.231305422035E+04   -0.14113E-04   -0.64590E-04  4630   0.150E-02    0.550E-02
RMM:   5    -0.231305415829E+04    0.62057E-04   -0.11242E-04  3345   0.914E-03    0.155E-02
RMM:   6    -0.231305415156E+04    0.67352E-05   -0.30114E-05  2938   0.409E-03
  18 F= -.23331293E+04 E0= -.23331293E+04  d E =-.155760E-01  mag=    -0.0000
       N       E                     dE             d eps       ncg     rms          rms(c)
DAV:   1    -0.231305699712E+04   -0.28388E-02   -0.24009E+00  4376   0.132E+00    0.450E-01
RMM:   2    -0.231306849745E+04   -0.11500E-01   -0.13769E-01  5862   0.237E-01    0.255E-01
RMM:   3    -0.231306806038E+04    0.43707E-03   -0.93942E-03  4961   0.743E-02    0.149E-01
RMM:   4    -0.231306814996E+04   -0.89582E-04   -0.29218E-03  5197   0.302E-02    0.123E-01
RMM:   5    -0.231306784903E+04    0.30093E-03   -0.48834E-04  4755   0.180E-02    0.326E-02
RMM:   6    -0.231306782472E+04    0.24312E-04   -0.15463E-04  3795   0.649E-03    0.125E-02
RMM:   7    -0.231306781749E+04    0.72229E-05   -0.13852E-05  2860   0.497E-03
  19 F= -.23331424E+04 E0= -.23331424E+04  d E =-.287214E-01  mag=    -0.0000
       N       E                     dE             d eps       ncg     rms          rms(c)
DAV:   1    -0.231307335804E+04   -0.55333E-02   -0.53407E-01  4560   0.692E-01    0.250E-01
RMM:   2    -0.231307693266E+04   -0.35746E-02   -0.40632E-02  6050   0.140E-01    0.134E-01
RMM:   3    -0.231307683321E+04    0.99452E-04   -0.30448E-03  5355   0.401E-02    0.815E-02
RMM:   4    -0.231307674647E+04    0.86738E-04   -0.50096E-04  4429   0.127E-02    0.440E-02
RMM:   5    -0.231307672067E+04    0.25802E-04   -0.11516E-04  3994   0.105E-02    0.143E-02
RMM:   6    -0.231307671525E+04    0.54169E-05   -0.19416E-05  2831   0.460E-03
  20 F= -.23331514E+04 E0= -.23331514E+04  d E =-.901393E-02  mag=    -0.0000
       N       E                     dE             d eps       ncg     rms          rms(c)
DAV:   1    -0.231307505377E+04    0.16669E-02   -0.86935E-01  4400   0.881E-01    0.319E-01
RMM:   2    -0.231308091440E+04   -0.58606E-02   -0.66727E-02  6015   0.179E-01    0.172E-01
RMM:   3    -0.231308073161E+04    0.18278E-03   -0.50334E-03  5501   0.500E-02    0.104E-01
RMM:   4    -0.231308058809E+04    0.14353E-03   -0.88275E-04  4625   0.159E-02    0.553E-02
RMM:   5    -0.231308053082E+04    0.57270E-04   -0.18787E-04  4333   0.126E-02    0.173E-02
RMM:   6    -0.231308051783E+04    0.12988E-04   -0.30429E-05  3022   0.541E-03    0.826E-03
RMM:   7    -0.231308051309E+04    0.47418E-05   -0.12259E-05  2822   0.427E-03
  21 F= -.23331554E+04 E0= -.23331554E+04  d E =-.129651E-01  mag=    -0.0000
       N       E                     dE             d eps       ncg     rms          rms(c)
DAV:   1    -0.231308506131E+04   -0.45435E-02   -0.85712E-01  4400   0.865E-01    0.259E-01
RMM:   2    -0.231308800415E+04   -0.29428E-02   -0.35279E-02  5683   0.151E-01    0.145E-01
RMM:   3    -0.231308784098E+04    0.16317E-03   -0.25660E-03  5202   0.452E-02    0.101E-01
RMM:   4    -0.231308769559E+04    0.14538E-03   -0.52496E-04  4732   0.150E-02    0.554E-02
RMM:   5    -0.231308765325E+04    0.42347E-04   -0.17973E-04  4154   0.117E-02    0.127E-02
RMM:   6    -0.231308764802E+04    0.52237E-05   -0.22210E-05  2861   0.545E-03
  22 F= -.23331626E+04 E0= -.23331626E+04  d E =-.718828E-02  mag=    -0.0000
       N       E                     dE             d eps       ncg     rms          rms(c)
DAV:   1    -0.231308778562E+04   -0.13237E-03   -0.31962E-01  4464   0.528E-01    0.158E-01
RMM:   2    -0.231308888808E+04   -0.11025E-02   -0.13266E-02  5703   0.929E-02    0.902E-02
RMM:   3    -0.231308882187E+04    0.66212E-04   -0.93555E-04  4766   0.267E-02    0.625E-02
RMM:   4    -0.231308876346E+04    0.58401E-04   -0.19481E-04  4165   0.965E-03    0.341E-02
RMM:   5    -0.231308874569E+04    0.17778E-04   -0.72403E-05  3447   0.778E-03    0.779E-03
RMM:   6    -0.231308874299E+04    0.26984E-05   -0.11143E-05  2826   0.476E-03
  23 F= -.23331637E+04 E0= -.23331637E+04  d E =-.831873E-02  mag=    -0.0000
       N       E                     dE             d eps       ncg     rms          rms(c)
DAV:   1    -0.231309272788E+04   -0.39822E-02   -0.60278E-01  4400   0.751E-01    0.203E-01
RMM:   2    -0.231309388895E+04   -0.11611E-02   -0.14281E-02  4879   0.117E-01    0.109E-01
RMM:   3    -0.231309375659E+04    0.13236E-03   -0.11610E-03  5227   0.415E-02    0.783E-02
RMM:   4    -0.231309367046E+04    0.86134E-04   -0.26949E-04  4538   0.124E-02    0.430E-02
RMM:   5    -0.231309364882E+04    0.21638E-04   -0.10077E-04  3877   0.989E-03    0.908E-03
RMM:   6    -0.231309364744E+04    0.13823E-05   -0.12213E-05  2836   0.507E-03
  24 F= -.23331687E+04 E0= -.23331687E+04  d E =-.502848E-02  mag=    -0.0000
       N       E                     dE             d eps       ncg     rms          rms(c)
DAV:   1    -0.231309396856E+04   -0.31974E-03   -0.47409E-01  4464   0.666E-01    0.181E-01
RMM:   2    -0.231309488686E+04   -0.91831E-03   -0.11302E-02  4844   0.104E-01    0.970E-02
RMM:   3    -0.231309478004E+04    0.10682E-03   -0.91451E-04  5117   0.366E-02    0.693E-02
RMM:   4    -0.231309471324E+04    0.66797E-04   -0.21563E-04  4392   0.111E-02    0.381E-02
RMM:   5    -0.231309469589E+04    0.17354E-04   -0.79164E-05  3660   0.886E-03    0.814E-03
RMM:   6    -0.231309469488E+04    0.10075E-05   -0.10580E-05  2825   0.494E-03
  25 F= -.23331699E+04 E0= -.23331699E+04  d E =-.618790E-02  mag=    -0.0000
       N       E                     dE             d eps       ncg     rms          rms(c)
DAV:   1    -0.231309425644E+04    0.43945E-03   -0.60026E-01  4388   0.778E-01    0.220E-01
RMM:   2    -0.231309827284E+04   -0.40164E-02   -0.44180E-02  6011   0.150E-01    0.135E-01
RMM:   3    -0.231309816261E+04    0.11023E-03   -0.27625E-03  5108   0.420E-02    0.881E-02
RMM:   4    -0.231309806909E+04    0.93514E-04   -0.41325E-04  4318   0.117E-02    0.481E-02
RMM:   5    -0.231309803429E+04    0.34800E-04   -0.12457E-04  4110   0.101E-02    0.105E-02
RMM:   6    -0.231309803183E+04    0.24614E-05   -0.16682E-05  2845   0.526E-03
  26 F= -.23331731E+04 E0= -.23331731E+04  d E =-.325172E-02  mag=     0.0000
       N       E                     dE             d eps       ncg     rms          rms(c)
DAV:   1    -0.231309789771E+04    0.13658E-03   -0.39446E-02  4896   0.200E-01    0.569E-02
RMM:   2    -0.231309816732E+04   -0.26961E-03   -0.29595E-03  6115   0.399E-02    0.347E-02
RMM:   3    -0.231309815638E+04    0.10944E-04   -0.17210E-04  3140   0.104E-02    0.220E-02
RMM:   4    -0.231309815003E+04    0.63488E-05   -0.26471E-05  2844   0.419E-03
  27 F= -.23331732E+04 E0= -.23331732E+04  d E =-.334829E-02  mag=    -0.0000
       N       E                     dE             d eps       ncg     rms          rms(c)
DAV:   1    -0.231309930526E+04   -0.11489E-02   -0.13675E-01  4400   0.384E-01    0.108E-01
RMM:   2    -0.231309964719E+04   -0.34194E-03   -0.41294E-03  5258   0.595E-02    0.470E-02
RMM:   3    -0.231309961012E+04    0.37069E-04   -0.25781E-04  4366   0.232E-02    0.282E-02
RMM:   4    -0.231309960323E+04    0.68991E-05   -0.10041E-04  3980   0.845E-03    0.169E-02
RMM:   5    -0.231309959777E+04    0.54585E-05   -0.14952E-05  2830   0.598E-03
  28 F= -.23331747E+04 E0= -.23331747E+04  d E =-.152367E-02  mag=    -0.0000
       N       E                     dE             d eps       ncg     rms          rms(c)
DAV:   1    -0.231309971614E+04   -0.11291E-03   -0.14470E-01  4432   0.395E-01    0.111E-01
RMM:   2    -0.231310008929E+04   -0.37315E-03   -0.44777E-03  5184   0.617E-02    0.490E-02
RMM:   3    -0.231310004700E+04    0.42292E-04   -0.26407E-04  4410   0.231E-02    0.298E-02
RMM:   4    -0.231310003915E+04    0.78455E-05   -0.11139E-04  4008   0.889E-03    0.188E-02
RMM:   5    -0.231310003211E+04    0.70455E-05   -0.16399E-05  2838   0.581E-03
  29 F= -.23331753E+04 E0= -.23331753E+04  d E =-.203591E-02  mag=    -0.0000
       N       E                     dE             d eps       ncg     rms          rms(c)
DAV:   1    -0.231310106678E+04   -0.10276E-02   -0.16304E-01  4400   0.413E-01    0.971E-02
RMM:   2    -0.231310149081E+04   -0.42403E-03   -0.49400E-03  5169   0.634E-02    0.488E-02
RMM:   3    -0.231310145889E+04    0.31921E-04   -0.33853E-04  4322   0.231E-02    0.325E-02
RMM:   4    -0.231310144595E+04    0.12939E-04   -0.66029E-05  3408   0.688E-03    0.212E-02
RMM:   5    -0.231310143855E+04    0.74060E-05   -0.30502E-05  2928   0.594E-03
  30 F= -.23331767E+04 E0= -.23331767E+04  d E =-.140908E-02  mag=    -0.0000
       N       E                     dE             d eps       ncg     rms          rms(c)
DAV:   1    -0.231310086875E+04    0.57720E-03   -0.61960E-01  4376   0.806E-01    0.189E-01
RMM:   2    -0.231310248249E+04   -0.16137E-02   -0.18780E-02  5280   0.124E-01    0.939E-02
RMM:   3    -0.231310235967E+04    0.12283E-03   -0.12534E-03  4904   0.465E-02    0.622E-02
RMM:   4    -0.231310231165E+04    0.48019E-04   -0.24763E-04  4479   0.126E-02    0.406E-02
RMM:   5    -0.231310228271E+04    0.28940E-04   -0.11255E-04  4014   0.106E-02    0.107E-02
RMM:   6    -0.231310228001E+04    0.26969E-05   -0.13737E-05  2814   0.466E-03
  31 F= -.23331775E+04 E0= -.23331775E+04  d E =-.225593E-02  mag=    -0.0000
       N       E                     dE             d eps       ncg     rms          rms(c)
DAV:   1    -0.231310292343E+04   -0.64072E-03   -0.23695E-01  4432   0.502E-01    0.110E-01
RMM:   2    -0.231310351956E+04   -0.59613E-03   -0.68826E-03  5264   0.755E-02    0.543E-02
RMM:   3    -0.231310347476E+04    0.44804E-04   -0.39943E-04  4450   0.283E-02    0.347E-02
RMM:   4    -0.231310346556E+04    0.91954E-05   -0.11103E-04  3993   0.879E-03    0.252E-02
RMM:   5    -0.231310345390E+04    0.11665E-04   -0.30978E-05  2888   0.694E-03    0.557E-03
RMM:   6    -0.231310345350E+04    0.39737E-06   -0.62307E-06  2806   0.328E-03
  32 F= -.23331786E+04 E0= -.23331786E+04  d E =-.110470E-02  mag=     0.0000
       N       E                     dE             d eps       ncg     rms          rms(c)
DAV:   1    -0.231310334283E+04    0.11106E-03   -0.22590E-01  4388   0.490E-01    0.108E-01
RMM:   2    -0.231310391125E+04   -0.56841E-03   -0.65794E-03  5206   0.736E-02    0.532E-02
RMM:   3    -0.231310386453E+04    0.46716E-04   -0.38389E-04  4493   0.280E-02    0.340E-02
RMM:   4    -0.231310385452E+04    0.10013E-04   -0.10702E-04  4008   0.857E-03    0.247E-02
RMM:   5    -0.231310384277E+04    0.11743E-04   -0.29698E-05  2888   0.680E-03    0.557E-03
RMM:   6    -0.231310384213E+04    0.64066E-06   -0.63295E-06  2802   0.314E-03
  33 F= -.23331789E+04 E0= -.23331789E+04  d E =-.142632E-02  mag=    -0.0000
       N       E                     dE             d eps       ncg     rms          rms(c)
DAV:   1    -0.231310456279E+04   -0.72001E-03   -0.12426E-01  4512   0.377E-01    0.108E-01
RMM:   2    -0.231310494780E+04   -0.38501E-03   -0.44554E-03  5574   0.628E-02    0.502E-02
RMM:   3    -0.231310490800E+04    0.39800E-04   -0.23946E-04  4359   0.213E-02    0.344E-02
RMM:   4    -0.231310489229E+04    0.15708E-04   -0.54256E-05  3317   0.684E-03    0.211E-02
RMM:   5    -0.231310488522E+04    0.70747E-05   -0.27199E-05  2943   0.604E-03
  34 F= -.23331799E+04 E0= -.23331799E+04  d E =-.976764E-03  mag=    -0.0000
       N       E                     dE             d eps       ncg     rms          rms(c)
DAV:   1    -0.231310491974E+04   -0.27447E-04   -0.87597E-02  4432   0.317E-01    0.908E-02
RMM:   2    -0.231310519718E+04   -0.27744E-03   -0.31883E-03  5687   0.538E-02    0.421E-02
RMM:   3    -0.231310516901E+04    0.28169E-04   -0.17749E-04  4154   0.193E-02    0.287E-02
RMM:   4    -0.231310515857E+04    0.10446E-04   -0.37622E-05  3027   0.611E-03    0.181E-02
RMM:   5    -0.231310515309E+04    0.54734E-05   -0.21362E-05  2842   0.537E-03
  35 F= -.23331801E+04 E0= -.23331801E+04  d E =-.118865E-02  mag=    -0.0000
       N       E                     dE             d eps       ncg     rms          rms(c)
DAV:   1    -0.231310557496E+04   -0.41640E-03   -0.12893E-01  4400   0.381E-01    0.968E-02
RMM:   2    -0.231310622879E+04   -0.65383E-03   -0.71044E-03  6069   0.694E-02    0.597E-02
RMM:   3    -0.231310618519E+04    0.43606E-04   -0.40401E-04  3998   0.203E-02    0.362E-02
RMM:   4    -0.231310616518E+04    0.20005E-04   -0.54500E-05  3033   0.645E-03    0.199E-02
RMM:   5    -0.231310615960E+04    0.55851E-05   -0.34623E-05  3135   0.585E-03
  36 F= -.23331810E+04 E0= -.23331810E+04  d E =-.883491E-03  mag=    -0.0000
       N       E                     dE             d eps       ncg     rms          rms(c)
DAV:   1    -0.231310497995E+04    0.11852E-02   -0.45265E-01  4376   0.714E-01    0.181E-01
RMM:   2    -0.231310720931E+04   -0.22294E-02   -0.24287E-02  5934   0.128E-01    0.106E-01
RMM:   3    -0.231310709478E+04    0.11452E-03   -0.17798E-03  4976   0.409E-02    0.632E-02
RMM:   4    -0.231310703712E+04    0.57662E-04   -0.23933E-04  4259   0.105E-02    0.353E-02
RMM:   5    -0.231310701689E+04    0.20236E-04   -0.87987E-05  3895   0.948E-03    0.687E-03
RMM:   6    -0.231310701612E+04    0.77064E-06   -0.10509E-05  2828   0.488E-03
  37 F= -.23331816E+04 E0= -.23331816E+04  d E =-.150969E-02  mag=     0.0000
       N       E                     dE             d eps       ncg     rms          rms(c)
DAV:   1    -0.231310764749E+04   -0.63061E-03   -0.10071E-01  4416   0.325E-01    0.775E-02
RMM:   2    -0.231310790673E+04   -0.25924E-03   -0.29039E-03  5438   0.525E-02    0.457E-02
RMM:   3    -0.231310787358E+04    0.33151E-04   -0.19047E-04  4304   0.175E-02    0.313E-02
RMM:   4    -0.231310785909E+04    0.14489E-04   -0.30359E-05  2975   0.563E-03    0.173E-02
RMM:   5    -0.231310785580E+04    0.32941E-05   -0.22755E-05  2907   0.494E-03
  38 F= -.23331824E+04 E0= -.23331824E+04  d E =-.802275E-03  mag=     0.0000
       N       E                     dE             d eps       ncg     rms          rms(c)
DAV:   1    -0.231310763884E+04    0.22025E-03   -0.41572E-01  4360   0.660E-01    0.157E-01
RMM:   2    -0.231310867681E+04   -0.10380E-02   -0.11717E-02  5365   0.106E-01    0.911E-02
RMM:   3    -0.231310855842E+04    0.11839E-03   -0.80884E-04  5188   0.380E-02    0.627E-02
RMM:   4    -0.231310850085E+04    0.57573E-04   -0.13382E-04  4197   0.101E-02    0.351E-02
RMM:   5    -0.231310848487E+04    0.15981E-04   -0.84451E-05  3841   0.910E-03    0.633E-03
RMM:   6    -0.231310848393E+04    0.94145E-06   -0.82407E-06  2812   0.505E-03
  39 F= -.23331830E+04 E0= -.23331830E+04  d E =-.135520E-02  mag=    -0.0000
       N       E                     dE             d eps       ncg     rms          rms(c)
DAV:   1    -0.231310884594E+04   -0.36107E-03   -0.12576E-01  4432   0.372E-01    0.934E-02
RMM:   2    -0.231310932063E+04   -0.47469E-03   -0.52551E-03  5622   0.621E-02    0.479E-02
RMM:   3    -0.231310929264E+04    0.27998E-04   -0.33242E-04  4002   0.206E-02    0.310E-02
RMM:   4    -0.231310928121E+04    0.11428E-04   -0.56820E-05  3194   0.659E-03    0.188E-02
RMM:   5    -0.231310927623E+04    0.49807E-05   -0.26837E-05  2901   0.576E-03
  40 F= -.23331837E+04 E0= -.23331837E+04  d E =-.715891E-03  mag=    -0.0000
       N       E                     dE             d eps       ncg     rms          rms(c)
DAV:   1    -0.231310862985E+04    0.65136E-03   -0.29678E-01  4376   0.572E-01    0.144E-01
RMM:   2    -0.231310977248E+04   -0.11426E-02   -0.12627E-02  5722   0.965E-02    0.758E-02
RMM:   3    -0.231310970559E+04    0.66895E-04   -0.70264E-04  4705   0.329E-02    0.513E-02
RMM:   4    -0.231310967236E+04    0.33227E-04   -0.11503E-04  3810   0.907E-03    0.312E-02
RMM:   5    -0.231310965879E+04    0.13570E-04   -0.70723E-05  3579   0.829E-03    0.637E-03
RMM:   6    -0.231310965848E+04    0.31361E-06   -0.94656E-06  2812   0.479E-03
  41 F= -.23331840E+04 E0= -.23331840E+04  d E =-.979870E-03  mag=     0.0000
       N       E                     dE             d eps       ncg     rms          rms(c)
DAV:   1    -0.231311017183E+04   -0.51304E-03   -0.15076E-01  4400   0.402E-01    0.955E-02
RMM:   2    -0.231311056974E+04   -0.39791E-03   -0.45311E-03  5250   0.614E-02    0.475E-02
RMM:   3    -0.231311053414E+04    0.35599E-04   -0.23316E-04  4177   0.230E-02    0.319E-02
RMM:   4    -0.231311052604E+04    0.81012E-05   -0.57806E-05  3378   0.681E-03
  42 F= -.23331848E+04 E0= -.23331848E+04  d E =-.804385E-03  mag=     0.0000
       N       E                     dE             d eps       ncg     rms          rms(c)
DAV:   1    -0.231311012341E+04    0.41073E-03   -0.43921E-01  4376   0.686E-01    0.163E-01
RMM:   2    -0.231311125473E+04   -0.11313E-02   -0.12952E-02  5292   0.104E-01    0.802E-02
RMM:   3    -0.231311115390E+04    0.10083E-03   -0.75960E-04  4834   0.377E-02    0.522E-02
RMM:   4    -0.231311113164E+04    0.22258E-04   -0.17679E-04  4277   0.110E-02    0.348E-02
RMM:   5    -0.231311111214E+04    0.19503E-04   -0.68076E-05  3354   0.913E-03    0.802E-03
RMM:   6    -0.231311111067E+04    0.14664E-05   -0.98200E-06  2821   0.420E-03
  43 F= -.23331853E+04 E0= -.23331853E+04  d E =-.128051E-02  mag=     0.0000
       N       E                     dE             d eps       ncg     rms          rms(c)
DAV:   1    -0.231311187170E+04   -0.75956E-03   -0.21517E-01  4400   0.469E-01    0.107E-01
RMM:   2    -0.231311236920E+04   -0.49750E-03   -0.57394E-03  5169   0.697E-02    0.555E-02
RMM:   3    -0.231311232345E+04    0.45753E-04   -0.29564E-04  4476   0.270E-02    0.361E-02
RMM:   4    -0.231311231900E+04    0.44449E-05   -0.10085E-04  3886   0.824E-03    0.264E-02
RMM:   5    -0.231311230710E+04    0.11905E-04   -0.29608E-05  2914   0.664E-03    0.494E-03
RMM:   6    -0.231311230679E+04    0.30296E-06   -0.49710E-06  2798   0.310E-03
  44 F= -.23331864E+04 E0= -.23331864E+04  d E =-.118441E-02  mag=    -0.0000
       N       E                     dE             d eps       ncg     rms          rms(c)
DAV:   1    -0.231311170856E+04    0.59854E-03   -0.75692E-01  4376   0.879E-01    0.200E-01
RMM:   2    -0.231311345440E+04   -0.17458E-02   -0.20208E-02  5072   0.130E-01    0.104E-01
RMM:   3    -0.231311328401E+04    0.17039E-03   -0.10116E-03  4716   0.475E-02    0.679E-02
RMM:   4    -0.231311326464E+04    0.19371E-04   -0.36169E-04  4548   0.151E-02    0.495E-02
RMM:   5    -0.231311322244E+04    0.42200E-04   -0.10702E-04  3722   0.117E-02    0.961E-03
RMM:   6    -0.231311322010E+04    0.23419E-05   -0.14131E-05  2846   0.379E-03
  45 F= -.23331873E+04 E0= -.23331873E+04  d E =-.207668E-02  mag=    -0.0000
       N       E                     dE             d eps       ncg     rms          rms(c)
DAV:   1    -0.231311347688E+04   -0.25444E-03   -0.32605E-01  4376   0.577E-01    0.139E-01
RMM:   2    -0.231311439871E+04   -0.92183E-03   -0.10492E-02  5418   0.891E-02    0.690E-02
RMM:   3    -0.231311432858E+04    0.70122E-04   -0.63198E-04  4534   0.331E-02    0.430E-02
RMM:   4    -0.231311431675E+04    0.11839E-04   -0.18853E-04  4159   0.104E-02    0.264E-02
RMM:   5    -0.231311430387E+04    0.12876E-04   -0.40387E-05  3000   0.776E-03    0.738E-03
RMM:   6    -0.231311430276E+04    0.11091E-05   -0.60369E-06  2807   0.270E-03
  46 F= -.23331884E+04 E0= -.23331884E+04  d E =-.109915E-02  mag=     0.0000
       N       E                     dE             d eps       ncg     rms          rms(c)
DAV:   1    -0.231311398145E+04    0.32242E-03   -0.23295E-01  4400   0.488E-01    0.117E-01
RMM:   2    -0.231311463465E+04   -0.65320E-03   -0.74542E-03  5506   0.751E-02    0.584E-02
RMM:   3    -0.231311458630E+04    0.48344E-04   -0.43730E-04  4360   0.271E-02    0.361E-02
RMM:   4    -0.231311457565E+04    0.10649E-04   -0.13626E-04  4035   0.887E-03    0.205E-02
RMM:   5    -0.231311456790E+04    0.77539E-05   -0.27328E-05  2910   0.682E-03
  47 F= -.23331887E+04 E0= -.23331887E+04  d E =-.137872E-02  mag=    -0.0000
       N       E                     dE             d eps       ncg     rms          rms(c)
DAV:   1    -0.231311489812E+04   -0.32247E-03   -0.25381E-01  4376   0.506E-01    0.121E-01
RMM:   2    -0.231311548533E+04   -0.58721E-03   -0.67432E-03  4940   0.778E-02    0.637E-02
RMM:   3    -0.231311542254E+04    0.62784E-04   -0.39859E-04  4803   0.290E-02    0.429E-02
RMM:   4    -0.231311540888E+04    0.13667E-04   -0.10083E-04  3855   0.853E-03    0.295E-02
RMM:   5    -0.231311539543E+04    0.13450E-04   -0.41308E-05  3008   0.724E-03    0.516E-03
RMM:   6    -0.231311539498E+04    0.44231E-06   -0.63208E-06  2802   0.399E-03
  48 F= -.23331896E+04 E0= -.23331896E+04  d E =-.935095E-03  mag=     0.0000
       N       E                     dE             d eps       ncg     rms          rms(c)
DAV:   1    -0.231311524781E+04    0.14762E-03   -0.12659E-01  4432   0.357E-01    0.855E-02
RMM:   2    -0.231311554132E+04   -0.29351E-03   -0.33767E-03  5032   0.552E-02    0.450E-02
RMM:   3    -0.231311550904E+04    0.32272E-04   -0.20051E-04  4390   0.203E-02    0.305E-02
RMM:   4    -0.231311550165E+04    0.73921E-05   -0.49094E-05  3152   0.640E-03
  49 F= -.23331898E+04 E0= -.23331898E+04  d E =-.111840E-02  mag=    -0.0000
       N       E                     dE             d eps       ncg     rms          rms(c)
DAV:   1    -0.231311579563E+04   -0.28659E-03   -0.27643E-01  4376   0.528E-01    0.137E-01
RMM:   2    -0.231311660581E+04   -0.81018E-03   -0.93092E-03  5601   0.855E-02    0.720E-02
RMM:   3    -0.231311654609E+04    0.59726E-04   -0.60355E-04  4646   0.275E-02    0.486E-02
RMM:   4    -0.231311651704E+04    0.29046E-04   -0.11885E-04  3944   0.848E-03    0.279E-02
RMM:   5    -0.231311650662E+04    0.10426E-04   -0.48832E-05  3187   0.738E-03    0.561E-03
RMM:   6    -0.231311650609E+04    0.52129E-06   -0.67128E-06  2817   0.421E-03
  50 F= -.23331908E+04 E0= -.23331908E+04  d E =-.989931E-03  mag=    -0.0000
       N       E                     dE             d eps       ncg     rms          rms(c)
DAV:   1    -0.231311588207E+04    0.62454E-03   -0.38910E-01  4376   0.627E-01    0.162E-01
RMM:   2    -0.231311708083E+04   -0.11988E-02   -0.13701E-02  5595   0.103E-01    0.899E-02
RMM:   3    -0.231311697050E+04    0.11033E-03   -0.70978E-04  4720   0.300E-02    0.627E-02
RMM:   4    -0.231311691524E+04    0.55255E-04   -0.15825E-04  4228   0.975E-03    0.341E-02
RMM:   5    -0.231311689929E+04    0.15958E-04   -0.80357E-05  3625   0.873E-03    0.624E-03
RMM:   6    -0.231311689802E+04    0.12610E-05   -0.91936E-06  2823   0.437E-03
  51 F= -.23331912E+04 E0= -.23331912E+04  d E =-.136466E-02  mag=    -0.0000
       N       E                     dE             d eps       ncg     rms          rms(c)
DAV:   1    -0.231311697778E+04   -0.78491E-04   -0.33992E-01  4376   0.577E-01    0.149E-01
RMM:   2    -0.231311813567E+04   -0.11579E-02   -0.13008E-02  5705   0.971E-02    0.914E-02
RMM:   3    -0.231311802460E+04    0.11108E-03   -0.72946E-04  4642   0.266E-02    0.609E-02
RMM:   4    -0.231311796866E+04    0.55937E-04   -0.14038E-04  4093   0.886E-03    0.306E-02
RMM:   5    -0.231311795817E+04    0.10486E-04   -0.67502E-05  3353   0.785E-03    0.528E-03
RMM:   6    -0.231311795763E+04    0.53922E-06   -0.76379E-06  2815   0.447E-03
  52 F= -.23331922E+04 E0= -.23331922E+04  d E =-.988175E-03  mag=    -0.0000
       N       E                     dE             d eps       ncg     rms          rms(c)
DAV:   1    -0.231311735287E+04    0.60530E-03   -0.33498E-01  4376   0.573E-01    0.149E-01
RMM:   2    -0.231311849328E+04   -0.11404E-02   -0.12809E-02  5689   0.965E-02    0.908E-02
RMM:   3    -0.231311838537E+04    0.10791E-03   -0.72807E-04  4630   0.273E-02    0.605E-02
RMM:   4    -0.231311832990E+04    0.55469E-04   -0.13840E-04  4081   0.880E-03    0.304E-02
RMM:   5    -0.231311831930E+04    0.10608E-04   -0.67354E-05  3357   0.780E-03    0.526E-03
RMM:   6    -0.231311831863E+04    0.66934E-06   -0.75927E-06  2807   0.443E-03
  53 F= -.23331925E+04 E0= -.23331925E+04  d E =-.127840E-02  mag=    -0.0000
       N       E                     dE             d eps       ncg     rms          rms(c)
DAV:   1    -0.231311874015E+04   -0.42085E-03   -0.40819E-01  4360   0.619E-01    0.164E-01
RMM:   2    -0.231311962787E+04   -0.88772E-03   -0.10344E-02  5200   0.986E-02    0.961E-02
RMM:   3    -0.231311953093E+04    0.96938E-04   -0.76339E-04  4937   0.335E-02    0.693E-02
RMM:   4    -0.231311946154E+04    0.69392E-04   -0.15180E-04  4179   0.987E-03    0.341E-02
RMM:   5    -0.231311944983E+04    0.11703E-04   -0.68654E-05  3467   0.842E-03    0.560E-03
RMM:   6    -0.231311944908E+04    0.74762E-06   -0.68988E-06  2803   0.449E-03
  54 F= -.23331936E+04 E0= -.23331936E+04  d E =-.115636E-02  mag=    -0.0000
       N       E                     dE             d eps       ncg     rms          rms(c)
DAV:   1    -0.231311920771E+04    0.24212E-03   -0.25287E-01  4384   0.488E-01    0.129E-01
RMM:   2    -0.231311976117E+04   -0.55346E-03   -0.64495E-03  5239   0.777E-02    0.761E-02
RMM:   3    -0.231311969746E+04    0.63712E-04   -0.47899E-04  4730   0.253E-02    0.548E-02
RMM:   4    -0.231311965366E+04    0.43793E-04   -0.92078E-05  3768   0.800E-03    0.269E-02
RMM:   5    -0.231311964616E+04    0.75049E-05   -0.43403E-05  3149   0.677E-03
  55 F= -.23331938E+04 E0= -.23331938E+04  d E =-.137449E-02  mag=    -0.0000
       N       E                     dE             d eps       ncg     rms          rms(c)
DAV:   1    -0.231311975981E+04   -0.10614E-03   -0.32570E-01  4376   0.550E-01    0.148E-01
RMM:   2    -0.231312083716E+04   -0.10774E-02   -0.12139E-02  5760   0.933E-02    0.883E-02
RMM:   3    -0.231312076419E+04    0.72972E-04   -0.74077E-04  4680   0.311E-02    0.614E-02
RMM:   4    -0.231312071462E+04    0.49564E-04   -0.14929E-04  4002   0.906E-03    0.303E-02
RMM:   5    -0.231312070564E+04    0.89878E-05   -0.57480E-05  3194   0.752E-03
  56 F= -.23331949E+04 E0= -.23331949E+04  d E =-.106944E-02  mag=     0.0000
       N       E                     dE             d eps       ncg     rms          rms(c)
DAV:   1    -0.231311944954E+04    0.12651E-02   -0.54048E-01  4376   0.708E-01    0.190E-01
RMM:   2    -0.231312125504E+04   -0.18055E-02   -0.20314E-02  5777   0.121E-01    0.115E-01
RMM:   3    -0.231312113549E+04    0.11955E-03   -0.12584E-03  4905   0.405E-02    0.802E-02
RMM:   4    -0.231312104983E+04    0.85658E-04   -0.24573E-04  4352   0.115E-02    0.392E-02
RMM:   5    -0.231312103460E+04    0.15233E-04   -0.96888E-05  3625   0.947E-03    0.701E-03
RMM:   6    -0.231312103353E+04    0.10608E-05   -0.10039E-05  2840   0.465E-03
  57 F= -.23331953E+04 E0= -.23331953E+04  d E =-.141104E-02  mag=    -0.0000
       N       E                     dE             d eps       ncg     rms          rms(c)
DAV:   1    -0.231312099406E+04    0.40535E-04   -0.46725E-01  4360   0.637E-01    0.174E-01
RMM:   2    -0.231312237435E+04   -0.13803E-02   -0.15756E-02  5693   0.108E-01    0.110E-01
RMM:   3    -0.231312224505E+04    0.12931E-03   -0.93115E-04  4876   0.308E-02    0.757E-02
RMM:   4    -0.231312216516E+04    0.79883E-04   -0.21411E-04  4292   0.104E-02    0.347E-02
RMM:   5    -0.231312215353E+04    0.11633E-04   -0.71182E-05  3284   0.842E-03    0.611E-03
RMM:   6    -0.231312215265E+04    0.87936E-06   -0.88240E-06  2824   0.442E-03
  58 F= -.23331964E+04 E0= -.23331964E+04  d E =-.116161E-02  mag=     0.0000
       N       E                     dE             d eps       ncg     rms          rms(c)
DAV:   1    -0.231312121188E+04    0.94165E-03   -0.50991E-01  4360   0.665E-01    0.182E-01
RMM:   2    -0.231312271379E+04   -0.15019E-02   -0.17160E-02  5729   0.113E-01    0.114E-01
RMM:   3    -0.231312257568E+04    0.13811E-03   -0.10158E-03  4901   0.322E-02    0.790E-02
RMM:   4    -0.231312248857E+04    0.87110E-04   -0.23328E-04  4304   0.108E-02    0.363E-02
RMM:   5    -0.231312247536E+04    0.13203E-04   -0.78194E-05  3357   0.879E-03    0.644E-03
RMM:   6    -0.231312247427E+04    0.10910E-05   -0.96178E-06  2824   0.448E-03
  59 F= -.23331968E+04 E0= -.23331968E+04  d E =-.152896E-02  mag=    -0.0000
       N       E                     dE             d eps       ncg     rms          rms(c)
DAV:   1    -0.231312245877E+04    0.16596E-04   -0.65551E-01  4360   0.741E-01    0.211E-01
RMM:   2    -0.231312438225E+04   -0.19235E-02   -0.22145E-02  5725   0.127E-01    0.136E-01
RMM:   3    -0.231312420130E+04    0.18095E-03   -0.13647E-03  5040   0.361E-02    0.940E-02
RMM:   4    -0.231312407255E+04    0.12875E-03   -0.31129E-04  4436   0.125E-02    0.413E-02
RMM:   5    -0.231312405413E+04    0.18420E-04   -0.10335E-04  3648   0.975E-03    0.779E-03
RMM:   6    -0.231312405170E+04    0.24276E-05   -0.12412E-05  2839   0.463E-03
  60 F= -.23331983E+04 E0= -.23331983E+04  d E =-.153383E-02  mag=     0.0000
       N       E                     dE             d eps       ncg     rms          rms(c)
DAV:   1    -0.231312309039E+04    0.96374E-03   -0.44116E-01  4360   0.608E-01    0.173E-01
RMM:   2    -0.231312438881E+04   -0.12984E-02   -0.14966E-02  5772   0.105E-01    0.112E-01
RMM:   3    -0.231312426235E+04    0.12646E-03   -0.90307E-04  4908   0.287E-02    0.771E-02
RMM:   4    -0.231312417524E+04    0.87111E-04   -0.21425E-04  4258   0.105E-02    0.341E-02
RMM:   5    -0.231312416063E+04    0.14607E-04   -0.70377E-05  3289   0.817E-03    0.649E-03
RMM:   6    -0.231312415868E+04    0.19532E-05   -0.98700E-06  2828   0.454E-03
  61 F= -.23331984E+04 E0= -.23331984E+04  d E =-.160665E-02  mag=    -0.0000
       N       E                     dE             d eps       ncg     rms          rms(c)
DAV:   1    -0.231312409200E+04    0.68628E-04   -0.63685E-02  4448   0.231E-01    0.656E-02
RMM:   2    -0.231312427474E+04   -0.18273E-03   -0.21237E-03  5846   0.402E-02    0.420E-02
RMM:   3    -0.231312425730E+04    0.17438E-04   -0.12799E-04  3369   0.117E-02    0.286E-02
RMM:   4    -0.231312424522E+04    0.12079E-04   -0.29024E-05  2942   0.507E-03    0.126E-02
RMM:   5    -0.231312424416E+04    0.10630E-05   -0.12516E-05  2826   0.376E-03
  62 F= -.23331985E+04 E0= -.23331985E+04  d E =-.170494E-02  mag=    -0.0000
       N       E                     dE             d eps       ncg     rms          rms(c)
DAV:   1    -0.231312270204E+04    0.15432E-02   -0.70278E-01  4376   0.772E-01    0.234E-01
RMM:   2    -0.231312591768E+04   -0.32156E-02   -0.35946E-02  5911   0.142E-01    0.135E-01
RMM:   3    -0.231312583032E+04    0.87363E-04   -0.27997E-03  5066   0.400E-02    0.878E-02
RMM:   4    -0.231312573839E+04    0.91928E-04   -0.47920E-04  4355   0.127E-02    0.430E-02
RMM:   5    -0.231312571609E+04    0.22300E-04   -0.11273E-04  3648   0.102E-02    0.927E-03
RMM:   6    -0.231312571477E+04    0.13235E-05   -0.14566E-05  2854   0.451E-03
  63 F= -.23331998E+04 E0= -.23331998E+04  d E =-.132044E-02  mag=     0.0000
       N       E                     dE             d eps       ncg     rms          rms(c)
DAV:   1    -0.231312538467E+04    0.33142E-03   -0.10727E-01  4432   0.302E-01    0.917E-02
RMM:   2    -0.231312588520E+04   -0.50053E-03   -0.55532E-03  6015   0.566E-02    0.534E-02
RMM:   3    -0.231312586993E+04    0.15274E-04   -0.43304E-04  3721   0.169E-02    0.348E-02
RMM:   4    -0.231312585567E+04    0.14263E-04   -0.70296E-05  3013   0.603E-03    0.172E-02
RMM:   5    -0.231312585228E+04    0.33925E-05   -0.20228E-05  2871   0.475E-03
  64 F= -.23331999E+04 E0= -.23331999E+04  d E =-.139965E-02  mag=     0.0000
       N       E                     dE             d eps       ncg     rms          rms(c)
DAV:   1    -0.231312530684E+04    0.54882E-03   -0.75964E-01  4360   0.785E-01    0.225E-01
RMM:   2    -0.231312747398E+04   -0.21671E-02   -0.25064E-02  5728   0.133E-01    0.131E-01
RMM:   3    -0.231312734247E+04    0.13151E-03   -0.14827E-03  5132   0.394E-02    0.925E-02
RMM:   4    -0.231312723865E+04    0.10382E-03   -0.36538E-04  4546   0.133E-02    0.471E-02
RMM:   5    -0.231312721429E+04    0.24360E-04   -0.11918E-04  3803   0.104E-02    0.828E-03
RMM:   6    -0.231312721232E+04    0.19745E-05   -0.16562E-05  2842   0.448E-03
  65 F= -.23332013E+04 E0= -.23332013E+04  d E =-.143447E-02  mag=    -0.0000
       N       E                     dE             d eps       ncg     rms          rms(c)
DAV:   1    -0.231312667275E+04    0.54154E-03   -0.23367E-01  4360   0.435E-01    0.125E-01
RMM:   2    -0.231312734254E+04   -0.66979E-03   -0.77386E-03  5727   0.741E-02    0.727E-02
RMM:   3    -0.231312729897E+04    0.43574E-04   -0.45049E-04  4456   0.216E-02    0.516E-02
RMM:   4    -0.231312726673E+04    0.32240E-04   -0.11252E-04  3563   0.796E-03    0.262E-02
RMM:   5    -0.231312725853E+04    0.82006E-05   -0.38385E-05  3004   0.632E-03
  66 F= -.23332014E+04 E0= -.23332014E+04  d E =-.152300E-02  mag=    -0.0000
       N       E                     dE             d eps       ncg     rms          rms(c)
DAV:   1    -0.231312704810E+04    0.21863E-03   -0.54232E-01  4376   0.648E-01    0.183E-01
RMM:   2    -0.231312857219E+04   -0.15241E-02   -0.17532E-02  5722   0.109E-01    0.107E-01
RMM:   3    -0.231312848334E+04    0.88858E-04   -0.10576E-03  4910   0.337E-02    0.749E-02
RMM:   4    -0.231312841806E+04    0.65275E-04   -0.25474E-04  4192   0.111E-02    0.379E-02
RMM:   5    -0.231312840340E+04    0.14664E-04   -0.79204E-05  3274   0.862E-03    0.666E-03
RMM:   6    -0.231312840267E+04    0.72607E-06   -0.12955E-05  2833   0.422E-03
  67 F= -.23332026E+04 E0= -.23332026E+04  d E =-.121424E-02  mag=     0.0000
       N       E                     dE             d eps       ncg     rms          rms(c)
DAV:   1    -0.231312746469E+04    0.93870E-03   -0.50250E-01  4376   0.624E-01    0.176E-01
RMM:   2    -0.231312887396E+04   -0.14093E-02   -0.16257E-02  5688   0.104E-01    0.103E-01
RMM:   3    -0.231312878400E+04    0.89957E-04   -0.95955E-04  4809   0.302E-02    0.720E-02
RMM:   4    -0.231312872234E+04    0.61656E-04   -0.23900E-04  4194   0.106E-02    0.366E-02
RMM:   5    -0.231312870733E+04    0.15016E-04   -0.73598E-05  3226   0.826E-03    0.650E-03
RMM:   6    -0.231312870636E+04    0.96420E-06   -0.11986E-05  2833   0.405E-03
  68 F= -.23332030E+04 E0= -.23332030E+04  d E =-.158720E-02  mag=     0.0000
       N       E                     dE             d eps       ncg     rms          rms(c)
DAV:   1    -0.231312903785E+04   -0.33052E-03   -0.28788E-01  4376   0.491E-01    0.156E-01
RMM:   2    -0.231312998496E+04   -0.94712E-03   -0.11105E-02  5740   0.859E-02    0.812E-02
RMM:   3    -0.231312991948E+04    0.65483E-04   -0.83379E-04  4627   0.282E-02    0.531E-02
RMM:   4    -0.231312988658E+04    0.32897E-04   -0.18207E-04  4061   0.942E-03    0.294E-02
RMM:   5    -0.231312987464E+04    0.11940E-04   -0.55325E-05  3131   0.776E-03    0.670E-03
RMM:   6    -0.231312987376E+04    0.88698E-06   -0.86838E-06  2817   0.375E-03
  69 F= -.23332041E+04 E0= -.23332041E+04  d E =-.110154E-02  mag=     0.0000
       N       E                     dE             d eps       ncg     rms          rms(c)
DAV:   1    -0.231312982956E+04    0.45084E-04   -0.67124E-02  4464   0.237E-01    0.755E-02
RMM:   2    -0.231313005234E+04   -0.22278E-03   -0.26015E-03  5897   0.419E-02    0.390E-02
RMM:   3    -0.231313003578E+04    0.16555E-04   -0.18830E-04  3444   0.131E-02    0.253E-02
RMM:   4    -0.231313002863E+04    0.71546E-05   -0.42004E-05  2953   0.553E-03
  70 F= -.23332042E+04 E0= -.23332042E+04  d E =-.122479E-02  mag=    -0.0000
       N       E                     dE             d eps       ncg     rms          rms(c)
DAV:   1    -0.231313072184E+04   -0.68606E-03   -0.20272E-01  4360   0.407E-01    0.125E-01
RMM:   2    -0.231313105660E+04   -0.33475E-03   -0.42712E-03  4971   0.634E-02    0.659E-02
RMM:   3    -0.231313101192E+04    0.44679E-04   -0.34590E-04  4929   0.237E-02    0.470E-02
RMM:   4    -0.231313098769E+04    0.24230E-04   -0.10448E-04  3708   0.789E-03    0.271E-02
RMM:   5    -0.231313097766E+04    0.10026E-04   -0.32497E-05  2959   0.640E-03    0.467E-03
RMM:   6    -0.231313097670E+04    0.95733E-06   -0.49036E-06  2791   0.376E-03
  71 F= -.23332051E+04 E0= -.23332051E+04  d E =-.911440E-03  mag=    -0.0000
       N       E                     dE             d eps       ncg     rms          rms(c)
DAV:   1    -0.231313104500E+04   -0.67341E-04   -0.80507E-02  4384   0.256E-01    0.785E-02
RMM:   2    -0.231313118320E+04   -0.13820E-03   -0.17658E-03  4969   0.406E-02    0.414E-02
RMM:   3    -0.231313116315E+04    0.20053E-04   -0.14638E-04  4054   0.146E-02    0.298E-02
RMM:   4    -0.231313115306E+04    0.10084E-04   -0.43862E-05  3002   0.577E-03    0.173E-02
RMM:   5    -0.231313114859E+04    0.44726E-05   -0.15097E-05  2838   0.426E-03
  72 F= -.23332053E+04 E0= -.23332053E+04  d E =-.106056E-02  mag=    -0.0000
       N       E                     dE             d eps       ncg     rms          rms(c)
DAV:   1    -0.231313157977E+04   -0.42670E-03   -0.25975E-01  4376   0.469E-01    0.140E-01
RMM:   2    -0.231313219891E+04   -0.61915E-03   -0.74274E-03  5660   0.774E-02    0.764E-02
RMM:   3    -0.231313213909E+04    0.59821E-04   -0.49004E-04  4646   0.261E-02    0.546E-02
RMM:   4    -0.231313210015E+04    0.38940E-04   -0.12127E-04  3888   0.853E-03    0.285E-02
RMM:   5    -0.231313209023E+04    0.99161E-05   -0.48832E-05  3115   0.722E-03
  73 F= -.23332061E+04 E0= -.23332061E+04  d E =-.832613E-03  mag=     0.0000
       N       E                     dE             d eps       ncg     rms          rms(c)
DAV:   1    -0.231313205274E+04    0.47413E-04   -0.76288E-02  4432   0.254E-01    0.760E-02
RMM:   2    -0.231313223947E+04   -0.18674E-03   -0.22056E-03  5688   0.431E-02    0.416E-02
RMM:   3    -0.231313222300E+04    0.16474E-04   -0.15563E-04  3923   0.163E-02    0.298E-02
RMM:   4    -0.231313221188E+04    0.11117E-04   -0.34229E-05  2937   0.553E-03    0.158E-02
RMM:   5    -0.231313220875E+04    0.31324E-05   -0.16838E-05  2861   0.434E-03
  74 F= -.23332062E+04 E0= -.23332062E+04  d E =-.892189E-03  mag=    -0.0000
       N       E                     dE             d eps       ncg     rms          rms(c)
DAV:   1    -0.231313221537E+04   -0.34854E-05   -0.33333E-01  4376   0.538E-01    0.159E-01
RMM:   2    -0.231313308742E+04   -0.87206E-03   -0.10313E-02  5702   0.897E-02    0.855E-02
RMM:   3    -0.231313301149E+04    0.75939E-04   -0.66174E-04  4731   0.296E-02    0.602E-02
RMM:   4    -0.231313296248E+04    0.49010E-04   -0.15632E-04  4108   0.963E-03    0.323E-02
RMM:   5    -0.231313294876E+04    0.13715E-04   -0.64858E-05  3285   0.824E-03    0.578E-03
RMM:   6    -0.231313294792E+04    0.83700E-06   -0.91550E-06  2824   0.451E-03
  75 F= -.23332069E+04 E0= -.23332069E+04  d E =-.712723E-03  mag=    -0.0000
       N       E                     dE             d eps       ncg     rms          rms(c)
DAV:   1    -0.231313286079E+04    0.87971E-04   -0.43881E-02  4464   0.195E-01    0.578E-02
RMM:   2    -0.231313297987E+04   -0.11908E-03   -0.13954E-03  5776   0.330E-02    0.310E-02
RMM:   3    -0.231313296694E+04    0.12926E-04   -0.82765E-05  3202   0.999E-03    0.218E-02
RMM:   4    -0.231313296074E+04    0.61980E-05   -0.20296E-05  2862   0.455E-03
  76 F= -.23332069E+04 E0= -.23332069E+04  d E =-.716072E-03  mag=     0.0000
       N       E                     dE             d eps       ncg     rms          rms(c)
DAV:   1    -0.231313284484E+04    0.12210E-03   -0.31022E-01  4376   0.526E-01    0.152E-01
RMM:   2    -0.231313366317E+04   -0.81834E-03   -0.96175E-03  5556   0.881E-02    0.820E-02
RMM:   3    -0.231313360524E+04    0.57936E-04   -0.68423E-04  4810   0.285E-02    0.573E-02
RMM:   4    -0.231313356221E+04    0.43023E-04   -0.14465E-04  4037   0.937E-03    0.313E-02
RMM:   5    -0.231313354894E+04    0.13276E-04   -0.56526E-05  3232   0.795E-03    0.566E-03
RMM:   6    -0.231313354816E+04    0.77536E-06   -0.89271E-06  2821   0.445E-03
  77 F= -.23332075E+04 E0= -.23332075E+04  d E =-.648157E-03  mag=    -0.0000
       N       E                     dE             d eps       ncg     rms          rms(c)
DAV:   1    -0.231313352084E+04    0.28098E-04   -0.66060E-03  5008   0.771E-02    0.224E-02
RMM:   2    -0.231313353961E+04   -0.18768E-04   -0.21714E-04  4799   0.138E-02    0.121E-02
RMM:   3    -0.231313353806E+04    0.15482E-05   -0.14554E-05  2818   0.553E-03
  78 F= -.23332075E+04 E0= -.23332075E+04  d E =-.646960E-03  mag=    -0.0000
       N       E                     dE             d eps       ncg     rms          rms(c)
DAV:   1    -0.231313315713E+04    0.38248E-03   -0.25095E-01  4376   0.494E-01    0.150E-01
RMM:   2    -0.231313434674E+04   -0.11896E-02   -0.13480E-02  5804   0.905E-02    0.773E-02
RMM:   3    -0.231313430702E+04    0.39725E-04   -0.99422E-04  4680   0.255E-02    0.493E-02
RMM:   4    -0.231313427887E+04    0.28152E-04   -0.18099E-04  4041   0.896E-03    0.276E-02
RMM:   5    -0.231313426721E+04    0.11656E-04   -0.51638E-05  3085   0.759E-03    0.789E-03
RMM:   6    -0.231313426615E+04    0.10590E-05   -0.88413E-06  2819   0.409E-03
  79 F= -.23332082E+04 E0= -.23332082E+04  d E =-.647482E-03  mag=    -0.0000
       N       E                     dE             d eps       ncg     rms          rms(c)
DAV:   1    -0.231313420369E+04    0.63523E-04   -0.18451E-02  4624   0.134E-01    0.407E-02
RMM:   2    -0.231313429332E+04   -0.89637E-04   -0.10028E-03  5868   0.255E-02    0.210E-02
RMM:   3    -0.231313428988E+04    0.34392E-05   -0.74939E-05  2904   0.802E-03
  80 F= -.23332082E+04 E0= -.23332082E+04  d E =-.649333E-03  mag=    -0.0000
       N       E                     dE             d eps       ncg     rms          rms(c)
DAV:   1    -0.231313420129E+04    0.92036E-04   -0.22050E-01  4376   0.459E-01    0.131E-01
RMM:   2    -0.231313507774E+04   -0.87645E-03   -0.99593E-03  5774   0.803E-02    0.698E-02
RMM:   3    -0.231313503608E+04    0.41657E-04   -0.58139E-04  4490   0.220E-02    0.466E-02
RMM:   4    -0.231313501280E+04    0.23284E-04   -0.12246E-04  3763   0.824E-03    0.283E-02
RMM:   5    -0.231313500072E+04    0.12077E-04   -0.49026E-05  3041   0.704E-03    0.559E-03
RMM:   6    -0.231313500003E+04    0.69266E-06   -0.86798E-06  2816   0.417E-03
  81 F= -.23332088E+04 E0= -.23332088E+04  d E =-.638406E-03  mag=     0.0000
       N       E                     dE             d eps       ncg     rms          rms(c)
DAV:   1    -0.231313487705E+04    0.12367E-03   -0.63622E-02  4400   0.247E-01    0.693E-02
RMM:   2    -0.231313513303E+04   -0.25598E-03   -0.28917E-03  5865   0.437E-02    0.369E-02
RMM:   3    -0.231313511911E+04    0.13917E-04   -0.16972E-04  3421   0.127E-02    0.251E-02
RMM:   4    -0.231313511129E+04    0.78213E-05   -0.31937E-05  2902   0.533E-03
  82 F= -.23332089E+04 E0= -.23332089E+04  d E =-.711345E-03  mag=     0.0000
       N       E                     dE             d eps       ncg     rms          rms(c)
DAV:   1    -0.231313522639E+04   -0.10728E-03   -0.24613E-01  4376   0.486E-01    0.138E-01
RMM:   2    -0.231313588449E+04   -0.65810E-03   -0.78287E-03  5311   0.784E-02    0.673E-02
RMM:   3    -0.231313582414E+04    0.60353E-04   -0.50108E-04  4603   0.277E-02    0.433E-02
RMM:   4    -0.231313581221E+04    0.11929E-04   -0.13682E-04  3983   0.946E-03    0.307E-02
RMM:   5    -0.231313579605E+04    0.16163E-04   -0.42720E-05  3024   0.775E-03    0.592E-03
RMM:   6    -0.231313579508E+04    0.96577E-06   -0.77344E-06  2809   0.376E-03
[...]
RMM:   4    -0.231313956608E+04    0.57466E-05   -0.40682E-05  2959   0.576E-03
 106 F= -.23332131E+04 E0= -.23332131E+04  d E =-.184423E-03  mag=    -0.0000
       N       E                     dE             d eps       ncg     rms          rms(c)
DAV:   1    -0.231313954809E+04    0.23735E-04   -0.25948E-03  5200   0.506E-02    0.157E-02
RMM:   2    -0.231313955761E+04   -0.95127E-05   -0.11363E-04  4043   0.959E-03    0.812E-03
RMM:   3    -0.231313955734E+04    0.26393E-06   -0.81888E-06  2761   0.468E-03
 107 F= -.23332131E+04 E0= -.23332131E+04  d E =-.175655E-03  mag=    -0.0000
       N       E                     dE             d eps       ncg     rms          rms(c)
DAV:   1    -0.231313953123E+04    0.26376E-04   -0.61008E-02  4376   0.244E-01    0.700E-02
RMM:   2    -0.231313979223E+04   -0.26100E-03   -0.29620E-03  5817   0.432E-02    0.366E-02
RMM:   3    -0.231313978299E+04    0.92468E-05   -0.18962E-04  3397   0.127E-02    0.243E-02
RMM:   4    -0.231313977684E+04    0.61443E-05   -0.34902E-05  2916   0.527E-03
 108 F= -.23332133E+04 E0= -.23332133E+04  d E =-.194488E-03  mag=    -0.0000
       N       E                     dE             d eps       ncg     rms          rms(c)
DAV:   1    -0.231313964153E+04    0.14146E-03   -0.41021E-02  4388   0.200E-01    0.576E-02
RMM:   2    -0.231313981329E+04   -0.17176E-03   -0.19437E-03  5786   0.352E-02    0.303E-02
RMM:   3    -0.231313980764E+04    0.56494E-05   -0.13651E-04  3398   0.126E-02    0.200E-02
RMM:   4    -0.231313980305E+04    0.45932E-05   -0.23057E-05  2862   0.441E-03
 109 F= -.23332133E+04 E0= -.23332133E+04  d E =-.200077E-03  mag=     0.0000
       N       E                     dE             d eps       ncg     rms          rms(c)
DAV:   1    -0.231313981544E+04   -0.78013E-05   -0.35479E-02  4376   0.185E-01    0.525E-02
RMM:   2    -0.231313999861E+04   -0.18317E-03   -0.20245E-03  5964   0.341E-02    0.288E-02
RMM:   3    -0.231313999511E+04    0.35016E-05   -0.14989E-04  3104   0.107E-02    0.187E-02
RMM:   4    -0.231313999129E+04    0.38201E-05   -0.23333E-05  2856   0.416E-03
 110 F= -.23332134E+04 E0= -.23332134E+04  d E =-.159932E-03  mag=     0.0000
       N       E                     dE             d eps       ncg     rms          rms(c)
DAV:   1    -0.231313946355E+04    0.53156E-03   -0.13442E-01  4376   0.359E-01    0.101E-01
RMM:   2    -0.231314015619E+04   -0.69264E-03   -0.76581E-03  5899   0.657E-02    0.553E-02
RMM:   3    -0.231314014542E+04    0.10767E-04   -0.59202E-04  4080   0.208E-02    0.356E-02
RMM:   4    -0.231314013087E+04    0.14551E-04   -0.88320E-05  3074   0.656E-03    0.193E-02
RMM:   5    -0.231314012550E+04    0.53759E-05   -0.27277E-05  2881   0.545E-03
 111 F= -.23332135E+04 E0= -.23332135E+04  d E =-.239257E-03  mag=     0.0000
       N       E                     dE             d eps       ncg     rms          rms(c)
DAV:   1    -0.231314013849E+04   -0.76157E-05   -0.54850E-02  4392   0.227E-01    0.652E-02
RMM:   2    -0.231314037947E+04   -0.24098E-03   -0.26932E-03  6046   0.421E-02    0.352E-02
RMM:   3    -0.231314037134E+04    0.81305E-05   -0.17795E-04  3444   0.126E-02    0.238E-02
RMM:   4    -0.231314036523E+04    0.61116E-05   -0.29416E-05  2902   0.498E-03
 112 F= -.23332138E+04 E0= -.23332138E+04  d E =-.237537E-03  mag=     0.0000
       N       E                     dE             d eps       ncg     rms          rms(c)
DAV:   1    -0.231314020599E+04    0.16534E-03   -0.56127E-02  4376   0.230E-01    0.661E-02
RMM:   2    -0.231314044552E+04   -0.23953E-03   -0.26881E-03  5950   0.412E-02    0.357E-02
RMM:   3    -0.231314043806E+04    0.74591E-05   -0.19203E-04  3449   0.132E-02    0.237E-02
RMM:   4    -0.231314043196E+04    0.61075E-05   -0.32774E-05  2887   0.504E-03
 113 F= -.23332138E+04 E0= -.23332138E+04  d E =-.302202E-03  mag=    -0.0000
       N       E                     dE             d eps       ncg     rms          rms(c)
DAV:   1    -0.231314053741E+04   -0.99342E-04   -0.37598E-02  4416   0.190E-01    0.607E-02
RMM:   2    -0.231314064827E+04   -0.11087E-03   -0.13289E-03  5611   0.323E-02    0.285E-02
RMM:   3    -0.231314063822E+04    0.10050E-04   -0.91693E-05  3487   0.125E-02    0.194E-02
RMM:   4    -0.231314063430E+04    0.39199E-05   -0.21112E-05  2864   0.470E-03
 114 F= -.23332140E+04 E0= -.23332140E+04  d E =-.215462E-03  mag=    -0.0000
       N       E                     dE             d eps       ncg     rms          rms(c)
DAV:   1    -0.231314060557E+04    0.32654E-04   -0.15931E-02  4436   0.123E-01    0.389E-02
RMM:   2    -0.231314065196E+04   -0.46389E-04   -0.55377E-04  5438   0.212E-02    0.183E-02
RMM:   3    -0.231314064827E+04    0.36866E-05   -0.40397E-05  2941   0.875E-03
 115 F= -.23332141E+04 E0= -.23332141E+04  d E =-.238082E-03  mag=    -0.0000
       N       E                     dE             d eps       ncg     rms          rms(c)
DAV:   1    -0.231314073485E+04   -0.82894E-04   -0.31316E-02  4376   0.172E-01    0.547E-02
RMM:   2    -0.231314084282E+04   -0.10797E-03   -0.12862E-03  5695   0.299E-02    0.272E-02
RMM:   3    -0.231314083511E+04    0.77144E-05   -0.99150E-05  3000   0.954E-03
 116 F= -.23332142E+04 E0= -.23332142E+04  d E =-.172979E-03  mag=    -0.0000
       N       E                     dE             d eps       ncg     rms          rms(c)
DAV:   1    -0.231314081494E+04    0.27878E-04   -0.14425E-02  4432   0.116E-01    0.408E-02
RMM:   2    -0.231314086644E+04   -0.51497E-04   -0.62090E-04  5546   0.210E-02    0.255E-02
RMM:   3    -0.231314085757E+04    0.88692E-05   -0.48929E-05  2899   0.809E-03
 117 F= -.23332143E+04 E0= -.23332143E+04  d E =-.185975E-03  mag=    -0.0000
       N       E                     dE             d eps       ncg     rms          rms(c)
DAV:   1    -0.231314091853E+04   -0.52085E-04   -0.36160E-02  4376   0.186E-01    0.608E-02
RMM:   2    -0.231314104029E+04   -0.12177E-03   -0.14678E-03  5675   0.325E-02    0.301E-02
RMM:   3    -0.231314102895E+04    0.11346E-04   -0.92490E-05  3096   0.979E-03    0.183E-02
RMM:   4    -0.231314102679E+04    0.21521E-05   -0.27249E-05  2876   0.501E-03
 118 F= -.23332144E+04 E0= -.23332144E+04  d E =-.170128E-03  mag=    -0.0000
       N       E                     dE             d eps       ncg     rms          rms(c)
DAV:   1    -0.231314100513E+04    0.23815E-04   -0.94314E-03  4704   0.948E-02    0.302E-02
RMM:   2    -0.231314103775E+04   -0.32619E-04   -0.38261E-04  5309   0.172E-02    0.149E-02
RMM:   3    -0.231314103581E+04    0.19377E-05   -0.24911E-05  2826   0.679E-03
 119 F= -.23332144E+04 E0= -.23332144E+04  d E =-.179634E-03  mag=    -0.0000
       N       E                     dE             d eps       ncg     rms          rms(c)
DAV:   1    -0.231314107676E+04   -0.39009E-04   -0.37103E-02  4388   0.193E-01    0.634E-02
RMM:   2    -0.231314119748E+04   -0.12072E-03   -0.14782E-03  5653   0.335E-02    0.293E-02
RMM:   3    -0.231314118539E+04    0.12091E-04   -0.93059E-05  3153   0.984E-03    0.169E-02
RMM:   4    -0.231314118155E+04    0.38435E-05   -0.31173E-05  3070   0.523E-03
 120 F= -.23332146E+04 E0= -.23332146E+04  d E =-.158291E-03  mag=    -0.0000
       N       E                     dE             d eps       ncg     rms          rms(c)
DAV:   1    -0.231314117635E+04    0.90394E-05   -0.85518E-04  5208   0.299E-02    0.104E-02
RMM:   2    -0.231314117958E+04   -0.32256E-05   -0.38372E-05  3094   0.602E-03
 121 F= -.23332146E+04 E0= -.23332146E+04  d E =-.158255E-03  mag=    -0.0000
       N       E                     dE             d eps       ncg     rms          rms(c)
DAV:   1    -0.231314119719E+04   -0.20841E-04   -0.32368E-02  4400   0.181E-01    0.613E-02
RMM:   2    -0.231314131677E+04   -0.11958E-03   -0.14468E-03  5862   0.334E-02    0.282E-02
RMM:   3    -0.231314130683E+04    0.99472E-05   -0.10300E-04  3341   0.117E-02    0.186E-02
RMM:   4    -0.231314130276E+04    0.40611E-05   -0.20526E-05  2850   0.471E-03
 122 F= -.23332147E+04 E0= -.23332147E+04  d E =-.133705E-03  mag=    -0.0000
       N       E                     dE             d eps       ncg     rms          rms(c)
DAV:   1    -0.231314128944E+04    0.17389E-04   -0.15430E-03  5264   0.399E-02    0.136E-02
RMM:   2    -0.231314129536E+04   -0.59264E-05   -0.72510E-05  3586   0.787E-03
 123 F= -.23332147E+04 E0= -.23332147E+04  d E =-.128711E-03  mag=    -0.0000
       N       E                     dE             d eps       ncg     rms          rms(c)
DAV:   1    -0.231314131708E+04   -0.27641E-04   -0.32523E-02  4400   0.179E-01    0.572E-02
RMM:   2    -0.231314144430E+04   -0.12722E-03   -0.14941E-03  5962   0.339E-02    0.283E-02
RMM:   3    -0.231314143607E+04    0.82288E-05   -0.10516E-04  3253   0.106E-02    0.196E-02
RMM:   4    -0.231314143151E+04    0.45676E-05   -0.18778E-05  2843   0.466E-03
 124 F= -.23332149E+04 E0= -.23332149E+04  d E =-.141672E-03  mag=    -0.0000
       N       E                     dE             d eps       ncg     rms          rms(c)
DAV:   1    -0.231314139801E+04    0.38066E-04   -0.86144E-03  4480   0.920E-02    0.288E-02
RMM:   2    -0.231314142998E+04   -0.31973E-04   -0.37603E-04  5315   0.167E-02    0.137E-02
RMM:   3    -0.231314142873E+04    0.12493E-05   -0.27916E-05  2823   0.673E-03
 125 F= -.23332149E+04 E0= -.23332149E+04  d E =-.141817E-03  mag=    -0.0000
       N       E                     dE             d eps       ncg     rms          rms(c)
DAV:   1    -0.231314146458E+04   -0.34597E-04   -0.28286E-02  4376   0.166E-01    0.533E-02
RMM:   2    -0.231314156462E+04   -0.10004E-03   -0.12012E-03  5693   0.292E-02    0.248E-02
RMM:   3    -0.231314155698E+04    0.76359E-05   -0.73889E-05  2985   0.883E-03
 126 F= -.23332150E+04 E0= -.23332150E+04  d E =-.131446E-03  mag=    -0.0000
       N       E                     dE             d eps       ncg     rms          rms(c)
DAV:   1    -0.231314151955E+04    0.45069E-04   -0.13404E-02  4464   0.114E-01    0.376E-02
RMM:   2    -0.231314156521E+04   -0.45661E-04   -0.56350E-04  5481   0.202E-02    0.184E-02
RMM:   3    -0.231314156329E+04    0.19215E-05   -0.50832E-05  2842   0.797E-03
 127 F= -.23332150E+04 E0= -.23332150E+04  d E =-.139993E-03  mag=    -0.0000
       N       E                     dE             d eps       ncg     rms          rms(c)
DAV:   1    -0.231314163412E+04   -0.68912E-04   -0.29314E-02  4376   0.168E-01    0.571E-02
RMM:   2    -0.231314174641E+04   -0.11229E-03   -0.13343E-03  5626   0.307E-02    0.312E-02
RMM:   3    -0.231314173633E+04    0.10081E-04   -0.10336E-04  3162   0.102E-02    0.209E-02
RMM:   4    -0.231314172978E+04    0.65502E-05   -0.21478E-05  2856   0.453E-03
 128 F= -.23332152E+04 E0= -.23332152E+04  d E =-.149955E-03  mag=    -0.0000
       N       E                     dE             d eps       ncg     rms          rms(c)
DAV:   1    -0.231314171161E+04    0.24722E-04   -0.95016E-03  4496   0.959E-02    0.308E-02
RMM:   2    -0.231314174806E+04   -0.36453E-04   -0.43105E-04  5391   0.177E-02    0.156E-02
RMM:   3    -0.231314174603E+04    0.20299E-05   -0.33034E-05  2832   0.695E-03
 129 F= -.23332152E+04 E0= -.23332152E+04  d E =-.156664E-03  mag=    -0.0000
       N       E                     dE             d eps       ncg     rms          rms(c)
DAV:   1    -0.231314178139E+04   -0.33328E-04   -0.33721E-02  4376   0.180E-01    0.602E-02
RMM:   2    -0.231314191682E+04   -0.13543E-03   -0.16003E-03  5779   0.330E-02    0.296E-02
RMM:   3    -0.231314190677E+04    0.10052E-04   -0.93251E-05  3068   0.942E-03    0.186E-02
RMM:   4    -0.231314190381E+04    0.29616E-05   -0.24992E-05  2883   0.478E-03
 130 F= -.23332153E+04 E0= -.23332153E+04  d E =-.134538E-03  mag=    -0.0000
       N       E                     dE             d eps       ncg     rms          rms(c)
DAV:   1    -0.231314189546E+04    0.11312E-04   -0.40035E-03  4992   0.620E-02    0.207E-02
RMM:   2    -0.231314191156E+04   -0.16099E-04   -0.18683E-04  4619   0.118E-02    0.105E-02
RMM:   3    -0.231314191088E+04    0.67918E-06   -0.12925E-05  2814   0.529E-03
 131 F= -.23332153E+04 E0= -.23332153E+04  d E =-.133467E-03  mag=     0.0000
       N       E                     dE             d eps       ncg     rms          rms(c)
DAV:   1    -0.231314196780E+04   -0.56242E-04   -0.33804E-02  4376   0.176E-01    0.588E-02
RMM:   2    -0.231314208830E+04   -0.12050E-03   -0.14361E-03  5713   0.319E-02    0.292E-02
RMM:   3    -0.231314207746E+04    0.10832E-04   -0.86227E-05  3068   0.941E-03    0.188E-02
RMM:   4    -0.231314207376E+04    0.37037E-05   -0.22974E-05  2858   0.472E-03
 132 F= -.23332154E+04 E0= -.23332154E+04  d E =-.152577E-03  mag=     0.0000
       N       E                     dE             d eps       ncg     rms          rms(c)
DAV:   1    -0.231314206358E+04    0.13880E-04   -0.39419E-03  4784   0.604E-02    0.201E-02
RMM:   2    -0.231314207742E+04   -0.13840E-04   -0.16563E-04  4500   0.114E-02    0.103E-02
RMM:   3    -0.231314207650E+04    0.92520E-06   -0.11937E-05  2810   0.537E-03
 133 F= -.23332154E+04 E0= -.23332154E+04  d E =-.151733E-03  mag=     0.0000
       N       E                     dE             d eps       ncg     rms          rms(c)
DAV:   1    -0.231314214287E+04   -0.65448E-04   -0.30417E-02  4376   0.165E-01    0.573E-02
RMM:   2    -0.231314224411E+04   -0.10124E-03   -0.12444E-03  5658   0.299E-02    0.280E-02
RMM:   3    -0.231314223346E+04    0.10650E-04   -0.76246E-05  3088   0.896E-03    0.176E-02
RMM:   4    -0.231314223070E+04    0.27632E-05   -0.21860E-05  2858   0.465E-03
 134 F= -.23332156E+04 E0= -.23332156E+04  d E =-.135095E-03  mag=     0.0000
       N       E                     dE             d eps       ncg     rms          rms(c)
DAV:   1    -0.231314222699E+04    0.64693E-05   -0.17488E-03  5232   0.398E-02    0.142E-02
RMM:   2    -0.231314223294E+04   -0.59451E-05   -0.72251E-05  3556   0.779E-03
 135 F= -.23332156E+04 E0= -.23332156E+04  d E =-.132647E-03  mag=     0.0000
       N       E                     dE             d eps       ncg     rms          rms(c)
DAV:   1    -0.231314230750E+04   -0.80511E-04   -0.25689E-02  4388   0.154E-01    0.566E-02
RMM:   2    -0.231314239609E+04   -0.88585E-04   -0.10971E-03  5770   0.304E-02    0.285E-02
RMM:   3    -0.231314238682E+04    0.92656E-05   -0.80965E-05  3231   0.103E-02
 136 F= -.23332157E+04 E0= -.23332157E+04  d E =-.126253E-03  mag=     0.0000
       N       E                     dE             d eps       ncg     rms          rms(c)
DAV:   1    -0.231314238080E+04    0.15290E-04   -0.21826E-03  5088   0.450E-02    0.219E-02
RMM:   2    -0.231314238476E+04   -0.39637E-05   -0.89048E-05  3738   0.847E-03
 137 F= -.23332157E+04 E0= -.23332157E+04  d E =-.115948E-03  mag=     0.0000
       N       E                     dE             d eps       ncg     rms          rms(c)
DAV:   1    -0.231314242391E+04   -0.43112E-04   -0.25152E-02  4376   0.152E-01    0.548E-02
RMM:   2    -0.231314252131E+04   -0.97400E-04   -0.11777E-03  5815   0.300E-02    0.268E-02
RMM:   3    -0.231314251332E+04    0.79904E-05   -0.73059E-05  3085   0.965E-03
 138 F= -.23332158E+04 E0= -.23332158E+04  d E =-.100767E-03  mag=     0.0000
       N       E                     dE             d eps       ncg     rms          rms(c)
DAV:   1    -0.231314251143E+04    0.98782E-05   -0.11725E-03  5280   0.331E-02    0.174E-02
RMM:   2    -0.231314251490E+04   -0.34685E-05   -0.61295E-05  3352   0.645E-03
 139 F= -.23332158E+04 E0= -.23332158E+04  d E =-.961870E-04  mag=     0.0000
       N       E                     dE             d eps       ncg     rms          rms(c)
DAV:   1    -0.231314254269E+04   -0.31261E-04   -0.27628E-02  4400   0.162E-01    0.610E-02
RMM:   2    -0.231314265134E+04   -0.10864E-03   -0.13246E-03  5826   0.318E-02    0.297E-02
RMM:   3    -0.231314264166E+04    0.96746E-05   -0.88312E-05  3261   0.109E-02
 140 F= -.23332159E+04 E0= -.23332159E+04  d E =-.108884E-03  mag=     0.0000
       N       E                     dE             d eps       ncg     rms          rms(c)
DAV:   1    -0.231314263353E+04    0.17806E-04   -0.57699E-04  5416   0.237E-02    0.159E-02
RMM:   2    -0.231314263426E+04   -0.73091E-06   -0.34562E-05  3054   0.477E-03
 141 F= -.23332159E+04 E0= -.23332159E+04  d E =-.988359E-04  mag=     0.0000
       N       E                     dE             d eps       ncg     rms          rms(c)
DAV:   1    -0.231314267166E+04   -0.38129E-04   -0.24448E-02  4376   0.149E-01    0.546E-02
RMM:   2    -0.231314276068E+04   -0.89020E-04   -0.10913E-03  5762   0.285E-02    0.267E-02
RMM:   3    -0.231314275325E+04    0.74353E-05   -0.81565E-05  3122   0.103E-02
 142 F= -.23332160E+04 E0= -.23332160E+04  d E =-.884861E-04  mag=     0.0000
       N       E                     dE             d eps       ncg     rms          rms(c)
DAV:   1    -0.231314275147E+04    0.92095E-05   -0.69330E-04  5312   0.254E-02    0.142E-02
RMM:   2    -0.231314275350E+04   -0.20251E-05   -0.38081E-05  3111   0.498E-03
 143 F= -.23332160E+04 E0= -.23332160E+04  d E =-.833713E-04  mag=     0.0000
       N       E                     dE             d eps       ncg     rms          rms(c)
DAV:   1    -0.231314279005E+04   -0.38574E-04   -0.24260E-02  4376   0.149E-01    0.539E-02
RMM:   2    -0.231314286907E+04   -0.79024E-04   -0.98695E-04  5720   0.279E-02    0.263E-02
RMM:   3    -0.231314285861E+04    0.10463E-04   -0.61492E-05  3141   0.102E-02    0.160E-02
RMM:   4    -0.231314285630E+04    0.23084E-05   -0.18206E-05  2848   0.441E-03
 144 F= -.23332161E+04 E0= -.23332161E+04  d E =-.879668E-04  mag=     0.0000
       N       E                     dE             d eps       ncg     rms          rms(c)
DAV:   1    -0.231314285352E+04    0.50867E-05   -0.17499E-04  5168   0.133E-02    0.517E-03
RMM:   2    -0.231314285422E+04   -0.70222E-06   -0.10670E-05  2551   0.305E-03
 145 F= -.23332161E+04 E0= -.23332161E+04  d E =-.845578E-04  mag=     0.0000
       N       E                     dE             d eps       ncg     rms          rms(c)
DAV:   1    -0.231314284790E+04    0.56146E-05   -0.19704E-02  4376   0.134E-01    0.480E-02
RMM:   2    -0.231314290168E+04   -0.53771E-04   -0.68549E-04  5375   0.239E-02    0.238E-02
RMM:   3    -0.231314289366E+04    0.80163E-05   -0.48231E-05  3167   0.105E-02
 146 F= -.23332161E+04 E0= -.23332161E+04  d E =-.712619E-04  mag=     0.0000
       N       E                     dE             d eps       ncg     rms          rms(c)
DAV:   1    -0.231314288936E+04    0.12314E-04   -0.38366E-05  3808   0.593E-03    0.101E-02
RMM:   2    -0.231314288931E+04    0.49724E-07   -0.10060E-05  2578   0.307E-03
 147 F= -.23332161E+04 E0= -.23332161E+04  d E =-.676716E-04  mag=    -0.0000
       N       E                     dE             d eps       ncg     rms          rms(c)
DAV:   1    -0.231314292771E+04   -0.38343E-04   -0.16035E-02  4400   0.123E-01    0.452E-02
RMM:   2    -0.231314296899E+04   -0.41280E-04   -0.54376E-04  5358   0.214E-02    0.207E-02
RMM:   3    -0.231314296207E+04    0.69106E-05   -0.42523E-05  2942   0.938E-03
 148 F= -.23332162E+04 E0= -.23332162E+04  d E =-.690715E-04  mag=    -0.0000
       N       E                     dE             d eps       ncg     rms          rms(c)
DAV:   1    -0.231314295622E+04    0.12763E-04   -0.71620E-04  5280   0.263E-02    0.109E-02
RMM:   2    -0.231314295776E+04   -0.15395E-05   -0.27376E-05  2932   0.509E-03
 149 F= -.23332162E+04 E0= -.23332162E+04  d E =-.639284E-04  mag=    -0.0000
       N       E                     dE             d eps       ncg     rms          rms(c)
DAV:   1    -0.231314302275E+04   -0.66523E-04   -0.12282E-02  4400   0.103E-01    0.368E-02
RMM:   2    -0.231314305712E+04   -0.34370E-04   -0.43838E-04  5210   0.194E-02    0.182E-02
RMM:   3    -0.231314305313E+04    0.39843E-05   -0.37192E-05  2857   0.777E-03
 150 F= -.23332163E+04 E0= -.23332163E+04  d E =-.682776E-04  mag=    -0.0000
