       N       E                     dE             d eps       ncg     rms          rms(c)
DAV:   1     0.126906626645E+05    0.12691E+05   -0.83632E+05  4560   0.142E+03
DAV:   2    -0.112789176046E+04   -0.13819E+05   -0.13230E+05  5080   0.324E+02
DAV:   3    -0.249219983126E+04   -0.13643E+04   -0.13514E+04  5480   0.109E+02
DAV:   4    -0.252748849253E+04   -0.35289E+02   -0.35097E+02  5920   0.236E+01
DAV:   5    -0.252848295311E+04   -0.99446E+00   -0.99259E+00  5760   0.307E+00    0.171E+02
RMM:   6    -0.149325874301E+04    0.10352E+04   -0.19261E+03  4507   0.378E+01    0.727E+01
RMM:   7    -0.165438325416E+04   -0.16112E+03   -0.28386E+02  5140   0.141E+01    0.492E+01
RMM:   8    -0.171401546149E+04   -0.59632E+02   -0.48092E+01  5215   0.733E+00    0.418E+01
RMM:   9    -0.180604712122E+04   -0.92032E+02   -0.74736E+01  5222   0.778E+00    0.363E+01
RMM:  10    -0.193473754965E+04   -0.12869E+03   -0.60460E+01  5393   0.749E+00    0.319E+01
RMM:  11    -0.196689459612E+04   -0.32157E+02   -0.17133E+01  5464   0.360E+00    0.208E+01
RMM:  12    -0.207631475756E+04   -0.10942E+03   -0.46793E+01  4835   0.516E+00    0.171E+01
RMM:  13    -0.214422547105E+04   -0.67911E+02   -0.31159E+01  5145   0.436E+00    0.129E+01
RMM:  14    -0.226447127897E+04   -0.12025E+03   -0.10531E+02  4493   0.704E+00    0.913E+00
RMM:  15    -0.230804261217E+04   -0.43571E+02   -0.43520E+01  4519   0.475E+00    0.481E+00
RMM:  16    -0.231721857653E+04   -0.91760E+01   -0.11659E+01  5063   0.273E+00    0.463E+00
RMM:  17    -0.231864213975E+04   -0.14236E+01   -0.21268E+00  5819   0.850E-01    0.384E+00
RMM:  18    -0.232152093126E+04   -0.28788E+01   -0.17570E+00  4500   0.849E-01    0.214E+00
RMM:  19    -0.232287066274E+04   -0.13497E+01   -0.75363E-01  4634   0.608E-01    0.103E+00
RMM:  20    -0.232327531275E+04   -0.40465E+00   -0.30371E-01  4687   0.319E-01    0.665E-01
RMM:  21    -0.232339666602E+04   -0.12135E+00   -0.14796E-01  4829   0.206E-01    0.411E-01
RMM:  22    -0.232346992456E+04   -0.73259E-01   -0.53211E-02  4597   0.134E-01    0.238E-01
RMM:  23    -0.232349432597E+04   -0.24401E-01   -0.13219E-02  4748   0.802E-02    0.173E-01
RMM:  24    -0.232351754861E+04   -0.23223E-01   -0.72314E-03  4494   0.521E-02    0.102E-01
RMM:  25    -0.232353594332E+04   -0.18395E-01   -0.51100E-03  4511   0.505E-02    0.792E-02
RMM:  26    -0.232354283185E+04   -0.68885E-02   -0.19191E-03  4785   0.340E-02    0.624E-02
RMM:  27    -0.232354867314E+04   -0.58413E-02   -0.16215E-03  4488   0.245E-02    0.396E-02
RMM:  28    -0.232355080135E+04   -0.21282E-02   -0.54730E-04  4201   0.206E-02    0.217E-02
RMM:  29    -0.232355185199E+04   -0.10506E-02   -0.31758E-04  4077   0.116E-02    0.115E-02
RMM:  30    -0.232355215012E+04   -0.29813E-03   -0.85279E-05  3766   0.104E-02    0.823E-03
RMM:  31    -0.232355225633E+04   -0.10621E-03   -0.34710E-05  3347   0.477E-03    0.388E-03
RMM:  32    -0.232355231855E+04   -0.62218E-04   -0.13511E-05  2984   0.459E-03    0.260E-03
RMM:  33    -0.232355235055E+04   -0.32003E-04   -0.82936E-06  2925   0.287E-03    0.163E-03
RMM:  34    -0.232355236457E+04   -0.14021E-04   -0.45812E-06  2600   0.252E-03    0.962E-04
RMM:  35    -0.232355236821E+04   -0.36341E-05   -0.24573E-06  2498   0.187E-03
   1 F= -.23445420E+04 E0= -.23445420E+04  d E =-.497839E-06  mag=     4.0001
       N       E                     dE             d eps       ncg     rms          rms(c)
DAV:   1    -0.232355673415E+04   -0.43696E-02   -0.19395E+00  4480   0.620E-01    0.266E-01
RMM:   2    -0.232355657998E+04    0.15417E-03   -0.64655E-03  4176   0.376E-02    0.158E-01
RMM:   3    -0.232355700167E+04   -0.42170E-03   -0.17821E-03  4570   0.226E-02    0.264E-01
RMM:   4    -0.232355631289E+04    0.68879E-03   -0.85028E-04  3896   0.126E-02    0.607E-02
RMM:   5    -0.232355638525E+04   -0.72366E-04   -0.24037E-04  3187   0.768E-03    0.941E-02
RMM:   6    -0.232355630448E+04    0.80777E-04   -0.76682E-05  2910   0.497E-03    0.188E-02
RMM:   7    -0.232355630332E+04    0.11595E-05   -0.13151E-05  2649   0.226E-03
   2 F= -.23445437E+04 E0= -.23445437E+04  d E =-.779002E-06  mag=     4.0000
       N       E                     dE             d eps       ncg     rms          rms(c)
DAV:   1    -0.232354777866E+04    0.85258E-02   -0.77070E+00  4480   0.124E+00    0.531E-01
RMM:   2    -0.232354689263E+04    0.88603E-03   -0.23871E-02  4418   0.750E-02    0.320E-01
RMM:   3    -0.232354867986E+04   -0.17872E-02   -0.70806E-03  5022   0.446E-02    0.537E-01
RMM:   4    -0.232354596794E+04    0.27119E-02   -0.36222E-03  4690   0.245E-02    0.133E-01
RMM:   5    -0.232354617366E+04   -0.20572E-03   -0.96572E-04  4032   0.150E-02    0.175E-01
RMM:   6    -0.232354589551E+04    0.27815E-03   -0.30819E-04  3476   0.832E-03    0.401E-02
RMM:   7    -0.232354589115E+04    0.43599E-05   -0.44773E-05  2892   0.400E-03
   3 F= -.23445374E+04 E0= -.23445374E+04  d E =-.318058E-06  mag=     4.0000
       N       E                     dE             d eps       ncg     rms          rms(c)
DAV:   1    -0.232352913713E+04    0.16758E-01   -0.39442E+00  4480   0.101E+00    0.402E-01
RMM:   2    -0.232352903912E+04    0.98016E-04   -0.15596E-02  4148   0.713E-02    0.308E-01
RMM:   3    -0.232352937600E+04   -0.33688E-03   -0.44403E-03  4564   0.375E-02    0.344E-01
RMM:   4    -0.232352800064E+04    0.13754E-02   -0.25100E-03  4488   0.214E-02    0.643E-02
RMM:   5    -0.232352799579E+04    0.48566E-05   -0.31359E-04  3525   0.124E-02    0.368E-02
RMM:   6    -0.232352800615E+04   -0.10365E-04   -0.59995E-05  2941   0.418E-03    0.503E-02
RMM:   7    -0.232352798290E+04    0.23247E-04   -0.21678E-05  2699   0.304E-03    0.152E-02
RMM:   8    -0.232352798215E+04    0.75223E-06   -0.12256E-05  2782   0.204E-03
   4 F= -.23445172E+04 E0= -.23445172E+04  d E =-.735446E-06  mag=     4.0000
       N       E                     dE             d eps       ncg     rms          rms(c)
DAV:   1    -0.232353983155E+04   -0.11849E-01   -0.84089E+00  4480   0.159E+00    0.635E-01
RMM:   2    -0.232353862444E+04    0.12071E-02   -0.38136E-02  4211   0.112E-01    0.471E-01
RMM:   3    -0.232353959883E+04   -0.97438E-03   -0.10933E-02  5044   0.588E-02    0.547E-01
RMM:   4    -0.232353607767E+04    0.35212E-02   -0.71925E-03  5190   0.359E-02    0.199E-01
RMM:   5    -0.232353626918E+04   -0.19150E-03   -0.15835E-03  4266   0.242E-02    0.239E-01
RMM:   6    -0.232353574883E+04    0.52035E-03   -0.36448E-04  3542   0.844E-03    0.363E-02
RMM:   7    -0.232353572080E+04    0.28031E-04   -0.81527E-05  3189   0.438E-03    0.218E-02
RMM:   8    -0.232353571422E+04    0.65720E-05   -0.27412E-05  3021   0.355E-03
   5 F= -.23445259E+04 E0= -.23445259E+04  d E =-.341202E-06  mag=     4.0000
       N       E                     dE             d eps       ncg     rms          rms(c)
DAV:   1    -0.232354232743E+04   -0.66066E-02   -0.42119E+00  4560   0.110E+00    0.452E-01
RMM:   2    -0.232354219025E+04    0.13718E-03   -0.25060E-02  4241   0.860E-02    0.370E-01
RMM:   3    -0.232354162905E+04    0.56120E-03   -0.47476E-03  4500   0.408E-02    0.332E-01
RMM:   4    -0.232354043177E+04    0.11973E-02   -0.26387E-03  4658   0.211E-02    0.168E-01
RMM:   5    -0.232354043067E+04    0.10946E-05   -0.92547E-04  4302   0.156E-02    0.158E-01
RMM:   6    -0.232354019282E+04    0.23785E-03   -0.33095E-04  3637   0.873E-03    0.593E-02
RMM:   7    -0.232354016214E+04    0.30684E-04   -0.44200E-05  2969   0.403E-03    0.260E-02
RMM:   8    -0.232354015785E+04    0.42876E-05   -0.16617E-05  2823   0.265E-03
   6 F= -.23445287E+04 E0= -.23445287E+04  d E =-.375652E-06  mag=     4.0000
       N       E                     dE             d eps       ncg     rms          rms(c)
DAV:   1    -0.232353851809E+04    0.16441E-02   -0.83465E+00  4480   0.152E+00    0.673E-01
RMM:   2    -0.232353686615E+04    0.16519E-02   -0.48917E-02  4401   0.118E-01    0.506E-01
RMM:   3    -0.232353641011E+04    0.45604E-03   -0.99944E-03  4816   0.576E-02    0.549E-01
RMM:   4    -0.232353399750E+04    0.24126E-02   -0.47662E-03  4900   0.264E-02    0.281E-01
RMM:   5    -0.232353397415E+04    0.23351E-04   -0.24446E-03  5032   0.223E-02    0.244E-01
RMM:   6    -0.232353327831E+04    0.69584E-03   -0.73842E-04  4148   0.132E-02    0.789E-02
RMM:   7    -0.232353323284E+04    0.45471E-04   -0.95201E-05  3112   0.485E-03    0.345E-02
RMM:   8    -0.232353322449E+04    0.83485E-05   -0.36409E-05  2973   0.356E-03
   7 F= -.23445239E+04 E0= -.23445239E+04  d E =-.639770E-06  mag=     4.0000
       N       E                     dE             d eps       ncg     rms          rms(c)
DAV:   1    -0.232354236338E+04   -0.91305E-02   -0.40102E+00  4480   0.102E+00    0.457E-01
RMM:   2    -0.232354175668E+04    0.60671E-03   -0.21695E-02  4226   0.836E-02    0.323E-01
RMM:   3    -0.232354229721E+04   -0.54053E-03   -0.52660E-03  4235   0.411E-02    0.436E-01
RMM:   4    -0.232354054569E+04    0.17515E-02   -0.27390E-03  4677   0.212E-02    0.174E-01
RMM:   5    -0.232354067068E+04   -0.12500E-03   -0.11274E-03  4203   0.165E-02    0.172E-01
RMM:   6    -0.232354033889E+04    0.33180E-03   -0.34599E-04  3702   0.918E-03    0.590E-02
RMM:   7    -0.232354031196E+04    0.26926E-04   -0.52274E-05  2951   0.419E-03    0.284E-02
RMM:   8    -0.232354030900E+04    0.29570E-05   -0.21915E-05  2835   0.285E-03
   8 F= -.23445315E+04 E0= -.23445315E+04  d E =-.923672E-06  mag=     4.0000
       N       E                     dE             d eps       ncg     rms          rms(c)
DAV:   1    -0.232354778461E+04   -0.74727E-02   -0.78723E+00  4480   0.134E+00    0.568E-01
RMM:   2    -0.232354641032E+04    0.13743E-02   -0.36227E-02  4227   0.102E-01    0.342E-01
RMM:   3    -0.232354756800E+04   -0.11577E-02   -0.89961E-03  4426   0.567E-02    0.543E-01
RMM:   4    -0.232354475274E+04    0.28153E-02   -0.42415E-03  5122   0.284E-02    0.176E-01
RMM:   5    -0.232354479069E+04   -0.37952E-04   -0.10440E-03  4404   0.152E-02    0.147E-01
RMM:   6    -0.232354457861E+04    0.21208E-03   -0.34941E-04  3647   0.914E-03    0.654E-02
RMM:   7    -0.232354453732E+04    0.41289E-04   -0.60856E-05  3105   0.442E-03    0.245E-02
RMM:   8    -0.232354453999E+04   -0.26774E-05   -0.22267E-05  2912   0.309E-03
   9 F= -.23445323E+04 E0= -.23445323E+04  d E =-.260743E-06  mag=     4.0000
       N       E                     dE             d eps       ncg     rms          rms(c)
DAV:   1    -0.232355852892E+04   -0.13992E-01   -0.40580E+00  4480   0.108E+00    0.414E-01
RMM:   2    -0.232355765664E+04    0.87227E-03   -0.17416E-02  4112   0.707E-02    0.231E-01
RMM:   3    -0.232355699755E+04    0.65909E-03   -0.33234E-03  4401   0.366E-02    0.113E-01
RMM:   4    -0.232355720246E+04   -0.20491E-03   -0.14410E-03  4556   0.161E-02    0.157E-01
RMM:   5    -0.232355696440E+04    0.23806E-03   -0.29273E-04  3401   0.104E-02    0.488E-02
RMM:   6    -0.232355694391E+04    0.20491E-04   -0.40773E-05  2866   0.370E-03    0.284E-02
RMM:   7    -0.232355694000E+04    0.39027E-05   -0.25439E-05  2683   0.294E-03
  10 F= -.23445471E+04 E0= -.23445471E+04  d E =-.229985E-06  mag=     4.0000
       N       E                     dE             d eps       ncg     rms          rms(c)
DAV:   1    -0.232351625794E+04    0.40686E-01   -0.84594E+00  4480   0.160E+00    0.636E-01
RMM:   2    -0.232351397514E+04    0.22828E-02   -0.41403E-02  4190   0.119E-01    0.399E-01
RMM:   3    -0.232351619695E+04   -0.22218E-02   -0.13015E-02  5143   0.630E-02    0.687E-01
RMM:   4    -0.232351186912E+04    0.43278E-02   -0.73698E-03  5289   0.344E-02    0.186E-01
RMM:   5    -0.232351197087E+04   -0.10175E-03   -0.13527E-03  4427   0.181E-02    0.172E-01
RMM:   6    -0.232351160571E+04    0.36517E-03   -0.36384E-04  3552   0.917E-03    0.448E-02
RMM:   7    -0.232351157686E+04    0.28844E-04   -0.81334E-05  3246   0.449E-03    0.183E-02
RMM:   8    -0.232351157556E+04    0.13068E-05   -0.14787E-05  2899   0.339E-03
  11 F= -.23445007E+04 E0= -.23445007E+04  d E =-.103606E-05  mag=     4.0000
       N       E                     dE             d eps       ncg     rms          rms(c)
DAV:   1    -0.232351783544E+04   -0.62586E-02   -0.41958E+00  4480   0.109E+00    0.437E-01
RMM:   2    -0.232351693331E+04    0.90213E-03   -0.20546E-02  4225   0.748E-02    0.292E-01
RMM:   3    -0.232351758103E+04   -0.64772E-03   -0.53957E-03  4821   0.414E-02    0.390E-01
RMM:   4    -0.232351575938E+04    0.18216E-02   -0.35851E-03  5145   0.258E-02    0.107E-01
RMM:   5    -0.232351586363E+04   -0.10424E-03   -0.56488E-04  3745   0.108E-02    0.143E-01
RMM:   6    -0.232351568204E+04    0.18158E-03   -0.19846E-04  3024   0.643E-03    0.310E-02
RMM:   7    -0.232351567202E+04    0.10027E-04   -0.41901E-05  3052   0.338E-03    0.138E-02
RMM:   8    -0.232351567427E+04   -0.22537E-05   -0.50338E-06  2651   0.242E-03
  12 F= -.23445067E+04 E0= -.23445067E+04  d E =-.331179E-06  mag=     4.0000
       N       E                     dE             d eps       ncg     rms          rms(c)
DAV:   1    -0.232357596327E+04   -0.60291E-01   -0.82625E+00  4480   0.136E+00    0.550E-01
RMM:   2    -0.232357584638E+04    0.11689E-03   -0.42666E-02  4396   0.102E-01    0.394E-01
RMM:   3    -0.232357676690E+04   -0.92052E-03   -0.85498E-03  5015   0.523E-02    0.517E-01
RMM:   4    -0.232357403496E+04    0.27319E-02   -0.52123E-03  5190   0.301E-02    0.254E-01
RMM:   5    -0.232357390262E+04    0.13233E-03   -0.13481E-03  4097   0.187E-02    0.190E-01
RMM:   6    -0.232357353122E+04    0.37141E-03   -0.39108E-04  3780   0.969E-03    0.562E-02
RMM:   7    -0.232357350912E+04    0.22095E-04   -0.80399E-05  3110   0.470E-03    0.187E-02
RMM:   8    -0.232357351766E+04   -0.85398E-05   -0.10343E-05  2867   0.283E-03
  13 F= -.23445616E+04 E0= -.23445616E+04  d E =-.790687E-06  mag=     4.0000
       N       E                     dE             d eps       ncg     rms          rms(c)
DAV:   1    -0.232356150216E+04    0.12007E-01   -0.23704E+00  4560   0.762E-01    0.315E-01
RMM:   2    -0.232356163099E+04   -0.12883E-03   -0.12560E-02  4104   0.573E-02    0.218E-01
RMM:   3    -0.232356201109E+04   -0.38010E-03   -0.27905E-03  4283   0.307E-02    0.283E-01
RMM:   4    -0.232356113887E+04    0.87222E-03   -0.16504E-03  4626   0.182E-02    0.116E-01
RMM:   5    -0.232356115141E+04   -0.12545E-04   -0.36796E-04  3314   0.100E-02    0.110E-01
RMM:   6    -0.232356104051E+04    0.11090E-03   -0.11757E-04  3076   0.578E-03    0.265E-02
RMM:   7    -0.232356103603E+04    0.44810E-05   -0.24651E-05  2909   0.285E-03
  14 F= -.23445504E+04 E0= -.23445504E+04  d E =-.668635E-06  mag=     4.0000
       N       E                     dE             d eps       ncg     rms          rms(c)
DAV:   1    -0.232354171458E+04    0.19326E-01   -0.11620E+00  4560   0.544E-01    0.335E-01
RMM:   2    -0.232354169364E+04    0.20939E-04   -0.44695E-03  3957   0.356E-02    0.207E-01
RMM:   3    -0.232354260113E+04   -0.90749E-03   -0.22329E-03  4452   0.260E-02    0.301E-01
RMM:   4    -0.232354152362E+04    0.10775E-02   -0.11362E-03  4287   0.157E-02    0.375E-02
RMM:   5    -0.232354152413E+04   -0.51071E-06   -0.10520E-04  3107   0.531E-03    0.276E-02
RMM:   6    -0.232354152225E+04    0.18809E-05   -0.20088E-05  2684   0.269E-03
  15 F= -.23445314E+04 E0= -.23445314E+04  d E =-.364008E-06  mag=     4.0000
       N       E                     dE             d eps       ncg     rms          rms(c)
DAV:   1    -0.232356811160E+04   -0.26587E-01   -0.62830E-01  4840   0.404E-01    0.362E-01
RMM:   2    -0.232356664990E+04    0.14617E-02   -0.78284E-03  4332   0.435E-02    0.216E-01
RMM:   3    -0.232356622260E+04    0.42731E-03   -0.12017E-03  3966   0.239E-02    0.139E-01
RMM:   4    -0.232356660370E+04   -0.38110E-03   -0.10948E-03  4191   0.149E-02    0.223E-01
RMM:   5    -0.232356607822E+04    0.52548E-03   -0.44214E-04  4015   0.109E-02    0.473E-02
RMM:   6    -0.232356609236E+04   -0.14137E-04   -0.10417E-04  2980   0.496E-03    0.572E-02
RMM:   7    -0.232356605735E+04    0.35009E-04   -0.29958E-05  2621   0.346E-03    0.836E-03
RMM:   8    -0.232356605665E+04    0.69405E-06   -0.72584E-06  2474   0.165E-03
  16 F= -.23445550E+04 E0= -.23445550E+04  d E =-.481644E-06  mag=     4.0000
       N       E                     dE             d eps       ncg     rms          rms(c)
DAV:   1    -0.232352210460E+04    0.43953E-01   -0.12729E+00  5080   0.576E-01    0.612E-01
RMM:   2    -0.232351674156E+04    0.53630E-02   -0.24987E-02  4536   0.785E-02    0.374E-01
RMM:   3    -0.232351561806E+04    0.11235E-02   -0.44676E-03  4576   0.480E-02    0.302E-01
RMM:   4    -0.232351603580E+04   -0.41773E-03   -0.33640E-03  5151   0.256E-02    0.356E-01
RMM:   5    -0.232351479795E+04    0.12378E-02   -0.12368E-03  4871   0.165E-02    0.131E-01
RMM:   6    -0.232351472964E+04    0.68307E-04   -0.44735E-04  3546   0.102E-02    0.990E-02
RMM:   7    -0.232351462457E+04    0.10507E-03   -0.73738E-05  3038   0.521E-03    0.117E-02
RMM:   8    -0.232351462291E+04    0.16604E-05   -0.14874E-05  2755   0.254E-03
  17 F= -.23445050E+04 E0= -.23445050E+04  d E =-.515189E-06  mag=     4.0000
       N       E                     dE             d eps       ncg     rms          rms(c)
DAV:   1    -0.232356041986E+04   -0.45795E-01   -0.61786E-01  4800   0.408E-01    0.374E-01
RMM:   2    -0.232355876003E+04    0.16598E-02   -0.91760E-03  4352   0.458E-02    0.233E-01
RMM:   3    -0.232355860553E+04    0.15449E-03   -0.19159E-03  4356   0.271E-02    0.235E-01
RMM:   4    -0.232355844427E+04    0.16127E-03   -0.13286E-03  4514   0.164E-02    0.203E-01
RMM:   5    -0.232355810664E+04    0.33762E-03   -0.47487E-04  4048   0.103E-02    0.934E-02
RMM:   6    -0.232355804196E+04    0.64682E-04   -0.17666E-04  3153   0.738E-03    0.514E-02
RMM:   7    -0.232355801479E+04    0.27174E-04   -0.22421E-05  2725   0.348E-03    0.769E-03
RMM:   8    -0.232355801426E+04    0.52710E-06   -0.62086E-06  2567   0.186E-03
  18 F= -.23445476E+04 E0= -.23445476E+04  d E =-.517015E-06  mag=     4.0000
       N       E                     dE             d eps       ncg     rms          rms(c)
DAV:   1    -0.232354257667E+04    0.15438E-01   -0.11803E+00  4480   0.549E-01    0.327E-01
RMM:   2    -0.232354269727E+04   -0.12059E-03   -0.64493E-03  4054   0.405E-02    0.202E-01
RMM:   3    -0.232354367382E+04   -0.97656E-03   -0.22991E-03  4616   0.292E-02    0.328E-01
RMM:   4    -0.232354254519E+04    0.11286E-02   -0.12766E-03  4623   0.167E-02    0.832E-02
RMM:   5    -0.232354254310E+04    0.20924E-05   -0.25092E-04  3210   0.714E-03    0.734E-02
RMM:   6    -0.232354248989E+04    0.53206E-04   -0.73854E-05  2872   0.484E-03    0.219E-02
RMM:   7    -0.232354248508E+04    0.48085E-05   -0.91948E-06  2714   0.241E-03
  19 F= -.23445321E+04 E0= -.23445321E+04  d E =-.480823E-06  mag=     4.0000
       N       E                     dE             d eps       ncg     rms          rms(c)
DAV:   1    -0.232355576382E+04   -0.13274E-01   -0.59495E-01  4560   0.411E-01    0.244E-01
RMM:   2    -0.232355581333E+04   -0.49508E-04   -0.30149E-03  3844   0.309E-02    0.151E-01
RMM:   3    -0.232355603091E+04   -0.21758E-03   -0.85713E-04  3767   0.176E-02    0.186E-01
RMM:   4    -0.232355579862E+04    0.23228E-03   -0.58352E-04  3878   0.103E-02    0.104E-01
RMM:   5    -0.232355572188E+04    0.76747E-04   -0.13226E-04  3193   0.673E-03    0.411E-02
RMM:   6    -0.232355570970E+04    0.12180E-04   -0.42840E-05  2764   0.398E-03    0.288E-02
RMM:   7    -0.232355570162E+04    0.80819E-05   -0.74870E-06  2515   0.234E-03
  20 F= -.23445449E+04 E0= -.23445449E+04  d E =-.386353E-06  mag=     4.0000
       N       E                     dE             d eps       ncg     rms          rms(c)
DAV:   1    -0.232354750956E+04    0.82001E-02   -0.11862E+00  4480   0.544E-01    0.357E-01
RMM:   2    -0.232354771300E+04   -0.20344E-03   -0.51629E-03  3939   0.379E-02    0.232E-01
RMM:   3    -0.232354892190E+04   -0.12089E-02   -0.25185E-03  4159   0.280E-02    0.398E-01
RMM:   4    -0.232354756412E+04    0.13578E-02   -0.16010E-03  4503   0.170E-02    0.113E-01
RMM:   5    -0.232354748078E+04    0.83342E-04   -0.21693E-04  3484   0.863E-03    0.397E-02
RMM:   6    -0.232354747945E+04    0.13301E-05   -0.31089E-05  2831   0.365E-03
  21 F= -.23445375E+04 E0= -.23445375E+04  d E =-.629043E-06  mag=     4.0000
       N       E                     dE             d eps       ncg     rms          rms(c)
DAV:   1    -0.232353734481E+04    0.10136E-01   -0.59117E-01  4880   0.388E-01    0.293E-01
RMM:   2    -0.232353702839E+04    0.31642E-03   -0.54732E-03  4162   0.340E-02    0.216E-01
RMM:   3    -0.232353728561E+04   -0.25721E-03   -0.17905E-03  4500   0.226E-02    0.277E-01
RMM:   4    -0.232353662874E+04    0.65686E-03   -0.84395E-04  4023   0.136E-02    0.121E-01
RMM:   5    -0.232353665961E+04   -0.30864E-04   -0.38693E-04  3459   0.878E-03    0.111E-01
RMM:   6    -0.232353652878E+04    0.13083E-03   -0.14897E-04  3212   0.631E-03    0.331E-02
RMM:   7    -0.232353651884E+04    0.99415E-05   -0.10270E-05  2661   0.263E-03
  22 F= -.23445264E+04 E0= -.23445264E+04  d E =-.443112E-06  mag=     4.0000
       N       E                     dE             d eps       ncg     rms          rms(c)
DAV:   1    -0.232356049472E+04   -0.23966E-01   -0.12182E+00  5000   0.554E-01    0.502E-01
RMM:   2    -0.232355764685E+04    0.28479E-02   -0.16466E-02  4589   0.583E-02    0.319E-01
RMM:   3    -0.232355695825E+04    0.68860E-03   -0.31099E-03  4451   0.354E-02    0.274E-01
RMM:   4    -0.232355727231E+04   -0.31406E-03   -0.24475E-03  4883   0.212E-02    0.316E-01
RMM:   5    -0.232355635123E+04    0.92109E-03   -0.78209E-04  4513   0.134E-02    0.959E-02
RMM:   6    -0.232355632405E+04    0.27180E-04   -0.28907E-04  3337   0.833E-03    0.751E-02
RMM:   7    -0.232355626014E+04    0.63911E-04   -0.47865E-05  2888   0.453E-03    0.101E-02
RMM:   8    -0.232355625858E+04    0.15563E-05   -0.97745E-06  2702   0.222E-03
  23 F= -.23445456E+04 E0= -.23445456E+04  d E =-.556620E-06  mag=     4.0000
       N       E                     dE             d eps       ncg     rms          rms(c)
DAV:   1    -0.232355119820E+04    0.50619E-02   -0.60860E-01  4720   0.393E-01    0.237E-01
RMM:   2    -0.232355135773E+04   -0.15953E-03   -0.32060E-03  3767   0.283E-02    0.145E-01
RMM:   3    -0.232355152320E+04   -0.16547E-03   -0.86933E-04  4284   0.180E-02    0.161E-01
RMM:   4    -0.232355131083E+04    0.21237E-03   -0.42948E-04  3511   0.919E-03    0.655E-02
RMM:   5    -0.232355128030E+04    0.30532E-04   -0.69988E-05  2860   0.518E-03    0.345E-02
RMM:   6    -0.232355126840E+04    0.11901E-04   -0.17853E-05  2555   0.283E-03    0.122E-02
RMM:   7    -0.232355126631E+04    0.20880E-05   -0.35355E-06  2338   0.165E-03
  24 F= -.23445405E+04 E0= -.23445405E+04  d E =-.431550E-06  mag=     4.0000
       N       E                     dE             d eps       ncg     rms          rms(c)
DAV:   1    -0.232354125791E+04    0.10010E-01   -0.12481E+00  5080   0.560E-01    0.525E-01
RMM:   2    -0.232353827846E+04    0.29794E-02   -0.18457E-02  4399   0.655E-02    0.312E-01
RMM:   3    -0.232353786619E+04    0.41228E-03   -0.33534E-03  4505   0.403E-02    0.298E-01
RMM:   4    -0.232353774392E+04    0.12227E-03   -0.26630E-03  5017   0.228E-02    0.270E-01
RMM:   5    -0.232353708852E+04    0.65539E-03   -0.87979E-04  4766   0.142E-02    0.128E-01
RMM:   6    -0.232353698176E+04    0.10676E-03   -0.29271E-04  3409   0.835E-03    0.750E-02
RMM:   7    -0.232353692674E+04    0.55021E-04   -0.39685E-05  2882   0.450E-03    0.117E-02
RMM:   8    -0.232353692598E+04    0.76050E-06   -0.11977E-05  2739   0.227E-03
  25 F= -.23445269E+04 E0= -.23445269E+04  d E =-.573335E-06  mag=     4.0000
       N       E                     dE             d eps       ncg     rms          rms(c)
DAV:   1    -0.232354834366E+04   -0.11417E-01   -0.61687E-01  4960   0.428E-01    0.337E-01
RMM:   2    -0.232354719285E+04    0.11508E-02   -0.73938E-03  4209   0.421E-02    0.191E-01
RMM:   3    -0.232354716681E+04    0.26040E-04   -0.12194E-03  4052   0.244E-02    0.187E-01
RMM:   4    -0.232354705351E+04    0.11330E-03   -0.10144E-03  4254   0.143E-02    0.151E-01
RMM:   5    -0.232354686065E+04    0.19286E-03   -0.31265E-04  4066   0.896E-03    0.832E-02
RMM:   6    -0.232354681726E+04    0.43390E-04   -0.11251E-04  2896   0.532E-03    0.465E-02
RMM:   7    -0.232354679556E+04    0.21704E-04   -0.15471E-05  2607   0.326E-03    0.745E-03
RMM:   8    -0.232354679478E+04    0.78035E-06   -0.67921E-06  2483   0.156E-03
  26 F= -.23445369E+04 E0= -.23445369E+04  d E =-.543247E-06  mag=     4.0000
       N       E                     dE             d eps       ncg     rms          rms(c)
DAV:   1    -0.232355173863E+04   -0.49431E-02   -0.12324E+00  4640   0.536E-01    0.436E-01
RMM:   2    -0.232355011434E+04    0.16243E-02   -0.99378E-03  4339   0.466E-02    0.238E-01
RMM:   3    -0.232354977655E+04    0.33779E-03   -0.16076E-03  4264   0.257E-02    0.120E-01
RMM:   4    -0.232355001408E+04   -0.23753E-03   -0.91435E-04  4447   0.138E-02    0.175E-01
RMM:   5    -0.232354972067E+04    0.29341E-03   -0.28028E-04  3274   0.841E-03    0.467E-02
RMM:   6    -0.232354971572E+04    0.49435E-05   -0.64991E-05  2855   0.437E-03
  27 F= -.23445388E+04 E0= -.23445388E+04  d E =-.468230E-06  mag=     4.0000
       N       E                     dE             d eps       ncg     rms          rms(c)
DAV:   1    -0.232353648723E+04    0.13233E-01   -0.62135E-01  4600   0.372E-01    0.266E-01
RMM:   2    -0.232353642224E+04    0.64997E-04   -0.42215E-03  4093   0.300E-02    0.179E-01
RMM:   3    -0.232353699871E+04   -0.57648E-03   -0.15351E-03  4233   0.192E-02    0.296E-01
RMM:   4    -0.232353625274E+04    0.74597E-03   -0.76339E-04  3934   0.127E-02    0.847E-02
RMM:   5    -0.232353626921E+04   -0.16468E-04   -0.23071E-04  3398   0.764E-03    0.806E-02
RMM:   6    -0.232353619175E+04    0.77467E-04   -0.82968E-05  2942   0.532E-03    0.167E-02
RMM:   7    -0.232353618870E+04    0.30485E-05   -0.75153E-06  2553   0.207E-03
  28 F= -.23445254E+04 E0= -.23445254E+04  d E =-.547087E-06  mag=     4.0000
       N       E                     dE             d eps       ncg     rms          rms(c)
DAV:   1    -0.232355490196E+04   -0.18710E-01   -0.12679E+00  5040   0.551E-01    0.565E-01
RMM:   2    -0.232355022894E+04    0.46730E-02   -0.20041E-02  4459   0.638E-02    0.341E-01
RMM:   3    -0.232355206761E+04   -0.18387E-02   -0.66294E-03  4382   0.444E-02    0.577E-01
RMM:   4    -0.232354908522E+04    0.29824E-02   -0.29476E-03  4837   0.236E-02    0.165E-01
RMM:   5    -0.232354915523E+04   -0.70015E-04   -0.88302E-04  4562   0.133E-02    0.164E-01
RMM:   6    -0.232354886117E+04    0.29407E-03   -0.44445E-04  3741   0.102E-02    0.557E-02
RMM:   7    -0.232354882166E+04    0.39503E-04   -0.41237E-05  2971   0.425E-03    0.113E-02
RMM:   8    -0.232354882049E+04    0.11780E-05   -0.12227E-05  2695   0.259E-03
  29 F= -.23445388E+04 E0= -.23445388E+04  d E =-.447601E-06  mag=     4.0000
       N       E                     dE             d eps       ncg     rms          rms(c)
DAV:   1    -0.232354720296E+04    0.16187E-02   -0.63446E-01  4960   0.384E-01    0.380E-01
RMM:   2    -0.232354531997E+04    0.18830E-02   -0.88596E-03  4348   0.437E-02    0.230E-01
RMM:   3    -0.232354641407E+04   -0.10941E-02   -0.30025E-03  4457   0.274E-02    0.420E-01
RMM:   4    -0.232354484043E+04    0.15736E-02   -0.14247E-03  4371   0.165E-02    0.955E-02
RMM:   5    -0.232354478281E+04    0.57620E-04   -0.24237E-04  3718   0.791E-03    0.506E-02
RMM:   6    -0.232354478460E+04   -0.17848E-05   -0.11036E-04  2946   0.582E-03    0.497E-02
RMM:   7    -0.232354475376E+04    0.30839E-04   -0.27484E-05  2681   0.354E-03    0.799E-03
RMM:   8    -0.232354475307E+04    0.68922E-06   -0.69773E-06  2459   0.182E-03
  30 F= -.23445345E+04 E0= -.23445345E+04  d E =-.534917E-06  mag=     4.0000
       N       E                     dE             d eps       ncg     rms          rms(c)
DAV:   1    -0.232355542649E+04   -0.10673E-01   -0.12141E+00  4560   0.536E-01    0.367E-01
RMM:   2    -0.232355527560E+04    0.15089E-03   -0.74207E-03  4219   0.424E-02    0.228E-01
RMM:   3    -0.232355668848E+04   -0.14129E-02   -0.29653E-03  4722   0.297E-02    0.407E-01
RMM:   4    -0.232355505108E+04    0.16374E-02   -0.15691E-03  4546   0.174E-02    0.794E-02
RMM:   5    -0.232355511030E+04   -0.59221E-04   -0.34650E-04  3420   0.886E-03    0.994E-02
RMM:   6    -0.232355500482E+04    0.10547E-03   -0.10210E-04  2852   0.522E-03    0.166E-02
RMM:   7    -0.232355500266E+04    0.21647E-05   -0.15637E-05  2674   0.214E-03
  31 F= -.23445444E+04 E0= -.23445444E+04  d E =-.464157E-06  mag=     4.0000
       N       E                     dE             d eps       ncg     rms          rms(c)
DAV:   1    -0.232353337478E+04    0.21630E-01   -0.60857E-01  4680   0.408E-01    0.260E-01
RMM:   2    -0.232353327674E+04    0.98039E-04   -0.32887E-03  3760   0.300E-02    0.163E-01
RMM:   3    -0.232353409053E+04   -0.81379E-03   -0.17883E-03  4961   0.215E-02    0.288E-01
RMM:   4    -0.232353310325E+04    0.98729E-03   -0.81148E-04  4244   0.133E-02    0.509E-02
RMM:   5    -0.232353309614E+04    0.71028E-05   -0.12902E-04  2949   0.524E-03    0.473E-02
RMM:   6    -0.232353307458E+04    0.21562E-04   -0.24276E-05  2624   0.284E-03    0.916E-03
RMM:   7    -0.232353307311E+04    0.14703E-05   -0.87578E-06  2574   0.174E-03
  32 F= -.23445230E+04 E0= -.23445230E+04  d E =-.434013E-06  mag=     4.0000
       N       E                     dE             d eps       ncg     rms          rms(c)
DAV:   1    -0.232356614938E+04   -0.33075E-01   -0.12044E+00  4760   0.573E-01    0.392E-01
RMM:   2    -0.232356516315E+04    0.98623E-03   -0.78513E-03  4119   0.454E-02    0.227E-01
RMM:   3    -0.232356589824E+04   -0.73509E-03   -0.28698E-03  4430   0.316E-02    0.303E-01
RMM:   4    -0.232356476787E+04    0.11304E-02   -0.12639E-03  4639   0.169E-02    0.621E-02
RMM:   5    -0.232356477446E+04   -0.65862E-05   -0.17862E-04  3174   0.684E-03    0.656E-02
RMM:   6    -0.232356474567E+04    0.28788E-04   -0.65430E-05  2825   0.428E-03    0.351E-02
RMM:   7    -0.232356473384E+04    0.11830E-04   -0.13746E-05  2719   0.258E-03    0.764E-03
RMM:   8    -0.232356473362E+04    0.22324E-06   -0.44619E-06  2541   0.186E-03
  33 F= -.23445540E+04 E0= -.23445540E+04  d E =-.571627E-06  mag=     4.0000
       N       E                     dE             d eps       ncg     rms          rms(c)
DAV:   1    -0.232352479950E+04    0.39934E-01   -0.61636E-01  5200   0.421E-01    0.399E-01
RMM:   2    -0.232352241490E+04    0.23846E-02   -0.98874E-03  4242   0.464E-02    0.220E-01
RMM:   3    -0.232352283939E+04   -0.42449E-03   -0.26566E-03  4168   0.313E-02    0.315E-01
RMM:   4    -0.232352185504E+04    0.98435E-03   -0.12401E-03  4435   0.159E-02    0.110E-01
RMM:   5    -0.232352190855E+04   -0.53514E-04   -0.38444E-04  3874   0.924E-03    0.123E-01
RMM:   6    -0.232352174846E+04    0.16009E-03   -0.17510E-04  3124   0.694E-03    0.339E-02
RMM:   7    -0.232352173424E+04    0.14222E-04   -0.19804E-05  2716   0.316E-03    0.811E-03
RMM:   8    -0.232352173353E+04    0.70650E-06   -0.58039E-06  2517   0.200E-03
  34 F= -.23445117E+04 E0= -.23445117E+04  d E =-.508617E-06  mag=     4.0000
       N       E                     dE             d eps       ncg     rms          rms(c)
DAV:   1    -0.232357053158E+04   -0.48797E-01   -0.12409E+00  5040   0.587E-01    0.534E-01
RMM:   2    -0.232356627606E+04    0.42555E-02   -0.17214E-02  4479   0.629E-02    0.301E-01
RMM:   3    -0.232356741848E+04   -0.11424E-02   -0.47446E-03  4283   0.394E-02    0.470E-01
RMM:   4    -0.232356546757E+04    0.19509E-02   -0.22305E-03  4751   0.209E-02    0.164E-01
RMM:   5    -0.232356551797E+04   -0.50401E-04   -0.76890E-04  4454   0.127E-02    0.158E-01
RMM:   6    -0.232356523728E+04    0.28069E-03   -0.34799E-04  3609   0.938E-03    0.466E-02
RMM:   7    -0.232356520982E+04    0.27460E-04   -0.37556E-05  2985   0.413E-03    0.106E-02
RMM:   8    -0.232356520838E+04    0.14404E-05   -0.11371E-05  2696   0.260E-03
  35 F= -.23445545E+04 E0= -.23445545E+04  d E =-.486756E-06  mag=     4.0000
       N       E                     dE             d eps       ncg     rms          rms(c)
DAV:   1    -0.232354870104E+04    0.16509E-01   -0.61163E-01  4720   0.402E-01    0.278E-01
RMM:   2    -0.232354827044E+04    0.43060E-03   -0.50510E-03  4192   0.330E-02    0.171E-01
RMM:   3    -0.232354870353E+04   -0.43309E-03   -0.14719E-03  3984   0.213E-02    0.274E-01
RMM:   4    -0.232354805285E+04    0.65068E-03   -0.67897E-04  3818   0.118E-02    0.875E-02
RMM:   5    -0.232354806864E+04   -0.15792E-04   -0.22961E-04  3560   0.756E-03    0.807E-02
RMM:   6    -0.232354799739E+04    0.71252E-04   -0.89712E-05  2933   0.539E-03    0.221E-02
RMM:   7    -0.232354799101E+04    0.63741E-05   -0.79254E-06  2580   0.245E-03
  36 F= -.23445375E+04 E0= -.23445375E+04  d E =-.516087E-06  mag=     4.0000
       N       E                     dE             d eps       ncg     rms          rms(c)
DAV:   1    -0.232355267423E+04   -0.46768E-02   -0.11907E+00  4680   0.565E-01    0.348E-01
RMM:   2    -0.232355240470E+04    0.26953E-03   -0.65806E-03  4070   0.425E-02    0.201E-01
RMM:   3    -0.232355220723E+04    0.19747E-03   -0.11158E-03  4269   0.223E-02    0.649E-02
RMM:   4    -0.232355222153E+04   -0.14300E-04   -0.27057E-04  3704   0.858E-03    0.471E-02
RMM:   5    -0.232355221421E+04    0.73200E-05   -0.61162E-05  2945   0.576E-03
  37 F= -.23445419E+04 E0= -.23445419E+04  d E =-.486410E-06  mag=     4.0000
