       N       E                     dE             d eps       ncg     rms          rms(c)
DAV:   1     0.130878054917E+05    0.13088E+05   -0.84352E+05  4536   0.144E+03
DAV:   2    -0.100547846831E+04   -0.14093E+05   -0.13466E+05  4920   0.331E+02
DAV:   3    -0.247986089861E+04   -0.14744E+04   -0.14555E+04  5528   0.115E+02
DAV:   4    -0.252520089994E+04   -0.45340E+02   -0.45063E+02  6680   0.288E+01
DAV:   5    -0.252617550253E+04   -0.97460E+00   -0.97220E+00  6232   0.354E+00    0.170E+02
RMM:   6    -0.149984501322E+04    0.10263E+04   -0.19467E+03  4466   0.383E+01    0.740E+01
RMM:   7    -0.169164943613E+04   -0.19180E+03   -0.30665E+02  5171   0.142E+01    0.646E+01
RMM:   8    -0.170752434583E+04   -0.15875E+02   -0.10539E+02  5485   0.873E+00    0.498E+01
RMM:   9    -0.174668033164E+04   -0.39156E+02   -0.64532E+01  4898   0.733E+00    0.370E+01
RMM:  10    -0.187271856486E+04   -0.12604E+03   -0.60157E+01  4863   0.777E+00    0.226E+01
RMM:  11    -0.200283728161E+04   -0.13012E+03   -0.54237E+01  4871   0.682E+00    0.196E+01
RMM:  12    -0.205502539917E+04   -0.52188E+02   -0.19580E+01  5152   0.371E+00    0.187E+01
RMM:  13    -0.212086417166E+04   -0.65839E+02   -0.27375E+01  5062   0.417E+00    0.133E+01
RMM:  14    -0.221703313826E+04   -0.96169E+02   -0.64342E+01  4569   0.605E+00    0.127E+01
RMM:  15    -0.227431907048E+04   -0.57286E+02   -0.45399E+01  4906   0.501E+00    0.781E+00
RMM:  16    -0.230574299360E+04   -0.31424E+02   -0.29494E+01  4644   0.377E+00    0.371E+00
RMM:  17    -0.231437857001E+04   -0.86356E+01   -0.93383E+00  4989   0.225E+00    0.257E+00
RMM:  18    -0.231790604194E+04   -0.35275E+01   -0.35292E+00  5078   0.112E+00    0.131E+00
RMM:  19    -0.231921059849E+04   -0.13046E+01   -0.10275E+00  4820   0.665E-01    0.677E-01
RMM:  20    -0.231953170995E+04   -0.32111E+00   -0.27662E-01  4965   0.323E-01    0.424E-01
RMM:  21    -0.231961728381E+04   -0.85574E-01   -0.69407E-02  4801   0.190E-01    0.258E-01
RMM:  22    -0.231964674457E+04   -0.29461E-01   -0.18041E-02  4615   0.107E-01    0.156E-01
RMM:  23    -0.231966239880E+04   -0.15654E-01   -0.80274E-03  4562   0.768E-02    0.977E-02
RMM:  24    -0.231967204932E+04   -0.96505E-02   -0.38169E-03  4492   0.537E-02    0.563E-02
RMM:  25    -0.231967878380E+04   -0.67345E-02   -0.25102E-03  4487   0.433E-02    0.335E-02
RMM:  26    -0.231968226166E+04   -0.34779E-02   -0.13481E-03  4546   0.319E-02    0.218E-02
RMM:  27    -0.231968372610E+04   -0.14644E-02   -0.59540E-04  4195   0.206E-02    0.130E-02
RMM:  28    -0.231968431009E+04   -0.58399E-03   -0.20543E-04  3913   0.126E-02    0.717E-03
RMM:  29    -0.231968450927E+04   -0.19918E-03   -0.60749E-05  3579   0.751E-03    0.433E-03
RMM:  30    -0.231968464618E+04   -0.13691E-03   -0.33169E-05  3325   0.517E-03    0.279E-03
RMM:  31    -0.231968469251E+04   -0.46332E-04   -0.13054E-05  2940   0.391E-03    0.162E-03
RMM:  32    -0.231968471037E+04   -0.17864E-04   -0.67615E-06  2800   0.274E-03    0.895E-04
RMM:  33    -0.231968471298E+04   -0.26043E-05   -0.28571E-06  2440   0.217E-03
   1 F= -.23410447E+04 E0= -.23410441E+04  d E =-.234104E+04  mag=     5.9887
       N       E                     dE             d eps       ncg     rms          rms(c)
DAV:   1    -0.232148453221E+04   -0.17998E+01   -0.15225E+02  4720   0.510E+00    0.429E+00
RMM:   2    -0.232181279885E+04   -0.32827E+00   -0.95749E+00  6291   0.145E+00    0.263E+00
RMM:   3    -0.232193937987E+04   -0.12658E+00   -0.10252E+00  5738   0.573E-01    0.492E+00
RMM:   4    -0.232177390901E+04    0.16547E+00   -0.27646E-01  6014   0.226E-01    0.148E+00
RMM:   5    -0.232179026331E+04   -0.16354E-01   -0.10067E-01  5065   0.129E-01    0.132E+00
RMM:   6    -0.232177746525E+04    0.12798E-01   -0.32677E-02  5732   0.774E-02    0.624E-01
RMM:   7    -0.232177662669E+04    0.83856E-03   -0.48633E-03  4737   0.350E-02    0.342E-01
RMM:   8    -0.232177758939E+04   -0.96270E-03   -0.26981E-03  4502   0.289E-02    0.282E-01
RMM:   9    -0.232177727017E+04    0.31922E-03   -0.10418E-03  4936   0.174E-02    0.131E-01
RMM:  10    -0.232177751723E+04   -0.24707E-03   -0.42115E-04  4005   0.122E-02    0.615E-02
RMM:  11    -0.232177768216E+04   -0.16493E-03   -0.13212E-04  3721   0.940E-03    0.294E-02
RMM:  12    -0.232177783135E+04   -0.14919E-03   -0.66929E-05  3429   0.631E-03    0.164E-02
RMM:  13    -0.232177793955E+04   -0.10820E-03   -0.26381E-05  3036   0.510E-03    0.106E-02
RMM:  14    -0.232177799360E+04   -0.54050E-04   -0.16422E-05  2935   0.417E-03    0.767E-03
RMM:  15    -0.232177801785E+04   -0.24248E-04   -0.10997E-05  2867   0.353E-03    0.437E-03
RMM:  16    -0.232177802720E+04   -0.93450E-05   -0.59625E-06  2826   0.305E-03
   2 F= -.23431313E+04 E0= -.23431307E+04  d E =-.208663E+01  mag=     5.9860
       N       E                     dE             d eps       ncg     rms          rms(c)
DAV:   1    -0.232179028548E+04   -0.12268E-01   -0.65382E-01  4928   0.357E-01    0.299E-01
RMM:   2    -0.232179021227E+04    0.73210E-04   -0.38046E-02  6439   0.800E-02    0.162E-01
RMM:   3    -0.232178991352E+04    0.29875E-03   -0.44630E-03  4111   0.335E-02    0.126E-01
RMM:   4    -0.232179002772E+04   -0.11419E-03   -0.11993E-03  3555   0.139E-02    0.159E-01
RMM:   5    -0.232178970337E+04    0.32435E-03   -0.35699E-04  3048   0.909E-03    0.301E-02
RMM:   6    -0.232178971592E+04   -0.12553E-04   -0.81308E-05  2913   0.470E-03    0.487E-02
RMM:   7    -0.232178968957E+04    0.26348E-04   -0.32711E-05  2737   0.367E-03    0.956E-03
RMM:   8    -0.232178968901E+04    0.55955E-06   -0.53836E-06  2602   0.170E-03
   3 F= -.23431433E+04 E0= -.23431427E+04  d E =-.209858E+01  mag=     5.9882
       N       E                     dE             d eps       ncg     rms          rms(c)
DAV:   1    -0.232186380334E+04   -0.74114E-01   -0.25817E+01  4592   0.340E+00    0.178E+00
RMM:   2    -0.232233206110E+04   -0.46826E+00   -0.52309E+00  6677   0.100E+00    0.148E+00
RMM:   3    -0.232235672474E+04   -0.24664E-01   -0.58270E-01  6308   0.405E-01    0.126E+00
RMM:   4    -0.232234352179E+04    0.13203E-01   -0.51722E-02  6201   0.906E-02    0.624E-01
RMM:   5    -0.232234248630E+04    0.10355E-02   -0.12640E-02  5719   0.434E-02    0.614E-01
RMM:   6    -0.232233881232E+04    0.36740E-02   -0.95964E-03  5795   0.380E-02    0.305E-01
RMM:   7    -0.232233812807E+04    0.68425E-03   -0.24341E-03  5576   0.227E-02    0.170E-01
RMM:   8    -0.232233811511E+04    0.12960E-04   -0.82552E-04  3599   0.126E-02    0.161E-01
RMM:   9    -0.232233791356E+04    0.20155E-03   -0.29156E-04  3113   0.893E-03    0.113E-01
RMM:  10    -0.232233790090E+04    0.12659E-04   -0.14617E-04  2990   0.627E-03    0.101E-01
RMM:  11    -0.232233791552E+04   -0.14622E-04   -0.32805E-05  2972   0.424E-03    0.103E-01
RMM:  12    -0.232233779469E+04    0.12083E-03   -0.59837E-04  3559   0.101E-02    0.701E-02
RMM:  13    -0.232233758228E+04    0.21241E-03   -0.84120E-04  3969   0.127E-02    0.124E-01
RMM:  14    -0.232233778085E+04   -0.19857E-03   -0.33168E-04  3437   0.857E-03    0.790E-02
RMM:  15    -0.232233783979E+04   -0.58940E-04   -0.20439E-04  3229   0.765E-03    0.486E-02
RMM:  16    -0.232233797960E+04   -0.13981E-03   -0.42645E-04  3805   0.976E-03    0.537E-02
RMM:  17    -0.232233825801E+04   -0.27840E-03   -0.71627E-04  3971   0.120E-02    0.110E-01
RMM:  18    -0.232233815772E+04    0.10029E-03   -0.44403E-05  2908   0.511E-03    0.729E-02
RMM:  19    -0.232233819141E+04   -0.33697E-04   -0.11730E-05  2662   0.201E-03    0.921E-02
RMM:  20    -0.232233812378E+04    0.67630E-04   -0.12967E-04  2896   0.524E-03    0.804E-02
RMM:  21    -0.232233801770E+04    0.10608E-03   -0.77112E-04  4203   0.115E-02    0.787E-02
RMM:  22    -0.232233792805E+04    0.89653E-04   -0.30646E-04  3131   0.858E-03    0.881E-02
RMM:  23    -0.232233779346E+04    0.13459E-03   -0.34405E-04  3597   0.759E-03    0.108E-01
RMM:  24    -0.232233758781E+04    0.20564E-03   -0.30692E-04  3193   0.814E-03    0.152E-01
RMM:  25    -0.232233753970E+04    0.48119E-04   -0.67050E-05  2935   0.459E-03    0.165E-01
RMM:  26    -0.232233771833E+04   -0.17864E-03   -0.88322E-05  2790   0.427E-03    0.136E-01
RMM:  27    -0.232233785152E+04   -0.13318E-03   -0.15954E-04  3094   0.557E-03    0.107E-01
RMM:  28    -0.232233801175E+04   -0.16023E-03   -0.46232E-04  3709   0.883E-03    0.816E-02
RMM:  29    -0.232233810094E+04   -0.89192E-04   -0.29824E-04  3136   0.777E-03    0.795E-02
RMM:  30    -0.232233818711E+04   -0.86176E-04   -0.19846E-04  3137   0.631E-03    0.918E-02
RMM:  31    -0.232233821793E+04   -0.30817E-04   -0.42166E-05  2877   0.408E-03    0.956E-02
RMM:  32    -0.232233821266E+04    0.52745E-05   -0.47753E-06  2600   0.199E-03
   4 F= -.23436875E+04 E0= -.23436794E+04  d E =-.544282E+00  mag=     5.7479
       N       E                     dE             d eps       ncg     rms          rms(c)
DAV:   1    -0.232221645280E+04    0.12177E+00   -0.14908E+01  4616   0.254E+00    0.262E+00
RMM:   2    -0.232256499991E+04   -0.34855E+00   -0.31567E+00  6584   0.778E-01    0.306E+00
RMM:   3    -0.232255752717E+04    0.74727E-02   -0.35285E-01  5836   0.327E-01    0.250E+00
RMM:   4    -0.232254546524E+04    0.12062E-01   -0.59189E-02  5289   0.106E-01    0.166E+00
RMM:   5    -0.232259072201E+04   -0.45257E-01   -0.94054E-02  5449   0.128E-01    0.258E+00
RMM:   6    -0.232254073798E+04    0.49984E-01   -0.54623E-02  5343   0.113E-01    0.961E-01
RMM:   7    -0.232254763889E+04   -0.69009E-02   -0.24075E-02  5323   0.740E-02    0.895E-01
RMM:   8    -0.232254037787E+04    0.72610E-02   -0.10779E-02  5385   0.510E-02    0.308E-01
RMM:   9    -0.232255468904E+04   -0.14311E-01   -0.36311E-03  4526   0.341E-02    0.241E-01
RMM:  10    -0.232256894651E+04   -0.14257E-01   -0.33044E-03  4480   0.365E-02    0.137E-01
RMM:  11    -0.232257636190E+04   -0.74154E-02   -0.15992E-03  4521   0.284E-02    0.112E-01
RMM:  12    -0.232258106067E+04   -0.46988E-02   -0.10271E-03  4267   0.224E-02    0.560E-02
RMM:  13    -0.232258451408E+04   -0.34534E-02   -0.74960E-04  4156   0.200E-02    0.364E-02
RMM:  14    -0.232258565992E+04   -0.11458E-02   -0.22578E-04  4211   0.125E-02    0.189E-02
RMM:  15    -0.232258624382E+04   -0.58390E-03   -0.77364E-05  3716   0.621E-03    0.911E-03
RMM:  16    -0.232258659103E+04   -0.34721E-03   -0.39423E-05  3343   0.529E-03    0.688E-03
RMM:  17    -0.232258668052E+04   -0.89485E-04   -0.13730E-05  2958   0.363E-03    0.336E-03
RMM:  18    -0.232258670322E+04   -0.22701E-04   -0.57012E-06  2757   0.295E-03    0.121E-03
RMM:  19    -0.232258670877E+04   -0.55542E-05   -0.31668E-06  2570   0.214E-03
   5 F= -.23439340E+04 E0= -.23439340E+04  d E =-.790712E+00  mag=     4.0007
       N       E                     dE             d eps       ncg     rms          rms(c)
DAV:   1    -0.232198118416E+04    0.60552E+00   -0.33366E+01  4504   0.396E+00    0.202E+00
RMM:   2    -0.232256741243E+04   -0.58623E+00   -0.64254E+00  6606   0.122E+00    0.239E+00
RMM:   3    -0.232256352444E+04    0.38880E-02   -0.64894E-01  6300   0.462E-01    0.169E+00
RMM:   4    -0.232253248644E+04    0.31038E-01   -0.67564E-02  6116   0.113E-01    0.839E-01
RMM:   5    -0.232253216076E+04    0.32568E-03   -0.25316E-02  6028   0.693E-02    0.855E-01
RMM:   6    -0.232252289502E+04    0.92657E-02   -0.15340E-02  5808   0.517E-02    0.332E-01
RMM:   7    -0.232252382143E+04   -0.92641E-03   -0.46774E-03  5508   0.338E-02    0.388E-01
RMM:   8    -0.232252208053E+04    0.17409E-02   -0.14081E-03  4815   0.179E-02    0.815E-02
RMM:   9    -0.232252201625E+04    0.64281E-04   -0.19938E-04  3376   0.725E-03    0.378E-02
RMM:  10    -0.232252202846E+04   -0.12218E-04   -0.10610E-04  3124   0.678E-03    0.171E-02
RMM:  11    -0.232252204135E+04   -0.12885E-04   -0.18800E-05  2949   0.440E-03    0.987E-03
RMM:  12    -0.232252205707E+04   -0.15727E-04   -0.10379E-05  2906   0.322E-03    0.610E-03
RMM:  13    -0.232252206821E+04   -0.11132E-04   -0.61076E-06  2851   0.310E-03    0.537E-03
RMM:  14    -0.232252207288E+04   -0.46723E-05   -0.36101E-06  2797   0.237E-03
   6 F= -.23438676E+04 E0= -.23438676E+04  d E =0.663460E-01  mag=     4.0000
       N       E                     dE             d eps       ncg     rms          rms(c)
DAV:   1    -0.232249997341E+04    0.22095E-01   -0.11073E+01  4544   0.236E+00    0.111E+00
RMM:   2    -0.232267796492E+04   -0.17799E+00   -0.20452E+00  6568   0.652E-01    0.108E+00
RMM:   3    -0.232269750014E+04   -0.19535E-01   -0.23605E-01  6230   0.262E-01    0.129E+00
RMM:   4    -0.232267999232E+04    0.17508E-01   -0.22127E-02  6079   0.666E-02    0.408E-01
RMM:   5    -0.232267957304E+04    0.41927E-03   -0.92638E-03  5959   0.392E-02    0.479E-01
RMM:   6    -0.232267762861E+04    0.19444E-02   -0.56327E-03  5667   0.326E-02    0.252E-01
RMM:   7    -0.232267695064E+04    0.67797E-03   -0.10498E-03  4918   0.146E-02    0.980E-02
RMM:   8    -0.232267692597E+04    0.24668E-04   -0.30130E-04  3096   0.926E-03    0.823E-02
RMM:   9    -0.232267683676E+04    0.89214E-04   -0.95117E-05  2952   0.647E-03    0.217E-02
RMM:  10    -0.232267683548E+04    0.12714E-05   -0.44789E-05  3041   0.428E-03
   7 F= -.23440233E+04 E0= -.23440233E+04  d E =-.893232E-01  mag=     4.0000
       N       E                     dE             d eps       ncg     rms          rms(c)
DAV:   1    -0.232242570605E+04    0.25113E+00   -0.17447E+01  4516   0.326E+00    0.150E+00
RMM:   2    -0.232285102094E+04   -0.42531E+00   -0.42824E+00  6603   0.101E+00    0.208E+00
RMM:   3    -0.232284171936E+04    0.93016E-02   -0.43564E-01  6241   0.373E-01    0.110E+00
RMM:   4    -0.232282960922E+04    0.12110E-01   -0.38131E-02  6044   0.822E-02    0.493E-01
RMM:   5    -0.232282888089E+04    0.72833E-03   -0.76992E-03  5984   0.385E-02    0.495E-01
RMM:   6    -0.232282601322E+04    0.28677E-02   -0.55489E-03  5771   0.353E-02    0.204E-01
RMM:   7    -0.232282588555E+04    0.12767E-03   -0.16282E-03  5495   0.203E-02    0.100E-01
RMM:   8    -0.232282589476E+04   -0.92106E-05   -0.29481E-04  3349   0.108E-02    0.106E-01
RMM:   9    -0.232282576714E+04    0.12762E-03   -0.10909E-04  3007   0.726E-03    0.351E-02
RMM:  10    -0.232282575638E+04    0.10758E-04   -0.13295E-04  3247   0.657E-03    0.135E-02
RMM:  11    -0.232282575964E+04   -0.32586E-05   -0.15336E-05  2940   0.387E-03
   8 F= -.23441705E+04 E0= -.23441705E+04  d E =-.147211E+00  mag=     4.0000
       N       E                     dE             d eps       ncg     rms          rms(c)
DAV:   1    -0.232281200229E+04    0.13754E-01   -0.79245E-01  4720   0.717E-01    0.320E-01
RMM:   2    -0.232283138389E+04   -0.19382E-01   -0.20214E-01  6543   0.216E-01    0.390E-01
RMM:   3    -0.232283191671E+04   -0.53282E-03   -0.20707E-02  5779   0.834E-02    0.268E-01
RMM:   4    -0.232283113268E+04    0.78404E-03   -0.17227E-03  3856   0.184E-02    0.104E-01
RMM:   5    -0.232283107446E+04    0.58215E-04   -0.35699E-04  3735   0.941E-03    0.997E-02
RMM:   6    -0.232283099184E+04    0.82623E-04   -0.25289E-04  3255   0.899E-03    0.577E-02
RMM:   7    -0.232283098534E+04    0.64991E-05   -0.11038E-04  3332   0.695E-03    0.409E-02
RMM:   8    -0.232283096828E+04    0.17060E-04   -0.26872E-05  2919   0.510E-03    0.130E-02
RMM:   9    -0.232283096759E+04    0.68694E-06   -0.62953E-06  2783   0.243E-03
   9 F= -.23441754E+04 E0= -.23441754E+04  d E =-.152100E+00  mag=     4.0000
       N       E                     dE             d eps       ncg     rms          rms(c)
DAV:   1    -0.232282129850E+04    0.96698E-02   -0.37701E+00  4592   0.177E+00    0.771E-01
RMM:   2    -0.232289503103E+04   -0.73733E-01   -0.69153E-01  6117   0.461E-01    0.115E+00
RMM:   3    -0.232288413178E+04    0.10899E-01   -0.69342E-02  5952   0.172E-01    0.507E-01
RMM:   4    -0.232288071536E+04    0.34164E-02   -0.72591E-03  5376   0.425E-02    0.216E-01
RMM:   5    -0.232288128913E+04   -0.57377E-03   -0.23439E-03  5441   0.300E-02    0.336E-01
RMM:   6    -0.232287987896E+04    0.14102E-02   -0.16070E-03  5584   0.225E-02    0.878E-02
RMM:   7    -0.232287987557E+04    0.33893E-05   -0.31240E-04  4232   0.138E-02    0.813E-02
RMM:   8    -0.232287979666E+04    0.78911E-04   -0.10226E-04  3047   0.618E-03    0.221E-02
RMM:   9    -0.232287978993E+04    0.67350E-05   -0.25173E-05  2976   0.426E-03
  10 F= -.23442242E+04 E0= -.23442242E+04  d E =-.488094E-01  mag=     4.0000
       N       E                     dE             d eps       ncg     rms          rms(c)
DAV:   1    -0.232287683697E+04    0.29597E-02   -0.38602E-01  4704   0.564E-01    0.248E-01
RMM:   2    -0.232288437119E+04   -0.75342E-02   -0.70046E-02  6173   0.147E-01    0.378E-01
RMM:   3    -0.232288316120E+04    0.12100E-02   -0.70353E-03  5660   0.547E-02    0.161E-01
RMM:   4    -0.232288281936E+04    0.34184E-03   -0.75182E-04  4664   0.138E-02    0.738E-02
RMM:   5    -0.232288286202E+04   -0.42664E-04   -0.23280E-04  3294   0.995E-03    0.106E-01
RMM:   6    -0.232288272146E+04    0.14056E-03   -0.18035E-04  4324   0.886E-03    0.247E-02
RMM:   7    -0.232288271425E+04    0.72108E-05   -0.24938E-05  2953   0.593E-03
  11 F= -.23442271E+04 E0= -.23442271E+04  d E =-.517378E-01  mag=     4.0000
       N       E                     dE             d eps       ncg     rms          rms(c)
DAV:   1    -0.232289398195E+04   -0.11260E-01   -0.76068E-01  4560   0.728E-01    0.319E-01
RMM:   2    -0.232291265454E+04   -0.18673E-01   -0.17021E-01  6439   0.204E-01    0.556E-01
RMM:   3    -0.232291002938E+04    0.26252E-02   -0.16891E-02  5890   0.736E-02    0.186E-01
RMM:   4    -0.232290963839E+04    0.39099E-03   -0.16109E-03  4477   0.163E-02    0.988E-02
RMM:   5    -0.232290966404E+04   -0.25653E-04   -0.29618E-04  3318   0.967E-03    0.123E-01
RMM:   6    -0.232290947901E+04    0.18504E-03   -0.31188E-04  4552   0.101E-02    0.421E-02
RMM:   7    -0.232290946520E+04    0.13805E-04   -0.52378E-05  2999   0.652E-03    0.135E-02
RMM:   8    -0.232290946665E+04   -0.14520E-05   -0.11325E-05  2928   0.335E-03
  12 F= -.23442540E+04 E0= -.23442540E+04  d E =-.268767E-01  mag=     4.0000
       N       E                     dE             d eps       ncg     rms          rms(c)
DAV:   1    -0.232281474631E+04    0.94719E-01   -0.68484E+00  4504   0.218E+00    0.948E-01
RMM:   2    -0.232298032397E+04   -0.16558E+00   -0.15203E+00  6429   0.595E-01    0.164E+00
RMM:   3    -0.232296026715E+04    0.20057E-01   -0.16204E-01  6258   0.223E-01    0.587E-01
RMM:   4    -0.232295656627E+04    0.37009E-02   -0.15021E-02  5658   0.497E-02    0.318E-01
RMM:   5    -0.232295647551E+04    0.90764E-04   -0.25713E-03  5408   0.262E-02    0.342E-01
RMM:   6    -0.232295511702E+04    0.13585E-02   -0.27368E-03  5551   0.260E-02    0.186E-01
RMM:   7    -0.232295502733E+04    0.89686E-04   -0.10843E-03  4811   0.189E-02    0.134E-01
RMM:   8    -0.232295482734E+04    0.19999E-03   -0.19171E-04  3222   0.791E-03    0.295E-02
RMM:   9    -0.232295482642E+04    0.92310E-06   -0.40168E-05  2978   0.515E-03
  13 F= -.23442998E+04 E0= -.23442998E+04  d E =-.726684E-01  mag=     4.0000
       N       E                     dE             d eps       ncg     rms          rms(c)
DAV:   1    -0.232293804475E+04    0.16783E-01   -0.10219E+00  4560   0.839E-01    0.369E-01
RMM:   2    -0.232296265318E+04   -0.24608E-01   -0.22271E-01  6439   0.230E-01    0.647E-01
RMM:   3    -0.232295928626E+04    0.33669E-02   -0.23344E-02  6028   0.856E-02    0.222E-01
RMM:   4    -0.232295878698E+04    0.49928E-03   -0.22629E-03  4874   0.192E-02    0.133E-01
RMM:   5    -0.232295873026E+04    0.56725E-04   -0.36823E-04  3335   0.104E-02    0.125E-01
RMM:   6    -0.232295852553E+04    0.20473E-03   -0.40696E-04  4864   0.113E-02    0.488E-02
RMM:   7    -0.232295853252E+04   -0.69915E-05   -0.10331E-04  3012   0.813E-03    0.424E-02
RMM:   8    -0.232295851359E+04    0.18923E-04   -0.26672E-05  2916   0.405E-03    0.130E-02
RMM:   9    -0.232295851505E+04   -0.14542E-05   -0.58782E-06  2839   0.246E-03
  14 F= -.23443037E+04 E0= -.23443037E+04  d E =-.765470E-01  mag=     4.0000
       N       E                     dE             d eps       ncg     rms          rms(c)
DAV:   1    -0.232295779348E+04    0.72012E-03   -0.21904E+00  4516   0.133E+00    0.538E-01
RMM:   2    -0.232300213060E+04   -0.44337E-01   -0.41183E-01  6209   0.335E-01    0.812E-01
RMM:   3    -0.232299815696E+04    0.39736E-02   -0.42213E-02  5990   0.127E-01    0.360E-01
RMM:   4    -0.232299677159E+04    0.13854E-02   -0.43771E-03  5399   0.302E-02    0.202E-01
RMM:   5    -0.232299651887E+04    0.25272E-03   -0.77662E-04  4509   0.164E-02    0.154E-01
RMM:   6    -0.232299617500E+04    0.34387E-03   -0.69782E-04  4895   0.160E-02    0.584E-02
RMM:   7    -0.232299618169E+04   -0.66838E-05   -0.19255E-04  3911   0.117E-02    0.546E-02
RMM:   8    -0.232299614563E+04    0.36055E-04   -0.50604E-05  2965   0.499E-03    0.167E-02
RMM:   9    -0.232299614032E+04    0.53147E-05   -0.11865E-05  2931   0.352E-03
  15 F= -.23443415E+04 E0= -.23443415E+04  d E =-.377854E-01  mag=     4.0000
       N       E                     dE             d eps       ncg     rms          rms(c)
DAV:   1    -0.232270711571E+04    0.28903E+00   -0.19711E+01  4504   0.399E+00    0.160E+00
RMM:   2    -0.232310206462E+04   -0.39495E+00   -0.36885E+00  6233   0.997E-01    0.243E+00
RMM:   3    -0.232307263889E+04    0.29426E-01   -0.39236E-01  6072   0.387E-01    0.117E+00
RMM:   4    -0.232305980887E+04    0.12830E-01   -0.42469E-02  6128   0.952E-02    0.687E-01
RMM:   5    -0.232305571989E+04    0.40890E-02   -0.81474E-03  5783   0.474E-02    0.433E-01
RMM:   6    -0.232305378677E+04    0.19331E-02   -0.57712E-03  5273   0.419E-02    0.324E-01
RMM:   7    -0.232305325329E+04    0.53349E-03   -0.35546E-03  5616   0.354E-02    0.225E-01
RMM:   8    -0.232305266495E+04    0.58833E-03   -0.60230E-04  5142   0.152E-02    0.451E-02
RMM:   9    -0.232305262315E+04    0.41801E-04   -0.13019E-04  3748   0.891E-03    0.277E-02
RMM:  10    -0.232305259642E+04    0.26730E-04   -0.57476E-05  3358   0.633E-03    0.108E-02
RMM:  11    -0.232305259188E+04    0.45429E-05   -0.21358E-05  2971   0.518E-03
  16 F= -.23443985E+04 E0= -.23443985E+04  d E =-.948473E-01  mag=     4.0000
       N       E                     dE             d eps       ncg     rms          rms(c)
DAV:   1    -0.232304246356E+04    0.10133E-01   -0.66486E-01  4720   0.728E-01    0.296E-01
RMM:   2    -0.232305578044E+04   -0.13317E-01   -0.12252E-01  6255   0.181E-01    0.456E-01
RMM:   3    -0.232305450999E+04    0.12704E-02   -0.12480E-02  5867   0.695E-02    0.208E-01
RMM:   4    -0.232305414909E+04    0.36090E-03   -0.14574E-03  4939   0.174E-02    0.142E-01
RMM:   5    -0.232305396143E+04    0.18766E-03   -0.26654E-04  3144   0.974E-03    0.731E-02
RMM:   6    -0.232305387563E+04    0.85809E-04   -0.22614E-04  4493   0.995E-03    0.333E-02
RMM:   7    -0.232305388069E+04   -0.50660E-05   -0.70884E-05  2989   0.828E-03
  17 F= -.23443999E+04 E0= -.23443999E+04  d E =-.962675E-01  mag=     4.0000
       N       E                     dE             d eps       ncg     rms          rms(c)
DAV:   1    -0.232303052765E+04    0.23348E-01   -0.33447E+00  4504   0.143E+00    0.595E-01
RMM:   2    -0.232309677794E+04   -0.66250E-01   -0.64686E-01  6556   0.376E-01    0.855E-01
RMM:   3    -0.232309564291E+04    0.11350E-02   -0.66423E-02  6219   0.141E-01    0.467E-01
RMM:   4    -0.232309373182E+04    0.19111E-02   -0.71157E-03  5689   0.343E-02    0.249E-01
RMM:   5    -0.232309341280E+04    0.31902E-03   -0.12256E-03  4603   0.157E-02    0.204E-01
RMM:   6    -0.232309293315E+04    0.47965E-03   -0.96329E-04  4772   0.167E-02    0.766E-02
RMM:   7    -0.232309297894E+04   -0.45784E-04   -0.36630E-04  3518   0.119E-02    0.777E-02
RMM:   8    -0.232309290559E+04    0.73344E-04   -0.10197E-04  2978   0.637E-03    0.233E-02
RMM:   9    -0.232309289593E+04    0.96586E-05   -0.15085E-05  2940   0.379E-03
  18 F= -.23444391E+04 E0= -.23444391E+04  d E =-.391756E-01  mag=     3.9999
       N       E                     dE             d eps       ncg     rms          rms(c)
DAV:   1    -0.232292489332E+04    0.16801E+00   -0.10390E+01  4504   0.252E+00    0.105E+00
RMM:   2    -0.232313110427E+04   -0.20621E+00   -0.20184E+00  6550   0.672E-01    0.149E+00
RMM:   3    -0.232312786847E+04    0.32358E-02   -0.20936E-01  6276   0.250E-01    0.807E-01
RMM:   4    -0.232312196423E+04    0.59042E-02   -0.21600E-02  6072   0.597E-02    0.418E-01
RMM:   5    -0.232312121687E+04    0.74736E-03   -0.37786E-03  5643   0.267E-02    0.366E-01
RMM:   6    -0.232311969101E+04    0.15259E-02   -0.29892E-03  5368   0.283E-02    0.143E-01
RMM:   7    -0.232311987407E+04   -0.18306E-03   -0.12668E-03  4750   0.197E-02    0.154E-01
RMM:   8    -0.232311957523E+04    0.29884E-03   -0.37311E-04  3561   0.978E-03    0.420E-02
RMM:   9    -0.232311954213E+04    0.33099E-04   -0.46274E-05  2984   0.546E-03    0.244E-02
RMM:  10    -0.232311953176E+04    0.10378E-04   -0.46660E-05  2930   0.462E-03    0.828E-03
RMM:  11    -0.232311953111E+04    0.64983E-06   -0.73014E-06  2908   0.322E-03
  19 F= -.23444661E+04 E0= -.23444661E+04  d E =-.661677E-01  mag=     3.9995
       N       E                     dE             d eps       ncg     rms          rms(c)
DAV:   1    -0.232312407326E+04   -0.45415E-02   -0.81656E-01  4576   0.704E-01    0.297E-01
RMM:   2    -0.232314012390E+04   -0.16051E-01   -0.16202E-01  6565   0.189E-01    0.367E-01
RMM:   3    -0.232314058273E+04   -0.45884E-03   -0.17176E-02  5881   0.716E-02    0.253E-01
RMM:   4    -0.232314000882E+04    0.57391E-03   -0.18061E-03  3891   0.178E-02    0.132E-01
RMM:   5    -0.232313991531E+04    0.93516E-04   -0.32892E-04  3184   0.917E-03    0.103E-01
RMM:   6    -0.232313980433E+04    0.11098E-03   -0.25007E-04  3345   0.970E-03    0.459E-02
RMM:   7    -0.232313981884E+04   -0.14510E-04   -0.12317E-04  3072   0.722E-03    0.499E-02
RMM:   8    -0.232313978823E+04    0.30607E-04   -0.38708E-05  2938   0.510E-03    0.117E-02
RMM:   9    -0.232313978611E+04    0.21168E-05   -0.59690E-06  2843   0.262E-03
  20 F= -.23444865E+04 E0= -.23444864E+04  d E =-.203867E-01  mag=     3.9993
       N       E                     dE             d eps       ncg     rms          rms(c)
DAV:   1    -0.232303541908E+04    0.10437E+00   -0.73319E+00  4504   0.212E+00    0.896E-01
RMM:   2    -0.232318153381E+04   -0.14611E+00   -0.14700E+00  6582   0.573E-01    0.112E+00
RMM:   3    -0.232318432150E+04   -0.27877E-02   -0.15710E-01  6288   0.216E-01    0.736E-01
RMM:   4    -0.232317944265E+04    0.48788E-02   -0.16033E-02  5980   0.524E-02    0.384E-01
RMM:   5    -0.232317865181E+04    0.79084E-03   -0.28825E-03  5510   0.234E-02    0.296E-01
RMM:   6    -0.232317776608E+04    0.88573E-03   -0.20830E-03  5273   0.238E-02    0.146E-01
RMM:   7    -0.232317788223E+04   -0.11615E-03   -0.10763E-03  4798   0.169E-02    0.156E-01
RMM:   8    -0.232317757423E+04    0.30800E-03   -0.33821E-04  3448   0.989E-03    0.342E-02
RMM:   9    -0.232317755412E+04    0.20109E-04   -0.40402E-05  2980   0.527E-03    0.233E-02
RMM:  10    -0.232317754619E+04    0.79281E-05   -0.37657E-05  2917   0.427E-03
  21 F= -.23445247E+04 E0= -.23445245E+04  d E =-.585748E-01  mag=     3.9981
       N       E                     dE             d eps       ncg     rms          rms(c)
DAV:   1    -0.232257153590E+04    0.60602E+00   -0.29133E+01  4504   0.425E+00    0.182E+00
RMM:   2    -0.232317220167E+04   -0.60067E+00   -0.60103E+00  6594   0.118E+00    0.234E+00
RMM:   3    -0.232317230537E+04   -0.10371E-03   -0.65134E-01  6284   0.445E-01    0.140E+00
RMM:   4    -0.232315532353E+04    0.16982E-01   -0.63458E-02  6178   0.104E-01    0.755E-01
RMM:   5    -0.232315185649E+04    0.34670E-02   -0.11290E-02  5948   0.467E-02    0.532E-01
RMM:   6    -0.232314884067E+04    0.30158E-02   -0.77510E-03  5638   0.464E-02    0.278E-01
RMM:   7    -0.232314950556E+04   -0.66489E-03   -0.37319E-03  5678   0.309E-02    0.322E-01
RMM:   8    -0.232314821299E+04    0.12926E-02   -0.14012E-03  4947   0.188E-02    0.759E-02
RMM:   9    -0.232314813314E+04    0.79847E-04   -0.18476E-04  3433   0.773E-03    0.492E-02
RMM:  10    -0.232314810112E+04    0.32019E-04   -0.11632E-04  3029   0.760E-03    0.152E-02
RMM:  11    -0.232314809901E+04    0.21151E-05   -0.21548E-05  2963   0.447E-03
  22 F= -.23444962E+04 E0= -.23444957E+04  d E =-.301097E-01  mag=     3.9907
       N       E                     dE             d eps       ncg     rms          rms(c)
DAV:   1    -0.232289694537E+04    0.25116E+00   -0.14511E+01  4504   0.301E+00    0.126E+00
RMM:   2    -0.232318610828E+04   -0.28916E+00   -0.29851E+00  6584   0.833E-01    0.139E+00
RMM:   3    -0.232319982012E+04   -0.13712E-01   -0.31449E-01  6253   0.305E-01    0.112E+00
RMM:   4    -0.232318824168E+04    0.11578E-01   -0.33786E-02  6228   0.761E-02    0.597E-01
RMM:   5    -0.232318605941E+04    0.21823E-02   -0.59687E-03  5856   0.323E-02    0.449E-01
RMM:   6    -0.232318386225E+04    0.21972E-02   -0.54124E-03  5504   0.387E-02    0.183E-01
RMM:   7    -0.232318393398E+04   -0.71738E-04   -0.20605E-03  5338   0.223E-02    0.175E-01
RMM:   8    -0.232318359554E+04    0.33844E-03   -0.58870E-04  3567   0.120E-02    0.633E-02
RMM:   9    -0.232318352948E+04    0.66058E-04   -0.12271E-04  2977   0.754E-03    0.252E-02
RMM:  10    -0.232318352209E+04    0.73954E-05   -0.51273E-05  2978   0.498E-03
  23 F= -.23445309E+04 E0= -.23445307E+04  d E =-.648235E-01  mag=     3.9946
       N       E                     dE             d eps       ncg     rms          rms(c)
DAV:   1    -0.232318939666E+04   -0.58672E-02   -0.16786E-01  4656   0.394E-01    0.161E-01
RMM:   2    -0.232319185081E+04   -0.24541E-02   -0.26433E-02  6271   0.951E-02    0.125E-01
RMM:   3    -0.232319209852E+04   -0.24772E-03   -0.28453E-03  5060   0.383E-02    0.140E-01
RMM:   4    -0.232319186464E+04    0.23388E-03   -0.33208E-04  3547   0.110E-02    0.688E-02
RMM:   5    -0.232319183953E+04    0.25119E-04   -0.10510E-04  2985   0.741E-03    0.530E-02
RMM:   6    -0.232319180372E+04    0.35809E-04   -0.87538E-05  3542   0.714E-03    0.228E-02
RMM:   7    -0.232319180265E+04    0.10626E-05   -0.28945E-05  2956   0.583E-03
  24 F= -.23445392E+04 E0= -.23445389E+04  d E =-.823064E-02  mag=     3.9954
       N       E                     dE             d eps       ncg     rms          rms(c)
DAV:   1    -0.232318542493E+04    0.63788E-02   -0.15102E+00  4564   0.118E+00    0.483E-01
RMM:   2    -0.232320762140E+04   -0.22196E-01   -0.23854E-01  6157   0.283E-01    0.377E-01
RMM:   3    -0.232320976035E+04   -0.21389E-02   -0.25720E-02  5986   0.114E-01    0.416E-01
RMM:   4    -0.232320771719E+04    0.20432E-02   -0.30460E-03  5739   0.312E-02    0.209E-01
RMM:   5    -0.232320747060E+04    0.24659E-03   -0.94730E-04  4977   0.179E-02    0.153E-01
RMM:   6    -0.232320718803E+04    0.28257E-03   -0.69588E-04  4996   0.166E-02    0.742E-02
RMM:   7    -0.232320716941E+04    0.18616E-04   -0.24345E-04  3919   0.117E-02    0.674E-02
RMM:   8    -0.232320709825E+04    0.71161E-04   -0.74363E-05  3261   0.606E-03    0.160E-02
RMM:   9    -0.232320708784E+04    0.10413E-04   -0.14691E-05  2939   0.438E-03    0.979E-03
RMM:  10    -0.232320708182E+04    0.60179E-05   -0.15202E-05  2889   0.377E-03
  25 F= -.23445543E+04 E0= -.23445540E+04  d E =-.233589E-01  mag=     3.9956
       N       E                     dE             d eps       ncg     rms          rms(c)
DAV:   1    -0.232310834853E+04    0.98739E-01   -0.60515E+00  4568   0.237E+00    0.967E-01
RMM:   2    -0.232319742183E+04   -0.89073E-01   -0.95641E-01  6154   0.566E-01    0.763E-01
RMM:   3    -0.232320556669E+04   -0.81449E-02   -0.10359E-01  6022   0.224E-01    0.831E-01
RMM:   4    -0.232319758475E+04    0.79819E-02   -0.12382E-02  6021   0.617E-02    0.427E-01
RMM:   5    -0.232319639989E+04    0.11849E-02   -0.37284E-03  5599   0.344E-02    0.284E-01
RMM:   6    -0.232319542940E+04    0.97049E-03   -0.26987E-03  5254   0.319E-02    0.156E-01
RMM:   7    -0.232319534383E+04    0.85571E-04   -0.95940E-04  4983   0.220E-02    0.138E-01
RMM:   8    -0.232319505660E+04    0.28723E-03   -0.28686E-04  4440   0.102E-02    0.323E-02
RMM:   9    -0.232319501595E+04    0.40643E-04   -0.52555E-05  3171   0.692E-03    0.194E-02
RMM:  10    -0.232319499402E+04    0.21931E-04   -0.48167E-05  3580   0.605E-03    0.787E-03
RMM:  11    -0.232319498972E+04    0.43074E-05   -0.12405E-05  2910   0.487E-03
  26 F= -.23445419E+04 E0= -.23445416E+04  d E =-.109590E-01  mag=     3.9949
       N       E                     dE             d eps       ncg     rms          rms(c)
DAV:   1    -0.232316499511E+04    0.29999E-01   -0.31039E+00  4552   0.169E+00    0.693E-01
RMM:   2    -0.232321004237E+04   -0.45047E-01   -0.48717E-01  6125   0.404E-01    0.517E-01
RMM:   3    -0.232321475491E+04   -0.47125E-02   -0.53025E-02  5966   0.161E-01    0.588E-01
RMM:   4    -0.232321055647E+04    0.41984E-02   -0.61453E-03  5896   0.441E-02    0.284E-01
RMM:   5    -0.232321024534E+04    0.31113E-03   -0.18791E-03  5362   0.247E-02    0.238E-01
RMM:   6    -0.232320954797E+04    0.69737E-03   -0.13738E-03  5324   0.231E-02    0.862E-02
RMM:   7    -0.232320953601E+04    0.11965E-04   -0.39173E-04  4661   0.145E-02    0.893E-02
RMM:   8    -0.232320942383E+04    0.11218E-03   -0.14848E-04  3435   0.738E-03    0.248E-02
RMM:   9    -0.232320940428E+04    0.19547E-04   -0.25089E-05  2977   0.508E-03    0.132E-02
RMM:  10    -0.232320939436E+04    0.99224E-05   -0.20093E-05  2946   0.439E-03
  27 F= -.23445565E+04 E0= -.23445563E+04  d E =-.255850E-01  mag=     3.9951
       N       E                     dE             d eps       ncg     rms          rms(c)
DAV:   1    -0.232321052120E+04   -0.11169E-02   -0.48388E-01  4528   0.557E-01    0.214E-01
RMM:   2    -0.232321897346E+04   -0.84523E-02   -0.90763E-02  6614   0.149E-01    0.207E-01
RMM:   3    -0.232321950816E+04   -0.53471E-03   -0.97301E-03  5637   0.563E-02    0.150E-01
RMM:   4    -0.232321925451E+04    0.25365E-03   -0.95269E-04  3518   0.136E-02    0.912E-02
RMM:   5    -0.232321924311E+04    0.11404E-04   -0.20292E-04  2990   0.778E-03    0.936E-02
RMM:   6    -0.232321915374E+04    0.89365E-04   -0.15997E-04  3132   0.745E-03    0.412E-02
RMM:   7    -0.232321915592E+04   -0.21752E-05   -0.79139E-05  3001   0.640E-03
  28 F= -.23445662E+04 E0= -.23445660E+04  d E =-.970448E-02  mag=     3.9954
       N       E                     dE             d eps       ncg     rms          rms(c)
DAV:   1    -0.232320384728E+04    0.15306E-01   -0.11607E+00  4504   0.861E-01    0.333E-01
RMM:   2    -0.232322410103E+04   -0.20254E-01   -0.21819E-01  6629   0.230E-01    0.316E-01
RMM:   3    -0.232322544680E+04   -0.13458E-02   -0.23449E-02  6126   0.862E-02    0.234E-01
RMM:   4    -0.232322483971E+04    0.60708E-03   -0.23275E-03  4744   0.207E-02    0.140E-01
RMM:   5    -0.232322480746E+04    0.32254E-04   -0.50743E-04  3219   0.107E-02    0.144E-01
RMM:   6    -0.232322461499E+04    0.19247E-03   -0.39781E-04  3900   0.111E-02    0.730E-02
RMM:   7    -0.232322460952E+04    0.54698E-05   -0.19670E-04  3144   0.865E-03    0.616E-02
RMM:   8    -0.232322455702E+04    0.52503E-04   -0.46052E-05  2956   0.569E-03    0.113E-02
RMM:   9    -0.232322455452E+04    0.24973E-05   -0.78196E-06  2904   0.295E-03
  29 F= -.23445715E+04 E0= -.23445713E+04  d E =-.150176E-01  mag=     3.9957
       N       E                     dE             d eps       ncg     rms          rms(c)
DAV:   1    -0.232322620433E+04   -0.16473E-02   -0.30409E-01  4560   0.483E-01    0.177E-01
RMM:   2    -0.232323160369E+04   -0.53994E-02   -0.56601E-02  6456   0.123E-01    0.167E-01
RMM:   3    -0.232323191207E+04   -0.30838E-03   -0.61129E-03  5451   0.491E-02    0.122E-01
RMM:   4    -0.232323172692E+04    0.18515E-03   -0.58691E-04  3324   0.115E-02    0.602E-02
RMM:   5    -0.232323171780E+04    0.91234E-05   -0.11770E-04  2969   0.694E-03    0.650E-02
RMM:   6    -0.232323167819E+04    0.39610E-04   -0.91287E-05  3098   0.621E-03    0.372E-02
RMM:   7    -0.232323167837E+04   -0.17780E-06   -0.48842E-05  2967   0.592E-03
  30 F= -.23445788E+04 E0= -.23445785E+04  d E =-.722634E-02  mag=     3.9957
       N       E                     dE             d eps       ncg     rms          rms(c)
DAV:   1    -0.232319349409E+04    0.38184E-01   -0.27319E+00  4504   0.145E+00    0.533E-01
RMM:   2    -0.232324186125E+04   -0.48367E-01   -0.50861E-01  6504   0.364E-01    0.498E-01
RMM:   3    -0.232324487084E+04   -0.30096E-02   -0.55850E-02  6278   0.146E-01    0.371E-01
RMM:   4    -0.232324320474E+04    0.16661E-02   -0.53791E-03  5860   0.333E-02    0.188E-01
RMM:   5    -0.232324308031E+04    0.12443E-03   -0.10403E-03  4563   0.159E-02    0.186E-01
RMM:   6    -0.232324276119E+04    0.31911E-03   -0.81285E-04  5118   0.153E-02    0.118E-01
RMM:   7    -0.232324275454E+04    0.66502E-05   -0.43522E-04  4299   0.128E-02    0.104E-01
RMM:   8    -0.232324261258E+04    0.14196E-03   -0.11525E-04  3188   0.718E-03    0.167E-02
RMM:   9    -0.232324260317E+04    0.94087E-05   -0.16486E-05  2950   0.467E-03
  31 F= -.23445900E+04 E0= -.23445897E+04  d E =-.184621E-01  mag=     3.9955
       N       E                     dE             d eps       ncg     rms          rms(c)
DAV:   1    -0.232324025695E+04    0.23556E-02   -0.14913E-01  4720   0.338E-01    0.124E-01
RMM:   2    -0.232324290107E+04   -0.26441E-02   -0.27739E-02  6461   0.855E-02    0.117E-01
RMM:   3    -0.232324305916E+04   -0.15810E-03   -0.30111E-03  4330   0.343E-02    0.861E-02
RMM:   4    -0.232324296649E+04    0.92676E-04   -0.29141E-04  3082   0.892E-03    0.435E-02
RMM:   5    -0.232324296089E+04    0.55955E-05   -0.59002E-05  2943   0.518E-03
  32 F= -.23445904E+04 E0= -.23445902E+04  d E =-.188930E-01  mag=     3.9955
       N       E                     dE             d eps       ncg     rms          rms(c)
DAV:   1    -0.232324551324E+04   -0.25467E-02   -0.17090E-01  4544   0.362E-01    0.125E-01
RMM:   2    -0.232324814210E+04   -0.26289E-02   -0.26946E-02  6402   0.866E-02    0.134E-01
RMM:   3    -0.232324829090E+04   -0.14880E-03   -0.29863E-03  4514   0.355E-02    0.116E-01
RMM:   4    -0.232324817674E+04    0.11415E-03   -0.30826E-04  3064   0.945E-03    0.540E-02
RMM:   5    -0.232324816765E+04    0.90982E-05   -0.72291E-05  2977   0.568E-03
  33 F= -.23445959E+04 E0= -.23445956E+04  d E =-.550707E-02  mag=     3.9951
       N       E                     dE             d eps       ncg     rms          rms(c)
DAV:   1    -0.232323413668E+04    0.14040E-01   -0.15373E+00  4504   0.108E+00    0.370E-01
RMM:   2    -0.232325700254E+04   -0.22866E-01   -0.24131E-01  6325   0.254E-01    0.312E-01
RMM:   3    -0.232325880854E+04   -0.18060E-02   -0.26188E-02  6078   0.106E-01    0.281E-01
RMM:   4    -0.232325787606E+04    0.93248E-03   -0.25713E-03  5531   0.246E-02    0.119E-01
RMM:   5    -0.232325769541E+04    0.18065E-03   -0.65179E-04  4820   0.156E-02    0.866E-02
RMM:   6    -0.232325768243E+04    0.12985E-04   -0.32941E-04  4132   0.117E-02    0.896E-02
RMM:   7    -0.232325761927E+04    0.63160E-04   -0.12053E-04  3353   0.769E-03    0.471E-02
RMM:   8    -0.232325759606E+04    0.23205E-04   -0.33983E-05  2942   0.561E-03    0.174E-02
RMM:   9    -0.232325758959E+04    0.64725E-05   -0.88486E-06  2904   0.294E-03
  34 F= -.23446063E+04 E0= -.23446058E+04  d E =-.158325E-01  mag=     3.9930
       N       E                     dE             d eps       ncg     rms          rms(c)
DAV:   1    -0.232315425423E+04    0.10334E+00   -0.61851E+00  4504   0.217E+00    0.744E-01
RMM:   2    -0.232324620605E+04   -0.91952E-01   -0.96914E-01  6228   0.509E-01    0.620E-01
RMM:   3    -0.232325342824E+04   -0.72222E-02   -0.10916E-01  6074   0.217E-01    0.540E-01
RMM:   4    -0.232324997727E+04    0.34510E-02   -0.10334E-02  6031   0.488E-02    0.241E-01
RMM:   5    -0.232324929283E+04    0.68444E-03   -0.23752E-03  5176   0.283E-02    0.181E-01
RMM:   6    -0.232324923134E+04    0.61484E-04   -0.13549E-03  5106   0.215E-02    0.195E-01
RMM:   7    -0.232324895435E+04    0.27699E-03   -0.59358E-04  4973   0.148E-02    0.104E-01
RMM:   8    -0.232324883636E+04    0.11799E-03   -0.16046E-04  3183   0.881E-03    0.365E-02
RMM:   9    -0.232324880908E+04    0.27282E-04   -0.29834E-05  2970   0.489E-03    0.170E-02
RMM:  10    -0.232324879946E+04    0.96160E-05   -0.27036E-05  2976   0.467E-03
  35 F= -.23445993E+04 E0= -.23445985E+04  d E =-.885980E-02  mag=     3.9856
       N       E                     dE             d eps       ncg     rms          rms(c)
DAV:   1    -0.232321449830E+04    0.34311E-01   -0.29129E+00  4504   0.149E+00    0.507E-01
RMM:   2    -0.232325755391E+04   -0.43056E-01   -0.45508E-01  6290   0.352E-01    0.418E-01
RMM:   3    -0.232326129523E+04   -0.37413E-02   -0.48920E-02  6080   0.144E-01    0.404E-01
RMM:   4    -0.232325930843E+04    0.19868E-02   -0.47946E-03  5787   0.333E-02    0.165E-01
RMM:   5    -0.232325917712E+04    0.13131E-03   -0.12886E-03  5342   0.210E-02    0.182E-01
RMM:   6    -0.232325895617E+04    0.22094E-03   -0.67837E-04  4867   0.145E-02    0.121E-01
RMM:   7    -0.232325884505E+04    0.11112E-03   -0.23405E-04  4339   0.103E-02    0.559E-02
RMM:   8    -0.232325880510E+04    0.39946E-04   -0.74191E-05  2966   0.677E-03    0.239E-02
RMM:   9    -0.232325879266E+04    0.12441E-04   -0.16966E-05  2948   0.379E-03    0.117E-02
RMM:  10    -0.232325878872E+04    0.39439E-05   -0.93546E-06  2895   0.326E-03
  36 F= -.23446080E+04 E0= -.23446075E+04  d E =-.176004E-01  mag=     3.9888
       N       E                     dE             d eps       ncg     rms          rms(c)
DAV:   1    -0.232326052567E+04   -0.17330E-02   -0.16986E-01  4528   0.327E-01    0.110E-01
RMM:   2    -0.232326296285E+04   -0.24372E-02   -0.26129E-02  6459   0.769E-02    0.884E-02
RMM:   3    -0.232326318927E+04   -0.22642E-03   -0.28330E-03  3679   0.311E-02    0.873E-02
RMM:   4    -0.232326311264E+04    0.76631E-04   -0.27297E-04  3043   0.827E-03    0.429E-02
RMM:   5    -0.232326311777E+04   -0.51252E-05   -0.65175E-05  2943   0.477E-03
  37 F= -.23446126E+04 E0= -.23446120E+04  d E =-.454247E-02  mag=     3.9888
       N       E                     dE             d eps       ncg     rms          rms(c)
DAV:   1    -0.232324570187E+04    0.17411E-01   -0.15246E+00  4504   0.981E-01    0.331E-01
RMM:   2    -0.232326765096E+04   -0.21949E-01   -0.23458E-01  6527   0.229E-01    0.275E-01
RMM:   3    -0.232326956287E+04   -0.19119E-02   -0.26027E-02  5998   0.925E-02    0.250E-01
RMM:   4    -0.232326890746E+04    0.65542E-03   -0.24646E-03  4520   0.209E-02    0.120E-01
RMM:   5    -0.232326876060E+04    0.14685E-03   -0.59807E-04  4334   0.132E-02    0.953E-02
RMM:   6    -0.232326879046E+04   -0.29853E-04   -0.28546E-04  3132   0.968E-03    0.111E-01
RMM:   7    -0.232326867418E+04    0.11627E-03   -0.97754E-05  2966   0.695E-03    0.153E-02
RMM:   8    -0.232326867448E+04   -0.29521E-06   -0.18738E-05  2955   0.427E-03
  38 F= -.23446188E+04 E0= -.23446180E+04  d E =-.107425E-01  mag=     3.9862
       N       E                     dE             d eps       ncg     rms          rms(c)
DAV:   1    -0.232327060784E+04   -0.19337E-02   -0.16332E-01  4624   0.364E-01    0.128E-01
RMM:   2    -0.232327289671E+04   -0.22889E-02   -0.24236E-02  6117   0.815E-02    0.993E-02
RMM:   3    -0.232327317987E+04   -0.28316E-03   -0.26583E-03  4306   0.343E-02    0.136E-01
RMM:   4    -0.232327299090E+04    0.18897E-03   -0.27565E-04  3031   0.955E-03    0.403E-02
RMM:   5    -0.232327299316E+04   -0.22591E-05   -0.81101E-05  3000   0.608E-03
  39 F= -.23446232E+04 E0= -.23446223E+04  d E =-.438099E-02  mag=     3.9846
       N       E                     dE             d eps       ncg     rms          rms(c)
DAV:   1    -0.232325917423E+04    0.13817E-01   -0.14649E+00  4504   0.109E+00    0.383E-01
RMM:   2    -0.232327944481E+04   -0.20271E-01   -0.21605E-01  6177   0.245E-01    0.273E-01
RMM:   3    -0.232328197370E+04   -0.25289E-02   -0.24091E-02  5890   0.106E-01    0.381E-01
RMM:   4    -0.232328050576E+04    0.14679E-02   -0.24552E-03  5559   0.251E-02    0.127E-01
RMM:   5    -0.232328050983E+04   -0.40684E-05   -0.69536E-04  4968   0.153E-02    0.150E-01
RMM:   6    -0.232328023751E+04    0.27231E-03   -0.46002E-04  4912   0.127E-02    0.553E-02
RMM:   7    -0.232328019223E+04    0.45277E-04   -0.10430E-04  3864   0.826E-03    0.253E-02
RMM:   8    -0.232328018854E+04    0.36922E-05   -0.30954E-05  2947   0.576E-03
  40 F= -.23446305E+04 E0= -.23446294E+04  d E =-.117621E-01  mag=     3.9783
       N       E                     dE             d eps       ncg     rms          rms(c)
DAV:   1    -0.232327758096E+04    0.26113E-02   -0.21861E-01  4688   0.422E-01    0.148E-01
RMM:   2    -0.232328062917E+04   -0.30482E-02   -0.32505E-02  6228   0.955E-02    0.110E-01
RMM:   3    -0.232328102354E+04   -0.39437E-03   -0.36010E-03  4865   0.403E-02    0.159E-01
RMM:   4    -0.232328076856E+04    0.25498E-03   -0.37337E-04  3127   0.106E-02    0.460E-02
RMM:   5    -0.232328076260E+04    0.59521E-05   -0.10282E-04  3141   0.706E-03    0.541E-02
RMM:   6    -0.232328072622E+04    0.36390E-04   -0.71415E-05  2991   0.688E-03    0.221E-02
RMM:   7    -0.232328071830E+04    0.79108E-05   -0.23381E-05  2987   0.514E-03
  41 F= -.23446311E+04 E0= -.23446298E+04  d E =-.123629E-01  mag=     3.9740
       N       E                     dE             d eps       ncg     rms          rms(c)
DAV:   1    -0.232328011312E+04    0.61309E-03   -0.29783E-01  4528   0.452E-01    0.159E-01
RMM:   2    -0.232328476481E+04   -0.46517E-02   -0.48730E-02  6468   0.109E-01    0.148E-01
RMM:   3    -0.232328530385E+04   -0.53904E-03   -0.55207E-03  5236   0.450E-02    0.181E-01
RMM:   4    -0.232328500449E+04    0.29936E-03   -0.53095E-04  3133   0.113E-02    0.502E-02
RMM:   5    -0.232328499020E+04    0.14290E-04   -0.11843E-04  3180   0.730E-03    0.471E-02
RMM:   6    -0.232328497569E+04    0.14513E-04   -0.76190E-05  2951   0.679E-03    0.315E-02
RMM:   7    -0.232328496813E+04    0.75594E-05   -0.22613E-05  2933   0.482E-03
  42 F= -.23446354E+04 E0= -.23446340E+04  d E =-.430029E-02  mag=     3.9697
       N       E                     dE             d eps       ncg     rms          rms(c)
DAV:   1    -0.232324812220E+04    0.36853E-01   -0.25570E+00  4504   0.132E+00    0.467E-01
RMM:   2    -0.232328807550E+04   -0.39953E-01   -0.41825E-01  6403   0.314E-01    0.435E-01
RMM:   3    -0.232329297084E+04   -0.48953E-02   -0.49381E-02  6123   0.134E-01    0.547E-01
RMM:   4    -0.232329024937E+04    0.27215E-02   -0.47126E-03  5822   0.319E-02    0.155E-01
RMM:   5    -0.232329024146E+04    0.79138E-05   -0.10613E-03  5133   0.172E-02    0.176E-01
RMM:   6    -0.232328991455E+04    0.32691E-03   -0.75397E-04  5112   0.150E-02    0.796E-02
RMM:   7    -0.232328990396E+04    0.10590E-04   -0.23386E-04  3881   0.100E-02    0.725E-02
RMM:   8    -0.232328984581E+04    0.58149E-04   -0.85903E-05  2971   0.679E-03    0.228E-02
RMM:   9    -0.232328984085E+04    0.49599E-05   -0.14304E-05  2927   0.393E-03
  43 F= -.23446404E+04 E0= -.23446383E+04  d E =-.931575E-02  mag=     3.9544
       N       E                     dE             d eps       ncg     rms          rms(c)
DAV:   1    -0.232328694699E+04    0.28988E-02   -0.42637E-01  4544   0.514E-01    0.188E-01
RMM:   2    -0.232329290791E+04   -0.59609E-02   -0.64661E-02  6429   0.121E-01    0.163E-01
RMM:   3    -0.232329364702E+04   -0.73911E-03   -0.71576E-03  5451   0.493E-02    0.222E-01
RMM:   4    -0.232329318993E+04    0.45709E-03   -0.78425E-04  3269   0.126E-02    0.661E-02
RMM:   5    -0.232329319308E+04   -0.31508E-05   -0.20565E-04  3144   0.781E-03    0.775E-02
RMM:   6    -0.232329312491E+04    0.68172E-04   -0.14380E-04  3022   0.764E-03    0.283E-02
RMM:   7    -0.232329312991E+04   -0.50052E-05   -0.44363E-05  2956   0.561E-03
  44 F= -.23446440E+04 E0= -.23446417E+04  d E =-.353646E-02  mag=     3.9484
       N       E                     dE             d eps       ncg     rms          rms(c)
DAV:   1    -0.232329143628E+04    0.16886E-02   -0.13823E-01  4656   0.293E-01    0.108E-01
RMM:   2    -0.232329336707E+04   -0.19308E-02   -0.21102E-02  6504   0.701E-02    0.850E-02
RMM:   3    -0.232329362270E+04   -0.25563E-03   -0.23128E-03  3756   0.283E-02    0.125E-01
RMM:   4    -0.232329347905E+04    0.14365E-03   -0.25599E-04  3001   0.846E-03    0.381E-02
RMM:   5    -0.232329347937E+04   -0.32521E-06   -0.69067E-05  3020   0.469E-03
  45 F= -.23446445E+04 E0= -.23446421E+04  d E =-.402669E-02  mag=     3.9453
       N       E                     dE             d eps       ncg     rms          rms(c)
DAV:   1    -0.232329162638E+04    0.18527E-02   -0.33806E-01  4528   0.489E-01    0.166E-01
RMM:   2    -0.232329712099E+04   -0.54946E-02   -0.57201E-02  6469   0.119E-01    0.143E-01
RMM:   3    -0.232329753277E+04   -0.41178E-03   -0.60028E-03  5474   0.462E-02    0.133E-01
RMM:   4    -0.232329737633E+04    0.15643E-03   -0.63232E-04  3159   0.115E-02    0.695E-02
RMM:   5    -0.232329737390E+04    0.24329E-05   -0.12763E-04  2978   0.700E-03    0.775E-02
RMM:   6    -0.232329732653E+04    0.47372E-04   -0.11680E-04  3292   0.740E-03    0.373E-02
RMM:   7    -0.232329732056E+04    0.59693E-05   -0.49090E-05  2964   0.600E-03
  46 F= -.23446489E+04 E0= -.23446464E+04  d E =-.438107E-02  mag=     3.9423
       N       E                     dE             d eps       ncg     rms          rms(c)
DAV:   1    -0.232324974233E+04    0.47584E-01   -0.30506E+00  4504   0.147E+00    0.499E-01
RMM:   2    -0.232329898492E+04   -0.49243E-01   -0.51816E-01  6448   0.359E-01    0.385E-01
RMM:   3    -0.232330285127E+04   -0.38663E-02   -0.54644E-02  6189   0.142E-01    0.346E-01
RMM:   4    -0.232330196651E+04    0.88476E-03   -0.57508E-03  5817   0.326E-02    0.212E-01
RMM:   5    -0.232330185925E+04    0.10726E-03   -0.10085E-03  4565   0.159E-02    0.220E-01
RMM:   6    -0.232330146066E+04    0.39859E-03   -0.91355E-04  5191   0.170E-02    0.107E-01
RMM:   7    -0.232330146447E+04   -0.38163E-05   -0.42893E-04  4028   0.127E-02    0.981E-02
RMM:   8    -0.232330133890E+04    0.12557E-03   -0.11576E-04  3024   0.731E-03    0.187E-02
RMM:   9    -0.232330133192E+04    0.69843E-05   -0.15868E-05  2948   0.440E-03
  47 F= -.23446545E+04 E0= -.23446518E+04  d E =-.100117E-01  mag=     3.9366
       N       E                     dE             d eps       ncg     rms          rms(c)
DAV:   1    -0.232329287720E+04    0.84617E-02   -0.76212E-01  4516   0.764E-01    0.261E-01
RMM:   2    -0.232330551041E+04   -0.12633E-01   -0.13092E-01  6398   0.185E-01    0.237E-01
RMM:   3    -0.232330643498E+04   -0.92457E-03   -0.13559E-02  5974   0.720E-02    0.234E-01
RMM:   4    -0.232330605163E+04    0.38334E-03   -0.14369E-03  4007   0.168E-02    0.108E-01
RMM:   5    -0.232330599064E+04    0.60997E-04   -0.26947E-04  3254   0.952E-03    0.900E-02
RMM:   6    -0.232330590509E+04    0.85549E-04   -0.20962E-04  4011   0.944E-03    0.534E-02
RMM:   7    -0.232330589903E+04    0.60611E-05   -0.11085E-04  3002   0.759E-03    0.443E-02
RMM:   8    -0.232330587551E+04    0.23511E-04   -0.25374E-05  2925   0.478E-03    0.101E-02
RMM:   9    -0.232330587390E+04    0.16087E-05   -0.45808E-06  2903   0.276E-03
  48 F= -.23446598E+04 E0= -.23446573E+04  d E =-.533933E-02  mag=     3.9366
       N       E                     dE             d eps       ncg     rms          rms(c)
DAV:   1    -0.232322436289E+04    0.81513E-01   -0.49779E+00  4504   0.195E+00    0.674E-01
RMM:   2    -0.232330818360E+04   -0.83821E-01   -0.86099E-01  6394   0.478E-01    0.670E-01
RMM:   3    -0.232331291862E+04   -0.47350E-02   -0.90450E-02  6193   0.184E-01    0.579E-01
RMM:   4    -0.232331072668E+04    0.21919E-02   -0.94788E-03  6069   0.429E-02    0.291E-01
RMM:   5    -0.232331015215E+04    0.57454E-03   -0.17644E-03  5370   0.205E-02    0.219E-01
RMM:   6    -0.232330965601E+04    0.49614E-03   -0.13324E-03  5199   0.202E-02    0.139E-01
RMM:   7    -0.232330959350E+04    0.62511E-04   -0.72031E-04  4515   0.164E-02    0.112E-01
RMM:   8    -0.232330944034E+04    0.15316E-03   -0.15807E-04  3574   0.805E-03    0.248E-02
RMM:   9    -0.232330942822E+04    0.12113E-04   -0.21550E-05  2969   0.492E-03    0.133E-02
RMM:  10    -0.232330942361E+04    0.46194E-05   -0.15713E-05  2925   0.310E-03
  49 F= -.23446654E+04 E0= -.23446632E+04  d E =-.109305E-01  mag=     3.9439
       N       E                     dE             d eps       ncg     rms          rms(c)
DAV:   1    -0.232330537034E+04    0.40579E-02   -0.45055E-01  4592   0.557E-01    0.191E-01
RMM:   2    -0.232331299914E+04   -0.76288E-02   -0.79268E-02  6513   0.137E-01    0.180E-01
RMM:   3    -0.232331363985E+04   -0.64071E-03   -0.82654E-03  5484   0.511E-02    0.184E-01
RMM:   4    -0.232331340062E+04    0.23923E-03   -0.86343E-04  3190   0.126E-02    0.791E-02
RMM:   5    -0.232331336805E+04    0.32568E-04   -0.15539E-04  3076   0.751E-03    0.684E-02
RMM:   6    -0.232331330812E+04    0.59934E-04   -0.13195E-04  3158   0.753E-03    0.236E-02
RMM:   7    -0.232331331568E+04   -0.75609E-05   -0.45043E-05  2991   0.569E-03
  50 F= -.23446699E+04 E0= -.23446678E+04  d E =-.449915E-02  mag=     3.9471
       N       E                     dE             d eps       ncg     rms          rms(c)
DAV:   1    -0.232324875864E+04    0.64549E-01   -0.40475E+00  4504   0.167E+00    0.579E-01
RMM:   2    -0.232331816523E+04   -0.69407E-01   -0.71753E-01  6562   0.414E-01    0.584E-01
RMM:   3    -0.232332323295E+04   -0.50677E-02   -0.75975E-02  6246   0.155E-01    0.539E-01
RMM:   4    -0.232332122252E+04    0.20104E-02   -0.78944E-03  5816   0.373E-02    0.244E-01
RMM:   5    -0.232332086006E+04    0.36245E-03   -0.14123E-03  5138   0.181E-02    0.200E-01
RMM:   6    -0.232332035169E+04    0.50838E-03   -0.11113E-03  5106   0.184E-02    0.762E-02
RMM:   7    -0.232332042192E+04   -0.70233E-04   -0.43086E-04  4371   0.129E-02    0.962E-02
RMM:   8    -0.232332031174E+04    0.11018E-03   -0.11985E-04  2985   0.686E-03    0.261E-02
RMM:   9    -0.232332029790E+04    0.13842E-04   -0.17738E-05  2971   0.399E-03    0.141E-02
RMM:  10    -0.232332029314E+04    0.47617E-05   -0.15972E-05  2910   0.303E-03
  51 F= -.23446787E+04 E0= -.23446769E+04  d E =-.132966E-01  mag=     3.9548
       N       E                     dE             d eps       ncg     rms          rms(c)
DAV:   1    -0.232302489121E+04    0.29541E+00   -0.16176E+01  4504   0.334E+00    0.118E+00
RMM:   2    -0.232331315367E+04   -0.28826E+00   -0.29234E+00  6532   0.838E-01    0.139E+00
RMM:   3    -0.232332452444E+04   -0.11371E-01   -0.31761E-01  6288   0.314E-01    0.101E+00
RMM:   4    -0.232331786420E+04    0.66602E-02   -0.32418E-02  6194   0.750E-02    0.516E-01
RMM:   5    -0.232331580000E+04    0.20642E-02   -0.58140E-03  5911   0.355E-02    0.385E-01
RMM:   6    -0.232331387334E+04    0.19267E-02   -0.45024E-03  5200   0.358E-02    0.147E-01
RMM:   7    -0.232331418747E+04   -0.31414E-03   -0.17731E-03  5172   0.254E-02    0.192E-01
RMM:   8    -0.232331372975E+04    0.45772E-03   -0.50390E-04  4174   0.120E-02    0.462E-02
RMM:   9    -0.232331367682E+04    0.52935E-04   -0.70315E-05  3039   0.639E-03    0.274E-02
RMM:  10    -0.232331366066E+04    0.16156E-04   -0.52822E-05  2933   0.517E-03    0.862E-03
RMM:  11    -0.232331365926E+04    0.14044E-05   -0.12139E-05  2933   0.386E-03
  52 F= -.23446757E+04 E0= -.23446744E+04  d E =-.102998E-01  mag=     3.9670
       N       E                     dE             d eps       ncg     rms          rms(c)
DAV:   1    -0.232321440110E+04    0.99260E-01   -0.60110E+00  4504   0.203E+00    0.684E-01
RMM:   2    -0.232331399582E+04   -0.99595E-01   -0.10567E+00  6538   0.499E-01    0.479E-01
RMM:   3    -0.232332411730E+04   -0.10121E-01   -0.11578E-01  6174   0.189E-01    0.567E-01
RMM:   4    -0.232332221028E+04    0.19070E-02   -0.11103E-02  5900   0.419E-02    0.293E-01
RMM:   5    -0.232332185061E+04    0.35967E-03   -0.18229E-03  5244   0.205E-02    0.260E-01
RMM:   6    -0.232332110643E+04    0.74418E-03   -0.17283E-03  5397   0.220E-02    0.113E-01
RMM:   7    -0.232332099820E+04    0.10823E-03   -0.55828E-04  4771   0.129E-02    0.571E-02
RMM:   8    -0.232332100516E+04   -0.69525E-05   -0.13653E-04  3000   0.870E-03    0.673E-02
RMM:   9    -0.232332094719E+04    0.57965E-04   -0.42758E-05  2915   0.499E-03    0.168E-02
RMM:  10    -0.232332094057E+04    0.66203E-05   -0.23060E-05  2959   0.320E-03
  53 F= -.23446808E+04 E0= -.23446792E+04  d E =-.153651E-01  mag=     3.9639
       N       E                     dE             d eps       ncg     rms          rms(c)
DAV:   1    -0.232331523535E+04    0.57118E-02   -0.56362E-01  4528   0.597E-01    0.211E-01
RMM:   2    -0.232332440794E+04   -0.91726E-02   -0.96575E-02  6553   0.145E-01    0.174E-01
RMM:   3    -0.232332526207E+04   -0.85412E-03   -0.10286E-02  5439   0.566E-02    0.180E-01
RMM:   4    -0.232332503980E+04    0.22227E-03   -0.10451E-03  3206   0.132E-02    0.934E-02
RMM:   5    -0.232332500690E+04    0.32900E-04   -0.19339E-04  3087   0.791E-03    0.810E-02
RMM:   6    -0.232332493019E+04    0.76706E-04   -0.16161E-04  3132   0.756E-03    0.352E-02
RMM:   7    -0.232332494102E+04   -0.10832E-04   -0.71024E-05  2972   0.592E-03    0.398E-02
RMM:   8    -0.232332492067E+04    0.20358E-04   -0.22019E-05  2910   0.393E-03    0.934E-03
RMM:   9    -0.232332491916E+04    0.15025E-05   -0.28161E-06  2783   0.203E-03
  54 F= -.23446855E+04 E0= -.23446839E+04  d E =-.468484E-02  mag=     3.9632
       N       E                     dE             d eps       ncg     rms          rms(c)
DAV:   1    -0.232325106079E+04    0.73860E-01   -0.44847E+00  4504   0.168E+00    0.602E-01
RMM:   2    -0.232332514571E+04   -0.74085E-01   -0.77401E-01  6558   0.412E-01    0.554E-01
RMM:   3    -0.232333158097E+04   -0.64353E-02   -0.84548E-02  6194   0.160E-01    0.534E-01
RMM:   4    -0.232332959297E+04    0.19880E-02   -0.85821E-03  5783   0.372E-02    0.269E-01
RMM:   5    -0.232332920614E+04    0.38683E-03   -0.15621E-03  4968   0.184E-02    0.217E-01
RMM:   6    -0.232332866250E+04    0.54364E-03   -0.12217E-03  4927   0.181E-02    0.983E-02
RMM:   7    -0.232332875547E+04   -0.92972E-04   -0.55921E-04  4141   0.131E-02    0.115E-01
RMM:   8    -0.232332858232E+04    0.17315E-03   -0.17055E-04  3045   0.752E-03    0.279E-02
RMM:   9    -0.232332856863E+04    0.13691E-04   -0.19534E-05  2974   0.421E-03    0.155E-02
RMM:  10    -0.232332856440E+04    0.42353E-05   -0.13759E-05  2911   0.267E-03
  55 F= -.23446911E+04 E0= -.23446895E+04  d E =-.103219E-01  mag=     3.9634
       N       E                     dE             d eps       ncg     rms          rms(c)
DAV:   1    -0.232331629983E+04    0.12269E-01   -0.10079E+00  4504   0.794E-01    0.286E-01
RMM:   2    -0.232333353383E+04   -0.17234E-01   -0.18073E-01  6526   0.196E-01    0.222E-01
RMM:   3    -0.232333508301E+04   -0.15492E-02   -0.19470E-02  5755   0.761E-02    0.196E-01
RMM:   4    -0.232333477958E+04    0.30344E-03   -0.19188E-03  3534   0.173E-02    0.116E-01
RMM:   5    -0.232333478604E+04   -0.64592E-05   -0.34730E-04  3372   0.102E-02    0.122E-01
RMM:   6    -0.232333464325E+04    0.14279E-03   -0.26508E-04  3390   0.958E-03    0.689E-02
RMM:   7    -0.232333463525E+04    0.79982E-05   -0.15878E-04  3005   0.773E-03    0.536E-02
RMM:   8    -0.232333460294E+04    0.32308E-04   -0.40894E-05  2949   0.544E-03    0.124E-02
RMM:   9    -0.232333459991E+04    0.30282E-05   -0.54606E-06  2910   0.274E-03
  56 F= -.23446981E+04 E0= -.23446965E+04  d E =-.697427E-02  mag=     3.9642
       N       E                     dE             d eps       ncg     rms          rms(c)
DAV:   1    -0.232317911851E+04    0.15548E+00   -0.90481E+00  4504   0.238E+00    0.866E-01
RMM:   2    -0.232333583850E+04   -0.15672E+00   -0.16399E+00  6546   0.594E-01    0.719E-01
RMM:   3    -0.232335035987E+04   -0.14521E-01   -0.18302E-01  6208   0.231E-01    0.667E-01
RMM:   4    -0.232334696121E+04    0.33987E-02   -0.17522E-02  6124   0.520E-02    0.380E-01
RMM:   5    -0.232334655016E+04    0.41106E-03   -0.31570E-03  5527   0.253E-02    0.335E-01
RMM:   6    -0.232334549054E+04    0.10596E-02   -0.23638E-03  5378   0.242E-02    0.199E-01
RMM:   7    -0.232334544789E+04    0.42651E-04   -0.16031E-03  5205   0.196E-02    0.171E-01
RMM:   8    -0.232334510101E+04    0.34687E-03   -0.40590E-04  4101   0.108E-02    0.383E-02
RMM:   9    -0.232334506969E+04    0.31325E-04   -0.44758E-05  2971   0.555E-03    0.257E-02
RMM:  10    -0.232334505822E+04    0.11472E-04   -0.31072E-05  2916   0.403E-03    0.733E-03
RMM:  11    -0.232334505732E+04    0.89283E-06   -0.90300E-06  2924   0.312E-03
  57 F= -.23447113E+04 E0= -.23447100E+04  d E =-.202429E-01  mag=     3.9678
       N       E                     dE             d eps       ncg     rms          rms(c)
DAV:   1    -0.232265471320E+04    0.69035E+00   -0.36000E+01  4504   0.477E+00    0.177E+00
RMM:   2    -0.232330706480E+04   -0.65235E+00   -0.67432E+00  6548   0.121E+00    0.174E+00
RMM:   3    -0.232335777586E+04   -0.50711E-01   -0.76392E-01  6288   0.468E-01    0.152E+00
RMM:   4    -0.232334006875E+04    0.17707E-01   -0.72602E-02  6284   0.108E-01    0.796E-01
RMM:   5    -0.232333661707E+04    0.34517E-02   -0.12538E-02  6132   0.503E-02    0.619E-01
RMM:   6    -0.232333308823E+04    0.35288E-02   -0.93693E-03  5475   0.476E-02    0.370E-01
RMM:   7    -0.232333341167E+04   -0.32344E-03   -0.64405E-03  6067   0.384E-02    0.378E-01
RMM:   8    -0.232333169957E+04    0.17121E-02   -0.17696E-03  5601   0.209E-02    0.762E-02
RMM:   9    -0.232333159184E+04    0.10773E-03   -0.22762E-04  3414   0.905E-03    0.601E-02
RMM:  10    -0.232333154618E+04    0.45663E-04   -0.11312E-04  2992   0.736E-03    0.161E-02
RMM:  11    -0.232333154139E+04    0.47874E-05   -0.34790E-05  2975   0.496E-03
  58 F= -.23447034E+04 E0= -.23447024E+04  d E =-.123373E-01  mag=     3.9747
       N       E                     dE             d eps       ncg     rms          rms(c)
DAV:   1    -0.232303663373E+04    0.29491E+00   -0.16666E+01  4504   0.323E+00    0.118E+00
RMM:   2    -0.232333610642E+04   -0.29947E+00   -0.30800E+00  6547   0.815E-01    0.112E+00
RMM:   3    -0.232335459260E+04   -0.18486E-01   -0.34330E-01  6328   0.324E-01    0.822E-01
RMM:   4    -0.232334940410E+04    0.51885E-02   -0.32853E-02  6284   0.722E-02    0.535E-01
RMM:   5    -0.232334864492E+04    0.75918E-03   -0.51223E-03  5671   0.306E-02    0.495E-01
RMM:   6    -0.232334622189E+04    0.24230E-02   -0.47083E-03  5455   0.325E-02    0.216E-01
RMM:   7    -0.232334624518E+04   -0.23293E-04   -0.23467E-03  5647   0.247E-02    0.190E-01
RMM:   8    -0.232334584192E+04    0.40326E-03   -0.80103E-04  4651   0.142E-02    0.752E-02
RMM:   9    -0.232334575363E+04    0.88293E-04   -0.89484E-05  2986   0.655E-03    0.386E-02
RMM:  10    -0.232334572730E+04    0.26325E-04   -0.70294E-05  2951   0.536E-03    0.116E-02
RMM:  11    -0.232334572503E+04    0.22742E-05   -0.18366E-05  2936   0.394E-03
  59 F= -.23447138E+04 E0= -.23447125E+04  d E =-.227086E-01  mag=     3.9718
       N       E                     dE             d eps       ncg     rms          rms(c)
DAV:   1    -0.232330128328E+04    0.44444E-01   -0.29064E+00  4504   0.135E+00    0.503E-01
RMM:   2    -0.232335215757E+04   -0.50874E-01   -0.53296E-01  6487   0.333E-01    0.385E-01
RMM:   3    -0.232335729514E+04   -0.51376E-02   -0.59739E-02  6178   0.134E-01    0.387E-01
RMM:   4    -0.232335596707E+04    0.13281E-02   -0.60123E-03  5624   0.309E-02    0.214E-01
RMM:   5    -0.232335591561E+04    0.51465E-04   -0.96240E-04  4103   0.134E-02    0.223E-01
RMM:   6    -0.232335546346E+04    0.45215E-03   -0.86681E-04  4742   0.157E-02    0.943E-02
RMM:   7    -0.232335548307E+04   -0.19608E-04   -0.43235E-04  4081   0.117E-02    0.889E-02
RMM:   8    -0.232335538109E+04    0.10198E-03   -0.11885E-04  3004   0.696E-03    0.189E-02
RMM:   9    -0.232335537294E+04    0.81528E-05   -0.15262E-05  2949   0.401E-03
  60 F= -.23447252E+04 E0= -.23447239E+04  d E =-.113377E-01  mag=     3.9726
       N       E                     dE             d eps       ncg     rms          rms(c)
DAV:   1    -0.232301996486E+04    0.33542E+00   -0.18069E+01  4504   0.337E+00    0.127E+00
RMM:   2    -0.232333994574E+04   -0.31998E+00   -0.33700E+00  6499   0.841E-01    0.930E-01
RMM:   3    -0.232337276547E+04   -0.32820E-01   -0.38873E-01  6201   0.337E-01    0.872E-01
RMM:   4    -0.232336522486E+04    0.75406E-02   -0.36353E-02  6346   0.748E-02    0.457E-01
RMM:   5    -0.232336405766E+04    0.11672E-02   -0.58266E-03  5675   0.355E-02    0.396E-01
RMM:   6    -0.232336314716E+04    0.91049E-03   -0.51310E-03  5911   0.338E-02    0.289E-01
RMM:   7    -0.232336309308E+04    0.54083E-04   -0.19230E-03  5516   0.213E-02    0.257E-01
RMM:   8    -0.232336242282E+04    0.67025E-03   -0.71598E-04  4053   0.137E-02    0.854E-02
RMM:   9    -0.232336232340E+04    0.99427E-04   -0.11627E-04  2977   0.731E-03    0.379E-02
RMM:  10    -0.232336230503E+04    0.18368E-04   -0.58112E-05  2946   0.508E-03    0.118E-02
RMM:  11    -0.232336230407E+04    0.95664E-06   -0.15796E-05  2953   0.381E-03
  61 F= -.23447363E+04 E0= -.23447352E+04  d E =-.225127E-01  mag=     3.9758
       N       E                     dE             d eps       ncg     rms          rms(c)
DAV:   1    -0.232325816668E+04    0.10414E+00   -0.59384E+00  4504   0.187E+00    0.714E-01
RMM:   2    -0.232336620033E+04   -0.10803E+00   -0.11346E+00  6561   0.473E-01    0.534E-01
RMM:   3    -0.232337787049E+04   -0.11670E-01   -0.12723E-01  6264   0.190E-01    0.589E-01
RMM:   4    -0.232337498013E+04    0.28904E-02   -0.12755E-02  5983   0.434E-02    0.321E-01
RMM:   5    -0.232337475418E+04    0.22594E-03   -0.19437E-03  4869   0.180E-02    0.306E-01
RMM:   6    -0.232337384410E+04    0.91008E-03   -0.17525E-03  5046   0.217E-02    0.125E-01
RMM:   7    -0.232337386343E+04   -0.19330E-04   -0.76168E-04  4866   0.144E-02    0.112E-01
RMM:   8    -0.232337371583E+04    0.14760E-03   -0.25060E-04  3128   0.887E-03    0.354E-02
RMM:   9    -0.232337369217E+04    0.23666E-04   -0.37390E-05  2941   0.503E-03    0.160E-02
RMM:  10    -0.232337368820E+04    0.39726E-05   -0.16209E-05  2938   0.298E-03
  62 F= -.23447500E+04 E0= -.23447491E+04  d E =-.136798E-01  mag=     3.9791
       N       E                     dE             d eps       ncg     rms          rms(c)
DAV:   1    -0.232328051410E+04    0.93178E-01   -0.49401E+00  4504   0.171E+00    0.652E-01
RMM:   2    -0.232337055759E+04   -0.90043E-01   -0.94432E-01  6570   0.432E-01    0.498E-01
RMM:   3    -0.232338012630E+04   -0.95687E-02   -0.10516E-01  6259   0.172E-01    0.542E-01
RMM:   4    -0.232337765638E+04    0.24699E-02   -0.10720E-02  5899   0.397E-02    0.295E-01
RMM:   5    -0.232337745098E+04    0.20540E-03   -0.16304E-03  4702   0.165E-02    0.279E-01
RMM:   6    -0.232337667069E+04    0.78030E-03   -0.14756E-03  4937   0.201E-02    0.110E-01
RMM:   7    -0.232337669352E+04   -0.22836E-04   -0.62270E-04  4677   0.133E-02    0.101E-01
RMM:   8    -0.232337657419E+04    0.11934E-03   -0.20266E-04  3083   0.819E-03    0.320E-02
RMM:   9    -0.232337655395E+04    0.20235E-04   -0.30946E-05  2937   0.473E-03    0.146E-02
RMM:  10    -0.232337655025E+04    0.37059E-05   -0.14415E-05  2933   0.284E-03
  63 F= -.23447550E+04 E0= -.23447542E+04  d E =-.186734E-01  mag=     3.9823
       N       E                     dE             d eps       ncg     rms          rms(c)
DAV:   1    -0.232325429990E+04    0.12225E+00   -0.68210E+00  4504   0.205E+00    0.799E-01
RMM:   2    -0.232337511149E+04   -0.12081E+00   -0.12910E+00  6514   0.528E-01    0.544E-01
RMM:   3    -0.232338672756E+04   -0.11616E-01   -0.13978E-01  6244   0.204E-01    0.517E-01
RMM:   4    -0.232338393486E+04    0.27927E-02   -0.13784E-02  6070   0.464E-02    0.291E-01
RMM:   5    -0.232338346495E+04    0.46991E-03   -0.25187E-03  5140   0.255E-02    0.267E-01
RMM:   6    -0.232338334722E+04    0.11773E-03   -0.18069E-03  4991   0.201E-02    0.237E-01
RMM:   7    -0.232338285365E+04    0.49357E-03   -0.58275E-04  4876   0.129E-02    0.634E-02
RMM:   8    -0.232338282733E+04    0.26322E-04   -0.16257E-04  3020   0.805E-03    0.520E-02
RMM:   9    -0.232338278496E+04    0.42363E-04   -0.47890E-05  2925   0.474E-03    0.188E-02
RMM:  10    -0.232338277886E+04    0.61067E-05   -0.19801E-05  2940   0.326E-03
  64 F= -.23447631E+04 E0= -.23447626E+04  d E =-.813794E-02  mag=     3.9877
       N       E                     dE             d eps       ncg     rms          rms(c)
DAV:   1    -0.232337632029E+04    0.64647E-02   -0.42660E-01  4608   0.511E-01    0.200E-01
RMM:   2    -0.232338392704E+04   -0.76067E-02   -0.80675E-02  6505   0.131E-01    0.154E-01
RMM:   3    -0.232338461945E+04   -0.69241E-03   -0.84418E-03  5227   0.505E-02    0.156E-01
RMM:   4    -0.232338440919E+04    0.21025E-03   -0.87684E-04  3284   0.125E-02    0.899E-02
RMM:   5    -0.232338440704E+04    0.21553E-05   -0.16631E-04  3003   0.706E-03    0.899E-02
RMM:   6    -0.232338431586E+04    0.91180E-04   -0.13413E-04  2955   0.693E-03    0.247E-02
RMM:   7    -0.232338431373E+04    0.21306E-05   -0.34616E-05  2981   0.477E-03
  65 F= -.23447642E+04 E0= -.23447636E+04  d E =-.919004E-02  mag=     3.9881
       N       E                     dE             d eps       ncg     rms          rms(c)
DAV:   1    -0.232329633455E+04    0.87981E-01   -0.47358E+00  4504   0.177E+00    0.669E-01
RMM:   2    -0.232338770817E+04   -0.91374E-01   -0.95557E-01  6459   0.465E-01    0.495E-01
RMM:   3    -0.232339611480E+04   -0.84066E-02   -0.10045E-01  6132   0.178E-01    0.524E-01
RMM:   4    -0.232339355540E+04    0.25594E-02   -0.95420E-03  5867   0.404E-02    0.280E-01
RMM:   5    -0.232339345989E+04    0.95510E-04   -0.17431E-03  5046   0.190E-02    0.275E-01
RMM:   6    -0.232339265331E+04    0.80658E-03   -0.14440E-03  5033   0.205E-02    0.967E-02
RMM:   7    -0.232339262357E+04    0.29745E-04   -0.45757E-04  4654   0.124E-02    0.652E-02
RMM:   8    -0.232339258944E+04    0.34128E-04   -0.14479E-04  3012   0.760E-03    0.400E-02
RMM:   9    -0.232339256555E+04    0.23893E-04   -0.24532E-05  2908   0.451E-03    0.168E-02
RMM:  10    -0.232339256107E+04    0.44767E-05   -0.16023E-05  2911   0.292E-03
  66 F= -.23447740E+04 E0= -.23447735E+04  d E =-.979252E-02  mag=     3.9903
       N       E                     dE             d eps       ncg     rms          rms(c)
DAV:   1    -0.232338110960E+04    0.11456E-01   -0.57528E-01  4560   0.621E-01    0.233E-01
RMM:   2    -0.232339220802E+04   -0.11098E-01   -0.11619E-01  6485   0.161E-01    0.168E-01
RMM:   3    -0.232339320436E+04   -0.99634E-03   -0.11781E-02  5458   0.605E-02    0.174E-01
RMM:   4    -0.232339291777E+04    0.28659E-03   -0.11567E-03  3337   0.144E-02    0.958E-02
RMM:   5    -0.232339292184E+04   -0.40699E-05   -0.21236E-04  3064   0.813E-03    0.102E-01
RMM:   6    -0.232339281035E+04    0.11149E-03   -0.18139E-04  3146   0.838E-03    0.296E-02
RMM:   7    -0.232339280825E+04    0.21012E-05   -0.47751E-05  3029   0.566E-03
  67 F= -.23447748E+04 E0= -.23447744E+04  d E =-.105909E-01  mag=     3.9913
       N       E                     dE             d eps       ncg     rms          rms(c)
DAV:   1    -0.232337631793E+04    0.16492E-01   -0.11767E+00  4528   0.105E+00    0.373E-01
RMM:   2    -0.232339792928E+04   -0.21611E-01   -0.21653E-01  6246   0.255E-01    0.387E-01
RMM:   3    -0.232339885309E+04   -0.92381E-03   -0.22259E-02  5983   0.100E-01    0.340E-01
RMM:   4    -0.232339784720E+04    0.10059E-02   -0.24953E-03  5523   0.250E-02    0.171E-01
RMM:   5    -0.232339761414E+04    0.23305E-03   -0.58010E-04  4137   0.137E-02    0.120E-01
RMM:   6    -0.232339743275E+04    0.18139E-03   -0.39415E-04  4637   0.135E-02    0.469E-02
RMM:   7    -0.232339744786E+04   -0.15111E-04   -0.16076E-04  3339   0.106E-02    0.526E-02
RMM:   8    -0.232339741328E+04    0.34582E-04   -0.47168E-05  2958   0.551E-03    0.122E-02
RMM:   9    -0.232339740999E+04    0.32887E-05   -0.77447E-06  2905   0.360E-03
  68 F= -.23447804E+04 E0= -.23447800E+04  d E =-.566345E-02  mag=     3.9918
       N       E                     dE             d eps       ncg     rms          rms(c)
DAV:   1    -0.232339288408E+04    0.45292E-02   -0.25933E-01  4624   0.494E-01    0.174E-01
RMM:   2    -0.232339765591E+04   -0.47718E-02   -0.47688E-02  6163   0.120E-01    0.184E-01
RMM:   3    -0.232339786081E+04   -0.20490E-03   -0.49477E-03  5392   0.476E-02    0.161E-01
RMM:   4    -0.232339763770E+04    0.22311E-03   -0.54769E-04  3453   0.121E-02    0.790E-02
RMM:   5    -0.232339758652E+04    0.51186E-04   -0.12865E-04  3010   0.768E-03    0.561E-02
RMM:   6    -0.232339754588E+04    0.40635E-04   -0.97543E-05  3702   0.755E-03    0.228E-02
RMM:   7    -0.232339754907E+04   -0.31919E-05   -0.38367E-05  2969   0.611E-03
  69 F= -.23447811E+04 E0= -.23447807E+04  d E =-.630347E-02  mag=     3.9920
       N       E                     dE             d eps       ncg     rms          rms(c)
DAV:   1    -0.232337461066E+04    0.22935E-01   -0.13760E+00  4516   0.111E+00    0.382E-01
RMM:   2    -0.232340056723E+04   -0.25957E-01   -0.25673E-01  6439   0.268E-01    0.491E-01
RMM:   3    -0.232340015605E+04    0.41119E-03   -0.26660E-02  6026   0.100E-01    0.297E-01
RMM:   4    -0.232339965406E+04    0.50198E-03   -0.30800E-03  5283   0.248E-02    0.205E-01
RMM:   5    -0.232339926275E+04    0.39131E-03   -0.61803E-04  3883   0.127E-02    0.117E-01
RMM:   6    -0.232339914383E+04    0.11892E-03   -0.42424E-04  4456   0.128E-02    0.864E-02
RMM:   7    -0.232339909109E+04    0.52743E-04   -0.23228E-04  3158   0.104E-02    0.452E-02
RMM:   8    -0.232339906891E+04    0.22182E-04   -0.43888E-05  2966   0.553E-03    0.126E-02
RMM:   9    -0.232339906702E+04    0.18897E-05   -0.70235E-06  2891   0.353E-03
  70 F= -.23447837E+04 E0= -.23447833E+04  d E =-.261759E-02  mag=     3.9925
       N       E                     dE             d eps       ncg     rms          rms(c)
DAV:   1    -0.232339817875E+04    0.89016E-03   -0.82849E-02  4624   0.273E-01    0.926E-02
RMM:   2    -0.232339972673E+04   -0.15480E-02   -0.15305E-02  6373   0.650E-02    0.120E-01
RMM:   3    -0.232339970771E+04    0.19013E-04   -0.16028E-03  3541   0.238E-02    0.730E-02
RMM:   4    -0.232339967446E+04    0.33251E-04   -0.17864E-04  3015   0.722E-03    0.484E-02
RMM:   5    -0.232339965292E+04    0.21545E-04   -0.36837E-05  2959   0.391E-03    0.282E-02
RMM:   6    -0.232339964501E+04    0.79088E-05   -0.24720E-05  2937   0.366E-03
  71 F= -.23447840E+04 E0= -.23447836E+04  d E =-.292503E-02  mag=     3.9926
       N       E                     dE             d eps       ncg     rms          rms(c)
DAV:   1    -0.232338508227E+04    0.14571E-01   -0.97674E-01  4528   0.991E-01    0.328E-01
RMM:   2    -0.232340396683E+04   -0.18885E-01   -0.18320E-01  6329   0.231E-01    0.421E-01
RMM:   3    -0.232340354785E+04    0.41898E-03   -0.19160E-02  5964   0.862E-02    0.240E-01
RMM:   4    -0.232340321513E+04    0.33271E-03   -0.21890E-03  5269   0.213E-02    0.174E-01
RMM:   5    -0.232340291807E+04    0.29706E-03   -0.38667E-04  3456   0.110E-02    0.880E-02
RMM:   6    -0.232340286589E+04    0.52182E-04   -0.26500E-04  4391   0.105E-02    0.831E-02
RMM:   7    -0.232340279739E+04    0.68499E-04   -0.16749E-04  3219   0.938E-03    0.310E-02
RMM:   8    -0.232340278722E+04    0.10174E-04   -0.35999E-05  3007   0.555E-03    0.102E-02
RMM:   9    -0.232340278569E+04    0.15259E-05   -0.65814E-06  2875   0.399E-03
  72 F= -.23447880E+04 E0= -.23447877E+04  d E =-.403567E-02  mag=     3.9927
       N       E                     dE             d eps       ncg     rms          rms(c)
DAV:   1    -0.232339333045E+04    0.94568E-02   -0.53002E-01  4528   0.730E-01    0.242E-01
RMM:   2    -0.232340358039E+04   -0.10250E-01   -0.99706E-02  6250   0.170E-01    0.309E-01
RMM:   3    -0.232340336789E+04    0.21250E-03   -0.10355E-02  5759   0.665E-02    0.177E-01
RMM:   4    -0.232340319330E+04    0.17459E-03   -0.11971E-03  4414   0.159E-02    0.129E-01
RMM:   5    -0.232340303032E+04    0.16298E-03   -0.21276E-04  3097   0.880E-03    0.654E-02
RMM:   6    -0.232340300211E+04    0.28212E-04   -0.15348E-04  3940   0.833E-03    0.618E-02
RMM:   7    -0.232340296449E+04    0.37623E-04   -0.91450E-05  2984   0.749E-03    0.235E-02
RMM:   8    -0.232340295853E+04    0.59508E-05   -0.21259E-05  2962   0.454E-03
  73 F= -.23447889E+04 E0= -.23447885E+04  d E =-.487135E-02  mag=     3.9928
       N       E                     dE             d eps       ncg     rms          rms(c)
DAV:   1    -0.232339290053E+04    0.10064E-01   -0.74382E-01  4516   0.882E-01    0.277E-01
RMM:   2    -0.232340628217E+04   -0.13382E-01   -0.13356E-01  6204   0.201E-01    0.296E-01
RMM:   3    -0.232340641968E+04   -0.13752E-03   -0.13217E-02  5804   0.736E-02    0.174E-01
RMM:   4    -0.232340612686E+04    0.29282E-03   -0.14070E-03  4961   0.175E-02    0.116E-01
RMM:   5    -0.232340604219E+04    0.84669E-04   -0.21310E-04  3088   0.900E-03    0.842E-02
RMM:   6    -0.232340599490E+04    0.47293E-04   -0.18706E-04  3948   0.911E-03    0.737E-02
RMM:   7    -0.232340594675E+04    0.48146E-04   -0.11967E-04  3027   0.800E-03    0.281E-02
RMM:   8    -0.232340593946E+04    0.72957E-05   -0.25775E-05  2976   0.508E-03
  74 F= -.23447924E+04 E0= -.23447920E+04  d E =-.350560E-02  mag=     3.9932
       N       E                     dE             d eps       ncg     rms          rms(c)
DAV:   1    -0.232338336952E+04    0.22577E-01   -0.13381E+00  4504   0.118E+00    0.372E-01
RMM:   2    -0.232340746247E+04   -0.24093E-01   -0.24039E-01  6208   0.269E-01    0.398E-01
RMM:   3    -0.232340770230E+04   -0.23983E-03   -0.23953E-02  5900   0.101E-01    0.235E-01
RMM:   4    -0.232340717441E+04    0.52789E-03   -0.25408E-03  5439   0.234E-02    0.157E-01
RMM:   5    -0.232340701801E+04    0.15640E-03   -0.38639E-04  3458   0.118E-02    0.113E-01
RMM:   6    -0.232340693239E+04    0.85618E-04   -0.34045E-04  4388   0.118E-02    0.100E-01
RMM:   7    -0.232340684134E+04    0.91051E-04   -0.21929E-04  3463   0.104E-02    0.375E-02
RMM:   8    -0.232340682680E+04    0.14540E-04   -0.44640E-05  3077   0.598E-03    0.127E-02
RMM:   9    -0.232340682427E+04    0.25268E-05   -0.80958E-06  2892   0.437E-03
  75 F= -.23447940E+04 E0= -.23447937E+04  d E =-.510151E-02  mag=     3.9940
       N       E                     dE             d eps       ncg     rms          rms(c)
DAV:   1    -0.232339593235E+04    0.10894E-01   -0.76823E-01  4516   0.881E-01    0.263E-01
RMM:   2    -0.232340878820E+04   -0.12856E-01   -0.13223E-01  6361   0.197E-01    0.240E-01
RMM:   3    -0.232340934158E+04   -0.55338E-03   -0.12793E-02  5704   0.721E-02    0.158E-01
RMM:   4    -0.232340901584E+04    0.32574E-03   -0.13162E-03  4278   0.165E-02    0.864E-02
RMM:   5    -0.232340898338E+04    0.32461E-04   -0.23022E-04  3266   0.945E-03    0.817E-02
RMM:   6    -0.232340890561E+04    0.77770E-04   -0.18971E-04  3421   0.950E-03    0.346E-02
RMM:   7    -0.232340892245E+04   -0.16837E-04   -0.69698E-05  3006   0.683E-03    0.521E-02
RMM:   8    -0.232340889698E+04    0.25472E-04   -0.22824E-05  2910   0.460E-03    0.110E-02
RMM:   9    -0.232340889527E+04    0.17039E-05   -0.40515E-06  2876   0.237E-03
[...]
DAV:   1    -0.232342543403E+04    0.19734E-02   -0.20582E-01  4504   0.426E-01    0.122E-01
RMM:   2    -0.232342715911E+04   -0.17251E-02   -0.18087E-02  6145   0.861E-02    0.972E-02
RMM:   3    -0.232342734068E+04   -0.18156E-03   -0.17785E-03  4525   0.323E-02    0.127E-01
RMM:   4    -0.232342718321E+04    0.15747E-03   -0.20872E-04  3046   0.940E-03    0.477E-02
RMM:   5    -0.232342719724E+04   -0.14033E-04   -0.89794E-05  2999   0.661E-03    0.564E-02
RMM:   6    -0.232342715599E+04    0.41252E-04   -0.61847E-05  2975   0.625E-03    0.118E-02
RMM:   7    -0.232342715537E+04    0.62060E-06   -0.94269E-06  2913   0.418E-03
 121 F= -.23448376E+04 E0= -.23448370E+04  d E =-.601587E-03  mag=     3.9893
       N       E                     dE             d eps       ncg     rms          rms(c)
DAV:   1    -0.232342680183E+04    0.35417E-03   -0.51471E-02  4592   0.205E-01    0.594E-02
RMM:   2    -0.232342727505E+04   -0.47322E-03   -0.49540E-03  6134   0.426E-02    0.531E-02
RMM:   3    -0.232342732361E+04   -0.48556E-04   -0.49909E-04  3171   0.161E-02    0.664E-02
RMM:   4    -0.232342728024E+04    0.43365E-04   -0.57322E-05  2948   0.535E-03    0.225E-02
RMM:   5    -0.232342728108E+04   -0.84068E-06   -0.21164E-05  2946   0.311E-03
 122 F= -.23448379E+04 E0= -.23448374E+04  d E =-.358208E-03  mag=     3.9889
       N       E                     dE             d eps       ncg     rms          rms(c)
DAV:   1    -0.232342593645E+04    0.13438E-02   -0.12634E-01  4504   0.322E-01    0.922E-02
RMM:   2    -0.232342708819E+04   -0.11517E-02   -0.12114E-02  6092   0.659E-02    0.830E-02
RMM:   3    -0.232342720669E+04   -0.11849E-03   -0.12186E-03  3809   0.244E-02    0.103E-01
RMM:   4    -0.232342710305E+04    0.10363E-03   -0.13537E-04  2983   0.758E-03    0.335E-02
RMM:   5    -0.232342711181E+04   -0.87630E-05   -0.56615E-05  2979   0.510E-03
 123 F= -.23448381E+04 E0= -.23448375E+04  d E =-.554972E-03  mag=     3.9884
       N       E                     dE             d eps       ncg     rms          rms(c)
DAV:   1    -0.232342691737E+04    0.18568E-03   -0.41730E-02  4528   0.190E-01    0.614E-02
RMM:   2    -0.232342731273E+04   -0.39535E-03   -0.40004E-03  6160   0.409E-02    0.614E-02
RMM:   3    -0.232342734421E+04   -0.31480E-04   -0.44613E-04  3211   0.162E-02    0.644E-02
RMM:   4    -0.232342730271E+04    0.41500E-04   -0.48661E-05  2961   0.552E-03    0.215E-02
RMM:   5    -0.232342730697E+04   -0.42644E-05   -0.23099E-05  2929   0.350E-03
 124 F= -.23448385E+04 E0= -.23448379E+04  d E =-.378790E-03  mag=     3.9881
       N       E                     dE             d eps       ncg     rms          rms(c)
DAV:   1    -0.232342505365E+04    0.22491E-02   -0.23500E-01  4504   0.448E-01    0.142E-01
RMM:   2    -0.232342721465E+04   -0.21610E-02   -0.22333E-02  5999   0.928E-02    0.128E-01
RMM:   3    -0.232342746793E+04   -0.25329E-03   -0.23362E-03  4660   0.375E-02    0.164E-01
RMM:   4    -0.232342719083E+04    0.27710E-03   -0.26626E-04  3130   0.105E-02    0.422E-02
RMM:   5    -0.232342718363E+04    0.71965E-05   -0.10463E-04  3554   0.763E-03    0.405E-02
RMM:   6    -0.232342717075E+04    0.12882E-04   -0.56997E-05  2933   0.656E-03    0.218E-02
RMM:   7    -0.232342716527E+04    0.54747E-05   -0.91553E-06  2885   0.350E-03
 125 F= -.23448388E+04 E0= -.23448382E+04  d E =-.672675E-03  mag=     3.9876
       N       E                     dE             d eps       ncg     rms          rms(c)
DAV:   1    -0.232342671636E+04    0.45439E-03   -0.63556E-02  4516   0.231E-01    0.717E-02
RMM:   2    -0.232342733825E+04   -0.62189E-03   -0.62934E-03  6177   0.491E-02    0.690E-02
RMM:   3    -0.232342738286E+04   -0.44614E-04   -0.61256E-04  3470   0.184E-02    0.764E-02
RMM:   4    -0.232342732902E+04    0.53847E-04   -0.75638E-05  2967   0.611E-03    0.283E-02
RMM:   5    -0.232342732904E+04   -0.26470E-07   -0.26207E-05  2941   0.363E-03
 126 F= -.23448392E+04 E0= -.23448386E+04  d E =-.406894E-03  mag=     3.9874
       N       E                     dE             d eps       ncg     rms          rms(c)
DAV:   1    -0.232342218393E+04    0.51451E-02   -0.50713E-01  4504   0.652E-01    0.200E-01
RMM:   2    -0.232342705972E+04   -0.48758E-02   -0.49834E-02  6029   0.136E-01    0.186E-01
RMM:   3    -0.232342748914E+04   -0.42942E-03   -0.48607E-03  5605   0.517E-02    0.222E-01
RMM:   4    -0.232342701830E+04    0.47084E-03   -0.59274E-04  3888   0.138E-02    0.740E-02
RMM:   5    -0.232342703520E+04   -0.16901E-04   -0.20702E-04  3124   0.931E-03    0.853E-02
RMM:   6    -0.232342694720E+04    0.88003E-04   -0.17652E-04  4014   0.965E-03    0.255E-02
RMM:   7    -0.232342694906E+04   -0.18635E-05   -0.40244E-05  2959   0.609E-03
 127 F= -.23448395E+04 E0= -.23448389E+04  d E =-.717548E-03  mag=     3.9868
       N       E                     dE             d eps       ncg     rms          rms(c)
DAV:   1    -0.232342645003E+04    0.49717E-03   -0.57806E-02  4592   0.216E-01    0.672E-02
RMM:   2    -0.232342706205E+04   -0.61202E-03   -0.62323E-03  6059   0.470E-02    0.591E-02
RMM:   3    -0.232342710361E+04   -0.41568E-04   -0.58937E-04  3291   0.181E-02    0.643E-02
RMM:   4    -0.232342706713E+04    0.36487E-04   -0.74037E-05  2965   0.575E-03    0.311E-02
RMM:   5    -0.232342706359E+04    0.35377E-05   -0.21399E-05  2935   0.304E-03
 128 F= -.23448399E+04 E0= -.23448392E+04  d E =-.363680E-03  mag=     3.9865
       N       E                     dE             d eps       ncg     rms          rms(c)
DAV:   1    -0.232342145813E+04    0.56090E-02   -0.51964E-01  4504   0.648E-01    0.197E-01
RMM:   2    -0.232342689221E+04   -0.54341E-02   -0.55520E-02  6068   0.138E-01    0.175E-01
RMM:   3    -0.232342724559E+04   -0.35339E-03   -0.52651E-03  5661   0.515E-02    0.188E-01
RMM:   4    -0.232342692512E+04    0.32047E-03   -0.63026E-04  3467   0.132E-02    0.903E-02
RMM:   5    -0.232342690431E+04    0.20811E-04   -0.18715E-04  3038   0.846E-03    0.805E-02
RMM:   6    -0.232342683828E+04    0.66030E-04   -0.16166E-04  3907   0.883E-03    0.337E-02
RMM:   7    -0.232342683691E+04    0.13682E-05   -0.56277E-05  2960   0.656E-03
 129 F= -.23448404E+04 E0= -.23448397E+04  d E =-.887430E-03  mag=     3.9858
       N       E                     dE             d eps       ncg     rms          rms(c)
DAV:   1    -0.232342663721E+04    0.20107E-03   -0.51266E-02  4576   0.215E-01    0.748E-02
RMM:   2    -0.232342718996E+04   -0.55275E-03   -0.57923E-03  6023   0.478E-02    0.570E-02
RMM:   3    -0.232342722321E+04   -0.33252E-04   -0.57064E-04  3552   0.198E-02    0.567E-02
RMM:   4    -0.232342717927E+04    0.43942E-04   -0.67285E-05  2977   0.632E-03    0.222E-02
RMM:   5    -0.232342718218E+04   -0.29072E-05   -0.28846E-05  2984   0.425E-03
 130 F= -.23448409E+04 E0= -.23448402E+04  d E =-.529607E-03  mag=     3.9855
       N       E                     dE             d eps       ncg     rms          rms(c)
DAV:   1    -0.232342665623E+04    0.52304E-03   -0.47010E-02  4528   0.206E-01    0.736E-02
RMM:   2    -0.232342719820E+04   -0.54197E-03   -0.52948E-03  6184   0.466E-02    0.849E-02
RMM:   3    -0.232342719840E+04   -0.20103E-06   -0.59316E-04  3437   0.188E-02    0.712E-02
RMM:   4    -0.232342716057E+04    0.37837E-04   -0.78775E-05  2983   0.639E-03    0.396E-02
RMM:   5    -0.232342714559E+04    0.14981E-04   -0.28742E-05  2922   0.413E-03    0.236E-02
RMM:   6    -0.232342713745E+04    0.81341E-05   -0.21707E-05  2926   0.419E-03
 131 F= -.23448411E+04 E0= -.23448403E+04  d E =-.662298E-03  mag=     3.9853
       N       E                     dE             d eps       ncg     rms          rms(c)
DAV:   1    -0.232342652158E+04    0.62401E-03   -0.61900E-02  4528   0.230E-01    0.789E-02
RMM:   2    -0.232342727771E+04   -0.75613E-03   -0.78654E-03  6275   0.527E-02    0.724E-02
RMM:   3    -0.232342730133E+04   -0.23624E-04   -0.79549E-04  3322   0.188E-02    0.633E-02
RMM:   4    -0.232342726261E+04    0.38727E-04   -0.90703E-05  2990   0.666E-03    0.364E-02
RMM:   5    -0.232342725970E+04    0.29008E-05   -0.31630E-05  2932   0.405E-03
 132 F= -.23448414E+04 E0= -.23448407E+04  d E =-.345274E-03  mag=     3.9851
       N       E                     dE             d eps       ncg     rms          rms(c)
DAV:   1    -0.232342718932E+04    0.73285E-04   -0.17096E-03  5104   0.389E-02    0.207E-02
RMM:   2    -0.232342722659E+04   -0.37270E-04   -0.25664E-04  3611   0.983E-03    0.387E-02
RMM:   3    -0.232342720954E+04    0.17048E-04   -0.36955E-05  2925   0.562E-03    0.100E-02
RMM:   4    -0.232342720990E+04   -0.35719E-06   -0.54595E-06  2812   0.181E-03
 133 F= -.23448414E+04 E0= -.23448407E+04  d E =-.333877E-03  mag=     3.9849
       N       E                     dE             d eps       ncg     rms          rms(c)
DAV:   1    -0.232342681585E+04    0.39369E-03   -0.51160E-02  4528   0.221E-01    0.739E-02
RMM:   2    -0.232342741047E+04   -0.59461E-03   -0.61631E-03  6018   0.468E-02    0.566E-02
RMM:   3    -0.232342745368E+04   -0.43213E-04   -0.63642E-04  3444   0.194E-02    0.586E-02
RMM:   4    -0.232342741126E+04    0.42419E-04   -0.66742E-05  2963   0.597E-03    0.282E-02
RMM:   5    -0.232342741514E+04   -0.38758E-05   -0.27124E-05  2934   0.364E-03
 134 F= -.23448418E+04 E0= -.23448411E+04  d E =-.381471E-03  mag=     3.9848
       N       E                     dE             d eps       ncg     rms          rms(c)
DAV:   1    -0.232342642531E+04    0.98596E-03   -0.75483E-02  4516   0.269E-01    0.904E-02
RMM:   2    -0.232342732103E+04   -0.89572E-03   -0.91750E-03  6085   0.579E-02    0.767E-02
RMM:   3    -0.232342737450E+04   -0.53474E-04   -0.97101E-04  3723   0.234E-02    0.759E-02
RMM:   4    -0.232342730877E+04    0.65731E-04   -0.10425E-04  2979   0.727E-03    0.381E-02
RMM:   5    -0.232342730788E+04    0.89184E-06   -0.39786E-05  2946   0.447E-03
 135 F= -.23448419E+04 E0= -.23448412E+04  d E =-.489764E-03  mag=     3.9847
       N       E                     dE             d eps       ncg     rms          rms(c)
DAV:   1    -0.232342667342E+04    0.63535E-03   -0.71642E-02  4516   0.263E-01    0.832E-02
RMM:   2    -0.232342745248E+04   -0.77906E-03   -0.81950E-03  6129   0.549E-02    0.571E-02
RMM:   3    -0.232342751771E+04   -0.65227E-04   -0.84577E-04  3600   0.225E-02    0.595E-02
RMM:   4    -0.232342747173E+04    0.45977E-04   -0.87366E-05  2996   0.694E-03    0.255E-02
RMM:   5    -0.232342747044E+04    0.12913E-05   -0.37447E-05  2947   0.497E-03
 136 F= -.23448423E+04 E0= -.23448416E+04  d E =-.397128E-03  mag=     3.9847
       N       E                     dE             d eps       ncg     rms          rms(c)
DAV:   1    -0.232342642647E+04    0.10453E-02   -0.80510E-02  4516   0.278E-01    0.901E-02
RMM:   2    -0.232342734492E+04   -0.91845E-03   -0.93590E-03  6248   0.593E-02    0.847E-02
RMM:   3    -0.232342741001E+04   -0.65087E-04   -0.98103E-04  3664   0.227E-02    0.888E-02
RMM:   4    -0.232342734389E+04    0.66122E-04   -0.11786E-04  2986   0.751E-03    0.437E-02
RMM:   5    -0.232342733141E+04    0.12478E-04   -0.38733E-05  2953   0.456E-03    0.319E-02
RMM:   6    -0.232342731847E+04    0.12938E-04   -0.32790E-05  2920   0.483E-03    0.692E-03
RMM:   7    -0.232342731851E+04   -0.42011E-07   -0.56799E-06  2896   0.337E-03
 137 F= -.23448424E+04 E0= -.23448417E+04  d E =-.493668E-03  mag=     3.9847
       N       E                     dE             d eps       ncg     rms          rms(c)
DAV:   1    -0.232342677003E+04    0.54844E-03   -0.56808E-02  4528   0.228E-01    0.733E-02
RMM:   2    -0.232342741935E+04   -0.64932E-03   -0.69032E-03  6038   0.485E-02    0.558E-02
RMM:   3    -0.232342747180E+04   -0.52453E-04   -0.65697E-04  3405   0.192E-02    0.644E-02
RMM:   4    -0.232342743163E+04    0.40178E-04   -0.79890E-05  2974   0.607E-03    0.315E-02
RMM:   5    -0.232342743197E+04   -0.34462E-06   -0.27778E-05  2943   0.354E-03
 138 F= -.23448427E+04 E0= -.23448420E+04  d E =-.333898E-03  mag=     3.9847
       N       E                     dE             d eps       ncg     rms          rms(c)
DAV:   1    -0.232342720292E+04    0.22870E-03   -0.11886E-02  4744   0.105E-01    0.346E-02
RMM:   2    -0.232342734047E+04   -0.13755E-03   -0.14445E-03  5852   0.230E-02    0.299E-02
RMM:   3    -0.232342734976E+04   -0.92902E-05   -0.15505E-04  2950   0.971E-03    0.282E-02
RMM:   4    -0.232342734091E+04    0.88508E-05   -0.17181E-05  2947   0.325E-03
 139 F= -.23448427E+04 E0= -.23448420E+04  d E =-.345219E-03  mag=     3.9847
       N       E                     dE             d eps       ncg     rms          rms(c)
DAV:   1    -0.232342667903E+04    0.67073E-03   -0.68156E-02  4528   0.257E-01    0.876E-02
RMM:   2    -0.232342767109E+04   -0.99205E-03   -0.89317E-03  6036   0.547E-02    0.136E-01
RMM:   3    -0.232342759427E+04    0.76815E-04   -0.99696E-04  3626   0.231E-02    0.752E-02
RMM:   4    -0.232342754408E+04    0.50194E-04   -0.10493E-04  2996   0.663E-03    0.296E-02
RMM:   5    -0.232342754636E+04   -0.22782E-05   -0.37042E-05  2966   0.420E-03
 140 F= -.23448432E+04 E0= -.23448424E+04  d E =-.415473E-03  mag=     3.9849
       N       E                     dE             d eps       ncg     rms          rms(c)
DAV:   1    -0.232342630460E+04    0.12395E-02   -0.86980E-02  4504   0.290E-01    0.945E-02
RMM:   2    -0.232342742015E+04   -0.11156E-02   -0.11279E-02  6107   0.626E-02    0.914E-02
RMM:   3    -0.232342750261E+04   -0.82458E-04   -0.11671E-03  3735   0.253E-02    0.972E-02
RMM:   4    -0.232342741661E+04    0.86004E-04   -0.13658E-04  2998   0.764E-03    0.374E-02
RMM:   5    -0.232342741447E+04    0.21364E-05   -0.45689E-05  2965   0.461E-03
 141 F= -.23448433E+04 E0= -.23448426E+04  d E =-.522774E-03  mag=     3.9851
       N       E                     dE             d eps       ncg     rms          rms(c)
DAV:   1    -0.232342648933E+04    0.92728E-03   -0.85742E-02  4504   0.289E-01    0.938E-02
RMM:   2    -0.232342766183E+04   -0.11725E-02   -0.11406E-02  6094   0.628E-02    0.109E-01
RMM:   3    -0.232342767950E+04   -0.17667E-04   -0.11738E-03  3815   0.260E-02    0.871E-02
RMM:   4    -0.232342761799E+04    0.61508E-04   -0.13881E-04  2998   0.753E-03    0.404E-02
RMM:   5    -0.232342760912E+04    0.88666E-05   -0.40890E-05  2949   0.447E-03
 142 F= -.23448437E+04 E0= -.23448430E+04  d E =-.441443E-03  mag=     3.9854
       N       E                     dE             d eps       ncg     rms          rms(c)
DAV:   1    -0.232342553416E+04    0.20838E-02   -0.14581E-01  4504   0.376E-01    0.122E-01
RMM:   2    -0.232342750618E+04   -0.19720E-02   -0.19415E-02  6060   0.810E-02    0.136E-01
RMM:   3    -0.232342757125E+04   -0.65071E-04   -0.20057E-03  4384   0.339E-02    0.117E-01
RMM:   4    -0.232342745561E+04    0.11564E-03   -0.23478E-04  3020   0.916E-03    0.508E-02
RMM:   5    -0.232342744331E+04    0.12303E-04   -0.68993E-05  2985   0.578E-03    0.445E-02
RMM:   6    -0.232342741780E+04    0.25504E-04   -0.54982E-05  3021   0.603E-03    0.106E-02
RMM:   7    -0.232342741819E+04   -0.38833E-06   -0.10844E-05  2928   0.447E-03
 143 F= -.23448438E+04 E0= -.23448432E+04  d E =-.573514E-03  mag=     3.9858
       N       E                     dE             d eps       ncg     rms          rms(c)
DAV:   1    -0.232342611899E+04    0.12988E-02   -0.12079E-01  4504   0.339E-01    0.109E-01
RMM:   2    -0.232342758531E+04   -0.14663E-02   -0.14773E-02  6017   0.731E-02    0.102E-01
RMM:   3    -0.232342763698E+04   -0.51670E-04   -0.14440E-03  4209   0.297E-02    0.880E-02
RMM:   4    -0.232342756143E+04    0.75556E-04   -0.16816E-04  3020   0.823E-03    0.470E-02
RMM:   5    -0.232342755557E+04    0.58533E-05   -0.48816E-05  2964   0.504E-03
 144 F= -.23448443E+04 E0= -.23448436E+04  d E =-.456715E-03  mag=     3.9860
       N       E                     dE             d eps       ncg     rms          rms(c)
DAV:   1    -0.232342691241E+04    0.64901E-03   -0.39327E-02  4608   0.194E-01    0.628E-02
RMM:   2    -0.232342739362E+04   -0.48121E-03   -0.48665E-03  6203   0.427E-02    0.597E-02
RMM:   3    -0.232342740842E+04   -0.14794E-04   -0.48669E-04  3226   0.166E-02    0.496E-02
RMM:   4    -0.232342738190E+04    0.26512E-04   -0.54699E-05  2979   0.556E-03    0.246E-02
RMM:   5    -0.232342738693E+04   -0.50250E-05   -0.21360E-05  2917   0.338E-03
 145 F= -.23448443E+04 E0= -.23448436E+04  d E =-.472891E-03  mag=     3.9861
       N       E                     dE             d eps       ncg     rms          rms(c)
DAV:   1    -0.232342662998E+04    0.75192E-03   -0.77523E-02  4504   0.259E-01    0.820E-02
RMM:   2    -0.232342753227E+04   -0.90229E-03   -0.92000E-03  6050   0.555E-02    0.781E-02
RMM:   3    -0.232342755472E+04   -0.22448E-04   -0.89811E-04  3546   0.219E-02    0.593E-02
RMM:   4    -0.232342750844E+04    0.46270E-04   -0.96003E-05  3020   0.662E-03    0.259E-02
RMM:   5    -0.232342752389E+04   -0.15444E-04   -0.38998E-05  2978   0.435E-03    0.499E-02
RMM:   6    -0.232342749960E+04    0.24286E-04   -0.26215E-05  2908   0.427E-03    0.982E-03
RMM:   7    -0.232342749940E+04    0.20153E-06   -0.52870E-06  2900   0.249E-03
 146 F= -.23448446E+04 E0= -.23448440E+04  d E =-.334878E-03  mag=     3.9863
       N       E                     dE             d eps       ncg     rms          rms(c)
DAV:   1    -0.232342714733E+04    0.35227E-03   -0.23857E-02  4608   0.144E-01    0.459E-02
RMM:   2    -0.232342742614E+04   -0.27881E-03   -0.28457E-03  6049   0.315E-02    0.424E-02
RMM:   3    -0.232342743460E+04   -0.84581E-05   -0.27231E-04  3014   0.124E-02    0.330E-02
RMM:   4    -0.232342742062E+04    0.13981E-04   -0.29680E-05  2964   0.397E-03    0.146E-02
RMM:   5    -0.232342742389E+04   -0.32699E-05   -0.11818E-05  2884   0.246E-03
 147 F= -.23448447E+04 E0= -.23448440E+04  d E =-.382638E-03  mag=     3.9864
       N       E                     dE             d eps       ncg     rms          rms(c)
DAV:   1    -0.232342674533E+04    0.67530E-03   -0.78711E-02  4504   0.265E-01    0.855E-02
RMM:   2    -0.232342765973E+04   -0.91441E-03   -0.92547E-03  6033   0.567E-02    0.817E-02
RMM:   3    -0.232342769930E+04   -0.39571E-04   -0.94362E-04  3697   0.228E-02    0.784E-02
RMM:   4    -0.232342764336E+04    0.55945E-04   -0.10972E-04  2983   0.700E-03    0.433E-02
RMM:   5    -0.232342763176E+04    0.11601E-04   -0.35924E-05  2948   0.414E-03    0.322E-02
RMM:   6    -0.232342761994E+04    0.11814E-04   -0.30271E-05  2926   0.453E-03    0.652E-03
RMM:   7    -0.232342762005E+04   -0.10160E-06   -0.48435E-06  2881   0.321E-03
 148 F= -.23448451E+04 E0= -.23448445E+04  d E =-.442767E-03  mag=     3.9865
       N       E                     dE             d eps       ncg     rms          rms(c)
DAV:   1    -0.232342659817E+04    0.10218E-02   -0.81518E-02  4504   0.269E-01    0.870E-02
RMM:   2    -0.232342753746E+04   -0.93929E-03   -0.95924E-03  6031   0.577E-02    0.760E-02
RMM:   3    -0.232342758102E+04   -0.43563E-04   -0.94381E-04  3698   0.231E-02    0.692E-02
RMM:   4    -0.232342752729E+04    0.53730E-04   -0.10554E-04  2997   0.701E-03    0.370E-02
RMM:   5    -0.232342752613E+04    0.11553E-05   -0.34144E-05  2950   0.412E-03
 149 F= -.23448453E+04 E0= -.23448446E+04  d E =-.599895E-03  mag=     3.9866
       N       E                     dE             d eps       ncg     rms          rms(c)
DAV:   1    -0.232342703868E+04    0.48860E-03   -0.57088E-02  4516   0.224E-01    0.727E-02
RMM:   2    -0.232342763650E+04   -0.59781E-03   -0.62078E-03  6113   0.474E-02    0.586E-02
RMM:   3    -0.232342769167E+04   -0.55172E-04   -0.65425E-04  3435   0.194E-02    0.693E-02
RMM:   4    -0.232342764144E+04    0.50225E-04   -0.70317E-05  2952   0.627E-03    0.312E-02
RMM:   5    -0.232342764198E+04   -0.53353E-06   -0.30033E-05  2933   0.381E-03
 150 F= -.23448456E+04 E0= -.23448450E+04  d E =-.346434E-03  mag=     3.9866
