       N       E                     dE             d eps       ncg     rms          rms(c)
DAV:   1     0.126835445598E+05    0.12684E+05   -0.82788E+05  4432   0.143E+03
DAV:   2    -0.106614851964E+04   -0.13750E+05   -0.13176E+05  5336   0.329E+02
DAV:   3    -0.246964812150E+04   -0.14035E+04   -0.13906E+04  5344   0.111E+02
DAV:   4    -0.251550518595E+04   -0.45857E+02   -0.45636E+02  6664   0.299E+01
DAV:   5    -0.251637828665E+04   -0.87310E+00   -0.87174E+00  5560   0.328E+00    0.170E+02
RMM:   6    -0.147971073412E+04    0.10367E+04   -0.19441E+03  4385   0.389E+01    0.753E+01
RMM:   7    -0.166518286127E+04   -0.18547E+03   -0.30680E+02  5055   0.141E+01    0.617E+01
RMM:   8    -0.167592744581E+04   -0.10745E+02   -0.83159E+01  5225   0.820E+00    0.381E+01
RMM:   9    -0.179384627331E+04   -0.11792E+03   -0.52357E+01  4662   0.746E+00    0.288E+01
RMM:  10    -0.193352900896E+04   -0.13968E+03   -0.60483E+01  5010   0.736E+00    0.278E+01
RMM:  11    -0.200261618059E+04   -0.69087E+02   -0.30331E+01  5235   0.481E+00    0.187E+01
RMM:  12    -0.209454132559E+04   -0.91925E+02   -0.44196E+01  4869   0.523E+00    0.139E+01
RMM:  13    -0.219486072502E+04   -0.10032E+03   -0.67704E+01  4456   0.623E+00    0.935E+00
RMM:  14    -0.227642767765E+04   -0.81567E+02   -0.72485E+01  4501   0.592E+00    0.520E+00
RMM:  15    -0.230034935088E+04   -0.23922E+02   -0.24163E+01  4650   0.385E+00    0.360E+00
RMM:  16    -0.230652581781E+04   -0.61765E+01   -0.75493E+00  5054   0.182E+00    0.287E+00
RMM:  17    -0.230816592878E+04   -0.16401E+01   -0.16178E+00  4929   0.857E-01    0.162E+00
RMM:  18    -0.230929807057E+04   -0.11321E+01   -0.70554E-01  4489   0.555E-01    0.783E-01
RMM:  19    -0.230981833415E+04   -0.52026E+00   -0.25811E-01  4705   0.355E-01    0.415E-01
RMM:  20    -0.230987716419E+04   -0.58830E-01   -0.61264E-02  4782   0.184E-01    0.233E-01
RMM:  21    -0.230990222380E+04   -0.25060E-01   -0.14491E-02  4528   0.105E-01    0.134E-01
RMM:  22    -0.230992134447E+04   -0.19121E-01   -0.76572E-03  4414   0.717E-02    0.791E-02
RMM:  23    -0.230993055805E+04   -0.92136E-02   -0.33473E-03  4461   0.497E-02    0.492E-02
RMM:  24    -0.230993542698E+04   -0.48689E-02   -0.17216E-03  4481   0.353E-02    0.296E-02
RMM:  25    -0.230993831336E+04   -0.28864E-02   -0.96762E-04  4116   0.252E-02    0.236E-02
RMM:  26    -0.230993955025E+04   -0.12369E-02   -0.44641E-04  4041   0.178E-02    0.111E-02
RMM:  27    -0.230994000955E+04   -0.45930E-03   -0.18854E-04  3789   0.126E-02    0.619E-03
RMM:  28    -0.230994013970E+04   -0.13015E-03   -0.63568E-05  3552   0.839E-03    0.370E-03
RMM:  29    -0.230994020860E+04   -0.68898E-04   -0.27907E-05  3169   0.549E-03    0.223E-03
RMM:  30    -0.230994024144E+04   -0.32838E-04   -0.12093E-05  2893   0.387E-03    0.154E-03
RMM:  31    -0.230994025564E+04   -0.14204E-04   -0.68380E-06  2719   0.286E-03    0.819E-04
RMM:  32    -0.230994025857E+04   -0.29314E-05   -0.31789E-06  2399   0.214E-03
   1 F= -.23304124E+04 E0= -.23304123E+04  d E =-.233041E+04  mag=     4.9989
       N       E                     dE             d eps       ncg     rms          rms(c)
DAV:   1    -0.231087107839E+04   -0.93082E+00   -0.86032E+01  4696   0.508E+00    0.390E+00
RMM:   2    -0.231194737115E+04   -0.10763E+01   -0.90030E+00  5871   0.127E+00    0.855E+00
RMM:   3    -0.231171287811E+04    0.23449E+00   -0.93745E-01  5197   0.462E-01    0.522E+00
RMM:   4    -0.231163337254E+04    0.79506E-01   -0.13074E-01  5065   0.144E-01    0.440E+00
RMM:   5    -0.231152083965E+04    0.11253E+00   -0.97033E-02  4814   0.137E-01    0.284E+00
RMM:   6    -0.231144637288E+04    0.74467E-01   -0.80749E-02  4984   0.129E-01    0.173E+00
RMM:   7    -0.231152998061E+04   -0.83608E-01   -0.75207E-02  4548   0.132E-01    0.133E+00
RMM:   8    -0.231158017003E+04   -0.50189E-01   -0.40866E-02  4695   0.998E-02    0.637E-01
RMM:   9    -0.231161960628E+04   -0.39436E-01   -0.21785E-02  4614   0.755E-02    0.328E-01
RMM:  10    -0.231166566263E+04   -0.46056E-01   -0.16686E-02  4458   0.640E-02    0.189E-01
RMM:  11    -0.231168846804E+04   -0.22805E-01   -0.89441E-03  4514   0.556E-02    0.115E-01
RMM:  12    -0.231169633749E+04   -0.78694E-02   -0.32894E-03  4486   0.334E-02    0.781E-02
RMM:  13    -0.231170266639E+04   -0.63289E-02   -0.18878E-03  4275   0.247E-02    0.419E-02
RMM:  14    -0.231170459763E+04   -0.19312E-02   -0.46621E-04  4048   0.169E-02    0.282E-02
RMM:  15    -0.231170556518E+04   -0.96755E-03   -0.22753E-04  3924   0.985E-03    0.133E-02
RMM:  16    -0.231170585858E+04   -0.29340E-03   -0.61140E-05  3539   0.754E-03    0.679E-03
RMM:  17    -0.231170595937E+04   -0.10079E-03   -0.24877E-05  3092   0.413E-03    0.336E-03
RMM:  18    -0.231170598316E+04   -0.23791E-04   -0.66595E-06  2788   0.355E-03    0.179E-03
RMM:  19    -0.231170599150E+04   -0.83396E-05   -0.38136E-06  2716   0.219E-03
   2 F= -.23321749E+04 E0= -.23321749E+04  d E =-.176247E+01  mag=     3.0007
       N       E                     dE             d eps       ncg     rms          rms(c)
DAV:   1    -0.230139398995E+04    0.10312E+02   -0.53089E+02  4496   0.129E+01    0.865E+00
RMM:   2    -0.230685401695E+04   -0.54600E+01   -0.69411E+01  6028   0.432E+00    0.111E+01
RMM:   3    -0.230576688639E+04    0.10871E+01   -0.55994E+00  5681   0.123E+00    0.706E+00
RMM:   4    -0.230529100752E+04    0.47588E+00   -0.10386E+00  5571   0.384E-01    0.296E+00
RMM:   5    -0.230525190947E+04    0.39098E-01   -0.43927E-01  5261   0.272E-01    0.157E+00
RMM:   6    -0.230522749870E+04    0.24411E-01   -0.76638E-02  5527   0.145E-01    0.877E-01
RMM:   7    -0.230522347550E+04    0.40232E-02   -0.21882E-02  5371   0.802E-02    0.418E-01
RMM:   8    -0.230522152081E+04    0.19547E-02   -0.66529E-03  5184   0.435E-02    0.149E-01
RMM:   9    -0.230522124409E+04    0.27672E-03   -0.11634E-03  4818   0.272E-02    0.927E-02
RMM:  10    -0.230522111311E+04    0.13098E-03   -0.44992E-04  4564   0.149E-02    0.458E-02
RMM:  11    -0.230522102376E+04    0.89345E-04   -0.22863E-04  4298   0.114E-02    0.218E-02
RMM:  12    -0.230522098626E+04    0.37507E-04   -0.13681E-04  4177   0.893E-03    0.192E-02
RMM:  13    -0.230522098107E+04    0.51837E-05   -0.30743E-05  3229   0.624E-03
   3 F= -.23256880E+04 E0= -.23256880E+04  d E =0.472444E+01  mag=     3.0000
       N       E                     dE             d eps       ncg     rms          rms(c)
DAV:   1    -0.230955300975E+04   -0.43320E+01   -0.44068E+02  4392   0.124E+01    0.854E+00
RMM:   2    -0.231292546114E+04   -0.33725E+01   -0.50079E+01  6137   0.308E+00    0.860E+00
RMM:   3    -0.231239834701E+04    0.52711E+00   -0.48987E+00  5660   0.102E+00    0.560E+00
RMM:   4    -0.231215673980E+04    0.24161E+00   -0.72591E-01  5717   0.341E-01    0.355E+00
RMM:   5    -0.231209902185E+04    0.57718E-01   -0.31968E-01  5666   0.216E-01    0.229E+00
RMM:   6    -0.231204140059E+04    0.57621E-01   -0.10536E-01  4854   0.135E-01    0.776E-01
RMM:   7    -0.231203872630E+04    0.26743E-02   -0.21113E-02  5168   0.897E-02    0.276E-01
RMM:   8    -0.231204065756E+04   -0.19313E-02   -0.44491E-03  5002   0.353E-02    0.139E-01
RMM:   9    -0.231204165928E+04   -0.10017E-02   -0.95069E-04  4573   0.231E-02    0.679E-02
RMM:  10    -0.231204249543E+04   -0.83616E-03   -0.56605E-04  4470   0.148E-02    0.347E-02
RMM:  11    -0.231204287664E+04   -0.38120E-03   -0.20110E-04  4112   0.116E-02    0.222E-02
RMM:  12    -0.231204306229E+04   -0.18565E-03   -0.11103E-04  3892   0.731E-03    0.129E-02
RMM:  13    -0.231204316372E+04   -0.10143E-03   -0.62515E-05  3558   0.697E-03    0.918E-03
RMM:  14    -0.231204319169E+04   -0.27975E-04   -0.19789E-05  2946   0.485E-03    0.593E-03
RMM:  15    -0.231204320800E+04   -0.16307E-04   -0.10645E-05  2830   0.391E-03    0.290E-03
RMM:  16    -0.231204321290E+04   -0.49062E-05   -0.45926E-06  2801   0.303E-03
   4 F= -.23325115E+04 E0= -.23325115E+04  d E =-.209908E+01  mag=     2.9996
       N       E                     dE             d eps       ncg     rms          rms(c)
DAV:   1    -0.231207267282E+04   -0.29465E-01   -0.25186E+01  4528   0.278E+00    0.165E+00
RMM:   2    -0.231225645122E+04   -0.18378E+00   -0.22106E+00  6107   0.651E-01    0.190E+00
RMM:   3    -0.231222714219E+04    0.29309E-01   -0.17732E-01  5660   0.210E-01    0.120E+00
RMM:   4    -0.231221350300E+04    0.13639E-01   -0.34975E-02  5374   0.693E-02    0.511E-01
RMM:   5    -0.231220953438E+04    0.39686E-02   -0.15487E-02  5214   0.523E-02    0.209E-01
RMM:   6    -0.231220877727E+04    0.75711E-03   -0.18732E-03  5044   0.293E-02    0.104E-01
RMM:   7    -0.231220866443E+04    0.11284E-03   -0.40695E-04  4086   0.120E-02    0.384E-02
RMM:   8    -0.231220863625E+04    0.28176E-04   -0.89574E-05  3418   0.829E-03    0.195E-02
RMM:   9    -0.231220862591E+04    0.10346E-04   -0.44710E-05  3304   0.593E-03    0.903E-03
RMM:  10    -0.231220862531E+04    0.59369E-06   -0.12796E-05  2853   0.448E-03
   5 F= -.23326761E+04 E0= -.23326761E+04  d E =-.226372E+01  mag=     2.9999
       N       E                     dE             d eps       ncg     rms          rms(c)
DAV:   1    -0.231221738063E+04   -0.87547E-02   -0.19385E+00  4560   0.779E-01    0.473E-01
RMM:   2    -0.231222972098E+04   -0.12340E-01   -0.16253E-01  6108   0.166E-01    0.500E-01
RMM:   3    -0.231222876140E+04    0.95959E-03   -0.17553E-02  5442   0.650E-02    0.362E-01
RMM:   4    -0.231222750712E+04    0.12543E-02   -0.26921E-03  4862   0.199E-02    0.153E-01
RMM:   5    -0.231222719488E+04    0.31224E-03   -0.10377E-03  4135   0.151E-02    0.696E-02
RMM:   6    -0.231222712374E+04    0.71134E-04   -0.25003E-04  3675   0.934E-03    0.313E-02
RMM:   7    -0.231222711649E+04    0.72542E-05   -0.35914E-05  2916   0.553E-03
   6 F= -.23326948E+04 E0= -.23326948E+04  d E =-.228240E+01  mag=     3.0000
       N       E                     dE             d eps       ncg     rms          rms(c)
DAV:   1    -0.231205464935E+04    0.17247E+00   -0.80257E+01  4408   0.572E+00    0.289E+00
RMM:   2    -0.231328423159E+04   -0.12296E+01   -0.11623E+01  6211   0.171E+00    0.394E+00
RMM:   3    -0.231309407291E+04    0.19016E+00   -0.90622E-01  5249   0.521E-01    0.137E+00
RMM:   4    -0.231307999614E+04    0.14077E-01   -0.12083E-01  5828   0.120E-01    0.803E-01
RMM:   5    -0.231307158403E+04    0.84121E-02   -0.25278E-02  5330   0.769E-02    0.450E-01
RMM:   6    -0.231306964865E+04    0.19354E-02   -0.67836E-03  5352   0.523E-02    0.129E-01
RMM:   7    -0.231306978050E+04   -0.13185E-03   -0.10015E-03  4634   0.178E-02    0.580E-02
RMM:   8    -0.231306986064E+04   -0.80141E-04   -0.15488E-04  4043   0.949E-03    0.369E-02
RMM:   9    -0.231306992046E+04   -0.59818E-04   -0.76627E-05  3393   0.668E-03    0.152E-02
RMM:  10    -0.231306995492E+04   -0.34454E-04   -0.20240E-05  2873   0.484E-03    0.802E-03
RMM:  11    -0.231306997628E+04   -0.21363E-04   -0.90503E-06  2820   0.364E-03    0.588E-03
RMM:  12    -0.231306999572E+04   -0.19442E-04   -0.89177E-06  2824   0.332E-03    0.496E-03
RMM:  13    -0.231307000298E+04   -0.72586E-05   -0.52246E-06  2802   0.300E-03
   7 F= -.23335363E+04 E0= -.23335363E+04  d E =-.841457E+00  mag=     3.0000
       N       E                     dE             d eps       ncg     rms          rms(c)
DAV:   1    -0.231304307268E+04    0.26923E-01   -0.54332E+00  4528   0.155E+00    0.681E-01
RMM:   2    -0.231311440170E+04   -0.71329E-01   -0.72003E-01  6147   0.423E-01    0.677E-01
RMM:   3    -0.231311462108E+04   -0.21938E-03   -0.65588E-02  5421   0.156E-01    0.454E-01
RMM:   4    -0.231311331833E+04    0.13028E-02   -0.72397E-03  5305   0.319E-02    0.206E-01
RMM:   5    -0.231311277698E+04    0.54134E-03   -0.15020E-03  5078   0.214E-02    0.898E-02
RMM:   6    -0.231311273982E+04    0.37162E-04   -0.31824E-04  4256   0.132E-02    0.263E-02
RMM:   7    -0.231311275192E+04   -0.12094E-04   -0.54991E-05  3008   0.510E-03    0.140E-02
RMM:   8    -0.231311275774E+04   -0.58276E-05   -0.99000E-06  2862   0.330E-03
   8 F= -.23335786E+04 E0= -.23335786E+04  d E =-.883832E+00  mag=     3.0000
       N       E                     dE             d eps       ncg     rms          rms(c)
DAV:   1    -0.231317828831E+04   -0.65536E-01   -0.18837E+01  4420   0.278E+00    0.142E+00
RMM:   2    -0.231333794972E+04   -0.15966E+00   -0.20345E+00  6181   0.683E-01    0.773E-01
RMM:   3    -0.231334586184E+04   -0.79121E-02   -0.19438E-01  5613   0.198E-01    0.483E-01
RMM:   4    -0.231334578464E+04    0.77204E-04   -0.23630E-02  5434   0.596E-02    0.379E-01
RMM:   5    -0.231334542025E+04    0.36438E-03   -0.66451E-03  5499   0.382E-02    0.326E-01
RMM:   6    -0.231334436123E+04    0.10590E-02   -0.15347E-03  5012   0.194E-02    0.101E-01
RMM:   7    -0.231334426888E+04    0.92346E-04   -0.23126E-04  3272   0.984E-03    0.284E-02
RMM:   8    -0.231334426770E+04    0.11749E-05   -0.57750E-05  2931   0.490E-03
   9 F= -.23338098E+04 E0= -.23338098E+04  d E =-.231210E+00  mag=     3.0000
       N       E                     dE             d eps       ncg     rms          rms(c)
DAV:   1    -0.231334439962E+04   -0.13074E-03   -0.45625E-02  5200   0.129E-01    0.667E-02
RMM:   2    -0.231334476697E+04   -0.36735E-03   -0.46392E-03  5906   0.317E-02    0.343E-02
RMM:   3    -0.231334478425E+04   -0.17277E-04   -0.43530E-04  3006   0.104E-02    0.254E-02
RMM:   4    -0.231334479236E+04   -0.81086E-05   -0.70554E-05  2895   0.387E-03
  10 F= -.23338104E+04 E0= -.23338104E+04  d E =-.231723E+00  mag=     3.0000
       N       E                     dE             d eps       ncg     rms          rms(c)
DAV:   1    -0.231321092200E+04    0.13386E+00   -0.17506E+01  4420   0.271E+00    0.137E+00
RMM:   2    -0.231351403922E+04   -0.30312E+00   -0.32236E+00  6283   0.699E-01    0.800E-01
RMM:   3    -0.231353226420E+04   -0.18225E-01   -0.30200E-01  5837   0.231E-01    0.501E-01
RMM:   4    -0.231353270536E+04   -0.44116E-03   -0.28201E-02  5278   0.470E-02    0.314E-01
RMM:   5    -0.231353167043E+04    0.10349E-02   -0.33407E-03  4947   0.291E-02    0.135E-01
RMM:   6    -0.231353183684E+04   -0.16642E-03   -0.15320E-03  4551   0.208E-02    0.128E-01
RMM:   7    -0.231353167180E+04    0.16504E-03   -0.27888E-04  3256   0.989E-03    0.455E-02
RMM:   8    -0.231353165193E+04    0.19872E-04   -0.54251E-05  2939   0.442E-03    0.241E-02
RMM:   9    -0.231353164948E+04    0.24467E-05   -0.53605E-05  2909   0.450E-03
  11 F= -.23339974E+04 E0= -.23339974E+04  d E =-.187024E+00  mag=     3.0000
       N       E                     dE             d eps       ncg     rms          rms(c)
DAV:   1    -0.231347932936E+04    0.52323E-01   -0.42247E+00  4448   0.127E+00    0.657E-01
RMM:   2    -0.231354845978E+04   -0.69130E-01   -0.73613E-01  6259   0.330E-01    0.355E-01
RMM:   3    -0.231355373972E+04   -0.52799E-02   -0.78580E-02  5508   0.118E-01    0.262E-01
RMM:   4    -0.231355432648E+04   -0.58676E-03   -0.77934E-03  4584   0.265E-02    0.259E-01
RMM:   5    -0.231355365043E+04    0.67605E-03   -0.12057E-03  4519   0.140E-02    0.130E-01
RMM:   6    -0.231355356042E+04    0.90012E-04   -0.50897E-04  4072   0.111E-02    0.642E-02
RMM:   7    -0.231355353502E+04    0.25396E-04   -0.11255E-04  2937   0.810E-03    0.150E-02
RMM:   8    -0.231355353649E+04   -0.14691E-05   -0.21138E-05  2904   0.386E-03
  12 F= -.23340194E+04 E0= -.23340194E+04  d E =-.209029E+00  mag=     3.0000
       N       E                     dE             d eps       ncg     rms          rms(c)
DAV:   1    -0.231359041657E+04   -0.36882E-01   -0.81375E+00  4408   0.191E+00    0.902E-01
RMM:   2    -0.231367519083E+04   -0.84774E-01   -0.92600E-01  6141   0.411E-01    0.676E-01
RMM:   3    -0.231368144790E+04   -0.62571E-02   -0.10134E-01  5811   0.154E-01    0.541E-01
RMM:   4    -0.231367924075E+04    0.22072E-02   -0.11204E-02  5526   0.407E-02    0.220E-01
RMM:   5    -0.231367889404E+04    0.34671E-03   -0.13832E-03  4710   0.212E-02    0.104E-01
RMM:   6    -0.231367887093E+04    0.23106E-04   -0.51330E-04  4647   0.150E-02    0.456E-02
RMM:   7    -0.231367885174E+04    0.19197E-04   -0.99416E-05  3152   0.851E-03    0.247E-02
RMM:   8    -0.231367884280E+04    0.89406E-05   -0.26025E-05  2856   0.438E-03
  13 F= -.23341448E+04 E0= -.23341448E+04  d E =-.125400E+00  mag=     3.0000
       N       E                     dE             d eps       ncg     rms          rms(c)
DAV:   1    -0.231356965161E+04    0.10920E+00   -0.15606E+01  4408   0.264E+00    0.126E+00
RMM:   2    -0.231373374081E+04   -0.16409E+00   -0.18125E+00  6146   0.575E-01    0.859E-01
RMM:   3    -0.231374716074E+04   -0.13420E-01   -0.19868E-01  5800   0.217E-01    0.703E-01
RMM:   4    -0.231374379009E+04    0.33707E-02   -0.21414E-02  5713   0.560E-02    0.311E-01
RMM:   5    -0.231374309506E+04    0.69503E-03   -0.26773E-03  4902   0.286E-02    0.154E-01
RMM:   6    -0.231374300093E+04    0.94131E-04   -0.10923E-03  4929   0.199E-02    0.743E-02
RMM:   7    -0.231374295048E+04    0.50444E-04   -0.21756E-04  4016   0.120E-02    0.349E-02
RMM:   8    -0.231374293117E+04    0.19314E-04   -0.47541E-05  2968   0.501E-03    0.140E-02
RMM:   9    -0.231374292210E+04    0.90670E-05   -0.28899E-05  2879   0.442E-03
  14 F= -.23342090E+04 E0= -.23342090E+04  d E =-.189591E+00  mag=     3.0000
       N       E                     dE             d eps       ncg     rms          rms(c)
DAV:   1    -0.231369684405E+04    0.46087E-01   -0.84945E+00  4420   0.228E+00    0.103E+00
RMM:   2    -0.231379171098E+04   -0.94867E-01   -0.10072E+00  5987   0.486E-01    0.775E-01
RMM:   3    -0.231379716212E+04   -0.54511E-02   -0.10996E-01  5616   0.183E-01    0.714E-01
RMM:   4    -0.231379202315E+04    0.51390E-02   -0.12736E-02  5636   0.516E-02    0.233E-01
RMM:   5    -0.231379126151E+04    0.76163E-03   -0.33713E-03  5009   0.338E-02    0.109E-01
RMM:   6    -0.231379113890E+04    0.12262E-03   -0.77766E-04  4908   0.210E-02    0.366E-02
RMM:   7    -0.231379111704E+04    0.21860E-04   -0.11329E-04  3858   0.938E-03    0.265E-02
RMM:   8    -0.231379109659E+04    0.20453E-04   -0.46614E-05  3084   0.610E-03    0.115E-02
RMM:   9    -0.231379109068E+04    0.59038E-05   -0.18767E-05  2908   0.439E-03
  15 F= -.23342560E+04 E0= -.23342560E+04  d E =-.470622E-01  mag=     3.0000
       N       E                     dE             d eps       ncg     rms          rms(c)
DAV:   1    -0.231379085095E+04    0.24563E-03   -0.35201E-02  5040   0.147E-01    0.673E-02
RMM:   2    -0.231379125633E+04   -0.40537E-03   -0.42192E-03  5942   0.332E-02    0.560E-02
RMM:   3    -0.231379126818E+04   -0.11850E-04   -0.45431E-04  2974   0.130E-02    0.445E-02
RMM:   4    -0.231379124934E+04    0.18837E-04   -0.52497E-05  2885   0.451E-03    0.151E-02
RMM:   5    -0.231379124629E+04    0.30497E-05   -0.15423E-05  2889   0.290E-03
  16 F= -.23342563E+04 E0= -.23342563E+04  d E =-.472901E-01  mag=     3.0000
       N       E                     dE             d eps       ncg     rms          rms(c)
DAV:   1    -0.231375238937E+04    0.38860E-01   -0.55538E+00  4432   0.162E+00    0.816E-01
RMM:   2    -0.231383785862E+04   -0.85469E-01   -0.87302E-01  6225   0.377E-01    0.816E-01
RMM:   3    -0.231383964571E+04   -0.17871E-02   -0.86374E-02  5990   0.125E-01    0.540E-01
RMM:   4    -0.231383708139E+04    0.25643E-02   -0.95807E-03  5347   0.337E-02    0.186E-01
RMM:   5    -0.231383667697E+04    0.40441E-03   -0.12143E-03  4714   0.185E-02    0.107E-01
RMM:   6    -0.231383661269E+04    0.64277E-04   -0.51471E-04  4199   0.155E-02    0.277E-02
RMM:   7    -0.231383661042E+04    0.22776E-05   -0.65736E-05  3058   0.683E-03
  17 F= -.23343002E+04 E0= -.23343002E+04  d E =-.439672E-01  mag=     3.0000
       N       E                     dE             d eps       ncg     rms          rms(c)
DAV:   1    -0.231382723739E+04    0.93753E-02   -0.92774E-01  4480   0.656E-01    0.336E-01
RMM:   2    -0.231384146053E+04   -0.14223E-01   -0.14418E-01  6169   0.152E-01    0.356E-01
RMM:   3    -0.231384151686E+04   -0.56331E-04   -0.14381E-02  5479   0.517E-02    0.205E-01
RMM:   4    -0.231384118072E+04    0.33615E-03   -0.16150E-03  4005   0.139E-02    0.767E-02
RMM:   5    -0.231384111014E+04    0.70578E-04   -0.19005E-04  3583   0.843E-03    0.437E-02
RMM:   6    -0.231384109883E+04    0.11311E-04   -0.87329E-05  3030   0.746E-03    0.113E-02
RMM:   7    -0.231384109854E+04    0.28829E-06   -0.14098E-05  2869   0.449E-03
  18 F= -.23343041E+04 E0= -.23343041E+04  d E =-.478771E-01  mag=     3.0000
       N       E                     dE             d eps       ncg     rms          rms(c)
DAV:   1    -0.231379048641E+04    0.50612E-01   -0.57831E+00  4440   0.204E+00    0.953E-01
RMM:   2    -0.231387614092E+04   -0.85655E-01   -0.87282E-01  5962   0.438E-01    0.898E-01
RMM:   3    -0.231387691614E+04   -0.77523E-03   -0.86925E-02  5782   0.157E-01    0.620E-01
RMM:   4    -0.231387333059E+04    0.35856E-02   -0.98709E-03  5294   0.441E-02    0.188E-01
RMM:   5    -0.231387288667E+04    0.44391E-03   -0.15025E-03  4863   0.270E-02    0.105E-01
RMM:   6    -0.231387278405E+04    0.10262E-03   -0.62402E-04  4720   0.190E-02    0.301E-02
RMM:   7    -0.231387276900E+04    0.15047E-04   -0.95406E-05  3756   0.108E-02    0.201E-02
RMM:   8    -0.231387275307E+04    0.15937E-04   -0.36004E-05  2969   0.517E-03    0.107E-02
RMM:   9    -0.231387274767E+04    0.53961E-05   -0.13092E-05  2848   0.373E-03
  19 F= -.23343346E+04 E0= -.23343346E+04  d E =-.304772E-01  mag=     3.0000
       N       E                     dE             d eps       ncg     rms          rms(c)
DAV:   1    -0.231387272380E+04    0.29261E-04   -0.71038E-03  5392   0.719E-02    0.327E-02
RMM:   2    -0.231387282775E+04   -0.10394E-03   -0.10686E-03  5069   0.169E-02    0.313E-02
RMM:   3    -0.231387282836E+04   -0.61002E-06   -0.11008E-04  2872   0.705E-03    0.207E-02
RMM:   4    -0.231387282408E+04    0.42744E-05   -0.12945E-05  2863   0.250E-03
  20 F= -.23343346E+04 E0= -.23343346E+04  d E =-.305112E-01  mag=     3.0000
       N       E                     dE             d eps       ncg     rms          rms(c)
DAV:   1    -0.231384757333E+04    0.25255E-01   -0.29818E+00  4432   0.142E+00    0.676E-01
RMM:   2    -0.231390461390E+04   -0.57041E-01   -0.57710E-01  6117   0.329E-01    0.661E-01
RMM:   3    -0.231390487916E+04   -0.26526E-03   -0.53700E-02  5883   0.110E-01    0.372E-01
RMM:   4    -0.231390391578E+04    0.96338E-03   -0.57884E-03  5046   0.283E-02    0.142E-01
RMM:   5    -0.231390369368E+04    0.22210E-03   -0.58139E-04  4561   0.156E-02    0.822E-02
RMM:   6    -0.231390365634E+04    0.37339E-04   -0.35334E-04  4368   0.135E-02    0.241E-02
RMM:   7    -0.231390365212E+04    0.42264E-05   -0.45955E-05  3030   0.735E-03
  21 F= -.23343649E+04 E0= -.23343649E+04  d E =-.302745E-01  mag=     3.0000
       N       E                     dE             d eps       ncg     rms          rms(c)
DAV:   1    -0.231370127617E+04    0.20238E+00   -0.11722E+01  4408   0.285E+00    0.136E+00
RMM:   2    -0.231393208930E+04   -0.23081E+00   -0.23425E+00  6123   0.685E-01    0.129E+00
RMM:   3    -0.231393177645E+04    0.31285E-03   -0.21386E-01  5888   0.222E-01    0.713E-01
RMM:   4    -0.231392866527E+04    0.31112E-02   -0.22407E-02  5298   0.556E-02    0.281E-01
RMM:   5    -0.231392774905E+04    0.91622E-03   -0.23074E-03  4969   0.301E-02    0.169E-01
RMM:   6    -0.231392757765E+04    0.17140E-03   -0.14907E-03  4799   0.266E-02    0.572E-02
RMM:   7    -0.231392755053E+04    0.27123E-04   -0.17929E-04  4121   0.125E-02    0.253E-02
RMM:   8    -0.231392752274E+04    0.27791E-04   -0.51323E-05  3001   0.560E-03    0.121E-02
RMM:   9    -0.231392751650E+04    0.62343E-05   -0.31628E-05  2930   0.437E-03
  22 F= -.23343875E+04 E0= -.23343875E+04  d E =-.528757E-01  mag=     3.0000
       N       E                     dE             d eps       ncg     rms          rms(c)
DAV:   1    -0.231392766438E+04   -0.14164E-03   -0.86840E-01  4576   0.740E-01    0.335E-01
RMM:   2    -0.231394338700E+04   -0.15723E-01   -0.16013E-01  6325   0.174E-01    0.296E-01
RMM:   3    -0.231394386026E+04   -0.47326E-03   -0.14091E-02  5656   0.532E-02    0.194E-01
RMM:   4    -0.231394360601E+04    0.25425E-03   -0.16172E-03  3603   0.143E-02    0.764E-02
RMM:   5    -0.231394353839E+04    0.67620E-04   -0.16138E-04  3487   0.810E-03    0.411E-02
RMM:   6    -0.231394353390E+04    0.44843E-05   -0.92363E-05  3082   0.769E-03
  23 F= -.23344032E+04 E0= -.23344032E+04  d E =-.156483E-01  mag=     3.0000
       N       E                     dE             d eps       ncg     rms          rms(c)
DAV:   1    -0.231382328327E+04    0.12026E+00   -0.77723E+00  4408   0.222E+00    0.102E+00
RMM:   2    -0.231396743367E+04   -0.14415E+00   -0.14706E+00  6228   0.528E-01    0.892E-01
RMM:   3    -0.231397126824E+04   -0.38346E-02   -0.13141E-01  5942   0.162E-01    0.570E-01
RMM:   4    -0.231396896455E+04    0.23037E-02   -0.13819E-02  5230   0.414E-02    0.230E-01
RMM:   5    -0.231396838320E+04    0.58135E-03   -0.14686E-03  4790   0.217E-02    0.124E-01
RMM:   6    -0.231396834017E+04    0.43031E-04   -0.84338E-04  4632   0.186E-02    0.378E-02
RMM:   7    -0.231396833267E+04    0.75029E-05   -0.11558E-04  3282   0.836E-03    0.212E-02
RMM:   8    -0.231396831738E+04    0.15288E-04   -0.39616E-05  2865   0.489E-03    0.104E-02
RMM:   9    -0.231396831560E+04    0.17807E-05   -0.19134E-05  2896   0.340E-03
  24 F= -.23344268E+04 E0= -.23344268E+04  d E =-.393032E-01  mag=     3.0000
       N       E                     dE             d eps       ncg     rms          rms(c)
DAV:   1    -0.231396452817E+04    0.37892E-02   -0.24833E-01  4680   0.398E-01    0.176E-01
RMM:   2    -0.231396902581E+04   -0.44976E-02   -0.46163E-02  6213   0.932E-02    0.144E-01
RMM:   3    -0.231396920458E+04   -0.17877E-03   -0.39788E-03  4451   0.291E-02    0.104E-01
RMM:   4    -0.231396912815E+04    0.76429E-04   -0.45914E-04  3048   0.833E-03    0.417E-02
RMM:   5    -0.231396910589E+04    0.22266E-04   -0.49109E-05  2934   0.496E-03    0.218E-02
RMM:   6    -0.231396910449E+04    0.13956E-05   -0.29771E-05  2902   0.462E-03
  25 F= -.23344274E+04 E0= -.23344274E+04  d E =-.398895E-01  mag=     3.0000
       N       E                     dE             d eps       ncg     rms          rms(c)
DAV:   1    -0.231397497245E+04   -0.58666E-02   -0.45714E-01  4464   0.582E-01    0.246E-01
RMM:   2    -0.231398012847E+04   -0.51560E-02   -0.56565E-02  5946   0.125E-01    0.178E-01
RMM:   3    -0.231398035220E+04   -0.22373E-03   -0.57373E-03  5421   0.447E-02    0.155E-01
RMM:   4    -0.231398012034E+04    0.23186E-03   -0.70552E-04  4143   0.135E-02    0.659E-02
RMM:   5    -0.231398006601E+04    0.54326E-04   -0.21279E-04  3935   0.961E-03    0.297E-02
RMM:   6    -0.231398005598E+04    0.10027E-04   -0.49619E-05  3113   0.688E-03    0.124E-02
RMM:   7    -0.231398005419E+04    0.17893E-05   -0.11157E-05  2856   0.483E-03
  26 F= -.23344380E+04 E0= -.23344380E+04  d E =-.106255E-01  mag=     3.0000
       N       E                     dE             d eps       ncg     rms          rms(c)
DAV:   1    -0.231397478590E+04    0.52701E-02   -0.93324E-01  4432   0.832E-01    0.349E-01
RMM:   2    -0.231398527001E+04   -0.10484E-01   -0.11500E-01  5928   0.178E-01    0.247E-01
RMM:   3    -0.231398578398E+04   -0.51397E-03   -0.11668E-02  5615   0.620E-02    0.220E-01
RMM:   4    -0.231398532043E+04    0.46354E-03   -0.14098E-03  4805   0.190E-02    0.952E-02
RMM:   5    -0.231398520955E+04    0.11089E-03   -0.42484E-04  4460   0.131E-02    0.428E-02
RMM:   6    -0.231398518800E+04    0.21551E-04   -0.10514E-04  3879   0.867E-03    0.174E-02
RMM:   7    -0.231398518368E+04    0.43123E-05   -0.17361E-05  2882   0.557E-03
  27 F= -.23344427E+04 E0= -.23344427E+04  d E =-.152909E-01  mag=     3.0000
       N       E                     dE             d eps       ncg     rms          rms(c)
DAV:   1    -0.231398556966E+04   -0.38166E-03   -0.53518E-01  4464   0.589E-01    0.236E-01
RMM:   2    -0.231399338759E+04   -0.78179E-02   -0.84695E-02  5978   0.131E-01    0.156E-01
RMM:   3    -0.231399404724E+04   -0.65965E-03   -0.94036E-03  5290   0.523E-02    0.118E-01
RMM:   4    -0.231399398267E+04    0.64579E-04   -0.94089E-04  3728   0.122E-02    0.758E-02
RMM:   5    -0.231399391237E+04    0.70291E-04   -0.17743E-04  3326   0.885E-03    0.397E-02
RMM:   6    -0.231399389795E+04    0.14420E-04   -0.10071E-04  3576   0.729E-03    0.238E-02
RMM:   7    -0.231399389173E+04    0.62273E-05   -0.15343E-05  2849   0.524E-03
  28 F= -.23344510E+04 E0= -.23344510E+04  d E =-.833637E-02  mag=     3.0000
       N       E                     dE             d eps       ncg     rms          rms(c)
DAV:   1    -0.231398240985E+04    0.11488E-01   -0.10417E+00  4420   0.821E-01    0.328E-01
RMM:   2    -0.231399758657E+04   -0.15177E-01   -0.16444E-01  5997   0.180E-01    0.217E-01
RMM:   3    -0.231399891046E+04   -0.13239E-02   -0.18248E-02  5434   0.754E-02    0.174E-01
RMM:   4    -0.231399874709E+04    0.16336E-03   -0.18519E-03  4618   0.169E-02    0.107E-01
RMM:   5    -0.231399860829E+04    0.13880E-03   -0.34871E-04  3996   0.117E-02    0.548E-02
RMM:   6    -0.231399857592E+04    0.32379E-04   -0.19377E-04  4129   0.916E-03    0.265E-02
RMM:   7    -0.231399856731E+04    0.86077E-05   -0.23169E-05  2860   0.607E-03
  29 F= -.23344552E+04 E0= -.23344552E+04  d E =-.124903E-01  mag=     3.0000
       N       E                     dE             d eps       ncg     rms          rms(c)
DAV:   1    -0.231400195247E+04   -0.33766E-02   -0.31276E-01  4528   0.492E-01    0.179E-01
RMM:   2    -0.231400493242E+04   -0.29800E-02   -0.32807E-02  5815   0.100E-01    0.973E-02
RMM:   3    -0.231400507365E+04   -0.14123E-03   -0.30426E-03  4845   0.388E-02    0.604E-02
RMM:   4    -0.231400505582E+04    0.17826E-04   -0.44312E-04  4223   0.126E-02    0.394E-02
RMM:   5    -0.231400505975E+04   -0.39255E-05   -0.84355E-05  2989   0.842E-03
  30 F= -.23344617E+04 E0= -.23344617E+04  d E =-.650661E-02  mag=     3.0000
       N       E                     dE             d eps       ncg     rms          rms(c)
DAV:   1    -0.231399983752E+04    0.52183E-02   -0.95434E-01  4420   0.858E-01    0.315E-01
RMM:   2    -0.231400899136E+04   -0.91538E-02   -0.10060E-01  5794   0.177E-01    0.173E-01
RMM:   3    -0.231400941843E+04   -0.42707E-03   -0.93267E-03  5077   0.637E-02    0.109E-01
RMM:   4    -0.231400936211E+04    0.56326E-04   -0.13703E-03  4778   0.223E-02    0.722E-02
RMM:   5    -0.231400936030E+04    0.18031E-05   -0.28527E-04  4085   0.133E-02    0.742E-02
RMM:   6    -0.231400931238E+04    0.47926E-04   -0.96075E-05  2973   0.596E-03    0.243E-02
RMM:   7    -0.231400930440E+04    0.79775E-05   -0.18610E-05  2882   0.412E-03
  31 F= -.23344660E+04 E0= -.23344660E+04  d E =-.107749E-01  mag=     3.0000
       N       E                     dE             d eps       ncg     rms          rms(c)
DAV:   1    -0.231401049151E+04   -0.11791E-02   -0.29154E-01  4480   0.430E-01    0.158E-01
RMM:   2    -0.231401403508E+04   -0.35436E-02   -0.37264E-02  6070   0.912E-02    0.115E-01
RMM:   3    -0.231401427026E+04   -0.23518E-03   -0.38136E-03  4472   0.327E-02    0.917E-02
RMM:   4    -0.231401421691E+04    0.53350E-04   -0.41386E-04  3093   0.879E-03    0.525E-02
RMM:   5    -0.231401418342E+04    0.33494E-04   -0.11912E-04  3224   0.707E-03    0.233E-02
RMM:   6    -0.231401418390E+04   -0.48196E-06   -0.32830E-05  2939   0.549E-03
  32 F= -.23344711E+04 E0= -.23344711E+04  d E =-.509601E-02  mag=     3.0000
       N       E                     dE             d eps       ncg     rms          rms(c)
DAV:   1    -0.231398658821E+04    0.27595E-01   -0.26206E+00  4408   0.129E+00    0.473E-01
RMM:   2    -0.231401831189E+04   -0.31724E-01   -0.33464E-01  5978   0.275E-01    0.340E-01
RMM:   3    -0.231402052238E+04   -0.22105E-02   -0.35740E-02  5626   0.999E-02    0.262E-01
RMM:   4    -0.231402011716E+04    0.40521E-03   -0.37355E-03  5109   0.239E-02    0.157E-01
RMM:   5    -0.231401980942E+04    0.30775E-03   -0.10340E-03  4871   0.181E-02    0.752E-02
RMM:   6    -0.231401979636E+04    0.13054E-04   -0.29932E-04  4569   0.111E-02    0.568E-02
RMM:   7    -0.231401976644E+04    0.29924E-04   -0.68900E-05  2981   0.684E-03    0.167E-02
RMM:   8    -0.231401976252E+04    0.39179E-05   -0.18319E-05  2870   0.379E-03
  33 F= -.23344773E+04 E0= -.23344773E+04  d E =-.113187E-01  mag=     3.0000
       N       E                     dE             d eps       ncg     rms          rms(c)
DAV:   1    -0.231401990369E+04   -0.13725E-03   -0.31596E-01  4528   0.429E-01    0.161E-01
RMM:   2    -0.231402423790E+04   -0.43342E-02   -0.44896E-02  6191   0.938E-02    0.152E-01
RMM:   3    -0.231402446085E+04   -0.22295E-03   -0.48641E-03  4479   0.341E-02    0.971E-02
RMM:   4    -0.231402441228E+04    0.48571E-04   -0.51427E-04  3070   0.892E-03    0.518E-02
RMM:   5    -0.231402437551E+04    0.36772E-04   -0.10568E-04  3142   0.630E-03    0.241E-02
RMM:   6    -0.231402437585E+04   -0.34655E-06   -0.34560E-05  2899   0.542E-03
  34 F= -.23344822E+04 E0= -.23344822E+04  d E =-.491485E-02  mag=     3.0000
       N       E                     dE             d eps       ncg     rms          rms(c)
DAV:   1    -0.231399193064E+04    0.32445E-01   -0.28348E+00  4408   0.128E+00    0.487E-01
RMM:   2    -0.231403110965E+04   -0.39179E-01   -0.40485E-01  6058   0.282E-01    0.481E-01
RMM:   3    -0.231403285654E+04   -0.17469E-02   -0.45514E-02  5734   0.103E-01    0.297E-01
RMM:   4    -0.231403238089E+04    0.47566E-03   -0.46948E-03  4923   0.247E-02    0.155E-01
RMM:   5    -0.231403204639E+04    0.33450E-03   -0.90739E-04  4739   0.160E-02    0.742E-02
RMM:   6    -0.231403203536E+04    0.11030E-04   -0.29550E-04  4106   0.120E-02    0.343E-02
RMM:   7    -0.231403202460E+04    0.10757E-04   -0.42608E-05  2903   0.592E-03    0.174E-02
RMM:   8    -0.231403202081E+04    0.37883E-05   -0.17854E-05  2844   0.355E-03
  35 F= -.23344907E+04 E0= -.23344907E+04  d E =-.134614E-01  mag=     3.0000
       N       E                     dE             d eps       ncg     rms          rms(c)
DAV:   1    -0.231402643991E+04    0.55847E-02   -0.42886E-01  4496   0.499E-01    0.188E-01
RMM:   2    -0.231403230478E+04   -0.58649E-02   -0.60799E-02  6167   0.109E-01    0.178E-01
RMM:   3    -0.231403259132E+04   -0.28654E-03   -0.64780E-03  4772   0.386E-02    0.114E-01
RMM:   4    -0.231403252196E+04    0.69368E-04   -0.69270E-04  3155   0.101E-02    0.601E-02
RMM:   5    -0.231403247322E+04    0.48736E-04   -0.14686E-04  3366   0.722E-03    0.277E-02
RMM:   6    -0.231403247323E+04   -0.13897E-07   -0.41784E-05  2917   0.603E-03
  36 F= -.23344916E+04 E0= -.23344916E+04  d E =-.142624E-01  mag=     3.0000
       N       E                     dE             d eps       ncg     rms          rms(c)
DAV:   1    -0.231402910275E+04    0.33705E-02   -0.69493E-01  4420   0.702E-01    0.276E-01
RMM:   2    -0.231403888859E+04   -0.97858E-02   -0.10201E-01  5896   0.151E-01    0.258E-01
RMM:   3    -0.231403919767E+04   -0.30908E-03   -0.10358E-02  5412   0.565E-02    0.169E-01
RMM:   4    -0.231403897869E+04    0.21898E-03   -0.11214E-03  4360   0.141E-02    0.744E-02
RMM:   5    -0.231403888756E+04    0.91128E-04   -0.23976E-04  4121   0.106E-02    0.325E-02
RMM:   6    -0.231403888185E+04    0.57094E-05   -0.61359E-05  3267   0.772E-03
  37 F= -.23344983E+04 E0= -.23344983E+04  d E =-.676754E-02  mag=     3.0000
       N       E                     dE             d eps       ncg     rms          rms(c)
DAV:   1    -0.231401814155E+04    0.20746E-01   -0.16908E+00  4408   0.109E+00    0.430E-01
RMM:   2    -0.231404202245E+04   -0.23881E-01   -0.24941E-01  5945   0.236E-01    0.397E-01
RMM:   3    -0.231404279342E+04   -0.77097E-03   -0.25659E-02  5630   0.894E-02    0.265E-01
RMM:   4    -0.231404225058E+04    0.54284E-03   -0.27341E-03  4929   0.218E-02    0.117E-01
RMM:   5    -0.231404201842E+04    0.23216E-03   -0.61296E-04  4812   0.159E-02    0.509E-02
RMM:   6    -0.231404199942E+04    0.19001E-04   -0.15467E-04  4322   0.102E-02    0.244E-02
RMM:   7    -0.231404198885E+04    0.10568E-04   -0.30653E-05  2984   0.561E-03    0.121E-02
RMM:   8    -0.231404198285E+04    0.60069E-05   -0.14962E-05  2841   0.377E-03
  38 F= -.23345020E+04 E0= -.23345020E+04  d E =-.104222E-01  mag=     3.0000
       N       E                     dE             d eps       ncg     rms          rms(c)
DAV:   1    -0.231402883964E+04    0.13149E-01   -0.11496E+00  4452   0.846E-01    0.342E-01
RMM:   2    -0.231404788114E+04   -0.19042E-01   -0.19950E-01  6133   0.189E-01    0.313E-01
RMM:   3    -0.231404887037E+04   -0.98923E-03   -0.20600E-02  5596   0.706E-02    0.210E-01
RMM:   4    -0.231404858231E+04    0.28806E-03   -0.20798E-03  4247   0.165E-02    0.100E-01
RMM:   5    -0.231404843550E+04    0.14681E-03   -0.36606E-04  4084   0.111E-02    0.469E-02
RMM:   6    -0.231404843621E+04   -0.70364E-06   -0.12737E-04  3440   0.873E-03    0.229E-02
RMM:   7    -0.231404843187E+04    0.43350E-05   -0.19611E-05  2877   0.526E-03
  39 F= -.23345089E+04 E0= -.23345089E+04  d E =-.694545E-02  mag=     3.0000
       N       E                     dE             d eps       ncg     rms          rms(c)
DAV:   1    -0.231396846880E+04    0.79967E-01   -0.49155E+00  4408   0.174E+00    0.709E-01
RMM:   2    -0.231405000946E+04   -0.81541E-01   -0.85689E-01  6088   0.390E-01    0.653E-01
RMM:   3    -0.231405495294E+04   -0.49435E-02   -0.95500E-02  5753   0.152E-01    0.460E-01
RMM:   4    -0.231405349387E+04    0.14591E-02   -0.91250E-03  5301   0.344E-02    0.212E-01
RMM:   5    -0.231405285756E+04    0.63632E-03   -0.16731E-03  4991   0.216E-02    0.104E-01
RMM:   6    -0.231405284927E+04    0.82832E-05   -0.66961E-04  4580   0.155E-02    0.578E-02
RMM:   7    -0.231405281847E+04    0.30797E-04   -0.10154E-04  3094   0.864E-03    0.260E-02
RMM:   8    -0.231405280512E+04    0.13359E-04   -0.37976E-05  2858   0.463E-03    0.109E-02
RMM:   9    -0.231405280383E+04    0.12831E-05   -0.17781E-05  2878   0.305E-03
  40 F= -.23345143E+04 E0= -.23345143E+04  d E =-.123250E-01  mag=     3.0000
       N       E                     dE             d eps       ncg     rms          rms(c)
DAV:   1    -0.231402366309E+04    0.29142E-01   -0.20560E+00  4420   0.105E+00    0.442E-01
RMM:   2    -0.231405845896E+04   -0.34796E-01   -0.36533E-01  6108   0.239E-01    0.418E-01
RMM:   3    -0.231406037123E+04   -0.19123E-02   -0.37712E-02  5654   0.904E-02    0.281E-01
RMM:   4    -0.231405986492E+04    0.50631E-03   -0.39546E-03  4547   0.211E-02    0.135E-01
RMM:   5    -0.231405958121E+04    0.28371E-03   -0.67186E-04  4286   0.129E-02    0.660E-02
RMM:   6    -0.231405957549E+04    0.57189E-05   -0.23262E-04  3853   0.108E-02    0.343E-02
RMM:   7    -0.231405956608E+04    0.94178E-05   -0.43545E-05  2911   0.591E-03
  41 F= -.23345218E+04 E0= -.23345218E+04  d E =-.754434E-02  mag=     3.0000
       N       E                     dE             d eps       ncg     rms          rms(c)
DAV:   1    -0.231403548766E+04    0.24088E-01   -0.14354E+00  4436   0.880E-01    0.371E-01
RMM:   2    -0.231405974910E+04   -0.24261E-01   -0.25503E-01  6141   0.200E-01    0.351E-01
RMM:   3    -0.231406109341E+04   -0.13443E-02   -0.26237E-02  5638   0.759E-02    0.235E-01
RMM:   4    -0.231406075170E+04    0.34171E-03   -0.27605E-03  4001   0.177E-02    0.113E-01
RMM:   5    -0.231406055806E+04    0.19364E-03   -0.46271E-04  4077   0.111E-02    0.554E-02
RMM:   6    -0.231406055439E+04    0.36659E-05   -0.16753E-04  3474   0.940E-03    0.290E-02
RMM:   7    -0.231406054751E+04    0.68843E-05   -0.31519E-05  2887   0.556E-03
  42 F= -.23345235E+04 E0= -.23345235E+04  d E =-.917422E-02  mag=     3.0000
       N       E                     dE             d eps       ncg     rms          rms(c)
DAV:   1    -0.231402586421E+04    0.34690E-01   -0.21285E+00  4420   0.107E+00    0.475E-01
RMM:   2    -0.231406548127E+04   -0.39617E-01   -0.41304E-01  6196   0.252E-01    0.447E-01
RMM:   3    -0.231406771174E+04   -0.22305E-02   -0.43274E-02  5792   0.946E-02    0.284E-01
RMM:   4    -0.231406728792E+04    0.42382E-03   -0.44859E-03  4762   0.218E-02    0.140E-01
RMM:   5    -0.231406700068E+04    0.28724E-03   -0.62723E-04  4329   0.132E-02    0.702E-02
RMM:   6    -0.231406700006E+04    0.62509E-06   -0.29126E-04  3961   0.106E-02    0.401E-02
RMM:   7    -0.231406698903E+04    0.11027E-04   -0.47756E-05  2892   0.643E-03    0.171E-02
RMM:   8    -0.231406698491E+04    0.41213E-05   -0.14176E-05  2838   0.347E-03
  43 F= -.23345308E+04 E0= -.23345308E+04  d E =-.728236E-02  mag=     3.0000
       N       E                     dE             d eps       ncg     rms          rms(c)
DAV:   1    -0.231403412166E+04    0.32867E-01   -0.17889E+00  4408   0.983E-01    0.434E-01
RMM:   2    -0.231406720114E+04   -0.33079E-01   -0.34461E-01  6168   0.231E-01    0.408E-01
RMM:   3    -0.231406905205E+04   -0.18509E-02   -0.35611E-02  5676   0.836E-02    0.258E-01
RMM:   4    -0.231406869721E+04    0.35483E-03   -0.37274E-03  4625   0.197E-02    0.127E-01
RMM:   5    -0.231406845293E+04    0.24428E-03   -0.53544E-04  4208   0.122E-02    0.629E-02
RMM:   6    -0.231406845187E+04    0.10650E-05   -0.23020E-04  3755   0.982E-03    0.351E-02
RMM:   7    -0.231406844359E+04    0.82781E-05   -0.36608E-05  2881   0.595E-03
  44 F= -.23345330E+04 E0= -.23345330E+04  d E =-.950807E-02  mag=     3.0000
       N       E                     dE             d eps       ncg     rms          rms(c)
DAV:   1    -0.231404721294E+04    0.21239E-01   -0.11777E+00  4464   0.820E-01    0.373E-01
RMM:   2    -0.231407199588E+04   -0.24783E-01   -0.25895E-01  6112   0.205E-01    0.342E-01
RMM:   3    -0.231407332608E+04   -0.13302E-02   -0.25621E-02  5528   0.773E-02    0.229E-01
RMM:   4    -0.231407305832E+04    0.26776E-03   -0.27671E-03  4352   0.180E-02    0.107E-01
RMM:   5    -0.231407287105E+04    0.18726E-03   -0.38776E-04  4193   0.109E-02    0.536E-02
RMM:   6    -0.231407285851E+04    0.12545E-04   -0.17390E-04  3833   0.897E-03    0.306E-02
RMM:   7    -0.231407284995E+04    0.85600E-05   -0.34896E-05  2869   0.612E-03
  45 F= -.23345380E+04 E0= -.23345380E+04  d E =-.503798E-02  mag=     3.0000
       N       E                     dE             d eps       ncg     rms          rms(c)
DAV:   1    -0.231406481159E+04    0.80469E-02   -0.37959E-01  4616   0.466E-01    0.212E-01
RMM:   2    -0.231407276573E+04   -0.79541E-02   -0.83109E-02  6121   0.117E-01    0.195E-01
RMM:   3    -0.231407317365E+04   -0.40792E-03   -0.82002E-03  4900   0.444E-02    0.128E-01
RMM:   4    -0.231407309186E+04    0.81790E-04   -0.88929E-04  3138   0.106E-02    0.606E-02
RMM:   5    -0.231407303123E+04    0.60621E-04   -0.12865E-04  3275   0.679E-03    0.298E-02
RMM:   6    -0.231407302644E+04    0.47921E-05   -0.49612E-05  2963   0.611E-03
  46 F= -.23345386E+04 E0= -.23345386E+04  d E =-.557043E-02  mag=     3.0000
       N       E                     dE             d eps       ncg     rms          rms(c)
DAV:   1    -0.231406031926E+04    0.12712E-01   -0.71294E-01  4432   0.646E-01    0.280E-01
RMM:   2    -0.231407510274E+04   -0.14783E-01   -0.15692E-01  6112   0.156E-01    0.232E-01
RMM:   3    -0.231407602019E+04   -0.91745E-03   -0.13958E-02  5349   0.579E-02    0.185E-01
RMM:   4    -0.231407582248E+04    0.19771E-03   -0.16177E-03  3575   0.140E-02    0.826E-02
RMM:   5    -0.231407572153E+04    0.10094E-03   -0.25167E-04  3742   0.866E-03    0.399E-02
RMM:   6    -0.231407571859E+04    0.29380E-05   -0.77978E-05  3045   0.719E-03
  47 F= -.23345416E+04 E0= -.23345416E+04  d E =-.306593E-02  mag=     3.0000
       N       E                     dE             d eps       ncg     rms          rms(c)
DAV:   1    -0.231405801970E+04    0.17702E-01   -0.83878E-01  4408   0.701E-01    0.305E-01
RMM:   2    -0.231407555241E+04   -0.17533E-01   -0.18648E-01  6178   0.170E-01    0.250E-01
RMM:   3    -0.231407665974E+04   -0.11073E-02   -0.16512E-02  5414   0.632E-02    0.202E-01
RMM:   4    -0.231407642594E+04    0.23381E-03   -0.19126E-03  3710   0.152E-02    0.909E-02
RMM:   5    -0.231407630412E+04    0.12181E-03   -0.29718E-04  3946   0.930E-03    0.444E-02
RMM:   6    -0.231407629844E+04    0.56796E-05   -0.98890E-05  3167   0.766E-03
  48 F= -.23345426E+04 E0= -.23345426E+04  d E =-.404152E-02  mag=     3.0000
       N       E                     dE             d eps       ncg     rms          rms(c)
DAV:   1    -0.231406195248E+04    0.14352E-01   -0.94931E-01  4408   0.754E-01    0.300E-01
RMM:   2    -0.231407848760E+04   -0.16535E-01   -0.17928E-01  6217   0.165E-01    0.184E-01
RMM:   3    -0.231407986094E+04   -0.13733E-02   -0.17046E-02  5450   0.636E-02    0.163E-01
RMM:   4    -0.231407978318E+04    0.77758E-04   -0.18723E-03  3517   0.143E-02    0.100E-01
RMM:   5    -0.231407964952E+04    0.13366E-03   -0.31948E-04  3917   0.969E-03    0.474E-02
RMM:   6    -0.231407964143E+04    0.80962E-05   -0.11382E-04  3259   0.776E-03    0.201E-02
RMM:   7    -0.231407963848E+04    0.29463E-05   -0.18498E-05  2856   0.533E-03
  49 F= -.23345461E+04 E0= -.23345461E+04  d E =-.352425E-02  mag=     3.0000
       N       E                     dE             d eps       ncg     rms          rms(c)
DAV:   1    -0.231406659019E+04    0.13051E-01   -0.74537E-01  4420   0.667E-01    0.264E-01
RMM:   2    -0.231407956081E+04   -0.12971E-01   -0.14009E-01  6207   0.146E-01    0.166E-01
RMM:   3    -0.231408064422E+04   -0.10834E-02   -0.13410E-02  5284   0.553E-02    0.146E-01
RMM:   4    -0.231408057591E+04    0.68310E-04   -0.14708E-03  3351   0.127E-02    0.881E-02
RMM:   5    -0.231408046943E+04    0.10647E-03   -0.25744E-04  3683   0.874E-03    0.420E-02
RMM:   6    -0.231408046162E+04    0.78149E-05   -0.90173E-05  3125   0.723E-03
  50 F= -.23345471E+04 E0= -.23345471E+04  d E =-.449752E-02  mag=     3.0000
       N       E                     dE             d eps       ncg     rms          rms(c)
DAV:   1    -0.231406831929E+04    0.12150E-01   -0.79143E-01  4420   0.666E-01    0.263E-01
RMM:   2    -0.231408247140E+04   -0.14152E-01   -0.15323E-01  6158   0.148E-01    0.157E-01
RMM:   3    -0.231408375785E+04   -0.12865E-02   -0.15565E-02  5246   0.588E-02    0.131E-01
RMM:   4    -0.231408376602E+04   -0.81667E-05   -0.16146E-03  3179   0.125E-02    0.960E-02
RMM:   5    -0.231408364924E+04    0.11678E-03   -0.21821E-04  3320   0.777E-03    0.482E-02
RMM:   6    -0.231408363063E+04    0.18607E-04   -0.12181E-04  3261   0.723E-03    0.175E-02
RMM:   7    -0.231408362850E+04    0.21305E-05   -0.17088E-05  2854   0.531E-03
  51 F= -.23345504E+04 E0= -.23345504E+04  d E =-.330629E-02  mag=     3.0000
       N       E                     dE             d eps       ncg     rms          rms(c)
DAV:   1    -0.231406400178E+04    0.19629E-01   -0.10741E+00  4408   0.775E-01    0.304E-01
RMM:   2    -0.231408320285E+04   -0.19201E-01   -0.20728E-01  6188   0.171E-01    0.188E-01
RMM:   3    -0.231408501605E+04   -0.18132E-02   -0.21705E-02  5395   0.672E-02    0.168E-01
RMM:   4    -0.231408496903E+04    0.47019E-04   -0.22054E-03  3302   0.144E-02    0.108E-01
RMM:   5    -0.231408481375E+04    0.15529E-03   -0.30284E-04  3615   0.894E-03    0.570E-02
RMM:   6    -0.231408478378E+04    0.29964E-04   -0.17986E-04  3512   0.813E-03    0.218E-02
RMM:   7    -0.231408477987E+04    0.39121E-05   -0.23701E-05  2863   0.575E-03
  52 F= -.23345517E+04 E0= -.23345517E+04  d E =-.460523E-02  mag=     3.0000
       N       E                     dE             d eps       ncg     rms          rms(c)
DAV:   1    -0.231406373776E+04    0.21046E-01   -0.12127E+00  4408   0.846E-01    0.344E-01
RMM:   2    -0.231408628949E+04   -0.22552E-01   -0.24220E-01  6190   0.194E-01    0.210E-01
RMM:   3    -0.231408832731E+04   -0.20378E-02   -0.24244E-02  5454   0.751E-02    0.204E-01
RMM:   4    -0.231408818594E+04    0.14136E-03   -0.25863E-03  3770   0.166E-02    0.109E-01
RMM:   5    -0.231408803101E+04    0.15493E-03   -0.33957E-04  3863   0.974E-03    0.573E-02
RMM:   6    -0.231408800750E+04    0.23510E-04   -0.16844E-04  3628   0.836E-03    0.224E-02
RMM:   7    -0.231408800565E+04    0.18508E-05   -0.22718E-05  2862   0.576E-03
  53 F= -.23345552E+04 E0= -.23345552E+04  d E =-.346058E-02  mag=     3.0000
       N       E                     dE             d eps       ncg     rms          rms(c)
DAV:   1    -0.231402552619E+04    0.62481E-01   -0.31010E+00  4408   0.136E+00    0.550E-01
RMM:   2    -0.231408322215E+04   -0.57696E-01   -0.61998E-01  6176   0.310E-01    0.337E-01
RMM:   3    -0.231408861246E+04   -0.53903E-02   -0.64232E-02  5633   0.119E-01    0.329E-01
RMM:   4    -0.231408823575E+04    0.37671E-03   -0.66518E-03  5021   0.263E-02    0.177E-01
RMM:   5    -0.231408785793E+04    0.37782E-03   -0.90556E-04  4553   0.143E-02    0.102E-01
RMM:   6    -0.231408775886E+04    0.99070E-04   -0.49445E-04  4459   0.119E-02    0.427E-02
RMM:   7    -0.231408775295E+04    0.59104E-05   -0.66394E-05  2942   0.807E-03
  54 F= -.23345552E+04 E0= -.23345552E+04  d E =-.355172E-02  mag=     3.0000
       N       E                     dE             d eps       ncg     rms          rms(c)
DAV:   1    -0.231407582121E+04    0.11938E-01   -0.64229E-01  4420   0.617E-01    0.249E-01
RMM:   2    -0.231408770878E+04   -0.11888E-01   -0.12755E-01  6178   0.142E-01    0.146E-01
RMM:   3    -0.231408878634E+04   -0.10776E-02   -0.13332E-02  5207   0.534E-02    0.126E-01
RMM:   4    -0.231408876787E+04    0.18476E-04   -0.13181E-03  3219   0.118E-02    0.839E-02
RMM:   5    -0.231408868226E+04    0.85612E-04   -0.17708E-04  3143   0.763E-03    0.443E-02
RMM:   6    -0.231408866602E+04    0.16238E-04   -0.92927E-05  3151   0.657E-03    0.196E-02
RMM:   7    -0.231408866451E+04    0.15028E-05   -0.17513E-05  2867   0.505E-03
  55 F= -.23345560E+04 E0= -.23345560E+04  d E =-.431145E-02  mag=     3.0000
       N       E                     dE             d eps       ncg     rms          rms(c)
DAV:   1    -0.231405944652E+04    0.29220E-01   -0.15040E+00  4408   0.924E-01    0.383E-01
RMM:   2    -0.231408949987E+04   -0.30053E-01   -0.32130E-01  6151   0.219E-01    0.240E-01
RMM:   3    -0.231409210598E+04   -0.26061E-02   -0.30769E-02  5500   0.807E-02    0.245E-01
RMM:   4    -0.231409188398E+04    0.22199E-03   -0.33673E-03  3837   0.183E-02    0.122E-01
RMM:   5    -0.231409168494E+04    0.19904E-03   -0.40168E-04  3853   0.996E-03    0.688E-02
RMM:   6    -0.231409164250E+04    0.42446E-04   -0.23511E-04  3882   0.891E-03    0.286E-02
RMM:   7    -0.231409163910E+04    0.33965E-05   -0.33858E-05  2893   0.617E-03
  56 F= -.23345592E+04 E0= -.23345592E+04  d E =-.320667E-02  mag=     3.0000
       N       E                     dE             d eps       ncg     rms          rms(c)
DAV:   1    -0.231407665183E+04    0.14991E-01   -0.71460E-01  4432   0.635E-01    0.266E-01
RMM:   2    -0.231409100151E+04   -0.14350E-01   -0.15369E-01  6214   0.151E-01    0.171E-01
RMM:   3    -0.231409224737E+04   -0.12459E-02   -0.14467E-02  5170   0.581E-02    0.180E-01
RMM:   4    -0.231409210460E+04    0.14277E-03   -0.16001E-03  3268   0.132E-02    0.830E-02
RMM:   5    -0.231409201299E+04    0.91619E-04   -0.18954E-04  3254   0.737E-03    0.455E-02
RMM:   6    -0.231409199876E+04    0.14226E-04   -0.10263E-04  3160   0.684E-03    0.177E-02
RMM:   7    -0.231409199775E+04    0.10103E-05   -0.16196E-05  2853   0.520E-03
  57 F= -.23345597E+04 E0= -.23345597E+04  d E =-.371549E-02  mag=     3.0000
       N       E                     dE             d eps       ncg     rms          rms(c)
DAV:   1    -0.231407801075E+04    0.13988E-01   -0.79170E-01  4420   0.713E-01    0.291E-01
RMM:   2    -0.231409277566E+04   -0.14765E-01   -0.16025E-01  6116   0.160E-01    0.152E-01
RMM:   3    -0.231409402909E+04   -0.12534E-02   -0.16010E-02  5350   0.652E-02    0.116E-01
RMM:   4    -0.231409411291E+04   -0.83828E-04   -0.16946E-03  3481   0.140E-02    0.110E-01
RMM:   5    -0.231409397096E+04    0.14195E-03   -0.22509E-04  3384   0.858E-03    0.485E-02
RMM:   6    -0.231409394881E+04    0.22151E-04   -0.12787E-04  3591   0.759E-03    0.186E-02
RMM:   7    -0.231409394645E+04    0.23564E-05   -0.19684E-05  2877   0.553E-03
  58 F= -.23345618E+04 E0= -.23345618E+04  d E =-.203916E-02  mag=     3.0000
       N       E                     dE             d eps       ncg     rms          rms(c)
DAV:   1    -0.231406260409E+04    0.31345E-01   -0.15212E+00  4408   0.987E-01    0.404E-01
RMM:   2    -0.231409093454E+04   -0.28330E-01   -0.30750E-01  6059   0.223E-01    0.212E-01
RMM:   3    -0.231409336388E+04   -0.24293E-02   -0.31509E-02  5485   0.911E-02    0.158E-01
RMM:   4    -0.231409352450E+04   -0.16062E-03   -0.32752E-03  4254   0.192E-02    0.152E-01
RMM:   5    -0.231409326360E+04    0.26090E-03   -0.42958E-04  3962   0.110E-02    0.716E-02
RMM:   6    -0.231409320660E+04    0.57005E-04   -0.23907E-04  4137   0.931E-03    0.299E-02
RMM:   7    -0.231409319930E+04    0.72942E-05   -0.42118E-05  2909   0.686E-03
  59 F= -.23345611E+04 E0= -.23345611E+04  d E =-.140193E-02  mag=     3.0000
       N       E                     dE             d eps       ncg     rms          rms(c)
DAV:   1    -0.231408251127E+04    0.10695E-01   -0.58150E-01  4432   0.611E-01    0.248E-01
RMM:   2    -0.231409330821E+04   -0.10797E-01   -0.11681E-01  6030   0.137E-01    0.132E-01
RMM:   3    -0.231409419911E+04   -0.89090E-03   -0.11913E-02  5229   0.534E-02    0.903E-02
RMM:   4    -0.231409425170E+04   -0.52587E-04   -0.12053E-03  3328   0.117E-02    0.888E-02
RMM:   5    -0.231409416910E+04    0.82603E-04   -0.15829E-04  3048   0.738E-03    0.475E-02
RMM:   6    -0.231409414260E+04    0.26498E-04   -0.10694E-04  3406   0.694E-03    0.154E-02
RMM:   7    -0.231409414150E+04    0.10961E-05   -0.14503E-05  2863   0.510E-03
  60 F= -.23345620E+04 E0= -.23345620E+04  d E =-.227826E-02  mag=     3.0000
       N       E                     dE             d eps       ncg     rms          rms(c)
DAV:   1    -0.231407992038E+04    0.14222E-01   -0.75362E-01  4420   0.678E-01    0.274E-01
RMM:   2    -0.231409442453E+04   -0.14504E-01   -0.15641E-01  6052   0.155E-01    0.159E-01
RMM:   3    -0.231409560701E+04   -0.11825E-02   -0.15777E-02  5349   0.616E-02    0.101E-01
RMM:   4    -0.231409563611E+04   -0.29100E-04   -0.15649E-03  3525   0.127E-02    0.843E-02
RMM:   5    -0.231409556535E+04    0.70752E-04   -0.24548E-04  3283   0.890E-03    0.629E-02
RMM:   6    -0.231409553222E+04    0.33135E-04   -0.11019E-04  3222   0.709E-03    0.251E-02
RMM:   7    -0.231409552858E+04    0.36375E-05   -0.25417E-05  2887   0.544E-03
  61 F= -.23345634E+04 E0= -.23345634E+04  d E =-.144819E-02  mag=     3.0000
       N       E                     dE             d eps       ncg     rms          rms(c)
DAV:   1    -0.231409529032E+04    0.24190E-03   -0.11006E-02  4896   0.820E-02    0.351E-02
RMM:   2    -0.231409550720E+04   -0.21688E-03   -0.23690E-03  5449   0.200E-02    0.222E-02
RMM:   3    -0.231409552603E+04   -0.18825E-04   -0.24140E-04  2898   0.848E-03    0.161E-02
RMM:   4    -0.231409552625E+04   -0.22320E-06   -0.25402E-05  2854   0.238E-03
  62 F= -.23345635E+04 E0= -.23345635E+04  d E =-.145269E-02  mag=     3.0000
       N       E                     dE             d eps       ncg     rms          rms(c)
DAV:   1    -0.231409158479E+04    0.39412E-02   -0.25341E-01  4432   0.437E-01    0.172E-01
RMM:   2    -0.231409601129E+04   -0.44265E-02   -0.48064E-02  5988   0.961E-02    0.106E-01
RMM:   3    -0.231409634592E+04   -0.33463E-03   -0.47906E-03  4694   0.374E-02    0.816E-02
RMM:   4    -0.231409631943E+04    0.26491E-04   -0.50396E-04  3114   0.877E-03    0.544E-02
RMM:   5    -0.231409627958E+04    0.39849E-04   -0.10368E-04  3018   0.690E-03    0.294E-02
RMM:   6    -0.231409627278E+04    0.67974E-05   -0.45095E-05  3005   0.596E-03
  63 F= -.23345642E+04 E0= -.23345642E+04  d E =-.747212E-03  mag=     3.0000
       N       E                     dE             d eps       ncg     rms          rms(c)
DAV:   1    -0.231409621255E+04    0.67030E-04   -0.30666E-03  5168   0.483E-02    0.211E-02
RMM:   2    -0.231409626675E+04   -0.54208E-04   -0.62736E-04  4169   0.118E-02    0.120E-02
RMM:   3    -0.231409627197E+04   -0.52122E-05   -0.63143E-05  2832   0.613E-03
  64 F= -.23345642E+04 E0= -.23345642E+04  d E =-.746327E-03  mag=     3.0000
       N       E                     dE             d eps       ncg     rms          rms(c)
DAV:   1    -0.231409243705E+04    0.38297E-02   -0.22597E-01  4432   0.405E-01    0.149E-01
RMM:   2    -0.231409673447E+04   -0.42974E-02   -0.46279E-02  5991   0.876E-02    0.891E-02
RMM:   3    -0.231409709015E+04   -0.35568E-03   -0.46449E-03  4410   0.349E-02    0.585E-02
RMM:   4    -0.231409709784E+04   -0.76946E-05   -0.47465E-04  2998   0.767E-03    0.472E-02
RMM:   5    -0.231409707588E+04    0.21966E-04   -0.78883E-05  2887   0.560E-03    0.341E-02
RMM:   6    -0.231409706790E+04    0.79764E-05   -0.43004E-05  2926   0.499E-03
  65 F= -.23345650E+04 E0= -.23345650E+04  d E =-.763286E-03  mag=     3.0000
       N       E                     dE             d eps       ncg     rms          rms(c)
DAV:   1    -0.231409545675E+04    0.16191E-02   -0.83984E-02  4464   0.247E-01    0.934E-02
RMM:   2    -0.231409704665E+04   -0.15899E-02   -0.17346E-02  6136   0.534E-02    0.553E-02
RMM:   3    -0.231409717995E+04   -0.13331E-03   -0.16762E-03  3425   0.212E-02    0.375E-02
RMM:   4    -0.231409718339E+04   -0.34348E-05   -0.17940E-04  2921   0.539E-03    0.311E-02
RMM:   5    -0.231409717299E+04    0.10402E-04   -0.29676E-05  2859   0.367E-03    0.188E-02
RMM:   6    -0.231409717034E+04    0.26414E-05   -0.15272E-05  2865   0.323E-03
  66 F= -.23345650E+04 E0= -.23345650E+04  d E =-.844896E-03  mag=     3.0000
       N       E                     dE             d eps       ncg     rms          rms(c)
DAV:   1    -0.231409204345E+04    0.51295E-02   -0.29007E-01  4448   0.477E-01    0.174E-01
RMM:   2    -0.231409738012E+04   -0.53367E-02   -0.57867E-02  6061   0.101E-01    0.919E-02
RMM:   3    -0.231409781760E+04   -0.43748E-03   -0.56556E-03  4711   0.411E-02    0.544E-02
RMM:   4    -0.231409782380E+04   -0.61922E-05   -0.56059E-04  3113   0.876E-03    0.384E-02
RMM:   5    -0.231409780309E+04    0.20708E-04   -0.74024E-05  3050   0.640E-03    0.163E-02
RMM:   6    -0.231409780428E+04   -0.11914E-05   -0.19753E-05  2871   0.524E-03
  67 F= -.23345657E+04 E0= -.23345657E+04  d E =-.668848E-03  mag=     3.0000
       N       E                     dE             d eps       ncg     rms          rms(c)
DAV:   1    -0.231409620671E+04    0.15964E-02   -0.82393E-02  4560   0.254E-01    0.948E-02
RMM:   2    -0.231409773422E+04   -0.15275E-02   -0.16614E-02  6086   0.542E-02    0.537E-02
RMM:   3    -0.231409785775E+04   -0.12353E-03   -0.15729E-03  3495   0.218E-02    0.369E-02
RMM:   4    -0.231409786048E+04   -0.27249E-05   -0.17382E-04  2924   0.544E-03    0.305E-02
RMM:   5    -0.231409785011E+04    0.10366E-04   -0.27408E-05  2851   0.371E-03    0.177E-02
RMM:   6    -0.231409784749E+04    0.26164E-05   -0.14769E-05  2855   0.335E-03
  68 F= -.23345658E+04 E0= -.23345658E+04  d E =-.729920E-03  mag=     3.0000
       N       E                     dE             d eps       ncg     rms          rms(c)
DAV:   1    -0.231409413796E+04    0.37122E-02   -0.20435E-01  4432   0.383E-01    0.142E-01
RMM:   2    -0.231409816938E+04   -0.40314E-02   -0.43557E-02  6216   0.828E-02    0.760E-02
RMM:   3    -0.231409850047E+04   -0.33109E-03   -0.41542E-03  4012   0.328E-02    0.487E-02
RMM:   4    -0.231409852907E+04   -0.28602E-04   -0.44707E-04  2945   0.766E-03    0.524E-02
RMM:   5    -0.231409850090E+04    0.28168E-04   -0.45041E-05  2897   0.445E-03    0.270E-02
RMM:   6    -0.231409849523E+04    0.56672E-05   -0.38539E-05  2883   0.434E-03
  69 F= -.23345665E+04 E0= -.23345665E+04  d E =-.713372E-03  mag=     3.0000
       N       E                     dE             d eps       ncg     rms          rms(c)
DAV:   1    -0.231408352143E+04    0.14979E-01   -0.71585E-01  4408   0.718E-01    0.265E-01
RMM:   2    -0.231409764057E+04   -0.14119E-01   -0.15245E-01  6055   0.154E-01    0.142E-01
RMM:   3    -0.231409880344E+04   -0.11629E-02   -0.14631E-02  5205   0.620E-02    0.915E-02
RMM:   4    -0.231409888851E+04   -0.85071E-04   -0.15631E-03  3359   0.128E-02    0.929E-02
RMM:   5    -0.231409880351E+04    0.85004E-04   -0.15464E-04  3044   0.733E-03    0.540E-02
RMM:   6    -0.231409877850E+04    0.25008E-04   -0.12859E-04  3487   0.712E-03    0.171E-02
RMM:   7    -0.231409877802E+04    0.48336E-06   -0.17748E-05  2868   0.524E-03
  70 F= -.23345669E+04 E0= -.23345669E+04  d E =-.111770E-02  mag=     3.0000
       N       E                     dE             d eps       ncg     rms          rms(c)
DAV:   1    -0.231409556456E+04    0.32139E-02   -0.17217E-01  4488   0.345E-01    0.131E-01
RMM:   2    -0.231409903867E+04   -0.34741E-02   -0.37527E-02  6203   0.758E-02    0.701E-02
RMM:   3    -0.231409933186E+04   -0.29318E-03   -0.36191E-03  3900   0.293E-02    0.439E-02
RMM:   4    -0.231409935726E+04   -0.25402E-04   -0.38467E-04  2927   0.690E-03    0.475E-02
RMM:   5    -0.231409933588E+04    0.21381E-04   -0.36220E-05  2871   0.401E-03    0.254E-02
RMM:   6    -0.231409933210E+04    0.37757E-05   -0.34073E-05  2878   0.381E-03
  71 F= -.23345675E+04 E0= -.23345675E+04  d E =-.588996E-03  mag=     3.0000
       N       E                     dE             d eps       ncg     rms          rms(c)
DAV:   1    -0.231408102948E+04    0.18306E-01   -0.85872E-01  4408   0.771E-01    0.290E-01
RMM:   2    -0.231409831957E+04   -0.17290E-01   -0.18647E-01  6030   0.167E-01    0.156E-01
RMM:   3    -0.231409975392E+04   -0.14344E-02   -0.17862E-02  5285   0.650E-02    0.997E-02
RMM:   4    -0.231409986425E+04   -0.11033E-03   -0.18952E-03  3510   0.135E-02    0.102E-01
RMM:   5    -0.231409976174E+04    0.10251E-03   -0.18746E-04  3065   0.781E-03    0.573E-02
RMM:   6    -0.231409973716E+04    0.24575E-04   -0.15814E-04  3632   0.742E-03    0.159E-02
RMM:   7    -0.231409973746E+04   -0.29446E-06   -0.16094E-05  2860   0.535E-03
  72 F= -.23345680E+04 E0= -.23345680E+04  d E =-.107110E-02  mag=     3.0000
       N       E                     dE             d eps       ncg     rms          rms(c)
DAV:   1    -0.231409466731E+04    0.50699E-02   -0.27045E-01  4432   0.430E-01    0.165E-01
RMM:   2    -0.231410008202E+04   -0.54147E-02   -0.58460E-02  6127   0.949E-02    0.885E-02
RMM:   3    -0.231410055060E+04   -0.46858E-03   -0.57337E-03  4439   0.387E-02    0.614E-02
RMM:   4    -0.231410059267E+04   -0.42066E-04   -0.61584E-04  2972   0.852E-03    0.642E-02
RMM:   5    -0.231410054856E+04    0.44114E-04   -0.64024E-05  2925   0.514E-03    0.307E-02
RMM:   6    -0.231410054189E+04    0.66699E-05   -0.53652E-05  2923   0.524E-03
  73 F= -.23345687E+04 E0= -.23345687E+04  d E =-.778339E-03  mag=     3.0000
       N       E                     dE             d eps       ncg     rms          rms(c)
DAV:   1    -0.231408979916E+04    0.10749E-01   -0.51210E-01  4408   0.592E-01    0.228E-01
RMM:   2    -0.231410006855E+04   -0.10269E-01   -0.11100E-01  5901   0.130E-01    0.122E-01
RMM:   3    -0.231410093545E+04   -0.86690E-03   -0.10660E-02  5011   0.537E-02    0.818E-02
RMM:   4    -0.231410101065E+04   -0.75200E-04   -0.11502E-03  3185   0.110E-02    0.858E-02
RMM:   5    -0.231410093312E+04    0.77526E-04   -0.12175E-04  3020   0.667E-03    0.427E-02
RMM:   6    -0.231410091921E+04    0.13911E-04   -0.98816E-05  3328   0.664E-03    0.117E-02
RMM:   7    -0.231410091839E+04    0.81658E-06   -0.12458E-05  2842   0.501E-03
  74 F= -.23345691E+04 E0= -.23345691E+04  d E =-.111793E-02  mag=     3.0000
       N       E                     dE             d eps       ncg     rms          rms(c)
DAV:   1    -0.231409491410E+04    0.60051E-02   -0.33305E-01  4432   0.479E-01    0.181E-01
RMM:   2    -0.231410130989E+04   -0.63958E-02   -0.68789E-02  6137   0.103E-01    0.965E-02
RMM:   3    -0.231410186911E+04   -0.55922E-03   -0.68585E-03  4566   0.404E-02    0.590E-02
RMM:   4    -0.231410189922E+04   -0.30113E-04   -0.69121E-04  3001   0.891E-03    0.534E-02
RMM:   5    -0.231410188202E+04    0.17202E-04   -0.69954E-05  2934   0.545E-03    0.438E-02
RMM:   6    -0.231410186651E+04    0.15516E-04   -0.62092E-05  2925   0.542E-03    0.105E-02
RMM:   7    -0.231410186656E+04   -0.54366E-07   -0.83704E-06  2854   0.396E-03
  75 F= -.23345699E+04 E0= -.23345699E+04  d E =-.867643E-03  mag=     3.0000
       N       E                     dE             d eps       ncg     rms          rms(c)
DAV:   1    -0.231409104407E+04    0.10822E-01   -0.54040E-01  4408   0.610E-01    0.231E-01
RMM:   2    -0.231410142963E+04   -0.10386E-01   -0.11165E-01  6170   0.132E-01    0.123E-01
RMM:   3    -0.231410233436E+04   -0.90473E-03   -0.11077E-02  5073   0.512E-02    0.752E-02
RMM:   4    -0.231410237353E+04   -0.39166E-04   -0.11103E-03  3151   0.110E-02    0.632E-02
RMM:   5    -0.231410235811E+04    0.15416E-04   -0.11743E-04  3024   0.681E-03    0.610E-02
RMM:   6    -0.231410232597E+04    0.32139E-04   -0.10308E-04  3113   0.677E-03    0.133E-02
RMM:   7    -0.231410232588E+04    0.87442E-07   -0.15066E-05  2869   0.462E-03
  76 F= -.23345703E+04 E0= -.23345703E+04  d E =-.122349E-02  mag=     3.0000
       N       E                     dE             d eps       ncg     rms          rms(c)
DAV:   1    -0.231409511115E+04    0.72148E-02   -0.39514E-01  4432   0.518E-01    0.198E-01
RMM:   2    -0.231410264568E+04   -0.75345E-02   -0.80843E-02  6142   0.112E-01    0.108E-01
RMM:   3    -0.231410330318E+04   -0.65750E-03   -0.81062E-03  4851   0.431E-02    0.640E-02
RMM:   4    -0.231410332652E+04   -0.23334E-04   -0.79724E-04  3082   0.903E-03    0.511E-02
RMM:   5    -0.231410331752E+04    0.89920E-05   -0.12377E-04  2959   0.680E-03    0.478E-02
RMM:   6    -0.231410330000E+04    0.17522E-04   -0.49427E-05  2914   0.565E-03    0.165E-02
RMM:   7    -0.231410329871E+04    0.12959E-05   -0.86374E-06  2845   0.386E-03
  77 F= -.23345712E+04 E0= -.23345712E+04  d E =-.892719E-03  mag=     3.0000
       N       E                     dE             d eps       ncg     rms          rms(c)
DAV:   1    -0.231409602763E+04    0.72724E-02   -0.36599E-01  4432   0.498E-01    0.191E-01
RMM:   2    -0.231410301576E+04   -0.69881E-02   -0.74876E-02  6193   0.108E-01    0.105E-01
RMM:   3    -0.231410362254E+04   -0.60677E-03   -0.74833E-03  4751   0.416E-02    0.638E-02
RMM:   4    -0.231410364909E+04   -0.26555E-04   -0.74810E-04  3057   0.883E-03    0.566E-02
RMM:   5    -0.231410362827E+04    0.20820E-04   -0.11102E-04  2929   0.643E-03    0.437E-02
RMM:   6    -0.231410361380E+04    0.14469E-04   -0.55512E-05  2935   0.549E-03    0.135E-02
RMM:   7    -0.231410361296E+04    0.84206E-06   -0.83471E-06  2838   0.428E-03
  78 F= -.23345714E+04 E0= -.23345714E+04  d E =-.112980E-02  mag=     3.0000
       N       E                     dE             d eps       ncg     rms          rms(c)
DAV:   1    -0.231409262359E+04    0.10990E-01   -0.56229E-01  4408   0.605E-01    0.238E-01
RMM:   2    -0.231410357385E+04   -0.10950E-01   -0.11729E-01  6228   0.134E-01    0.128E-01
RMM:   3    -0.231410450659E+04   -0.93275E-03   -0.11503E-02  5092   0.496E-02    0.746E-02
RMM:   4    -0.231410453739E+04   -0.30793E-04   -0.11517E-03  3198   0.105E-02    0.545E-02
RMM:   5    -0.231410451420E+04    0.23188E-04   -0.16012E-04  3242   0.784E-03    0.357E-02
RMM:   6    -0.231410451226E+04    0.19398E-05   -0.43619E-05  2911   0.582E-03
  79 F= -.23345723E+04 E0= -.23345723E+04  d E =-.872951E-03  mag=     3.0000
       N       E                     dE             d eps       ncg     rms          rms(c)
DAV:   1    -0.231410025713E+04    0.42571E-02   -0.20594E-01  4560   0.366E-01    0.146E-01
RMM:   2    -0.231410426375E+04   -0.40066E-02   -0.43207E-02  6125   0.810E-02    0.778E-02
RMM:   3    -0.231410460041E+04   -0.33666E-03   -0.41188E-03  3904   0.294E-02    0.451E-02
RMM:   4    -0.231410461359E+04   -0.13182E-04   -0.41870E-04  2956   0.691E-03    0.328E-02
RMM:   5    -0.231410460802E+04    0.55699E-05   -0.62567E-05  2896   0.514E-03
  80 F= -.23345724E+04 E0= -.23345724E+04  d E =-.953557E-03  mag=     3.0000
       N       E                     dE             d eps       ncg     rms          rms(c)
DAV:   1    -0.231409205712E+04    0.12556E-01   -0.61484E-01  4408   0.634E-01    0.257E-01
RMM:   2    -0.231410442797E+04   -0.12371E-01   -0.13269E-01  6239   0.145E-01    0.134E-01
RMM:   3    -0.231410555254E+04   -0.11246E-02   -0.13366E-02  5242   0.513E-02    0.105E-01
RMM:   4    -0.231410562905E+04   -0.76504E-04   -0.13967E-03  3082   0.115E-02    0.896E-02
RMM:   5    -0.231410554325E+04    0.85799E-04   -0.13163E-04  3072   0.672E-03    0.451E-02
RMM:   6    -0.231410553293E+04    0.10320E-04   -0.10276E-04  3236   0.707E-03    0.126E-02
RMM:   7    -0.231410553266E+04    0.26202E-06   -0.12723E-05  2836   0.502E-03
  81 F= -.23345733E+04 E0= -.23345733E+04  d E =-.891497E-03  mag=     3.0000
       N       E                     dE             d eps       ncg     rms          rms(c)
DAV:   1    -0.231409841329E+04    0.71196E-02   -0.33373E-01  4432   0.467E-01    0.188E-01
RMM:   2    -0.231410512864E+04   -0.67153E-02   -0.71908E-02  6200   0.106E-01    0.975E-02
RMM:   3    -0.231410571240E+04   -0.58376E-03   -0.71226E-03  4658   0.391E-02    0.567E-02
RMM:   4    -0.231410574234E+04   -0.29946E-04   -0.69987E-04  2967   0.842E-03    0.456E-02
RMM:   5    -0.231410574165E+04    0.69762E-06   -0.73761E-05  2937   0.541E-03
  82 F= -.23345735E+04 E0= -.23345735E+04  d E =-.107808E-02  mag=     3.0000
       N       E                     dE             d eps       ncg     rms          rms(c)
DAV:   1    -0.231409510488E+04    0.10637E-01   -0.54614E-01  4420   0.622E-01    0.250E-01
RMM:   2    -0.231410584379E+04   -0.10739E-01   -0.11542E-01  6218   0.142E-01    0.124E-01
RMM:   3    -0.231410674407E+04   -0.90029E-03   -0.10949E-02  5267   0.515E-02    0.806E-02
RMM:   4    -0.231410682800E+04   -0.83925E-04   -0.11709E-03  3201   0.115E-02    0.823E-02
RMM:   5    -0.231410676945E+04    0.58544E-04   -0.13690E-04  3041   0.747E-03    0.473E-02
RMM:   6    -0.231410675697E+04    0.12489E-04   -0.90874E-05  3269   0.704E-03    0.127E-02
RMM:   7    -0.231410675639E+04    0.57450E-06   -0.10902E-05  2843   0.486E-03
  83 F= -.23345744E+04 E0= -.23345744E+04  d E =-.896402E-03  mag=     3.0000
       N       E                     dE             d eps       ncg     rms          rms(c)
DAV:   1    -0.231410542553E+04    0.13314E-02   -0.65794E-02  4640   0.216E-01    0.874E-02
RMM:   2    -0.231410672749E+04   -0.13020E-02   -0.13987E-02  6155   0.494E-02    0.436E-02
RMM:   3    -0.231410684062E+04   -0.11313E-03   -0.13902E-03  3231   0.185E-02    0.253E-02
RMM:   4    -0.231410684625E+04   -0.56329E-05   -0.13732E-04  2882   0.462E-03    0.189E-02
RMM:   5    -0.231410684729E+04   -0.10343E-05   -0.15720E-05  2850   0.289E-03
  84 F= -.23345744E+04 E0= -.23345744E+04  d E =-.947067E-03  mag=     3.0000
       N       E                     dE             d eps       ncg     rms          rms(c)
DAV:   1    -0.231410078915E+04    0.60571E-02   -0.33502E-01  4432   0.503E-01    0.198E-01
RMM:   2    -0.231410712957E+04   -0.63404E-02   -0.67843E-02  6105   0.112E-01    0.106E-01
RMM:   3    -0.231410763733E+04   -0.50776E-03   -0.63454E-03  5035   0.398E-02    0.703E-02
RMM:   4    -0.231410765150E+04   -0.14165E-04   -0.69429E-04  3078   0.917E-03    0.620E-02
RMM:   5    -0.231410761587E+04    0.35630E-04   -0.99841E-05  2910   0.676E-03    0.341E-02
RMM:   6    -0.231410760845E+04    0.74141E-05   -0.54933E-05  3063   0.582E-03
  85 F= -.23345751E+04 E0= -.23345751E+04  d E =-.661835E-03  mag=     3.0000
       N       E                     dE             d eps       ncg     rms          rms(c)
DAV:   1    -0.231410679056E+04    0.82531E-03   -0.42413E-02  4632   0.179E-01    0.721E-02
RMM:   2    -0.231410759736E+04   -0.80680E-03   -0.87063E-03  6230   0.414E-02    0.373E-02
RMM:   3    -0.231410766382E+04   -0.66456E-04   -0.81958E-04  3084   0.146E-02    0.230E-02
RMM:   4    -0.231410766687E+04   -0.30584E-05   -0.86314E-05  2899   0.407E-03
  86 F= -.23345751E+04 E0= -.23345751E+04  d E =-.685227E-03  mag=     3.0000
       N       E                     dE             d eps       ncg     rms          rms(c)
DAV:   1    -0.231410360922E+04    0.40546E-02   -0.23352E-01  4432   0.419E-01    0.162E-01
RMM:   2    -0.231410814764E+04   -0.45384E-02   -0.47579E-02  6105   0.920E-02    0.130E-01
RMM:   3    -0.231410847320E+04   -0.32556E-03   -0.47068E-03  4621   0.356E-02    0.971E-02
RMM:   4    -0.231410840922E+04    0.63982E-04   -0.50350E-04  3049   0.856E-03    0.482E-02
RMM:   5    -0.231410838208E+04    0.27140E-04   -0.64304E-05  2911   0.562E-03    0.240E-02
RMM:   6    -0.231410838094E+04    0.11463E-05   -0.36666E-05  2902   0.524E-03
  87 F= -.23345758E+04 E0= -.23345758E+04  d E =-.667129E-03  mag=     3.0000
       N       E                     dE             d eps       ncg     rms          rms(c)
DAV:   1    -0.231409631009E+04    0.12072E-01   -0.60251E-01  4408   0.674E-01    0.262E-01
RMM:   2    -0.231410798192E+04   -0.11672E-01   -0.12388E-01  5999   0.148E-01    0.177E-01
RMM:   3    -0.231410890427E+04   -0.92235E-03   -0.11883E-02  5419   0.549E-02    0.144E-01
RMM:   4    -0.231410877878E+04    0.12549E-03   -0.13031E-03  3380   0.124E-02    0.756E-02
RMM:   5    -0.231410871121E+04    0.67572E-04   -0.14132E-04  3116   0.784E-03    0.399E-02
RMM:   6    -0.231410870319E+04    0.80229E-05   -0.10009E-04  3536   0.737E-03    0.145E-02
RMM:   7    -0.231410870196E+04    0.12264E-05   -0.12942E-05  2855   0.535E-03
  88 F= -.23345760E+04 E0= -.23345760E+04  d E =-.914762E-03  mag=     3.0000
       N       E                     dE             d eps       ncg     rms          rms(c)
DAV:   1    -0.231410622721E+04    0.24760E-02   -0.13828E-01  4528   0.313E-01    0.126E-01
RMM:   2    -0.231410907816E+04   -0.28510E-02   -0.30097E-02  6265   0.717E-02    0.949E-02
RMM:   3    -0.231410928610E+04   -0.20794E-03   -0.28840E-03  3836   0.259E-02    0.710E-02
RMM:   4    -0.231410925590E+04    0.30201E-04   -0.31363E-04  2958   0.681E-03    0.357E-02
RMM:   5    -0.231410924104E+04    0.14867E-04   -0.30143E-05  2860   0.390E-03    0.201E-02
RMM:   6    -0.231410923948E+04    0.15580E-05   -0.25651E-05  2870   0.367E-03
  89 F= -.23345765E+04 E0= -.23345765E+04  d E =-.512166E-03  mag=     3.0000
       N       E                     dE             d eps       ncg     rms          rms(c)
DAV:   1    -0.231408291191E+04    0.26329E-01   -0.12415E+00  4408   0.939E-01    0.377E-01
RMM:   2    -0.231410844407E+04   -0.25532E-01   -0.26969E-01  6175   0.213E-01    0.279E-01
RMM:   3    -0.231411049454E+04   -0.20505E-02   -0.27110E-02  5641   0.795E-02    0.223E-01
RMM:   4    -0.231411016332E+04    0.33122E-03   -0.28453E-03  4162   0.175E-02    0.107E-01
RMM:   5    -0.231411002794E+04    0.13538E-03   -0.27922E-04  3515   0.971E-03    0.598E-02
RMM:   6    -0.231411000554E+04    0.22401E-04   -0.20053E-04  3966   0.928E-03    0.216E-02
RMM:   7    -0.231411000383E+04    0.17071E-05   -0.24728E-05  2866   0.634E-03
  90 F= -.23345772E+04 E0= -.23345772E+04  d E =-.120545E-02  mag=     3.0000
       N       E                     dE             d eps       ncg     rms          rms(c)
DAV:   1    -0.231410839692E+04    0.16086E-02   -0.12352E-01  4576   0.313E-01    0.132E-01
RMM:   2    -0.231411077702E+04   -0.23801E-02   -0.25439E-02  6033   0.730E-02    0.856E-02
RMM:   3    -0.231411094631E+04   -0.16929E-03   -0.23782E-03  4202   0.274E-02    0.706E-02
RMM:   4    -0.231411091196E+04    0.34356E-04   -0.27264E-04  2978   0.723E-03    0.367E-02
RMM:   5    -0.231411089656E+04    0.15392E-04   -0.39080E-05  2866   0.505E-03    0.186E-02
RMM:   6    -0.231411089517E+04    0.13955E-05   -0.22852E-05  2894   0.454E-03
  91 F= -.23345781E+04 E0= -.23345781E+04  d E =-.862302E-03  mag=     3.0000
       N       E                     dE             d eps       ncg     rms          rms(c)
DAV:   1    -0.231410817458E+04    0.27220E-02   -0.15046E-01  4432   0.345E-01    0.145E-01
RMM:   2    -0.231411106752E+04   -0.28929E-02   -0.30860E-02  5991   0.793E-02    0.954E-02
RMM:   3    -0.231411127383E+04   -0.20632E-03   -0.28908E-03  4341   0.303E-02    0.793E-02
RMM:   4    -0.231411122808E+04    0.45759E-04   -0.32994E-04  3017   0.774E-03    0.405E-02
RMM:   5    -0.231411120817E+04    0.19901E-04   -0.47341E-05  2892   0.542E-03    0.199E-02
RMM:   6    -0.231411120556E+04    0.26193E-05   -0.27052E-05  2909   0.497E-03
  92 F= -.23345784E+04 E0= -.23345784E+04  d E =-.114181E-02  mag=     3.0000
       N       E                     dE             d eps       ncg     rms          rms(c)
DAV:   1    -0.231410970387E+04    0.15043E-02   -0.93812E-02  4544   0.265E-01    0.112E-01
RMM:   2    -0.231411160405E+04   -0.19002E-02   -0.20245E-02  6253   0.622E-02    0.706E-02
RMM:   3    -0.231411175917E+04   -0.15511E-03   -0.20282E-03  3606   0.233E-02    0.574E-02
RMM:   4    -0.231411174075E+04    0.18419E-04   -0.21383E-04  2943   0.652E-03    0.320E-02
RMM:   5    -0.231411173046E+04    0.10293E-04   -0.28114E-05  2867   0.398E-03    0.162E-02
RMM:   6    -0.231411172960E+04    0.86099E-06   -0.15104E-05  2880   0.358E-03
  93 F= -.23345789E+04 E0= -.23345789E+04  d E =-.523681E-03  mag=     3.0000
       N       E                     dE             d eps       ncg     rms          rms(c)
DAV:   1    -0.231410898488E+04    0.27456E-02   -0.13663E-01  4432   0.320E-01    0.134E-01
RMM:   2    -0.231411174019E+04   -0.27553E-02   -0.29328E-02  6204   0.742E-02    0.855E-02
RMM:   3    -0.231411197359E+04   -0.23340E-03   -0.30438E-03  3933   0.291E-02    0.687E-02
RMM:   4    -0.231411194743E+04    0.26158E-04   -0.31266E-04  2968   0.736E-03    0.385E-02
RMM:   5    -0.231411193193E+04    0.15498E-04   -0.39666E-05  2878   0.465E-03    0.196E-02
RMM:   6    -0.231411193014E+04    0.17949E-05   -0.22504E-05  2889   0.422E-03
  94 F= -.23345791E+04 E0= -.23345791E+04  d E =-.725246E-03  mag=     3.0000
       N       E                     dE             d eps       ncg     rms          rms(c)
DAV:   1    -0.231411035299E+04    0.15789E-02   -0.10648E-01  4464   0.294E-01    0.120E-01
RMM:   2    -0.231411235941E+04   -0.20064E-02   -0.21401E-02  6158   0.666E-02    0.738E-02
RMM:   3    -0.231411251965E+04   -0.16024E-03   -0.21228E-03  3883   0.254E-02    0.614E-02
RMM:   4    -0.231411249549E+04    0.24159E-04   -0.22858E-04  2958   0.677E-03    0.338E-02
RMM:   5    -0.231411248321E+04    0.12283E-04   -0.31416E-05  2854   0.436E-03    0.163E-02
RMM:   6    -0.231411248122E+04    0.19868E-05   -0.17661E-05  2880   0.397E-03
  95 F= -.23345797E+04 E0= -.23345797E+04  d E =-.600940E-03  mag=     3.0000
       N       E                     dE             d eps       ncg     rms          rms(c)
DAV:   1    -0.231410926263E+04    0.32206E-02   -0.17087E-01  4432   0.372E-01    0.152E-01
RMM:   2    -0.231411247021E+04   -0.32076E-02   -0.34210E-02  6174   0.842E-02    0.913E-02
RMM:   3    -0.231411272578E+04   -0.25557E-03   -0.33939E-03  4297   0.315E-02    0.750E-02
RMM:   4    -0.231411269117E+04    0.34616E-04   -0.36239E-04  3005   0.797E-03    0.431E-02
[...]
RMM:   3    -0.231414586529E+04   -0.12411E-03   -0.16954E-03  4222   0.289E-02    0.841E-02
RMM:   4    -0.231414581429E+04    0.51002E-04   -0.19528E-04  2962   0.777E-03    0.400E-02
RMM:   5    -0.231414579754E+04    0.16746E-04   -0.67185E-05  3159   0.657E-03    0.177E-02
RMM:   6    -0.231414579550E+04    0.20424E-05   -0.16337E-05  2876   0.522E-03
 165 F= -.23346177E+04 E0= -.23346177E+04  d E =-.487567E-03  mag=     3.0000
       N       E                     dE             d eps       ncg     rms          rms(c)
DAV:   1    -0.231414553112E+04    0.26642E-03   -0.22145E-02  4720   0.146E-01    0.501E-02
RMM:   2    -0.231414578595E+04   -0.25483E-03   -0.28453E-03  5946   0.296E-02    0.262E-02
RMM:   3    -0.231414580293E+04   -0.16982E-04   -0.25537E-04  2988   0.117E-02    0.213E-02
RMM:   4    -0.231414580261E+04    0.31969E-06   -0.30816E-05  2873   0.339E-03
 166 F= -.23346177E+04 E0= -.23346177E+04  d E =-.507376E-03  mag=     3.0000
       N       E                     dE             d eps       ncg     rms          rms(c)
DAV:   1    -0.231414469081E+04    0.11121E-02   -0.12083E-01  4408   0.338E-01    0.118E-01
RMM:   2    -0.231414607238E+04   -0.13816E-02   -0.15307E-02  5912   0.672E-02    0.686E-02
RMM:   3    -0.231414617109E+04   -0.98702E-04   -0.14295E-03  4013   0.255E-02    0.660E-02
RMM:   4    -0.231414614707E+04    0.24013E-04   -0.16516E-04  2951   0.707E-03    0.400E-02
RMM:   5    -0.231414613129E+04    0.15777E-04   -0.55920E-05  2947   0.606E-03    0.175E-02
RMM:   6    -0.231414612897E+04    0.23201E-05   -0.15127E-05  2877   0.494E-03
 167 F= -.23346181E+04 E0= -.23346181E+04  d E =-.388477E-03  mag=     3.0000
       N       E                     dE             d eps       ncg     rms          rms(c)
DAV:   1    -0.231414605706E+04    0.74231E-04   -0.47232E-03  5096   0.670E-02    0.242E-02
RMM:   2    -0.231414611203E+04   -0.54970E-04   -0.62784E-04  5157   0.145E-02    0.126E-02
RMM:   3    -0.231414611606E+04   -0.40295E-05   -0.56226E-05  2858   0.637E-03
 168 F= -.23346181E+04 E0= -.23346181E+04  d E =-.387977E-03  mag=     3.0000
       N       E                     dE             d eps       ncg     rms          rms(c)
DAV:   1    -0.231414509567E+04    0.10164E-02   -0.11824E-01  4408   0.339E-01    0.118E-01
RMM:   2    -0.231414638430E+04   -0.12886E-02   -0.14421E-02  5883   0.661E-02    0.557E-02
RMM:   3    -0.231414645788E+04   -0.73582E-04   -0.13471E-03  3942   0.243E-02    0.370E-02
RMM:   4    -0.231414647099E+04   -0.13111E-04   -0.17758E-04  3187   0.754E-03    0.487E-02
RMM:   5    -0.231414644943E+04    0.21560E-04   -0.39356E-05  2882   0.557E-03    0.188E-02
RMM:   6    -0.231414644683E+04    0.26035E-05   -0.16326E-05  2859   0.373E-03
 169 F= -.23346185E+04 E0= -.23346185E+04  d E =-.353576E-03  mag=     3.0000
       N       E                     dE             d eps       ncg     rms          rms(c)
DAV:   1    -0.231414642014E+04    0.29295E-04   -0.19786E-03  5272   0.442E-02    0.161E-02
RMM:   2    -0.231414644234E+04   -0.22199E-04   -0.25487E-04  3658   0.986E-03    0.782E-03
RMM:   3    -0.231414644414E+04   -0.18057E-05   -0.24182E-05  2764   0.550E-03
 170 F= -.23346185E+04 E0= -.23346185E+04  d E =-.353874E-03  mag=     3.0000
       N       E                     dE             d eps       ncg     rms          rms(c)
DAV:   1    -0.231414588885E+04    0.55349E-03   -0.83359E-02  4440   0.285E-01    0.992E-02
RMM:   2    -0.231414675033E+04   -0.86148E-03   -0.97301E-03  5808   0.547E-02    0.463E-02
RMM:   3    -0.231414679832E+04   -0.47990E-04   -0.93707E-04  3740   0.210E-02    0.295E-02
RMM:   4    -0.231414679451E+04    0.38103E-05   -0.11213E-04  3079   0.635E-03    0.190E-02
RMM:   5    -0.231414679520E+04   -0.68494E-06   -0.23037E-05  2881   0.481E-03
 171 F= -.23346188E+04 E0= -.23346188E+04  d E =-.327367E-03  mag=     3.0000
       N       E                     dE             d eps       ncg     rms          rms(c)
DAV:   1    -0.231414673644E+04    0.58071E-04   -0.55105E-03  5064   0.736E-02    0.278E-02
RMM:   2    -0.231414679797E+04   -0.61531E-04   -0.67895E-04  5191   0.154E-02    0.240E-02
RMM:   3    -0.231414680122E+04   -0.32461E-05   -0.63082E-05  2870   0.710E-03
 172 F= -.23346188E+04 E0= -.23346188E+04  d E =-.327191E-03  mag=     3.0000
       N       E                     dE             d eps       ncg     rms          rms(c)
DAV:   1    -0.231414625372E+04    0.54426E-03   -0.79588E-02  4408   0.278E-01    0.978E-02
RMM:   2    -0.231414706685E+04   -0.81313E-03   -0.91002E-03  5855   0.531E-02    0.486E-02
RMM:   3    -0.231414712022E+04   -0.53376E-04   -0.90854E-04  3590   0.193E-02    0.371E-02
RMM:   4    -0.231414712013E+04    0.93729E-07   -0.10310E-04  2918   0.577E-03    0.323E-02
RMM:   5    -0.231414711313E+04    0.70046E-05   -0.37060E-05  2860   0.504E-03
 173 F= -.23346191E+04 E0= -.23346191E+04  d E =-.280937E-03  mag=     3.0000
       N       E                     dE             d eps       ncg     rms          rms(c)
DAV:   1    -0.231414700495E+04    0.11518E-03   -0.10295E-02  4816   0.100E-01    0.362E-02
RMM:   2    -0.231414711310E+04   -0.10814E-03   -0.12257E-03  5557   0.209E-02    0.195E-02
RMM:   3    -0.231414712475E+04   -0.11657E-04   -0.12359E-04  2892   0.860E-03    0.273E-02
RMM:   4    -0.231414711947E+04    0.52816E-05   -0.15884E-05  2850   0.310E-03
 174 F= -.23346191E+04 E0= -.23346191E+04  d E =-.275917E-03  mag=     3.0000
       N       E                     dE             d eps       ncg     rms          rms(c)
DAV:   1    -0.231414676000E+04    0.36475E-03   -0.53849E-02  4408   0.222E-01    0.774E-02
RMM:   2    -0.231414736789E+04   -0.60789E-03   -0.67393E-03  5940   0.432E-02    0.458E-02
RMM:   3    -0.231414741698E+04   -0.49084E-04   -0.68121E-04  3309   0.170E-02    0.451E-02
RMM:   4    -0.231414740584E+04    0.11136E-04   -0.77465E-05  2895   0.520E-03    0.247E-02
RMM:   5    -0.231414739974E+04    0.61068E-05   -0.23428E-05  2853   0.401E-03
 175 F= -.23346193E+04 E0= -.23346193E+04  d E =-.259133E-03  mag=     3.0000
       N       E                     dE             d eps       ncg     rms          rms(c)
DAV:   1    -0.231414700442E+04    0.40142E-03   -0.36417E-02  4456   0.183E-01    0.640E-02
RMM:   2    -0.231414741761E+04   -0.41320E-03   -0.46503E-03  6076   0.371E-02    0.314E-02
RMM:   3    -0.231414744682E+04   -0.29205E-04   -0.46017E-04  3124   0.135E-02    0.209E-02
RMM:   4    -0.231414744639E+04    0.42995E-06   -0.48627E-05  2884   0.399E-03
 176 F= -.23346194E+04 E0= -.23346194E+04  d E =-.288214E-03  mag=     3.0000
       N       E                     dE             d eps       ncg     rms          rms(c)
DAV:   1    -0.231414690883E+04    0.53799E-03   -0.74646E-02  4440   0.263E-01    0.957E-02
RMM:   2    -0.231414778032E+04   -0.87149E-03   -0.94404E-03  5908   0.514E-02    0.796E-02
RMM:   3    -0.231414783842E+04   -0.58102E-04   -0.10222E-03  3726   0.216E-02    0.695E-02
RMM:   4    -0.231414779861E+04    0.39810E-04   -0.11456E-04  2911   0.623E-03    0.258E-02
RMM:   5    -0.231414778945E+04    0.91684E-05   -0.33236E-05  2898   0.482E-03
 177 F= -.23346197E+04 E0= -.23346197E+04  d E =-.306203E-03  mag=     3.0000
       N       E                     dE             d eps       ncg     rms          rms(c)
DAV:   1    -0.231414760035E+04    0.19827E-03   -0.18149E-02  4704   0.130E-01    0.466E-02
RMM:   2    -0.231414780863E+04   -0.20828E-03   -0.23611E-03  5921   0.274E-02    0.239E-02
RMM:   3    -0.231414782486E+04   -0.16228E-04   -0.23765E-04  2959   0.105E-02    0.187E-02
RMM:   4    -0.231414782488E+04   -0.22701E-07   -0.27078E-05  2870   0.321E-03
 178 F= -.23346197E+04 E0= -.23346197E+04  d E =-.323234E-03  mag=     3.0000
       N       E                     dE             d eps       ncg     rms          rms(c)
DAV:   1    -0.231414726700E+04    0.55785E-03   -0.78588E-02  4408   0.273E-01    0.101E-01
RMM:   2    -0.231414812645E+04   -0.85945E-03   -0.95388E-03  5890   0.529E-02    0.662E-02
RMM:   3    -0.231414820328E+04   -0.76834E-04   -0.10234E-03  3760   0.217E-02    0.708E-02
RMM:   4    -0.231414816421E+04    0.39076E-04   -0.12025E-04  2923   0.643E-03    0.284E-02
RMM:   5    -0.231414815399E+04    0.10220E-04   -0.36248E-05  2888   0.503E-03    0.121E-02
RMM:   6    -0.231414815259E+04    0.13956E-05   -0.10673E-05  2866   0.440E-03
 179 F= -.23346200E+04 E0= -.23346200E+04  d E =-.285674E-03  mag=     3.0000
       N       E                     dE             d eps       ncg     rms          rms(c)
DAV:   1    -0.231414812072E+04    0.33265E-04   -0.34585E-03  5096   0.574E-02    0.215E-02
RMM:   2    -0.231414815877E+04   -0.38051E-04   -0.43466E-04  4295   0.122E-02    0.118E-02
RMM:   3    -0.231414816270E+04   -0.39289E-05   -0.47444E-05  2849   0.655E-03
 180 F= -.23346200E+04 E0= -.23346200E+04  d E =-.286842E-03  mag=     3.0000
       N       E                     dE             d eps       ncg     rms          rms(c)
DAV:   1    -0.231414773089E+04    0.42788E-03   -0.60240E-02  4408   0.235E-01    0.887E-02
RMM:   2    -0.231414843172E+04   -0.70083E-03   -0.78674E-03  5837   0.466E-02    0.439E-02
RMM:   3    -0.231414847984E+04   -0.48119E-04   -0.80094E-04  3443   0.181E-02    0.309E-02
RMM:   4    -0.231414848062E+04   -0.78135E-06   -0.90436E-05  2913   0.536E-03
 181 F= -.23346202E+04 E0= -.23346202E+04  d E =-.280838E-03  mag=     3.0000
       N       E                     dE             d eps       ncg     rms          rms(c)
DAV:   1    -0.231414844647E+04    0.33367E-04   -0.34267E-03  5312   0.563E-02    0.320E-02
RMM:   2    -0.231414851561E+04   -0.69139E-04   -0.51110E-04  4631   0.125E-02    0.610E-02
RMM:   3    -0.231414848537E+04    0.30246E-04   -0.65382E-05  2872   0.640E-03    0.132E-02
RMM:   4    -0.231414848377E+04    0.15984E-05   -0.10098E-05  2873   0.221E-03
 182 F= -.23346202E+04 E0= -.23346202E+04  d E =-.274942E-03  mag=     3.0000
       N       E                     dE             d eps       ncg     rms          rms(c)
DAV:   1    -0.231414814828E+04    0.33709E-03   -0.52280E-02  4408   0.220E-01    0.807E-02
RMM:   2    -0.231414871645E+04   -0.56817E-03   -0.64665E-03  5863   0.433E-02    0.387E-02
RMM:   3    -0.231414875181E+04   -0.35360E-04   -0.64717E-04  3364   0.172E-02    0.254E-02
RMM:   4    -0.231414875006E+04    0.17460E-05   -0.72562E-05  2910   0.505E-03
 183 F= -.23346205E+04 E0= -.23346205E+04  d E =-.225222E-03  mag=     3.0000
       N       E                     dE             d eps       ncg     rms          rms(c)
DAV:   1    -0.231414874319E+04    0.86134E-05   -0.87284E-04  5264   0.290E-02    0.236E-02
RMM:   2    -0.231414878011E+04   -0.36912E-04   -0.17118E-04  3205   0.746E-03    0.590E-02
RMM:   3    -0.231414874911E+04    0.30998E-04   -0.37161E-05  2768   0.504E-03    0.753E-03
RMM:   4    -0.231414874842E+04    0.68474E-06   -0.63317E-06  2652   0.160E-03
 184 F= -.23346205E+04 E0= -.23346205E+04  d E =-.218142E-03  mag=     3.0000
       N       E                     dE             d eps       ncg     rms          rms(c)
DAV:   1    -0.231414851837E+04    0.23074E-03   -0.48822E-02  4440   0.220E-01    0.801E-02
RMM:   2    -0.231414897362E+04   -0.45525E-03   -0.52000E-03  5780   0.415E-02    0.364E-02
RMM:   3    -0.231414900226E+04   -0.28642E-04   -0.52399E-04  3423   0.169E-02    0.282E-02
RMM:   4    -0.231414900209E+04    0.17180E-06   -0.60742E-05  2892   0.479E-03
 185 F= -.23346207E+04 E0= -.23346207E+04  d E =-.194452E-03  mag=     3.0000
       N       E                     dE             d eps       ncg     rms          rms(c)
DAV:   1    -0.231414899429E+04    0.79715E-05   -0.11955E-03  5392   0.347E-02    0.209E-02
RMM:   2    -0.231414901935E+04   -0.25055E-04   -0.15956E-04  3238   0.777E-03    0.430E-02
RMM:   3    -0.231414900339E+04    0.15956E-04   -0.26920E-05  2707   0.482E-03    0.847E-03
RMM:   4    -0.231414900256E+04    0.83198E-06   -0.47283E-06  2630   0.167E-03
 186 F= -.23346206E+04 E0= -.23346206E+04  d E =-.185395E-03  mag=     3.0000
       N       E                     dE             d eps       ncg     rms          rms(c)
DAV:   1    -0.231414874886E+04    0.25453E-03   -0.50231E-02  4408   0.223E-01    0.799E-02
RMM:   2    -0.231414922785E+04   -0.47899E-03   -0.54332E-03  5790   0.424E-02    0.402E-02
RMM:   3    -0.231414926187E+04   -0.34022E-04   -0.54402E-04  3399   0.172E-02    0.392E-02
RMM:   4    -0.231414925446E+04    0.74159E-05   -0.64466E-05  2886   0.506E-03
 187 F= -.23346208E+04 E0= -.23346208E+04  d E =-.191938E-03  mag=     3.0000
       N       E                     dE             d eps       ncg     rms          rms(c)
DAV:   1    -0.231414924787E+04    0.14005E-04   -0.73551E-04  5280   0.274E-02    0.175E-02
RMM:   2    -0.231414926320E+04   -0.15334E-04   -0.10280E-04  3080   0.651E-03    0.345E-02
RMM:   3    -0.231414925298E+04    0.10223E-04   -0.17248E-05  2633   0.415E-03    0.789E-03
RMM:   4    -0.231414925213E+04    0.85073E-06   -0.31538E-06  2543   0.148E-03
 188 F= -.23346208E+04 E0= -.23346208E+04  d E =-.182039E-03  mag=     3.0000
       N       E                     dE             d eps       ncg     rms          rms(c)
DAV:   1    -0.231414893275E+04    0.32023E-03   -0.49093E-02  4408   0.214E-01    0.766E-02
RMM:   2    -0.231414944526E+04   -0.51251E-03   -0.57587E-03  5824   0.414E-02    0.432E-02
RMM:   3    -0.231414948447E+04   -0.39205E-04   -0.57424E-04  3352   0.166E-02    0.445E-02
RMM:   4    -0.231414947241E+04    0.12058E-04   -0.68170E-05  2880   0.511E-03    0.237E-02
RMM:   5    -0.231414946602E+04    0.63879E-05   -0.23205E-05  2865   0.408E-03
 189 F= -.23346210E+04 E0= -.23346210E+04  d E =-.168234E-03  mag=     3.0000
       N       E                     dE             d eps       ncg     rms          rms(c)
DAV:   1    -0.231414946114E+04    0.11269E-04   -0.43850E-04  5096   0.210E-02    0.926E-03
RMM:   2    -0.231414946639E+04   -0.52541E-05   -0.62566E-05  2942   0.504E-03
 190 F= -.23346210E+04 E0= -.23346210E+04  d E =-.164060E-03  mag=     3.0000
       N       E                     dE             d eps       ncg     rms          rms(c)
DAV:   1    -0.231414929603E+04    0.16511E-03   -0.35729E-02  4408   0.183E-01    0.650E-02
RMM:   2    -0.231414966740E+04   -0.37137E-03   -0.41736E-03  5936   0.362E-02    0.316E-02
RMM:   3    -0.231414969296E+04   -0.25566E-04   -0.42677E-04  3366   0.155E-02    0.226E-02
RMM:   4    -0.231414969364E+04   -0.67649E-06   -0.47391E-05  2884   0.418E-03
 191 F= -.23346212E+04 E0= -.23346212E+04  d E =-.182440E-03  mag=     3.0000
       N       E                     dE             d eps       ncg     rms          rms(c)
DAV:   1    -0.231414962312E+04    0.69848E-04   -0.98976E-03  4640   0.963E-02    0.396E-02
RMM:   2    -0.231414974401E+04   -0.12089E-03   -0.11934E-03  5543   0.195E-02    0.516E-02
RMM:   3    -0.231414973138E+04    0.12630E-04   -0.12339E-04  2899   0.880E-03    0.229E-02
RMM:   4    -0.231414972655E+04    0.48343E-05   -0.15975E-05  2867   0.296E-03
 192 F= -.23346212E+04 E0= -.23346212E+04  d E =-.191436E-03  mag=     3.0000
       N       E                     dE             d eps       ncg     rms          rms(c)
DAV:   1    -0.231414960470E+04    0.12668E-03   -0.36714E-02  4440   0.189E-01    0.677E-02
RMM:   2    -0.231414994566E+04   -0.34096E-03   -0.38755E-03  5844   0.355E-02    0.325E-02
RMM:   3    -0.231414996943E+04   -0.23762E-04   -0.39556E-04  3230   0.147E-02    0.283E-02
RMM:   4    -0.231414996790E+04    0.15296E-05   -0.46977E-05  2888   0.426E-03
 193 F= -.23346214E+04 E0= -.23346214E+04  d E =-.192141E-03  mag=     3.0000
       N       E                     dE             d eps       ncg     rms          rms(c)
DAV:   1    -0.231414991740E+04    0.52025E-04   -0.83505E-03  4776   0.900E-02    0.365E-02
RMM:   2    -0.231415000750E+04   -0.90097E-04   -0.91983E-04  5457   0.175E-02    0.427E-02
RMM:   3    -0.231415000068E+04    0.68167E-05   -0.94960E-05  2890   0.815E-03
 194 F= -.23346214E+04 E0= -.23346214E+04  d E =-.201122E-03  mag=     3.0000
       N       E                     dE             d eps       ncg     rms          rms(c)
DAV:   1    -0.231414978079E+04    0.22671E-03   -0.43046E-02  4408   0.201E-01    0.727E-02
RMM:   2    -0.231415020934E+04   -0.42855E-03   -0.47755E-03  5836   0.388E-02    0.439E-02
RMM:   3    -0.231415024112E+04   -0.31774E-04   -0.48614E-04  3196   0.146E-02    0.447E-02
RMM:   4    -0.231415022785E+04    0.13269E-04   -0.62149E-05  2883   0.503E-03    0.228E-02
RMM:   5    -0.231415022161E+04    0.62406E-05   -0.21927E-05  2858   0.399E-03
 195 F= -.23346215E+04 E0= -.23346215E+04  d E =-.155247E-03  mag=     3.0000
       N       E                     dE             d eps       ncg     rms          rms(c)
DAV:   1    -0.231415020126E+04    0.26583E-04   -0.33985E-03  5024   0.570E-02    0.208E-02
RMM:   2    -0.231415023537E+04   -0.34104E-04   -0.39522E-04  4359   0.123E-02    0.110E-02
RMM:   3    -0.231415023908E+04   -0.37081E-05   -0.42123E-05  2855   0.631E-03
 196 F= -.23346215E+04 E0= -.23346215E+04  d E =-.153880E-03  mag=     3.0000
       N       E                     dE             d eps       ncg     rms          rms(c)
DAV:   1    -0.231415010195E+04    0.13342E-03   -0.30584E-02  4408   0.167E-01    0.609E-02
RMM:   2    -0.231415042409E+04   -0.32214E-03   -0.35476E-03  5832   0.324E-02    0.404E-02
RMM:   3    -0.231415045107E+04   -0.26983E-04   -0.36784E-04  3039   0.124E-02    0.432E-02
RMM:   4    -0.231415043732E+04    0.13749E-04   -0.46225E-05  2875   0.434E-03    0.180E-02
RMM:   5    -0.231415043374E+04    0.35830E-05   -0.15475E-05  2863   0.333E-03
 197 F= -.23346217E+04 E0= -.23346217E+04  d E =-.155286E-03  mag=     3.0000
       N       E                     dE             d eps       ncg     rms          rms(c)
DAV:   1    -0.231415034491E+04    0.92413E-04   -0.11379E-02  4544   0.102E-01    0.369E-02
RMM:   2    -0.231415046341E+04   -0.11850E-03   -0.13400E-03  5627   0.211E-02    0.192E-02
RMM:   3    -0.231415047282E+04   -0.94078E-05   -0.13431E-04  2878   0.867E-03    0.173E-02
RMM:   4    -0.231415047208E+04    0.73655E-06   -0.16047E-05  2864   0.273E-03
 198 F= -.23346217E+04 E0= -.23346217E+04  d E =-.169368E-03  mag=     3.0000
       N       E                     dE             d eps       ncg     rms          rms(c)
DAV:   1    -0.231415034018E+04    0.13264E-03   -0.32869E-02  4408   0.174E-01    0.643E-02
RMM:   2    -0.231415067584E+04   -0.33567E-03   -0.37113E-03  5840   0.342E-02    0.468E-02
RMM:   3    -0.231415070314E+04   -0.27298E-04   -0.40063E-04  3130   0.139E-02    0.492E-02
RMM:   4    -0.231415068324E+04    0.19901E-04   -0.48335E-05  2878   0.459E-03    0.174E-02
RMM:   5    -0.231415067881E+04    0.44278E-05   -0.15990E-05  2865   0.348E-03
 199 F= -.23346219E+04 E0= -.23346219E+04  d E =-.171706E-03  mag=     3.0000
       N       E                     dE             d eps       ncg     rms          rms(c)
DAV:   1    -0.231415064337E+04    0.39867E-04   -0.50977E-03  4856   0.689E-02    0.254E-02
RMM:   2    -0.231415069514E+04   -0.51762E-04   -0.59499E-04  4961   0.149E-02    0.131E-02
RMM:   3    -0.231415069939E+04   -0.42541E-05   -0.60927E-05  2863   0.670E-03
 200 F= -.23346219E+04 E0= -.23346219E+04  d E =-.178312E-03  mag=     3.0000
       N       E                     dE             d eps       ncg     rms          rms(c)
DAV:   1    -0.231415061186E+04    0.83282E-04   -0.27473E-02  4408   0.161E-01    0.605E-02
RMM:   2    -0.231415088735E+04   -0.27550E-03   -0.31232E-03  5771   0.317E-02    0.289E-02
RMM:   3    -0.231415090140E+04   -0.14051E-04   -0.30200E-04  3023   0.119E-02    0.195E-02
RMM:   4    -0.231415090154E+04   -0.13900E-06   -0.40855E-05  2881   0.404E-03
 201 F= -.23346220E+04 E0= -.23346220E+04  d E =-.152294E-03  mag=     3.0000
