       N       E                     dE             d eps       ncg     rms          rms(c)
DAV:   1     0.117918225424E+05    0.11792E+05   -0.82227E+05  4640   0.138E+03
DAV:   2    -0.133005645387E+04   -0.13122E+05   -0.12644E+05  5280   0.315E+02
DAV:   3    -0.248678695225E+04   -0.11567E+04   -0.11487E+04  5520   0.980E+01
DAV:   4    -0.250873425193E+04   -0.21947E+02   -0.21866E+02  5680   0.154E+01
DAV:   5    -0.250922160871E+04   -0.48736E+00   -0.48662E+00  5920   0.212E+00    0.170E+02
RMM:   6    -0.147098251005E+04    0.10382E+04   -0.18733E+03  4490   0.375E+01    0.730E+01
RMM:   7    -0.163649090729E+04   -0.16551E+03   -0.27063E+02  5066   0.137E+01    0.528E+01
RMM:   8    -0.168204811206E+04   -0.45557E+02   -0.65479E+01  4977   0.764E+00    0.377E+01
RMM:   9    -0.181192722162E+04   -0.12988E+03   -0.66307E+01  4766   0.804E+00    0.252E+01
RMM:  10    -0.195677118080E+04   -0.14484E+03   -0.56394E+01  4873   0.676E+00    0.167E+01
RMM:  11    -0.207171795968E+04   -0.11495E+03   -0.57775E+01  4672   0.562E+00    0.132E+01
RMM:  12    -0.224528343092E+04   -0.17357E+03   -0.17148E+02  4499   0.870E+00    0.679E+00
RMM:  13    -0.228668917138E+04   -0.41406E+02   -0.41802E+01  4559   0.457E+00    0.423E+00
RMM:  14    -0.229733730905E+04   -0.10648E+02   -0.12797E+01  4688   0.289E+00    0.211E+00
RMM:  15    -0.230075846679E+04   -0.34212E+01   -0.33604E+00  4940   0.144E+00    0.143E+00
RMM:  16    -0.230130670522E+04   -0.54824E+00   -0.44376E-01  4881   0.539E-01    0.633E-01
RMM:  17    -0.230166616913E+04   -0.35946E+00   -0.10900E-01  4719   0.317E-01    0.368E-01
RMM:  18    -0.230173574569E+04   -0.69577E-01   -0.38154E-02  4597   0.159E-01    0.199E-01
RMM:  19    -0.230175641234E+04   -0.20667E-01   -0.11865E-02  4604   0.108E-01    0.131E-01
RMM:  20    -0.230177671054E+04   -0.20298E-01   -0.78812E-03  4490   0.717E-02    0.766E-02
RMM:  21    -0.230178553740E+04   -0.88269E-02   -0.31906E-03  4593   0.512E-02    0.605E-02
RMM:  22    -0.230179229099E+04   -0.67536E-02   -0.23811E-03  4546   0.356E-02    0.348E-02
RMM:  23    -0.230179553386E+04   -0.32429E-02   -0.11043E-03  4448   0.301E-02    0.234E-02
RMM:  24    -0.230179692193E+04   -0.13881E-02   -0.50566E-04  4112   0.170E-02    0.145E-02
RMM:  25    -0.230179749611E+04   -0.57418E-03   -0.17688E-04  3775   0.136E-02    0.754E-03
RMM:  26    -0.230179783935E+04   -0.34324E-03   -0.11380E-04  3710   0.836E-03    0.523E-03
RMM:  27    -0.230179793536E+04   -0.96009E-04   -0.29984E-05  3329   0.614E-03    0.341E-03
RMM:  28    -0.230179801446E+04   -0.79108E-04   -0.25076E-05  3294   0.411E-03    0.210E-03
RMM:  29    -0.230179803383E+04   -0.19366E-04   -0.89803E-06  2961   0.343E-03    0.106E-03
RMM:  30    -0.230179803799E+04   -0.41541E-05   -0.41534E-06  2533   0.221E-03
   1 F= -.23217933E+04 E0= -.23217933E+04  d E =-.222815E-09  mag=     2.0000
       N       E                     dE             d eps       ncg     rms          rms(c)
DAV:   1    -0.230176976191E+04    0.28272E-01   -0.18703E+00  4480   0.480E-01    0.353E-01
RMM:   2    -0.230177194716E+04   -0.21853E-02   -0.12806E-02  4591   0.450E-02    0.241E-01
RMM:   3    -0.230177164950E+04    0.29767E-03   -0.19448E-03  5058   0.199E-02    0.145E-01
RMM:   4    -0.230177135371E+04    0.29578E-03   -0.63524E-04  4225   0.126E-02    0.710E-02
RMM:   5    -0.230177138794E+04   -0.34229E-04   -0.21537E-04  3564   0.753E-03    0.285E-02
RMM:   6    -0.230177142530E+04   -0.37351E-04   -0.33901E-05  2948   0.415E-03    0.177E-02
RMM:   7    -0.230177143679E+04   -0.11496E-04   -0.14422E-05  2850   0.276E-03    0.721E-03
RMM:   8    -0.230177143999E+04   -0.31968E-05   -0.35517E-06  2739   0.210E-03
   2 F= -.23217679E+04 E0= -.23217679E+04  d E =-.116362E-07  mag=     2.0000
       N       E                     dE             d eps       ncg     rms          rms(c)
DAV:   1    -0.230181503660E+04   -0.43600E-01   -0.75194E+00  4480   0.951E-01    0.716E-01
RMM:   2    -0.230182383274E+04   -0.87961E-02   -0.48139E-02  4547   0.888E-02    0.469E-01
RMM:   3    -0.230182277489E+04    0.10579E-02   -0.68760E-03  5716   0.392E-02    0.280E-01
RMM:   4    -0.230182182919E+04    0.94570E-03   -0.25344E-03  4999   0.243E-02    0.142E-01
RMM:   5    -0.230182191277E+04   -0.83581E-04   -0.83066E-04  4504   0.147E-02    0.548E-02
RMM:   6    -0.230182201546E+04   -0.10269E-03   -0.12753E-04  3319   0.691E-03    0.323E-02
RMM:   7    -0.230182203680E+04   -0.21339E-04   -0.45480E-05  3040   0.458E-03    0.126E-02
RMM:   8    -0.230182204603E+04   -0.92327E-05   -0.96480E-06  2915   0.321E-03
   3 F= -.23218157E+04 E0= -.23218157E+04  d E =-.135729E-10  mag=     2.0000
       N       E                     dE             d eps       ncg     rms          rms(c)
DAV:   1    -0.230178603805E+04    0.35999E-01   -0.37925E+00  4480   0.637E-01    0.409E-01
RMM:   2    -0.230178833708E+04   -0.22990E-02   -0.14357E-02  4175   0.448E-02    0.223E-01
RMM:   3    -0.230178821952E+04    0.11756E-03   -0.17269E-03  4841   0.216E-02    0.140E-01
RMM:   4    -0.230178815971E+04    0.59815E-04   -0.67415E-04  4176   0.127E-02    0.871E-02
RMM:   5    -0.230178811553E+04    0.44178E-04   -0.22087E-04  3516   0.804E-03    0.302E-02
RMM:   6    -0.230178813372E+04   -0.18194E-04   -0.30811E-05  2931   0.386E-03    0.147E-02
RMM:   7    -0.230178813868E+04   -0.49580E-05   -0.86742E-06  2811   0.251E-03
   4 F= -.23217832E+04 E0= -.23217832E+04  d E =-.825305E-10  mag=     2.0000
       N       E                     dE             d eps       ncg     rms          rms(c)
DAV:   1    -0.230179795398E+04   -0.98203E-02   -0.74104E+00  4480   0.904E-01    0.683E-01
RMM:   2    -0.230179997578E+04   -0.20218E-02   -0.28987E-02  4594   0.665E-02    0.393E-01
RMM:   3    -0.230179964941E+04    0.32636E-03   -0.53385E-03  5647   0.321E-02    0.289E-01
RMM:   4    -0.230179878492E+04    0.86449E-03   -0.26169E-03  5034   0.234E-02    0.131E-01
RMM:   5    -0.230179870836E+04    0.76562E-04   -0.40203E-04  3800   0.108E-02    0.586E-02
RMM:   6    -0.230179873248E+04   -0.24113E-04   -0.10528E-04  3063   0.524E-03    0.395E-02
RMM:   7    -0.230179872707E+04    0.54041E-05   -0.50642E-05  3012   0.410E-03
   5 F= -.23217942E+04 E0= -.23217942E+04  d E =-.671659E-09  mag=     2.0000
       N       E                     dE             d eps       ncg     rms          rms(c)
DAV:   1    -0.230179585698E+04    0.28755E-02   -0.41685E+00  4480   0.809E-01    0.724E-01
RMM:   2    -0.230179856747E+04   -0.27105E-02   -0.36232E-02  4492   0.760E-02    0.459E-01
RMM:   3    -0.230179705856E+04    0.15089E-02   -0.59837E-03  5480   0.350E-02    0.297E-01
RMM:   4    -0.230179617134E+04    0.88722E-03   -0.32346E-03  5132   0.248E-02    0.165E-01
RMM:   5    -0.230179601469E+04    0.15665E-03   -0.79980E-04  4359   0.142E-02    0.714E-02
RMM:   6    -0.230179608681E+04   -0.72126E-04   -0.20814E-04  3311   0.668E-03    0.419E-02
RMM:   7    -0.230179609617E+04   -0.93547E-05   -0.72406E-05  3029   0.506E-03
   6 F= -.23217919E+04 E0= -.23217919E+04  d E =-.356279E-09  mag=     2.0000
       N       E                     dE             d eps       ncg     rms          rms(c)
DAV:   1    -0.230176685315E+04    0.29234E-01   -0.82876E+00  4480   0.116E+00    0.109E+00
RMM:   2    -0.230177375889E+04   -0.69057E-02   -0.73080E-02  4508   0.109E-01    0.673E-01
RMM:   3    -0.230177183419E+04    0.19247E-02   -0.13467E-02  5499   0.519E-02    0.458E-01
RMM:   4    -0.230176995537E+04    0.18788E-02   -0.72165E-03  5438   0.365E-02    0.278E-01
RMM:   5    -0.230176944173E+04    0.51364E-03   -0.24011E-03  4794   0.230E-02    0.972E-02
RMM:   6    -0.230176974814E+04   -0.30641E-03   -0.49895E-04  3834   0.995E-03    0.572E-02
RMM:   7    -0.230176979234E+04   -0.44198E-04   -0.12272E-04  3190   0.626E-03    0.295E-02
RMM:   8    -0.230176984154E+04   -0.49206E-04   -0.36435E-05  3052   0.415E-03    0.937E-03
RMM:   9    -0.230176985594E+04   -0.14399E-04   -0.69862E-06  2838   0.289E-03    0.497E-03
RMM:  10    -0.230176986448E+04   -0.85405E-05   -0.30590E-06  2697   0.180E-03
   7 F= -.23217646E+04 E0= -.23217646E+04  d E =-.684951E-10  mag=     2.0000
       N       E                     dE             d eps       ncg     rms          rms(c)
DAV:   1    -0.230179627119E+04   -0.26415E-01   -0.39834E+00  4480   0.802E-01    0.488E-01
RMM:   2    -0.230179917803E+04   -0.29068E-02   -0.28065E-02  4624   0.740E-02    0.378E-01
RMM:   3    -0.230179796543E+04    0.12126E-02   -0.35779E-03  5262   0.259E-02    0.193E-01
RMM:   4    -0.230179754558E+04    0.41985E-03   -0.12429E-03  4703   0.149E-02    0.100E-01
RMM:   5    -0.230179755464E+04   -0.90624E-05   -0.38105E-04  3452   0.927E-03    0.233E-02
RMM:   6    -0.230179755533E+04   -0.68362E-06   -0.40782E-05  2925   0.382E-03
   8 F= -.23217915E+04 E0= -.23217915E+04  d E =-.285862E-09  mag=     2.0000
       N       E                     dE             d eps       ncg     rms          rms(c)
DAV:   1    -0.230178132059E+04    0.16234E-01   -0.75901E+00  4480   0.989E-01    0.816E-01
RMM:   2    -0.230179091319E+04   -0.95926E-02   -0.54160E-02  4692   0.971E-02    0.521E-01
RMM:   3    -0.230179046634E+04    0.44685E-03   -0.86332E-03  5640   0.435E-02    0.346E-01
RMM:   4    -0.230178904618E+04    0.14202E-02   -0.37799E-03  5100   0.284E-02    0.177E-01
RMM:   5    -0.230178902394E+04    0.22241E-04   -0.12374E-03  4509   0.170E-02    0.760E-02
RMM:   6    -0.230178922682E+04   -0.20288E-03   -0.29871E-04  3477   0.866E-03    0.442E-02
RMM:   7    -0.230178927917E+04   -0.52348E-04   -0.93461E-05  3101   0.601E-03    0.215E-02
RMM:   8    -0.230178930771E+04   -0.28538E-04   -0.20625E-05  2967   0.362E-03    0.779E-03
RMM:   9    -0.230178932171E+04   -0.14003E-04   -0.52807E-06  2808   0.234E-03    0.453E-03
RMM:  10    -0.230178933086E+04   -0.91480E-05   -0.26748E-06  2723   0.184E-03
   9 F= -.23217856E+04 E0= -.23217856E+04  d E =-.184392E-09  mag=     2.0000
       N       E                     dE             d eps       ncg     rms          rms(c)
DAV:   1    -0.230179625074E+04   -0.69290E-02   -0.36785E+00  4480   0.594E-01    0.501E-01
RMM:   2    -0.230179905276E+04   -0.28020E-02   -0.21314E-02  4309   0.523E-02    0.271E-01
RMM:   3    -0.230179909334E+04   -0.40587E-04   -0.28378E-03  5110   0.256E-02    0.178E-01
RMM:   4    -0.230179886292E+04    0.23043E-03   -0.12425E-03  4627   0.164E-02    0.108E-01
RMM:   5    -0.230179879308E+04    0.69834E-04   -0.34424E-04  3676   0.942E-03    0.321E-02
RMM:   6    -0.230179883357E+04   -0.40490E-04   -0.49840E-05  2976   0.438E-03    0.198E-02
RMM:   7    -0.230179884815E+04   -0.14579E-04   -0.18031E-05  2884   0.300E-03    0.919E-03
RMM:   8    -0.230179885384E+04   -0.56874E-05   -0.47009E-06  2748   0.219E-03
  10 F= -.23217945E+04 E0= -.23217945E+04  d E =-.616150E-09  mag=     2.0000
       N       E                     dE             d eps       ncg     rms          rms(c)
DAV:   1    -0.230179136703E+04    0.74811E-02   -0.73096E+00  4480   0.805E-01    0.714E-01
RMM:   2    -0.230179655768E+04   -0.51906E-02   -0.34563E-02  4242   0.611E-02    0.382E-01
RMM:   3    -0.230179580084E+04    0.75684E-03   -0.44982E-03  4362   0.363E-02    0.200E-01
RMM:   4    -0.230179578664E+04    0.14207E-04   -0.13457E-03  4057   0.155E-02    0.783E-02
RMM:   5    -0.230179595927E+04   -0.17263E-03   -0.35356E-04  3467   0.109E-02    0.417E-02
RMM:   6    -0.230179597506E+04   -0.15793E-04   -0.77304E-05  3091   0.504E-03    0.257E-02
RMM:   7    -0.230179598603E+04   -0.10966E-04   -0.33729E-05  3035   0.386E-03    0.196E-02
RMM:   8    -0.230179598160E+04    0.44249E-05   -0.11898E-05  2859   0.311E-03
  11 F= -.23217909E+04 E0= -.23217909E+04  d E =-.713909E-10  mag=     2.0000
       N       E                     dE             d eps       ncg     rms          rms(c)
DAV:   1    -0.230176420696E+04    0.31779E-01   -0.39469E+00  4480   0.653E-01    0.581E-01
RMM:   2    -0.230176855941E+04   -0.43525E-02   -0.29713E-02  4191   0.607E-02    0.321E-01
RMM:   3    -0.230176787514E+04    0.68427E-03   -0.35704E-03  5121   0.288E-02    0.198E-01
RMM:   4    -0.230176765471E+04    0.22043E-03   -0.17571E-03  4935   0.179E-02    0.139E-01
RMM:   5    -0.230176745948E+04    0.19523E-03   -0.51882E-04  3768   0.117E-02    0.412E-02
RMM:   6    -0.230176750646E+04   -0.46983E-04   -0.11147E-04  3155   0.528E-03    0.230E-02
RMM:   7    -0.230176751521E+04   -0.87415E-05   -0.18637E-05  2849   0.342E-03
  12 F= -.23217632E+04 E0= -.23217632E+04  d E =-.147170E-07  mag=     2.0000
       N       E                     dE             d eps       ncg     rms          rms(c)
DAV:   1    -0.230179085624E+04   -0.23350E-01   -0.83865E+00  4480   0.109E+00    0.872E-01
RMM:   2    -0.230179808699E+04   -0.72307E-02   -0.58099E-02  4493   0.972E-02    0.537E-01
RMM:   3    -0.230179674762E+04    0.13394E-02   -0.89610E-03  5736   0.424E-02    0.335E-01
RMM:   4    -0.230179542799E+04    0.13196E-02   -0.41165E-03  5170   0.277E-02    0.189E-01
RMM:   5    -0.230179516331E+04    0.26468E-03   -0.12122E-03  4427   0.162E-02    0.433E-02
RMM:   6    -0.230179521669E+04   -0.53382E-04   -0.12789E-04  3245   0.594E-03    0.252E-02
RMM:   7    -0.230179522850E+04   -0.11806E-04   -0.25778E-05  2960   0.372E-03    0.124E-02
RMM:   8    -0.230179524040E+04   -0.11902E-04   -0.11139E-05  2896   0.252E-03    0.582E-03
RMM:   9    -0.230179524330E+04   -0.28987E-05   -0.29871E-06  2680   0.184E-03
  13 F= -.23217901E+04 E0= -.23217901E+04  d E =-.562770E-11  mag=     2.0000
       N       E                     dE             d eps       ncg     rms          rms(c)
DAV:   1    -0.230179133485E+04    0.39056E-02   -0.24042E+00  4480   0.614E-01    0.449E-01
RMM:   2    -0.230179363146E+04   -0.22966E-02   -0.17092E-02  4679   0.541E-02    0.320E-01
RMM:   3    -0.230179283281E+04    0.79865E-03   -0.29341E-03  5085   0.242E-02    0.186E-01
RMM:   4    -0.230179237975E+04    0.45306E-03   -0.10875E-03  4494   0.144E-02    0.786E-02
RMM:   5    -0.230179238706E+04   -0.73155E-05   -0.26811E-04  3484   0.793E-03    0.212E-02
RMM:   6    -0.230179239183E+04   -0.47658E-05   -0.20199E-05  2866   0.359E-03
  14 F= -.23217879E+04 E0= -.23217879E+04  d E =-.120346E-09  mag=     2.0000
       N       E                     dE             d eps       ncg     rms          rms(c)
DAV:   1    -0.230180206229E+04   -0.96752E-02   -0.11608E+00  4480   0.411E-01    0.412E-01
RMM:   2    -0.230180196580E+04    0.96488E-04   -0.73366E-03  4914   0.335E-02    0.277E-01
RMM:   3    -0.230180174418E+04    0.22163E-03   -0.23722E-03  4778   0.223E-02    0.199E-01
RMM:   4    -0.230180137220E+04    0.37198E-03   -0.83914E-04  4307   0.137E-02    0.770E-02
RMM:   5    -0.230180137483E+04   -0.26296E-05   -0.15035E-04  3366   0.606E-03    0.312E-02
RMM:   6    -0.230180137437E+04    0.46007E-06   -0.26637E-05  2910   0.346E-03
  15 F= -.23217963E+04 E0= -.23217963E+04  d E =-.406738E-09  mag=     2.0000
       N       E                     dE             d eps       ncg     rms          rms(c)
DAV:   1    -0.230180523909E+04   -0.38643E-02   -0.58427E-01  4640   0.289E-01    0.255E-01
RMM:   2    -0.230180543452E+04   -0.19543E-03   -0.23906E-03  3780   0.200E-02    0.154E-01
RMM:   3    -0.230180546448E+04   -0.29963E-04   -0.56488E-04  4220   0.948E-03    0.106E-01
RMM:   4    -0.230180535947E+04    0.10501E-03   -0.37645E-04  3570   0.971E-03    0.427E-02
RMM:   5    -0.230180534127E+04    0.18198E-04   -0.49375E-05  2943   0.424E-03    0.119E-02
RMM:   6    -0.230180534154E+04   -0.26927E-06   -0.79218E-06  2663   0.213E-03
  16 F= -.23218002E+04 E0= -.23218002E+04  d E =-.422005E-09  mag=     2.0000
       N       E                     dE             d eps       ncg     rms          rms(c)
DAV:   1    -0.230178691629E+04    0.18425E-01   -0.11834E+00  4640   0.418E-01    0.461E-01
RMM:   2    -0.230178668382E+04    0.23246E-03   -0.11423E-02  4932   0.394E-02    0.334E-01
RMM:   3    -0.230178562251E+04    0.10613E-02   -0.27912E-03  5321   0.223E-02    0.216E-01
RMM:   4    -0.230178521604E+04    0.40646E-03   -0.10936E-03  4364   0.152E-02    0.942E-02
RMM:   5    -0.230178514464E+04    0.71406E-04   -0.19343E-04  3352   0.636E-03    0.242E-02
RMM:   6    -0.230178514302E+04    0.16202E-05   -0.41651E-05  2945   0.382E-03
  17 F= -.23217808E+04 E0= -.23217808E+04  d E =-.117805E-09  mag=     2.0000
       N       E                     dE             d eps       ncg     rms          rms(c)
DAV:   1    -0.230180130936E+04   -0.16165E-01   -0.63967E-01  5040   0.311E-01    0.473E-01
RMM:   2    -0.230180019591E+04    0.11134E-02   -0.16828E-02  5280   0.454E-02    0.397E-01
RMM:   3    -0.230179809839E+04    0.20975E-02   -0.38766E-03  5067   0.288E-02    0.194E-01
RMM:   4    -0.230179776461E+04    0.33378E-03   -0.10443E-03  4402   0.138E-02    0.109E-01
RMM:   5    -0.230179765646E+04    0.10815E-03   -0.30026E-04  3572   0.730E-03    0.337E-02
RMM:   6    -0.230179764651E+04    0.99457E-05   -0.60856E-05  3037   0.438E-03
  18 F= -.23217927E+04 E0= -.23217927E+04  d E =-.144118E-09  mag=     2.0000
       N       E                     dE             d eps       ncg     rms          rms(c)
DAV:   1    -0.230178525957E+04    0.12397E-01   -0.12444E+00  5200   0.430E-01    0.634E-01
RMM:   2    -0.230178259808E+04    0.26615E-02   -0.29330E-02  5038   0.588E-02    0.497E-01
RMM:   3    -0.230177950761E+04    0.30905E-02   -0.61264E-03  5475   0.345E-02    0.262E-01
RMM:   4    -0.230177891534E+04    0.59227E-03   -0.20598E-03  4745   0.202E-02    0.154E-01
RMM:   5    -0.230177867605E+04    0.23929E-03   -0.59434E-04  4012   0.102E-02    0.468E-02
RMM:   6    -0.230177866312E+04    0.12932E-04   -0.11612E-04  3251   0.566E-03    0.148E-02
RMM:   7    -0.230177866634E+04   -0.32223E-05   -0.16568E-05  2844   0.326E-03
  19 F= -.23217741E+04 E0= -.23217741E+04  d E =-.347390E-09  mag=     2.0000
       N       E                     dE             d eps       ncg     rms          rms(c)
DAV:   1    -0.230180515619E+04   -0.26493E-01   -0.59863E-01  4880   0.329E-01    0.352E-01
RMM:   2    -0.230180503007E+04    0.12612E-03   -0.80464E-03  4944   0.350E-02    0.297E-01
RMM:   3    -0.230180394885E+04    0.10812E-02   -0.22905E-03  4672   0.220E-02    0.155E-01
RMM:   4    -0.230180371506E+04    0.23379E-03   -0.60891E-04  3967   0.991E-03    0.632E-02
RMM:   5    -0.230180369487E+04    0.20196E-04   -0.10532E-04  3040   0.508E-03    0.195E-02
RMM:   6    -0.230180369476E+04    0.11164E-06   -0.30907E-05  2852   0.334E-03
  20 F= -.23217985E+04 E0= -.23217985E+04  d E =-.168044E-09  mag=     2.0000
       N       E                     dE             d eps       ncg     rms          rms(c)
DAV:   1    -0.230178930300E+04    0.14392E-01   -0.11569E+00  4480   0.398E-01    0.402E-01
RMM:   2    -0.230178902406E+04    0.27894E-03   -0.75749E-03  4515   0.310E-02    0.267E-01
RMM:   3    -0.230178871286E+04    0.31119E-03   -0.18693E-03  4802   0.187E-02    0.181E-01
RMM:   4    -0.230178853867E+04    0.17419E-03   -0.97142E-04  4288   0.136E-02    0.936E-02
RMM:   5    -0.230178845158E+04    0.87096E-04   -0.18393E-04  3329   0.669E-03    0.203E-02
RMM:   6    -0.230178844997E+04    0.16067E-05   -0.32461E-05  2848   0.304E-03
  21 F= -.23217841E+04 E0= -.23217841E+04  d E =-.283067E-09  mag=     2.0000
       N       E                     dE             d eps       ncg     rms          rms(c)
DAV:   1    -0.230179139575E+04   -0.29442E-02   -0.58236E-01  4480   0.284E-01    0.276E-01
RMM:   2    -0.230179125349E+04    0.14226E-03   -0.26746E-03  3874   0.183E-02    0.168E-01
RMM:   3    -0.230179109479E+04    0.15871E-03   -0.58168E-04  3868   0.107E-02    0.900E-02
RMM:   4    -0.230179112092E+04   -0.26127E-04   -0.30391E-04  3625   0.803E-03    0.564E-02
RMM:   5    -0.230179107569E+04    0.45221E-04   -0.78904E-05  3055   0.531E-03    0.176E-02
RMM:   6    -0.230179107624E+04   -0.54238E-06   -0.18324E-05  2716   0.260E-03
  22 F= -.23217865E+04 E0= -.23217865E+04  d E =-.183966E-09  mag=     2.0000
       N       E                     dE             d eps       ncg     rms          rms(c)
DAV:   1    -0.230180387237E+04   -0.12797E-01   -0.11748E+00  4480   0.405E-01    0.399E-01
RMM:   2    -0.230180397735E+04   -0.10498E-03   -0.46339E-03  4258   0.273E-02    0.248E-01
RMM:   3    -0.230180408313E+04   -0.10578E-03   -0.18827E-03  5118   0.171E-02    0.205E-01
RMM:   4    -0.230180350477E+04    0.57836E-03   -0.10339E-03  4297   0.157E-02    0.452E-02
RMM:   5    -0.230180352181E+04   -0.17037E-04   -0.98751E-05  3172   0.521E-03    0.235E-02
RMM:   6    -0.230180352340E+04   -0.15951E-05   -0.17280E-05  2800   0.293E-03
  23 F= -.23217986E+04 E0= -.23217986E+04  d E =-.282826E-09  mag=     2.0000
       N       E                     dE             d eps       ncg     rms          rms(c)
DAV:   1    -0.230179848162E+04    0.50402E-02   -0.60984E-01  4480   0.289E-01    0.380E-01
RMM:   2    -0.230179757612E+04    0.90550E-03   -0.81350E-03  4759   0.310E-02    0.278E-01
RMM:   3    -0.230179693750E+04    0.63862E-03   -0.17850E-03  4678   0.190E-02    0.156E-01
RMM:   4    -0.230179682645E+04    0.11105E-03   -0.78800E-04  4220   0.120E-02    0.107E-01
RMM:   5    -0.230179670869E+04    0.11776E-03   -0.24272E-04  3481   0.756E-03    0.351E-02
RMM:   6    -0.230179670174E+04    0.69478E-05   -0.59794E-05  2969   0.388E-03
  24 F= -.23217913E+04 E0= -.23217913E+04  d E =-.212388E-09  mag=     2.0000
       N       E                     dE             d eps       ncg     rms          rms(c)
DAV:   1    -0.230178438660E+04    0.12322E-01   -0.12397E+00  4960   0.429E-01    0.664E-01
RMM:   2    -0.230178099667E+04    0.33899E-02   -0.32588E-02  5155   0.617E-02    0.522E-01
RMM:   3    -0.230177758751E+04    0.34092E-02   -0.70201E-03  5439   0.373E-02    0.261E-01
RMM:   4    -0.230177700921E+04    0.57830E-03   -0.22541E-03  4822   0.194E-02    0.164E-01
RMM:   5    -0.230177671623E+04    0.29298E-03   -0.67725E-04  4175   0.106E-02    0.541E-02
RMM:   6    -0.230177667741E+04    0.38824E-04   -0.13700E-04  3269   0.541E-03    0.171E-02
RMM:   7    -0.230177667333E+04    0.40776E-05   -0.23421E-05  2836   0.355E-03
  25 F= -.23217726E+04 E0= -.23217726E+04  d E =-.234830E-09  mag=     2.0000
