       N       E                     dE             d eps       ncg     rms          rms(c)
DAV:   1     0.131606841705E+05    0.13161E+05   -0.83898E+05  4496   0.145E+03
DAV:   2    -0.981946998600E+03   -0.14143E+05   -0.13509E+05  4912   0.332E+02
DAV:   3    -0.246610685936E+04   -0.14842E+04   -0.14658E+04  5472   0.116E+02
DAV:   4    -0.251321572782E+04   -0.47109E+02   -0.46846E+02  6664   0.299E+01
DAV:   5    -0.251409784913E+04   -0.88212E+00   -0.88010E+00  6232   0.359E+00    0.170E+02
RMM:   6    -0.149454666225E+04    0.10196E+04   -0.19361E+03  4444   0.383E+01    0.733E+01
RMM:   7    -0.166718255576E+04   -0.17264E+03   -0.31348E+02  5239   0.146E+01    0.566E+01
RMM:   8    -0.170434313355E+04   -0.37161E+02   -0.80385E+01  5243   0.840E+00    0.448E+01
RMM:   9    -0.177173031887E+04   -0.67387E+02   -0.64701E+01  5025   0.778E+00    0.339E+01
RMM:  10    -0.190235808261E+04   -0.13063E+03   -0.65617E+01  4958   0.795E+00    0.226E+01
RMM:  11    -0.198962787535E+04   -0.87270E+02   -0.35397E+01  4837   0.537E+00    0.215E+01
RMM:  12    -0.205521874970E+04   -0.65591E+02   -0.25980E+01  5083   0.417E+00    0.161E+01
RMM:  13    -0.211581370588E+04   -0.60595E+02   -0.25069E+01  5059   0.405E+00    0.136E+01
RMM:  14    -0.222108292801E+04   -0.10527E+03   -0.81622E+01  4520   0.640E+00    0.118E+01
RMM:  15    -0.227345864999E+04   -0.52376E+02   -0.45663E+01  4874   0.505E+00    0.597E+00
RMM:  16    -0.229425663000E+04   -0.20798E+02   -0.19816E+01  4813   0.328E+00    0.363E+00
RMM:  17    -0.230166698743E+04   -0.74104E+01   -0.71551E+00  4769   0.188E+00    0.319E+00
RMM:  18    -0.230262457868E+04   -0.95759E+00   -0.94558E-01  5430   0.843E-01    0.343E+00
RMM:  19    -0.230274339228E+04   -0.11881E+00   -0.14805E-01  5740   0.222E-01    0.333E+00
RMM:  20    -0.230289246366E+04   -0.14907E+00   -0.40859E-02  4965   0.132E-01    0.322E+00
RMM:  21    -0.230424650497E+04   -0.13540E+01   -0.63948E-01  4448   0.428E-01    0.494E+00
RMM:  22    -0.230422939165E+04    0.17113E-01   -0.33526E-02  4861   0.163E-01    0.484E+00
RMM:  23    -0.230429774962E+04   -0.68358E-01   -0.18631E-02  4653   0.645E-02    0.505E+00
RMM:  24    -0.230429826259E+04   -0.51297E-03   -0.16849E-03  4420   0.372E-02    0.504E+00
RMM:  25    -0.230442768105E+04   -0.12942E+00   -0.43693E-01  4635   0.324E-01    0.381E+00
RMM:  26    -0.230471442176E+04   -0.28674E+00   -0.15827E-01  4596   0.265E-01    0.483E+00
RMM:  27    -0.230464084365E+04    0.73578E-01   -0.14821E-01  5311   0.212E-01    0.631E+00
RMM:  28    -0.230476631355E+04   -0.12547E+00   -0.41057E-02  5209   0.103E-01    0.539E+00
RMM:  29    -0.230511828884E+04   -0.35198E+00   -0.19903E-01  4749   0.236E-01    0.309E+00
RMM:  30    -0.230522825868E+04   -0.10997E+00   -0.46891E-02  4678   0.154E-01    0.274E+00
RMM:  31    -0.230530061944E+04   -0.72361E-01   -0.46885E-02  5427   0.126E-01    0.231E+00
RMM:  32    -0.230534255735E+04   -0.41938E-01   -0.24645E-02  4956   0.947E-02    0.319E+00
RMM:  33    -0.230536383133E+04   -0.21274E-01   -0.83615E-03  5438   0.482E-02    0.377E+00
RMM:  34    -0.230533195759E+04    0.31874E-01   -0.14091E-02  4900   0.557E-02    0.262E+00
RMM:  35    -0.230532571667E+04    0.62409E-02   -0.12775E-02  4547   0.619E-02    0.219E+00
RMM:  36    -0.230528385799E+04    0.41859E-01   -0.38454E-02  5135   0.909E-02    0.303E+00
RMM:  37    -0.230527565640E+04    0.82016E-02   -0.37167E-03  4788   0.379E-02    0.319E+00
RMM:  38    -0.230528269259E+04   -0.70362E-02   -0.49585E-04  3953   0.895E-03    0.307E+00
RMM:  39    -0.230532073393E+04   -0.38041E-01   -0.95385E-03  4940   0.414E-02    0.241E+00
RMM:  40    -0.230540279671E+04   -0.82063E-01   -0.57048E-02  5068   0.104E-01    0.378E+00
RMM:  41    -0.230544799554E+04   -0.45199E-01   -0.18014E-02  4930   0.675E-02    0.438E+00
RMM:  42    -0.230543163261E+04    0.16363E-01   -0.14783E-03  4674   0.185E-02    0.428E+00
RMM:  43    -0.230542989131E+04    0.17413E-02   -0.18770E-04  2989   0.644E-03    0.428E+00
RMM:  44    -0.230542866070E+04    0.12306E-02   -0.21510E-05  2923   0.308E-03    0.427E+00
RMM:  45    -0.230539598494E+04    0.32676E-01   -0.55500E-03  4873   0.316E-02    0.362E+00
RMM:  46    -0.230533716428E+04    0.58821E-01   -0.44951E-02  5121   0.930E-02    0.256E+00
RMM:  47    -0.230530897303E+04    0.28191E-01   -0.16545E-02  4938   0.649E-02    0.307E+00
RMM:  48    -0.230522754144E+04    0.81432E-01   -0.40227E-02  5524   0.831E-02    0.449E+00
RMM:  49    -0.230523549557E+04   -0.79541E-02   -0.17599E-03  3991   0.291E-02    0.437E+00
RMM:  50    -0.230522997313E+04    0.55224E-02   -0.49002E-04  3699   0.784E-03    0.444E+00
RMM:  51    -0.230525525344E+04   -0.25280E-01   -0.29448E-03  4769   0.253E-02    0.399E+00
RMM:  52    -0.230532873615E+04   -0.73483E-01   -0.43498E-02  5308   0.931E-02    0.247E+00
RMM:  53    -0.230539504315E+04   -0.66307E-01   -0.64995E-02  5415   0.113E-01    0.289E+00
RMM:  54    -0.230550034025E+04   -0.10530E+00   -0.66083E-02  5380   0.107E-01    0.394E+00
RMM:  55    -0.230552550045E+04   -0.25160E-01   -0.10807E-02  5173   0.518E-02    0.368E+00
RMM:  56    -0.230552057065E+04    0.49298E-02   -0.11347E-03  4122   0.118E-02    0.375E+00
RMM:  57    -0.230552263475E+04   -0.20641E-02   -0.72425E-05  3041   0.653E-03    0.372E+00
RMM:  58    -0.230552814020E+04   -0.55054E-02   -0.13326E-04  3126   0.554E-03    0.365E+00
RMM:  59    -0.230552683279E+04    0.13074E-02   -0.95314E-06  2855   0.328E-03    0.367E+00
RMM:  60    -0.230553168190E+04   -0.48491E-02   -0.79945E-05  2894   0.400E-03    0.360E+00
RMM:  61    -0.230553296840E+04   -0.12865E-02   -0.58531E-05  3099   0.521E-03    0.358E+00
RMM:  62    -0.230554817630E+04   -0.15208E-01   -0.99895E-04  4419   0.141E-02    0.334E+00
RMM:  63    -0.230554102657E+04    0.71497E-02   -0.21230E-04  3357   0.762E-03    0.347E+00
RMM:  64    -0.230553958954E+04    0.14370E-02   -0.90155E-05  3009   0.571E-03    0.351E+00
RMM:  65    -0.230553541805E+04    0.41715E-02   -0.42243E-04  4014   0.962E-03    0.363E+00
RMM:  66    -0.230559630087E+04   -0.60883E-01   -0.15272E-02  5204   0.506E-02    0.259E+00
RMM:  67    -0.230559354952E+04    0.27514E-02   -0.85587E-04  3929   0.192E-02    0.274E+00
RMM:  68    -0.230562694640E+04   -0.33397E-01   -0.78519E-03  5181   0.350E-02    0.200E+00
RMM:  69    -0.230561337946E+04    0.13567E-01   -0.24683E-03  4981   0.225E-02    0.246E+00
RMM:  70    -0.230564740898E+04   -0.34030E-01   -0.91928E-03  5134   0.397E-02    0.161E+00
RMM:  71    -0.230566440066E+04   -0.16992E-01   -0.73687E-03  4912   0.382E-02    0.104E+00
RMM:  72    -0.230566325003E+04    0.11506E-02   -0.56170E-04  3909   0.124E-02    0.116E+00
RMM:  73    -0.230566862208E+04   -0.53720E-02   -0.10763E-03  4722   0.133E-02    0.953E-01
RMM:  74    -0.230567365067E+04   -0.50286E-02   -0.15757E-03  4459   0.165E-02    0.745E-01
RMM:  75    -0.230567591662E+04   -0.22659E-02   -0.67805E-04  3623   0.119E-02    0.616E-01
RMM:  76    -0.230567671947E+04   -0.80285E-03   -0.31068E-04  3392   0.811E-03    0.604E-01
RMM:  77    -0.230568010572E+04   -0.33863E-02   -0.26878E-03  5024   0.215E-02    0.198E-01
RMM:  78    -0.230568081822E+04   -0.71250E-03   -0.13402E-03  4301   0.164E-02    0.613E-02
RMM:  79    -0.230568087632E+04   -0.58105E-04   -0.30975E-04  3402   0.782E-03    0.550E-02
RMM:  80    -0.230568090272E+04   -0.26400E-04   -0.72906E-05  2899   0.518E-03    0.134E-02
RMM:  81    -0.230568090776E+04   -0.50423E-05   -0.18507E-05  2795   0.312E-03
   1 F= -.23268625E+04 E0= -.23268625E+04  d E =-.232686E+04  mag=     1.9767
       N       E                     dE             d eps       ncg     rms          rms(c)
DAV:   1    -0.230590755054E+04   -0.22665E+00   -0.40054E+01  4592   0.383E+00    0.188E+00
RMM:   2    -0.230645857722E+04   -0.55103E+00   -0.55872E+00  6582   0.105E+00    0.222E+00
RMM:   3    -0.230643877935E+04    0.19798E-01   -0.63894E-01  6198   0.409E-01    0.152E+00
RMM:   4    -0.230641402618E+04    0.24753E-01   -0.64329E-02  6257   0.976E-02    0.655E-01
RMM:   5    -0.230640974507E+04    0.42811E-02   -0.71640E-03  5404   0.344E-02    0.429E-01
RMM:   6    -0.230641327205E+04   -0.35270E-02   -0.82673E-03  5941   0.394E-02    0.808E-01
RMM:   7    -0.230640763278E+04    0.56393E-02   -0.55135E-03  6014   0.354E-02    0.161E-01
RMM:   8    -0.230640756718E+04    0.65606E-04   -0.12638E-03  4925   0.173E-02    0.139E-01
RMM:   9    -0.230640727299E+04    0.29419E-03   -0.28399E-04  4091   0.968E-03    0.460E-02
RMM:  10    -0.230640723053E+04    0.42465E-04   -0.10971E-04  3091   0.687E-03    0.186E-02
RMM:  11    -0.230640723019E+04    0.33437E-06   -0.30286E-05  2974   0.466E-03
   2 F= -.23275879E+04 E0= -.23275879E+04  d E =-.725398E+00  mag=     1.9958
       N       E                     dE             d eps       ncg     rms          rms(c)
DAV:   1    -0.230514242964E+04    0.12648E+01   -0.13181E+02  4480   0.711E+00    0.301E+00
RMM:   2    -0.230694211095E+04   -0.17997E+01   -0.19531E+01  6598   0.199E+00    0.230E+00
RMM:   3    -0.230702596891E+04   -0.83858E-01   -0.20684E+00  6140   0.707E-01    0.199E+00
RMM:   4    -0.230699727066E+04    0.28698E-01   -0.20859E-01  6449   0.158E-01    0.129E+00
RMM:   5    -0.230697960787E+04    0.17663E-01   -0.32757E-02  5722   0.789E-02    0.806E-01
RMM:   6    -0.230699090313E+04   -0.11295E-01   -0.34106E-02  6179   0.783E-02    0.138E+00
RMM:   7    -0.230697243687E+04    0.18466E-01   -0.11026E-02  5748   0.503E-02    0.212E-01
RMM:   8    -0.230697262263E+04   -0.18575E-03   -0.33902E-03  5457   0.304E-02    0.258E-01
RMM:   9    -0.230697161173E+04    0.10109E-02   -0.12777E-03  5354   0.189E-02    0.928E-02
RMM:  10    -0.230697146840E+04    0.14333E-03   -0.34043E-04  3966   0.115E-02    0.272E-02
RMM:  11    -0.230697145436E+04    0.14037E-04   -0.98064E-05  3327   0.643E-03    0.163E-02
RMM:  12    -0.230697145525E+04   -0.88694E-06   -0.30340E-05  3048   0.576E-03
   3 F= -.23281526E+04 E0= -.23281526E+04  d E =-.129011E+01  mag=     1.9995
       N       E                     dE             d eps       ncg     rms          rms(c)
DAV:   1    -0.230693690611E+04    0.34548E-01   -0.32238E+00  4656   0.111E+00    0.490E-01
RMM:   2    -0.230697880251E+04   -0.41896E-01   -0.45454E-01  6565   0.310E-01    0.401E-01
RMM:   3    -0.230698268945E+04   -0.38869E-02   -0.54777E-02  6040   0.116E-01    0.441E-01
RMM:   4    -0.230698078826E+04    0.19012E-02   -0.48995E-03  4595   0.282E-02    0.183E-01
RMM:   5    -0.230698068668E+04    0.10159E-03   -0.91203E-04  4400   0.142E-02    0.194E-01
RMM:   6    -0.230698053683E+04    0.14985E-03   -0.66703E-04  4195   0.127E-02    0.157E-01
RMM:   7    -0.230698030251E+04    0.23432E-03   -0.39417E-04  4546   0.103E-02    0.535E-02
RMM:   8    -0.230698027253E+04    0.29979E-04   -0.98843E-05  2950   0.688E-03    0.315E-02
RMM:   9    -0.230698025670E+04    0.15837E-04   -0.21999E-05  2900   0.386E-03    0.107E-02
RMM:  10    -0.230698025297E+04    0.37221E-05   -0.12903E-05  2881   0.290E-03
   4 F= -.23281613E+04 E0= -.23281613E+04  d E =-.129875E+01  mag=     1.9999
       N       E                     dE             d eps       ncg     rms          rms(c)
DAV:   1    -0.230629656549E+04    0.68369E+00   -0.38308E+01  4512   0.549E+00    0.230E+00
RMM:   2    -0.230722191116E+04   -0.92535E+00   -0.90264E+00  6413   0.149E+00    0.357E+00
RMM:   3    -0.230724500792E+04   -0.23097E-01   -0.11032E+00  6268   0.569E-01    0.235E+00
RMM:   4    -0.230718548465E+04    0.59523E-01   -0.97794E-02  5752   0.145E-01    0.120E+00
RMM:   5    -0.230717922424E+04    0.62604E-02   -0.18270E-02  5704   0.716E-02    0.114E+00
RMM:   6    -0.230716716863E+04    0.12056E-01   -0.20042E-02  5416   0.733E-02    0.524E-01
RMM:   7    -0.230716548710E+04    0.16815E-02   -0.12265E-02  5643   0.649E-02    0.402E-01
RMM:   8    -0.230716353205E+04    0.19550E-02   -0.27951E-03  5741   0.324E-02    0.128E-01
RMM:   9    -0.230716340059E+04    0.13146E-03   -0.33573E-04  4471   0.166E-02    0.575E-02
RMM:  10    -0.230716343608E+04   -0.35492E-04   -0.28945E-04  4485   0.107E-02    0.250E-02
RMM:  11    -0.230716346056E+04   -0.24479E-04   -0.48497E-05  3407   0.723E-03    0.162E-02
RMM:  12    -0.230716347631E+04   -0.15750E-04   -0.35804E-05  3237   0.521E-03    0.674E-03
RMM:  13    -0.230716348837E+04   -0.12057E-04   -0.15797E-05  2898   0.485E-03    0.462E-03
RMM:  14    -0.230716349658E+04   -0.82087E-05   -0.95703E-06  2834   0.384E-03
   5 F= -.23283480E+04 E0= -.23283480E+04  d E =-.186755E+00  mag=     2.0000
       N       E                     dE             d eps       ncg     rms          rms(c)
DAV:   1    -0.230716299408E+04    0.49429E-03   -0.35722E-02  5256   0.167E-01    0.768E-02
RMM:   2    -0.230716401824E+04   -0.10242E-02   -0.88244E-03  6431   0.478E-02    0.137E-01
RMM:   3    -0.230716382995E+04    0.18829E-03   -0.98781E-04  3382   0.184E-02    0.495E-02
RMM:   4    -0.230716380823E+04    0.21713E-04   -0.97885E-05  2963   0.564E-03    0.333E-02
RMM:   5    -0.230716380516E+04    0.30721E-05   -0.19825E-05  2838   0.318E-03
   6 F= -.23283482E+04 E0= -.23283482E+04  d E =-.186951E+00  mag=     2.0000
       N       E                     dE             d eps       ncg     rms          rms(c)
DAV:   1    -0.230678030160E+04    0.38351E+00   -0.19763E+01  4528   0.423E+00    0.181E+00
RMM:   2    -0.230726683516E+04   -0.48653E+00   -0.46272E+00  6410   0.111E+00    0.262E+00
RMM:   3    -0.230725718081E+04    0.96543E-02   -0.53818E-01  6266   0.424E-01    0.161E+00
RMM:   4    -0.230722976672E+04    0.27414E-01   -0.52056E-02  5668   0.108E-01    0.946E-01
RMM:   5    -0.230722460408E+04    0.51626E-02   -0.10516E-02  5461   0.557E-02    0.741E-01
RMM:   6    -0.230722081470E+04    0.37894E-02   -0.11465E-02  5379   0.549E-02    0.476E-01
RMM:   7    -0.230721787763E+04    0.29371E-02   -0.65266E-03  5729   0.490E-02    0.225E-01
RMM:   8    -0.230721729780E+04    0.57983E-03   -0.11668E-03  5611   0.205E-02    0.778E-02
RMM:   9    -0.230721716590E+04    0.13190E-03   -0.18490E-04  4252   0.111E-02    0.427E-02
RMM:  10    -0.230721710562E+04    0.60275E-04   -0.12912E-04  4079   0.818E-03    0.280E-02
RMM:  11    -0.230721708185E+04    0.23776E-04   -0.59659E-05  3594   0.676E-03    0.140E-02
RMM:  12    -0.230721707865E+04    0.31999E-05   -0.24411E-05  3028   0.550E-03
   7 F= -.23284032E+04 E0= -.23284032E+04  d E =-.549967E-01  mag=     2.0000
       N       E                     dE             d eps       ncg     rms          rms(c)
DAV:   1    -0.230720349882E+04    0.13583E-01   -0.78330E-01  4736   0.845E-01    0.385E-01
RMM:   2    -0.230722578392E+04   -0.22285E-01   -0.19596E-01  6445   0.234E-01    0.612E-01
RMM:   3    -0.230722183422E+04    0.39497E-02   -0.20453E-02  6133   0.845E-02    0.235E-01
RMM:   4    -0.230722118590E+04    0.64832E-03   -0.20827E-03  4656   0.208E-02    0.133E-01
RMM:   5    -0.230722122284E+04   -0.36944E-04   -0.45193E-04  3690   0.133E-02    0.179E-01
RMM:   6    -0.230722098022E+04    0.24262E-03   -0.40865E-04  4678   0.117E-02    0.747E-02
RMM:   7    -0.230722092470E+04    0.55517E-04   -0.20698E-04  3563   0.108E-02    0.482E-02
RMM:   8    -0.230722089171E+04    0.32994E-04   -0.55840E-05  3021   0.565E-03    0.131E-02
RMM:   9    -0.230722088773E+04    0.39833E-05   -0.12153E-05  2897   0.436E-03
   8 F= -.23284067E+04 E0= -.23284067E+04  d E =-.584502E-01  mag=     2.0000
       N       E                     dE             d eps       ncg     rms          rms(c)
DAV:   1    -0.230719669166E+04    0.24200E-01   -0.25020E+00  4512   0.135E+00    0.557E-01
RMM:   2    -0.230724422790E+04   -0.47536E-01   -0.45516E-01  6497   0.356E-01    0.782E-01
RMM:   3    -0.230724147069E+04    0.27572E-02   -0.48360E-02  6343   0.129E-01    0.453E-01
RMM:   4    -0.230724021521E+04    0.12555E-02   -0.53995E-03  5846   0.348E-02    0.346E-01
RMM:   5    -0.230723923230E+04    0.98291E-03   -0.11986E-03  4441   0.180E-02    0.175E-01
RMM:   6    -0.230723929067E+04   -0.58375E-04   -0.13067E-03  5372   0.180E-02    0.202E-01
RMM:   7    -0.230723880030E+04    0.49037E-03   -0.74446E-04  4937   0.161E-02    0.475E-02
RMM:   8    -0.230723876668E+04    0.33619E-04   -0.10033E-04  3316   0.656E-03    0.201E-02
RMM:   9    -0.230723875995E+04    0.67372E-05   -0.21811E-05  2937   0.503E-03
   9 F= -.23284250E+04 E0= -.23284250E+04  d E =-.183560E-01  mag=     2.0000
       N       E                     dE             d eps       ncg     rms          rms(c)
DAV:   1    -0.230722114803E+04    0.17619E-01   -0.12469E+00  4512   0.955E-01    0.389E-01
RMM:   2    -0.230724456663E+04   -0.23419E-01   -0.22795E-01  6480   0.253E-01    0.524E-01
RMM:   3    -0.230724360187E+04    0.96476E-03   -0.24309E-02  6279   0.933E-02    0.326E-01
RMM:   4    -0.230724307873E+04    0.52314E-03   -0.27873E-03  5611   0.251E-02    0.268E-01
RMM:   5    -0.230724246512E+04    0.61361E-03   -0.61844E-04  3522   0.133E-02    0.111E-01
RMM:   6    -0.230724247921E+04   -0.14090E-04   -0.65146E-04  5106   0.136E-02    0.131E-01
RMM:   7    -0.230724227511E+04    0.20410E-03   -0.34743E-04  4127   0.121E-02    0.366E-02
RMM:   8    -0.230724225576E+04    0.19351E-04   -0.53508E-05  3116   0.527E-03    0.160E-02
RMM:   9    -0.230724225162E+04    0.41359E-05   -0.13076E-05  2897   0.428E-03
  10 F= -.23284289E+04 E0= -.23284289E+04  d E =-.221914E-01  mag=     2.0000
       N       E                     dE             d eps       ncg     rms          rms(c)
DAV:   1    -0.230724066859E+04    0.15872E-02   -0.13539E+00  4512   0.967E-01    0.364E-01
RMM:   2    -0.230725630033E+04   -0.15632E-01   -0.15564E-01  6407   0.222E-01    0.478E-01
RMM:   3    -0.230725681241E+04   -0.51208E-03   -0.16254E-02  6229   0.814E-02    0.441E-01
RMM:   4    -0.230725549660E+04    0.13158E-02   -0.21092E-03  5405   0.241E-02    0.197E-01
RMM:   5    -0.230725513062E+04    0.36598E-03   -0.62122E-04  3618   0.141E-02    0.941E-02
RMM:   6    -0.230725509150E+04    0.39117E-04   -0.41901E-04  4627   0.125E-02    0.830E-02
RMM:   7    -0.230725503223E+04    0.59271E-04   -0.15673E-04  3082   0.104E-02    0.389E-02
RMM:   8    -0.230725501584E+04    0.16387E-04   -0.22668E-05  2935   0.396E-03    0.139E-02
RMM:   9    -0.230725501542E+04    0.42593E-06   -0.10341E-05  2905   0.316E-03
  11 F= -.23284422E+04 E0= -.23284422E+04  d E =-.133788E-01  mag=     2.0000
       N       E                     dE             d eps       ncg     rms          rms(c)
DAV:   1    -0.230720953769E+04    0.45478E-01   -0.53668E+00  4480   0.192E+00    0.723E-01
RMM:   2    -0.230727152554E+04   -0.61988E-01   -0.61723E-01  6389   0.440E-01    0.971E-01
RMM:   3    -0.230727375724E+04   -0.22317E-02   -0.64878E-02  6278   0.162E-01    0.898E-01
RMM:   4    -0.230726815626E+04    0.56010E-02   -0.84591E-03  5917   0.479E-02    0.361E-01
RMM:   5    -0.230726699025E+04    0.11660E-02   -0.24631E-03  5175   0.264E-02    0.195E-01
RMM:   6    -0.230726681220E+04    0.17806E-03   -0.15445E-03  4887   0.223E-02    0.174E-01
RMM:   7    -0.230726660057E+04    0.21163E-03   -0.63801E-04  4217   0.180E-02    0.912E-02
RMM:   8    -0.230726652299E+04    0.77584E-04   -0.10697E-04  3467   0.624E-03    0.360E-02
RMM:   9    -0.230726652297E+04    0.18656E-07   -0.47836E-05  3013   0.552E-03
  12 F= -.23284549E+04 E0= -.23284549E+04  d E =-.260907E-01  mag=     2.0004
       N       E                     dE             d eps       ncg     rms          rms(c)
DAV:   1    -0.230726727583E+04   -0.75284E-03   -0.14296E+00  4480   0.919E-01    0.328E-01
RMM:   2    -0.230728207688E+04   -0.14801E-01   -0.14867E-01  6474   0.210E-01    0.448E-01
RMM:   3    -0.230728275946E+04   -0.68258E-03   -0.15197E-02  6104   0.730E-02    0.404E-01
RMM:   4    -0.230728139906E+04    0.13604E-02   -0.17614E-03  5049   0.212E-02    0.107E-01
RMM:   5    -0.230728151500E+04   -0.11595E-03   -0.54844E-04  4709   0.129E-02    0.129E-01
RMM:   6    -0.230728135719E+04    0.15781E-03   -0.33541E-04  3649   0.104E-02    0.621E-02
RMM:   7    -0.230728135221E+04    0.49809E-05   -0.79307E-05  3058   0.678E-03
  13 F= -.23284705E+04 E0= -.23284705E+04  d E =-.155958E-01  mag=     2.0008
       N       E                     dE             d eps       ncg     rms          rms(c)
DAV:   1    -0.230718530807E+04    0.96049E-01   -0.12811E+01  4480   0.276E+00    0.988E-01
RMM:   2    -0.230731784881E+04   -0.13254E+00   -0.13513E+00  6461   0.620E-01    0.125E+00
RMM:   3    -0.230732899548E+04   -0.11147E-01   -0.14286E-01  6322   0.223E-01    0.134E+00
RMM:   4    -0.230731482497E+04    0.14171E-01   -0.16507E-02  6130   0.646E-02    0.363E-01
RMM:   5    -0.230731586465E+04   -0.10397E-02   -0.50317E-03  5927   0.347E-02    0.411E-01
RMM:   6    -0.230731456809E+04    0.12966E-02   -0.31975E-03  5707   0.286E-02    0.215E-01
RMM:   7    -0.230731455946E+04    0.86309E-05   -0.10490E-03  4973   0.173E-02    0.119E-01
RMM:   8    -0.230731470565E+04   -0.14619E-03   -0.41801E-04  3920   0.112E-02    0.943E-02
RMM:   9    -0.230731472982E+04   -0.24170E-04   -0.29496E-04  3383   0.908E-03    0.652E-02
RMM:  10    -0.230731477586E+04   -0.46032E-04   -0.16364E-04  3257   0.746E-03    0.213E-02
RMM:  11    -0.230731483803E+04   -0.62178E-04   -0.27437E-05  2926   0.483E-03    0.101E-02
RMM:  12    -0.230731488505E+04   -0.47013E-04   -0.12398E-05  2887   0.321E-03    0.635E-03
RMM:  13    -0.230731491392E+04   -0.28868E-04   -0.64732E-06  2803   0.289E-03    0.450E-03
RMM:  14    -0.230731493119E+04   -0.17279E-04   -0.42243E-06  2585   0.218E-03    0.274E-03
RMM:  15    -0.230731494188E+04   -0.10686E-04   -0.29418E-06  2609   0.199E-03    0.165E-03
RMM:  16    -0.230731494567E+04   -0.37895E-05   -0.16877E-06  2490   0.160E-03
  14 F= -.23285064E+04 E0= -.23285064E+04  d E =-.514777E-01  mag=     2.0012
       N       E                     dE             d eps       ncg     rms          rms(c)
DAV:   1    -0.230678850995E+04    0.52643E+00   -0.50513E+01  4480   0.545E+00    0.199E+00
RMM:   2    -0.230732189165E+04   -0.53338E+00   -0.55912E+00  6467   0.120E+00    0.196E+00
RMM:   3    -0.230740393888E+04   -0.82047E-01   -0.66299E-01  6311   0.464E-01    0.286E+00
RMM:   4    -0.230733419116E+04    0.69748E-01   -0.68950E-02  6464   0.127E-01    0.731E-01
RMM:   5    -0.230733493621E+04   -0.74505E-03   -0.19248E-02  6091   0.625E-02    0.707E-01
RMM:   6    -0.230733106466E+04    0.38715E-02   -0.12389E-02  5867   0.539E-02    0.386E-01
RMM:   7    -0.230732993969E+04    0.11250E-02   -0.44132E-03  5536   0.347E-02    0.135E-01
RMM:   8    -0.230733005755E+04   -0.11786E-03   -0.76585E-04  4442   0.193E-02    0.859E-02
RMM:   9    -0.230733029012E+04   -0.23257E-03   -0.51471E-04  4082   0.123E-02    0.964E-02
RMM:  10    -0.230733029557E+04   -0.54494E-05   -0.15576E-04  3180   0.783E-03    0.269E-02
RMM:  11    -0.230733048036E+04   -0.18479E-03   -0.50834E-05  3071   0.550E-03    0.138E-02
RMM:  12    -0.230733060204E+04   -0.12168E-03   -0.23233E-05  2909   0.450E-03    0.123E-02
RMM:  13    -0.230733069974E+04   -0.97703E-04   -0.20398E-05  2922   0.415E-03    0.736E-03
RMM:  14    -0.230733075450E+04   -0.54760E-04   -0.15487E-05  2872   0.394E-03    0.402E-03
RMM:  15    -0.230733077590E+04   -0.21400E-04   -0.84726E-06  2839   0.332E-03    0.261E-03
RMM:  16    -0.230733078296E+04   -0.70597E-05   -0.36808E-06  2607   0.254E-03
  15 F= -.23285269E+04 E0= -.23285269E+04  d E =-.719318E-01  mag=     2.0002
       N       E                     dE             d eps       ncg     rms          rms(c)
DAV:   1    -0.230729340922E+04    0.37367E-01   -0.42204E+00  4480   0.152E+00    0.570E-01
RMM:   2    -0.230733636487E+04   -0.42956E-01   -0.43031E-01  6453   0.343E-01    0.679E-01
RMM:   3    -0.230733887939E+04   -0.25145E-02   -0.48362E-02  6250   0.129E-01    0.635E-01
RMM:   4    -0.230733510938E+04    0.37700E-02   -0.58248E-03  5853   0.354E-02    0.199E-01
RMM:   5    -0.230733517736E+04   -0.67981E-04   -0.16166E-03  5353   0.194E-02    0.206E-01
RMM:   6    -0.230733466155E+04    0.51581E-03   -0.98656E-04  5049   0.172E-02    0.626E-02
RMM:   7    -0.230733468347E+04   -0.21918E-04   -0.20852E-04  3271   0.106E-02    0.636E-02
RMM:   8    -0.230733464075E+04    0.42721E-04   -0.86215E-05  2931   0.566E-03    0.226E-02
RMM:   9    -0.230733464588E+04   -0.51278E-05   -0.19709E-05  2944   0.367E-03
  16 F= -.23285294E+04 E0= -.23285294E+04  d E =-.744685E-01  mag=     2.0002
       N       E                     dE             d eps       ncg     rms          rms(c)
DAV:   1    -0.230733637340E+04   -0.17327E-02   -0.60608E-01  4544   0.539E-01    0.205E-01
RMM:   2    -0.230734224090E+04   -0.58675E-02   -0.60364E-02  6589   0.121E-01    0.217E-01
RMM:   3    -0.230734286456E+04   -0.62366E-03   -0.70602E-03  5002   0.449E-02    0.244E-01
RMM:   4    -0.230734233807E+04    0.52649E-03   -0.83137E-04  3257   0.131E-02    0.854E-02
RMM:   5    -0.230734231843E+04    0.19639E-04   -0.21795E-04  3022   0.793E-03    0.714E-02
RMM:   6    -0.230734226415E+04    0.54284E-04   -0.13879E-04  3175   0.731E-03    0.237E-02
RMM:   7    -0.230734226798E+04   -0.38342E-05   -0.31178E-05  2912   0.511E-03
  17 F= -.23285376E+04 E0= -.23285376E+04  d E =-.816661E-02  mag=     2.0002
       N       E                     dE             d eps       ncg     rms          rms(c)
DAV:   1    -0.230730827484E+04    0.33989E-01   -0.54548E+00  4480   0.161E+00    0.611E-01
RMM:   2    -0.230736060421E+04   -0.52329E-01   -0.54434E-01  6566   0.355E-01    0.609E-01
RMM:   3    -0.230736670860E+04   -0.61044E-02   -0.63771E-02  6205   0.137E-01    0.716E-01
RMM:   4    -0.230736203681E+04    0.46718E-02   -0.74049E-03  5844   0.366E-02    0.243E-01
RMM:   5    -0.230736192795E+04    0.10887E-03   -0.18631E-03  5174   0.186E-02    0.216E-01
RMM:   6    -0.230736140370E+04    0.52424E-03   -0.11715E-03  4897   0.174E-02    0.703E-02
RMM:   7    -0.230736141767E+04   -0.13968E-04   -0.21757E-04  3249   0.998E-03    0.501E-02
RMM:   8    -0.230736140734E+04    0.10331E-04   -0.86319E-05  2923   0.573E-03    0.328E-02
RMM:   9    -0.230736141335E+04   -0.60072E-05   -0.27695E-05  2943   0.396E-03
  18 F= -.23285584E+04 E0= -.23285584E+04  d E =-.289558E-01  mag=     2.0001
       N       E                     dE             d eps       ncg     rms          rms(c)
DAV:   1    -0.230716165956E+04    0.19975E+00   -0.21714E+01  4480   0.318E+00    0.119E+00
RMM:   2    -0.230737357636E+04   -0.21192E+00   -0.22189E+00  6569   0.698E-01    0.113E+00
RMM:   3    -0.230739790120E+04   -0.24325E-01   -0.25936E-01  6281   0.268E-01    0.134E+00
RMM:   4    -0.230738090281E+04    0.16998E-01   -0.28659E-02  6367   0.699E-02    0.449E-01
RMM:   5    -0.230738051997E+04    0.38284E-03   -0.65382E-03  5945   0.325E-02    0.416E-01
RMM:   6    -0.230737854944E+04    0.19705E-02   -0.44889E-03  5528   0.321E-02    0.149E-01
RMM:   7    -0.230737853068E+04    0.18768E-04   -0.98941E-04  4684   0.167E-02    0.649E-02
RMM:   8    -0.230737858217E+04   -0.51498E-04   -0.24908E-04  3111   0.947E-03    0.735E-02
RMM:   9    -0.230737857142E+04    0.10749E-04   -0.12878E-04  2989   0.656E-03    0.242E-02
RMM:  10    -0.230737864250E+04   -0.71077E-04   -0.53359E-05  2948   0.462E-03    0.117E-02
RMM:  11    -0.230737869040E+04   -0.47898E-04   -0.12429E-05  2866   0.359E-03    0.741E-03
RMM:  12    -0.230737872901E+04   -0.38607E-04   -0.96614E-06  2874   0.275E-03    0.550E-03
RMM:  13    -0.230737875458E+04   -0.25569E-04   -0.64053E-06  2807   0.272E-03    0.319E-03
RMM:  14    -0.230737876576E+04   -0.11181E-04   -0.41573E-06  2637   0.224E-03    0.209E-03
RMM:  15    -0.230737877005E+04   -0.42941E-05   -0.21795E-06  2546   0.190E-03
  19 F= -.23285790E+04 E0= -.23285790E+04  d E =-.496328E-01  mag=     2.0000
       N       E                     dE             d eps       ncg     rms          rms(c)
DAV:   1    -0.230739215285E+04   -0.13387E-01   -0.24063E-01  4688   0.492E-01    0.195E-01
RMM:   2    -0.230739445176E+04   -0.22989E-02   -0.25672E-02  6133   0.106E-01    0.110E-01
RMM:   3    -0.230739477996E+04   -0.32820E-03   -0.33016E-03  5471   0.461E-02    0.166E-01
RMM:   4    -0.230739448239E+04    0.29757E-03   -0.39367E-04  4198   0.128E-02    0.653E-02
RMM:   5    -0.230739450743E+04   -0.25042E-04   -0.19196E-04  3597   0.101E-02    0.855E-02
RMM:   6    -0.230739441925E+04    0.88177E-04   -0.12019E-04  3474   0.861E-03    0.171E-02
RMM:   7    -0.230739441567E+04    0.35800E-05   -0.23732E-05  2927   0.582E-03
  20 F= -.23285947E+04 E0= -.23285947E+04  d E =-.156160E-01  mag=     2.0000
       N       E                     dE             d eps       ncg     rms          rms(c)
DAV:   1    -0.230739375412E+04    0.66513E-03   -0.21651E+00  4496   0.148E+00    0.585E-01
RMM:   2    -0.230741450433E+04   -0.20750E-01   -0.23179E-01  6043   0.318E-01    0.330E-01
RMM:   3    -0.230741736150E+04   -0.28572E-02   -0.30075E-02  5742   0.146E-01    0.486E-01
RMM:   4    -0.230741476658E+04    0.25949E-02   -0.35669E-03  5948   0.374E-02    0.196E-01
RMM:   5    -0.230741497654E+04   -0.20995E-03   -0.16819E-03  5099   0.262E-02    0.258E-01
RMM:   6    -0.230741416932E+04    0.80722E-03   -0.10380E-03  5344   0.208E-02    0.485E-02
RMM:   7    -0.230741412942E+04    0.39899E-04   -0.17858E-04  4239   0.107E-02    0.329E-02
RMM:   8    -0.230741411943E+04    0.99834E-05   -0.61455E-05  3030   0.576E-03
  21 F= -.23286143E+04 E0= -.23286143E+04  d E =-.352430E-01  mag=     2.0000
       N       E                     dE             d eps       ncg     rms          rms(c)
DAV:   1    -0.230741731286E+04   -0.31834E-02   -0.16670E-01  4768   0.424E-01    0.145E-01
RMM:   2    -0.230741920601E+04   -0.18931E-02   -0.20527E-02  6198   0.875E-02    0.108E-01
RMM:   3    -0.230741954779E+04   -0.34179E-03   -0.27965E-03  4966   0.413E-02    0.175E-01
RMM:   4    -0.230741923962E+04    0.30817E-03   -0.27148E-04  3245   0.107E-02    0.369E-02
RMM:   5    -0.230741923302E+04    0.65988E-05   -0.12894E-04  3836   0.886E-03    0.382E-02
RMM:   6    -0.230741921704E+04    0.15985E-04   -0.51278E-05  2926   0.661E-03    0.199E-02
RMM:   7    -0.230741921244E+04    0.45988E-05   -0.12153E-05  2879   0.411E-03
  22 F= -.23286192E+04 E0= -.23286192E+04  d E =-.487390E-02  mag=     2.0000
       N       E                     dE             d eps       ncg     rms          rms(c)
DAV:   1    -0.230741512126E+04    0.40958E-02   -0.73863E-01  4512   0.892E-01    0.305E-01
RMM:   2    -0.230742350319E+04   -0.83819E-02   -0.90852E-02  6102   0.182E-01    0.226E-01
RMM:   3    -0.230742495546E+04   -0.14523E-02   -0.11937E-02  5697   0.880E-02    0.362E-01
RMM:   4    -0.230742360453E+04    0.13509E-02   -0.12127E-03  5278   0.214E-02    0.761E-02
RMM:   5    -0.230742355222E+04    0.52311E-04   -0.55425E-04  4949   0.156E-02    0.819E-02
RMM:   6    -0.230742346670E+04    0.85522E-04   -0.22342E-04  3988   0.109E-02    0.401E-02
RMM:   7    -0.230742343944E+04    0.27256E-04   -0.42704E-05  3109   0.559E-03    0.140E-02
RMM:   8    -0.230742343633E+04    0.31080E-05   -0.16052E-05  2886   0.462E-03
  23 F= -.23286229E+04 E0= -.23286229E+04  d E =-.864008E-02  mag=     2.0000
       N       E                     dE             d eps       ncg     rms          rms(c)
DAV:   1    -0.230742388253E+04   -0.44309E-03   -0.35976E-01  4544   0.635E-01    0.160E-01
RMM:   2    -0.230742784267E+04   -0.39601E-02   -0.41851E-02  6361   0.122E-01    0.131E-01
RMM:   3    -0.230742822900E+04   -0.38634E-03   -0.47229E-03  4954   0.481E-02    0.165E-01
RMM:   4    -0.230742800512E+04    0.22389E-03   -0.45881E-04  3179   0.120E-02    0.576E-02
RMM:   5    -0.230742799644E+04    0.86756E-05   -0.11839E-04  3016   0.742E-03    0.615E-02
RMM:   6    -0.230742794190E+04    0.54538E-04   -0.10068E-04  3456   0.789E-03    0.156E-02
RMM:   7    -0.230742794040E+04    0.14977E-05   -0.24698E-05  2940   0.545E-03
  24 F= -.23286273E+04 E0= -.23286273E+04  d E =-.436387E-02  mag=     2.0000
       N       E                     dE             d eps       ncg     rms          rms(c)
DAV:   1    -0.230739710523E+04    0.30837E-01   -0.32356E+00  4480   0.190E+00    0.478E-01
RMM:   2    -0.230743280277E+04   -0.35698E-01   -0.37617E-01  6296   0.363E-01    0.404E-01
RMM:   3    -0.230743617273E+04   -0.33700E-02   -0.42355E-02  5892   0.152E-01    0.491E-01
RMM:   4    -0.230743411418E+04    0.20586E-02   -0.40789E-03  5821   0.343E-02    0.170E-01
RMM:   5    -0.230743407282E+04    0.41358E-04   -0.10663E-03  5068   0.175E-02    0.186E-01
RMM:   6    -0.230743356912E+04    0.50370E-03   -0.83041E-04  4850   0.184E-02    0.478E-02
RMM:   7    -0.230743355443E+04    0.14689E-04   -0.18263E-04  4168   0.120E-02    0.303E-02
RMM:   8    -0.230743355126E+04    0.31641E-05   -0.45386E-05  2915   0.530E-03
  25 F= -.23286325E+04 E0= -.23286325E+04  d E =-.956435E-02  mag=     2.0000
       N       E                     dE             d eps       ncg     rms          rms(c)
DAV:   1    -0.230743231500E+04    0.12394E-02   -0.80678E-01  4544   0.967E-01    0.266E-01
RMM:   2    -0.230743843619E+04   -0.61212E-02   -0.59967E-02  6202   0.178E-01    0.254E-01
RMM:   3    -0.230743861795E+04   -0.18176E-03   -0.60727E-03  5727   0.688E-02    0.251E-01
RMM:   4    -0.230743784899E+04    0.76896E-03   -0.82840E-04  4960   0.189E-02    0.107E-01
RMM:   5    -0.230743775746E+04    0.91523E-04   -0.26323E-04  3173   0.116E-02    0.716E-02
RMM:   6    -0.230743767232E+04    0.85139E-04   -0.24211E-04  4282   0.123E-02    0.192E-02
RMM:   7    -0.230743767570E+04   -0.33802E-05   -0.43631E-05  2962   0.953E-03
  26 F= -.23286365E+04 E0= -.23286365E+04  d E =-.404267E-02  mag=     2.0000
       N       E                     dE             d eps       ncg     rms          rms(c)
DAV:   1    -0.230743422394E+04    0.34484E-02   -0.57924E-01  4544   0.819E-01    0.225E-01
RMM:   2    -0.230743859005E+04   -0.43661E-02   -0.43045E-02  6117   0.151E-01    0.210E-01
RMM:   3    -0.230743876247E+04   -0.17242E-03   -0.43940E-03  5488   0.621E-02    0.214E-01
RMM:   4    -0.230743819826E+04    0.56421E-03   -0.60002E-04  4769   0.162E-02    0.906E-02
RMM:   5    -0.230743813502E+04    0.63237E-04   -0.19560E-04  3033   0.103E-02    0.620E-02
RMM:   6    -0.230743806991E+04    0.65105E-04   -0.17754E-04  4160   0.107E-02    0.193E-02
RMM:   7    -0.230743807253E+04   -0.26150E-05   -0.39172E-05  2923   0.871E-03
  27 F= -.23286369E+04 E0= -.23286369E+04  d E =-.437198E-02  mag=     2.0000
       N       E                     dE             d eps       ncg     rms          rms(c)
DAV:   1    -0.230743585942E+04    0.22105E-02   -0.58596E-01  4512   0.798E-01    0.194E-01
RMM:   2    -0.230744218573E+04   -0.63263E-02   -0.54914E-02  6333   0.150E-01    0.328E-01
RMM:   3    -0.230744128253E+04    0.90321E-03   -0.58928E-03  5624   0.580E-02    0.133E-01
RMM:   4    -0.230744112571E+04    0.15682E-03   -0.66563E-04  4020   0.138E-02    0.797E-02
RMM:   5    -0.230744107336E+04    0.52346E-04   -0.13440E-04  2977   0.824E-03    0.555E-02
RMM:   6    -0.230744102653E+04    0.46832E-04   -0.15856E-04  4125   0.955E-03    0.216E-02
RMM:   7    -0.230744102913E+04   -0.25961E-05   -0.32656E-05  2916   0.751E-03
  28 F= -.23286396E+04 E0= -.23286396E+04  d E =-.277121E-02  mag=     2.0000
       N       E                     dE             d eps       ncg     rms          rms(c)
DAV:   1    -0.230742724634E+04    0.13780E-01   -0.18045E+00  4480   0.140E+00    0.339E-01
RMM:   2    -0.230744648376E+04   -0.19237E-01   -0.16797E-01  6309   0.262E-01    0.566E-01
RMM:   3    -0.230744388306E+04    0.26007E-02   -0.18132E-02  5950   0.103E-01    0.234E-01
RMM:   4    -0.230744338064E+04    0.50242E-03   -0.20017E-03  4778   0.238E-02    0.136E-01
RMM:   5    -0.230744323569E+04    0.14495E-03   -0.41030E-04  3637   0.130E-02    0.987E-02
RMM:   6    -0.230744308410E+04    0.15160E-03   -0.46324E-04  4433   0.156E-02    0.374E-02
RMM:   7    -0.230744309000E+04   -0.59019E-05   -0.93945E-05  3287   0.118E-02
  29 F= -.23286414E+04 E0= -.23286414E+04  d E =-.451467E-02  mag=     2.0000
       N       E                     dE             d eps       ncg     rms          rms(c)
DAV:   1    -0.230744359864E+04   -0.51454E-03   -0.39786E-01  4576   0.671E-01    0.220E-01
RMM:   2    -0.230744673131E+04   -0.31327E-02   -0.30242E-02  5965   0.125E-01    0.214E-01
RMM:   3    -0.230744686738E+04   -0.13607E-03   -0.32919E-03  5443   0.547E-02    0.222E-01
RMM:   4    -0.230744627621E+04    0.59117E-03   -0.46716E-04  4609   0.154E-02    0.547E-02
RMM:   5    -0.230744630012E+04   -0.23905E-04   -0.19482E-04  3663   0.116E-02    0.767E-02
RMM:   6    -0.230744621966E+04    0.80452E-04   -0.13038E-04  4021   0.881E-03    0.153E-02
RMM:   7    -0.230744621766E+04    0.20010E-05   -0.17974E-05  2918   0.607E-03
  30 F= -.23286444E+04 E0= -.23286444E+04  d E =-.306054E-02  mag=     2.0000
       N       E                     dE             d eps       ncg     rms          rms(c)
DAV:   1    -0.230744529150E+04    0.92817E-03   -0.17505E-01  4608   0.445E-01    0.145E-01
RMM:   2    -0.230744667658E+04   -0.13851E-02   -0.13373E-02  5973   0.834E-02    0.142E-01
RMM:   3    -0.230744673196E+04   -0.55380E-04   -0.14256E-03  4827   0.353E-02    0.147E-01
RMM:   4    -0.230744647297E+04    0.25899E-03   -0.20571E-04  3930   0.105E-02    0.370E-02
RMM:   5    -0.230744648200E+04   -0.90241E-05   -0.83814E-05  2959   0.792E-03
  31 F= -.23286447E+04 E0= -.23286447E+04  d E =-.328070E-02  mag=     2.0000
       N       E                     dE             d eps       ncg     rms          rms(c)
DAV:   1    -0.230744642648E+04    0.46490E-04   -0.15786E-02  4864   0.134E-01    0.438E-02
RMM:   2    -0.230744656305E+04   -0.13656E-03   -0.12303E-03  5911   0.285E-02    0.504E-02
RMM:   3    -0.230744655583E+04    0.72179E-05   -0.13388E-04  3048   0.107E-02    0.404E-02
RMM:   4    -0.230744653516E+04    0.20672E-04   -0.15459E-05  2880   0.435E-03    0.917E-03
RMM:   5    -0.230744653505E+04    0.10748E-06   -0.73797E-06  2871   0.269E-03
  32 F= -.23286447E+04 E0= -.23286447E+04  d E =-.334658E-02  mag=     2.0000
       N       E                     dE             d eps       ncg     rms          rms(c)
DAV:   1    -0.230744624454E+04    0.29062E-03   -0.24754E-01  4512   0.489E-01    0.133E-01
RMM:   2    -0.230744853392E+04   -0.22894E-02   -0.23521E-02  6253   0.926E-02    0.125E-01
RMM:   3    -0.230744867941E+04   -0.14549E-03   -0.24190E-03  4947   0.360E-02    0.126E-01
RMM:   4    -0.230744851672E+04    0.16269E-03   -0.27996E-04  3056   0.966E-03    0.504E-02
RMM:   5    -0.230744850417E+04    0.12548E-04   -0.80475E-05  2930   0.655E-03    0.446E-02
RMM:   6    -0.230744847202E+04    0.32155E-04   -0.81272E-05  3516   0.689E-03    0.128E-02
RMM:   7    -0.230744847262E+04   -0.60737E-06   -0.12943E-05  2912   0.513E-03
  33 F= -.23286466E+04 E0= -.23286466E+04  d E =-.187987E-02  mag=     2.0000
       N       E                     dE             d eps       ncg     rms          rms(c)
DAV:   1    -0.230744483032E+04    0.36417E-02   -0.51272E-01  4512   0.704E-01    0.192E-01
RMM:   2    -0.230744959416E+04   -0.47638E-02   -0.48948E-02  6191   0.133E-01    0.182E-01
RMM:   3    -0.230744988270E+04   -0.28854E-03   -0.50945E-03  5632   0.546E-02    0.179E-01
RMM:   4    -0.230744954986E+04    0.33285E-03   -0.59387E-04  4032   0.134E-02    0.743E-02
RMM:   5    -0.230744952238E+04    0.27473E-04   -0.16390E-04  2973   0.875E-03    0.656E-02
RMM:   6    -0.230744945325E+04    0.69139E-04   -0.16418E-04  4104   0.944E-03    0.203E-02
RMM:   7    -0.230744945588E+04   -0.26320E-05   -0.30838E-05  2931   0.727E-03
  34 F= -.23286475E+04 E0= -.23286475E+04  d E =-.278244E-02  mag=     2.0000
       N       E                     dE             d eps       ncg     rms          rms(c)
DAV:   1    -0.230744936957E+04    0.83672E-04   -0.22221E-01  4512   0.476E-01    0.126E-01
RMM:   2    -0.230745132852E+04   -0.19589E-02   -0.20617E-02  6186   0.877E-02    0.960E-02
RMM:   3    -0.230745153551E+04   -0.20699E-03   -0.21460E-03  4701   0.360E-02    0.118E-01
RMM:   4    -0.230745138205E+04    0.15346E-03   -0.25120E-04  3051   0.939E-03    0.432E-02
RMM:   5    -0.230745137887E+04    0.31792E-05   -0.64840E-05  2934   0.608E-03
  35 F= -.23286492E+04 E0= -.23286492E+04  d E =-.166011E-02  mag=     2.0000
       N       E                     dE             d eps       ncg     rms          rms(c)
DAV:   1    -0.230744215353E+04    0.92285E-02   -0.12525E+00  4480   0.113E+00    0.296E-01
RMM:   2    -0.230745318071E+04   -0.11027E-01   -0.11582E-01  6210   0.208E-01    0.230E-01
RMM:   3    -0.230745426787E+04   -0.10872E-02   -0.12074E-02  5870   0.856E-02    0.276E-01
RMM:   4    -0.230745344025E+04    0.82762E-03   -0.14157E-03  5332   0.205E-02    0.105E-01
RMM:   5    -0.230745342959E+04    0.10654E-04   -0.39457E-04  3711   0.121E-02    0.106E-01
RMM:   6    -0.230745327200E+04    0.15759E-03   -0.31301E-04  4306   0.122E-02    0.298E-02
RMM:   7    -0.230745327033E+04    0.16757E-05   -0.48457E-05  2963   0.817E-03
  36 F= -.23286504E+04 E0= -.23286504E+04  d E =-.292989E-02  mag=     2.0000
       N       E                     dE             d eps       ncg     rms          rms(c)
DAV:   1    -0.230744985384E+04    0.34182E-02   -0.46951E-01  4512   0.695E-01    0.184E-01
RMM:   2    -0.230745540608E+04   -0.55522E-02   -0.56927E-02  6334   0.138E-01    0.170E-01
RMM:   3    -0.230745583094E+04   -0.42486E-03   -0.60840E-03  5591   0.556E-02    0.167E-01
RMM:   4    -0.230745551728E+04    0.31367E-03   -0.67094E-04  3436   0.132E-02    0.724E-02
RMM:   5    -0.230745548676E+04    0.30515E-04   -0.13445E-04  2946   0.758E-03    0.581E-02
RMM:   6    -0.230745543900E+04    0.47763E-04   -0.11174E-04  3753   0.784E-03    0.183E-02
RMM:   7    -0.230745543960E+04   -0.60364E-06   -0.28892E-05  2949   0.620E-03
  37 F= -.23286522E+04 E0= -.23286522E+04  d E =-.173755E-02  mag=     2.0000
       N       E                     dE             d eps       ncg     rms          rms(c)
DAV:   1    -0.230744547901E+04    0.99600E-02   -0.95701E-01  4480   0.993E-01    0.260E-01
RMM:   2    -0.230745667528E+04   -0.11196E-01   -0.11552E-01  6370   0.197E-01    0.229E-01
RMM:   3    -0.230745767455E+04   -0.99927E-03   -0.12223E-02  5928   0.779E-02    0.246E-01
RMM:   4    -0.230745700635E+04    0.66820E-03   -0.13641E-03  4782   0.185E-02    0.971E-02
RMM:   5    -0.230745696051E+04    0.45837E-04   -0.25722E-04  3082   0.971E-03    0.860E-02
RMM:   6    -0.230745685933E+04    0.10117E-03   -0.22036E-04  4044   0.105E-02    0.293E-02
RMM:   7    -0.230745685774E+04    0.15928E-05   -0.70896E-05  3172   0.782E-03
  38 F= -.23286530E+04 E0= -.23286530E+04  d E =-.254478E-02  mag=     2.0000
       N       E                     dE             d eps       ncg     rms          rms(c)
DAV:   1    -0.230745042076E+04    0.64386E-02   -0.59627E-01  4496   0.766E-01    0.216E-01
RMM:   2    -0.230745931948E+04   -0.88987E-02   -0.89856E-02  6471   0.164E-01    0.220E-01
RMM:   3    -0.230745979923E+04   -0.47975E-03   -0.94385E-03  5821   0.635E-02    0.185E-01
RMM:   4    -0.230745946037E+04    0.33885E-03   -0.10651E-03  3643   0.149E-02    0.986E-02
RMM:   5    -0.230745938675E+04    0.73627E-04   -0.18001E-04  2958   0.806E-03    0.637E-02
RMM:   6    -0.230745932732E+04    0.59433E-04   -0.14292E-04  3760   0.827E-03    0.250E-02
RMM:   7    -0.230745933283E+04   -0.55103E-05   -0.56006E-05  2971   0.680E-03
  39 F= -.23286551E+04 E0= -.23286551E+04  d E =-.208121E-02  mag=     2.0000
       N       E                     dE             d eps       ncg     rms          rms(c)
DAV:   1    -0.230744465515E+04    0.14672E-01   -0.10745E+00  4480   0.103E+00    0.289E-01
RMM:   2    -0.230746072408E+04   -0.16069E-01   -0.16178E-01  6479   0.220E-01    0.300E-01
RMM:   3    -0.230746154918E+04   -0.82510E-03   -0.17037E-02  6053   0.847E-02    0.250E-01
RMM:   4    -0.230746093204E+04    0.61714E-03   -0.19239E-03  4828   0.198E-02    0.132E-01
RMM:   5    -0.230746079758E+04    0.13445E-03   -0.32292E-04  3045   0.981E-03    0.847E-02
RMM:   6    -0.230746068840E+04    0.10918E-03   -0.26098E-04  4107   0.109E-02    0.331E-02
RMM:   7    -0.230746069696E+04   -0.85575E-05   -0.95543E-05  3073   0.851E-03
  40 F= -.23286559E+04 E0= -.23286559E+04  d E =-.292451E-02  mag=     2.0000
       N       E                     dE             d eps       ncg     rms          rms(c)
DAV:   1    -0.230744862218E+04    0.12066E-01   -0.93398E-01  4480   0.953E-01    0.276E-01
RMM:   2    -0.230746338769E+04   -0.14766E-01   -0.14853E-01  6470   0.207E-01    0.286E-01
RMM:   3    -0.230746397700E+04   -0.58931E-03   -0.15291E-02  6018   0.787E-02    0.208E-01
RMM:   4    -0.230746358420E+04    0.39280E-03   -0.17851E-03  4817   0.185E-02    0.135E-01
RMM:   5    -0.230746344020E+04    0.14400E-03   -0.27425E-04  2966   0.892E-03    0.795E-02
RMM:   6    -0.230746334919E+04    0.91003E-04   -0.20214E-04  4048   0.974E-03    0.337E-02
RMM:   7    -0.230746336132E+04   -0.12126E-04   -0.10207E-04  2987   0.836E-03    0.391E-02
RMM:   8    -0.230746334131E+04    0.20015E-04   -0.29429E-05  2902   0.492E-03    0.946E-03
RMM:   9    -0.230746334020E+04    0.11025E-05   -0.50102E-06  2869   0.303E-03
  41 F= -.23286578E+04 E0= -.23286578E+04  d E =-.192967E-02  mag=     2.0000
       N       E                     dE             d eps       ncg     rms          rms(c)
DAV:   1    -0.230745835364E+04    0.49877E-02   -0.36550E-01  4512   0.596E-01    0.171E-01
RMM:   2    -0.230746413425E+04   -0.57806E-02   -0.58043E-02  6440   0.129E-01    0.176E-01
RMM:   3    -0.230746436874E+04   -0.23449E-03   -0.59902E-03  5492   0.495E-02    0.128E-01
RMM:   4    -0.230746422153E+04    0.14721E-03   -0.70340E-04  3241   0.118E-02    0.851E-02
RMM:   5    -0.230746416261E+04    0.58916E-04   -0.10393E-04  2916   0.655E-03    0.498E-02
RMM:   6    -0.230746412377E+04    0.38845E-04   -0.86423E-05  3174   0.654E-03    0.191E-02
RMM:   7    -0.230746412683E+04   -0.30608E-05   -0.38112E-05  2947   0.552E-03
  42 F= -.23286582E+04 E0= -.23286582E+04  d E =-.227459E-02  mag=     2.0000
       N       E                     dE             d eps       ncg     rms          rms(c)
DAV:   1    -0.230745535557E+04    0.87682E-02   -0.72174E-01  4496   0.828E-01    0.251E-01
RMM:   2    -0.230746706798E+04   -0.11712E-01   -0.11731E-01  6466   0.181E-01    0.268E-01
RMM:   3    -0.230746725635E+04   -0.18836E-03   -0.12187E-02  6017   0.699E-02    0.152E-01
RMM:   4    -0.230746702642E+04    0.22992E-03   -0.13461E-03  4525   0.161E-02    0.101E-01
RMM:   5    -0.230746696891E+04    0.57511E-04   -0.16804E-04  2921   0.790E-03    0.768E-02
RMM:   6    -0.230746688298E+04    0.85935E-04   -0.15170E-04  3998   0.849E-03    0.282E-02
RMM:   7    -0.230746688793E+04   -0.49511E-05   -0.72827E-05  2951   0.777E-03
  43 F= -.23286601E+04 E0= -.23286601E+04  d E =-.194663E-02  mag=     2.0000
       N       E                     dE             d eps       ncg     rms          rms(c)
DAV:   1    -0.230746035417E+04    0.65288E-02   -0.46802E-01  4496   0.667E-01    0.204E-01
RMM:   2    -0.230746796801E+04   -0.76138E-02   -0.76508E-02  6436   0.147E-01    0.215E-01
RMM:   3    -0.230746810225E+04   -0.13424E-03   -0.79556E-03  5822   0.566E-02    0.123E-01
RMM:   4    -0.230746794899E+04    0.15326E-03   -0.87500E-04  3646   0.132E-02    0.800E-02
RMM:   5    -0.230746791648E+04    0.32508E-04   -0.11162E-04  2913   0.700E-03    0.632E-02
RMM:   6    -0.230746786123E+04    0.55254E-04   -0.97387E-05  3478   0.689E-03    0.252E-02
RMM:   7    -0.230746786717E+04   -0.59406E-05   -0.57811E-05  2922   0.651E-03
  44 F= -.23286605E+04 E0= -.23286605E+04  d E =-.227264E-02  mag=     2.0000
       N       E                     dE             d eps       ncg     rms          rms(c)
DAV:   1    -0.230746152708E+04    0.63341E-02   -0.51466E-01  4496   0.683E-01    0.204E-01
RMM:   2    -0.230746994432E+04   -0.84172E-02   -0.84018E-02  6510   0.148E-01    0.229E-01
RMM:   3    -0.230747004377E+04   -0.99447E-04   -0.87386E-03  5844   0.567E-02    0.122E-01
RMM:   4    -0.230746991606E+04    0.12771E-03   -0.96455E-04  3397   0.130E-02    0.843E-02
RMM:   5    -0.230746986923E+04    0.46828E-04   -0.10160E-04  2916   0.661E-03    0.599E-02
RMM:   6    -0.230746981600E+04    0.53234E-04   -0.95932E-05  3312   0.653E-03    0.249E-02
RMM:   7    -0.230746981990E+04   -0.39022E-05   -0.56728E-05  2929   0.610E-03
  45 F= -.23286618E+04 E0= -.23286618E+04  d E =-.134337E-02  mag=     2.0000
       N       E                     dE             d eps       ncg     rms          rms(c)
DAV:   1    -0.230745050529E+04    0.19311E-01   -0.12991E+00  4480   0.108E+00    0.323E-01
RMM:   2    -0.230747173379E+04   -0.21229E-01   -0.21192E-01  6505   0.234E-01    0.361E-01
RMM:   3    -0.230747200793E+04   -0.27414E-03   -0.22064E-02  6196   0.898E-02    0.192E-01
RMM:   4    -0.230747169182E+04    0.31611E-03   -0.24366E-03  5092   0.201E-02    0.134E-01
RMM:   5    -0.230747157012E+04    0.12170E-03   -0.25376E-04  2938   0.878E-03    0.954E-02
RMM:   6    -0.230747143054E+04    0.13958E-03   -0.24250E-04  4129   0.101E-02    0.386E-02
RMM:   7    -0.230747143562E+04   -0.50778E-05   -0.13946E-04  3209   0.955E-03    0.350E-02
RMM:   8    -0.230747142109E+04    0.14532E-04   -0.29067E-05  2910   0.508E-03    0.120E-02
RMM:   9    -0.230747141891E+04    0.21787E-05   -0.56377E-06  2852   0.304E-03
  46 F= -.23286624E+04 E0= -.23286624E+04  d E =-.198195E-02  mag=     2.0000
       N       E                     dE             d eps       ncg     rms          rms(c)
DAV:   1    -0.230746500850E+04    0.64126E-02   -0.49999E-01  4496   0.682E-01    0.211E-01
RMM:   2    -0.230747305722E+04   -0.80487E-02   -0.81153E-02  6357   0.147E-01    0.209E-01
RMM:   3    -0.230747348069E+04   -0.42346E-03   -0.85574E-03  5833   0.596E-02    0.170E-01
RMM:   4    -0.230747321309E+04    0.26759E-03   -0.10013E-03  3723   0.143E-02    0.937E-02
RMM:   5    -0.230747313554E+04    0.77558E-04   -0.15009E-04  2951   0.768E-03    0.628E-02
RMM:   6    -0.230747307389E+04    0.61645E-04   -0.13138E-04  3747   0.820E-03    0.210E-02
RMM:   7    -0.230747307115E+04    0.27360E-05   -0.44674E-05  2981   0.675E-03
  47 F= -.23286637E+04 E0= -.23286637E+04  d E =-.126745E-02  mag=     2.0000
       N       E                     dE             d eps       ncg     rms          rms(c)
DAV:   1    -0.230747107309E+04    0.20008E-02   -0.14220E-01  4576   0.364E-01    0.114E-01
RMM:   2    -0.230747337951E+04   -0.23064E-02   -0.23271E-02  6386   0.796E-02    0.116E-01
RMM:   3    -0.230747348556E+04   -0.10604E-03   -0.24625E-03  4166   0.319E-02    0.907E-02
RMM:   4    -0.230747341369E+04    0.71865E-04   -0.28737E-04  2995   0.901E-03    0.512E-02
RMM:   5    -0.230747339094E+04    0.22756E-04   -0.47977E-05  2914   0.477E-03    0.332E-02
RMM:   6    -0.230747337369E+04    0.17245E-04   -0.35192E-05  2896   0.465E-03    0.113E-02
RMM:   7    -0.230747337317E+04    0.52570E-06   -0.13849E-05  2908   0.393E-03
  48 F= -.23286638E+04 E0= -.23286638E+04  d E =-.136557E-02  mag=     2.0000
       N       E                     dE             d eps       ncg     rms          rms(c)
DAV:   1    -0.230746827028E+04    0.51034E-02   -0.35419E-01  4512   0.578E-01    0.178E-01
RMM:   2    -0.230747446657E+04   -0.61963E-02   -0.63222E-02  6425   0.126E-01    0.169E-01
RMM:   3    -0.230747500614E+04   -0.53957E-03   -0.70628E-03  5570   0.525E-02    0.173E-01
RMM:   4    -0.230747471553E+04    0.29061E-03   -0.74454E-04  3186   0.125E-02    0.653E-02
RMM:   5    -0.230747468151E+04    0.34013E-04   -0.11213E-04  2967   0.662E-03    0.542E-02
RMM:   6    -0.230747463840E+04    0.43114E-04   -0.87274E-05  3008   0.656E-03    0.198E-02
RMM:   7    -0.230747463414E+04    0.42605E-05   -0.38386E-05  2971   0.561E-03
  49 F= -.23286647E+04 E0= -.23286647E+04  d E =-.936529E-03  mag=     2.0000
       N       E                     dE             d eps       ncg     rms          rms(c)
DAV:   1    -0.230747194707E+04    0.26913E-02   -0.16941E-01  4512   0.400E-01    0.125E-01
RMM:   2    -0.230747492552E+04   -0.29784E-02   -0.30382E-02  6486   0.885E-02    0.120E-01
RMM:   3    -0.230747517085E+04   -0.24533E-03   -0.33832E-03  4382   0.362E-02    0.119E-01
RMM:   4    -0.230747503771E+04    0.13314E-03   -0.36184E-04  2996   0.973E-03    0.468E-02
RMM:   5    -0.230747501969E+04    0.18024E-04   -0.56039E-05  2943   0.481E-03    0.375E-02
RMM:   6    -0.230747499878E+04    0.20909E-04   -0.41714E-05  2888   0.475E-03    0.139E-02
RMM:   7    -0.230747499650E+04    0.22773E-05   -0.19712E-05  2931   0.412E-03
  50 F= -.23286649E+04 E0= -.23286649E+04  d E =-.107626E-02  mag=     2.0000
       N       E                     dE             d eps       ncg     rms          rms(c)
DAV:   1    -0.230746957519E+04    0.54236E-02   -0.42173E-01  4496   0.658E-01    0.192E-01
RMM:   2    -0.230747614879E+04   -0.65736E-02   -0.68488E-02  6406   0.138E-01    0.143E-01
RMM:   3    -0.230747681807E+04   -0.66929E-03   -0.74308E-03  5715   0.565E-02    0.166E-01
RMM:   4    -0.230747654438E+04    0.27370E-03   -0.79864E-04  3336   0.130E-02    0.718E-02
RMM:   5    -0.230747651011E+04    0.34269E-04   -0.12169E-04  2962   0.716E-03    0.600E-02
RMM:   6    -0.230747645867E+04    0.51441E-04   -0.95081E-05  3124   0.699E-03    0.217E-02
RMM:   7    -0.230747645238E+04    0.62860E-05   -0.39767E-05  2987   0.603E-03
  51 F= -.23286658E+04 E0= -.23286658E+04  d E =-.935805E-03  mag=     2.0000
       N       E                     dE             d eps       ncg     rms          rms(c)
DAV:   1    -0.230747531510E+04    0.11436E-02   -0.87025E-02  4640   0.299E-01    0.885E-02
RMM:   2    -0.230747668206E+04   -0.13670E-02   -0.14265E-02  6464   0.644E-02    0.677E-02
RMM:   3    -0.230747681349E+04   -0.13143E-03   -0.15450E-03  3563   0.252E-02    0.744E-02
RMM:   4    -0.230747676051E+04    0.52977E-04   -0.16838E-04  2955   0.752E-03    0.338E-02
RMM:   5    -0.230747675302E+04    0.74983E-05   -0.28605E-05  2919   0.358E-03
  52 F= -.23286659E+04 E0= -.23286659E+04  d E =-.100094E-02  mag=     2.0000
       N       E                     dE             d eps       ncg     rms          rms(c)
DAV:   1    -0.230747112463E+04    0.56359E-02   -0.44098E-01  4496   0.676E-01    0.197E-01
RMM:   2    -0.230747778030E+04   -0.66557E-02   -0.69655E-02  6335   0.138E-01    0.137E-01
RMM:   3    -0.230747835262E+04   -0.57232E-03   -0.76132E-03  5581   0.573E-02    0.121E-01
RMM:   4    -0.230747816991E+04    0.18271E-03   -0.74957E-04  3314   0.126E-02    0.557E-02
RMM:   5    -0.230747815080E+04    0.19110E-04   -0.12042E-04  3166   0.809E-03    0.591E-02
RMM:   6    -0.230747812457E+04    0.26225E-04   -0.79133E-05  2910   0.709E-03    0.363E-02
RMM:   7    -0.230747811162E+04    0.12949E-04   -0.30044E-05  2940   0.556E-03    0.675E-03
RMM:   8    -0.230747811199E+04   -0.36630E-06   -0.57775E-06  2842   0.432E-03
  53 F= -.23286666E+04 E0= -.23286666E+04  d E =-.727425E-03  mag=     2.0000
       N       E                     dE             d eps       ncg     rms          rms(c)
DAV:   1    -0.230747696999E+04    0.11416E-02   -0.89716E-02  4544   0.305E-01    0.902E-02
RMM:   2    -0.230747833281E+04   -0.13628E-02   -0.14261E-02  6293   0.627E-02    0.621E-02
RMM:   3    -0.230747844630E+04   -0.11349E-03   -0.15268E-03  3424   0.246E-02    0.539E-02
RMM:   4    -0.230747841001E+04    0.36289E-04   -0.15252E-04  2957   0.692E-03    0.243E-02
RMM:   5    -0.230747840066E+04    0.93548E-05   -0.24847E-05  2912   0.403E-03
  54 F= -.23286666E+04 E0= -.23286666E+04  d E =-.732946E-03  mag=     2.0000
       N       E                     dE             d eps       ncg     rms          rms(c)
DAV:   1    -0.230747375871E+04    0.46513E-02   -0.32813E-01  4512   0.563E-01    0.168E-01
RMM:   2    -0.230747947718E+04   -0.57185E-02   -0.57706E-02  6442   0.120E-01    0.181E-01
RMM:   3    -0.230747984668E+04   -0.36950E-03   -0.65250E-03  4967   0.473E-02    0.154E-01
RMM:   4    -0.230747962631E+04    0.22037E-03   -0.68052E-04  3114   0.119E-02    0.676E-02
RMM:   5    -0.230747958371E+04    0.42604E-04   -0.98805E-05  2949   0.636E-03    0.469E-02
RMM:   6    -0.230747954806E+04    0.35648E-04   -0.75396E-05  3081   0.635E-03    0.178E-02
RMM:   7    -0.230747954790E+04    0.15754E-06   -0.28349E-05  2950   0.534E-03
  55 F= -.23286672E+04 E0= -.23286672E+04  d E =-.621304E-03  mag=     2.0000
       N       E                     dE             d eps       ncg     rms          rms(c)
DAV:   1    -0.230747709707E+04    0.24510E-02   -0.16402E-01  4512   0.398E-01    0.118E-01
RMM:   2    -0.230747988270E+04   -0.27856E-02   -0.28911E-02  6476   0.857E-02    0.974E-02
RMM:   3    -0.230748012050E+04   -0.23780E-03   -0.31782E-03  3880   0.340E-02    0.912E-02
RMM:   4    -0.230748003804E+04    0.82467E-04   -0.32301E-04  2993   0.910E-03    0.454E-02
RMM:   5    -0.230748002409E+04    0.13947E-04   -0.42169E-05  2927   0.432E-03    0.351E-02
RMM:   6    -0.230748000644E+04    0.17651E-04   -0.33773E-05  2893   0.433E-03    0.140E-02
RMM:   7    -0.230748000632E+04    0.11403E-06   -0.18665E-05  2936   0.387E-03
  56 F= -.23286673E+04 E0= -.23286673E+04  d E =-.710243E-03  mag=     2.0000
       N       E                     dE             d eps       ncg     rms          rms(c)
DAV:   1    -0.230747719357E+04    0.28129E-02   -0.22179E-01  4512   0.475E-01    0.156E-01
RMM:   2    -0.230748080282E+04   -0.36092E-02   -0.37459E-02  6272   0.102E-01    0.118E-01
RMM:   3    -0.230748117006E+04   -0.36724E-03   -0.40881E-03  4562   0.430E-02    0.136E-01
RMM:   4    -0.230748096976E+04    0.20031E-03   -0.44262E-04  3049   0.111E-02    0.562E-02
RMM:   5    -0.230748094867E+04    0.21081E-04   -0.89665E-05  2947   0.640E-03    0.437E-02
RMM:   6    -0.230748092032E+04    0.28355E-04   -0.57976E-05  2964   0.608E-03    0.139E-02
RMM:   7    -0.230748091981E+04    0.51211E-06   -0.19547E-05  2930   0.508E-03
  57 F= -.23286679E+04 E0= -.23286679E+04  d E =-.590784E-03  mag=     2.0000
       N       E                     dE             d eps       ncg     rms          rms(c)
DAV:   1    -0.230748059376E+04    0.32656E-03   -0.26686E-02  4688   0.165E-01    0.553E-02
RMM:   2    -0.230748103614E+04   -0.44238E-03   -0.45732E-03  6279   0.371E-02    0.444E-02
RMM:   3    -0.230748107391E+04   -0.37766E-04   -0.50908E-04  3033   0.150E-02    0.441E-02
RMM:   4    -0.230748105479E+04    0.19116E-04   -0.53225E-05  2917   0.464E-03    0.198E-02
RMM:   5    -0.230748105290E+04    0.18888E-05   -0.11704E-05  2890   0.233E-03
  58 F= -.23286679E+04 E0= -.23286679E+04  d E =-.611809E-03  mag=     2.0000
       N       E                     dE             d eps       ncg     rms          rms(c)
DAV:   1    -0.230747792070E+04    0.31341E-02   -0.21092E-01  4512   0.451E-01    0.138E-01
RMM:   2    -0.230748172715E+04   -0.38065E-02   -0.39252E-02  6329   0.976E-02    0.115E-01
RMM:   3    -0.230748204358E+04   -0.31642E-03   -0.42178E-03  4245   0.407E-02    0.109E-01
RMM:   4    -0.230748192394E+04    0.11964E-03   -0.44336E-04  3007   0.102E-02    0.535E-02
RMM:   5    -0.230748190667E+04    0.17269E-04   -0.60859E-05  2920   0.532E-03    0.420E-02
RMM:   6    -0.230748187899E+04    0.27682E-04   -0.51555E-05  2920   0.530E-03    0.154E-02
RMM:   7    -0.230748187735E+04    0.16384E-05   -0.21391E-05  2947   0.460E-03
  59 F= -.23286685E+04 E0= -.23286685E+04  d E =-.560897E-03  mag=     2.0000
       N       E                     dE             d eps       ncg     rms          rms(c)
DAV:   1    -0.230747937528E+04    0.25037E-02   -0.14912E-01  4512   0.379E-01    0.119E-01
RMM:   2    -0.230748207431E+04   -0.26990E-02   -0.27930E-02  6450   0.839E-02    0.980E-02
RMM:   3    -0.230748230222E+04   -0.22791E-03   -0.29939E-03  3864   0.340E-02    0.939E-02
RMM:   4    -0.230748221520E+04    0.87022E-04   -0.31687E-04  2975   0.916E-03    0.454E-02
RMM:   5    -0.230748220194E+04    0.13257E-04   -0.44632E-05  2926   0.455E-03    0.348E-02
RMM:   6    -0.230748218278E+04    0.19162E-04   -0.32485E-05  2895   0.438E-03    0.136E-02
RMM:   7    -0.230748218099E+04    0.17857E-05   -0.17443E-05  2921   0.403E-03
  60 F= -.23286686E+04 E0= -.23286686E+04  d E =-.644365E-03  mag=     2.0000
       N       E                     dE             d eps       ncg     rms          rms(c)
DAV:   1    -0.230748009849E+04    0.20843E-02   -0.15123E-01  4496   0.390E-01    0.121E-01
RMM:   2    -0.230748277564E+04   -0.26771E-02   -0.27630E-02  6400   0.846E-02    0.942E-02
RMM:   3    -0.230748297891E+04   -0.20327E-03   -0.28857E-03  4031   0.341E-02    0.796E-02
RMM:   4    -0.230748290539E+04    0.73512E-04   -0.30133E-04  2976   0.900E-03    0.387E-02
RMM:   5    -0.230748290182E+04    0.35707E-05   -0.37849E-05  2921   0.432E-03
  61 F= -.23286691E+04 E0= -.23286691E+04  d E =-.507851E-03  mag=     2.0000
       N       E                     dE             d eps       ncg     rms          rms(c)
DAV:   1    -0.230747561023E+04    0.72952E-02   -0.42953E-01  4480   0.657E-01    0.198E-01
RMM:   2    -0.230748320326E+04   -0.75930E-02   -0.78084E-02  6406   0.140E-01    0.160E-01
RMM:   3    -0.230748374966E+04   -0.54640E-03   -0.82614E-03  5562   0.575E-02    0.127E-01
RMM:   4    -0.230748354684E+04    0.20282E-03   -0.83738E-04  3294   0.130E-02    0.572E-02
RMM:   5    -0.230748353264E+04    0.14201E-04   -0.11298E-04  2991   0.781E-03    0.618E-02
RMM:   6    -0.230748350114E+04    0.31500E-04   -0.81989E-05  2931   0.690E-03    0.381E-02
RMM:   7    -0.230748348718E+04    0.13956E-04   -0.34431E-05  2927   0.600E-03    0.103E-02
RMM:   8    -0.230748348714E+04    0.38126E-07   -0.88326E-06  2872   0.437E-03
  62 F= -.23286693E+04 E0= -.23286693E+04  d E =-.736476E-03  mag=     2.0000
       N       E                     dE             d eps       ncg     rms          rms(c)
DAV:   1    -0.230747950638E+04    0.39808E-02   -0.25137E-01  4480   0.496E-01    0.159E-01
RMM:   2    -0.230748421991E+04   -0.47135E-02   -0.48162E-02  6373   0.109E-01    0.132E-01
RMM:   3    -0.230748451554E+04   -0.29564E-03   -0.49590E-03  4905   0.422E-02    0.973E-02
RMM:   4    -0.230748439697E+04    0.11857E-03   -0.52056E-04  3040   0.105E-02    0.450E-02
RMM:   5    -0.230748439616E+04    0.81316E-06   -0.56717E-05  2920   0.566E-03
  63 F= -.23286699E+04 E0= -.23286699E+04  d E =-.586952E-03  mag=     2.0000
       N       E                     dE             d eps       ncg     rms          rms(c)
DAV:   1    -0.230748267940E+04    0.17176E-02   -0.10142E-01  4576   0.316E-01    0.976E-02
RMM:   2    -0.230748460104E+04   -0.19216E-02   -0.19427E-02  6445   0.703E-02    0.950E-02
RMM:   3    -0.230748472237E+04   -0.12133E-03   -0.21402E-03  3728   0.282E-02    0.835E-02
RMM:   4    -0.230748466883E+04    0.53536E-04   -0.23510E-04  2972   0.831E-03    0.459E-02
RMM:   5    -0.230748465230E+04    0.16534E-04   -0.40570E-05  2909   0.408E-03    0.348E-02
RMM:   6    -0.230748463569E+04    0.16609E-04   -0.38230E-05  2898   0.474E-03    0.108E-02
RMM:   7    -0.230748463659E+04   -0.89564E-06   -0.12462E-05  2911   0.388E-03
  64 F= -.23286699E+04 E0= -.23286699E+04  d E =-.622725E-03  mag=     2.0000
       N       E                     dE             d eps       ncg     rms          rms(c)
DAV:   1    -0.230748170596E+04    0.29297E-02   -0.19256E-01  4480   0.437E-01    0.142E-01
RMM:   2    -0.230748532014E+04   -0.36142E-02   -0.37084E-02  6379   0.972E-02    0.113E-01
RMM:   3    -0.230748557237E+04   -0.25223E-03   -0.38413E-03  4528   0.392E-02    0.904E-02
RMM:   4    -0.230748547265E+04    0.99722E-04   -0.40098E-04  2998   0.988E-03    0.439E-02
RMM:   5    -0.230748546925E+04    0.34004E-05   -0.47861E-05  2914   0.506E-03
  65 F= -.23286704E+04 E0= -.23286704E+04  d E =-.497394E-03  mag=     2.0000
       N       E                     dE             d eps       ncg     rms          rms(c)
DAV:   1    -0.230748464383E+04    0.82882E-03   -0.52733E-02  4576   0.229E-01    0.720E-02
RMM:   2    -0.230748564815E+04   -0.10043E-02   -0.10163E-02  6424   0.518E-02    0.683E-02
RMM:   3    -0.230748571254E+04   -0.64393E-04   -0.11353E-03  3278   0.210E-02    0.596E-02
RMM:   4    -0.230748568367E+04    0.28869E-04   -0.12270E-04  2956   0.656E-03    0.332E-02
RMM:   5    -0.230748567693E+04    0.67366E-05   -0.22967E-05  2906   0.318E-03
  66 F= -.23286705E+04 E0= -.23286705E+04  d E =-.528865E-03  mag=     2.0000
       N       E                     dE             d eps       ncg     rms          rms(c)
DAV:   1    -0.230748352266E+04    0.21610E-02   -0.16351E-01  4496   0.416E-01    0.128E-01
RMM:   2    -0.230748623947E+04   -0.27168E-02   -0.28014E-02  6335   0.883E-02    0.959E-02
RMM:   3    -0.230748647346E+04   -0.23399E-03   -0.29573E-03  4160   0.357E-02    0.961E-02
RMM:   4    -0.230748637262E+04    0.10084E-03   -0.31540E-04  2978   0.943E-03    0.477E-02
RMM:   5    -0.230748636200E+04    0.10623E-04   -0.52202E-05  2925   0.502E-03    0.378E-02
RMM:   6    -0.230748634167E+04    0.20328E-04   -0.42199E-05  2907   0.504E-03    0.136E-02
RMM:   7    -0.230748634230E+04   -0.62789E-06   -0.14485E-05  2922   0.429E-03
  67 F= -.23286709E+04 E0= -.23286709E+04  d E =-.402796E-03  mag=     2.0000
       N       E                     dE             d eps       ncg     rms          rms(c)
DAV:   1    -0.230748553289E+04    0.80878E-03   -0.57776E-02  4512   0.247E-01    0.782E-02
RMM:   2    -0.230748650471E+04   -0.97182E-03   -0.99983E-03  6418   0.542E-02    0.596E-02
RMM:   3    -0.230748658468E+04   -0.79970E-04   -0.10371E-03  3341   0.212E-02    0.579E-02
RMM:   4    -0.230748654782E+04    0.36858E-04   -0.11352E-04  2949   0.643E-03    0.287E-02
RMM:   5    -0.230748654354E+04    0.42802E-05   -0.17748E-05  2901   0.303E-03
  68 F= -.23286709E+04 E0= -.23286709E+04  d E =-.448607E-03  mag=     2.0000
       N       E                     dE             d eps       ncg     rms          rms(c)
DAV:   1    -0.230748480383E+04    0.17440E-02   -0.13005E-01  4496   0.368E-01    0.105E-01
RMM:   2    -0.230748698060E+04   -0.21768E-02   -0.22221E-02  6350   0.781E-02    0.918E-02
RMM:   3    -0.230748715910E+04   -0.17850E-03   -0.24097E-03  3840   0.313E-02    0.869E-02
RMM:   4    -0.230748708104E+04    0.78058E-04   -0.25205E-04  2970   0.848E-03    0.423E-02
RMM:   5    -0.230748707002E+04    0.11017E-04   -0.38650E-05  2916   0.427E-03    0.314E-02
RMM:   6    -0.230748705513E+04    0.14891E-04   -0.31941E-05  2895   0.437E-03    0.134E-02
RMM:   7    -0.230748705577E+04   -0.64017E-06   -0.15285E-05  2908   0.399E-03
  69 F= -.23286713E+04 E0= -.23286713E+04  d E =-.353712E-03  mag=     2.0000
       N       E                     dE             d eps       ncg     rms          rms(c)
DAV:   1    -0.230748386173E+04    0.31934E-02   -0.19942E-01  4480   0.456E-01    0.134E-01
RMM:   2    -0.230748722999E+04   -0.33683E-02   -0.34275E-02  6427   0.974E-02    0.121E-01
RMM:   3    -0.230748751127E+04   -0.28128E-03   -0.36991E-03  4387   0.387E-02    0.119E-01
RMM:   4    -0.230748736308E+04    0.14820E-03   -0.39555E-04  2984   0.102E-02    0.521E-02
RMM:   5    -0.230748734241E+04    0.20664E-04   -0.64181E-05  2939   0.531E-03    0.363E-02
RMM:   6    -0.230748732201E+04    0.20405E-04   -0.42337E-05  2894   0.501E-03    0.164E-02
RMM:   7    -0.230748732211E+04   -0.99506E-07   -0.24073E-05  2920   0.477E-03
  70 F= -.23286713E+04 E0= -.23286713E+04  d E =-.425153E-03  mag=     2.0000
       N       E                     dE             d eps       ncg     rms          rms(c)
DAV:   1    -0.230748546753E+04    0.18545E-02   -0.12970E-01  4496   0.366E-01    0.109E-01
RMM:   2    -0.230748769561E+04   -0.22281E-02   -0.22631E-02  6464   0.798E-02    0.999E-02
RMM:   3    -0.230748788098E+04   -0.18537E-03   -0.24583E-03  3846   0.313E-02    0.989E-02
RMM:   4    -0.230748777948E+04    0.10150E-03   -0.26282E-04  2959   0.884E-03    0.415E-02
RMM:   5    -0.230748776631E+04    0.13170E-04   -0.42204E-05  2937   0.430E-03    0.283E-02
RMM:   6    -0.230748775471E+04    0.11600E-04   -0.24319E-05  2888   0.391E-03    0.137E-02
RMM:   7    -0.230748775545E+04   -0.74061E-06   -0.16391E-05  2893   0.381E-03
  71 F= -.23286716E+04 E0= -.23286716E+04  d E =-.291092E-03  mag=     2.0000
       N       E                     dE             d eps       ncg     rms          rms(c)
DAV:   1    -0.230748666373E+04    0.10910E-02   -0.70404E-02  4576   0.269E-01    0.808E-02
RMM:   2    -0.230748787654E+04   -0.12128E-02   -0.12308E-02  6407   0.589E-02    0.742E-02
RMM:   3    -0.230748797650E+04   -0.99954E-04   -0.13375E-03  3333   0.234E-02    0.730E-02
RMM:   4    -0.230748792138E+04    0.55118E-04   -0.14377E-04  2942   0.695E-03    0.308E-02
RMM:   5    -0.230748791422E+04    0.71604E-05   -0.23834E-05  2914   0.318E-03
  72 F= -.23286717E+04 E0= -.23286717E+04  d E =-.345367E-03  mag=     2.0000
       N       E                     dE             d eps       ncg     rms          rms(c)
DAV:   1    -0.230748773558E+04    0.18580E-03   -0.38592E-02  4544   0.211E-01    0.690E-02
RMM:   2    -0.230748829767E+04   -0.56209E-03   -0.58155E-03  6247   0.456E-02    0.516E-02
RMM:   3    -0.230748834643E+04   -0.48762E-04   -0.65807E-04  3328   0.192E-02    0.542E-02
RMM:   4    -0.230748831187E+04    0.34562E-04   -0.69160E-05  2918   0.584E-03    0.244E-02
RMM:   5    -0.230748831302E+04   -0.11506E-05   -0.22197E-05  2905   0.358E-03
  73 F= -.23286720E+04 E0= -.23286720E+04  d E =-.288482E-03  mag=     2.0000
       N       E                     dE             d eps       ncg     rms          rms(c)
DAV:   1    -0.230748819335E+04    0.11853E-03   -0.14421E-02  4720   0.129E-01    0.434E-02
RMM:   2    -0.230748840507E+04   -0.21172E-03   -0.22362E-03  6223   0.290E-02    0.296E-02
RMM:   3    -0.230748842631E+04   -0.21240E-04   -0.24970E-04  2947   0.119E-02    0.341E-02
RMM:   4    -0.230748841268E+04    0.13625E-04   -0.26912E-05  2906   0.383E-03    0.149E-02
RMM:   5    -0.230748841342E+04   -0.74148E-06   -0.94504E-06  2863   0.233E-03
  74 F= -.23286720E+04 E0= -.23286720E+04  d E =-.320901E-03  mag=     2.0000
       N       E                     dE             d eps       ncg     rms          rms(c)
DAV:   1    -0.230748831787E+04    0.94809E-04   -0.28016E-02  4512   0.184E-01    0.589E-02
RMM:   2    -0.230748869363E+04   -0.37576E-03   -0.38653E-03  6223   0.374E-02    0.432E-02
RMM:   3    -0.230748872613E+04   -0.32493E-04   -0.43715E-04  3122   0.155E-02    0.449E-02
RMM:   4    -0.230748870144E+04    0.24682E-04   -0.45745E-05  2905   0.492E-03    0.181E-02
RMM:   5    -0.230748870163E+04   -0.19034E-06   -0.12974E-05  2878   0.273E-03
  75 F= -.23286722E+04 E0= -.23286722E+04  d E =-.172925E-03  mag=     2.0000
       N       E                     dE             d eps       ncg     rms          rms(c)
DAV:   1    -0.230748853348E+04    0.16796E-03   -0.22914E-02  4512   0.166E-01    0.530E-02
RMM:   2    -0.230748883947E+04   -0.30599E-03   -0.31729E-03  6259   0.341E-02    0.375E-02
RMM:   3    -0.230748886800E+04   -0.28533E-04   -0.35956E-04  3060   0.139E-02    0.405E-02
RMM:   4    -0.230748884781E+04    0.20187E-04   -0.37914E-05  2908   0.450E-03    0.167E-02
RMM:   5    -0.230748884839E+04   -0.57239E-06   -0.11174E-05  2868   0.252E-03
  76 F= -.23286722E+04 E0= -.23286722E+04  d E =-.214848E-03  mag=     2.0000
       N       E                     dE             d eps       ncg     rms          rms(c)
DAV:   1    -0.230748873714E+04    0.11067E-03   -0.31532E-02  4512   0.195E-01    0.592E-02
RMM:   2    -0.230748914426E+04   -0.40712E-03   -0.41571E-03  6219   0.390E-02    0.469E-02
RMM:   3    -0.230748917611E+04   -0.31854E-04   -0.46194E-04  3104   0.157E-02    0.470E-02
RMM:   4    -0.230748915077E+04    0.25346E-04   -0.49528E-05  2910   0.503E-03    0.211E-02
RMM:   5    -0.230748914905E+04    0.17139E-05   -0.12758E-05  2880   0.279E-03
  77 F= -.23286724E+04 E0= -.23286724E+04  d E =-.174026E-03  mag=     2.0000
       N       E                     dE             d eps       ncg     rms          rms(c)
DAV:   1    -0.230748898012E+04    0.17065E-03   -0.24515E-02  4576   0.172E-01    0.523E-02
RMM:   2    -0.230748929559E+04   -0.31547E-03   -0.32381E-03  6196   0.344E-02    0.414E-02
RMM:   3    -0.230748932169E+04   -0.26102E-04   -0.36409E-04  3024   0.139E-02    0.423E-02
RMM:   4    -0.230748930143E+04    0.20263E-04   -0.39238E-05  2906   0.450E-03    0.192E-02
RMM:   5    -0.230748930024E+04    0.11854E-05   -0.10834E-05  2864   0.252E-03
  78 F= -.23286724E+04 E0= -.23286724E+04  d E =-.213119E-03  mag=     2.0000
       N       E                     dE             d eps       ncg     rms          rms(c)
DAV:   1    -0.230748916956E+04    0.13187E-03   -0.27521E-02  4512   0.179E-01    0.575E-02
RMM:   2    -0.230748955509E+04   -0.38553E-03   -0.39199E-03  6201   0.374E-02    0.471E-02
RMM:   3    -0.230748959037E+04   -0.35279E-04   -0.43569E-04  3065   0.152E-02    0.515E-02
RMM:   4    -0.230748956114E+04    0.29237E-04   -0.48672E-05  2909   0.491E-03    0.216E-02
RMM:   5    -0.230748955854E+04    0.25979E-05   -0.13487E-05  2871   0.278E-03
  79 F= -.23286726E+04 E0= -.23286726E+04  d E =-.131278E-03  mag=     2.0000
       N       E                     dE             d eps       ncg     rms          rms(c)
DAV:   1    -0.230748954631E+04    0.14822E-04   -0.49897E-03  5016   0.765E-02    0.248E-02
RMM:   2    -0.230748961576E+04   -0.69447E-04   -0.72070E-04  5525   0.165E-02    0.194E-02
RMM:   3    -0.230748962193E+04   -0.61678E-05   -0.83238E-05  2884   0.726E-03
  80 F= -.23286726E+04 E0= -.23286726E+04  d E =-.139850E-03  mag=     2.0000
       N       E                     dE             d eps       ncg     rms          rms(c)
DAV:   1    -0.230748939828E+04    0.21748E-03   -0.25742E-02  4512   0.169E-01    0.553E-02
RMM:   2    -0.230748982855E+04   -0.43027E-03   -0.43608E-03  6218   0.368E-02    0.452E-02
RMM:   3    -0.230748985700E+04   -0.28453E-04   -0.46797E-04  2975   0.146E-02    0.397E-02
RMM:   4    -0.230748983916E+04    0.17839E-04   -0.52199E-05  2927   0.464E-03    0.221E-02
RMM:   5    -0.230748983648E+04    0.26838E-05   -0.11322E-05  2850   0.247E-03
  81 F= -.23286727E+04 E0= -.23286727E+04  d E =-.962514E-04  mag=     2.0000
       N       E                     dE             d eps       ncg     rms          rms(c)
DAV:   1    -0.230748981641E+04    0.22756E-04   -0.41880E-03  4904   0.685E-02    0.225E-02
RMM:   2    -0.230748988507E+04   -0.68663E-04   -0.70170E-04  5152   0.152E-02    0.200E-02
RMM:   3    -0.230748988930E+04   -0.42264E-05   -0.80676E-05  2887   0.705E-03
  82 F= -.23286727E+04 E0= -.23286727E+04  d E =-.100606E-03  mag=     2.0000
       N       E                     dE             d eps       ncg     rms          rms(c)
DAV:   1    -0.230748965011E+04    0.23496E-03   -0.23312E-02  4512   0.158E-01    0.511E-02
RMM:   2    -0.230749007790E+04   -0.42779E-03   -0.43267E-03  6285   0.354E-02    0.431E-02
RMM:   3    -0.230749010672E+04   -0.28821E-04   -0.46246E-04  2947   0.141E-02    0.370E-02
RMM:   4    -0.230749009241E+04    0.14315E-04   -0.52279E-05  2937   0.437E-03    0.215E-02
RMM:   5    -0.230749008941E+04    0.30028E-05   -0.96225E-06  2829   0.215E-03
  83 F= -.23286728E+04 E0= -.23286728E+04  d E =-.106070E-03  mag=     2.0000
       N       E                     dE             d eps       ncg     rms          rms(c)
DAV:   1    -0.230748992386E+04    0.16855E-03   -0.13751E-02  4512   0.122E-01    0.395E-02
RMM:   2    -0.230749017212E+04   -0.24827E-03   -0.25080E-03  6217   0.271E-02    0.370E-02
RMM:   3    -0.230749018755E+04   -0.15426E-04   -0.28094E-04  2908   0.110E-02    0.308E-02
RMM:   4    -0.230749017752E+04    0.10028E-04   -0.29296E-05  2919   0.346E-03    0.164E-02
RMM:   5    -0.230749017607E+04    0.14507E-05   -0.64559E-06  2742   0.179E-03
  84 F= -.23286728E+04 E0= -.23286728E+04  d E =-.120005E-03  mag=     2.0000
       N       E                     dE             d eps       ncg     rms          rms(c)
DAV:   1    -0.230748997127E+04    0.20626E-03   -0.20224E-02  4512   0.146E-01    0.477E-02
RMM:   2    -0.230749034550E+04   -0.37424E-03   -0.37992E-03  6265   0.328E-02    0.412E-02
RMM:   3    -0.230749037528E+04   -0.29780E-04   -0.42278E-04  2934   0.134E-02    0.387E-02
RMM:   4    -0.230749035955E+04    0.15737E-04   -0.44458E-05  2921   0.412E-03    0.187E-02
RMM:   5    -0.230749035746E+04    0.20852E-05   -0.84826E-06  2775   0.201E-03
  85 F= -.23286729E+04 E0= -.23286729E+04  d E =-.975271E-04  mag=     2.0000
       N       E                     dE             d eps       ncg     rms          rms(c)
DAV:   1    -0.230749007780E+04    0.28174E-03   -0.20488E-02  4512   0.147E-01    0.480E-02
RMM:   2    -0.230749045653E+04   -0.37873E-03   -0.38457E-03  6264   0.330E-02    0.418E-02
RMM:   3    -0.230749048584E+04   -0.29307E-04   -0.42922E-04  2933   0.134E-02    0.386E-02
RMM:   4    -0.230749047022E+04    0.15618E-04   -0.45084E-05  2922   0.417E-03    0.194E-02
RMM:   5    -0.230749046817E+04    0.20459E-05   -0.92296E-06  2811   0.209E-03
  86 F= -.23286729E+04 E0= -.23286729E+04  d E =-.123781E-03  mag=     2.0000
       N       E                     dE             d eps       ncg     rms          rms(c)
DAV:   1    -0.230749022466E+04    0.24556E-03   -0.24480E-02  4512   0.160E-01    0.534E-02
RMM:   2    -0.230749066476E+04   -0.44010E-03   -0.44596E-03  6258   0.363E-02    0.458E-02
RMM:   3    -0.230749069878E+04   -0.34029E-04   -0.50248E-04  2975   0.148E-02    0.427E-02
RMM:   4    -0.230749067920E+04    0.19584E-04   -0.52651E-05  2924   0.458E-03    0.212E-02
RMM:   5    -0.230749067668E+04    0.25183E-05   -0.10863E-05  2842   0.234E-03
  87 F= -.23286730E+04 E0= -.23286730E+04  d E =-.104378E-03  mag=     2.0000
       N       E                     dE             d eps       ncg     rms          rms(c)
DAV:   1    -0.230749060502E+04    0.74185E-04   -0.73500E-03  4728   0.877E-02    0.293E-02
RMM:   2    -0.230749073667E+04   -0.13165E-03   -0.13498E-03  5975   0.202E-02    0.241E-02
RMM:   3    -0.230749074698E+04   -0.10314E-04   -0.15464E-04  2884   0.857E-03    0.219E-02
RMM:   4    -0.230749074149E+04    0.54931E-05   -0.15843E-05  2910   0.266E-03
  88 F= -.23286730E+04 E0= -.23286730E+04  d E =-.111712E-03  mag=     2.0000
       N       E                     dE             d eps       ncg     rms          rms(c)
DAV:   1    -0.230749040204E+04    0.34494E-03   -0.29592E-02  4512   0.171E-01    0.584E-02
RMM:   2    -0.230749098773E+04   -0.58569E-03   -0.55945E-03  6321   0.390E-02    0.748E-02
RMM:   3    -0.230749099843E+04   -0.10700E-04   -0.62750E-04  2989   0.155E-02    0.507E-02
RMM:   4    -0.230749097334E+04    0.25084E-04   -0.70827E-05  2931   0.496E-03    0.221E-02
RMM:   5    -0.230749096901E+04    0.43277E-05   -0.13012E-05  2852   0.252E-03
  89 F= -.23286731E+04 E0= -.23286731E+04  d E =-.103326E-03  mag=     2.0000
       N       E                     dE             d eps       ncg     rms          rms(c)
DAV:   1    -0.230749085795E+04    0.11540E-03   -0.10039E-02  4528   0.998E-02    0.332E-02
RMM:   2    -0.230749104542E+04   -0.18747E-03   -0.19047E-03  6094   0.233E-02    0.294E-02
RMM:   3    -0.230749105913E+04   -0.13716E-04   -0.22147E-04  2892   0.973E-03    0.252E-02
RMM:   4    -0.230749105232E+04    0.68099E-05   -0.22287E-05  2929   0.294E-03
[...]
RMM:   3    -0.230749544511E+04   -0.94928E-05   -0.12071E-04  2854   0.728E-03    0.207E-02
RMM:   4    -0.230749544102E+04    0.40916E-05   -0.12720E-05  2802   0.216E-03
 139 F= -.23286747E+04 E0= -.23286747E+04  d E =-.263042E-04  mag=     2.0000
       N       E                     dE             d eps       ncg     rms          rms(c)
DAV:   1    -0.230749526694E+04    0.17817E-03   -0.10369E-02  4480   0.867E-02    0.323E-02
RMM:   2    -0.230749550445E+04   -0.23751E-03   -0.23965E-03  5959   0.225E-02    0.304E-02
RMM:   3    -0.230749552551E+04   -0.21056E-04   -0.26486E-04  2884   0.964E-03    0.300E-02
RMM:   4    -0.230749551710E+04    0.84031E-05   -0.28753E-05  2924   0.294E-03
 140 F= -.23286747E+04 E0= -.23286747E+04  d E =-.473465E-04  mag=     2.0000
       N       E                     dE             d eps       ncg     rms          rms(c)
DAV:   1    -0.230749545518E+04    0.70324E-04   -0.64515E-03  4448   0.725E-02    0.261E-02
RMM:   2    -0.230749559515E+04   -0.13997E-03   -0.14071E-03  5698   0.184E-02    0.250E-02
RMM:   3    -0.230749560826E+04   -0.13116E-04   -0.15608E-04  2882   0.818E-03    0.265E-02
RMM:   4    -0.230749560097E+04    0.72939E-05   -0.16714E-05  2880   0.250E-03
 141 F= -.23286748E+04 E0= -.23286748E+04  d E =-.465484E-04  mag=     2.0000
       N       E                     dE             d eps       ncg     rms          rms(c)
DAV:   1    -0.230749550461E+04    0.10365E-03   -0.65091E-03  4464   0.727E-02    0.275E-02
RMM:   2    -0.230749564402E+04   -0.13941E-03   -0.14301E-03  5728   0.183E-02    0.231E-02
RMM:   3    -0.230749565727E+04   -0.13241E-04   -0.16097E-04  2879   0.827E-03    0.249E-02
RMM:   4    -0.230749565203E+04    0.52364E-05   -0.17776E-05  2923   0.248E-03
 142 F= -.23286748E+04 E0= -.23286748E+04  d E =-.600061E-04  mag=     2.0000
       N       E                     dE             d eps       ncg     rms          rms(c)
DAV:   1    -0.230749554628E+04    0.11099E-03   -0.84540E-03  4480   0.796E-02    0.306E-02
RMM:   2    -0.230749574874E+04   -0.20246E-03   -0.19377E-03  5841   0.206E-02    0.411E-02
RMM:   3    -0.230749575107E+04   -0.23248E-05   -0.21309E-04  2897   0.895E-03    0.259E-02
RMM:   4    -0.230749574531E+04    0.57627E-05   -0.24473E-05  2925   0.279E-03
 143 F= -.23286748E+04 E0= -.23286748E+04  d E =-.370636E-04  mag=     2.0000
       N       E                     dE             d eps       ncg     rms          rms(c)
DAV:   1    -0.230749568229E+04    0.68775E-04   -0.46242E-03  4448   0.589E-02    0.225E-02
RMM:   2    -0.230749578637E+04   -0.10407E-03   -0.10473E-03  4871   0.153E-02    0.231E-02
RMM:   3    -0.230749579455E+04   -0.81769E-05   -0.12051E-04  2871   0.741E-03    0.204E-02
RMM:   4    -0.230749579111E+04    0.34337E-05   -0.13089E-05  2899   0.217E-03
 144 F= -.23286748E+04 E0= -.23286748E+04  d E =-.412097E-04  mag=     2.0000
       N       E                     dE             d eps       ncg     rms          rms(c)
DAV:   1    -0.230749569316E+04    0.10138E-03   -0.88607E-03  4480   0.839E-02    0.311E-02
RMM:   2    -0.230749589008E+04   -0.19692E-03   -0.19417E-03  5980   0.211E-02    0.342E-02
RMM:   3    -0.230749590194E+04   -0.11862E-04   -0.21142E-04  2895   0.919E-03    0.293E-02
RMM:   4    -0.230749589319E+04    0.87541E-05   -0.23544E-05  2906   0.285E-03
 145 F= -.23286749E+04 E0= -.23286749E+04  d E =-.457085E-04  mag=     2.0000
       N       E                     dE             d eps       ncg     rms          rms(c)
DAV:   1    -0.230749581889E+04    0.83054E-04   -0.56940E-03  4464   0.672E-02    0.254E-02
RMM:   2    -0.230749594145E+04   -0.12256E-03   -0.12428E-03  5304   0.170E-02    0.241E-02
RMM:   3    -0.230749595213E+04   -0.10680E-04   -0.14193E-04  2875   0.797E-03    0.237E-02
RMM:   4    -0.230749594716E+04    0.49626E-05   -0.15598E-05  2912   0.235E-03
 146 F= -.23286749E+04 E0= -.23286749E+04  d E =-.543508E-04  mag=     2.0000
       N       E                     dE             d eps       ncg     rms          rms(c)
DAV:   1    -0.230749584618E+04    0.10595E-03   -0.81552E-03  4480   0.822E-02    0.308E-02
RMM:   2    -0.230749602421E+04   -0.17803E-03   -0.17314E-03  5960   0.205E-02    0.361E-02
RMM:   3    -0.230749603078E+04   -0.65721E-05   -0.19003E-04  2899   0.897E-03    0.278E-02
RMM:   4    -0.230749602320E+04    0.75857E-05   -0.21700E-05  2912   0.282E-03
 147 F= -.23286749E+04 E0= -.23286749E+04  d E =-.382588E-04  mag=     2.0000
       N       E                     dE             d eps       ncg     rms          rms(c)
DAV:   1    -0.230749601682E+04    0.13961E-04   -0.89978E-04  4624   0.274E-02    0.124E-02
RMM:   2    -0.230749603606E+04   -0.19241E-04   -0.19187E-04  3245   0.714E-03    0.145E-02
RMM:   3    -0.230749603618E+04   -0.11653E-06   -0.24583E-05  2739   0.458E-03
 148 F= -.23286749E+04 E0= -.23286749E+04  d E =-.385820E-04  mag=     2.0000
       N       E                     dE             d eps       ncg     rms          rms(c)
DAV:   1    -0.230749602272E+04    0.13336E-04   -0.39581E-03  4496   0.613E-02    0.232E-02
RMM:   2    -0.230749609690E+04   -0.74171E-04   -0.75513E-04  5020   0.148E-02    0.189E-02
RMM:   3    -0.230749610202E+04   -0.51188E-05   -0.90257E-05  2889   0.774E-03
 149 F= -.23286750E+04 E0= -.23286750E+04  d E =-.333224E-04  mag=     2.0000
       N       E                     dE             d eps       ncg     rms          rms(c)
DAV:   1    -0.230749609367E+04    0.32266E-05   -0.13552E-03  4736   0.359E-02    0.154E-02
RMM:   2    -0.230749612201E+04   -0.28337E-04   -0.27818E-04  3422   0.928E-03    0.184E-02
RMM:   3    -0.230749612234E+04   -0.33510E-06   -0.34880E-05  2853   0.528E-03
 150 F= -.23286750E+04 E0= -.23286750E+04  d E =-.345276E-04  mag=     2.0000
       N       E                     dE             d eps       ncg     rms          rms(c)
DAV:   1    -0.230749611396E+04    0.80439E-05   -0.40978E-03  4496   0.599E-02    0.243E-02
RMM:   2    -0.230749620470E+04   -0.90738E-04   -0.84968E-04  4834   0.152E-02    0.315E-02
RMM:   3    -0.230749620074E+04    0.39587E-05   -0.98917E-05  2892   0.785E-03
 151 F= -.23286750E+04 E0= -.23286750E+04  d E =-.230952E-04  mag=     2.0000
       N       E                     dE             d eps       ncg     rms          rms(c)
DAV:   1    -0.230749620742E+04   -0.27183E-05   -0.24499E-04  4976   0.145E-02    0.118E-02
RMM:   2    -0.230749622137E+04   -0.13953E-04   -0.68315E-05  2854   0.434E-03    0.291E-02
RMM:   3    -0.230749621206E+04    0.93079E-05   -0.11620E-05  2463   0.293E-03
 152 F= -.23286750E+04 E0= -.23286750E+04  d E =-.212006E-04  mag=     2.0000
       N       E                     dE             d eps       ncg     rms          rms(c)
DAV:   1    -0.230749621487E+04    0.65037E-05   -0.40016E-03  4480   0.608E-02    0.242E-02
RMM:   2    -0.230749629885E+04   -0.83986E-04   -0.76512E-04  4980   0.147E-02    0.341E-02
RMM:   3    -0.230749629363E+04    0.52209E-05   -0.93250E-05  2884   0.761E-03
 153 F= -.23286750E+04 E0= -.23286750E+04  d E =-.273610E-04  mag=     2.0000
       N       E                     dE             d eps       ncg     rms          rms(c)
DAV:   1    -0.230749630054E+04   -0.16856E-05   -0.23428E-04  4920   0.144E-02    0.133E-02
RMM:   2    -0.230749631882E+04   -0.18278E-04   -0.68238E-05  2902   0.437E-03    0.357E-02
RMM:   3    -0.230749630375E+04    0.15068E-04   -0.14732E-05  2461   0.306E-03    0.786E-03
RMM:   4    -0.230749630340E+04    0.35323E-06   -0.25093E-06  1318   0.100E-03
 154 F= -.23286750E+04 E0= -.23286750E+04  d E =-.245935E-04  mag=     2.0000
       N       E                     dE             d eps       ncg     rms          rms(c)
DAV:   1    -0.230749628966E+04    0.14093E-04   -0.33818E-03  4480   0.582E-02    0.220E-02
RMM:   2    -0.230749634802E+04   -0.58365E-04   -0.60226E-04  4741   0.136E-02    0.155E-02
RMM:   3    -0.230749635384E+04   -0.58198E-05   -0.64597E-05  2878   0.699E-03
 155 F= -.23286750E+04 E0= -.23286750E+04  d E =-.230343E-04  mag=     2.0000
       N       E                     dE             d eps       ncg     rms          rms(c)
DAV:   1    -0.230749635313E+04   -0.51033E-05   -0.99447E-05  5216   0.961E-03    0.890E-03
RMM:   2    -0.230749636013E+04   -0.70082E-05   -0.24278E-05  2552   0.294E-03
 156 F= -.23286750E+04 E0= -.23286750E+04  d E =-.251060E-04  mag=     2.0000
       N       E                     dE             d eps       ncg     rms          rms(c)
DAV:   1    -0.230749633739E+04    0.15740E-04   -0.34452E-03  4496   0.571E-02    0.211E-02
RMM:   2    -0.230749639893E+04   -0.61542E-04   -0.64509E-04  4508   0.143E-02    0.131E-02
RMM:   3    -0.230749640628E+04   -0.73555E-05   -0.75253E-05  2871   0.766E-03
 157 F= -.23286751E+04 E0= -.23286751E+04  d E =-.149884E-04  mag=     2.0000
       N       E                     dE             d eps       ncg     rms          rms(c)
DAV:   1    -0.230749640636E+04   -0.74363E-05   -0.79883E-05  4544   0.838E-03    0.806E-03
RMM:   2    -0.230749641060E+04   -0.42339E-05   -0.18880E-05  2482   0.340E-03
 158 F= -.23286751E+04 E0= -.23286751E+04  d E =-.150974E-04  mag=     2.0000
       N       E                     dE             d eps       ncg     rms          rms(c)
DAV:   1    -0.230749639913E+04    0.72333E-05   -0.32172E-03  4448   0.532E-02    0.194E-02
RMM:   2    -0.230749646093E+04   -0.61795E-04   -0.63867E-04  4372   0.137E-02    0.135E-02
RMM:   3    -0.230749646746E+04   -0.65370E-05   -0.74130E-05  2804   0.746E-03
 159 F= -.23286751E+04 E0= -.23286751E+04  d E =-.194982E-04  mag=     2.0000
       N       E                     dE             d eps       ncg     rms          rms(c)
DAV:   1    -0.230749646971E+04   -0.87848E-05   -0.13619E-04  4888   0.108E-02    0.800E-03
RMM:   2    -0.230749647485E+04   -0.51426E-05   -0.32736E-05  2608   0.325E-03
 160 F= -.23286751E+04 E0= -.23286751E+04  d E =-.195338E-04  mag=     2.0000
       N       E                     dE             d eps       ncg     rms          rms(c)
DAV:   1    -0.230749645497E+04    0.14737E-04   -0.31212E-03  4416   0.515E-02    0.186E-02
RMM:   2    -0.230749651778E+04   -0.62807E-04   -0.64753E-04  4268   0.136E-02    0.131E-02
RMM:   3    -0.230749652414E+04   -0.63605E-05   -0.77378E-05  2813   0.735E-03
 161 F= -.23286751E+04 E0= -.23286751E+04  d E =-.164190E-04  mag=     2.0000
       N       E                     dE             d eps       ncg     rms          rms(c)
DAV:   1    -0.230749652680E+04   -0.90231E-05   -0.16561E-04  4808   0.119E-02    0.780E-03
RMM:   2    -0.230749653248E+04   -0.56787E-05   -0.40918E-05  2671   0.357E-03
 162 F= -.23286751E+04 E0= -.23286751E+04  d E =-.173650E-04  mag=     2.0000
       N       E                     dE             d eps       ncg     rms          rms(c)
DAV:   1    -0.230749649900E+04    0.27808E-04   -0.28946E-03  4400   0.482E-02    0.175E-02
RMM:   2    -0.230749656068E+04   -0.61682E-04   -0.63250E-04  4109   0.132E-02    0.130E-02
RMM:   3    -0.230749656670E+04   -0.60236E-05   -0.77455E-05  2767   0.720E-03
 163 F= -.23286751E+04 E0= -.23286751E+04  d E =-.138884E-04  mag=     2.0000
       N       E                     dE             d eps       ncg     rms          rms(c)
DAV:   1    -0.230749656708E+04   -0.64023E-05   -0.69320E-05  4056   0.750E-03    0.701E-03
RMM:   2    -0.230749657077E+04   -0.36905E-05   -0.19483E-05  2456   0.337E-03
 164 F= -.23286751E+04 E0= -.23286751E+04  d E =-.150335E-04  mag=     2.0000
       N       E                     dE             d eps       ncg     rms          rms(c)
DAV:   1    -0.230749654583E+04    0.21250E-04   -0.30858E-03  4400   0.493E-02    0.183E-02
RMM:   2    -0.230749661356E+04   -0.67725E-04   -0.68127E-04  4199   0.134E-02    0.173E-02
RMM:   3    -0.230749661846E+04   -0.49047E-05   -0.79293E-05  2715   0.714E-03
 165 F= -.23286751E+04 E0= -.23286751E+04  d E =-.158252E-04  mag=     2.0000
       N       E                     dE             d eps       ncg     rms          rms(c)
DAV:   1    -0.230749661791E+04   -0.43498E-05   -0.52602E-04  4304   0.203E-02    0.964E-03
RMM:   2    -0.230749663217E+04   -0.14269E-04   -0.12677E-04  3061   0.591E-03    0.151E-02
RMM:   3    -0.230749663092E+04    0.12545E-05   -0.17843E-05  2436   0.406E-03
 166 F= -.23286751E+04 E0= -.23286751E+04  d E =-.151659E-04  mag=     2.0000
       N       E                     dE             d eps       ncg     rms          rms(c)
DAV:   1    -0.230749662688E+04    0.52940E-05   -0.22337E-03  4336   0.411E-02    0.167E-02
RMM:   2    -0.230749668217E+04   -0.55287E-04   -0.50356E-04  3751   0.109E-02    0.265E-02
RMM:   3    -0.230749667880E+04    0.33707E-05   -0.62975E-05  2754   0.644E-03
 167 F= -.23286751E+04 E0= -.23286751E+04  d E =-.166638E-04  mag=     2.0000
       N       E                     dE             d eps       ncg     rms          rms(c)
DAV:   1    -0.230749667202E+04    0.10144E-04   -0.16925E-03  4304   0.357E-02    0.156E-02
RMM:   2    -0.230749671779E+04   -0.45767E-04   -0.39611E-04  3481   0.986E-03    0.270E-02
RMM:   3    -0.230749671268E+04    0.51139E-05   -0.53780E-05  2812   0.626E-03
 168 F= -.23286752E+04 E0= -.23286751E+04  d E =-.234169E-04  mag=     2.0000
       N       E                     dE             d eps       ncg     rms          rms(c)
DAV:   1    -0.230749672171E+04   -0.39207E-05   -0.16616E-03  4400   0.371E-02    0.163E-02
RMM:   2    -0.230749676658E+04   -0.44869E-04   -0.36643E-04  3534   0.998E-03    0.311E-02
RMM:   3    -0.230749675828E+04    0.83061E-05   -0.48166E-05  2701   0.612E-03
 169 F= -.23286752E+04 E0= -.23286752E+04  d E =-.154027E-04  mag=     2.0000
       N       E                     dE             d eps       ncg     rms          rms(c)
DAV:   1    -0.230749676538E+04    0.12013E-05   -0.15939E-04  4768   0.114E-02    0.106E-02
RMM:   2    -0.230749677842E+04   -0.13038E-04   -0.47810E-05  2779   0.362E-03    0.298E-02
RMM:   3    -0.230749676807E+04    0.10350E-04   -0.10534E-05  2345   0.261E-03    0.634E-03
RMM:   4    -0.230749676781E+04    0.26217E-06   -0.15692E-06  1127   0.855E-04
 170 F= -.23286752E+04 E0= -.23286752E+04  d E =-.158923E-04  mag=     2.0000
       N       E                     dE             d eps       ncg     rms          rms(c)
DAV:   1    -0.230749677403E+04   -0.59570E-05   -0.57566E-04  4176   0.219E-02    0.837E-03
RMM:   2    -0.230749678612E+04   -0.12093E-04   -0.12426E-04  3038   0.580E-03    0.684E-03
RMM:   3    -0.230749678706E+04   -0.93778E-06   -0.15201E-05  2349   0.395E-03
 171 F= -.23286752E+04 E0= -.23286752E+04  d E =-.170596E-04  mag=     2.0000
       N       E                     dE             d eps       ncg     rms          rms(c)
DAV:   1    -0.230749678962E+04   -0.35063E-05   -0.11650E-03  4232   0.300E-02    0.122E-02
RMM:   2    -0.230749681814E+04   -0.28517E-04   -0.26585E-04  3338   0.809E-03    0.177E-02
RMM:   3    -0.230749681720E+04    0.94078E-06   -0.31823E-05  2539   0.513E-03
 172 F= -.23286752E+04 E0= -.23286752E+04  d E =-.101283E-04  mag=     2.0000
       N       E                     dE             d eps       ncg     rms          rms(c)
DAV:   1    -0.230749680629E+04    0.11850E-04   -0.18099E-03  4272   0.373E-02    0.161E-02
RMM:   2    -0.230749685275E+04   -0.46458E-04   -0.41486E-04  3542   0.100E-02    0.254E-02
RMM:   3    -0.230749684843E+04    0.43177E-05   -0.53887E-05  2800   0.631E-03
 173 F= -.23286752E+04 E0= -.23286752E+04  d E =-.164510E-04  mag=     2.0000
       N       E                     dE             d eps       ncg     rms          rms(c)
DAV:   1    -0.230749685702E+04   -0.42725E-05   -0.59415E-04  4272   0.240E-02    0.123E-02
RMM:   2    -0.230749687891E+04   -0.21884E-04   -0.12725E-04  3096   0.652E-03    0.312E-02
RMM:   3    -0.230749686836E+04    0.10545E-04   -0.19557E-05  2466   0.432E-03    0.747E-03
RMM:   4    -0.230749686822E+04    0.13912E-06   -0.33692E-06  2021   0.126E-03
 174 F= -.23286752E+04 E0= -.23286752E+04  d E =-.142353E-04  mag=     2.0000
       N       E                     dE             d eps       ncg     rms          rms(c)
DAV:   1    -0.230749685923E+04    0.91264E-05   -0.12116E-03  4400   0.342E-02    0.133E-02
RMM:   2    -0.230749688106E+04   -0.21827E-04   -0.22638E-04  3452   0.846E-03    0.983E-03
RMM:   3    -0.230749688288E+04   -0.18198E-05   -0.26784E-05  2663   0.526E-03
 175 F= -.23286752E+04 E0= -.23286752E+04  d E =-.208617E-04  mag=     2.0000
       N       E                     dE             d eps       ncg     rms          rms(c)
DAV:   1    -0.230749688384E+04   -0.27794E-05   -0.89622E-04  4320   0.284E-02    0.119E-02
RMM:   2    -0.230749690368E+04   -0.19841E-04   -0.18853E-04  3241   0.751E-03    0.149E-02
RMM:   3    -0.230749690388E+04   -0.19922E-06   -0.25220E-05  2579   0.495E-03
 176 F= -.23286752E+04 E0= -.23286752E+04  d E =-.934249E-05  mag=     2.0000
       N       E                     dE             d eps       ncg     rms          rms(c)
DAV:   1    -0.230749690571E+04   -0.20255E-05   -0.68821E-05  4272   0.780E-03    0.721E-03
RMM:   2    -0.230749691103E+04   -0.53218E-05   -0.20350E-05  2494   0.295E-03
 177 F= -.23286752E+04 E0= -.23286752E+04  d E =-.134271E-04  mag=     2.0000
       N       E                     dE             d eps       ncg     rms          rms(c)
DAV:   1    -0.230749692350E+04   -0.17792E-04   -0.59266E-04  4288   0.239E-02    0.907E-03
RMM:   2    -0.230749693581E+04   -0.12314E-04   -0.11324E-04  2988   0.639E-03    0.134E-02
RMM:   3    -0.230749693554E+04    0.26892E-06   -0.15785E-05  2312   0.433E-03
 178 F= -.23286752E+04 E0= -.23286752E+04  d E =-.588375E-05  mag=     2.0000
       N       E                     dE             d eps       ncg     rms          rms(c)
DAV:   1    -0.230749694163E+04   -0.58153E-05   -0.97481E-05  4416   0.970E-03    0.480E-03
RMM:   2    -0.230749694354E+04   -0.19135E-05   -0.20127E-05  2398   0.288E-03
 179 F= -.23286752E+04 E0= -.23286752E+04  d E =-.624086E-05  mag=     2.0000
       N       E                     dE             d eps       ncg     rms          rms(c)
DAV:   1    -0.230749695648E+04   -0.14849E-04   -0.57512E-04  4256   0.235E-02    0.926E-03
RMM:   2    -0.230749696802E+04   -0.11544E-04   -0.11413E-04  3035   0.649E-03    0.978E-03
RMM:   3    -0.230749696849E+04   -0.46712E-06   -0.14966E-05  2297   0.422E-03
 180 F= -.23286752E+04 E0= -.23286752E+04  d E =-.746959E-05  mag=     2.0000
       N       E                     dE             d eps       ncg     rms          rms(c)
DAV:   1    -0.230749697688E+04   -0.88550E-05   -0.41440E-04  4416   0.199E-02    0.841E-03
RMM:   2    -0.230749698552E+04   -0.86417E-05   -0.80655E-05  2962   0.525E-03
 181 F= -.23286752E+04 E0= -.23286752E+04  d E =-.964288E-05  mag=     2.0000
       N       E                     dE             d eps       ncg     rms          rms(c)
DAV:   1    -0.230749699462E+04   -0.17743E-04   -0.43866E-04  4184   0.199E-02    0.858E-03
RMM:   2    -0.230749700706E+04   -0.12437E-04   -0.96608E-05  2968   0.591E-03    0.172E-02
RMM:   3    -0.230749700421E+04    0.28507E-05   -0.12649E-05  2330   0.388E-03
 182 F= -.23286752E+04 E0= -.23286752E+04  d E =-.679029E-05  mag=     2.0000
       N       E                     dE             d eps       ncg     rms          rms(c)
DAV:   1    -0.230749700568E+04    0.13764E-05   -0.10599E-05  2944   0.321E-03    0.461E-03
RMM:   2    -0.230749700718E+04   -0.15023E-05   -0.40365E-06  2308   0.190E-03
 183 F= -.23286752E+04 E0= -.23286752E+04  d E =-.821452E-05  mag=     2.0000
       N       E                     dE             d eps       ncg     rms          rms(c)
DAV:   1    -0.230749702207E+04   -0.16393E-04   -0.45569E-04  4256   0.212E-02    0.798E-03
RMM:   2    -0.230749703033E+04   -0.82595E-05   -0.76281E-05  2792   0.524E-03
 184 F= -.23286753E+04 E0= -.23286752E+04  d E =-.586161E-05  mag=     2.0000
