       N       E                     dE             d eps       ncg     rms          rms(c)
DAV:   1     0.131232519830E+05    0.13123E+05   -0.84406E+05  4544   0.145E+03
DAV:   2    -0.101360254223E+04   -0.14137E+05   -0.13514E+05  4952   0.331E+02
DAV:   3    -0.248443544639E+04   -0.14708E+04   -0.14526E+04  5512   0.115E+02
DAV:   4    -0.253034366723E+04   -0.45908E+02   -0.45654E+02  6752   0.292E+01
DAV:   5    -0.253114185766E+04   -0.79819E+00   -0.79629E+00  6088   0.339E+00    0.170E+02
RMM:   6    -0.150307357690E+04    0.10281E+04   -0.19497E+03  4465   0.385E+01    0.740E+01
RMM:   7    -0.168172245726E+04   -0.17865E+03   -0.31731E+02  5165   0.154E+01    0.622E+01
RMM:   8    -0.171070366589E+04   -0.28981E+02   -0.10455E+02  5386   0.916E+00    0.475E+01
RMM:   9    -0.175926318217E+04   -0.48560E+02   -0.58962E+01  4782   0.762E+00    0.332E+01
RMM:  10    -0.190930579987E+04   -0.15004E+03   -0.74230E+01  4992   0.819E+00    0.229E+01
RMM:  11    -0.200953293268E+04   -0.10023E+03   -0.43017E+01  4965   0.612E+00    0.220E+01
RMM:  12    -0.206451467786E+04   -0.54982E+02   -0.21380E+01  5077   0.387E+00    0.149E+01
RMM:  13    -0.219246635926E+04   -0.12795E+03   -0.87568E+01  4481   0.687E+00    0.105E+01
RMM:  14    -0.227786421374E+04   -0.85398E+02   -0.74886E+01  4765   0.616E+00    0.883E+00
RMM:  15    -0.230414688876E+04   -0.26283E+02   -0.24820E+01  5121   0.396E+00    0.584E+00
RMM:  16    -0.231465119288E+04   -0.10504E+02   -0.10828E+01  4897   0.219E+00    0.310E+00
RMM:  17    -0.232030501029E+04   -0.56538E+01   -0.48723E+00  4815   0.158E+00    0.192E+00
RMM:  18    -0.232224278119E+04   -0.19378E+01   -0.15161E+00  5152   0.870E-01    0.107E+00
RMM:  19    -0.232308789187E+04   -0.84511E+00   -0.64058E-01  4789   0.409E-01    0.499E-01
RMM:  20    -0.232322914038E+04   -0.14125E+00   -0.12907E-01  4748   0.269E-01    0.312E-01
RMM:  21    -0.232328045936E+04   -0.51319E-01   -0.37572E-02  4655   0.131E-01    0.178E-01
RMM:  22    -0.232330197393E+04   -0.21515E-01   -0.12455E-02  4561   0.101E-01    0.113E-01
RMM:  23    -0.232331554253E+04   -0.13569E-01   -0.56253E-03  4570   0.597E-02    0.819E-02
RMM:  24    -0.232332421368E+04   -0.86711E-02   -0.28544E-03  4530   0.474E-02    0.519E-02
RMM:  25    -0.232332986479E+04   -0.56511E-02   -0.18395E-03  4563   0.314E-02    0.291E-02
RMM:  26    -0.232333295172E+04   -0.30869E-02   -0.10369E-03  4183   0.259E-02    0.203E-02
RMM:  27    -0.232333397859E+04   -0.10269E-02   -0.41697E-04  4181   0.159E-02    0.109E-02
RMM:  28    -0.232333430180E+04   -0.32320E-03   -0.10527E-04  3753   0.103E-02    0.556E-03
RMM:  29    -0.232333446540E+04   -0.16360E-03   -0.42618E-05  3436   0.597E-03    0.348E-03
RMM:  30    -0.232333453999E+04   -0.74597E-04   -0.16692E-05  3004   0.456E-03    0.204E-03
RMM:  31    -0.232333457458E+04   -0.34590E-04   -0.90641E-06  2875   0.311E-03    0.126E-03
RMM:  32    -0.232333458577E+04   -0.11187E-04   -0.43602E-06  2597   0.252E-03    0.743E-04
RMM:  33    -0.232333458847E+04   -0.27024E-05   -0.22802E-06  2373   0.179E-03
   1 F= -.23448031E+04 E0= -.23448012E+04  d E =-.234480E+04  mag=     4.9539
       N       E                     dE             d eps       ncg     rms          rms(c)
DAV:   1    -0.231994715253E+04    0.33874E+01   -0.21403E+02  4752   0.116E+01    0.532E+00
RMM:   2    -0.232652075454E+04   -0.65736E+01   -0.61499E+01  6411   0.407E+00    0.105E+01
RMM:   3    -0.232438770622E+04    0.21330E+01   -0.33849E+00  5991   0.110E+00    0.451E+00
RMM:   4    -0.232434016937E+04    0.47537E-01   -0.52752E-01  6047   0.270E-01    0.385E+00
RMM:   5    -0.232427614073E+04    0.64029E-01   -0.10598E-01  5863   0.148E-01    0.329E+00
RMM:   6    -0.232418846574E+04    0.87675E-01   -0.17065E-01  5541   0.186E-01    0.204E+00
RMM:   7    -0.232412673200E+04    0.61734E-01   -0.85069E-02  5507   0.138E-01    0.119E+00
RMM:   8    -0.232413997850E+04   -0.13247E-01   -0.36738E-02  5853   0.101E-01    0.105E+00
RMM:   9    -0.232415378871E+04   -0.13810E-01   -0.18508E-02  5218   0.738E-02    0.449E-01
RMM:  10    -0.232417874417E+04   -0.24955E-01   -0.65608E-03  4953   0.453E-02    0.331E-01
RMM:  11    -0.232420958057E+04   -0.30836E-01   -0.58875E-03  4509   0.424E-02    0.198E-01
RMM:  12    -0.232423328123E+04   -0.23701E-01   -0.41253E-03  4603   0.375E-02    0.144E-01
RMM:  13    -0.232425391258E+04   -0.20631E-01   -0.48371E-03  4485   0.397E-02    0.837E-02
RMM:  14    -0.232426346463E+04   -0.95521E-02   -0.31630E-03  4572   0.354E-02    0.440E-02
RMM:  15    -0.232426674383E+04   -0.32792E-02   -0.13238E-03  4577   0.209E-02    0.328E-02
RMM:  16    -0.232426786395E+04   -0.11201E-02   -0.28388E-04  4072   0.105E-02    0.136E-02
RMM:  17    -0.232426832829E+04   -0.46435E-03   -0.79937E-05  3714   0.667E-03    0.950E-03
RMM:  18    -0.232426849948E+04   -0.17119E-03   -0.29771E-05  3222   0.472E-03    0.636E-03
RMM:  19    -0.232426855231E+04   -0.52830E-04   -0.13386E-05  2938   0.378E-03    0.372E-03
RMM:  20    -0.232426856314E+04   -0.10829E-04   -0.62410E-06  2769   0.308E-03    0.232E-03
RMM:  21    -0.232426856716E+04   -0.40124E-05   -0.32238E-06  2531   0.222E-03
   2 F= -.23457350E+04 E0= -.23457349E+04  d E =-.931864E+00  mag=     3.0001
       N       E                     dE             d eps       ncg     rms          rms(c)
DAV:   1    -0.232401057647E+04    0.25799E+00   -0.21813E+01  4736   0.311E+00    0.142E+00
RMM:   2    -0.232442633613E+04   -0.41576E+00   -0.43464E+00  6732   0.105E+00    0.121E+00
RMM:   3    -0.232444654957E+04   -0.20213E-01   -0.39166E-01  6108   0.311E-01    0.121E+00
RMM:   4    -0.232443499973E+04    0.11550E-01   -0.43272E-02  5944   0.815E-02    0.611E-01
RMM:   5    -0.232443493992E+04    0.59804E-04   -0.11801E-02  5874   0.528E-02    0.635E-01
RMM:   6    -0.232443248943E+04    0.24505E-02   -0.10816E-02  5969   0.484E-02    0.417E-01
RMM:   7    -0.232443116351E+04    0.13259E-02   -0.37234E-03  5441   0.306E-02    0.154E-01
RMM:   8    -0.232443142653E+04   -0.26302E-03   -0.10070E-03  4719   0.155E-02    0.176E-01
RMM:   9    -0.232443122006E+04    0.20648E-03   -0.38889E-04  3782   0.101E-02    0.790E-02
RMM:  10    -0.232443127803E+04   -0.57970E-04   -0.29607E-04  3989   0.958E-03    0.456E-02
RMM:  11    -0.232443131589E+04   -0.37862E-04   -0.10244E-04  3314   0.713E-03    0.234E-02
RMM:  12    -0.232443135325E+04   -0.37363E-04   -0.42596E-05  3025   0.528E-03    0.120E-02
RMM:  13    -0.232443137418E+04   -0.20925E-04   -0.13774E-05  2938   0.388E-03    0.718E-03
RMM:  14    -0.232443138977E+04   -0.15598E-04   -0.58216E-06  2787   0.280E-03    0.504E-03
RMM:  15    -0.232443140248E+04   -0.12706E-04   -0.40190E-06  2668   0.233E-03    0.340E-03
RMM:  16    -0.232443141030E+04   -0.78249E-05   -0.30571E-06  2653   0.200E-03
   3 F= -.23458982E+04 E0= -.23458982E+04  d E =-.109512E+01  mag=     3.0000
       N       E                     dE             d eps       ncg     rms          rms(c)
DAV:   1    -0.232458221884E+04   -0.15082E+00   -0.21712E+01  4624   0.336E+00    0.167E+00
RMM:   2    -0.232485366159E+04   -0.27144E+00   -0.32485E+00  6597   0.913E-01    0.116E+00
RMM:   3    -0.232488076346E+04   -0.27102E-01   -0.35856E-01  6287   0.360E-01    0.139E+00
RMM:   4    -0.232486388076E+04    0.16883E-01   -0.43561E-02  6398   0.906E-02    0.628E-01
RMM:   5    -0.232486202217E+04    0.18586E-02   -0.14048E-02  5642   0.554E-02    0.449E-01
RMM:   6    -0.232486111566E+04    0.90651E-03   -0.69307E-03  5695   0.407E-02    0.367E-01
RMM:   7    -0.232486061029E+04    0.50537E-03   -0.28967E-03  5089   0.266E-02    0.269E-01
RMM:   8    -0.232485985465E+04    0.75564E-03   -0.70867E-04  4088   0.151E-02    0.780E-02
RMM:   9    -0.232485998578E+04   -0.13113E-03   -0.35498E-04  3653   0.972E-03    0.113E-01
RMM:  10    -0.232485985802E+04    0.12776E-03   -0.17480E-04  3327   0.766E-03    0.324E-02
RMM:  11    -0.232485988453E+04   -0.26517E-04   -0.53737E-05  3045   0.505E-03    0.195E-02
RMM:  12    -0.232485991688E+04   -0.32341E-04   -0.15634E-05  2907   0.383E-03    0.123E-02
RMM:  13    -0.232485994988E+04   -0.33007E-04   -0.15256E-05  2896   0.317E-03    0.715E-03
RMM:  14    -0.232485996713E+04   -0.17245E-04   -0.58522E-06  2760   0.274E-03    0.411E-03
RMM:  15    -0.232485997529E+04   -0.81610E-05   -0.29607E-06  2569   0.190E-03
   4 F= -.23463268E+04 E0= -.23463268E+04  d E =-.428555E+00  mag=     3.0000
       N       E                     dE             d eps       ncg     rms          rms(c)
DAV:   1    -0.232485827782E+04    0.16893E-02   -0.12639E+00  4776   0.808E-01    0.391E-01
RMM:   2    -0.232487397956E+04   -0.15702E-01   -0.18642E-01  6618   0.220E-01    0.262E-01
RMM:   3    -0.232487532959E+04   -0.13500E-02   -0.18259E-02  5835   0.765E-02    0.325E-01
RMM:   4    -0.232487443187E+04    0.89772E-03   -0.22883E-03  4744   0.205E-02    0.139E-01
RMM:   5    -0.232487431849E+04    0.11338E-03   -0.73819E-04  4380   0.132E-02    0.909E-02
RMM:   6    -0.232487429406E+04    0.24432E-04   -0.32402E-04  3706   0.105E-02    0.915E-02
RMM:   7    -0.232487423116E+04    0.62896E-04   -0.13015E-04  3046   0.677E-03    0.510E-02
RMM:   8    -0.232487420226E+04    0.28905E-04   -0.23559E-05  2847   0.363E-03    0.152E-02
RMM:   9    -0.232487420526E+04   -0.30007E-05   -0.12509E-05  2731   0.253E-03
   5 F= -.23463410E+04 E0= -.23463410E+04  d E =-.442804E+00  mag=     3.0000
       N       E                     dE             d eps       ncg     rms          rms(c)
DAV:   1    -0.232493531759E+04   -0.61115E-01   -0.66884E+00  4560   0.206E+00    0.855E-01
RMM:   2    -0.232506713157E+04   -0.13181E+00   -0.14837E+00  6706   0.595E-01    0.606E-01
RMM:   3    -0.232507763080E+04   -0.10499E-01   -0.16531E-01  6275   0.217E-01    0.446E-01
RMM:   4    -0.232507715519E+04    0.47561E-03   -0.13363E-02  5463   0.430E-02    0.369E-01
RMM:   5    -0.232507637127E+04    0.78391E-03   -0.25026E-03  5362   0.257E-02    0.255E-01
RMM:   6    -0.232507564154E+04    0.72973E-03   -0.21087E-03  5542   0.230E-02    0.110E-01
RMM:   7    -0.232507586543E+04   -0.22389E-03   -0.72267E-04  4062   0.164E-02    0.169E-01
RMM:   8    -0.232507554171E+04    0.32371E-03   -0.21777E-04  3334   0.891E-03    0.431E-02
RMM:   9    -0.232507552651E+04    0.15203E-04   -0.58969E-05  2983   0.554E-03    0.308E-02
RMM:  10    -0.232507551718E+04    0.93330E-05   -0.28734E-05  2923   0.336E-03
   6 F= -.23465421E+04 E0= -.23465421E+04  d E =-.201097E+00  mag=     3.0000
       N       E                     dE             d eps       ncg     rms          rms(c)
DAV:   1    -0.232477996957E+04    0.29556E+00   -0.20494E+01  4516   0.364E+00    0.153E+00
RMM:   2    -0.232519676892E+04   -0.41680E+00   -0.46424E+00  6715   0.107E+00    0.130E+00
RMM:   3    -0.232522362206E+04   -0.26853E-01   -0.53114E-01  6238   0.389E-01    0.860E-01
RMM:   4    -0.232522033882E+04    0.32832E-02   -0.43760E-02  6189   0.852E-02    0.727E-01
RMM:   5    -0.232521656094E+04    0.37779E-02   -0.70968E-03  5961   0.406E-02    0.403E-01
RMM:   6    -0.232521575037E+04    0.81057E-03   -0.69509E-03  5763   0.366E-02    0.384E-01
RMM:   7    -0.232521522740E+04    0.52297E-03   -0.38758E-03  5304   0.314E-02    0.277E-01
RMM:   8    -0.232521438445E+04    0.84295E-03   -0.60454E-04  4489   0.148E-02    0.829E-02
RMM:   9    -0.232521434492E+04    0.39529E-04   -0.19039E-04  3207   0.893E-03    0.719E-02
RMM:  10    -0.232521428760E+04    0.57323E-04   -0.11575E-04  3154   0.607E-03    0.297E-02
RMM:  11    -0.232521428661E+04    0.99247E-06   -0.48263E-05  2998   0.509E-03
   7 F= -.23466808E+04 E0= -.23466808E+04  d E =-.339801E+00  mag=     3.0000
       N       E                     dE             d eps       ncg     rms          rms(c)
DAV:   1    -0.232519648641E+04    0.17801E-01   -0.17377E+01  4504   0.333E+00    0.111E+00
RMM:   2    -0.232536074606E+04   -0.16426E+00   -0.17900E+00  6594   0.831E-01    0.716E-01
RMM:   3    -0.232537020301E+04   -0.94570E-02   -0.15198E-01  6042   0.241E-01    0.811E-01
RMM:   4    -0.232536590603E+04    0.42970E-02   -0.20665E-02  6376   0.679E-02    0.428E-01
RMM:   5    -0.232536527448E+04    0.63156E-03   -0.61038E-03  5821   0.406E-02    0.367E-01
RMM:   6    -0.232536467905E+04    0.59543E-03   -0.41954E-03  5817   0.331E-02    0.321E-01
RMM:   7    -0.232536365094E+04    0.10281E-02   -0.13390E-03  5375   0.190E-02    0.107E-01
RMM:   8    -0.232536353567E+04    0.11527E-03   -0.23485E-04  3122   0.977E-03    0.657E-02
RMM:   9    -0.232536347796E+04    0.57707E-04   -0.10329E-04  2995   0.701E-03    0.335E-02
RMM:  10    -0.232536345143E+04    0.26528E-04   -0.85652E-05  3409   0.578E-03    0.127E-02
RMM:  11    -0.232536344703E+04    0.44043E-05   -0.11595E-05  2918   0.447E-03
   8 F= -.23468293E+04 E0= -.23468293E+04  d E =-.148446E+00  mag=     3.0000
       N       E                     dE             d eps       ncg     rms          rms(c)
DAV:   1    -0.232536179889E+04    0.16525E-02   -0.59339E-01  4728   0.612E-01    0.204E-01
RMM:   2    -0.232536702496E+04   -0.52261E-02   -0.57805E-02  6588   0.144E-01    0.118E-01
RMM:   3    -0.232536738402E+04   -0.35906E-03   -0.54801E-03  5413   0.452E-02    0.130E-01
RMM:   4    -0.232536729790E+04    0.86119E-04   -0.68285E-04  3276   0.125E-02    0.739E-02
RMM:   5    -0.232536725397E+04    0.43930E-04   -0.18234E-04  3966   0.870E-03    0.485E-02
RMM:   6    -0.232536725881E+04   -0.48350E-05   -0.10623E-04  3004   0.747E-03    0.498E-02
RMM:   7    -0.232536722744E+04    0.31362E-04   -0.35604E-05  2970   0.507E-03    0.125E-02
RMM:   8    -0.232536722566E+04    0.17866E-05   -0.67723E-06  2847   0.315E-03
   9 F= -.23468329E+04 E0= -.23468329E+04  d E =-.152102E+00  mag=     3.0000
       N       E                     dE             d eps       ncg     rms          rms(c)
DAV:   1    -0.232531818789E+04    0.49040E-01   -0.15112E+01  4504   0.301E+00    0.104E+00
RMM:   2    -0.232549851225E+04   -0.18032E+00   -0.18455E+00  6610   0.728E-01    0.101E+00
RMM:   3    -0.232550697657E+04   -0.84643E-02   -0.17792E-01  6380   0.243E-01    0.977E-01
RMM:   4    -0.232549883400E+04    0.81426E-02   -0.22509E-02  6349   0.661E-02    0.421E-01
RMM:   5    -0.232549906581E+04   -0.23181E-03   -0.65915E-03  5932   0.383E-02    0.460E-01
RMM:   6    -0.232549705652E+04    0.20093E-02   -0.49057E-03  5991   0.363E-02    0.181E-01
RMM:   7    -0.232549672563E+04    0.33089E-03   -0.13213E-03  4840   0.206E-02    0.819E-02
RMM:   8    -0.232549670057E+04    0.25054E-04   -0.23958E-04  3405   0.855E-03    0.696E-02
RMM:   9    -0.232549665998E+04    0.40591E-04   -0.87693E-05  3026   0.588E-03    0.367E-02
RMM:  10    -0.232549665894E+04    0.10464E-05   -0.30731E-05  2956   0.409E-03
  10 F= -.23469607E+04 E0= -.23469607E+04  d E =-.127755E+00  mag=     3.0000
       N       E                     dE             d eps       ncg     rms          rms(c)
DAV:   1    -0.232545751092E+04    0.39149E-01   -0.50429E+00  4528   0.176E+00    0.598E-01
RMM:   2    -0.232551666080E+04   -0.59150E-01   -0.61281E-01  6623   0.418E-01    0.542E-01
RMM:   3    -0.232552042638E+04   -0.37656E-02   -0.59403E-02  6309   0.140E-01    0.577E-01
RMM:   4    -0.232551766902E+04    0.27574E-02   -0.77164E-03  6024   0.384E-02    0.243E-01
RMM:   5    -0.232551768549E+04   -0.16469E-04   -0.20957E-03  5388   0.221E-02    0.254E-01
RMM:   6    -0.232551712347E+04    0.56202E-03   -0.15817E-03  5465   0.210E-02    0.112E-01
RMM:   7    -0.232551697993E+04    0.14353E-03   -0.45602E-04  3921   0.129E-02    0.426E-02
RMM:   8    -0.232551697789E+04    0.20442E-05   -0.67089E-05  3042   0.587E-03
  11 F= -.23469800E+04 E0= -.23469800E+04  d E =-.147115E+00  mag=     3.0000
       N       E                     dE             d eps       ncg     rms          rms(c)
DAV:   1    -0.232539838945E+04    0.11859E+00   -0.14428E+01  4504   0.308E+00    0.102E+00
RMM:   2    -0.232558434985E+04   -0.18596E+00   -0.19863E+00  6608   0.755E-01    0.647E-01
RMM:   3    -0.232559812250E+04   -0.13773E-01   -0.19285E-01  6276   0.255E-01    0.584E-01
RMM:   4    -0.232559752397E+04    0.59852E-03   -0.22348E-02  6278   0.584E-02    0.444E-01
RMM:   5    -0.232559645762E+04    0.10664E-02   -0.60194E-03  5910   0.368E-02    0.392E-01
RMM:   6    -0.232559572966E+04    0.72796E-03   -0.36852E-03  5549   0.337E-02    0.264E-01
RMM:   7    -0.232559511871E+04    0.61095E-03   -0.15186E-03  5217   0.210E-02    0.127E-01
RMM:   8    -0.232559496314E+04    0.15557E-03   -0.33623E-04  3407   0.105E-02    0.768E-02
RMM:   9    -0.232559492137E+04    0.41777E-04   -0.11228E-04  3258   0.613E-03    0.432E-02
RMM:  10    -0.232559491220E+04    0.91723E-05   -0.57603E-05  2981   0.510E-03
  12 F= -.23470562E+04 E0= -.23470562E+04  d E =-.761496E-01  mag=     3.0000
       N       E                     dE             d eps       ncg     rms          rms(c)
DAV:   1    -0.232559144117E+04    0.34802E-02   -0.41058E-01  4752   0.534E-01    0.172E-01
RMM:   2    -0.232559676109E+04   -0.53199E-02   -0.56674E-02  6594   0.128E-01    0.113E-01
RMM:   3    -0.232559714831E+04   -0.38723E-03   -0.52316E-03  4952   0.428E-02    0.993E-02
RMM:   4    -0.232559713254E+04    0.15774E-04   -0.66650E-04  3343   0.114E-02    0.883E-02
RMM:   5    -0.232559709335E+04    0.39190E-04   -0.15146E-04  3271   0.724E-03    0.726E-02
RMM:   6    -0.232559706214E+04    0.31209E-04   -0.15086E-04  3320   0.700E-03    0.395E-02
RMM:   7    -0.232559705567E+04    0.64708E-05   -0.37307E-05  2970   0.519E-03
  13 F= -.23470580E+04 E0= -.23470580E+04  d E =-.779780E-01  mag=     3.0000
       N       E                     dE             d eps       ncg     rms          rms(c)
DAV:   1    -0.232550735152E+04    0.89711E-01   -0.62757E+00  4528   0.236E+00    0.782E-01
RMM:   2    -0.232563611080E+04   -0.12876E+00   -0.13541E+00  6593   0.626E-01    0.622E-01
RMM:   3    -0.232564799889E+04   -0.11888E-01   -0.14954E-01  6297   0.238E-01    0.762E-01
RMM:   4    -0.232564291263E+04    0.50863E-02   -0.12982E-02  6083   0.522E-02    0.286E-01
RMM:   5    -0.232564234823E+04    0.56440E-03   -0.28482E-03  5675   0.257E-02    0.252E-01
RMM:   6    -0.232564197149E+04    0.37674E-03   -0.23172E-03  5361   0.247E-02    0.189E-01
RMM:   7    -0.232564158445E+04    0.38704E-03   -0.82085E-04  5326   0.158E-02    0.565E-02
RMM:   8    -0.232564155782E+04    0.26628E-04   -0.10451E-04  3011   0.779E-03    0.406E-02
RMM:   9    -0.232564154134E+04    0.16480E-04   -0.41521E-05  2955   0.470E-03    0.248E-02
RMM:  10    -0.232564153452E+04    0.68223E-05   -0.23278E-05  2967   0.372E-03
  14 F= -.23471014E+04 E0= -.23471014E+04  d E =-.433561E-01  mag=     3.0000
       N       E                     dE             d eps       ncg     rms          rms(c)
DAV:   1    -0.232558931835E+04    0.52223E-01   -0.29138E+00  4516   0.161E+00    0.529E-01
RMM:   2    -0.232564843484E+04   -0.59116E-01   -0.62426E-01  6579   0.426E-01    0.402E-01
RMM:   3    -0.232565412019E+04   -0.56854E-02   -0.68692E-02  6228   0.162E-01    0.510E-01
RMM:   4    -0.232565188571E+04    0.22345E-02   -0.58983E-03  5610   0.351E-02    0.193E-01
RMM:   5    -0.232565158777E+04    0.29793E-03   -0.13239E-03  5450   0.182E-02    0.160E-01
RMM:   6    -0.232565145635E+04    0.13142E-03   -0.10831E-03  4868   0.174E-02    0.127E-01
RMM:   7    -0.232565128281E+04    0.17354E-03   -0.34831E-04  4508   0.109E-02    0.369E-02
RMM:   8    -0.232565126753E+04    0.15274E-04   -0.41306E-05  2927   0.586E-03    0.241E-02
RMM:   9    -0.232565126321E+04    0.43181E-05   -0.17611E-05  2932   0.330E-03
  15 F= -.23471104E+04 E0= -.23471104E+04  d E =-.523486E-01  mag=     3.0000
       N       E                     dE             d eps       ncg     rms          rms(c)
DAV:   1    -0.232560847455E+04    0.42793E-01   -0.55561E+00  4504   0.244E+00    0.770E-01
RMM:   2    -0.232567830029E+04   -0.69826E-01   -0.74880E-01  6334   0.562E-01    0.405E-01
RMM:   3    -0.232568236575E+04   -0.40655E-02   -0.67517E-02  6037   0.195E-01    0.344E-01
RMM:   4    -0.232568159179E+04    0.77396E-03   -0.78430E-03  6281   0.494E-02    0.265E-01
RMM:   5    -0.232568119777E+04    0.39402E-03   -0.22951E-03  5411   0.302E-02    0.216E-01
RMM:   6    -0.232568091483E+04    0.28294E-03   -0.11879E-03  5285   0.204E-02    0.154E-01
RMM:   7    -0.232568067983E+04    0.23500E-03   -0.31653E-04  4423   0.116E-02    0.473E-02
RMM:   8    -0.232568065264E+04    0.27190E-04   -0.49391E-05  3015   0.578E-03    0.248E-02
RMM:   9    -0.232568065281E+04   -0.16690E-06   -0.27277E-05  2919   0.417E-03
  16 F= -.23471396E+04 E0= -.23471396E+04  d E =-.292662E-01  mag=     3.0000
       N       E                     dE             d eps       ncg     rms          rms(c)
DAV:   1    -0.232567621647E+04    0.44362E-02   -0.47346E-01  4640   0.712E-01    0.225E-01
RMM:   2    -0.232568216750E+04   -0.59510E-02   -0.63746E-02  6374   0.165E-01    0.124E-01
RMM:   3    -0.232568253174E+04   -0.36424E-03   -0.56937E-03  5892   0.550E-02    0.116E-01
RMM:   4    -0.232568242922E+04    0.10252E-03   -0.65719E-04  4040   0.140E-02    0.819E-02
RMM:   5    -0.232568241887E+04    0.10350E-04   -0.22606E-04  4179   0.104E-02    0.770E-02
RMM:   6    -0.232568236156E+04    0.57308E-04   -0.12452E-04  3413   0.819E-03    0.387E-02
RMM:   7    -0.232568234600E+04    0.15560E-04   -0.35060E-05  3031   0.566E-03    0.152E-02
RMM:   8    -0.232568234509E+04    0.91449E-06   -0.11190E-05  2895   0.365E-03
  17 F= -.23471413E+04 E0= -.23471413E+04  d E =-.309233E-01  mag=     3.0000
       N       E                     dE             d eps       ncg     rms          rms(c)
DAV:   1    -0.232567948148E+04    0.28645E-02   -0.19444E+00  4528   0.135E+00    0.387E-01
RMM:   2    -0.232570580440E+04   -0.26323E-01   -0.26465E-01  6599   0.309E-01    0.424E-01
RMM:   3    -0.232570671653E+04   -0.91213E-03   -0.27179E-02  6213   0.976E-02    0.313E-01
RMM:   4    -0.232570599665E+04    0.71988E-03   -0.29216E-03  5334   0.256E-02    0.163E-01
RMM:   5    -0.232570595593E+04    0.40723E-04   -0.74686E-04  4362   0.151E-02    0.159E-01
RMM:   6    -0.232570567799E+04    0.27793E-03   -0.57465E-04  4923   0.148E-02    0.562E-02
RMM:   7    -0.232570568803E+04   -0.10038E-04   -0.18666E-04  3355   0.926E-03    0.553E-02
RMM:   8    -0.232570565343E+04    0.34598E-04   -0.54402E-05  2990   0.528E-03    0.183E-02
RMM:   9    -0.232570565582E+04   -0.23832E-05   -0.89519E-06  2915   0.295E-03
  18 F= -.23471649E+04 E0= -.23471649E+04  d E =-.236143E-01  mag=     3.0000
       N       E                     dE             d eps       ncg     rms          rms(c)
DAV:   1    -0.232550446273E+04    0.20119E+00   -0.17533E+01  4504   0.405E+00    0.116E+00
RMM:   2    -0.232573927681E+04   -0.23481E+00   -0.23920E+00  6607   0.922E-01    0.119E+00
RMM:   3    -0.232575200019E+04   -0.12723E-01   -0.25915E-01  6375   0.299E-01    0.951E-01
RMM:   4    -0.232574452318E+04    0.74770E-02   -0.25366E-02  6206   0.749E-02    0.462E-01
RMM:   5    -0.232574469870E+04   -0.17551E-03   -0.64714E-03  5797   0.429E-02    0.480E-01
RMM:   6    -0.232574212654E+04    0.25722E-02   -0.54568E-03  5644   0.419E-02    0.168E-01
RMM:   7    -0.232574218716E+04   -0.60619E-04   -0.15502E-03  5164   0.227E-02    0.157E-01
RMM:   8    -0.232574189416E+04    0.29301E-03   -0.43926E-04  3659   0.115E-02    0.552E-02
RMM:   9    -0.232574190713E+04   -0.12969E-04   -0.85936E-05  3263   0.615E-03    0.321E-02
RMM:  10    -0.232574195446E+04   -0.47338E-04   -0.74241E-05  3170   0.616E-03    0.146E-02
RMM:  11    -0.232574198174E+04   -0.27276E-04   -0.12844E-05  2926   0.379E-03    0.848E-03
RMM:  12    -0.232574200619E+04   -0.24453E-04   -0.62290E-06  2838   0.259E-03    0.560E-03
RMM:  13    -0.232574202216E+04   -0.15968E-04   -0.31967E-06  2737   0.218E-03    0.392E-03
RMM:  14    -0.232574203737E+04   -0.15214E-04   -0.34518E-06  2603   0.180E-03    0.252E-03
RMM:  15    -0.232574204326E+04   -0.58906E-05   -0.19846E-06  2615   0.176E-03
  19 F= -.23472023E+04 E0= -.23472023E+04  d E =-.610061E-01  mag=     3.0000
       N       E                     dE             d eps       ncg     rms          rms(c)
DAV:   1    -0.232571885731E+04    0.23180E-01   -0.31275E+00  4516   0.176E+00    0.568E-01
RMM:   2    -0.232576487597E+04   -0.46019E-01   -0.48625E-01  6443   0.413E-01    0.403E-01
RMM:   3    -0.232576883018E+04   -0.39542E-02   -0.51022E-02  6211   0.152E-01    0.398E-01
RMM:   4    -0.232576686902E+04    0.19612E-02   -0.54311E-03  5930   0.392E-02    0.219E-01
RMM:   5    -0.232576687772E+04   -0.87015E-05   -0.16123E-03  5162   0.197E-02    0.239E-01
RMM:   6    -0.232576628354E+04    0.59418E-03   -0.11516E-03  5424   0.205E-02    0.674E-02
RMM:   7    -0.232576628405E+04   -0.50914E-06   -0.27605E-04  3720   0.127E-02    0.679E-02
RMM:   8    -0.232576622631E+04    0.57739E-04   -0.72800E-05  2986   0.589E-03    0.203E-02
RMM:   9    -0.232576622507E+04    0.12428E-05   -0.15550E-05  2955   0.363E-03
  20 F= -.23472268E+04 E0= -.23472268E+04  d E =-.244865E-01  mag=     3.0000
       N       E                     dE             d eps       ncg     rms          rms(c)
DAV:   1    -0.232573037812E+04    0.35848E-01   -0.28492E+00  4528   0.168E+00    0.542E-01
RMM:   2    -0.232577249996E+04   -0.42122E-01   -0.44397E-01  6451   0.392E-01    0.395E-01
RMM:   3    -0.232577599389E+04   -0.34939E-02   -0.46310E-02  6242   0.144E-01    0.385E-01
RMM:   4    -0.232577414263E+04    0.18513E-02   -0.49902E-03  5857   0.373E-02    0.212E-01
RMM:   5    -0.232577408623E+04    0.56409E-04   -0.14034E-03  5082   0.185E-02    0.218E-01
RMM:   6    -0.232577358506E+04    0.50117E-03   -0.10422E-03  5377   0.199E-02    0.624E-02
RMM:   7    -0.232577358636E+04   -0.13003E-05   -0.25208E-04  3712   0.123E-02    0.635E-02
RMM:   8    -0.232577353730E+04    0.49058E-04   -0.68906E-05  2979   0.564E-03    0.201E-02
RMM:   9    -0.232577353637E+04    0.93260E-06   -0.14443E-05  2949   0.357E-03
  21 F= -.23472344E+04 E0= -.23472344E+04  d E =-.320918E-01  mag=     3.0000
       N       E                     dE             d eps       ncg     rms          rms(c)
DAV:   1    -0.232575085950E+04    0.22678E-01   -0.21029E+00  4528   0.135E+00    0.430E-01
RMM:   2    -0.232579094546E+04   -0.40086E-01   -0.41056E-01  6601   0.342E-01    0.424E-01
RMM:   3    -0.232579307237E+04   -0.21269E-02   -0.42733E-02  6258   0.124E-01    0.321E-01
RMM:   4    -0.232579198779E+04    0.10846E-02   -0.41152E-03  5386   0.281E-02    0.188E-01
RMM:   5    -0.232579181696E+04    0.17083E-03   -0.79507E-04  3960   0.135E-02    0.150E-01
RMM:   6    -0.232579158189E+04    0.23508E-03   -0.72160E-04  5018   0.160E-02    0.539E-02
RMM:   7    -0.232579157953E+04    0.23544E-05   -0.18323E-04  3292   0.102E-02    0.520E-02
RMM:   8    -0.232579154727E+04    0.32258E-04   -0.50147E-05  2962   0.515E-03    0.177E-02
RMM:   9    -0.232579154462E+04    0.26560E-05   -0.95579E-06  2932   0.297E-03
  22 F= -.23472526E+04 E0= -.23472526E+04  d E =-.182607E-01  mag=     3.0000
       N       E                     dE             d eps       ncg     rms          rms(c)
DAV:   1    -0.232545962568E+04    0.33192E+00   -0.18890E+01  4504   0.403E+00    0.129E+00
RMM:   2    -0.232582273166E+04   -0.36311E+00   -0.37502E+00  6623   0.104E+00    0.120E+00
RMM:   3    -0.232584698597E+04   -0.24254E-01   -0.40756E-01  6413   0.374E-01    0.977E-01
RMM:   4    -0.232583627848E+04    0.10707E-01   -0.37916E-02  6130   0.854E-02    0.540E-01
RMM:   5    -0.232583472505E+04    0.15534E-02   -0.68401E-03  5714   0.354E-02    0.450E-01
RMM:   6    -0.232583255193E+04    0.21731E-02   -0.63033E-03  5535   0.439E-02    0.164E-01
RMM:   7    -0.232583281083E+04   -0.25890E-03   -0.20504E-03  5312   0.276E-02    0.197E-01
RMM:   8    -0.232583227207E+04    0.53875E-03   -0.47996E-04  3950   0.122E-02    0.455E-02
RMM:   9    -0.232583223855E+04    0.33519E-04   -0.10921E-04  3316   0.645E-03    0.375E-02
RMM:  10    -0.232583222019E+04    0.18364E-04   -0.93708E-05  3016   0.699E-03    0.117E-02
RMM:  11    -0.232583222224E+04   -0.20504E-05   -0.15485E-05  2950   0.392E-03
  23 F= -.23472940E+04 E0= -.23472940E+04  d E =-.596144E-01  mag=     3.0000
       N       E                     dE             d eps       ncg     rms          rms(c)
DAV:   1    -0.232429256090E+04    0.15397E+01   -0.75370E+01  4504   0.804E+00    0.262E+00
RMM:   2    -0.232581491745E+04   -0.15224E+01   -0.15745E+01  6644   0.217E+00    0.242E+00
RMM:   3    -0.232590459043E+04   -0.89673E-01   -0.17285E+00  6249   0.786E-01    0.185E+00
RMM:   4    -0.232586593270E+04    0.38658E-01   -0.16532E-01  6269   0.177E-01    0.112E+00
RMM:   5    -0.232585786014E+04    0.80726E-02   -0.26672E-02  5925   0.660E-02    0.883E-01
RMM:   6    -0.232584976601E+04    0.80941E-02   -0.23258E-02  5637   0.802E-02    0.440E-01
RMM:   7    -0.232585091311E+04   -0.11471E-02   -0.12544E-02  5840   0.624E-02    0.464E-01
RMM:   8    -0.232584785205E+04    0.30611E-02   -0.21665E-03  5503   0.268E-02    0.109E-01
RMM:   9    -0.232584754788E+04    0.30416E-03   -0.76203E-04  4535   0.152E-02    0.499E-02
RMM:  10    -0.232584751937E+04    0.28518E-04   -0.25659E-04  3548   0.998E-03    0.177E-02
RMM:  11    -0.232584751895E+04    0.41431E-06   -0.39378E-05  2991   0.541E-03
  24 F= -.23473101E+04 E0= -.23473101E+04  d E =-.757639E-01  mag=     3.0000
       N       E                     dE             d eps       ncg     rms          rms(c)
DAV:   1    -0.232568359593E+04    0.16392E+00   -0.88052E+00  4496   0.271E+00    0.920E-01
RMM:   2    -0.232586102932E+04   -0.17743E+00   -0.17489E+00  6646   0.708E-01    0.109E+00
RMM:   3    -0.232585742589E+04    0.36034E-02   -0.18688E-01  6287   0.258E-01    0.549E-01
RMM:   4    -0.232585514120E+04    0.22847E-02   -0.19682E-02  6093   0.560E-02    0.426E-01
RMM:   5    -0.232585382099E+04    0.13202E-02   -0.29397E-03  5417   0.243E-02    0.265E-01
RMM:   6    -0.232585313257E+04    0.68842E-03   -0.20589E-03  5492   0.253E-02    0.138E-01
RMM:   7    -0.232585289908E+04    0.23349E-03   -0.10847E-03  5075   0.218E-02    0.495E-02
RMM:   8    -0.232585288402E+04    0.15059E-04   -0.12346E-04  3244   0.733E-03    0.442E-02
RMM:   9    -0.232585285906E+04    0.24966E-04   -0.33915E-05  2905   0.518E-03    0.226E-02
RMM:  10    -0.232585284869E+04    0.10369E-04   -0.35949E-05  2943   0.376E-03    0.622E-03
RMM:  11    -0.232585284873E+04   -0.38417E-07   -0.64196E-06  2880   0.256E-03
  25 F= -.23473152E+04 E0= -.23473152E+04  d E =-.808660E-01  mag=     3.0000
       N       E                     dE             d eps       ncg     rms          rms(c)
DAV:   1    -0.232584008997E+04    0.12759E-01   -0.14561E+00  4560   0.108E+00    0.370E-01
RMM:   2    -0.232587068770E+04   -0.30598E-01   -0.30285E-01  6646   0.287E-01    0.445E-01
RMM:   3    -0.232587059320E+04    0.94502E-04   -0.30706E-02  6181   0.105E-01    0.225E-01
RMM:   4    -0.232587016729E+04    0.42591E-03   -0.30942E-03  4949   0.219E-02    0.162E-01
RMM:   5    -0.232587000292E+04    0.16436E-03   -0.47275E-04  3305   0.105E-02    0.112E-01
RMM:   6    -0.232586987347E+04    0.12946E-03   -0.49022E-04  4704   0.132E-02    0.425E-02
RMM:   7    -0.232586986364E+04    0.98294E-05   -0.10766E-04  3086   0.779E-03    0.342E-02
RMM:   8    -0.232586984859E+04    0.15052E-04   -0.28084E-05  2908   0.403E-03    0.147E-02
RMM:   9    -0.232586984491E+04    0.36755E-05   -0.57984E-06  2852   0.226E-03
  26 F= -.23473323E+04 E0= -.23473323E+04  d E =-.170698E-01  mag=     3.0000
       N       E                     dE             d eps       ncg     rms          rms(c)
DAV:   1    -0.232564367349E+04    0.22618E+00   -0.13110E+01  4504   0.323E+00    0.111E+00
RMM:   2    -0.232592339683E+04   -0.27972E+00   -0.27783E+00  6680   0.892E-01    0.134E+00
RMM:   3    -0.232592243943E+04    0.95740E-03   -0.28169E-01  6446   0.308E-01    0.684E-01
RMM:   4    -0.232591891064E+04    0.35288E-02   -0.29448E-02  6088   0.672E-02    0.512E-01
RMM:   5    -0.232591699324E+04    0.19174E-02   -0.45316E-03  5416   0.283E-02    0.332E-01
RMM:   6    -0.232591601176E+04    0.98148E-03   -0.44106E-03  5619   0.365E-02    0.179E-01
RMM:   7    -0.232591588169E+04    0.13007E-03   -0.14231E-03  4987   0.224E-02    0.137E-01
RMM:   8    -0.232591560841E+04    0.27328E-03   -0.22321E-04  3186   0.876E-03    0.354E-02
RMM:   9    -0.232591557817E+04    0.30242E-04   -0.74756E-05  3055   0.557E-03    0.204E-02
RMM:  10    -0.232591557309E+04    0.50851E-05   -0.43948E-05  2934   0.479E-03
  27 F= -.23473783E+04 E0= -.23473783E+04  d E =-.630223E-01  mag=     3.0000
       N       E                     dE             d eps       ncg     rms          rms(c)
DAV:   1    -0.232483903438E+04    0.10765E+01   -0.52404E+01  4504   0.650E+00    0.228E+00
RMM:   2    -0.232602257846E+04   -0.11835E+01   -0.11745E+01  6711   0.188E+00    0.278E+00
RMM:   3    -0.232600027829E+04    0.22300E-01   -0.11968E+00  6327   0.628E-01    0.140E+00
RMM:   4    -0.232598736569E+04    0.12913E-01   -0.13218E-01  6274   0.145E-01    0.112E+00
RMM:   5    -0.232597675587E+04    0.10610E-01   -0.20089E-02  5935   0.588E-02    0.670E-01
RMM:   6    -0.232597509097E+04    0.16649E-02   -0.16339E-02  5833   0.652E-02    0.595E-01
RMM:   7    -0.232597200172E+04    0.30893E-02   -0.10124E-02  6013   0.545E-02    0.267E-01
RMM:   8    -0.232597101563E+04    0.98608E-03   -0.11351E-03  5014   0.178E-02    0.984E-02
RMM:   9    -0.232597083328E+04    0.18236E-03   -0.35593E-04  3555   0.123E-02    0.460E-02
RMM:  10    -0.232597079348E+04    0.39800E-04   -0.21677E-04  3838   0.788E-03    0.173E-02
RMM:  11    -0.232597079170E+04    0.17824E-05   -0.18289E-05  2962   0.506E-03
  28 F= -.23474348E+04 E0= -.23474348E+04  d E =-.119558E+00  mag=     3.0000
       N       E                     dE             d eps       ncg     rms          rms(c)
DAV:   1    -0.232583608878E+04    0.13470E+00   -0.94624E+00  4504   0.270E+00    0.106E+00
RMM:   2    -0.232607774000E+04   -0.24165E+00   -0.22622E+00  6694   0.833E-01    0.159E+00
RMM:   3    -0.232605275333E+04    0.24987E-01   -0.20510E-01  6413   0.260E-01    0.552E-01
RMM:   4    -0.232605222074E+04    0.53259E-03   -0.25871E-02  6048   0.606E-02    0.548E-01
RMM:   5    -0.232604970553E+04    0.25152E-02   -0.39726E-03  5302   0.274E-02    0.264E-01
RMM:   6    -0.232604940391E+04    0.30162E-03   -0.35260E-03  5782   0.326E-02    0.219E-01
RMM:   7    -0.232604891041E+04    0.49351E-03   -0.13022E-03  5189   0.211E-02    0.938E-02
RMM:   8    -0.232604877326E+04    0.13715E-03   -0.19393E-04  3312   0.764E-03    0.350E-02
RMM:   9    -0.232604875073E+04    0.22531E-04   -0.50177E-05  2997   0.559E-03    0.195E-02
RMM:  10    -0.232604874472E+04    0.60115E-05   -0.37846E-05  2984   0.396E-03
  29 F= -.23475135E+04 E0= -.23475135E+04  d E =-.786545E-01  mag=     3.0000
       N       E                     dE             d eps       ncg     rms          rms(c)
DAV:   1    -0.232419812212E+04    0.18506E+01   -0.85114E+01  4496   0.819E+00    0.337E+00
RMM:   2    -0.232667992694E+04   -0.24818E+01   -0.22852E+01  6713   0.272E+00    0.536E+00
RMM:   3    -0.232627256160E+04    0.40737E+00   -0.21356E+00  5951   0.886E-01    0.200E+00
RMM:   4    -0.232625577526E+04    0.16786E-01   -0.29638E-01  6564   0.215E-01    0.177E+00
RMM:   5    -0.232622902962E+04    0.26746E-01   -0.38189E-02  6004   0.828E-02    0.821E-01
RMM:   6    -0.232623043987E+04   -0.14102E-02   -0.26877E-02  6175   0.834E-02    0.922E-01
RMM:   7    -0.232622196245E+04    0.84774E-02   -0.20299E-02  6270   0.716E-02    0.377E-01
RMM:   8    -0.232621988779E+04    0.20747E-02   -0.42045E-03  5917   0.360E-02    0.107E-01
RMM:   9    -0.232621966982E+04    0.21796E-03   -0.66154E-04  4652   0.138E-02    0.668E-02
RMM:  10    -0.232621961914E+04    0.50683E-04   -0.22851E-04  3815   0.102E-02    0.247E-02
RMM:  11    -0.232621961651E+04    0.26334E-05   -0.40556E-05  2974   0.521E-03
  30 F= -.23476874E+04 E0= -.23476874E+04  d E =-.252640E+00  mag=     3.0000
       N       E                     dE             d eps       ncg     rms          rms(c)
DAV:   1    -0.231682842264E+04    0.93912E+01   -0.34771E+02  4488   0.170E+01    0.708E+00
RMM:   2    -0.233098265468E+04   -0.14154E+02   -0.12207E+02  6749   0.642E+00    0.143E+01
RMM:   3    -0.232638326036E+04    0.45994E+01   -0.95906E+00  5404   0.210E+00    0.632E+00
RMM:   4    -0.232595901337E+04    0.42425E+00   -0.14048E+00  6680   0.508E-01    0.400E+00
RMM:   5    -0.232587843719E+04    0.80576E-01   -0.20639E-01  6006   0.191E-01    0.209E+00
RMM:   6    -0.232587182453E+04    0.66127E-02   -0.71216E-02  6042   0.129E-01    0.209E+00
RMM:   7    -0.232584498977E+04    0.26835E-01   -0.10033E-01  6410   0.164E-01    0.139E+00
RMM:   8    -0.232581927153E+04    0.25718E-01   -0.56968E-02  6017   0.120E-01    0.421E-01
RMM:   9    -0.232581869443E+04    0.57709E-03   -0.60945E-03  5362   0.499E-02    0.265E-01
RMM:  10    -0.232581870185E+04   -0.74205E-05   -0.10040E-03  4735   0.213E-02    0.135E-01
RMM:  11    -0.232581866461E+04    0.37243E-04   -0.37443E-04  3967   0.119E-02    0.421E-02
RMM:  12    -0.232581868995E+04   -0.25342E-04   -0.11282E-04  3506   0.746E-03    0.243E-02
RMM:  13    -0.232581870326E+04   -0.13310E-04   -0.19727E-05  2951   0.483E-03    0.156E-02
RMM:  14    -0.232581871203E+04   -0.87668E-05   -0.87586E-06  2872   0.350E-03
  31 F= -.23472933E+04 E0= -.23472933E+04  d E =0.141501E+00  mag=     2.9950
       N       E                     dE             d eps       ncg     rms          rms(c)
DAV:   1    -0.231934708037E+04    0.64716E+01   -0.25827E+02  4496   0.149E+01    0.564E+00
RMM:   2    -0.232723016015E+04   -0.78831E+01   -0.74528E+01  6742   0.501E+00    0.885E+00
RMM:   3    -0.232644019341E+04    0.78997E+00   -0.70402E+00  5831   0.154E+00    0.358E+00
RMM:   4    -0.232633205247E+04    0.10814E+00   -0.71707E-01  6197   0.337E-01    0.295E+00
RMM:   5    -0.232628510015E+04    0.46952E-01   -0.11431E-01  6319   0.146E-01    0.169E+00
RMM:   6    -0.232626352019E+04    0.21580E-01   -0.47970E-02  5895   0.110E-01    0.135E+00
RMM:   7    -0.232624941299E+04    0.14107E-01   -0.70260E-02  6132   0.143E-01    0.797E-01
RMM:   8    -0.232624218173E+04    0.72313E-02   -0.17274E-02  6422   0.676E-02    0.376E-01
RMM:   9    -0.232624085701E+04    0.13247E-02   -0.28159E-03  5437   0.319E-02    0.212E-01
RMM:  10    -0.232624039795E+04    0.45906E-03   -0.90627E-04  4424   0.164E-02    0.849E-02
RMM:  11    -0.232624039150E+04    0.64525E-05   -0.41611E-04  4195   0.126E-02    0.413E-02
RMM:  12    -0.232624040518E+04   -0.13681E-04   -0.64323E-05  3244   0.601E-03    0.165E-02
RMM:  13    -0.232624041404E+04   -0.88650E-05   -0.13670E-05  2906   0.436E-03
  32 F= -.23477092E+04 E0= -.23477092E+04  d E =-.274359E+00  mag=     2.9976
       N       E                     dE             d eps       ncg     rms          rms(c)
DAV:   1    -0.232578509630E+04    0.45531E+00   -0.27324E+01  4504   0.461E+00    0.196E+00
RMM:   2    -0.232655195195E+04   -0.76686E+00   -0.69046E+00  6666   0.152E+00    0.328E+00
RMM:   3    -0.232641210966E+04    0.13984E+00   -0.59261E-01  6069   0.453E-01    0.110E+00
RMM:   4    -0.232640640997E+04    0.56997E-02   -0.85837E-02  6505   0.122E-01    0.978E-01
RMM:   5    -0.232639812348E+04    0.82865E-02   -0.12920E-02  5894   0.482E-02    0.445E-01
RMM:   6    -0.232639766725E+04    0.45624E-03   -0.84445E-03  6113   0.481E-02    0.458E-01
RMM:   7    -0.232639596890E+04    0.16984E-02   -0.57259E-03  6081   0.402E-02    0.232E-01
RMM:   8    -0.232639510523E+04    0.86366E-03   -0.11957E-03  5355   0.185E-02    0.546E-02
RMM:   9    -0.232639506015E+04    0.45083E-04   -0.19570E-04  3354   0.810E-03    0.373E-02
RMM:  10    -0.232639504737E+04    0.12775E-04   -0.62536E-05  2999   0.639E-03    0.959E-03
RMM:  11    -0.232639504863E+04   -0.12558E-05   -0.14570E-05  2937   0.377E-03
  33 F= -.23478645E+04 E0= -.23478645E+04  d E =-.155361E+00  mag=     2.9996
       N       E                     dE             d eps       ncg     rms          rms(c)
DAV:   1    -0.232609294199E+04    0.30211E+00   -0.15643E+01  4504   0.351E+00    0.145E+00
RMM:   2    -0.232651239564E+04   -0.41945E+00   -0.38246E+00  6662   0.114E+00    0.234E+00
RMM:   3    -0.232644403382E+04    0.68362E-01   -0.32173E-01  6081   0.333E-01    0.818E-01
RMM:   4    -0.232644094371E+04    0.30901E-02   -0.46007E-02  6433   0.898E-02    0.725E-01
RMM:   5    -0.232643640258E+04    0.45411E-02   -0.72378E-03  5642   0.364E-02    0.335E-01
RMM:   6    -0.232643617055E+04    0.23203E-03   -0.50125E-03  6091   0.375E-02    0.351E-01
RMM:   7    -0.232643508377E+04    0.10868E-02   -0.32040E-03  5868   0.303E-02    0.163E-01
RMM:   8    -0.232643465768E+04    0.42609E-03   -0.60773E-04  4615   0.134E-02    0.419E-02
RMM:   9    -0.232643463230E+04    0.25379E-04   -0.10882E-04  3153   0.659E-03    0.263E-02
RMM:  10    -0.232643462773E+04    0.45776E-05   -0.35881E-05  2930   0.503E-03
  34 F= -.23479046E+04 E0= -.23479046E+04  d E =-.195452E+00  mag=     2.9999
       N       E                     dE             d eps       ncg     rms          rms(c)
DAV:   1    -0.232643639413E+04   -0.17618E-02   -0.43446E+00  4516   0.187E+00    0.743E-01
RMM:   2    -0.232652948157E+04   -0.93087E-01   -0.86306E-01  6529   0.495E-01    0.125E+00
RMM:   3    -0.232651893062E+04    0.10551E-01   -0.82695E-02  6274   0.161E-01    0.403E-01
RMM:   4    -0.232651792207E+04    0.10085E-02   -0.10246E-02  5932   0.422E-02    0.199E-01
RMM:   5    -0.232651768529E+04    0.23678E-03   -0.13880E-03  5624   0.212E-02    0.195E-01
RMM:   6    -0.232651742697E+04    0.25833E-03   -0.10459E-03  5241   0.187E-02    0.138E-01
RMM:   7    -0.232651716312E+04    0.26385E-03   -0.56015E-04  5158   0.144E-02    0.463E-02
RMM:   8    -0.232651715294E+04    0.10177E-04   -0.81104E-05  3004   0.686E-03    0.236E-02
RMM:   9    -0.232651715272E+04    0.22106E-06   -0.18986E-05  2932   0.399E-03
  35 F= -.23479865E+04 E0= -.23479865E+04  d E =-.818786E-01  mag=     3.0000
       N       E                     dE             d eps       ncg     rms          rms(c)
DAV:   1    -0.232636171337E+04    0.15544E+00   -0.11139E+01  4504   0.299E+00    0.120E+00
RMM:   2    -0.232660309531E+04   -0.24138E+00   -0.22508E+00  6501   0.798E-01    0.197E+00
RMM:   3    -0.232657430223E+04    0.28793E-01   -0.21439E-01  6296   0.262E-01    0.635E-01
RMM:   4    -0.232657176907E+04    0.25332E-02   -0.26571E-02  6149   0.679E-02    0.326E-01
RMM:   5    -0.232657118041E+04    0.58866E-03   -0.36682E-03  5960   0.338E-02    0.320E-01
RMM:   6    -0.232657048466E+04    0.69575E-03   -0.28191E-03  5819   0.300E-02    0.219E-01
RMM:   7    -0.232656984917E+04    0.63548E-03   -0.14572E-03  5514   0.221E-02    0.870E-02
RMM:   8    -0.232656980728E+04    0.41896E-04   -0.27732E-04  3571   0.113E-02    0.514E-02
RMM:   9    -0.232656978587E+04    0.21412E-04   -0.66369E-05  2993   0.622E-03    0.246E-02
RMM:  10    -0.232656980604E+04   -0.20174E-04   -0.43979E-05  2937   0.496E-03    0.158E-02
RMM:  11    -0.232656981617E+04   -0.10131E-04   -0.11287E-05  2917   0.382E-03    0.696E-03
RMM:  12    -0.232656982674E+04   -0.10565E-04   -0.65611E-06  2862   0.280E-03    0.415E-03
RMM:  13    -0.232656983758E+04   -0.10846E-04   -0.46210E-06  2840   0.261E-03    0.210E-03
RMM:  14    -0.232656984331E+04   -0.57277E-05   -0.30828E-06  2746   0.210E-03
  36 F= -.23480381E+04 E0= -.23480381E+04  d E =-.133522E+00  mag=     3.0000
       N       E                     dE             d eps       ncg     rms          rms(c)
DAV:   1    -0.232654993902E+04    0.19899E-01   -0.45959E+00  4504   0.193E+00    0.718E-01
RMM:   2    -0.232664529557E+04   -0.95357E-01   -0.88396E-01  6595   0.494E-01    0.121E+00
RMM:   3    -0.232663568701E+04    0.96086E-02   -0.81867E-02  6306   0.158E-01    0.347E-01
RMM:   4    -0.232663540390E+04    0.28311E-03   -0.10182E-02  5795   0.380E-02    0.198E-01
RMM:   5    -0.232663519115E+04    0.21276E-03   -0.12335E-03  5218   0.189E-02    0.192E-01
RMM:   6    -0.232663484077E+04    0.35038E-03   -0.82530E-04  5286   0.174E-02    0.140E-01
RMM:   7    -0.232663475879E+04    0.81981E-04   -0.64888E-04  4460   0.145E-02    0.861E-02
RMM:   8    -0.232663465737E+04    0.10141E-03   -0.16057E-04  3226   0.775E-03    0.245E-02
RMM:   9    -0.232663465398E+04    0.33928E-05   -0.19489E-05  2924   0.425E-03
  37 F= -.23481023E+04 E0= -.23481023E+04  d E =-.641438E-01  mag=     3.0000
       N       E                     dE             d eps       ncg     rms          rms(c)
DAV:   1    -0.232593862708E+04    0.69603E+00   -0.40976E+01  4504   0.578E+00    0.220E+00
RMM:   2    -0.232684663178E+04   -0.90800E+00   -0.83192E+00  6601   0.154E+00    0.376E+00
RMM:   3    -0.232672407179E+04    0.12256E+00   -0.79073E-01  6378   0.493E-01    0.966E-01
RMM:   4    -0.232672341006E+04    0.66173E-03   -0.99636E-02  6352   0.120E-01    0.622E-01
RMM:   5    -0.232672036522E+04    0.30448E-02   -0.11735E-02  6108   0.562E-02    0.532E-01
RMM:   6    -0.232671817839E+04    0.21868E-02   -0.72223E-03  5867   0.508E-02    0.424E-01
RMM:   7    -0.232671698306E+04    0.11953E-02   -0.52259E-03  5721   0.396E-02    0.213E-01
RMM:   8    -0.232671642068E+04    0.56238E-03   -0.12842E-03  5019   0.192E-02    0.876E-02
RMM:   9    -0.232671634807E+04    0.72603E-04   -0.14583E-04  3119   0.760E-03    0.428E-02
RMM:  10    -0.232671637939E+04   -0.31314E-04   -0.11918E-04  3135   0.693E-03    0.196E-02
RMM:  11    -0.232671640108E+04   -0.21693E-04   -0.30139E-05  2960   0.460E-03    0.107E-02
RMM:  12    -0.232671641570E+04   -0.14623E-04   -0.10333E-05  2884   0.368E-03    0.592E-03
RMM:  13    -0.232671643074E+04   -0.15038E-04   -0.69407E-06  2861   0.286E-03    0.294E-03
RMM:  14    -0.232671643942E+04   -0.86757E-05   -0.39523E-06  2798   0.253E-03
  38 F= -.23481818E+04 E0= -.23481818E+04  d E =-.143664E+00  mag=     3.0000
       N       E                     dE             d eps       ncg     rms          rms(c)
DAV:   1    -0.232660899965E+04    0.10743E+00   -0.87216E+00  4504   0.283E+00    0.958E-01
RMM:   2    -0.232678179534E+04   -0.17280E+00   -0.17356E+00  6651   0.727E-01    0.115E+00
RMM:   3    -0.232678375542E+04   -0.19601E-02   -0.17583E-01  6396   0.243E-01    0.622E-01
RMM:   4    -0.232678112229E+04    0.26331E-02   -0.18497E-02  6197   0.571E-02    0.297E-01
RMM:   5    -0.232678058823E+04    0.53406E-03   -0.24413E-03  5703   0.271E-02    0.264E-01
RMM:   6    -0.232677963034E+04    0.95789E-03   -0.24970E-03  5797   0.296E-02    0.130E-01
RMM:   7    -0.232677964066E+04   -0.10320E-04   -0.10073E-03  5255   0.192E-02    0.114E-01
RMM:   8    -0.232677945277E+04    0.18788E-03   -0.19518E-04  3288   0.860E-03    0.306E-02
RMM:   9    -0.232677943718E+04    0.15596E-04   -0.39716E-05  3021   0.493E-03    0.189E-02
RMM:  10    -0.232677943058E+04    0.65991E-05   -0.39730E-05  2928   0.433E-03
  39 F= -.23482451E+04 E0= -.23482451E+04  d E =-.632802E-01  mag=     3.0000
       N       E                     dE             d eps       ncg     rms          rms(c)
DAV:   1    -0.232662706741E+04    0.15237E+00   -0.89655E+00  4504   0.286E+00    0.974E-01
RMM:   2    -0.232680587883E+04   -0.17881E+00   -0.17903E+00  6648   0.737E-01    0.119E+00
RMM:   3    -0.232680693807E+04   -0.10592E-02   -0.18154E-01  6395   0.248E-01    0.629E-01
RMM:   4    -0.232680427793E+04    0.26601E-02   -0.19197E-02  6206   0.582E-02    0.305E-01
RMM:   5    -0.232680370028E+04    0.57765E-03   -0.25409E-03  5728   0.275E-02    0.269E-01
RMM:   6    -0.232680268868E+04    0.10116E-02   -0.25879E-03  5767   0.302E-02    0.133E-01
RMM:   7    -0.232680270128E+04   -0.12605E-04   -0.10430E-03  5257   0.197E-02    0.115E-01
RMM:   8    -0.232680250916E+04    0.19212E-03   -0.20386E-04  3313   0.874E-03    0.310E-02
RMM:   9    -0.232680249250E+04    0.16660E-04   -0.41180E-05  2991   0.514E-03    0.191E-02
RMM:  10    -0.232680248554E+04    0.69662E-05   -0.41767E-05  2938   0.443E-03
  40 F= -.23482684E+04 E0= -.23482684E+04  d E =-.866344E-01  mag=     3.0000
       N       E                     dE             d eps       ncg     rms          rms(c)
DAV:   1    -0.232677203663E+04    0.30456E-01   -0.44793E+00  4504   0.207E+00    0.615E-01
RMM:   2    -0.232684228189E+04   -0.70245E-01   -0.75363E-01  6605   0.516E-01    0.449E-01
RMM:   3    -0.232684711607E+04   -0.48342E-02   -0.73437E-02  6234   0.170E-01    0.405E-01
RMM:   4    -0.232684546427E+04    0.16518E-02   -0.72943E-03  6232   0.395E-02    0.252E-01
RMM:   5    -0.232684521283E+04    0.25144E-03   -0.19653E-03  5339   0.216E-02    0.221E-01
RMM:   6    -0.232684461791E+04    0.59492E-03   -0.15970E-03  5653   0.233E-02    0.936E-02
RMM:   7    -0.232684456414E+04    0.53775E-04   -0.35253E-04  4786   0.115E-02    0.500E-02
RMM:   8    -0.232684452669E+04    0.37450E-04   -0.82781E-05  2961   0.677E-03    0.331E-02
RMM:   9    -0.232684450918E+04    0.17508E-04   -0.23859E-05  2962   0.440E-03    0.153E-02
RMM:  10    -0.232684450246E+04    0.67157E-05   -0.30713E-05  2929   0.409E-03
  41 F= -.23483119E+04 E0= -.23483119E+04  d E =-.434685E-01  mag=     3.0000
       N       E                     dE             d eps       ncg     rms          rms(c)
DAV:   1    -0.232675897811E+04    0.85531E-01   -0.63455E+00  4504   0.247E+00    0.729E-01
RMM:   2    -0.232685806072E+04   -0.99083E-01   -0.10651E+00  6603   0.609E-01    0.521E-01
RMM:   3    -0.232686515015E+04   -0.70894E-02   -0.10473E-01  6250   0.203E-01    0.487E-01
RMM:   4    -0.232686289237E+04    0.22578E-02   -0.10341E-02  6399   0.467E-02    0.306E-01
RMM:   5    -0.232686248026E+04    0.41211E-03   -0.27168E-03  5413   0.247E-02    0.260E-01
RMM:   6    -0.232686169364E+04    0.78662E-03   -0.23194E-03  5840   0.274E-02    0.119E-01
RMM:   7    -0.232686157248E+04    0.12116E-03   -0.53987E-04  5187   0.137E-02    0.560E-02
RMM:   8    -0.232686153087E+04    0.41612E-04   -0.11431E-04  3039   0.778E-03    0.427E-02
RMM:   9    -0.232686150405E+04    0.26814E-04   -0.37262E-05  3036   0.521E-03    0.204E-02
RMM:  10    -0.232686149202E+04    0.12028E-04   -0.53287E-05  2949   0.516E-03    0.112E-02
RMM:  11    -0.232686149081E+04    0.12164E-05   -0.10133E-05  2927   0.344E-03
  42 F= -.23483306E+04 E0= -.23483306E+04  d E =-.621700E-01  mag=     3.0000
       N       E                     dE             d eps       ncg     rms          rms(c)
DAV:   1    -0.232682193288E+04    0.39559E-01   -0.50386E+00  4504   0.236E+00    0.715E-01
RMM:   2    -0.232689589030E+04   -0.73957E-01   -0.77751E-01  6395   0.555E-01    0.534E-01
RMM:   3    -0.232689923981E+04   -0.33495E-02   -0.74092E-02  6202   0.194E-01    0.419E-01
RMM:   4    -0.232689677377E+04    0.24660E-02   -0.75712E-03  6225   0.467E-02    0.262E-01
RMM:   5    -0.232689668597E+04    0.87802E-04   -0.22565E-03  5297   0.230E-02    0.291E-01
RMM:   6    -0.232689580292E+04    0.88305E-03   -0.19361E-03  5675   0.255E-02    0.840E-02
RMM:   7    -0.232689579859E+04    0.43310E-05   -0.37609E-04  4811   0.139E-02    0.598E-02
RMM:   8    -0.232689574604E+04    0.52544E-04   -0.93815E-05  3076   0.658E-03    0.267E-02
RMM:   9    -0.232689573430E+04    0.11740E-04   -0.26667E-05  2983   0.452E-03    0.146E-02
RMM:  10    -0.232689573211E+04    0.21881E-05   -0.25185E-05  2929   0.415E-03
  43 F= -.23483670E+04 E0= -.23483670E+04  d E =-.364167E-01  mag=     3.0000
       N       E                     dE             d eps       ncg     rms          rms(c)
DAV:   1    -0.232683027662E+04    0.65458E-01   -0.52614E+00  4504   0.241E+00    0.732E-01
RMM:   2    -0.232690738036E+04   -0.77104E-01   -0.80949E-01  6412   0.565E-01    0.546E-01
RMM:   3    -0.232691097278E+04   -0.35924E-02   -0.77100E-02  6206   0.196E-01    0.434E-01
RMM:   4    -0.232690836776E+04    0.26050E-02   -0.79183E-03  6198   0.475E-02    0.272E-01
RMM:   5    -0.232690825132E+04    0.11644E-03   -0.23392E-03  5308   0.234E-02    0.296E-01
RMM:   6    -0.232690732488E+04    0.92644E-03   -0.20268E-03  5699   0.261E-02    0.871E-02
RMM:   7    -0.232690732631E+04   -0.14234E-05   -0.42367E-04  4865   0.146E-02    0.656E-02
RMM:   8    -0.232690726439E+04    0.61918E-04   -0.10617E-04  3170   0.692E-03    0.274E-02
RMM:   9    -0.232690725393E+04    0.10457E-04   -0.28649E-05  2985   0.464E-03    0.151E-02
RMM:  10    -0.232690725440E+04   -0.46844E-06   -0.28172E-05  2927   0.439E-03
  44 F= -.23483808E+04 E0= -.23483808E+04  d E =-.501543E-01  mag=     3.0000
       N       E                     dE             d eps       ncg     rms          rms(c)
DAV:   1    -0.232688732300E+04    0.19931E-01   -0.31574E+00  4528   0.182E+00    0.532E-01
RMM:   2    -0.232693766472E+04   -0.50342E-01   -0.52632E-01  6607   0.437E-01    0.437E-01
RMM:   3    -0.232694023005E+04   -0.25653E-02   -0.50692E-02  6317   0.144E-01    0.372E-01
RMM:   4    -0.232693884830E+04    0.13818E-02   -0.54183E-03  5840   0.348E-02    0.226E-01
RMM:   5    -0.232693863538E+04    0.21292E-03   -0.12034E-03  5121   0.165E-02    0.207E-01
RMM:   6    -0.232693814692E+04    0.48846E-03   -0.11652E-03  5344   0.196E-02    0.631E-02
RMM:   7    -0.232693816293E+04   -0.16007E-04   -0.31003E-04  4520   0.137E-02    0.567E-02
RMM:   8    -0.232693811522E+04    0.47712E-04   -0.64020E-05  3017   0.578E-03    0.193E-02
RMM:   9    -0.232693810662E+04    0.85980E-05   -0.19393E-05  2937   0.405E-03
  45 F= -.23484129E+04 E0= -.23484129E+04  d E =-.321806E-01  mag=     3.0000
       N       E                     dE             d eps       ncg     rms          rms(c)
DAV:   1    -0.232673277806E+04    0.20534E+00   -0.14491E+01  4504   0.392E+00    0.115E+00
RMM:   2    -0.232696542763E+04   -0.23265E+00   -0.24338E+00  6630   0.950E-01    0.952E-01
RMM:   3    -0.232697767053E+04   -0.12243E-01   -0.24793E-01  6449   0.315E-01    0.788E-01
RMM:   4    -0.232697133367E+04    0.63369E-02   -0.25331E-02  6295   0.760E-02    0.492E-01
RMM:   5    -0.232697020642E+04    0.11272E-02   -0.54322E-03  5751   0.328E-02    0.445E-01
RMM:   6    -0.232696800524E+04    0.22012E-02   -0.53271E-03  5631   0.399E-02    0.151E-01
RMM:   7    -0.232696811089E+04   -0.10565E-03   -0.17724E-03  5432   0.293E-02    0.147E-01
RMM:   8    -0.232696777613E+04    0.33477E-03   -0.37552E-04  4453   0.125E-02    0.432E-02
RMM:   9    -0.232696772238E+04    0.53753E-04   -0.10380E-04  3258   0.750E-03    0.220E-02
RMM:  10    -0.232696771399E+04    0.83803E-05   -0.64255E-05  3053   0.613E-03
  46 F= -.23484454E+04 E0= -.23484454E+04  d E =-.646575E-01  mag=     3.0000
       N       E                     dE             d eps       ncg     rms          rms(c)
DAV:   1    -0.232694573779E+04    0.21985E-01   -0.38602E+00  4504   0.187E+00    0.557E-01
RMM:   2    -0.232699808242E+04   -0.52345E-01   -0.56207E-01  6500   0.416E-01    0.449E-01
RMM:   3    -0.232700251346E+04   -0.44310E-02   -0.57944E-02  6188   0.143E-01    0.512E-01
RMM:   4    -0.232700044383E+04    0.20696E-02   -0.63633E-03  5854   0.353E-02    0.212E-01
RMM:   5    -0.232700033673E+04    0.10710E-03   -0.15386E-03  5552   0.200E-02    0.213E-01
RMM:   6    -0.232699986379E+04    0.47294E-03   -0.13143E-03  5607   0.196E-02    0.897E-02
RMM:   7    -0.232699978915E+04    0.74645E-04   -0.24574E-04  4288   0.106E-02    0.244E-02
RMM:   8    -0.232699977723E+04    0.11917E-04   -0.28860E-05  2951   0.538E-03    0.128E-02
RMM:   9    -0.232699977685E+04    0.37416E-06   -0.19221E-05  2946   0.371E-03
  47 F= -.23484778E+04 E0= -.23484778E+04  d E =-.323976E-01  mag=     3.0000
       N       E                     dE             d eps       ncg     rms          rms(c)
DAV:   1    -0.232688365117E+04    0.11613E+00   -0.99112E+00  4504   0.300E+00    0.895E-01
RMM:   2    -0.232701778463E+04   -0.13413E+00   -0.14413E+00  6485   0.669E-01    0.701E-01
RMM:   3    -0.232702968754E+04   -0.11903E-01   -0.15318E-01  6240   0.234E-01    0.811E-01
RMM:   4    -0.232702441762E+04    0.52699E-02   -0.16513E-02  6389   0.569E-02    0.346E-01
RMM:   5    -0.232702408355E+04    0.33407E-03   -0.39087E-03  5822   0.306E-02    0.344E-01
RMM:   6    -0.232702283295E+04    0.12506E-02   -0.34301E-03  6025   0.311E-02    0.142E-01
RMM:   7    -0.232702264671E+04    0.18624E-03   -0.65083E-04  5145   0.159E-02    0.400E-02
RMM:   8    -0.232702261805E+04    0.28658E-04   -0.73326E-05  3167   0.751E-03    0.234E-02
RMM:   9    -0.232702261610E+04    0.19474E-05   -0.48467E-05  3000   0.528E-03
  48 F= -.23485011E+04 E0= -.23485011E+04  d E =-.557249E-01  mag=     3.0000
       N       E                     dE             d eps       ncg     rms          rms(c)
DAV:   1    -0.232694804379E+04    0.74574E-01   -0.67128E+00  4504   0.259E+00    0.790E-01
RMM:   2    -0.232704739623E+04   -0.99352E-01   -0.10708E+00  6384   0.569E-01    0.506E-01
RMM:   3    -0.232705605952E+04   -0.86633E-02   -0.11385E-01  5976   0.222E-01    0.537E-01
RMM:   4    -0.232705428510E+04    0.17744E-02   -0.11299E-02  6402   0.489E-02    0.313E-01
RMM:   5    -0.232705379226E+04    0.49284E-03   -0.28846E-03  5634   0.278E-02    0.276E-01
RMM:   6    -0.232705303318E+04    0.75907E-03   -0.21170E-03  5956   0.257E-02    0.130E-01
RMM:   7    -0.232705284744E+04    0.18574E-03   -0.43849E-04  4805   0.131E-02    0.389E-02
RMM:   8    -0.232705283390E+04    0.13539E-04   -0.85862E-05  3185   0.788E-03    0.379E-02
RMM:   9    -0.232705281767E+04    0.16236E-04   -0.46447E-05  2976   0.513E-03    0.206E-02
RMM:  10    -0.232705280954E+04    0.81223E-05   -0.27867E-05  2929   0.423E-03
  49 F= -.23485318E+04 E0= -.23485318E+04  d E =-.307069E-01  mag=     3.0000
       N       E                     dE             d eps       ncg     rms          rms(c)
DAV:   1    -0.232701333992E+04    0.39478E-01   -0.29528E+00  4528   0.172E+00    0.523E-01
RMM:   2    -0.232705697015E+04   -0.43630E-01   -0.47024E-01  6395   0.376E-01    0.334E-01
RMM:   3    -0.232706065831E+04   -0.36882E-02   -0.48236E-02  5957   0.144E-01    0.356E-01
RMM:   4    -0.232705987077E+04    0.78754E-03   -0.49001E-03  5784   0.320E-02    0.205E-01
RMM:   5    -0.232705967739E+04    0.19339E-03   -0.13596E-03  5488   0.201E-02    0.186E-01
RMM:   6    -0.232705929941E+04    0.37798E-03   -0.94323E-04  5471   0.178E-02    0.783E-02
RMM:   7    -0.232705923430E+04    0.65110E-04   -0.16445E-04  3704   0.878E-03    0.265E-02
RMM:   8    -0.232705923042E+04    0.38799E-05   -0.41172E-05  2967   0.614E-03
  50 F= -.23485386E+04 E0= -.23485386E+04  d E =-.374555E-01  mag=     3.0000
       N       E                     dE             d eps       ncg     rms          rms(c)
DAV:   1    -0.232696463842E+04    0.94596E-01   -0.75481E+00  4504   0.269E+00    0.804E-01
RMM:   2    -0.232707456228E+04   -0.10992E+00   -0.11917E+00  6466   0.592E-01    0.491E-01
RMM:   3    -0.232708307646E+04   -0.85142E-02   -0.13047E-01  6033   0.227E-01    0.333E-01
RMM:   4    -0.232708308193E+04   -0.54704E-05   -0.11633E-02  6187   0.495E-02    0.329E-01
RMM:   5    -0.232708247094E+04    0.61099E-03   -0.32606E-03  5756   0.300E-02    0.276E-01
RMM:   6    -0.232708194372E+04    0.52722E-03   -0.19058E-03  5703   0.239E-02    0.168E-01
RMM:   7    -0.232708166238E+04    0.28135E-03   -0.51899E-04  4539   0.145E-02    0.505E-02
RMM:   8    -0.232708161238E+04    0.49996E-04   -0.84739E-05  3323   0.575E-03    0.347E-02
RMM:   9    -0.232708160015E+04    0.12229E-04   -0.61886E-05  2950   0.575E-03    0.307E-02
RMM:  10    -0.232708158379E+04    0.16363E-04   -0.37059E-05  2922   0.458E-03    0.120E-02
RMM:  11    -0.232708158260E+04    0.11901E-05   -0.10596E-05  2920   0.340E-03
  51 F= -.23485617E+04 E0= -.23485617E+04  d E =-.231074E-01  mag=     3.0000
       N       E                     dE             d eps       ncg     rms          rms(c)
DAV:   1    -0.232707024755E+04    0.11336E-01   -0.82255E-01  4640   0.892E-01    0.264E-01
RMM:   2    -0.232708215340E+04   -0.11906E-01   -0.12907E-01  6462   0.195E-01    0.157E-01
RMM:   3    -0.232708300124E+04   -0.84784E-03   -0.13248E-02  5775   0.731E-02    0.104E-01
RMM:   4    -0.232708302299E+04   -0.21753E-04   -0.12630E-03  4732   0.166E-02    0.111E-01
RMM:   5    -0.232708291783E+04    0.10517E-03   -0.41719E-04  4627   0.121E-02    0.792E-02
RMM:   6    -0.232708288849E+04    0.29334E-04   -0.17230E-04  3430   0.847E-03    0.602E-02
RMM:   7    -0.232708284941E+04    0.39084E-04   -0.48766E-05  2918   0.616E-03    0.129E-02
RMM:   8    -0.232708284704E+04    0.23665E-05   -0.10895E-05  2917   0.315E-03
  52 F= -.23485632E+04 E0= -.23485632E+04  d E =-.246196E-01  mag=     3.0000
       N       E                     dE             d eps       ncg     rms          rms(c)
DAV:   1    -0.232702786299E+04    0.54986E-01   -0.57739E+00  4504   0.235E+00    0.671E-01
RMM:   2    -0.232710087309E+04   -0.73010E-01   -0.77577E-01  6482   0.508E-01    0.508E-01
RMM:   3    -0.232710764502E+04   -0.67719E-02   -0.83422E-02  6201   0.181E-01    0.565E-01
RMM:   4    -0.232710504252E+04    0.26025E-02   -0.77890E-03  6108   0.409E-02    0.241E-01
RMM:   5    -0.232710430082E+04    0.74170E-03   -0.20419E-03  5182   0.256E-02    0.120E-01
RMM:   6    -0.232710436092E+04   -0.60102E-04   -0.99852E-04  5434   0.211E-02    0.111E-01
RMM:   7    -0.232710420913E+04    0.15179E-03   -0.28395E-04  3979   0.110E-02    0.506E-02
RMM:   8    -0.232710417274E+04    0.36390E-04   -0.45109E-05  3045   0.526E-03    0.196E-02
RMM:   9    -0.232710416264E+04    0.10099E-04   -0.31328E-05  2919   0.426E-03    0.113E-02
RMM:  10    -0.232710416187E+04    0.76929E-06   -0.97349E-06  2931   0.294E-03
  53 F= -.23485848E+04 E0= -.23485848E+04  d E =-.216108E-01  mag=     3.0000
       N       E                     dE             d eps       ncg     rms          rms(c)
DAV:   1    -0.232702720135E+04    0.76961E-01   -0.63969E+00  4504   0.247E+00    0.707E-01
RMM:   2    -0.232710852530E+04   -0.81324E-01   -0.86220E-01  6474   0.533E-01    0.550E-01
RMM:   3    -0.232711586731E+04   -0.73420E-02   -0.90664E-02  6214   0.188E-01    0.614E-01
RMM:   4    -0.232711276223E+04    0.31051E-02   -0.85719E-03  6127   0.431E-02    0.253E-01
RMM:   5    -0.232711196149E+04    0.80074E-03   -0.23498E-03  5284   0.272E-02    0.133E-01
RMM:   6    -0.232711206511E+04   -0.10362E-03   -0.12507E-03  5639   0.222E-02    0.134E-01
RMM:   7    -0.232711182360E+04    0.24151E-03   -0.36907E-04  4236   0.121E-02    0.511E-02
RMM:   8    -0.232711178541E+04    0.38190E-04   -0.54106E-05  3094   0.533E-03    0.213E-02
RMM:   9    -0.232711177400E+04    0.11406E-04   -0.37869E-05  2915   0.467E-03    0.141E-02
RMM:  10    -0.232711177328E+04    0.72137E-06   -0.13075E-05  2941   0.328E-03
  54 F= -.23485927E+04 E0= -.23485927E+04  d E =-.295309E-01  mag=     3.0000
       N       E                     dE             d eps       ncg     rms          rms(c)
DAV:   1    -0.232707450509E+04    0.37269E-01   -0.37489E+00  4504   0.192E+00    0.565E-01
RMM:   2    -0.232712966906E+04   -0.55164E-01   -0.57801E-01  6570   0.457E-01    0.470E-01
RMM:   3    -0.232713431015E+04   -0.46411E-02   -0.59460E-02  6262   0.151E-01    0.494E-01
RMM:   4    -0.232713224857E+04    0.20616E-02   -0.55489E-03  5957   0.344E-02    0.201E-01
RMM:   5    -0.232713201548E+04    0.23309E-03   -0.14292E-03  5364   0.213E-02    0.159E-01
RMM:   6    -0.232713181762E+04    0.19786E-03   -0.11065E-03  5374   0.191E-02    0.102E-01
RMM:   7    -0.232713168863E+04    0.12900E-03   -0.21674E-04  4161   0.101E-02    0.389E-02
RMM:   8    -0.232713167641E+04    0.12216E-04   -0.45449E-05  2978   0.617E-03    0.250E-02
RMM:   9    -0.232713166579E+04    0.10615E-04   -0.20799E-05  2965   0.377E-03    0.155E-02
RMM:  10    -0.232713166204E+04    0.37579E-05   -0.14482E-05  2897   0.326E-03
  55 F= -.23486124E+04 E0= -.23486124E+04  d E =-.196318E-01  mag=     3.0000
       N       E                     dE             d eps       ncg     rms          rms(c)
DAV:   1    -0.232699829270E+04    0.13337E+00   -0.96051E+00  4504   0.308E+00    0.907E-01
RMM:   2    -0.232714031293E+04   -0.14202E+00   -0.14866E+00  6562   0.733E-01    0.773E-01
RMM:   3    -0.232715248151E+04   -0.12169E-01   -0.15842E-01  6322   0.245E-01    0.808E-01
RMM:   4    -0.232714689637E+04    0.55851E-02   -0.14124E-02  6240   0.554E-02    0.323E-01
RMM:   5    -0.232714627615E+04    0.62021E-03   -0.37583E-03  5727   0.341E-02    0.253E-01
RMM:   6    -0.232714583141E+04    0.44474E-03   -0.29279E-03  6045   0.297E-02    0.175E-01
RMM:   7    -0.232714545236E+04    0.37905E-03   -0.64975E-04  5250   0.159E-02    0.666E-02
RMM:   8    -0.232714541163E+04    0.40729E-04   -0.13122E-04  3340   0.834E-03    0.418E-02
RMM:   9    -0.232714538477E+04    0.26856E-04   -0.61190E-05  3153   0.561E-03    0.283E-02
RMM:  10    -0.232714537045E+04    0.14317E-04   -0.43927E-05  2911   0.495E-03    0.119E-02
RMM:  11    -0.232714536970E+04    0.75551E-06   -0.10924E-05  2931   0.315E-03
  56 F= -.23486257E+04 E0= -.23486257E+04  d E =-.329660E-01  mag=     3.0000
       N       E                     dE             d eps       ncg     rms          rms(c)
DAV:   1    -0.232707536098E+04    0.70009E-01   -0.52048E+00  4504   0.228E+00    0.693E-01
RMM:   2    -0.232716207854E+04   -0.86718E-01   -0.91489E-01  6623   0.574E-01    0.496E-01
RMM:   3    -0.232716951534E+04   -0.74368E-02   -0.97343E-02  6370   0.189E-01    0.499E-01
RMM:   4    -0.232716754116E+04    0.19742E-02   -0.87170E-03  6101   0.417E-02    0.283E-01
RMM:   5    -0.232716716795E+04    0.37321E-03   -0.21199E-03  5430   0.247E-02    0.208E-01
RMM:   6    -0.232716675173E+04    0.41621E-03   -0.17439E-03  5582   0.237E-02    0.114E-01
RMM:   7    -0.232716661724E+04    0.13450E-03   -0.35202E-04  4950   0.121E-02    0.545E-02
RMM:   8    -0.232716659513E+04    0.22105E-04   -0.77817E-05  3020   0.670E-03    0.356E-02
RMM:   9    -0.232716657637E+04    0.18764E-04   -0.36352E-05  2994   0.473E-03    0.234E-02
RMM:  10    -0.232716656751E+04    0.88549E-05   -0.28803E-05  2905   0.405E-03
  57 F= -.23486461E+04 E0= -.23486461E+04  d E =-.203437E-01  mag=     3.0000
       N       E                     dE             d eps       ncg     rms          rms(c)
DAV:   1    -0.232709641814E+04    0.70158E-01   -0.44689E+00  4520   0.211E+00    0.644E-01
RMM:   2    -0.232717117113E+04   -0.74753E-01   -0.78702E-01  6621   0.533E-01    0.479E-01
RMM:   3    -0.232717746364E+04   -0.62925E-02   -0.83502E-02  6348   0.174E-01    0.478E-01
RMM:   4    -0.232717556959E+04    0.18940E-02   -0.75050E-03  6033   0.388E-02    0.256E-01
RMM:   5    -0.232717530283E+04    0.26676E-03   -0.18284E-03  5326   0.230E-02    0.198E-01
RMM:   6    -0.232717488322E+04    0.41961E-03   -0.15093E-03  5503   0.223E-02    0.998E-02
RMM:   7    -0.232717478788E+04    0.95336E-04   -0.30128E-04  4796   0.113E-02    0.507E-02
RMM:   8    -0.232717476921E+04    0.18674E-04   -0.68641E-05  2985   0.645E-03    0.329E-02
RMM:   9    -0.232717475162E+04    0.17586E-04   -0.29151E-05  2960   0.443E-03    0.209E-02
RMM:  10    -0.232717474449E+04    0.71362E-05   -0.25242E-05  2900   0.386E-03
  58 F= -.23486535E+04 E0= -.23486535E+04  d E =-.277712E-01  mag=     3.0000
       N       E                     dE             d eps       ncg     rms          rms(c)
DAV:   1    -0.232714254826E+04    0.32203E-01   -0.33261E+00  4520   0.184E+00    0.573E-01
RMM:   2    -0.232718681423E+04   -0.44266E-01   -0.47146E-01  6471   0.424E-01    0.341E-01
RMM:   3    -0.232719057908E+04   -0.37648E-02   -0.49424E-02  6116   0.150E-01    0.351E-01
RMM:   4    -0.232718952290E+04    0.10562E-02   -0.48430E-03  6045   0.345E-02    0.229E-01
RMM:   5    -0.232718915731E+04    0.36559E-03   -0.14028E-03  5281   0.210E-02    0.138E-01
RMM:   6    -0.232718907004E+04    0.87271E-04   -0.10392E-03  5419   0.192E-02    0.107E-01
RMM:   7    -0.232718894167E+04    0.12836E-03   -0.18491E-04  3792   0.977E-03    0.338E-02
RMM:   8    -0.232718893394E+04    0.77326E-05   -0.41731E-05  2992   0.590E-03
  59 F= -.23486669E+04 E0= -.23486669E+04  d E =-.134302E-01  mag=     3.0000
       N       E                     dE             d eps       ncg     rms          rms(c)
DAV:   1    -0.232717123138E+04    0.17710E-01   -0.14886E+00  4592   0.123E+00    0.387E-01
RMM:   2    -0.232719123734E+04   -0.20006E-01   -0.21268E-01  6475   0.284E-01    0.245E-01
RMM:   3    -0.232719298345E+04   -0.17461E-02   -0.22004E-02  6048   0.996E-02    0.265E-01
RMM:   4    -0.232719231200E+04    0.67145E-03   -0.22216E-03  5540   0.237E-02    0.147E-01
RMM:   5    -0.232719220627E+04    0.10573E-03   -0.65640E-04  4684   0.148E-02    0.103E-01
RMM:   6    -0.232719210930E+04    0.96968E-04   -0.48513E-04  4998   0.137E-02    0.593E-02
RMM:   7    -0.232719207086E+04    0.38443E-04   -0.69680E-05  3069   0.694E-03    0.195E-02
RMM:   8    -0.232719206755E+04    0.33071E-05   -0.16718E-05  2952   0.454E-03
  60 F= -.23486696E+04 E0= -.23486696E+04  d E =-.160680E-01  mag=     3.0000
       N       E                     dE             d eps       ncg     rms          rms(c)
DAV:   1    -0.232717009763E+04    0.21973E-01   -0.26254E+00  4504   0.163E+00    0.476E-01
RMM:   2    -0.232720292682E+04   -0.32829E-01   -0.34655E-01  6491   0.348E-01    0.346E-01
RMM:   3    -0.232720596219E+04   -0.30354E-02   -0.34261E-02  6113   0.122E-01    0.394E-01
RMM:   4    -0.232720447338E+04    0.14888E-02   -0.35337E-03  5711   0.293E-02    0.163E-01
RMM:   5    -0.232720418669E+04    0.28670E-03   -0.90695E-04  4674   0.183E-02    0.730E-02
RMM:   6    -0.232720425699E+04   -0.70306E-04   -0.50048E-04  4767   0.158E-02    0.840E-02
RMM:   7    -0.232720416286E+04    0.94130E-04   -0.11138E-04  3160   0.786E-03    0.226E-02
RMM:   8    -0.232720415621E+04    0.66544E-05   -0.22885E-05  2980   0.437E-03
  61 F= -.23486812E+04 E0= -.23486812E+04  d E =-.116759E-01  mag=     3.0000
       N       E                     dE             d eps       ncg     rms          rms(c)
DAV:   1    -0.232711588051E+04    0.88282E-01   -0.73784E+00  4504   0.273E+00    0.797E-01
RMM:   2    -0.232720846788E+04   -0.92587E-01   -0.97838E-01  6477   0.585E-01    0.572E-01
RMM:   3    -0.232721725190E+04   -0.87840E-02   -0.98497E-02  6174   0.206E-01    0.662E-01
RMM:   4    -0.232721304282E+04    0.42091E-02   -0.99989E-03  6191   0.488E-02    0.276E-01
RMM:   5    -0.232721229416E+04    0.74866E-03   -0.25036E-03  5227   0.292E-02    0.144E-01
RMM:   6    -0.232721247853E+04   -0.18437E-03   -0.18164E-03  5734   0.267E-02    0.159E-01
RMM:   7    -0.232721213431E+04    0.34423E-03   -0.39006E-04  4513   0.133E-02    0.429E-02
RMM:   8    -0.232721211179E+04    0.22518E-04   -0.77272E-05  3180   0.581E-03    0.289E-02
RMM:   9    -0.232721210473E+04    0.70563E-05   -0.40745E-05  2946   0.497E-03
  62 F= -.23486885E+04 E0= -.23486885E+04  d E =-.189566E-01  mag=     3.0000
       N       E                     dE             d eps       ncg     rms          rms(c)
DAV:   1    -0.232717693386E+04    0.35178E-01   -0.37641E+00  4516   0.192E+00    0.589E-01
RMM:   2    -0.232722535467E+04   -0.48421E-01   -0.49325E-01  6505   0.408E-01    0.619E-01
RMM:   3    -0.232722797776E+04   -0.26231E-02   -0.51654E-02  6203   0.142E-01    0.515E-01
RMM:   4    -0.232722548923E+04    0.24885E-02   -0.50194E-03  5782   0.349E-02    0.177E-01
RMM:   5    -0.232722534194E+04    0.14728E-03   -0.14392E-03  5538   0.232E-02    0.135E-01
RMM:   6    -0.232722523671E+04    0.10524E-03   -0.85340E-04  5569   0.174E-02    0.938E-02
RMM:   7    -0.232722511394E+04    0.12277E-03   -0.18310E-04  3710   0.937E-03    0.288E-02
RMM:   8    -0.232722510669E+04    0.72532E-05   -0.32729E-05  2977   0.467E-03
  63 F= -.23487012E+04 E0= -.23487012E+04  d E =-.126812E-01  mag=     3.0000
       N       E                     dE             d eps       ncg     rms          rms(c)
DAV:   1    -0.232719613592E+04    0.28978E-01   -0.25633E+00  4576   0.159E+00    0.487E-01
RMM:   2    -0.232722921712E+04   -0.33081E-01   -0.33658E-01  6496   0.336E-01    0.519E-01
RMM:   3    -0.232723092091E+04   -0.17038E-02   -0.35092E-02  6154   0.117E-01    0.429E-01
RMM:   4    -0.232722921996E+04    0.17010E-02   -0.34554E-03  5622   0.289E-02    0.145E-01
RMM:   5    -0.232722912045E+04    0.99509E-04   -0.95085E-04  5309   0.193E-02    0.110E-01
RMM:   6    -0.232722904635E+04    0.74102E-04   -0.56817E-04  5268   0.146E-02    0.755E-02
RMM:   7    -0.232722896649E+04    0.79860E-04   -0.11821E-04  3351   0.815E-03    0.228E-02
RMM:   8    -0.232722896164E+04    0.48501E-05   -0.21161E-05  2948   0.441E-03
  64 F= -.23487048E+04 E0= -.23487048E+04  d E =-.162754E-01  mag=     3.0000
       N       E                     dE             d eps       ncg     rms          rms(c)
DAV:   1    -0.232720648637E+04    0.22480E-01   -0.27119E+00  4504   0.163E+00    0.551E-01
RMM:   2    -0.232724602868E+04   -0.39542E-01   -0.37318E-01  6438   0.373E-01    0.802E-01
RMM:   3    -0.232724319156E+04    0.28371E-02   -0.39515E-02  6198   0.127E-01    0.380E-01
RMM:   4    -0.232724192584E+04    0.12657E-02   -0.40973E-03  5610   0.322E-02    0.160E-01
RMM:   5    -0.232724198823E+04   -0.62390E-04   -0.12076E-03  5669   0.217E-02    0.171E-01
RMM:   6    -0.232724161032E+04    0.37791E-03   -0.78731E-04  5384   0.176E-02    0.782E-02
RMM:   7    -0.232724155700E+04    0.53322E-04   -0.17312E-04  3660   0.102E-02    0.317E-02
RMM:   8    -0.232724154271E+04    0.14288E-04   -0.44356E-05  2978   0.521E-03    0.212E-02
RMM:   9    -0.232724153390E+04    0.88088E-05   -0.11521E-05  2888   0.367E-03
  65 F= -.23487172E+04 E0= -.23487172E+04  d E =-.123776E-01  mag=     3.0000
       N       E                     dE             d eps       ncg     rms          rms(c)
DAV:   1    -0.232722367135E+04    0.17871E-01   -0.16259E+00  4560   0.126E+00    0.425E-01
RMM:   2    -0.232724753051E+04   -0.23859E-01   -0.22399E-01  6429   0.289E-01    0.636E-01
RMM:   3    -0.232724566347E+04    0.18670E-02   -0.23562E-02  6153   0.978E-02    0.287E-01
RMM:   4    -0.232724493803E+04    0.72544E-03   -0.24630E-03  5408   0.249E-02    0.124E-01
RMM:   5    -0.232724497123E+04   -0.33197E-04   -0.72456E-04  5369   0.172E-02    0.134E-01
RMM:   6    -0.232724473407E+04    0.23716E-03   -0.48973E-04  5061   0.143E-02    0.601E-02
RMM:   7    -0.232724470057E+04    0.33508E-04   -0.10143E-04  3193   0.839E-03    0.239E-02
RMM:   8    -0.232724469243E+04    0.81396E-05   -0.26302E-05  2933   0.467E-03
  66 F= -.23487202E+04 E0= -.23487202E+04  d E =-.153922E-01  mag=     3.0000
       N       E                     dE             d eps       ncg     rms          rms(c)
DAV:   1    -0.232723201182E+04    0.12689E-01   -0.19379E+00  4504   0.138E+00    0.458E-01
RMM:   2    -0.232725970204E+04   -0.27690E-01   -0.25325E-01  6511   0.318E-01    0.718E-01
RMM:   3    -0.232725648432E+04    0.32177E-02   -0.24748E-02  6225   0.101E-01    0.297E-01
RMM:   4    -0.232725579987E+04    0.68444E-03   -0.28423E-03  5408   0.269E-02    0.142E-01
RMM:   5    -0.232725586317E+04   -0.63298E-04   -0.86927E-04  5337   0.174E-02    0.152E-01
RMM:   6    -0.232725558231E+04    0.28087E-03   -0.59901E-04  5197   0.153E-02    0.653E-02
RMM:   7    -0.232725553780E+04    0.44505E-04   -0.11136E-04  3283   0.897E-03    0.168E-02
RMM:   8    -0.232725553416E+04    0.36448E-05   -0.20377E-05  2957   0.419E-03
  67 F= -.23487310E+04 E0= -.23487310E+04  d E =-.107815E-01  mag=     3.0000
       N       E                     dE             d eps       ncg     rms          rms(c)
DAV:   1    -0.232721028533E+04    0.45252E-01   -0.42273E+00  4504   0.203E+00    0.679E-01
RMM:   2    -0.232727177424E+04   -0.61489E-01   -0.55639E-01  6493   0.472E-01    0.110E+00
RMM:   3    -0.232726381655E+04    0.79577E-02   -0.54977E-02  6267   0.150E-01    0.433E-01
RMM:   4    -0.232726240237E+04    0.14142E-02   -0.63524E-03  5665   0.398E-02    0.213E-01
RMM:   5    -0.232726249833E+04   -0.95955E-04   -0.18991E-03  5757   0.250E-02    0.223E-01
RMM:   6    -0.232726189034E+04    0.60799E-03   -0.13024E-03  5619   0.221E-02    0.101E-01
RMM:   7    -0.232726178048E+04    0.10985E-03   -0.25722E-04  4029   0.124E-02    0.242E-02
RMM:   8    -0.232726177102E+04    0.94638E-05   -0.40604E-05  3014   0.466E-03
  68 F= -.23487371E+04 E0= -.23487371E+04  d E =-.169447E-01  mag=     3.0000
       N       E                     dE             d eps       ncg     rms          rms(c)
DAV:   1    -0.232724781358E+04    0.13967E-01   -0.24240E+00  4504   0.150E+00    0.482E-01
RMM:   2    -0.232727513659E+04   -0.27323E-01   -0.26636E-01  6448   0.331E-01    0.575E-01
RMM:   3    -0.232727471456E+04    0.42203E-03   -0.27124E-02  6152   0.109E-01    0.396E-01
RMM:   4    -0.232727333037E+04    0.13842E-02   -0.31717E-03  5251   0.286E-02    0.166E-01
RMM:   5    -0.232727345876E+04   -0.12839E-03   -0.12638E-03  5352   0.201E-02    0.179E-01
RMM:   6    -0.232727302625E+04    0.43251E-03   -0.85621E-04  5461   0.183E-02    0.400E-02
RMM:   7    -0.232727301578E+04    0.10464E-04   -0.74659E-05  3038   0.727E-03    0.177E-02
RMM:   8    -0.232727301246E+04    0.33246E-05   -0.17357E-05  2924   0.373E-03
  69 F= -.23487483E+04 E0= -.23487483E+04  d E =-.112262E-01  mag=     3.0000
       N       E                     dE             d eps       ncg     rms          rms(c)
DAV:   1    -0.232725183798E+04    0.21178E-01   -0.24976E+00  4504   0.153E+00    0.487E-01
RMM:   2    -0.232728007432E+04   -0.28236E-01   -0.27534E-01  6429   0.336E-01    0.583E-01
RMM:   3    -0.232727958711E+04    0.48721E-03   -0.27835E-02  6154   0.110E-01    0.401E-01
RMM:   4    -0.232727815704E+04    0.14301E-02   -0.32479E-03  5260   0.290E-02    0.169E-01
RMM:   5    -0.232727827402E+04   -0.11698E-03   -0.13099E-03  5321   0.206E-02    0.181E-01
RMM:   6    -0.232727783127E+04    0.44274E-03   -0.89684E-04  5474   0.187E-02    0.412E-02
RMM:   7    -0.232727781941E+04    0.11859E-04   -0.81250E-05  3070   0.771E-03    0.202E-02
RMM:   8    -0.232727781627E+04    0.31465E-05   -0.22004E-05  2925   0.414E-03
  70 F= -.23487532E+04 E0= -.23487532E+04  d E =-.160336E-01  mag=     3.0000
       N       E                     dE             d eps       ncg     rms          rms(c)
DAV:   1    -0.232725276255E+04    0.25057E-01   -0.36468E+00  4504   0.180E+00    0.595E-01
RMM:   2    -0.232728810952E+04   -0.35347E-01   -0.38324E-01  6044   0.376E-01    0.385E-01
RMM:   3    -0.232729202329E+04   -0.39138E-02   -0.43627E-02  5921   0.142E-01    0.458E-01
RMM:   4    -0.232729005742E+04    0.19659E-02   -0.47753E-03  6016   0.346E-02    0.241E-01
RMM:   5    -0.232729005908E+04   -0.16599E-05   -0.17864E-03  5476   0.217E-02    0.211E-01
RMM:   6    -0.232728952039E+04    0.53868E-03   -0.12009E-03  5575   0.210E-02    0.672E-02
RMM:   7    -0.232728948989E+04    0.30505E-04   -0.14604E-04  3642   0.899E-03    0.319E-02
RMM:   8    -0.232728947923E+04    0.10659E-04   -0.46186E-05  2987   0.526E-03    0.272E-02
RMM:   9    -0.232728946817E+04    0.11058E-04   -0.19768E-05  2916   0.380E-03    0.977E-03
RMM:  10    -0.232728946689E+04    0.12803E-05   -0.12785E-05  2915   0.294E-03
  71 F= -.23487647E+04 E0= -.23487647E+04  d E =-.115732E-01  mag=     3.0000
       N       E                     dE             d eps       ncg     rms          rms(c)
DAV:   1    -0.232728385574E+04    0.56124E-02   -0.71204E-01  4640   0.797E-01    0.262E-01
[...]
       N       E                     dE             d eps       ncg     rms          rms(c)
DAV:   1    -0.232748066756E+04    0.28633E-03   -0.34711E-02  4896   0.206E-01    0.612E-02
RMM:   2    -0.232748102562E+04   -0.35806E-03   -0.36176E-03  6244   0.434E-02    0.686E-02
RMM:   3    -0.232748103253E+04   -0.69140E-05   -0.34912E-04  3384   0.155E-02    0.583E-02
RMM:   4    -0.232748100707E+04    0.25459E-04   -0.41920E-05  2933   0.551E-03    0.251E-02
RMM:   5    -0.232748100525E+04    0.18222E-05   -0.19843E-05  2902   0.388E-03
 120 F= -.23489515E+04 E0= -.23489515E+04  d E =-.868047E-03  mag=     2.9997
       N       E                     dE             d eps       ncg     rms          rms(c)
DAV:   1    -0.232748005858E+04    0.94849E-03   -0.18270E-01  4528   0.460E-01    0.123E-01
RMM:   2    -0.232748206613E+04   -0.20075E-02   -0.19849E-02  6193   0.935E-02    0.165E-01
RMM:   3    -0.232748206771E+04   -0.15774E-05   -0.18330E-03  4865   0.322E-02    0.116E-01
RMM:   4    -0.232748195305E+04    0.11466E-03   -0.20121E-04  3188   0.893E-03    0.376E-02
RMM:   5    -0.232748195644E+04   -0.33896E-05   -0.70058E-05  2985   0.668E-03
 121 F= -.23489523E+04 E0= -.23489523E+04  d E =-.827484E-03  mag=     2.9997
       N       E                     dE             d eps       ncg     rms          rms(c)
DAV:   1    -0.232747770242E+04    0.42506E-02   -0.46226E-01  4504   0.731E-01    0.193E-01
RMM:   2    -0.232748268210E+04   -0.49797E-02   -0.50077E-02  6303   0.149E-01    0.241E-01
RMM:   3    -0.232748279648E+04   -0.11439E-03   -0.46566E-03  5693   0.514E-02    0.189E-01
RMM:   4    -0.232748249682E+04    0.29966E-03   -0.52070E-04  4589   0.136E-02    0.629E-02
RMM:   5    -0.232748250591E+04   -0.90843E-05   -0.18486E-04  3491   0.957E-03    0.679E-02
RMM:   6    -0.232748243672E+04    0.69189E-04   -0.12926E-04  4205   0.899E-03    0.210E-02
RMM:   7    -0.232748243242E+04    0.43031E-05   -0.20955E-05  2954   0.548E-03
 122 F= -.23489526E+04 E0= -.23489526E+04  d E =-.110679E-02  mag=     2.9997
       N       E                     dE             d eps       ncg     rms          rms(c)
DAV:   1    -0.232748164505E+04    0.79167E-03   -0.14989E-01  4544   0.414E-01    0.110E-01
RMM:   2    -0.232748333931E+04   -0.16943E-02   -0.16672E-02  6286   0.870E-02    0.148E-01
RMM:   3    -0.232748334129E+04   -0.19802E-05   -0.15381E-03  4576   0.296E-02    0.106E-01
RMM:   4    -0.232748324295E+04    0.98341E-04   -0.16550E-04  3058   0.828E-03    0.307E-02
RMM:   5    -0.232748323813E+04    0.48203E-05   -0.45913E-05  2971   0.570E-03
 123 F= -.23489533E+04 E0= -.23489533E+04  d E =-.686538E-03  mag=     2.9997
       N       E                     dE             d eps       ncg     rms          rms(c)
DAV:   1    -0.232747772400E+04    0.55189E-02   -0.58758E-01  4504   0.820E-01    0.216E-01
RMM:   2    -0.232748423464E+04   -0.65106E-02   -0.64871E-02  6351   0.171E-01    0.277E-01
RMM:   3    -0.232748434453E+04   -0.10989E-03   -0.60439E-03  5741   0.574E-02    0.210E-01
RMM:   4    -0.232748396906E+04    0.37546E-03   -0.66712E-04  4768   0.149E-02    0.676E-02
RMM:   5    -0.232748397021E+04   -0.11481E-05   -0.20196E-04  3602   0.994E-03    0.700E-02
RMM:   6    -0.232748390067E+04    0.69547E-04   -0.15599E-04  4268   0.937E-03    0.267E-02
RMM:   7    -0.232748389520E+04    0.54636E-05   -0.31889E-05  2951   0.605E-03
 124 F= -.23489537E+04 E0= -.23489537E+04  d E =-.110784E-02  mag=     2.9996
       N       E                     dE             d eps       ncg     rms          rms(c)
DAV:   1    -0.232748305845E+04    0.84222E-03   -0.16217E-01  4560   0.435E-01    0.119E-01
RMM:   2    -0.232748501882E+04   -0.19604E-02   -0.19259E-02  6344   0.970E-02    0.156E-01
RMM:   3    -0.232748501285E+04    0.59611E-05   -0.17308E-03  4849   0.316E-02    0.115E-01
RMM:   4    -0.232748490209E+04    0.11076E-03   -0.19326E-04  3096   0.885E-03    0.354E-02
RMM:   5    -0.232748490144E+04    0.65679E-06   -0.58473E-05  3005   0.632E-03
 125 F= -.23489545E+04 E0= -.23489545E+04  d E =-.841924E-03  mag=     2.9996
       N       E                     dE             d eps       ncg     rms          rms(c)
DAV:   1    -0.232748204085E+04    0.28612E-02   -0.30151E-01  4536   0.594E-01    0.161E-01
RMM:   2    -0.232748569446E+04   -0.36536E-02   -0.35676E-02  6390   0.132E-01    0.212E-01
RMM:   3    -0.232748565534E+04    0.39113E-04   -0.32987E-03  5404   0.440E-02    0.151E-01
RMM:   4    -0.232748546563E+04    0.18971E-03   -0.37359E-04  3819   0.116E-02    0.552E-02
RMM:   5    -0.232748545787E+04    0.77623E-05   -0.11653E-04  3142   0.837E-03    0.513E-02
RMM:   6    -0.232748541961E+04    0.38257E-04   -0.10442E-04  3972   0.868E-03    0.178E-02
RMM:   7    -0.232748541921E+04    0.40249E-06   -0.18366E-05  2918   0.518E-03
 126 F= -.23489548E+04 E0= -.23489548E+04  d E =-.113573E-02  mag=     2.9996
       N       E                     dE             d eps       ncg     rms          rms(c)
DAV:   1    -0.232748416254E+04    0.12571E-02   -0.20196E-01  4504   0.488E-01    0.131E-01
RMM:   2    -0.232748658062E+04   -0.24181E-02   -0.23159E-02  6311   0.108E-01    0.185E-01
RMM:   3    -0.232748648971E+04    0.90914E-04   -0.20808E-03  5078   0.353E-02    0.119E-01
RMM:   4    -0.232748637632E+04    0.11338E-03   -0.24175E-04  3150   0.944E-03    0.418E-02
RMM:   5    -0.232748636759E+04    0.87367E-05   -0.65796E-05  3033   0.670E-03
 127 F= -.23489556E+04 E0= -.23489556E+04  d E =-.771449E-03  mag=     2.9996
       N       E                     dE             d eps       ncg     rms          rms(c)
DAV:   1    -0.232748229191E+04    0.40844E-02   -0.42228E-01  4504   0.707E-01    0.187E-01
RMM:   2    -0.232748722583E+04   -0.49339E-02   -0.48173E-02  6385   0.156E-01    0.242E-01
RMM:   3    -0.232748717656E+04    0.49269E-04   -0.44051E-03  5562   0.506E-02    0.177E-01
RMM:   4    -0.232748691780E+04    0.25876E-03   -0.50292E-04  4195   0.132E-02    0.625E-02
RMM:   5    -0.232748690421E+04    0.13589E-04   -0.14609E-04  3290   0.903E-03    0.573E-02
RMM:   6    -0.232748685665E+04    0.47557E-04   -0.13500E-04  4220   0.939E-03    0.205E-02
RMM:   7    -0.232748685650E+04    0.15012E-06   -0.24909E-05  2926   0.572E-03
 128 F= -.23489558E+04 E0= -.23489558E+04  d E =-.100473E-02  mag=     2.9996
       N       E                     dE             d eps       ncg     rms          rms(c)
DAV:   1    -0.232748512197E+04    0.17347E-02   -0.30726E-01  4504   0.594E-01    0.153E-01
RMM:   2    -0.232748828124E+04   -0.31593E-02   -0.30582E-02  6245   0.127E-01    0.210E-01
RMM:   3    -0.232748818754E+04    0.93708E-04   -0.27068E-03  5321   0.407E-02    0.143E-01
RMM:   4    -0.232748802002E+04    0.16751E-03   -0.31662E-04  3602   0.110E-02    0.464E-02
RMM:   5    -0.232748801628E+04    0.37418E-05   -0.92988E-05  3145   0.774E-03
 129 F= -.23489567E+04 E0= -.23489567E+04  d E =-.875835E-03  mag=     2.9996
       N       E                     dE             d eps       ncg     rms          rms(c)
DAV:   1    -0.232748601885E+04    0.20012E-02   -0.25243E-01  4504   0.539E-01    0.137E-01
RMM:   2    -0.232748852453E+04   -0.25057E-02   -0.25003E-02  6341   0.116E-01    0.163E-01
RMM:   3    -0.232748855983E+04   -0.35301E-04   -0.22585E-03  5232   0.369E-02    0.137E-01
RMM:   4    -0.232748840643E+04    0.15340E-03   -0.25899E-04  3380   0.103E-02    0.460E-02
RMM:   5    -0.232748840579E+04    0.64020E-06   -0.88887E-05  3056   0.762E-03
 130 F= -.23489568E+04 E0= -.23489568E+04  d E =-.100691E-02  mag=     2.9996
       N       E                     dE             d eps       ncg     rms          rms(c)
DAV:   1    -0.232748713764E+04    0.12688E-02   -0.34007E-01  4504   0.619E-01    0.161E-01
RMM:   2    -0.232748972844E+04   -0.25908E-02   -0.26102E-02  6207   0.126E-01    0.173E-01
RMM:   3    -0.232748982074E+04   -0.92302E-04   -0.23260E-03  5434   0.412E-02    0.173E-01
RMM:   4    -0.232748957083E+04    0.24991E-03   -0.30137E-04  4113   0.119E-02    0.485E-02
RMM:   5    -0.232748958407E+04   -0.13245E-04   -0.12984E-04  3399   0.887E-03    0.567E-02
RMM:   6    -0.232748953501E+04    0.49061E-04   -0.89514E-05  3776   0.803E-03    0.133E-02
RMM:   7    -0.232748953458E+04    0.43360E-06   -0.15869E-05  2926   0.512E-03
 131 F= -.23489577E+04 E0= -.23489577E+04  d E =-.834504E-03  mag=     2.9996
       N       E                     dE             d eps       ncg     rms          rms(c)
DAV:   1    -0.232748932176E+04    0.21325E-03   -0.56564E-02  4688   0.252E-01    0.665E-02
RMM:   2    -0.232748976044E+04   -0.43868E-03   -0.43852E-03  6145   0.512E-02    0.740E-02
RMM:   3    -0.232748977296E+04   -0.12519E-04   -0.39131E-04  3560   0.170E-02    0.715E-02
RMM:   4    -0.232748973026E+04    0.42705E-04   -0.49874E-05  2941   0.590E-03    0.191E-02
RMM:   5    -0.232748973204E+04   -0.17849E-05   -0.23268E-05  2930   0.420E-03
 132 F= -.23489578E+04 E0= -.23489577E+04  d E =-.912389E-03  mag=     2.9997
       N       E                     dE             d eps       ncg     rms          rms(c)
DAV:   1    -0.232748933875E+04    0.39151E-03   -0.21878E-01  4516   0.503E-01    0.142E-01
RMM:   2    -0.232749071679E+04   -0.13780E-02   -0.14475E-02  6055   0.992E-02    0.111E-01
RMM:   3    -0.232749088686E+04   -0.17007E-03   -0.13166E-03  5150   0.339E-02    0.172E-01
RMM:   4    -0.232749064458E+04    0.24228E-03   -0.21599E-04  3499   0.103E-02    0.404E-02
RMM:   5    -0.232749064978E+04   -0.52040E-05   -0.88614E-05  3214   0.811E-03
 133 F= -.23489585E+04 E0= -.23489585E+04  d E =-.759974E-03  mag=     2.9997
       N       E                     dE             d eps       ncg     rms          rms(c)
DAV:   1    -0.232749050158E+04    0.14300E-03   -0.30699E-02  4792   0.189E-01    0.544E-02
RMM:   2    -0.232749069873E+04   -0.19715E-03   -0.21028E-03  6174   0.388E-02    0.394E-02
RMM:   3    -0.232749071420E+04   -0.15470E-04   -0.21262E-04  3344   0.135E-02    0.523E-02
RMM:   4    -0.232749069212E+04    0.22073E-04   -0.30516E-05  2917   0.514E-03    0.220E-02
RMM:   5    -0.232749069191E+04    0.21423E-06   -0.15217E-05  2892   0.319E-03
 134 F= -.23489585E+04 E0= -.23489585E+04  d E =-.742024E-03  mag=     2.9997
       N       E                     dE             d eps       ncg     rms          rms(c)
DAV:   1    -0.232748983968E+04    0.85244E-03   -0.23454E-01  4516   0.520E-01    0.133E-01
RMM:   2    -0.232749146817E+04   -0.16285E-02   -0.16894E-02  6096   0.103E-01    0.111E-01
RMM:   3    -0.232749159846E+04   -0.13029E-03   -0.14236E-03  5098   0.335E-02    0.156E-01
RMM:   4    -0.232749140473E+04    0.19373E-03   -0.22332E-04  3245   0.979E-03    0.452E-02
RMM:   5    -0.232749139729E+04    0.74339E-05   -0.75443E-05  3057   0.737E-03
 135 F= -.23489591E+04 E0= -.23489590E+04  d E =-.558041E-03  mag=     2.9997
       N       E                     dE             d eps       ncg     rms          rms(c)
DAV:   1    -0.232749122957E+04    0.17515E-03   -0.29230E-02  4768   0.185E-01    0.482E-02
RMM:   2    -0.232749143424E+04   -0.20467E-03   -0.21606E-03  6254   0.380E-02    0.355E-02
RMM:   3    -0.232749144763E+04   -0.13390E-04   -0.21618E-04  3212   0.128E-02    0.437E-02
RMM:   4    -0.232749143235E+04    0.15284E-04   -0.27849E-05  2925   0.498E-03    0.213E-02
RMM:   5    -0.232749143193E+04    0.42314E-06   -0.12206E-05  2893   0.279E-03
 136 F= -.23489590E+04 E0= -.23489590E+04  d E =-.539704E-03  mag=     2.9997
       N       E                     dE             d eps       ncg     rms          rms(c)
DAV:   1    -0.232749060996E+04    0.82239E-03   -0.25691E-01  4504   0.544E-01    0.140E-01
RMM:   2    -0.232749240848E+04   -0.17985E-02   -0.19078E-02  6078   0.108E-01    0.988E-02
RMM:   3    -0.232749257652E+04   -0.16804E-03   -0.16343E-03  5154   0.356E-02    0.158E-01
RMM:   4    -0.232749238086E+04    0.19566E-03   -0.24413E-04  3286   0.100E-02    0.481E-02
RMM:   5    -0.232749237563E+04    0.52324E-05   -0.84802E-05  3088   0.751E-03
 137 F= -.23489597E+04 E0= -.23489597E+04  d E =-.651282E-03  mag=     2.9997
       N       E                     dE             d eps       ncg     rms          rms(c)
DAV:   1    -0.232749216555E+04    0.21531E-03   -0.43212E-02  4672   0.224E-01    0.592E-02
RMM:   2    -0.232749247620E+04   -0.31065E-03   -0.32865E-03  6273   0.458E-02    0.433E-02
RMM:   3    -0.232749249337E+04   -0.17168E-04   -0.33281E-04  3447   0.158E-02    0.497E-02
RMM:   4    -0.232749247101E+04    0.22352E-04   -0.40115E-05  2932   0.588E-03    0.251E-02
RMM:   5    -0.232749247224E+04   -0.12263E-05   -0.19400E-05  2899   0.341E-03
 138 F= -.23489597E+04 E0= -.23489596E+04  d E =-.626120E-03  mag=     2.9997
       N       E                     dE             d eps       ncg     rms          rms(c)
DAV:   1    -0.232749189774E+04    0.57328E-03   -0.20959E-01  4536   0.489E-01    0.121E-01
RMM:   2    -0.232749339409E+04   -0.14964E-02   -0.15802E-02  6083   0.953E-02    0.841E-02
RMM:   3    -0.232749351431E+04   -0.12023E-03   -0.13400E-03  4911   0.318E-02    0.128E-01
RMM:   4    -0.232749339334E+04    0.12097E-03   -0.18998E-04  3050   0.891E-03    0.440E-02
RMM:   5    -0.232749339280E+04    0.54188E-06   -0.68969E-05  2992   0.652E-03
 139 F= -.23489603E+04 E0= -.23489603E+04  d E =-.647164E-03  mag=     2.9997
       N       E                     dE             d eps       ncg     rms          rms(c)
DAV:   1    -0.232749205244E+04    0.13409E-02   -0.24158E-01  4536   0.525E-01    0.131E-01
RMM:   2    -0.232749377825E+04   -0.17258E-02   -0.18231E-02  6238   0.103E-01    0.925E-02
RMM:   3    -0.232749390390E+04   -0.12566E-03   -0.16132E-03  5229   0.351E-02    0.132E-01
RMM:   4    -0.232749377753E+04    0.12638E-03   -0.22014E-04  3119   0.958E-03    0.532E-02
RMM:   5    -0.232749377449E+04    0.30401E-05   -0.85123E-05  3017   0.705E-03
 140 F= -.23489604E+04 E0= -.23489604E+04  d E =-.734544E-03  mag=     2.9996
       N       E                     dE             d eps       ncg     rms          rms(c)
DAV:   1    -0.232749311112E+04    0.66640E-03   -0.20031E-01  4504   0.479E-01    0.120E-01
RMM:   2    -0.232749452437E+04   -0.14132E-02   -0.14949E-02  6147   0.934E-02    0.799E-02
RMM:   3    -0.232749461436E+04   -0.89988E-04   -0.13142E-03  5122   0.328E-02    0.107E-01
RMM:   4    -0.232749452472E+04    0.89640E-04   -0.17236E-04  3060   0.891E-03    0.474E-02
RMM:   5    -0.232749453372E+04   -0.89970E-05   -0.74491E-05  3018   0.654E-03
 141 F= -.23489610E+04 E0= -.23489609E+04  d E =-.571466E-03  mag=     2.9996
       N       E                     dE             d eps       ncg     rms          rms(c)
DAV:   1    -0.232749399958E+04    0.52514E-03   -0.10218E-01  4560   0.342E-01    0.861E-02
RMM:   2    -0.232749472449E+04   -0.72490E-03   -0.76975E-03  6209   0.671E-02    0.572E-02
RMM:   3    -0.232749478234E+04   -0.57858E-04   -0.66352E-04  4020   0.230E-02    0.871E-02
RMM:   4    -0.232749472802E+04    0.54327E-04   -0.90738E-05  2958   0.723E-03    0.326E-02
RMM:   5    -0.232749473229E+04   -0.42706E-05   -0.42191E-05  2930   0.512E-03
 142 F= -.23489610E+04 E0= -.23489610E+04  d E =-.635690E-03  mag=     2.9996
       N       E                     dE             d eps       ncg     rms          rms(c)
DAV:   1    -0.232749464258E+04    0.85440E-04   -0.10941E-01  4560   0.358E-01    0.101E-01
RMM:   2    -0.232749539744E+04   -0.75486E-03   -0.81182E-03  6011   0.699E-02    0.611E-02
RMM:   3    -0.232749545456E+04   -0.57120E-04   -0.73492E-04  4339   0.274E-02    0.885E-02
RMM:   4    -0.232749539163E+04    0.62932E-04   -0.10293E-04  2961   0.781E-03    0.379E-02
RMM:   5    -0.232749539812E+04   -0.64925E-05   -0.50824E-05  2938   0.571E-03
 143 F= -.23489616E+04 E0= -.23489616E+04  d E =-.574105E-03  mag=     2.9996
       N       E                     dE             d eps       ncg     rms          rms(c)
DAV:   1    -0.232749521408E+04    0.17755E-03   -0.39573E-02  4688   0.215E-01    0.613E-02
RMM:   2    -0.232749549284E+04   -0.27876E-03   -0.30162E-03  6141   0.432E-02    0.383E-02
RMM:   3    -0.232749551487E+04   -0.22029E-04   -0.27132E-04  3428   0.157E-02    0.577E-02
RMM:   4    -0.232749548942E+04    0.25444E-04   -0.39242E-05  2920   0.548E-03    0.233E-02
RMM:   5    -0.232749549129E+04   -0.18628E-05   -0.20925E-05  2908   0.368E-03
 144 F= -.23489616E+04 E0= -.23489616E+04  d E =-.611630E-03  mag=     2.9997
       N       E                     dE             d eps       ncg     rms          rms(c)
DAV:   1    -0.232749519579E+04    0.29364E-03   -0.11890E-01  4516   0.372E-01    0.100E-01
RMM:   2    -0.232749604245E+04   -0.84666E-03   -0.90828E-03  5993   0.705E-02    0.583E-02
RMM:   3    -0.232749610095E+04   -0.58506E-04   -0.80320E-04  4211   0.267E-02    0.808E-02
RMM:   4    -0.232749605172E+04    0.49234E-04   -0.10881E-04  2969   0.764E-03    0.382E-02
RMM:   5    -0.232749605887E+04   -0.71456E-05   -0.50121E-05  2946   0.551E-03
 145 F= -.23489621E+04 E0= -.23489621E+04  d E =-.469539E-03  mag=     2.9997
       N       E                     dE             d eps       ncg     rms          rms(c)
DAV:   1    -0.232749578844E+04    0.26328E-03   -0.51761E-02  4528   0.246E-01    0.672E-02
RMM:   2    -0.232749616628E+04   -0.37783E-03   -0.40425E-03  6220   0.480E-02    0.424E-02
RMM:   3    -0.232749619268E+04   -0.26407E-04   -0.36711E-04  3452   0.170E-02    0.574E-02
RMM:   4    -0.232749616693E+04    0.25758E-04   -0.48668E-05  2926   0.603E-03    0.262E-02
RMM:   5    -0.232749617058E+04   -0.36528E-05   -0.25498E-05  2914   0.386E-03
 146 F= -.23489622E+04 E0= -.23489621E+04  d E =-.515983E-03  mag=     2.9997
       N       E                     dE             d eps       ncg     rms          rms(c)
DAV:   1    -0.232749586247E+04    0.30446E-03   -0.13619E-01  4536   0.399E-01    0.112E-01
RMM:   2    -0.232749682837E+04   -0.96591E-03   -0.10545E-02  5979   0.769E-02    0.578E-02
RMM:   3    -0.232749687681E+04   -0.48437E-04   -0.90389E-04  4557   0.297E-02    0.732E-02
RMM:   4    -0.232749684198E+04    0.34835E-04   -0.12866E-04  2993   0.789E-03    0.442E-02
RMM:   5    -0.232749684861E+04   -0.66370E-05   -0.63514E-05  2996   0.636E-03
 147 F= -.23489627E+04 E0= -.23489626E+04  d E =-.490040E-03  mag=     2.9997
       N       E                     dE             d eps       ncg     rms          rms(c)
DAV:   1    -0.232749680427E+04    0.37711E-04   -0.91278E-03  5056   0.105E-01    0.313E-02
RMM:   2    -0.232749687699E+04   -0.72724E-04   -0.76867E-04  5811   0.224E-02    0.235E-02
RMM:   3    -0.232749687910E+04   -0.21074E-05   -0.76136E-05  2947   0.853E-03
 148 F= -.23489626E+04 E0= -.23489626E+04  d E =-.470853E-03  mag=     2.9997
       N       E                     dE             d eps       ncg     rms          rms(c)
DAV:   1    -0.232749646689E+04    0.41010E-03   -0.10559E-01  4548   0.348E-01    0.966E-02
RMM:   2    -0.232749741667E+04   -0.94978E-03   -0.10124E-02  6045   0.705E-02    0.601E-02
RMM:   3    -0.232749748668E+04   -0.70013E-04   -0.89810E-04  4156   0.249E-02    0.865E-02
RMM:   4    -0.232749743867E+04    0.48018E-04   -0.12812E-04  2981   0.738E-03    0.405E-02
RMM:   5    -0.232749743551E+04    0.31602E-05   -0.44740E-05  2960   0.511E-03
 149 F= -.23489630E+04 E0= -.23489630E+04  d E =-.366736E-03  mag=     2.9997
       N       E                     dE             d eps       ncg     rms          rms(c)
DAV:   1    -0.232749737844E+04    0.60230E-04   -0.12926E-02  4760   0.123E-01    0.360E-02
RMM:   2    -0.232749750330E+04   -0.12486E-03   -0.12845E-03  5984   0.263E-02    0.306E-02
RMM:   3    -0.232749750428E+04   -0.98445E-06   -0.12098E-04  2978   0.947E-03    0.253E-02
RMM:   4    -0.232749749681E+04    0.74726E-05   -0.14870E-05  2918   0.391E-03
 150 F= -.23489630E+04 E0= -.23489630E+04  d E =-.360492E-03  mag=     2.9997
