       N       E                     dE             d eps       ncg     rms          rms(c)
DAV:   1     0.128926533183E+05    0.12893E+05   -0.83714E+05  4504   0.144E+03
DAV:   2    -0.106058839490E+04   -0.13953E+05   -0.13348E+05  5096   0.330E+02
DAV:   3    -0.248437184589E+04   -0.14238E+04   -0.14088E+04  5424   0.112E+02
DAV:   4    -0.252874605585E+04   -0.44374E+02   -0.44137E+02  6760   0.293E+01
DAV:   5    -0.252953126642E+04   -0.78521E+00   -0.78357E+00  5952   0.330E+00    0.171E+02
RMM:   6    -0.149350550106E+04    0.10360E+04   -0.19719E+03  4446   0.387E+01    0.735E+01
RMM:   7    -0.168843782061E+04   -0.19493E+03   -0.30459E+02  4992   0.150E+01    0.619E+01
RMM:   8    -0.169887357618E+04   -0.10436E+02   -0.10256E+02  5351   0.827E+00    0.433E+01
RMM:   9    -0.176386834139E+04   -0.64995E+02   -0.54182E+01  4904   0.721E+00    0.333E+01
RMM:  10    -0.190387052979E+04   -0.14000E+03   -0.60114E+01  5305   0.704E+00    0.284E+01
RMM:  11    -0.199860580509E+04   -0.94735E+02   -0.40180E+01  5250   0.544E+00    0.212E+01
RMM:  12    -0.206980619887E+04   -0.71200E+02   -0.29013E+01  5030   0.439E+00    0.152E+01
RMM:  13    -0.217188442039E+04   -0.10208E+03   -0.59339E+01  4563   0.563E+00    0.112E+01
RMM:  14    -0.228202718639E+04   -0.11014E+03   -0.10383E+02  4467   0.707E+00    0.653E+00
RMM:  15    -0.230892254852E+04   -0.26895E+02   -0.26611E+01  4486   0.449E+00    0.504E+00
RMM:  16    -0.231806551186E+04   -0.91430E+01   -0.11159E+01  4715   0.221E+00    0.329E+00
RMM:  17    -0.232091363173E+04   -0.28481E+01   -0.24699E+00  5014   0.134E+00    0.216E+00
RMM:  18    -0.232206453267E+04   -0.11509E+01   -0.60894E-01  5084   0.554E-01    0.155E+00
RMM:  19    -0.232278606602E+04   -0.72153E+00   -0.30874E-01  4677   0.389E-01    0.964E-01
RMM:  20    -0.232289274921E+04   -0.10668E+00   -0.58088E-02  4986   0.201E-01    0.561E-01
RMM:  21    -0.232296004115E+04   -0.67292E-01   -0.24635E-02  4583   0.105E-01    0.286E-01
RMM:  22    -0.232300414946E+04   -0.44108E-01   -0.17398E-02  4500   0.103E-01    0.215E-01
RMM:  23    -0.232301647796E+04   -0.12328E-01   -0.51801E-03  4687   0.673E-02    0.934E-02
RMM:  24    -0.232302526922E+04   -0.87913E-02   -0.27802E-03  4483   0.396E-02    0.792E-02
RMM:  25    -0.232303192317E+04   -0.66540E-02   -0.17576E-03  4472   0.354E-02    0.362E-02
RMM:  26    -0.232303593091E+04   -0.40077E-02   -0.13325E-03  4460   0.269E-02    0.217E-02
RMM:  27    -0.232303733939E+04   -0.14085E-02   -0.48628E-04  4061   0.220E-02    0.164E-02
RMM:  28    -0.232303792444E+04   -0.58505E-03   -0.22610E-04  3907   0.115E-02    0.914E-03
RMM:  29    -0.232303820949E+04   -0.28505E-03   -0.95121E-05  3632   0.107E-02    0.539E-03
RMM:  30    -0.232303831852E+04   -0.10903E-03   -0.55038E-05  3516   0.680E-03    0.337E-03
RMM:  31    -0.232303835113E+04   -0.32608E-04   -0.21824E-05  3043   0.560E-03    0.177E-03
RMM:  32    -0.232303836722E+04   -0.16093E-04   -0.87326E-06  2854   0.323E-03    0.110E-03
RMM:  33    -0.232303837500E+04   -0.77804E-05   -0.38815E-06  2442   0.221E-03
   1 F= -.23440677E+04 E0= -.23440676E+04  d E =-.234407E+04  mag=     6.9984
       N       E                     dE             d eps       ncg     rms          rms(c)
DAV:   1    -0.232316047517E+04   -0.12211E+00   -0.12302E+02  4920   0.721E+00    0.419E+00
RMM:   2    -0.232454321258E+04   -0.13827E+01   -0.15816E+01  6428   0.204E+00    0.383E+00
RMM:   3    -0.232449921282E+04    0.44000E-01   -0.11918E+00  5957   0.540E-01    0.311E+00
RMM:   4    -0.232442175039E+04    0.77462E-01   -0.15218E-01  5831   0.157E-01    0.158E+00
RMM:   5    -0.232442802879E+04   -0.62784E-02   -0.10528E-01  6003   0.139E-01    0.204E+00
RMM:   6    -0.232440173734E+04    0.26291E-01   -0.53061E-02  6029   0.113E-01    0.707E-01
RMM:   7    -0.232439796737E+04    0.37700E-02   -0.52961E-03  5538   0.409E-02    0.290E-01
RMM:   8    -0.232439757074E+04    0.39664E-03   -0.13754E-03  4695   0.171E-02    0.830E-02
RMM:   9    -0.232439765072E+04   -0.79981E-04   -0.30378E-04  4106   0.102E-02    0.472E-02
RMM:  10    -0.232439769495E+04   -0.44231E-04   -0.69491E-05  3197   0.648E-03    0.309E-02
RMM:  11    -0.232439771154E+04   -0.16593E-04   -0.27851E-05  2954   0.478E-03    0.154E-02
RMM:  12    -0.232439772273E+04   -0.11186E-04   -0.15637E-05  2895   0.386E-03    0.757E-03
RMM:  13    -0.232439772663E+04   -0.39034E-05   -0.49816E-06  2831   0.310E-03
   2 F= -.23454363E+04 E0= -.23454363E+04  d E =-.136852E+01  mag=     6.9998
       N       E                     dE             d eps       ncg     rms          rms(c)
DAV:   1    -0.232438937757E+04    0.83452E-02   -0.66111E+00  4672   0.157E+00    0.853E-01
RMM:   2    -0.232444643938E+04   -0.57062E-01   -0.62513E-01  6519   0.429E-01    0.849E-01
RMM:   3    -0.232444596616E+04    0.47322E-03   -0.54907E-02  5644   0.117E-01    0.677E-01
RMM:   4    -0.232444225963E+04    0.37065E-02   -0.89710E-03  5196   0.359E-02    0.266E-01
RMM:   5    -0.232444202341E+04    0.23622E-03   -0.38749E-03  5241   0.271E-02    0.260E-01
RMM:   6    -0.232444173917E+04    0.28424E-03   -0.12572E-03  4286   0.177E-02    0.157E-01
RMM:   7    -0.232444154175E+04    0.19742E-03   -0.18654E-04  3220   0.803E-03    0.333E-02
RMM:   8    -0.232444153827E+04    0.34796E-05   -0.60831E-05  3116   0.439E-03
   3 F= -.23454766E+04 E0= -.23454766E+04  d E =-.140882E+01  mag=     6.9999
       N       E                     dE             d eps       ncg     rms          rms(c)
DAV:   1    -0.232463344756E+04   -0.19191E+00   -0.18724E+01  4576   0.327E+00    0.141E+00
RMM:   2    -0.232500081389E+04   -0.36737E+00   -0.36954E+00  6549   0.929E-01    0.130E+00
RMM:   3    -0.232503757230E+04   -0.36758E-01   -0.42355E-01  5641   0.364E-01    0.138E+00
RMM:   4    -0.232502325366E+04    0.14319E-01   -0.39758E-02  5978   0.820E-02    0.529E-01
RMM:   5    -0.232502086681E+04    0.23869E-02   -0.80718E-03  5554   0.369E-02    0.377E-01
RMM:   6    -0.232502088599E+04   -0.19188E-04   -0.53424E-03  5328   0.310E-02    0.412E-01
RMM:   7    -0.232501954178E+04    0.13442E-02   -0.19289E-03  5226   0.209E-02    0.975E-02
RMM:   8    -0.232501952231E+04    0.19467E-04   -0.28665E-04  3632   0.846E-03    0.554E-02
RMM:   9    -0.232501950168E+04    0.20634E-04   -0.88044E-05  3176   0.644E-03    0.193E-02
RMM:  10    -0.232501950093E+04    0.74400E-06   -0.28293E-05  2956   0.424E-03
   4 F= -.23460560E+04 E0= -.23460560E+04  d E =-.579447E+00  mag=     7.0000
       N       E                     dE             d eps       ncg     rms          rms(c)
DAV:   1    -0.232288481175E+04    0.21347E+01   -0.12860E+02  4472   0.852E+00    0.368E+00
RMM:   2    -0.232567504639E+04   -0.27902E+01   -0.29172E+01  6624   0.260E+00    0.233E+00
RMM:   3    -0.232582929118E+04   -0.15424E+00   -0.26742E+00  5998   0.775E-01    0.196E+00
RMM:   4    -0.232581641852E+04    0.12873E-01   -0.20328E-01  6244   0.149E-01    0.163E+00
RMM:   5    -0.232579950218E+04    0.16916E-01   -0.27369E-02  5863   0.660E-02    0.931E-01
RMM:   6    -0.232579337407E+04    0.61281E-02   -0.28103E-02  5699   0.722E-02    0.791E-01
RMM:   7    -0.232579028673E+04    0.30873E-02   -0.15417E-02  6117   0.544E-02    0.541E-01
RMM:   8    -0.232578869246E+04    0.15943E-02   -0.59679E-03  5518   0.354E-02    0.174E-01
RMM:   9    -0.232578866072E+04    0.31744E-04   -0.86293E-04  4512   0.170E-02    0.807E-02
RMM:  10    -0.232578862940E+04    0.31318E-04   -0.37500E-04  3864   0.111E-02    0.340E-02
RMM:  11    -0.232578863661E+04   -0.72061E-05   -0.75421E-05  3275   0.635E-03
   5 F= -.23468306E+04 E0= -.23468306E+04  d E =-.135405E+01  mag=     7.0000
       N       E                     dE             d eps       ncg     rms          rms(c)
DAV:   1    -0.232551366997E+04    0.27496E+00   -0.44546E+01  4464   0.533E+00    0.223E+00
RMM:   2    -0.232615987880E+04   -0.64621E+00   -0.65702E+00  6183   0.130E+00    0.199E+00
RMM:   3    -0.232618780623E+04   -0.27927E-01   -0.68011E-01  5867   0.470E-01    0.159E+00
RMM:   4    -0.232616690032E+04    0.20906E-01   -0.67114E-02  6176   0.118E-01    0.676E-01
RMM:   5    -0.232616176815E+04    0.51322E-02   -0.21083E-02  5504   0.719E-02    0.436E-01
RMM:   6    -0.232616188382E+04   -0.11567E-03   -0.87938E-03  5452   0.505E-02    0.458E-01
RMM:   7    -0.232616008969E+04    0.17941E-02   -0.27869E-03  5365   0.283E-02    0.127E-01
RMM:   8    -0.232615991463E+04    0.17506E-03   -0.53171E-04  4666   0.123E-02    0.633E-02
RMM:   9    -0.232615983889E+04    0.75741E-04   -0.13164E-04  3769   0.937E-03    0.221E-02
RMM:  10    -0.232615981650E+04    0.22391E-04   -0.63849E-05  3667   0.625E-03    0.114E-02
RMM:  11    -0.232615981006E+04    0.64392E-05   -0.18725E-05  2945   0.554E-03
   6 F= -.23471948E+04 E0= -.23471948E+04  d E =-.364229E+00  mag=     6.9999
       N       E                     dE             d eps       ncg     rms          rms(c)
DAV:   1    -0.232613582963E+04    0.23987E-01   -0.31366E+00  4704   0.143E+00    0.592E-01
RMM:   2    -0.232617851834E+04   -0.42689E-01   -0.43726E-01  6158   0.328E-01    0.501E-01
RMM:   3    -0.232618106825E+04   -0.25499E-02   -0.45380E-02  5864   0.122E-01    0.406E-01
RMM:   4    -0.232617972864E+04    0.13396E-02   -0.46273E-03  5549   0.311E-02    0.181E-01
RMM:   5    -0.232617939793E+04    0.33070E-03   -0.15459E-03  5200   0.206E-02    0.154E-01
RMM:   6    -0.232617927496E+04    0.12298E-03   -0.70315E-04  4229   0.149E-02    0.103E-01
RMM:   7    -0.232617918563E+04    0.89323E-04   -0.13920E-04  3695   0.771E-03    0.232E-02
RMM:   8    -0.232617917734E+04    0.82909E-05   -0.26789E-05  2952   0.505E-03
   7 F= -.23472126E+04 E0= -.23472126E+04  d E =-.382004E+00  mag=     6.9997
       N       E                     dE             d eps       ncg     rms          rms(c)
DAV:   1    -0.232608077479E+04    0.98411E-01   -0.15751E+01  4496   0.298E+00    0.145E+00
RMM:   2    -0.232643858622E+04   -0.35781E+00   -0.35276E+00  6545   0.839E-01    0.149E+00
RMM:   3    -0.232644947498E+04   -0.10889E-01   -0.36534E-01  5945   0.293E-01    0.898E-01
RMM:   4    -0.232644347010E+04    0.60049E-02   -0.31038E-02  5974   0.693E-02    0.458E-01
RMM:   5    -0.232644240254E+04    0.10676E-02   -0.65120E-03  5424   0.344E-02    0.406E-01
RMM:   6    -0.232644092601E+04    0.14765E-02   -0.42815E-03  5444   0.280E-02    0.236E-01
RMM:   7    -0.232644058069E+04    0.34533E-03   -0.91493E-04  4619   0.177E-02    0.816E-02
RMM:   8    -0.232644054622E+04    0.34464E-04   -0.23986E-04  4073   0.893E-03    0.413E-02
RMM:   9    -0.232644052819E+04    0.18034E-04   -0.43433E-05  2958   0.637E-03    0.127E-02
RMM:  10    -0.232644052724E+04    0.94708E-06   -0.18085E-05  2967   0.374E-03
   8 F= -.23474683E+04 E0= -.23474668E+04  d E =-.255680E+00  mag=     6.9727
       N       E                     dE             d eps       ncg     rms          rms(c)
DAV:   1    -0.232323694194E+04    0.32036E+01   -0.14251E+02  4456   0.913E+00    0.589E+00
RMM:   2    -0.232800110081E+04   -0.47642E+01   -0.43165E+01  6606   0.315E+00    0.112E+01
RMM:   3    -0.232699449071E+04    0.10066E+01   -0.39178E+00  4946   0.105E+00    0.390E+00
RMM:   4    -0.232694087464E+04    0.53616E-01   -0.58331E-01  5665   0.313E-01    0.336E+00
RMM:   5    -0.232687815645E+04    0.62718E-01   -0.14141E-01  5778   0.176E-01    0.192E+00
RMM:   6    -0.232687004662E+04    0.81098E-02   -0.13129E-01  5000   0.178E-01    0.978E-01
RMM:   7    -0.232689315280E+04   -0.23106E-01   -0.51046E-02  4873   0.118E-01    0.457E-01
RMM:   8    -0.232692123596E+04   -0.28083E-01   -0.13000E-02  4837   0.591E-02    0.280E-01
RMM:   9    -0.232694708798E+04   -0.25852E-01   -0.54688E-03  4556   0.387E-02    0.207E-01
RMM:  10    -0.232697951410E+04   -0.32426E-01   -0.76175E-03  4447   0.470E-02    0.151E-01
RMM:  11    -0.232699190081E+04   -0.12387E-01   -0.30312E-03  4564   0.364E-02    0.898E-02
RMM:  12    -0.232700233135E+04   -0.10431E-01   -0.32226E-03  4417   0.298E-02    0.673E-02
RMM:  13    -0.232700556738E+04   -0.32360E-02   -0.93996E-04  4280   0.246E-02    0.309E-02
RMM:  14    -0.232700661788E+04   -0.10505E-02   -0.31568E-04  4245   0.108E-02    0.144E-02
RMM:  15    -0.232700715361E+04   -0.53573E-03   -0.74367E-05  3640   0.693E-03    0.916E-03
RMM:  16    -0.232700739111E+04   -0.23750E-03   -0.34353E-05  3230   0.464E-03    0.414E-03
RMM:  17    -0.232700745849E+04   -0.67378E-04   -0.12374E-05  2899   0.382E-03    0.217E-03
RMM:  18    -0.232700747102E+04   -0.12530E-04   -0.59090E-06  2765   0.280E-03    0.126E-03
RMM:  19    -0.232700747336E+04   -0.23389E-05   -0.28265E-06  2470   0.215E-03
   9 F= -.23480264E+04 E0= -.23480264E+04  d E =-.813828E+00  mag=     5.0005
       N       E                     dE             d eps       ncg     rms          rms(c)
DAV:   1    -0.232688798210E+04    0.11949E+00   -0.17042E+01  4528   0.300E+00    0.149E+00
RMM:   2    -0.232728532002E+04   -0.39734E+00   -0.38949E+00  6634   0.921E-01    0.180E+00
RMM:   3    -0.232728212847E+04    0.31916E-02   -0.38978E-01  5888   0.315E-01    0.946E-01
RMM:   4    -0.232727708758E+04    0.50409E-02   -0.38632E-02  5782   0.713E-02    0.554E-01
RMM:   5    -0.232727551552E+04    0.15721E-02   -0.67155E-03  5190   0.310E-02    0.409E-01
RMM:   6    -0.232727347622E+04    0.20393E-02   -0.40794E-03  5122   0.280E-02    0.166E-01
RMM:   7    -0.232727335395E+04    0.12227E-03   -0.76237E-04  4422   0.177E-02    0.599E-02
RMM:   8    -0.232727334605E+04    0.79025E-05   -0.13919E-04  3363   0.780E-03    0.289E-02
RMM:   9    -0.232727335039E+04   -0.43384E-05   -0.32160E-05  2983   0.499E-03
  10 F= -.23482904E+04 E0= -.23482904E+04  d E =-.263992E+00  mag=     5.0001
       N       E                     dE             d eps       ncg     rms          rms(c)
DAV:   1    -0.232673324082E+04    0.54011E+00   -0.29411E+01  4464   0.399E+00    0.193E+00
RMM:   2    -0.232743101230E+04   -0.69777E+00   -0.68813E+00  6616   0.127E+00    0.231E+00
RMM:   3    -0.232742351721E+04    0.74951E-02   -0.67409E-01  5739   0.448E-01    0.117E+00
RMM:   4    -0.232741717332E+04    0.63439E-02   -0.68353E-02  5932   0.950E-02    0.743E-01
RMM:   5    -0.232741439558E+04    0.27777E-02   -0.11589E-02  5462   0.412E-02    0.553E-01
RMM:   6    -0.232741082880E+04    0.35668E-02   -0.73089E-03  5232   0.371E-02    0.221E-01
RMM:   7    -0.232741060806E+04    0.22074E-03   -0.13617E-03  4649   0.239E-02    0.820E-02
RMM:   8    -0.232741059433E+04    0.13737E-04   -0.25686E-04  3650   0.999E-03    0.418E-02
RMM:   9    -0.232741059993E+04   -0.56041E-05   -0.66788E-05  3173   0.629E-03
  11 F= -.23484256E+04 E0= -.23484256E+04  d E =-.399186E+00  mag=     5.0000
       N       E                     dE             d eps       ncg     rms          rms(c)
DAV:   1    -0.232747758213E+04   -0.66988E-01   -0.61116E+00  4680   0.209E+00    0.883E-01
RMM:   2    -0.232762066177E+04   -0.14308E+00   -0.14350E+00  6205   0.584E-01    0.103E+00
RMM:   3    -0.232762387192E+04   -0.32101E-02   -0.15256E-01  5724   0.243E-01    0.649E-01
RMM:   4    -0.232762088931E+04    0.29826E-02   -0.13706E-02  5496   0.486E-02    0.268E-01
RMM:   5    -0.232762003463E+04    0.85468E-03   -0.33049E-03  5625   0.309E-02    0.254E-01
RMM:   6    -0.232761944179E+04    0.59284E-03   -0.19618E-03  5586   0.229E-02    0.153E-01
RMM:   7    -0.232761922081E+04    0.22098E-03   -0.48254E-04  5010   0.136E-02    0.458E-02
RMM:   8    -0.232761919883E+04    0.21986E-04   -0.51349E-05  3009   0.601E-03    0.193E-02
RMM:   9    -0.232761918841E+04    0.10416E-04   -0.41098E-05  3098   0.498E-03    0.804E-03
RMM:  10    -0.232761918733E+04    0.10779E-05   -0.10343E-05  2906   0.373E-03
  12 F= -.23486352E+04 E0= -.23486352E+04  d E =-.209556E+00  mag=     5.0000
       N       E                     dE             d eps       ncg     rms          rms(c)
DAV:   1    -0.232744445047E+04    0.17474E+00   -0.12462E+01  4528   0.296E+00    0.125E+00
RMM:   2    -0.232773177459E+04   -0.28732E+00   -0.28973E+00  6279   0.812E-01    0.143E+00
RMM:   3    -0.232774292989E+04   -0.11155E-01   -0.33629E-01  5893   0.333E-01    0.993E-01
RMM:   4    -0.232773574307E+04    0.71868E-02   -0.28910E-02  5750   0.700E-02    0.407E-01
RMM:   5    -0.232773467436E+04    0.10687E-02   -0.67252E-03  5736   0.409E-02    0.446E-01
RMM:   6    -0.232773236599E+04    0.23084E-02   -0.48071E-03  5785   0.348E-02    0.186E-01
RMM:   7    -0.232773204458E+04    0.32140E-03   -0.13287E-03  5262   0.211E-02    0.727E-02
RMM:   8    -0.232773197268E+04    0.71903E-04   -0.11331E-04  3677   0.883E-03    0.316E-02
RMM:   9    -0.232773193336E+04    0.39323E-04   -0.12841E-04  3607   0.840E-03    0.109E-02
RMM:  10    -0.232773192746E+04    0.58929E-05   -0.24026E-05  2965   0.459E-03
  13 F= -.23487496E+04 E0= -.23487496E+04  d E =-.323951E+00  mag=     5.0000
       N       E                     dE             d eps       ncg     rms          rms(c)
DAV:   1    -0.232776252404E+04   -0.30591E-01   -0.22891E+00  4624   0.145E+00    0.629E-01
RMM:   2    -0.232780590877E+04   -0.43385E-01   -0.43173E-01  6045   0.342E-01    0.733E-01
RMM:   3    -0.232780426106E+04    0.16477E-02   -0.48838E-02  5811   0.131E-01    0.369E-01
RMM:   4    -0.232780308778E+04    0.11733E-02   -0.47280E-03  5098   0.317E-02    0.157E-01
RMM:   5    -0.232780304806E+04    0.39725E-04   -0.12036E-03  5276   0.220E-02    0.204E-01
RMM:   6    -0.232780255649E+04    0.49156E-03   -0.80087E-04  5286   0.165E-02    0.640E-02
RMM:   7    -0.232780249857E+04    0.57927E-04   -0.19482E-04  4305   0.114E-02    0.204E-02
RMM:   8    -0.232780248537E+04    0.13195E-04   -0.27995E-05  3061   0.527E-03    0.114E-02
RMM:   9    -0.232780247493E+04    0.10444E-04   -0.20175E-05  2990   0.435E-03    0.637E-03
RMM:  10    -0.232780247214E+04    0.27900E-05   -0.85287E-06  2852   0.382E-03
  14 F= -.23488208E+04 E0= -.23488208E+04  d E =-.712603E-01  mag=     5.0000
       N       E                     dE             d eps       ncg     rms          rms(c)
DAV:   1    -0.232767778844E+04    0.12469E+00   -0.10592E+01  4480   0.312E+00    0.135E+00
RMM:   2    -0.232787967447E+04   -0.20189E+00   -0.20237E+00  6042   0.748E-01    0.152E+00
RMM:   3    -0.232786985146E+04    0.98230E-02   -0.21213E-01  5773   0.272E-01    0.750E-01
RMM:   4    -0.232786474960E+04    0.51019E-02   -0.20344E-02  5304   0.675E-02    0.329E-01
RMM:   5    -0.232786454446E+04    0.20514E-03   -0.54298E-03  5755   0.465E-02    0.434E-01
RMM:   6    -0.232786230398E+04    0.22405E-02   -0.34479E-03  5578   0.337E-02    0.140E-01
RMM:   7    -0.232786199348E+04    0.31051E-03   -0.89273E-04  4936   0.229E-02    0.443E-02
RMM:   8    -0.232786192238E+04    0.71098E-04   -0.13146E-04  4300   0.963E-03    0.252E-02
RMM:   9    -0.232786186593E+04    0.56448E-04   -0.93438E-05  3866   0.820E-03    0.156E-02
RMM:  10    -0.232786184913E+04    0.16802E-04   -0.35170E-05  3257   0.590E-03    0.824E-03
RMM:  11    -0.232786184433E+04    0.48018E-05   -0.15937E-05  2933   0.489E-03
  15 F= -.23488817E+04 E0= -.23488817E+04  d E =-.132144E+00  mag=     5.0000
       N       E                     dE             d eps       ncg     rms          rms(c)
DAV:   1    -0.232789147616E+04   -0.29627E-01   -0.12267E+00  4736   0.986E-01    0.373E-01
RMM:   2    -0.232791050285E+04   -0.19027E-01   -0.19496E-01  6095   0.226E-01    0.370E-01
RMM:   3    -0.232791113988E+04   -0.63703E-03   -0.20617E-02  5802   0.805E-02    0.241E-01
RMM:   4    -0.232791064400E+04    0.49588E-03   -0.18500E-03  4958   0.192E-02    0.105E-01
RMM:   5    -0.232791061442E+04    0.29583E-04   -0.45597E-04  4578   0.130E-02    0.118E-01
RMM:   6    -0.232791048130E+04    0.13312E-03   -0.30849E-04  4646   0.107E-02    0.480E-02
RMM:   7    -0.232791046563E+04    0.15674E-04   -0.60237E-05  3237   0.688E-03    0.151E-02
RMM:   8    -0.232791046236E+04    0.32728E-05   -0.12079E-05  2903   0.425E-03
  16 F= -.23489305E+04 E0= -.23489305E+04  d E =-.488242E-01  mag=     5.0000
       N       E                     dE             d eps       ncg     rms          rms(c)
DAV:   1    -0.232781559427E+04    0.94871E-01   -0.11024E+01  4496   0.296E+00    0.113E+00
RMM:   2    -0.232799086626E+04   -0.17527E+00   -0.17909E+00  6094   0.706E-01    0.114E+00
RMM:   3    -0.232799398985E+04   -0.31236E-02   -0.19179E-01  5919   0.244E-01    0.661E-01
RMM:   4    -0.232799042297E+04    0.35669E-02   -0.16412E-02  5571   0.563E-02    0.307E-01
RMM:   5    -0.232798999739E+04    0.42557E-03   -0.40825E-03  5789   0.379E-02    0.329E-01
RMM:   6    -0.232798901593E+04    0.98146E-03   -0.24927E-03  5659   0.277E-02    0.159E-01
RMM:   7    -0.232798880832E+04    0.20761E-03   -0.52070E-04  4856   0.171E-02    0.476E-02
RMM:   8    -0.232798877466E+04    0.33665E-04   -0.92704E-05  3672   0.791E-03    0.258E-02
RMM:   9    -0.232798875495E+04    0.19709E-04   -0.56387E-05  3377   0.650E-03    0.108E-02
RMM:  10    -0.232798875002E+04    0.49328E-05   -0.17127E-05  2918   0.464E-03
  17 F= -.23490094E+04 E0= -.23490094E+04  d E =-.127685E+00  mag=     5.0000
       N       E                     dE             d eps       ncg     rms          rms(c)
DAV:   1    -0.232798054891E+04    0.82060E-02   -0.72820E-01  4792   0.766E-01    0.286E-01
RMM:   2    -0.232799184647E+04   -0.11298E-01   -0.11680E-01  6153   0.182E-01    0.272E-01
RMM:   3    -0.232799226445E+04   -0.41798E-03   -0.12180E-02  5700   0.624E-02    0.179E-01
RMM:   4    -0.232799199379E+04    0.27066E-03   -0.10695E-03  4601   0.150E-02    0.830E-02
RMM:   5    -0.232799197734E+04    0.16448E-04   -0.27993E-04  4069   0.103E-02    0.935E-02
RMM:   6    -0.232799188903E+04    0.88311E-04   -0.20677E-04  4276   0.932E-03    0.350E-02
RMM:   7    -0.232799187993E+04    0.90989E-05   -0.37264E-05  3038   0.595E-03
  18 F= -.23490127E+04 E0= -.23490127E+04  d E =-.130950E+00  mag=     5.0000
       N       E                     dE             d eps       ncg     rms          rms(c)
DAV:   1    -0.232800093937E+04   -0.90503E-02   -0.12511E+00  4496   0.968E-01    0.414E-01
RMM:   2    -0.232803053233E+04   -0.29593E-01   -0.31098E-01  6388   0.259E-01    0.362E-01
RMM:   3    -0.232803270953E+04   -0.21772E-02   -0.37959E-02  5718   0.994E-02    0.265E-01
RMM:   4    -0.232803228384E+04    0.42569E-03   -0.28245E-03  4852   0.211E-02    0.121E-01
RMM:   5    -0.232803220014E+04    0.83693E-04   -0.46387E-04  4150   0.114E-02    0.122E-01
RMM:   6    -0.232803206607E+04    0.13407E-03   -0.35382E-04  4327   0.103E-02    0.708E-02
RMM:   7    -0.232803202036E+04    0.45712E-04   -0.11733E-04  3498   0.733E-03    0.205E-02
RMM:   8    -0.232803201529E+04    0.50683E-05   -0.17617E-05  2920   0.506E-03
  19 F= -.23490519E+04 E0= -.23490519E+04  d E =-.392695E-01  mag=     5.0000
       N       E                     dE             d eps       ncg     rms          rms(c)
DAV:   1    -0.232780636251E+04    0.22566E+00   -0.11290E+01  4448   0.290E+00    0.124E+00
RMM:   2    -0.232807533568E+04   -0.26897E+00   -0.28218E+00  6354   0.776E-01    0.116E+00
RMM:   3    -0.232809434127E+04   -0.19006E-01   -0.34984E-01  5884   0.293E-01    0.860E-01
RMM:   4    -0.232808913292E+04    0.52083E-02   -0.26944E-02  5950   0.622E-02    0.358E-01
RMM:   5    -0.232808711502E+04    0.20179E-02   -0.45823E-03  5704   0.351E-02    0.191E-01
RMM:   6    -0.232808678263E+04    0.33240E-03   -0.22534E-03  5222   0.241E-02    0.962E-02
RMM:   7    -0.232808681394E+04   -0.31318E-04   -0.47049E-04  4345   0.148E-02    0.115E-01
RMM:   8    -0.232808667553E+04    0.13841E-03   -0.12857E-04  3444   0.708E-03    0.295E-02
RMM:   9    -0.232808665464E+04    0.20891E-04   -0.62320E-05  3005   0.585E-03    0.125E-02
RMM:  10    -0.232808664986E+04    0.47743E-05   -0.17251E-05  2928   0.406E-03
  20 F= -.23491041E+04 E0= -.23491041E+04  d E =-.914075E-01  mag=     5.0000
       N       E                     dE             d eps       ncg     rms          rms(c)
DAV:   1    -0.232807887117E+04    0.77835E-02   -0.35029E+00  4496   0.180E+00    0.711E-01
RMM:   2    -0.232812852576E+04   -0.49655E-01   -0.51401E-01  6003   0.417E-01    0.637E-01
RMM:   3    -0.232813003848E+04   -0.15127E-02   -0.56305E-02  5713   0.149E-01    0.469E-01
RMM:   4    -0.232812794880E+04    0.20897E-02   -0.54978E-03  5378   0.380E-02    0.163E-01
RMM:   5    -0.232812740682E+04    0.54197E-03   -0.15910E-03  5383   0.276E-02    0.766E-02
RMM:   6    -0.232812742078E+04   -0.13952E-04   -0.52556E-04  5057   0.165E-02    0.107E-01
RMM:   7    -0.232812730728E+04    0.11349E-03   -0.13756E-04  3634   0.848E-03    0.285E-02
RMM:   8    -0.232812728386E+04    0.23424E-04   -0.26850E-05  2969   0.464E-03    0.131E-02
RMM:   9    -0.232812726890E+04    0.14959E-04   -0.26325E-05  3051   0.455E-03    0.666E-03
RMM:  10    -0.232812726545E+04    0.34507E-05   -0.88111E-06  2866   0.407E-03
  21 F= -.23491446E+04 E0= -.23491446E+04  d E =-.405459E-01  mag=     5.0000
       N       E                     dE             d eps       ncg     rms          rms(c)
DAV:   1    -0.232811475721E+04    0.12512E-01   -0.14480E+00  4528   0.115E+00    0.455E-01
RMM:   2    -0.232813510617E+04   -0.20349E-01   -0.21072E-01  5995   0.266E-01    0.410E-01
RMM:   3    -0.232813570307E+04   -0.59690E-03   -0.22940E-02  5651   0.958E-02    0.300E-01
RMM:   4    -0.232813484579E+04    0.85728E-03   -0.22772E-03  5148   0.245E-02    0.105E-01
RMM:   5    -0.232813460907E+04    0.23672E-03   -0.65599E-04  5168   0.181E-02    0.470E-02
RMM:   6    -0.232813459299E+04    0.16079E-04   -0.19633E-04  4626   0.110E-02    0.537E-02
RMM:   7    -0.232813456489E+04    0.28104E-04   -0.48465E-05  3100   0.620E-03    0.216E-02
RMM:   8    -0.232813455317E+04    0.11717E-04   -0.12050E-05  2902   0.353E-03    0.870E-03
RMM:   9    -0.232813454580E+04    0.73728E-05   -0.12830E-05  2891   0.333E-03
  22 F= -.23491519E+04 E0= -.23491519E+04  d E =-.477935E-01  mag=     5.0000
       N       E                     dE             d eps       ncg     rms          rms(c)
DAV:   1    -0.232812889953E+04    0.56536E-02   -0.29741E+00  4480   0.143E+00    0.527E-01
RMM:   2    -0.232817057346E+04   -0.41674E-01   -0.43218E-01  6313   0.344E-01    0.489E-01
RMM:   3    -0.232817284869E+04   -0.22752E-02   -0.43871E-02  5813   0.111E-01    0.332E-01
RMM:   4    -0.232817208386E+04    0.76484E-03   -0.45977E-03  5202   0.269E-02    0.150E-01
RMM:   5    -0.232817180456E+04    0.27929E-03   -0.80153E-04  4906   0.175E-02    0.680E-02
RMM:   6    -0.232817179880E+04    0.57676E-05   -0.31444E-04  4480   0.113E-02    0.483E-02
RMM:   7    -0.232817179175E+04    0.70413E-05   -0.70614E-05  3045   0.710E-03
  23 F= -.23491902E+04 E0= -.23491902E+04  d E =-.383476E-01  mag=     5.0000
       N       E                     dE             d eps       ncg     rms          rms(c)
DAV:   1    -0.232798440168E+04    0.18740E+00   -0.15203E+01  4480   0.325E+00    0.120E+00
RMM:   2    -0.232819721392E+04   -0.21281E+00   -0.22121E+00  6320   0.787E-01    0.113E+00
RMM:   3    -0.232820915233E+04   -0.11938E-01   -0.23833E-01  5924   0.255E-01    0.755E-01
RMM:   4    -0.232820518351E+04    0.39688E-02   -0.23611E-02  5522   0.605E-02    0.344E-01
RMM:   5    -0.232820390016E+04    0.12833E-02   -0.41311E-03  5346   0.390E-02    0.199E-01
RMM:   6    -0.232820444436E+04   -0.54420E-03   -0.28795E-03  5645   0.274E-02    0.305E-01
RMM:   7    -0.232820358729E+04    0.85707E-03   -0.89775E-04  4748   0.168E-02    0.501E-02
RMM:   8    -0.232820355368E+04    0.33608E-04   -0.13468E-04  3390   0.612E-03    0.273E-02
RMM:   9    -0.232820353263E+04    0.21048E-04   -0.60802E-05  3071   0.605E-03    0.110E-02
RMM:  10    -0.232820352851E+04    0.41283E-05   -0.17047E-05  2938   0.426E-03
  24 F= -.23492246E+04 E0= -.23492246E+04  d E =-.727070E-01  mag=     5.0000
       N       E                     dE             d eps       ncg     rms          rms(c)
DAV:   1    -0.232817437409E+04    0.29159E-01   -0.37172E+00  4512   0.170E+00    0.662E-01
RMM:   2    -0.232823106869E+04   -0.56695E-01   -0.61979E-01  6202   0.408E-01    0.367E-01
RMM:   3    -0.232823656693E+04   -0.54982E-02   -0.70868E-02  5749   0.148E-01    0.288E-01
RMM:   4    -0.232823669076E+04   -0.12383E-03   -0.67027E-03  5666   0.339E-02    0.255E-01
RMM:   5    -0.232823615425E+04    0.53651E-03   -0.14358E-03  5365   0.211E-02    0.138E-01
RMM:   6    -0.232823611213E+04    0.42127E-04   -0.66935E-04  4764   0.145E-02    0.125E-01
RMM:   7    -0.232823597831E+04    0.13382E-03   -0.26057E-04  3766   0.104E-02    0.563E-02
RMM:   8    -0.232823594824E+04    0.30067E-04   -0.33571E-05  2947   0.492E-03    0.122E-02
RMM:   9    -0.232823594381E+04    0.44345E-05   -0.11710E-05  2920   0.335E-03
  25 F= -.23492582E+04 E0= -.23492582E+04  d E =-.336305E-01  mag=     5.0000
       N       E                     dE             d eps       ncg     rms          rms(c)
DAV:   1    -0.232821853962E+04    0.17409E-01   -0.13528E+00  4576   0.103E+00    0.398E-01
RMM:   2    -0.232823906403E+04   -0.20524E-01   -0.22427E-01  6189   0.246E-01    0.221E-01
RMM:   3    -0.232824106542E+04   -0.20014E-02   -0.25653E-02  5702   0.889E-02    0.176E-01
RMM:   4    -0.232824111053E+04   -0.45112E-04   -0.24408E-03  4877   0.206E-02    0.154E-01
RMM:   5    -0.232824090677E+04    0.20376E-03   -0.52407E-04  4926   0.133E-02    0.834E-02
RMM:   6    -0.232824089904E+04    0.77322E-05   -0.26182E-04  3816   0.975E-03    0.796E-02
RMM:   7    -0.232824083965E+04    0.59383E-04   -0.96722E-05  3127   0.710E-03    0.287E-02
RMM:   8    -0.232824083102E+04    0.86324E-05   -0.12634E-05  2895   0.380E-03
  26 F= -.23492638E+04 E0= -.23492638E+04  d E =-.392680E-01  mag=     5.0000
       N       E                     dE             d eps       ncg     rms          rms(c)
DAV:   1    -0.232823038566E+04    0.10454E-01   -0.16384E+00  4496   0.116E+00    0.474E-01
RMM:   2    -0.232825944218E+04   -0.29057E-01   -0.31115E-01  6095   0.286E-01    0.265E-01
RMM:   3    -0.232826237480E+04   -0.29326E-02   -0.33921E-02  5687   0.107E-01    0.279E-01
RMM:   4    -0.232826192330E+04    0.45151E-03   -0.33151E-03  5003   0.251E-02    0.140E-01
RMM:   5    -0.232826177387E+04    0.14943E-03   -0.65982E-04  4854   0.150E-02    0.111E-01
RMM:   6    -0.232826170611E+04    0.67761E-04   -0.40512E-04  4437   0.124E-02    0.856E-02
RMM:   7    -0.232826163547E+04    0.70632E-04   -0.12359E-04  3948   0.814E-03    0.265E-02
RMM:   8    -0.232826162584E+04    0.96375E-05   -0.19535E-05  2928   0.487E-03
  27 F= -.23492849E+04 E0= -.23492849E+04  d E =-.210071E-01  mag=     5.0000
       N       E                     dE             d eps       ncg     rms          rms(c)
DAV:   1    -0.232820880361E+04    0.52832E-01   -0.32338E+00  4464   0.164E+00    0.669E-01
RMM:   2    -0.232826745615E+04   -0.58653E-01   -0.62778E-01  6113   0.408E-01    0.382E-01
RMM:   3    -0.232827355086E+04   -0.60947E-02   -0.70586E-02  5708   0.151E-01    0.403E-01
RMM:   4    -0.232827253919E+04    0.10117E-02   -0.65116E-03  5531   0.352E-02    0.197E-01
RMM:   5    -0.232827221435E+04    0.32484E-03   -0.13166E-03  5149   0.204E-02    0.152E-01
RMM:   6    -0.232827210272E+04    0.11162E-03   -0.83062E-04  4970   0.168E-02    0.130E-01
RMM:   7    -0.232827193384E+04    0.16888E-03   -0.26957E-04  4708   0.111E-02    0.395E-02
RMM:   8    -0.232827190915E+04    0.24694E-04   -0.40608E-05  3036   0.591E-03    0.127E-02
RMM:   9    -0.232827190029E+04    0.88589E-05   -0.14854E-05  2907   0.406E-03
  28 F= -.23492954E+04 E0= -.23492954E+04  d E =-.315839E-01  mag=     5.0000
       N       E                     dE             d eps       ncg     rms          rms(c)
DAV:   1    -0.232826668082E+04    0.52283E-02   -0.10165E+00  4560   0.841E-01    0.345E-01
RMM:   2    -0.232828603879E+04   -0.19358E-01   -0.20553E-01  6342   0.212E-01    0.192E-01
RMM:   3    -0.232828795746E+04   -0.19187E-02   -0.21789E-02  5585   0.784E-02    0.166E-01
RMM:   4    -0.232828788714E+04    0.70325E-04   -0.20930E-03  3633   0.172E-02    0.107E-01
RMM:   5    -0.232828779884E+04    0.88298E-04   -0.30083E-04  3613   0.970E-03    0.731E-02
RMM:   6    -0.232828778478E+04    0.14055E-04   -0.21232E-04  3716   0.900E-03    0.684E-02
RMM:   7    -0.232828774657E+04    0.38216E-04   -0.74250E-05  3169   0.648E-03    0.237E-02
RMM:   8    -0.232828774121E+04    0.53558E-05   -0.14077E-05  2907   0.414E-03
  29 F= -.23493112E+04 E0= -.23493112E+04  d E =-.157802E-01  mag=     5.0000
       N       E                     dE             d eps       ncg     rms          rms(c)
DAV:   1    -0.232812066610E+04    0.16708E+00   -0.91359E+00  4480   0.252E+00    0.104E+00
RMM:   2    -0.232829643706E+04   -0.17577E+00   -0.18682E+00  6349   0.652E-01    0.590E-01
RMM:   3    -0.232831467679E+04   -0.18240E-01   -0.21145E-01  5834   0.232E-01    0.527E-01
RMM:   4    -0.232831359900E+04    0.10778E-02   -0.19031E-02  5758   0.524E-02    0.325E-01
RMM:   5    -0.232831273190E+04    0.86709E-03   -0.28076E-03  4978   0.257E-02    0.212E-01
RMM:   6    -0.232831257025E+04    0.16165E-03   -0.19550E-03  5569   0.232E-02    0.205E-01
RMM:   7    -0.232831226150E+04    0.30875E-03   -0.71826E-04  5009   0.154E-02    0.939E-02
RMM:   8    -0.232831216469E+04    0.96812E-04   -0.14505E-04  3730   0.745E-03    0.302E-02
RMM:   9    -0.232831214794E+04    0.16744E-04   -0.42967E-05  2963   0.584E-03    0.129E-02
RMM:  10    -0.232831214368E+04    0.42581E-05   -0.18863E-05  2897   0.392E-03
  30 F= -.23493354E+04 E0= -.23493354E+04  d E =-.399764E-01  mag=     5.0000
       N       E                     dE             d eps       ncg     rms          rms(c)
DAV:   1    -0.232830581658E+04    0.63314E-02   -0.11448E+00  4528   0.870E-01    0.358E-01
RMM:   2    -0.232832675480E+04   -0.20938E-01   -0.22479E-01  6304   0.212E-01    0.196E-01
RMM:   3    -0.232832876046E+04   -0.20057E-02   -0.24790E-02  5638   0.812E-02    0.173E-01
RMM:   4    -0.232832873424E+04    0.26218E-04   -0.24131E-03  3786   0.174E-02    0.125E-01
RMM:   5    -0.232832855918E+04    0.17506E-03   -0.43201E-04  4241   0.120E-02    0.665E-02
RMM:   6    -0.232832851403E+04    0.45148E-04   -0.17986E-04  3977   0.862E-03    0.190E-02
RMM:   7    -0.232832851282E+04    0.12149E-05   -0.22406E-05  2913   0.590E-03
  31 F= -.23493516E+04 E0= -.23493516E+04  d E =-.161490E-01  mag=     5.0000
       N       E                     dE             d eps       ncg     rms          rms(c)
DAV:   1    -0.232827092401E+04    0.57590E-01   -0.34659E+00  4480   0.151E+00    0.624E-01
RMM:   2    -0.232833428509E+04   -0.63361E-01   -0.68190E-01  6266   0.370E-01    0.336E-01
RMM:   3    -0.232834045794E+04   -0.61728E-02   -0.77780E-02  5673   0.147E-01    0.282E-01
RMM:   4    -0.232834049645E+04   -0.38512E-04   -0.74308E-03  5211   0.303E-02    0.225E-01
RMM:   5    -0.232833996833E+04    0.52812E-03   -0.12322E-03  5019   0.189E-02    0.128E-01
RMM:   6    -0.232833979658E+04    0.17175E-03   -0.63877E-04  4688   0.140E-02    0.372E-02
RMM:   7    -0.232833979042E+04    0.61544E-05   -0.82303E-05  3178   0.939E-03
  32 F= -.23493624E+04 E0= -.23493624E+04  d E =-.270392E-01  mag=     5.0000
       N       E                     dE             d eps       ncg     rms          rms(c)
DAV:   1    -0.232830375715E+04    0.36039E-01   -0.21210E+00  4496   0.115E+00    0.499E-01
RMM:   2    -0.232834938454E+04   -0.45627E-01   -0.48640E-01  6246   0.283E-01    0.267E-01
RMM:   3    -0.232835432099E+04   -0.49364E-02   -0.57662E-02  5602   0.122E-01    0.225E-01
RMM:   4    -0.232835442381E+04   -0.10282E-03   -0.53578E-03  4681   0.246E-02    0.173E-01
RMM:   5    -0.232835410521E+04    0.31860E-03   -0.57559E-04  4345   0.129E-02    0.969E-02
RMM:   6    -0.232835402546E+04    0.79749E-04   -0.46346E-04  4782   0.123E-02    0.579E-02
RMM:   7    -0.232835402032E+04    0.51344E-05   -0.11340E-04  3072   0.791E-03    0.507E-02
RMM:   8    -0.232835399414E+04    0.26179E-04   -0.27564E-05  2924   0.433E-03    0.127E-02
RMM:   9    -0.232835399154E+04    0.26011E-05   -0.11965E-05  2900   0.301E-03
  33 F= -.23493765E+04 E0= -.23493765E+04  d E =-.140429E-01  mag=     5.0000
       N       E                     dE             d eps       ncg     rms          rms(c)
DAV:   1    -0.232819552636E+04    0.15847E+00   -0.71157E+00  4480   0.211E+00    0.913E-01
RMM:   2    -0.232834903194E+04   -0.15351E+00   -0.16357E+00  6223   0.520E-01    0.493E-01
RMM:   3    -0.232836569026E+04   -0.16658E-01   -0.19712E-01  5693   0.218E-01    0.385E-01
RMM:   4    -0.232836599438E+04   -0.30412E-03   -0.17684E-02  5549   0.420E-02    0.319E-01
RMM:   5    -0.232836499754E+04    0.99685E-03   -0.19887E-03  5087   0.225E-02    0.197E-01
RMM:   6    -0.232836452027E+04    0.47727E-03   -0.16417E-03  4889   0.205E-02    0.618E-02
RMM:   7    -0.232836454951E+04   -0.29245E-04   -0.29665E-04  4132   0.147E-02    0.869E-02
RMM:   8    -0.232836448213E+04    0.67383E-04   -0.97715E-05  3172   0.602E-03    0.267E-02
RMM:   9    -0.232836446560E+04    0.16528E-04   -0.40210E-05  2937   0.465E-03    0.979E-03
RMM:  10    -0.232836446382E+04    0.17748E-05   -0.10431E-05  2896   0.334E-03
  34 F= -.23493866E+04 E0= -.23493866E+04  d E =-.241776E-01  mag=     5.0000
       N       E                     dE             d eps       ncg     rms          rms(c)
DAV:   1    -0.232834956279E+04    0.14903E-01   -0.10310E+00  4544   0.747E-01    0.335E-01
RMM:   2    -0.232837323541E+04   -0.23673E-01   -0.25140E-01  6467   0.188E-01    0.181E-01
RMM:   3    -0.232837569007E+04   -0.24547E-02   -0.27811E-02  5180   0.775E-02    0.126E-01
RMM:   4    -0.232837582438E+04   -0.13431E-03   -0.26487E-03  3431   0.151E-02    0.116E-01
RMM:   5    -0.232837569435E+04    0.13003E-03   -0.23167E-04  3202   0.783E-03    0.681E-02
RMM:   6    -0.232837564591E+04    0.48438E-04   -0.17579E-04  3554   0.737E-03    0.187E-02
RMM:   7    -0.232837565008E+04   -0.41749E-05   -0.24882E-05  2939   0.494E-03
  35 F= -.23493978E+04 E0= -.23493978E+04  d E =-.111498E-01  mag=     5.0000
       N       E                     dE             d eps       ncg     rms          rms(c)
DAV:   1    -0.232816231767E+04    0.21333E+00   -0.92675E+00  4480   0.224E+00    0.101E+00
RMM:   2    -0.232837665066E+04   -0.21433E+00   -0.22824E+00  6506   0.570E-01    0.567E-01
RMM:   3    -0.232840034934E+04   -0.23699E-01   -0.27549E-01  5753   0.236E-01    0.360E-01
RMM:   4    -0.232840109402E+04   -0.74468E-03   -0.23580E-02  5282   0.437E-02    0.285E-01
RMM:   5    -0.232840087677E+04    0.21725E-03   -0.22247E-03  4742   0.203E-02    0.297E-01
RMM:   6    -0.232839995103E+04    0.92574E-03   -0.18395E-03  4976   0.191E-02    0.812E-02
RMM:   7    -0.232840001584E+04   -0.64818E-04   -0.51763E-04  4039   0.132E-02    0.105E-01
RMM:   8    -0.232839991940E+04    0.96444E-04   -0.12368E-04  3138   0.674E-03    0.316E-02
RMM:   9    -0.232839989972E+04    0.19684E-04   -0.59780E-05  2960   0.482E-03    0.123E-02
RMM:  10    -0.232839989868E+04    0.10373E-05   -0.13352E-05  2893   0.320E-03
  36 F= -.23494219E+04 E0= -.23494219E+04  d E =-.352382E-01  mag=     5.0000
       N       E                     dE             d eps       ncg     rms          rms(c)
DAV:   1    -0.232742439979E+04    0.97550E+00   -0.37045E+01  4480   0.447E+00    0.206E+00
RMM:   2    -0.232831648508E+04   -0.89209E+00   -0.94894E+00  6523   0.117E+00    0.127E+00
RMM:   3    -0.232840670308E+04   -0.90218E-01   -0.11177E+00  5975   0.459E-01    0.787E-01
RMM:   4    -0.232840876099E+04   -0.20579E-02   -0.93498E-02  6001   0.887E-02    0.581E-01
RMM:   5    -0.232840643729E+04    0.23237E-02   -0.11767E-02  5290   0.427E-02    0.495E-01
RMM:   6    -0.232840437593E+04    0.20614E-02   -0.62316E-03  5665   0.352E-02    0.285E-01
RMM:   7    -0.232840415823E+04    0.21770E-03   -0.19512E-03  5349   0.208E-02    0.218E-01
RMM:   8    -0.232840379624E+04    0.36199E-03   -0.91347E-04  4573   0.145E-02    0.112E-01
RMM:   9    -0.232840363787E+04    0.15837E-03   -0.26044E-04  3439   0.928E-03    0.330E-02
RMM:  10    -0.232840362267E+04    0.15201E-04   -0.83148E-05  2952   0.549E-03    0.110E-02
RMM:  11    -0.232840362184E+04    0.83422E-06   -0.13084E-05  2927   0.353E-03
  37 F= -.23494251E+04 E0= -.23494251E+04  d E =-.384825E-01  mag=     5.0000
       N       E                     dE             d eps       ncg     rms          rms(c)
DAV:   1    -0.232821392454E+04    0.18970E+00   -0.76522E+00  4480   0.202E+00    0.925E-01
RMM:   2    -0.232839194187E+04   -0.17802E+00   -0.18823E+00  6513   0.514E-01    0.578E-01
RMM:   3    -0.232841059559E+04   -0.18654E-01   -0.22331E-01  5786   0.212E-01    0.426E-01
RMM:   4    -0.232841081408E+04   -0.21849E-03   -0.19654E-02  5285   0.425E-02    0.288E-01
RMM:   5    -0.232841003744E+04    0.77664E-03   -0.19665E-03  4857   0.189E-02    0.192E-01
RMM:   6    -0.232840979247E+04    0.24497E-03   -0.15345E-03  5214   0.181E-02    0.138E-01
RMM:   7    -0.232840974563E+04    0.46838E-04   -0.43508E-04  3654   0.112E-02    0.103E-01
RMM:   8    -0.232840963581E+04    0.10982E-03   -0.12437E-04  3055   0.662E-03    0.313E-02
RMM:   9    -0.232840962523E+04    0.10583E-04   -0.35228E-05  2924   0.447E-03    0.113E-02
RMM:  10    -0.232840962413E+04    0.11019E-05   -0.10057E-05  2856   0.284E-03
  38 F= -.23494313E+04 E0= -.23494313E+04  d E =-.447210E-01  mag=     5.0000
       N       E                     dE             d eps       ncg     rms          rms(c)
DAV:   1    -0.232835502165E+04    0.54604E-01   -0.28104E+00  4480   0.135E+00    0.583E-01
RMM:   2    -0.232841740560E+04   -0.62384E-01   -0.66776E-01  6312   0.350E-01    0.294E-01
RMM:   3    -0.232842380800E+04   -0.64024E-02   -0.75410E-02  5655   0.140E-01    0.188E-01
RMM:   4    -0.232842410174E+04   -0.29375E-03   -0.68712E-03  4872   0.279E-02    0.157E-01
RMM:   5    -0.232842399464E+04    0.10710E-03   -0.68042E-04  4559   0.134E-02    0.155E-01
RMM:   6    -0.232842374529E+04    0.24935E-03   -0.48145E-04  4660   0.126E-02    0.448E-02
RMM:   7    -0.232842376375E+04   -0.18456E-04   -0.16640E-04  3319   0.856E-03    0.622E-02
RMM:   8    -0.232842372589E+04    0.37855E-04   -0.50005E-05  2924   0.511E-03    0.161E-02
RMM:   9    -0.232842372047E+04    0.54207E-05   -0.14362E-05  2895   0.339E-03
  39 F= -.23494455E+04 E0= -.23494455E+04  d E =-.142038E-01  mag=     5.0000
       N       E                     dE             d eps       ncg     rms          rms(c)
DAV:   1    -0.232837622298E+04    0.47503E-01   -0.21154E+00  4496   0.118E+00    0.505E-01
RMM:   2    -0.232842329920E+04   -0.47076E-01   -0.50378E-01  6302   0.305E-01    0.254E-01
RMM:   3    -0.232842807233E+04   -0.47731E-02   -0.56015E-02  5632   0.120E-01    0.164E-01
RMM:   4    -0.232842833667E+04   -0.26433E-03   -0.52046E-03  4608   0.244E-02    0.147E-01
RMM:   5    -0.232842820044E+04    0.13622E-03   -0.51555E-04  4261   0.120E-02    0.124E-01
RMM:   6    -0.232842803645E+04    0.16399E-03   -0.34448E-04  4456   0.111E-02    0.385E-02
RMM:   7    -0.232842804986E+04   -0.13415E-04   -0.12031E-04  3139   0.800E-03    0.538E-02
RMM:   8    -0.232842802132E+04    0.28543E-04   -0.37062E-05  2928   0.469E-03    0.132E-02
RMM:   9    -0.232842801722E+04    0.40988E-05   -0.11241E-05  2888   0.313E-03
  40 F= -.23494499E+04 E0= -.23494499E+04  d E =-.185891E-01  mag=     5.0000
       N       E                     dE             d eps       ncg     rms          rms(c)
DAV:   1    -0.232838931858E+04    0.38703E-01   -0.19354E+00  4496   0.117E+00    0.507E-01
RMM:   2    -0.232843479945E+04   -0.45481E-01   -0.48863E-01  6390   0.325E-01    0.236E-01
RMM:   3    -0.232843945861E+04   -0.46592E-02   -0.55151E-02  5758   0.120E-01    0.172E-01
RMM:   4    -0.232843975148E+04   -0.29288E-03   -0.48813E-03  4412   0.244E-02    0.162E-01
RMM:   5    -0.232843952330E+04    0.22819E-03   -0.45279E-04  3952   0.110E-02    0.997E-02
RMM:   6    -0.232843940392E+04    0.11938E-03   -0.25647E-04  4313   0.101E-02    0.363E-02
RMM:   7    -0.232843939455E+04    0.93670E-05   -0.87270E-05  3317   0.788E-03
  41 F= -.23494615E+04 E0= -.23494615E+04  d E =-.115867E-01  mag=     5.0000
       N       E                     dE             d eps       ncg     rms          rms(c)
DAV:   1    -0.232830206011E+04    0.13734E+00   -0.55246E+00  4480   0.198E+00    0.862E-01
RMM:   2    -0.232843260480E+04   -0.13054E+00   -0.14037E+00  6415   0.558E-01    0.408E-01
RMM:   3    -0.232844614449E+04   -0.13540E-01   -0.16245E-01  5857   0.200E-01    0.287E-01
RMM:   4    -0.232844667184E+04   -0.52734E-03   -0.13907E-02  5362   0.418E-02    0.234E-01
RMM:   5    -0.232844634776E+04    0.32408E-03   -0.13013E-03  4943   0.166E-02    0.197E-01
RMM:   6    -0.232844591368E+04    0.43408E-03   -0.76907E-04  4956   0.160E-02    0.751E-02
RMM:   7    -0.232844591516E+04   -0.14776E-05   -0.35645E-04  4578   0.120E-02    0.775E-02
RMM:   8    -0.232844585912E+04    0.56037E-04   -0.11815E-04  3165   0.730E-03    0.299E-02
RMM:   9    -0.232844584759E+04    0.11527E-04   -0.22186E-05  2920   0.476E-03    0.106E-02
RMM:  10    -0.232844584563E+04    0.19607E-05   -0.10996E-05  2870   0.303E-03
  42 F= -.23494683E+04 E0= -.23494683E+04  d E =-.183978E-01  mag=     5.0000
       N       E                     dE             d eps       ncg     rms          rms(c)
DAV:   1    -0.232840983719E+04    0.36010E-01   -0.18370E+00  4496   0.112E+00    0.470E-01
RMM:   2    -0.232845010935E+04   -0.40272E-01   -0.43269E-01  6500   0.309E-01    0.224E-01
RMM:   3    -0.232845432217E+04   -0.42128E-02   -0.48884E-02  5722   0.108E-01    0.173E-01
RMM:   4    -0.232845453813E+04   -0.21595E-03   -0.42930E-03  4143   0.220E-02    0.146E-01
RMM:   5    -0.232845435625E+04    0.18188E-03   -0.37940E-04  3609   0.105E-02    0.933E-02
RMM:   6    -0.232845428582E+04    0.70424E-04   -0.26016E-04  3992   0.977E-03    0.577E-02
RMM:   7    -0.232845428149E+04    0.43369E-05   -0.13396E-04  3173   0.734E-03    0.552E-02
RMM:   8    -0.232845425365E+04    0.27834E-04   -0.37872E-05  2942   0.490E-03    0.116E-02
RMM:   9    -0.232845425240E+04    0.12563E-05   -0.97930E-06  2895   0.319E-03
  43 F= -.23494768E+04 E0= -.23494768E+04  d E =-.842576E-02  mag=     5.0000
       N       E                     dE             d eps       ncg     rms          rms(c)
DAV:   1    -0.232836475012E+04    0.89504E-01   -0.38681E+00  4480   0.163E+00    0.684E-01
RMM:   2    -0.232844987771E+04   -0.85128E-01   -0.91513E-01  6513   0.453E-01    0.327E-01
RMM:   3    -0.232845880136E+04   -0.89237E-02   -0.10424E-01  5874   0.156E-01    0.252E-01
RMM:   4    -0.232845917656E+04   -0.37520E-03   -0.89311E-03  4904   0.318E-02    0.204E-01
RMM:   5    -0.232845884876E+04    0.32780E-03   -0.81593E-04  4352   0.145E-02    0.144E-01
RMM:   6    -0.232845865714E+04    0.19162E-03   -0.54239E-04  4609   0.134E-02    0.752E-02
RMM:   7    -0.232845867876E+04   -0.21621E-04   -0.28152E-04  3672   0.962E-03    0.893E-02
RMM:   8    -0.232845860275E+04    0.76008E-04   -0.95035E-05  3054   0.660E-03    0.192E-02
RMM:   9    -0.232845859814E+04    0.46051E-05   -0.22016E-05  2943   0.427E-03
  44 F= -.23494811E+04 E0= -.23494811E+04  d E =-.128125E-01  mag=     5.0000
       N       E                     dE             d eps       ncg     rms          rms(c)
DAV:   1    -0.232845174438E+04    0.68584E-02   -0.82411E-01  4528   0.789E-01    0.282E-01
RMM:   2    -0.232846466707E+04   -0.12923E-01   -0.13825E-01  6200   0.183E-01    0.180E-01
RMM:   3    -0.232846584749E+04   -0.11804E-02   -0.15166E-02  5598   0.665E-02    0.176E-01
RMM:   4    -0.232846566510E+04    0.18239E-03   -0.13982E-03  3598   0.150E-02    0.838E-02
RMM:   5    -0.232846557676E+04    0.88334E-04   -0.26346E-04  3820   0.104E-02    0.465E-02
RMM:   6    -0.232846555261E+04    0.24154E-04   -0.12259E-04  3776   0.791E-03    0.171E-02
RMM:   7    -0.232846555038E+04    0.22291E-05   -0.15598E-05  2888   0.564E-03
  45 F= -.23494877E+04 E0= -.23494877E+04  d E =-.654728E-02  mag=     5.0000
       N       E                     dE             d eps       ncg     rms          rms(c)
DAV:   1    -0.232842292717E+04    0.42625E-01   -0.28574E+00  4480   0.147E+00    0.525E-01
RMM:   2    -0.232846766482E+04   -0.44738E-01   -0.47953E-01  6203   0.341E-01    0.335E-01
RMM:   3    -0.232847198671E+04   -0.43219E-02   -0.54238E-02  5776   0.126E-01    0.340E-01
RMM:   4    -0.232847126951E+04    0.71721E-03   -0.49231E-03  5226   0.279E-02    0.157E-01
RMM:   5    -0.232847095929E+04    0.31022E-03   -0.91563E-04  4934   0.176E-02    0.894E-02
RMM:   6    -0.232847087818E+04    0.81103E-04   -0.48061E-04  4717   0.134E-02    0.453E-02
RMM:   7    -0.232847088316E+04   -0.49776E-05   -0.91376E-05  3106   0.852E-03
  46 F= -.23494923E+04 E0= -.23494923E+04  d E =-.111356E-01  mag=     5.0000
       N       E                     dE             d eps       ncg     rms          rms(c)
DAV:   1    -0.232846519700E+04    0.56812E-02   -0.89412E-01  4528   0.856E-01    0.287E-01
RMM:   2    -0.232847613557E+04   -0.10939E-01   -0.11799E-01  6066   0.179E-01    0.172E-01
RMM:   3    -0.232847715678E+04   -0.10212E-02   -0.13155E-02  5541   0.665E-02    0.175E-01
RMM:   4    -0.232847697475E+04    0.18203E-03   -0.12622E-03  3839   0.154E-02    0.857E-02
RMM:   5    -0.232847689756E+04    0.77193E-04   -0.29204E-04  4227   0.111E-02    0.576E-02
RMM:   6    -0.232847689933E+04   -0.17763E-05   -0.13962E-04  3325   0.872E-03    0.568E-02
RMM:   7    -0.232847686963E+04    0.29701E-04   -0.52105E-05  3043   0.616E-03    0.190E-02
RMM:   8    -0.232847686632E+04    0.33115E-05   -0.84448E-06  2872   0.368E-03
  47 F= -.23494981E+04 E0= -.23494981E+04  d E =-.585350E-02  mag=     5.0000
       N       E                     dE             d eps       ncg     rms          rms(c)
DAV:   1    -0.232845440549E+04    0.22464E-01   -0.19692E+00  4480   0.127E+00    0.424E-01
RMM:   2    -0.232847853920E+04   -0.24134E-01   -0.25975E-01  6006   0.264E-01    0.254E-01
RMM:   3    -0.232848079243E+04   -0.22532E-02   -0.29429E-02  5660   0.982E-02    0.263E-01
RMM:   4    -0.232848036942E+04    0.42301E-03   -0.27848E-03  4976   0.224E-02    0.125E-01
RMM:   5    -0.232848015857E+04    0.21085E-03   -0.64609E-04  4845   0.156E-02    0.623E-02
RMM:   6    -0.232848011810E+04    0.40478E-04   -0.20091E-04  4357   0.104E-02    0.268E-02
RMM:   7    -0.232848012016E+04   -0.20672E-05   -0.39884E-05  2986   0.636E-03
  48 F= -.23495012E+04 E0= -.23495012E+04  d E =-.891880E-02  mag=     5.0000
       N       E                     dE             d eps       ncg     rms          rms(c)
DAV:   1    -0.232847432125E+04    0.57968E-02   -0.92423E-01  4528   0.885E-01    0.271E-01
RMM:   2    -0.232848529096E+04   -0.10970E-01   -0.11620E-01  6084   0.185E-01    0.190E-01
RMM:   3    -0.232848617048E+04   -0.87952E-03   -0.11493E-02  5546   0.638E-02    0.196E-01
RMM:   4    -0.232848592649E+04    0.24398E-03   -0.12019E-03  4321   0.159E-02    0.886E-02
RMM:   5    -0.232848583554E+04    0.90953E-04   -0.29305E-04  4085   0.110E-02    0.434E-02
RMM:   6    -0.232848582941E+04    0.61257E-05   -0.83376E-05  3420   0.787E-03
  49 F= -.23495071E+04 E0= -.23495071E+04  d E =-.589608E-02  mag=     5.0000
       N       E                     dE             d eps       ncg     rms          rms(c)
DAV:   1    -0.232843832105E+04    0.47514E-01   -0.41623E+00  4480   0.188E+00    0.576E-01
RMM:   2    -0.232848785208E+04   -0.49531E-01   -0.52477E-01  6048   0.392E-01    0.409E-01
RMM:   3    -0.232849196395E+04   -0.41119E-02   -0.54097E-02  5751   0.134E-01    0.427E-01
RMM:   4    -0.232849073286E+04    0.12311E-02   -0.54814E-03  5692   0.334E-02    0.190E-01
RMM:   5    -0.232849033466E+04    0.39820E-03   -0.13026E-03  5022   0.214E-02    0.105E-01
RMM:   6    -0.232849032265E+04    0.12014E-04   -0.62558E-04  4882   0.155E-02    0.985E-02
RMM:   7    -0.232849024697E+04    0.75679E-04   -0.17277E-04  3194   0.898E-03    0.434E-02
RMM:   8    -0.232849022632E+04    0.20655E-04   -0.28201E-05  2970   0.471E-03    0.118E-02
RMM:   9    -0.232849022355E+04    0.27661E-05   -0.10050E-05  2904   0.312E-03
  50 F= -.23495119E+04 E0= -.23495119E+04  d E =-.106946E-01  mag=     5.0000
       N       E                     dE             d eps       ncg     rms          rms(c)
DAV:   1    -0.232848687966E+04    0.33467E-02   -0.67126E-01  4496   0.777E-01    0.241E-01
RMM:   2    -0.232849527446E+04   -0.83948E-02   -0.86725E-02  6060   0.164E-01    0.215E-01
RMM:   3    -0.232849580059E+04   -0.52614E-03   -0.89204E-03  5373   0.562E-02    0.189E-01
RMM:   4    -0.232849553666E+04    0.26393E-03   -0.82431E-04  4056   0.138E-02    0.669E-02
RMM:   5    -0.232849548953E+04    0.47137E-04   -0.18309E-04  3788   0.894E-03    0.426E-02
RMM:   6    -0.232849549736E+04   -0.78352E-05   -0.10992E-04  3261   0.756E-03    0.473E-02
RMM:   7    -0.232849547659E+04    0.20769E-04   -0.26321E-05  2912   0.524E-03    0.129E-02
RMM:   8    -0.232849547531E+04    0.12830E-05   -0.52132E-06  2866   0.287E-03
  51 F= -.23495171E+04 E0= -.23495171E+04  d E =-.519474E-02  mag=     5.0000
       N       E                     dE             d eps       ncg     rms          rms(c)
DAV:   1    -0.232842757636E+04    0.67900E-01   -0.60331E+00  4464   0.233E+00    0.721E-01
RMM:   2    -0.232850275740E+04   -0.75181E-01   -0.77959E-01  6030   0.491E-01    0.627E-01
RMM:   3    -0.232850821957E+04   -0.54622E-02   -0.82824E-02  5740   0.170E-01    0.590E-01
RMM:   4    -0.232850560254E+04    0.26170E-02   -0.75674E-03  5736   0.414E-02    0.206E-01
RMM:   5    -0.232850528407E+04    0.31846E-03   -0.16874E-03  5196   0.242E-02    0.169E-01
RMM:   6    -0.232850519459E+04    0.89481E-04   -0.12017E-03  5112   0.187E-02    0.137E-01
RMM:   7    -0.232850501908E+04    0.17551E-03   -0.22691E-04  3970   0.112E-02    0.384E-02
RMM:   8    -0.232850500578E+04    0.13309E-04   -0.38060E-05  3005   0.533E-03    0.130E-02
RMM:   9    -0.232850500232E+04    0.34564E-05   -0.10952E-05  2896   0.350E-03
  52 F= -.23495265E+04 E0= -.23495265E+04  d E =-.145590E-01  mag=     5.0000
       N       E                     dE             d eps       ncg     rms          rms(c)
DAV:   1    -0.232848894374E+04    0.16062E-01   -0.13559E+00  4464   0.111E+00    0.342E-01
RMM:   2    -0.232850585065E+04   -0.16907E-01   -0.17456E-01  6042   0.233E-01    0.308E-01
RMM:   3    -0.232850695346E+04   -0.11028E-02   -0.18033E-02  5581   0.798E-02    0.273E-01
RMM:   4    -0.232850640587E+04    0.54759E-03   -0.16717E-03  4892   0.196E-02    0.961E-02
RMM:   5    -0.232850632558E+04    0.80290E-04   -0.37605E-04  4333   0.122E-02    0.735E-02
RMM:   6    -0.232850631882E+04    0.67568E-05   -0.25472E-04  3774   0.990E-03    0.659E-02
RMM:   7    -0.232850627808E+04    0.40748E-04   -0.49461E-05  2992   0.652E-03    0.177E-02
RMM:   8    -0.232850627540E+04    0.26795E-05   -0.98227E-06  2897   0.375E-03
  53 F= -.23495277E+04 E0= -.23495277E+04  d E =-.157601E-01  mag=     5.0000
       N       E                     dE             d eps       ncg     rms          rms(c)
DAV:   1    -0.232849850196E+04    0.77761E-02   -0.12649E+00  4464   0.109E+00    0.338E-01
RMM:   2    -0.232851356681E+04   -0.15065E-01   -0.15614E-01  6027   0.229E-01    0.286E-01
RMM:   3    -0.232851465115E+04   -0.10843E-02   -0.16032E-02  5532   0.788E-02    0.276E-01
RMM:   4    -0.232851408790E+04    0.56325E-03   -0.14920E-03  4978   0.195E-02    0.908E-02
RMM:   5    -0.232851400039E+04    0.87512E-04   -0.33669E-04  4392   0.128E-02    0.504E-02
RMM:   6    -0.232851400777E+04   -0.73800E-05   -0.17117E-04  3807   0.942E-03    0.517E-02
RMM:   7    -0.232851398506E+04    0.22709E-04   -0.43645E-05  2941   0.615E-03    0.198E-02
RMM:   8    -0.232851398108E+04    0.39734E-05   -0.78828E-06  2884   0.302E-03
  54 F= -.23495351E+04 E0= -.23495351E+04  d E =-.746263E-02  mag=     5.0000
       N       E                     dE             d eps       ncg     rms          rms(c)
DAV:   1    -0.232841535333E+04    0.98632E-01   -0.87599E+00  4464   0.287E+00    0.891E-01
RMM:   2    -0.232852072486E+04   -0.10537E+00   -0.10933E+00  6004   0.608E-01    0.765E-01
RMM:   3    -0.232852819490E+04   -0.74700E-02   -0.11141E-01  5728   0.209E-01    0.763E-01
RMM:   4    -0.232852381392E+04    0.43810E-02   -0.10389E-02  5821   0.517E-02    0.243E-01
RMM:   5    -0.232852317346E+04    0.64046E-03   -0.24462E-03  5288   0.326E-02    0.141E-01
RMM:   6    -0.232852320063E+04   -0.27172E-04   -0.13142E-03  5198   0.224E-02    0.138E-01
RMM:   7    -0.232852304331E+04    0.15732E-03   -0.32977E-04  3869   0.124E-02    0.580E-02
RMM:   8    -0.232852300537E+04    0.37941E-04   -0.50668E-05  3038   0.509E-03    0.166E-02
RMM:   9    -0.232852299942E+04    0.59513E-05   -0.19635E-05  2905   0.404E-03
  55 F= -.23495435E+04 E0= -.23495435E+04  d E =-.158530E-01  mag=     5.0000
       N       E                     dE             d eps       ncg     rms          rms(c)
DAV:   1    -0.232850590707E+04    0.17098E-01   -0.24121E+00  4480   0.149E+00    0.437E-01
RMM:   2    -0.232853144627E+04   -0.25539E-01   -0.26942E-01  6047   0.300E-01    0.287E-01
RMM:   3    -0.232853353057E+04   -0.20843E-02   -0.26379E-02  5564   0.101E-01    0.342E-01
RMM:   4    -0.232853278102E+04    0.74955E-03   -0.25492E-03  5271   0.247E-02    0.131E-01
RMM:   5    -0.232853268082E+04    0.10021E-03   -0.71318E-04  4498   0.163E-02    0.101E-01
RMM:   6    -0.232853267596E+04    0.48552E-05   -0.39035E-04  4037   0.126E-02    0.955E-02
RMM:   7    -0.232853258719E+04    0.88767E-04   -0.12032E-04  3267   0.759E-03    0.212E-02
RMM:   8    -0.232853258352E+04    0.36783E-05   -0.17703E-05  2916   0.403E-03
  56 F= -.23495525E+04 E0= -.23495525E+04  d E =-.904074E-02  mag=     5.0000
       N       E                     dE             d eps       ncg     rms          rms(c)
DAV:   1    -0.232845079750E+04    0.81790E-01   -0.81986E+00  4480   0.274E+00    0.807E-01
RMM:   2    -0.232853844412E+04   -0.87647E-01   -0.92408E-01  6081   0.560E-01    0.545E-01
RMM:   3    -0.232854554818E+04   -0.71041E-02   -0.91027E-02  5675   0.188E-01    0.642E-01
RMM:   4    -0.232854284316E+04    0.27050E-02   -0.87733E-03  5977   0.458E-02    0.243E-01
RMM:   5    -0.232854249184E+04    0.35132E-03   -0.24947E-03  5064   0.289E-02    0.193E-01
RMM:   6    -0.232854248011E+04    0.11732E-04   -0.14338E-03  5069   0.217E-02    0.186E-01
RMM:   7    -0.232854214346E+04    0.33665E-03   -0.43583E-04  4257   0.126E-02    0.426E-02
RMM:   8    -0.232854212731E+04    0.16146E-04   -0.61524E-05  3011   0.590E-03    0.166E-02
RMM:   9    -0.232854212345E+04    0.38603E-05   -0.18588E-05  2915   0.367E-03
  57 F= -.23495611E+04 E0= -.23495611E+04  d E =-.175878E-01  mag=     5.0000
       N       E                     dE             d eps       ncg     rms          rms(c)
DAV:   1    -0.232852800100E+04    0.14126E-01   -0.30412E+00  4480   0.165E+00    0.489E-01
RMM:   2    -0.232855379384E+04   -0.25793E-01   -0.27479E-01  5978   0.328E-01    0.315E-01
RMM:   3    -0.232855557436E+04   -0.17805E-02   -0.26690E-02  5726   0.109E-01    0.353E-01
RMM:   4    -0.232855451917E+04    0.10552E-02   -0.26705E-03  5461   0.272E-02    0.148E-01
RMM:   5    -0.232855427609E+04    0.24308E-03   -0.11631E-03  5027   0.214E-02    0.667E-02
RMM:   6    -0.232855426160E+04    0.14491E-04   -0.21696E-04  4225   0.127E-02    0.429E-02
RMM:   7    -0.232855425816E+04    0.34404E-05   -0.81489E-05  3104   0.586E-03
  58 F= -.23495728E+04 E0= -.23495728E+04  d E =-.116735E-01  mag=     5.0000
       N       E                     dE             d eps       ncg     rms          rms(c)
DAV:   1    -0.232853705713E+04    0.17204E-01   -0.25070E+00  4480   0.150E+00    0.445E-01
RMM:   2    -0.232855837482E+04   -0.21318E-01   -0.22692E-01  5979   0.298E-01    0.288E-01
RMM:   3    -0.232855986000E+04   -0.14852E-02   -0.22040E-02  5727   0.101E-01    0.319E-01
RMM:   4    -0.232855899979E+04    0.86021E-03   -0.22164E-03  5339   0.250E-02    0.135E-01
RMM:   5    -0.232855879751E+04    0.20228E-03   -0.94860E-04  4965   0.196E-02    0.582E-02
RMM:   6    -0.232855877648E+04    0.21035E-04   -0.17523E-04  4048   0.116E-02    0.255E-02
RMM:   7    -0.232855877696E+04   -0.47815E-06   -0.39721E-05  2984   0.505E-03
  59 F= -.23495769E+04 E0= -.23495769E+04  d E =-.157793E-01  mag=     5.0000
       N       E                     dE             d eps       ncg     rms          rms(c)
DAV:   1    -0.232853125803E+04    0.27518E-01   -0.41406E+00  4480   0.188E+00    0.561E-01
RMM:   2    -0.232856855667E+04   -0.37299E-01   -0.39001E-01  5968   0.378E-01    0.441E-01
RMM:   3    -0.232857080926E+04   -0.22526E-02   -0.38911E-02  5784   0.128E-01    0.426E-01
RMM:   4    -0.232856915973E+04    0.16495E-02   -0.37930E-03  5578   0.320E-02    0.169E-01
RMM:   5    -0.232856886865E+04    0.29107E-03   -0.14840E-03  5114   0.237E-02    0.990E-02
RMM:   6    -0.232856890200E+04   -0.33345E-04   -0.58219E-04  4542   0.159E-02    0.108E-01
RMM:   7    -0.232856879061E+04    0.11139E-03   -0.12894E-04  3285   0.729E-03    0.237E-02
RMM:   8    -0.232856878387E+04    0.67425E-05   -0.22787E-05  2953   0.410E-03
  60 F= -.23495865E+04 E0= -.23495865E+04  d E =-.959032E-02  mag=     5.0000
       N       E                     dE             d eps       ncg     rms          rms(c)
DAV:   1    -0.232856209525E+04    0.66954E-02   -0.90979E-01  4576   0.881E-01    0.263E-01
RMM:   2    -0.232857027718E+04   -0.81819E-02   -0.85528E-02  5981   0.176E-01    0.206E-01
RMM:   3    -0.232857074286E+04   -0.46568E-03   -0.83209E-03  5559   0.581E-02    0.195E-01
RMM:   4    -0.232857039587E+04    0.34699E-03   -0.82942E-04  4412   0.150E-02    0.789E-02
RMM:   5    -0.232857032896E+04    0.66916E-04   -0.32566E-04  4343   0.117E-02    0.458E-02
RMM:   6    -0.232857033653E+04   -0.75730E-05   -0.12785E-04  3181   0.875E-03    0.505E-02
RMM:   7    -0.232857031211E+04    0.24417E-04   -0.29489E-05  2933   0.479E-03    0.111E-02
RMM:   8    -0.232857031047E+04    0.16395E-05   -0.65114E-06  2886   0.294E-03
  61 F= -.23495878E+04 E0= -.23495878E+04  d E =-.109263E-01  mag=     5.0000
       N       E                     dE             d eps       ncg     rms          rms(c)
DAV:   1    -0.232854427881E+04    0.26033E-01   -0.33313E+00  4480   0.170E+00    0.520E-01
RMM:   2    -0.232857743365E+04   -0.33155E-01   -0.35430E-01  5908   0.338E-01    0.288E-01
RMM:   3    -0.232857996051E+04   -0.25269E-02   -0.36362E-02  5570   0.119E-01    0.243E-01
RMM:   4    -0.232857985148E+04    0.10903E-03   -0.36064E-03  5375   0.286E-02    0.207E-01
RMM:   5    -0.232857947071E+04    0.38077E-03   -0.10983E-03  5114   0.203E-02    0.886E-02
RMM:   6    -0.232857940474E+04    0.65964E-04   -0.28750E-04  4517   0.116E-02    0.259E-02
RMM:   7    -0.232857940731E+04   -0.25635E-05   -0.44245E-05  2970   0.709E-03
  62 F= -.23495962E+04 E0= -.23495962E+04  d E =-.839894E-02  mag=     5.0000
       N       E                     dE             d eps       ncg     rms          rms(c)
DAV:   1    -0.232856600542E+04    0.13399E-01   -0.14816E+00  4512   0.113E+00    0.348E-01
RMM:   2    -0.232858079833E+04   -0.14793E-01   -0.15786E-01  5923   0.226E-01    0.193E-01
RMM:   3    -0.232858192619E+04   -0.11279E-02   -0.15962E-02  5553   0.796E-02    0.162E-01
RMM:   4    -0.232858188124E+04    0.44954E-04   -0.15960E-03  4735   0.196E-02    0.139E-01
RMM:   5    -0.232858171298E+04    0.16826E-03   -0.49420E-04  4543   0.142E-02    0.583E-02
RMM:   6    -0.232858169150E+04    0.21478E-04   -0.13358E-04  3714   0.871E-03    0.300E-02
RMM:   7    -0.232858168936E+04    0.21414E-05   -0.38363E-05  2927   0.576E-03
  63 F= -.23495980E+04 E0= -.23495980E+04  d E =-.102208E-01  mag=     5.0000
       N       E                     dE             d eps       ncg     rms          rms(c)
DAV:   1    -0.232856077823E+04    0.20913E-01   -0.24036E+00  4496   0.141E+00    0.442E-01
RMM:   2    -0.232858826590E+04   -0.27488E-01   -0.29239E-01  5984   0.290E-01    0.247E-01
RMM:   3    -0.232859063137E+04   -0.23655E-02   -0.30328E-02  5531   0.105E-01    0.252E-01
RMM:   4    -0.232859047442E+04    0.15696E-03   -0.29946E-03  5165   0.240E-02    0.153E-01
RMM:   5    -0.232859027224E+04    0.20218E-03   -0.66148E-04  4685   0.155E-02    0.917E-02
RMM:   6    -0.232859028784E+04   -0.15602E-04   -0.37234E-04  4197   0.117E-02    0.966E-02
RMM:   7    -0.232859019489E+04    0.92954E-04   -0.12696E-04  3175   0.784E-03    0.218E-02
RMM:   8    -0.232859019078E+04    0.41043E-05   -0.16124E-05  2906   0.366E-03
  64 F= -.23496060E+04 E0= -.23496060E+04  d E =-.795087E-02  mag=     5.0000
       N       E                     dE             d eps       ncg     rms          rms(c)
DAV:   1    -0.232846388548E+04    0.12631E+00   -0.10867E+01  4480   0.300E+00    0.942E-01
RMM:   2    -0.232858958787E+04   -0.12570E+00   -0.13375E+00  5984   0.624E-01    0.543E-01
RMM:   3    -0.232860049062E+04   -0.10903E-01   -0.14388E-01  5638   0.225E-01    0.575E-01
RMM:   4    -0.232859924920E+04    0.12414E-02   -0.13544E-02  6090   0.513E-02    0.324E-01
RMM:   5    -0.232859838466E+04    0.86454E-03   -0.31167E-03  5421   0.312E-02    0.205E-01
RMM:   6    -0.232859843583E+04   -0.51167E-04   -0.18412E-03  5193   0.233E-02    0.215E-01
RMM:   7    -0.232859798267E+04    0.45315E-03   -0.66646E-04  4393   0.155E-02    0.551E-02
RMM:   8    -0.232859795393E+04    0.28740E-04   -0.79532E-05  3112   0.575E-03    0.207E-02
RMM:   9    -0.232859794675E+04    0.71853E-05   -0.26837E-05  2959   0.434E-03
  65 F= -.23496126E+04 E0= -.23496126E+04  d E =-.145570E-01  mag=     5.0000
       N       E                     dE             d eps       ncg     rms          rms(c)
DAV:   1    -0.232857983035E+04    0.18124E-01   -0.19720E+00  4480   0.125E+00    0.394E-01
RMM:   2    -0.232860357109E+04   -0.23741E-01   -0.25081E-01  6109   0.258E-01    0.234E-01
RMM:   3    -0.232860577304E+04   -0.22019E-02   -0.26800E-02  5518   0.914E-02    0.255E-01
RMM:   4    -0.232860551063E+04    0.26241E-03   -0.24866E-03  4650   0.211E-02    0.131E-01
RMM:   5    -0.232860538079E+04    0.12984E-03   -0.52840E-04  4326   0.133E-02    0.925E-02
RMM:   6    -0.232860538523E+04   -0.44421E-05   -0.33717E-04  3768   0.109E-02    0.921E-02
RMM:   7    -0.232860530251E+04    0.82722E-04   -0.11562E-04  3237   0.730E-03    0.196E-02
RMM:   8    -0.232860529992E+04    0.25874E-05   -0.14801E-05  2924   0.382E-03
  66 F= -.23496195E+04 E0= -.23496195E+04  d E =-.688696E-02  mag=     5.0000
       N       E                     dE             d eps       ncg     rms          rms(c)
DAV:   1    -0.232854114302E+04    0.64159E-01   -0.55812E+00  4464   0.210E+00    0.665E-01
RMM:   2    -0.232860858008E+04   -0.67437E-01   -0.71284E-01  6091   0.437E-01    0.399E-01
RMM:   3    -0.232861493483E+04   -0.63548E-02   -0.78257E-02  5659   0.155E-01    0.437E-01
RMM:   4    -0.232861409445E+04    0.84038E-03   -0.70689E-03  5665   0.357E-02    0.222E-01
RMM:   5    -0.232861371920E+04    0.37525E-03   -0.15434E-03  5032   0.214E-02    0.155E-01
RMM:   6    -0.232861374575E+04   -0.26553E-04   -0.98173E-04  4734   0.169E-02    0.161E-01
RMM:   7    -0.232861349223E+04    0.25353E-03   -0.35088E-04  4005   0.109E-02    0.361E-02
RMM:   8    -0.232861348170E+04    0.10527E-04   -0.41740E-05  2996   0.501E-03    0.142E-02
RMM:   9    -0.232861347903E+04    0.26736E-05   -0.11618E-05  2914   0.315E-03
  67 F= -.23496269E+04 E0= -.23496269E+04  d E =-.142909E-01  mag=     5.0000
       N       E                     dE             d eps       ncg     rms          rms(c)
DAV:   1    -0.232832099792E+04    0.29248E+00   -0.22265E+01  4464   0.420E+00    0.134E+00
RMM:   2    -0.232859548671E+04   -0.27449E+00   -0.29002E+00  6120   0.894E-01    0.827E-01
RMM:   3    -0.232862146320E+04   -0.25976E-01   -0.32491E-01  5760   0.317E-01    0.919E-01
RMM:   4    -0.232861706910E+04    0.43941E-02   -0.28390E-02  6217   0.726E-02    0.447E-01
RMM:   5    -0.232861555627E+04    0.15128E-02   -0.63550E-03  5412   0.417E-02    0.319E-01
RMM:   6    -0.232861565956E+04   -0.10330E-03   -0.42189E-03  5459   0.334E-02    0.332E-01
RMM:   7    -0.232861460250E+04    0.10571E-02   -0.16235E-03  5165   0.214E-02    0.852E-02
RMM:   8    -0.232861453911E+04    0.63392E-04   -0.18185E-04  3443   0.837E-03    0.316E-02
RMM:   9    -0.232861452454E+04    0.14571E-04   -0.59890E-05  3016   0.592E-03    0.131E-02
RMM:  10    -0.232861452280E+04    0.17366E-05   -0.20144E-05  2937   0.385E-03
  68 F= -.23496264E+04 E0= -.23496264E+04  d E =-.138299E-01  mag=     5.0000
       N       E                     dE             d eps       ncg     rms          rms(c)
DAV:   1    -0.232852900180E+04    0.85523E-01   -0.67528E+00  4464   0.231E+00    0.730E-01
RMM:   2    -0.232861004131E+04   -0.81040E-01   -0.85647E-01  6038   0.470E-01    0.420E-01
RMM:   3    -0.232861775487E+04   -0.77136E-02   -0.96061E-02  5423   0.190E-01    0.425E-01
RMM:   4    -0.232861729483E+04    0.46004E-03   -0.85560E-03  5742   0.393E-02    0.253E-01
RMM:   5    -0.232861679043E+04    0.50440E-03   -0.15566E-03  5168   0.212E-02    0.177E-01
RMM:   6    -0.232861682036E+04   -0.29926E-04   -0.12636E-03  4953   0.183E-02    0.171E-01
RMM:   7    -0.232861653857E+04    0.28178E-03   -0.31587E-04  3995   0.107E-02    0.330E-02
RMM:   8    -0.232861652472E+04    0.13850E-04   -0.36332E-05  2963   0.521E-03    0.126E-02
RMM:   9    -0.232861652257E+04    0.21528E-05   -0.13814E-05  2948   0.302E-03
  69 F= -.23496292E+04 E0= -.23496292E+04  d E =-.166501E-01  mag=     5.0000
       N       E                     dE             d eps       ncg     rms          rms(c)
DAV:   1    -0.232859941543E+04    0.17109E-01   -0.18992E+00  4512   0.127E+00    0.425E-01
RMM:   2    -0.232862295960E+04   -0.23544E-01   -0.25175E-01  5993   0.269E-01    0.215E-01
RMM:   3    -0.232862473864E+04   -0.17790E-02   -0.26197E-02  5536   0.974E-02    0.158E-01
RMM:   4    -0.232862482885E+04   -0.90210E-04   -0.25627E-03  4876   0.221E-02    0.149E-01
RMM:   5    -0.232862462480E+04    0.20405E-03   -0.60942E-04  4857   0.154E-02    0.815E-02
RMM:   6    -0.232862456863E+04    0.56174E-04   -0.19240E-04  4239   0.948E-03    0.364E-02
RMM:   7    -0.232862457567E+04   -0.70426E-05   -0.60097E-05  2975   0.682E-03
  70 F= -.23496364E+04 E0= -.23496364E+04  d E =-.717122E-02  mag=     5.0000
       N       E                     dE             d eps       ncg     rms          rms(c)
DAV:   1    -0.232860320387E+04    0.21365E-01   -0.18521E+00  4496   0.126E+00    0.421E-01
RMM:   2    -0.232862615248E+04   -0.22949E-01   -0.24541E-01  5980   0.265E-01    0.211E-01
RMM:   3    -0.232862790072E+04   -0.17482E-02   -0.25421E-02  5548   0.954E-02    0.144E-01
RMM:   4    -0.232862798225E+04   -0.81528E-04   -0.24886E-03  4789   0.219E-02    0.135E-01
RMM:   5    -0.232862785435E+04    0.12789E-03   -0.57201E-04  4575   0.153E-02    0.913E-02
RMM:   6    -0.232862777004E+04    0.84312E-04   -0.18231E-04  4211   0.903E-03    0.196E-02
RMM:   7    -0.232862776732E+04    0.27242E-05   -0.22834E-05  2950   0.591E-03
  71 F= -.23496387E+04 E0= -.23496387E+04  d E =-.949769E-02  mag=     5.0000
       N       E                     dE             d eps       ncg     rms          rms(c)
DAV:   1    -0.232861274932E+04    0.15021E-01   -0.16158E+00  4512   0.115E+00    0.378E-01
RMM:   2    -0.232863368221E+04   -0.20933E-01   -0.22182E-01  5968   0.238E-01    0.217E-01
RMM:   3    -0.232863543891E+04   -0.17567E-02   -0.23685E-02  5647   0.876E-02    0.183E-01
RMM:   4    -0.232863534488E+04    0.94035E-04   -0.21628E-03  4611   0.196E-02    0.139E-01
RMM:   5    -0.232863516750E+04    0.17737E-03   -0.54766E-04  4537   0.136E-02    0.746E-02
RMM:   6    -0.232863516145E+04    0.60591E-05   -0.26766E-04  3918   0.103E-02    0.643E-02
RMM:   7    -0.232863512522E+04    0.36228E-04   -0.70288E-05  3018   0.659E-03    0.199E-02
RMM:   8    -0.232863512049E+04    0.47240E-05   -0.11266E-05  2920   0.331E-03
  72 F= -.23496450E+04 E0= -.23496450E+04  d E =-.631754E-02  mag=     5.0000
       N       E                     dE             d eps       ncg     rms          rms(c)
DAV:   1    -0.232858260239E+04    0.52523E-01   -0.41767E+00  4480   0.185E+00    0.607E-01
RMM:   2    -0.232863671786E+04   -0.54115E-01   -0.57407E-01  5983   0.386E-01    0.336E-01
RMM:   3    -0.232864114970E+04   -0.44318E-02   -0.62302E-02  5665   0.139E-01    0.248E-01
RMM:   4    -0.232864115682E+04   -0.71124E-05   -0.56065E-03  5526   0.316E-02    0.227E-01
RMM:   5    -0.232864075268E+04    0.40413E-03   -0.14066E-03  5162   0.208E-02    0.135E-01
RMM:   6    -0.232864065130E+04    0.10138E-03   -0.61653E-04  4809   0.142E-02    0.839E-02
RMM:   7    -0.232864060277E+04    0.48532E-04   -0.17077E-04  3152   0.959E-03    0.466E-02
RMM:   8    -0.232864057680E+04    0.25968E-04   -0.30226E-05  2963   0.424E-03    0.127E-02
RMM:   9    -0.232864057435E+04    0.24487E-05   -0.11752E-05  2914   0.296E-03
  73 F= -.23496488E+04 E0= -.23496488E+04  d E =-.101183E-01  mag=     5.0000
       N       E                     dE             d eps       ncg     rms          rms(c)
DAV:   1    -0.232862605541E+04    0.14521E-01   -0.15835E+00  4496   0.111E+00    0.356E-01
RMM:   2    -0.232864601534E+04   -0.19960E-01   -0.21028E-01  5953   0.224E-01    0.198E-01
RMM:   3    -0.232864761349E+04   -0.15981E-02   -0.22063E-02  5578   0.811E-02    0.134E-01
RMM:   4    -0.232864765601E+04   -0.42524E-04   -0.20470E-03  4426   0.182E-02    0.128E-01
RMM:   5    -0.232864754578E+04    0.11023E-03   -0.47534E-04  4256   0.124E-02    0.815E-02
RMM:   6    -0.232864751518E+04    0.30608E-04   -0.20040E-04  3771   0.881E-03    0.487E-02
RMM:   7    -0.232864749748E+04    0.17701E-04   -0.54754E-05  2935   0.613E-03    0.259E-02
RMM:   8    -0.232864748987E+04    0.76032E-05   -0.97917E-06  2887   0.286E-03
  74 F= -.23496550E+04 E0= -.23496550E+04  d E =-.617818E-02  mag=     5.0000
       N       E                     dE             d eps       ncg     rms          rms(c)
DAV:   1    -0.232858306105E+04    0.64436E-01   -0.52765E+00  4480   0.203E+00    0.651E-01
RMM:   2    -0.232864984321E+04   -0.66782E-01   -0.70332E-01  5949   0.411E-01    0.370E-01
RMM:   3    -0.232865527837E+04   -0.54352E-02   -0.75672E-02  5662   0.149E-01    0.257E-01
RMM:   4    -0.232865529568E+04   -0.17314E-04   -0.68275E-03  5438   0.330E-02    0.219E-01
RMM:   5    -0.232865498523E+04    0.31045E-03   -0.16092E-03  5112   0.216E-02    0.147E-01
RMM:   6    -0.232865484189E+04    0.14334E-03   -0.61758E-04  4935   0.142E-02    0.756E-02
RMM:   7    -0.232865482534E+04    0.16547E-04   -0.17834E-04  3134   0.934E-03    0.647E-02
RMM:   8    -0.232865478126E+04    0.44082E-04   -0.41002E-05  2963   0.440E-03    0.146E-02
RMM:   9    -0.232865477818E+04    0.30837E-05   -0.16799E-05  2917   0.298E-03
  75 F= -.23496610E+04 E0= -.23496610E+04  d E =-.121372E-01  mag=     5.0000
       N       E                     dE             d eps       ncg     rms          rms(c)
DAV:   1    -0.232864703428E+04    0.77470E-02   -0.64231E-01  4560   0.708E-01    0.226E-01
RMM:   2    -0.232865511849E+04   -0.80842E-02   -0.85102E-02  5935   0.142E-01    0.125E-01
RMM:   3    -0.232865575053E+04   -0.63204E-03   -0.87636E-03  5252   0.509E-02    0.852E-02
RMM:   4    -0.232865577780E+04   -0.27278E-04   -0.83055E-04  3421   0.118E-02    0.876E-02
RMM:   5    -0.232865572049E+04    0.57318E-04   -0.19179E-04  3483   0.846E-03    0.498E-02
RMM:   6    -0.232865571206E+04    0.84228E-05   -0.88588E-05  3178   0.650E-03
  76 F= -.23496615E+04 E0= -.23496615E+04  d E =-.126136E-01  mag=     5.0000
       N       E                     dE             d eps       ncg     rms          rms(c)
DAV:   1    -0.232862835555E+04    0.27365E-01   -0.23978E+00  4480   0.144E+00    0.489E-01
RMM:   2    -0.232865987158E+04   -0.31516E-01   -0.33486E-01  5905   0.301E-01    0.244E-01
RMM:   3    -0.232866240444E+04   -0.25329E-02   -0.34987E-02  5539   0.110E-01    0.197E-01
RMM:   4    -0.232866258781E+04   -0.18337E-03   -0.34828E-03  5249   0.251E-02    0.184E-01
RMM:   5    -0.232866227630E+04    0.31151E-03   -0.71127E-04  4922   0.165E-02    0.891E-02
RMM:   6    -0.232866221920E+04    0.57098E-04   -0.27548E-04  4601   0.110E-02    0.391E-02
RMM:   7    -0.232866222081E+04   -0.16100E-05   -0.78665E-05  3008   0.807E-03
  77 F= -.23496675E+04 E0= -.23496675E+04  d E =-.607777E-02  mag=     5.0000
       N       E                     dE             d eps       ncg     rms          rms(c)
DAV:   1    -0.232865171392E+04    0.10505E-01   -0.80972E-01  4512   0.835E-01    0.285E-01
RMM:   2    -0.232866237555E+04   -0.10662E-01   -0.11326E-01  5905   0.175E-01    0.141E-01
RMM:   3    -0.232866320052E+04   -0.82497E-03   -0.11648E-02  5422   0.649E-02    0.952E-02
RMM:   4    -0.232866327132E+04   -0.70797E-04   -0.11457E-03  4238   0.149E-02    0.999E-02
RMM:   5    -0.232866320348E+04    0.67834E-04   -0.24969E-04  3607   0.101E-02    0.644E-02
RMM:   6    -0.232866316709E+04    0.36398E-04   -0.10173E-04  3698   0.751E-03    0.193E-02
RMM:   7    -0.232866316764E+04   -0.55500E-06   -0.19902E-05  2899   0.527E-03
  78 F= -.23496682E+04 E0= -.23496682E+04  d E =-.678011E-02  mag=     5.0000
       N       E                     dE             d eps       ncg     rms          rms(c)
DAV:   1    -0.232863956915E+04    0.23598E-01   -0.20928E+00  4480   0.132E+00    0.443E-01
RMM:   2    -0.232866669176E+04   -0.27123E-01   -0.28592E-01  6023   0.278E-01    0.240E-01
RMM:   3    -0.232866907715E+04   -0.23854E-02   -0.29511E-02  5517   0.985E-02    0.260E-01
RMM:   4    -0.232866886124E+04    0.21591E-03   -0.29954E-03  5106   0.232E-02    0.141E-01
RMM:   5    -0.232866870081E+04    0.16043E-03   -0.56667E-04  4617   0.144E-02    0.929E-02
RMM:   6    -0.232866870991E+04   -0.90983E-05   -0.34433E-04  3952   0.114E-02    0.943E-02
RMM:   7    -0.232866862328E+04    0.86629E-04   -0.12169E-04  3324   0.768E-03    0.216E-02
RMM:   8    -0.232866861980E+04    0.34850E-05   -0.16687E-05  2914   0.394E-03
  79 F= -.23496733E+04 E0= -.23496733E+04  d E =-.503546E-02  mag=     5.0000
       N       E                     dE             d eps       ncg     rms          rms(c)
DAV:   1    -0.232864568123E+04    0.22942E-01   -0.17551E+00  4464   0.121E+00    0.409E-01
RMM:   2    -0.232866890106E+04   -0.23220E-01   -0.24432E-01  6022   0.256E-01    0.227E-01
RMM:   3    -0.232867106754E+04   -0.21665E-02   -0.26024E-02  5483   0.902E-02    0.259E-01
RMM:   4    -0.232867077875E+04    0.28880E-03   -0.24546E-03  4953   0.213E-02    0.125E-01
RMM:   5    -0.232867066243E+04    0.11632E-03   -0.48440E-04  4416   0.132E-02    0.899E-02
RMM:   6    -0.232867066030E+04    0.21274E-05   -0.29420E-04  3693   0.109E-02    0.868E-02
RMM:   7    -0.232867058777E+04    0.72534E-04   -0.10145E-04  3295   0.731E-03    0.181E-02
RMM:   8    -0.232867058515E+04    0.26162E-05   -0.13833E-05  2912   0.408E-03
  80 F= -.23496749E+04 E0= -.23496749E+04  d E =-.662971E-02  mag=     5.0000
       N       E                     dE             d eps       ncg     rms          rms(c)
DAV:   1    -0.232864983626E+04    0.20752E-01   -0.23013E+00  4464   0.143E+00    0.459E-01
RMM:   2    -0.232867487905E+04   -0.25043E-01   -0.26418E-01  5971   0.293E-01    0.251E-01
RMM:   3    -0.232867683487E+04   -0.19558E-02   -0.27225E-02  5475   0.102E-01    0.255E-01
[...]
RMM:   2    -0.232870594544E+04   -0.37741E-02   -0.37879E-02  6004   0.120E-01    0.181E-01
RMM:   3    -0.232870598583E+04   -0.40384E-04   -0.34932E-03  5104   0.424E-02    0.113E-01
RMM:   4    -0.232870586786E+04    0.11797E-03   -0.33888E-04  3437   0.980E-03    0.438E-02
RMM:   5    -0.232870586270E+04    0.51607E-05   -0.79429E-05  3022   0.696E-03
 118 F= -.23497042E+04 E0= -.23497042E+04  d E =-.965035E-03  mag=     5.0000
       N       E                     dE             d eps       ncg     rms          rms(c)
DAV:   1    -0.232870212841E+04    0.37395E-02   -0.32080E-01  4480   0.573E-01    0.180E-01
RMM:   2    -0.232870616746E+04   -0.40391E-02   -0.41036E-02  6076   0.125E-01    0.174E-01
RMM:   3    -0.232870627798E+04   -0.11052E-03   -0.39092E-03  5115   0.454E-02    0.118E-01
RMM:   4    -0.232870614773E+04    0.13024E-03   -0.36981E-04  3602   0.107E-02    0.464E-02
RMM:   5    -0.232870612024E+04    0.27493E-04   -0.92798E-05  3555   0.820E-03    0.240E-02
RMM:   6    -0.232870612824E+04   -0.79942E-05   -0.45516E-05  2992   0.636E-03
 119 F= -.23497044E+04 E0= -.23497044E+04  d E =-.114505E-02  mag=     5.0000
       N       E                     dE             d eps       ncg     rms          rms(c)
DAV:   1    -0.232870232220E+04    0.37980E-02   -0.36734E-01  4464   0.605E-01    0.191E-01
RMM:   2    -0.232870692773E+04   -0.46055E-02   -0.47006E-02  6031   0.132E-01    0.171E-01
RMM:   3    -0.232870712160E+04   -0.19387E-03   -0.44492E-03  5254   0.440E-02    0.131E-01
RMM:   4    -0.232870696999E+04    0.15161E-03   -0.42580E-04  3539   0.107E-02    0.499E-02
RMM:   5    -0.232870696665E+04    0.33367E-05   -0.94592E-05  3032   0.704E-03
 120 F= -.23497052E+04 E0= -.23497052E+04  d E =-.778830E-03  mag=     5.0000
       N       E                     dE             d eps       ncg     rms          rms(c)
DAV:   1    -0.232870448385E+04    0.24861E-02   -0.20336E-01  4512   0.451E-01    0.141E-01
RMM:   2    -0.232870701055E+04   -0.25267E-02   -0.25995E-02  6133   0.982E-02    0.122E-01
RMM:   3    -0.232870714396E+04   -0.13341E-03   -0.25978E-03  4734   0.348E-02    0.944E-02
RMM:   4    -0.232870706352E+04    0.80441E-04   -0.23227E-04  3203   0.878E-03    0.374E-02
RMM:   5    -0.232870704613E+04    0.17388E-04   -0.54785E-05  3166   0.651E-03    0.153E-02
RMM:   6    -0.232870704636E+04   -0.23116E-06   -0.19463E-05  2914   0.538E-03
 121 F= -.23497052E+04 E0= -.23497052E+04  d E =-.814279E-03  mag=     5.0000
       N       E                     dE             d eps       ncg     rms          rms(c)
DAV:   1    -0.232870350350E+04    0.35426E-02   -0.33872E-01  4480   0.586E-01    0.187E-01
RMM:   2    -0.232870774463E+04   -0.42411E-02   -0.43390E-02  5964   0.128E-01    0.164E-01
RMM:   3    -0.232870793165E+04   -0.18702E-03   -0.41984E-03  5201   0.456E-02    0.125E-01
RMM:   4    -0.232870779055E+04    0.14111E-03   -0.40347E-04  3735   0.108E-02    0.473E-02
RMM:   5    -0.232870778169E+04    0.88575E-05   -0.96538E-05  3146   0.771E-03
 122 F= -.23497059E+04 E0= -.23497059E+04  d E =-.678453E-03  mag=     5.0000
       N       E                     dE             d eps       ncg     rms          rms(c)
DAV:   1    -0.232870744852E+04    0.34203E-03   -0.24652E-02  4864   0.159E-01    0.546E-02
RMM:   2    -0.232870777367E+04   -0.32516E-03   -0.32901E-03  6128   0.364E-02    0.574E-02
RMM:   3    -0.232870777862E+04   -0.49450E-05   -0.35711E-04  3086   0.131E-02    0.351E-02
RMM:   4    -0.232870776838E+04    0.10235E-04   -0.33199E-05  2918   0.446E-03    0.176E-02
RMM:   5    -0.232870776998E+04   -0.16009E-05   -0.13591E-05  2902   0.279E-03
 123 F= -.23497058E+04 E0= -.23497058E+04  d E =-.651125E-03  mag=     5.0000
       N       E                     dE             d eps       ncg     rms          rms(c)
DAV:   1    -0.232870585669E+04    0.19117E-02   -0.21373E-01  4480   0.477E-01    0.158E-01
RMM:   2    -0.232870846264E+04   -0.26060E-02   -0.26471E-02  5893   0.101E-01    0.147E-01
RMM:   3    -0.232870853181E+04   -0.69164E-04   -0.25351E-03  4765   0.367E-02    0.109E-01
RMM:   4    -0.232870841477E+04    0.11704E-03   -0.25317E-04  3576   0.944E-03    0.388E-02
RMM:   5    -0.232870841124E+04    0.35291E-05   -0.79587E-05  3140   0.702E-03
 124 F= -.23497064E+04 E0= -.23497064E+04  d E =-.563627E-03  mag=     5.0000
       N       E                     dE             d eps       ncg     rms          rms(c)
DAV:   1    -0.232870819106E+04    0.22370E-03   -0.17724E-02  4960   0.138E-01    0.482E-02
RMM:   2    -0.232870841438E+04   -0.22332E-03   -0.22913E-03  6046   0.316E-02    0.466E-02
RMM:   3    -0.232870842117E+04   -0.67849E-05   -0.25938E-04  3006   0.122E-02    0.311E-02
RMM:   4    -0.232870841213E+04    0.90396E-05   -0.23630E-05  2918   0.404E-03
 125 F= -.23497064E+04 E0= -.23497064E+04  d E =-.541853E-03  mag=     5.0000
       N       E                     dE             d eps       ncg     rms          rms(c)
DAV:   1    -0.232870656394E+04    0.18572E-02   -0.19906E-01  4480   0.457E-01    0.142E-01
RMM:   2    -0.232870897953E+04   -0.24156E-02   -0.24761E-02  5944   0.959E-02    0.125E-01
RMM:   3    -0.232870906847E+04   -0.88944E-04   -0.23232E-03  4539   0.338E-02    0.949E-02
RMM:   4    -0.232870898253E+04    0.85943E-04   -0.22822E-04  3269   0.858E-03    0.394E-02
RMM:   5    -0.232870896300E+04    0.19532E-04   -0.74973E-05  3315   0.718E-03    0.254E-02
RMM:   6    -0.232870896470E+04   -0.17004E-05   -0.37993E-05  2949   0.584E-03
 126 F= -.23497068E+04 E0= -.23497068E+04  d E =-.461409E-03  mag=     5.0000
       N       E                     dE             d eps       ncg     rms          rms(c)
DAV:   1    -0.232870885979E+04    0.10321E-03   -0.92748E-03  5000   0.992E-02    0.321E-02
RMM:   2    -0.232870897479E+04   -0.11500E-03   -0.12089E-03  5809   0.224E-02    0.253E-02
RMM:   3    -0.232870898194E+04   -0.71472E-05   -0.11749E-04  2914   0.820E-03    0.227E-02
RMM:   4    -0.232870897757E+04    0.43674E-05   -0.12122E-05  2892   0.282E-03
 127 F= -.23497068E+04 E0= -.23497068E+04  d E =-.454399E-03  mag=     5.0000
       N       E                     dE             d eps       ncg     rms          rms(c)
DAV:   1    -0.232870711106E+04    0.18709E-02   -0.21866E-01  4480   0.474E-01    0.153E-01
RMM:   2    -0.232870974959E+04   -0.26385E-02   -0.26173E-02  5834   0.974E-02    0.170E-01
RMM:   3    -0.232870970977E+04    0.39814E-04   -0.24318E-03  4620   0.352E-02    0.996E-02
RMM:   4    -0.232870960677E+04    0.10300E-03   -0.24756E-04  3417   0.881E-03    0.385E-02
RMM:   5    -0.232870958467E+04    0.22103E-04   -0.79319E-05  3593   0.722E-03    0.234E-02
RMM:   6    -0.232870958731E+04   -0.26409E-05   -0.36861E-05  2955   0.599E-03
 128 F= -.23497074E+04 E0= -.23497074E+04  d E =-.543953E-03  mag=     5.0000
       N       E                     dE             d eps       ncg     rms          rms(c)
DAV:   1    -0.232870945464E+04    0.13003E-03   -0.11889E-02  5000   0.111E-01    0.371E-02
RMM:   2    -0.232870960006E+04   -0.14542E-03   -0.14915E-03  5855   0.246E-02    0.358E-02
RMM:   3    -0.232870960305E+04   -0.29873E-05   -0.14349E-04  2922   0.915E-03    0.256E-02
RMM:   4    -0.232870959721E+04    0.58323E-05   -0.14748E-05  2900   0.303E-03
 129 F= -.23497074E+04 E0= -.23497074E+04  d E =-.538426E-03  mag=     5.0000
       N       E                     dE             d eps       ncg     rms          rms(c)
DAV:   1    -0.232870798650E+04    0.16165E-02   -0.20173E-01  4480   0.453E-01    0.143E-01
RMM:   2    -0.232871025569E+04   -0.22692E-02   -0.22965E-02  5834   0.906E-02    0.141E-01
RMM:   3    -0.232871029246E+04   -0.36766E-04   -0.21947E-03  4531   0.336E-02    0.987E-02
RMM:   4    -0.232871019508E+04    0.97378E-04   -0.22106E-04  3256   0.851E-03    0.375E-02
RMM:   5    -0.232871017895E+04    0.16136E-04   -0.74384E-05  3364   0.684E-03    0.261E-02
RMM:   6    -0.232871017906E+04   -0.11090E-06   -0.37023E-05  2950   0.592E-03
 130 F= -.23497079E+04 E0= -.23497079E+04  d E =-.497681E-03  mag=     5.0000
       N       E                     dE             d eps       ncg     rms          rms(c)
DAV:   1    -0.232870994133E+04    0.23762E-03   -0.23944E-02  4688   0.156E-01    0.504E-02
RMM:   2    -0.232871021214E+04   -0.27081E-03   -0.28187E-03  5925   0.331E-02    0.424E-02
RMM:   3    -0.232871022399E+04   -0.11846E-04   -0.26782E-04  3012   0.123E-02    0.349E-02
RMM:   4    -0.232871021343E+04    0.10555E-04   -0.28075E-05  2921   0.394E-03    0.143E-02
RMM:   5    -0.232871021255E+04    0.88266E-06   -0.96331E-06  2863   0.256E-03
 131 F= -.23497079E+04 E0= -.23497079E+04  d E =-.502160E-03  mag=     5.0000
       N       E                     dE             d eps       ncg     rms          rms(c)
DAV:   1    -0.232870867943E+04    0.15340E-02   -0.19644E-01  4480   0.452E-01    0.144E-01
RMM:   2    -0.232871084220E+04   -0.21628E-02   -0.22380E-02  5889   0.907E-02    0.116E-01
RMM:   3    -0.232871095349E+04   -0.11129E-03   -0.21371E-03  4586   0.327E-02    0.987E-02
RMM:   4    -0.232871086048E+04    0.93012E-04   -0.21296E-04  3227   0.869E-03    0.385E-02
RMM:   5    -0.232871085380E+04    0.66868E-05   -0.75663E-05  3084   0.675E-03
 132 F= -.23497084E+04 E0= -.23497084E+04  d E =-.513167E-03  mag=     5.0000
       N       E                     dE             d eps       ncg     rms          rms(c)
DAV:   1    -0.232871034061E+04    0.51987E-03   -0.51957E-02  4576   0.233E-01    0.768E-02
RMM:   2    -0.232871092712E+04   -0.58651E-03   -0.60773E-03  6226   0.490E-02    0.664E-02
RMM:   3    -0.232871095016E+04   -0.23042E-04   -0.61120E-04  3505   0.172E-02    0.497E-02
RMM:   4    -0.232871092658E+04    0.23582E-04   -0.58617E-05  2967   0.570E-03    0.204E-02
RMM:   5    -0.232871092499E+04    0.15882E-05   -0.23045E-05  2935   0.403E-03
 133 F= -.23497084E+04 E0= -.23497084E+04  d E =-.518317E-03  mag=     5.0000
       N       E                     dE             d eps       ncg     rms          rms(c)
DAV:   1    -0.232870937653E+04    0.15500E-02   -0.17865E-01  4480   0.425E-01    0.137E-01
RMM:   2    -0.232871151865E+04   -0.21421E-02   -0.21986E-02  5937   0.876E-02    0.118E-01
RMM:   3    -0.232871163017E+04   -0.11153E-03   -0.21220E-03  4596   0.339E-02    0.964E-02
RMM:   4    -0.232871154546E+04    0.84717E-04   -0.21085E-04  3154   0.844E-03    0.385E-02
RMM:   5    -0.232871154479E+04    0.66435E-06   -0.63945E-05  2985   0.585E-03
 134 F= -.23497089E+04 E0= -.23497089E+04  d E =-.484494E-03  mag=     5.0000
       N       E                     dE             d eps       ncg     rms          rms(c)
DAV:   1    -0.232871094159E+04    0.60386E-03   -0.56358E-02  4544   0.239E-01    0.767E-02
RMM:   2    -0.232871161594E+04   -0.67435E-03   -0.70339E-03  6232   0.507E-02    0.609E-02
RMM:   3    -0.232871165679E+04   -0.40846E-04   -0.70499E-04  3447   0.177E-02    0.507E-02
RMM:   4    -0.232871163335E+04    0.23435E-04   -0.67012E-05  2983   0.583E-03    0.219E-02
RMM:   5    -0.232871162761E+04    0.57421E-05   -0.23244E-05  2923   0.421E-03
 135 F= -.23497089E+04 E0= -.23497089E+04  d E =-.490995E-03  mag=     5.0000
       N       E                     dE             d eps       ncg     rms          rms(c)
DAV:   1    -0.232870995524E+04    0.16781E-02   -0.19335E-01  4480   0.445E-01    0.152E-01
RMM:   2    -0.232871219681E+04   -0.22416E-02   -0.23258E-02  5953   0.936E-02    0.116E-01
RMM:   3    -0.232871233911E+04   -0.14230E-03   -0.22666E-03  4748   0.360E-02    0.107E-01
RMM:   4    -0.232871223223E+04    0.10688E-03   -0.23162E-04  3305   0.920E-03    0.406E-02
RMM:   5    -0.232871223020E+04    0.20287E-05   -0.77504E-05  3019   0.663E-03
 136 F= -.23497094E+04 E0= -.23497094E+04  d E =-.477404E-03  mag=     5.0000
       N       E                     dE             d eps       ncg     rms          rms(c)
DAV:   1    -0.232871214525E+04    0.86977E-04   -0.70044E-03  5336   0.857E-02    0.331E-02
RMM:   2    -0.232871223710E+04   -0.91846E-04   -0.91069E-04  5524   0.197E-02    0.374E-02
RMM:   3    -0.232871223536E+04    0.17365E-05   -0.11394E-04  2928   0.864E-03    0.194E-02
RMM:   4    -0.232871223209E+04    0.32690E-05   -0.10297E-05  2889   0.287E-03
 137 F= -.23497093E+04 E0= -.23497093E+04  d E =-.454867E-03  mag=     5.0000
       N       E                     dE             d eps       ncg     rms          rms(c)
DAV:   1    -0.232871158705E+04    0.64831E-03   -0.10618E-01  4480   0.331E-01    0.111E-01
RMM:   2    -0.232871264756E+04   -0.10605E-02   -0.11286E-02  5892   0.673E-02    0.647E-02
RMM:   3    -0.232871271365E+04   -0.66091E-04   -0.10707E-03  3999   0.247E-02    0.642E-02
RMM:   4    -0.232871267797E+04    0.35681E-04   -0.11218E-04  3067   0.714E-03    0.311E-02
RMM:   5    -0.232871266949E+04    0.84794E-05   -0.45845E-05  3010   0.596E-03
 138 F= -.23497097E+04 E0= -.23497097E+04  d E =-.341192E-03  mag=     5.0000
       N       E                     dE             d eps       ncg     rms          rms(c)
DAV:   1    -0.232871255475E+04    0.12322E-03   -0.13859E-02  4904   0.120E-01    0.447E-02
RMM:   2    -0.232871271158E+04   -0.15683E-03   -0.15586E-03  5932   0.269E-02    0.467E-02
RMM:   3    -0.232871270798E+04    0.36002E-05   -0.18407E-04  2989   0.102E-02    0.281E-02
RMM:   4    -0.232871270143E+04    0.65517E-05   -0.19249E-05  2899   0.365E-03
 139 F= -.23497097E+04 E0= -.23497097E+04  d E =-.337962E-03  mag=     5.0000
       N       E                     dE             d eps       ncg     rms          rms(c)
DAV:   1    -0.232871201496E+04    0.69302E-03   -0.10077E-01  4480   0.312E-01    0.104E-01
RMM:   2    -0.232871311539E+04   -0.11004E-02   -0.11492E-02  5970   0.661E-02    0.764E-02
RMM:   3    -0.232871317996E+04   -0.64569E-04   -0.10876E-03  3911   0.241E-02    0.728E-02
RMM:   4    -0.232871313241E+04    0.47551E-04   -0.10967E-04  3041   0.689E-03    0.306E-02
RMM:   5    -0.232871312630E+04    0.61088E-05   -0.47665E-05  2988   0.555E-03
 140 F= -.23497100E+04 E0= -.23497100E+04  d E =-.338177E-03  mag=     5.0000
       N       E                     dE             d eps       ncg     rms          rms(c)
DAV:   1    -0.232871297929E+04    0.15313E-03   -0.16026E-02  4760   0.125E-01    0.468E-02
RMM:   2    -0.232871317680E+04   -0.19751E-03   -0.19311E-03  5991   0.288E-02    0.560E-02
RMM:   3    -0.232871316704E+04    0.97593E-05   -0.21407E-04  2992   0.104E-02    0.264E-02
RMM:   4    -0.232871316021E+04    0.68304E-05   -0.19805E-05  2919   0.363E-03
 141 F= -.23497100E+04 E0= -.23497100E+04  d E =-.337180E-03  mag=     5.0000
       N       E                     dE             d eps       ncg     rms          rms(c)
DAV:   1    -0.232871227082E+04    0.89622E-03   -0.11383E-01  4480   0.334E-01    0.115E-01
RMM:   2    -0.232871362636E+04   -0.13555E-02   -0.13809E-02  5943   0.715E-02    0.106E-01
RMM:   3    -0.232871366379E+04   -0.37425E-04   -0.13329E-03  3989   0.266E-02    0.811E-02
RMM:   4    -0.232871359816E+04    0.65622E-04   -0.13109E-04  3087   0.732E-03    0.296E-02
RMM:   5    -0.232871359480E+04    0.33652E-05   -0.51941E-05  3019   0.578E-03
 142 F= -.23497104E+04 E0= -.23497104E+04  d E =-.347741E-03  mag=     5.0000
       N       E                     dE             d eps       ncg     rms          rms(c)
DAV:   1    -0.232871348702E+04    0.11114E-03   -0.10052E-02  4960   0.100E-01    0.375E-02
RMM:   2    -0.232871361247E+04   -0.12545E-03   -0.12787E-03  5820   0.236E-02    0.390E-02
RMM:   3    -0.232871361395E+04   -0.14779E-05   -0.15173E-04  2935   0.938E-03    0.235E-02
RMM:   4    -0.232871360825E+04    0.57043E-05   -0.13013E-05  2912   0.317E-03
 143 F= -.23497104E+04 E0= -.23497104E+04  d E =-.335060E-03  mag=     5.0000
       N       E                     dE             d eps       ncg     rms          rms(c)
DAV:   1    -0.232871259919E+04    0.10148E-02   -0.12199E-01  4480   0.352E-01    0.123E-01
RMM:   2    -0.232871406069E+04   -0.14615E-02   -0.15066E-02  5947   0.758E-02    0.103E-01
RMM:   3    -0.232871412428E+04   -0.63589E-04   -0.14497E-03  4121   0.282E-02    0.860E-02
RMM:   4    -0.232871405110E+04    0.73182E-04   -0.14331E-04  3137   0.781E-03    0.320E-02
RMM:   5    -0.232871404896E+04    0.21347E-05   -0.56955E-05  3008   0.616E-03
 144 F= -.23497107E+04 E0= -.23497107E+04  d E =-.333941E-03  mag=     5.0000
       N       E                     dE             d eps       ncg     rms          rms(c)
DAV:   1    -0.232871400243E+04    0.48668E-04   -0.37897E-03  5392   0.630E-02    0.260E-02
RMM:   2    -0.232871405384E+04   -0.51410E-04   -0.51380E-04  5121   0.152E-02    0.294E-02
RMM:   3    -0.232871405241E+04    0.14248E-05   -0.66682E-05  2911   0.730E-03
 145 F= -.23497107E+04 E0= -.23497107E+04  d E =-.318068E-03  mag=     5.0000
       N       E                     dE             d eps       ncg     rms          rms(c)
DAV:   1    -0.232871309339E+04    0.96045E-03   -0.12100E-01  4480   0.349E-01    0.124E-01
RMM:   2    -0.232871457442E+04   -0.14810E-02   -0.15029E-02  5921   0.754E-02    0.115E-01
RMM:   3    -0.232871461335E+04   -0.38932E-04   -0.14339E-03  4152   0.273E-02    0.864E-02
RMM:   4    -0.232871454153E+04    0.71816E-04   -0.14779E-04  3145   0.764E-03    0.337E-02
RMM:   5    -0.232871454233E+04   -0.79883E-06   -0.53128E-05  2957   0.549E-03
 146 F= -.23497110E+04 E0= -.23497110E+04  d E =-.359753E-03  mag=     5.0000
       N       E                     dE             d eps       ncg     rms          rms(c)
DAV:   1    -0.232871436627E+04    0.17527E-03   -0.16980E-02  4816   0.131E-01    0.467E-02
RMM:   2    -0.232871457249E+04   -0.20623E-03   -0.21739E-03  5993   0.303E-02    0.362E-02
RMM:   3    -0.232871458680E+04   -0.14306E-04   -0.23487E-04  2983   0.111E-02    0.332E-02
RMM:   4    -0.232871457618E+04    0.10622E-04   -0.22278E-05  2923   0.394E-03    0.130E-02
RMM:   5    -0.232871457394E+04    0.22412E-05   -0.91063E-06  2879   0.268E-03
 147 F= -.23497110E+04 E0= -.23497110E+04  d E =-.341849E-03  mag=     5.0000
       N       E                     dE             d eps       ncg     rms          rms(c)
DAV:   1    -0.232871368239E+04    0.89379E-03   -0.10759E-01  4480   0.321E-01    0.114E-01
RMM:   2    -0.232871506014E+04   -0.13778E-02   -0.14031E-02  5948   0.709E-02    0.103E-01
RMM:   3    -0.232871511375E+04   -0.53611E-04   -0.13528E-03  4078   0.262E-02    0.789E-02
RMM:   4    -0.232871505563E+04    0.58124E-04   -0.13531E-04  3087   0.720E-03    0.307E-02
RMM:   5    -0.232871505587E+04   -0.24748E-06   -0.42802E-05  2943   0.492E-03
 148 F= -.23497114E+04 E0= -.23497114E+04  d E =-.372465E-03  mag=     5.0000
       N       E                     dE             d eps       ncg     rms          rms(c)
DAV:   1    -0.232871459503E+04    0.46060E-03   -0.42637E-02  4496   0.202E-01    0.715E-02
RMM:   2    -0.232871513536E+04   -0.54032E-03   -0.56156E-03  6208   0.458E-02    0.581E-02
RMM:   3    -0.232871516473E+04   -0.29375E-04   -0.55627E-04  3305   0.160E-02    0.484E-02
RMM:   4    -0.232871514231E+04    0.22418E-04   -0.53425E-05  2983   0.538E-03    0.197E-02
RMM:   5    -0.232871513876E+04    0.35501E-05   -0.21164E-05  2911   0.400E-03
 149 F= -.23497114E+04 E0= -.23497114E+04  d E =-.386047E-03  mag=     5.0000
       N       E                     dE             d eps       ncg     rms          rms(c)
DAV:   1    -0.232871431260E+04    0.82972E-03   -0.10115E-01  4480   0.308E-01    0.108E-01
RMM:   2    -0.232871562070E+04   -0.13081E-02   -0.13485E-02  6124   0.691E-02    0.890E-02
RMM:   3    -0.232871568213E+04   -0.61430E-04   -0.13099E-03  3924   0.245E-02    0.672E-02
RMM:   4    -0.232871563983E+04    0.42301E-04   -0.12633E-04  3070   0.711E-03    0.281E-02
RMM:   5    -0.232871563568E+04    0.41528E-05   -0.38897E-05  2951   0.528E-03
 150 F= -.23497118E+04 E0= -.23497118E+04  d E =-.392814E-03  mag=     5.0000
