       N       E                     dE             d eps       ncg     rms          rms(c)
DAV:   1     0.129388732155E+05    0.12939E+05   -0.84123E+05  4560   0.143E+03
DAV:   2    -0.107825621010E+04   -0.14017E+05   -0.13413E+05  5000   0.327E+02
DAV:   3    -0.248141593978E+04   -0.14032E+04   -0.13891E+04  5520   0.112E+02
DAV:   4    -0.251897976583E+04   -0.37564E+02   -0.37375E+02  6160   0.250E+01
DAV:   5    -0.251987776578E+04   -0.89800E+00   -0.89611E+00  5800   0.311E+00    0.170E+02
RMM:   6    -0.149289385246E+04    0.10270E+04   -0.19164E+03  4513   0.377E+01    0.728E+01
RMM:   7    -0.166618308248E+04   -0.17329E+03   -0.29424E+02  5233   0.146E+01    0.570E+01
RMM:   8    -0.170785857802E+04   -0.41675E+02   -0.90272E+01  5404   0.867E+00    0.464E+01
RMM:   9    -0.177344908222E+04   -0.65591E+02   -0.57991E+01  5016   0.723E+00    0.361E+01
RMM:  10    -0.189217289633E+04   -0.11872E+03   -0.56782E+01  5469   0.731E+00    0.323E+01
RMM:  11    -0.197103799435E+04   -0.78865E+02   -0.35779E+01  5426   0.542E+00    0.198E+01
RMM:  12    -0.206194303989E+04   -0.90905E+02   -0.37774E+01  4904   0.476E+00    0.146E+01
RMM:  13    -0.214965871740E+04   -0.87716E+02   -0.47828E+01  4901   0.523E+00    0.148E+01
RMM:  14    -0.221986659681E+04   -0.70208E+02   -0.46624E+01  4951   0.515E+00    0.943E+00
RMM:  15    -0.228792749101E+04   -0.68061E+02   -0.61348E+01  4530   0.541E+00    0.583E+00
RMM:  16    -0.230403440654E+04   -0.16107E+02   -0.16546E+01  4657   0.349E+00    0.410E+00
RMM:  17    -0.230884494779E+04   -0.48105E+01   -0.58537E+00  4980   0.146E+00    0.356E+00
RMM:  18    -0.230932496991E+04   -0.48002E+00   -0.47217E-01  5355   0.661E-01    0.319E+00
RMM:  19    -0.231106058788E+04   -0.17356E+01   -0.82900E-01  4511   0.528E-01    0.208E+00
RMM:  20    -0.231292524422E+04   -0.18647E+01   -0.11268E+00  4498   0.560E-01    0.916E-01
RMM:  21    -0.231341221199E+04   -0.48697E+00   -0.32623E-01  4845   0.402E-01    0.803E-01
RMM:  22    -0.231347698424E+04   -0.64772E-01   -0.82396E-02  5370   0.164E-01    0.558E-01
RMM:  23    -0.231354570290E+04   -0.68719E-01   -0.27632E-02  4580   0.977E-02    0.308E-01
RMM:  24    -0.231359102767E+04   -0.45325E-01   -0.14520E-02  4524   0.859E-02    0.189E-01
RMM:  25    -0.231361538003E+04   -0.24352E-01   -0.68070E-03  4603   0.603E-02    0.116E-01
RMM:  26    -0.231363328947E+04   -0.17909E-01   -0.38567E-03  4545   0.459E-02    0.846E-02
RMM:  27    -0.231364759434E+04   -0.14305E-01   -0.35646E-03  4524   0.419E-02    0.498E-02
RMM:  28    -0.231365329044E+04   -0.56961E-02   -0.18697E-03  4796   0.337E-02    0.346E-02
RMM:  29    -0.231365534529E+04   -0.20548E-02   -0.74408E-04  4425   0.184E-02    0.204E-02
RMM:  30    -0.231365596585E+04   -0.62057E-03   -0.19697E-04  3906   0.104E-02    0.110E-02
RMM:  31    -0.231365615249E+04   -0.18664E-03   -0.55002E-05  3539   0.666E-03    0.609E-03
RMM:  32    -0.231365624986E+04   -0.97375E-04   -0.26491E-05  3246   0.509E-03    0.314E-03
RMM:  33    -0.231365627942E+04   -0.29557E-04   -0.93329E-06  2917   0.362E-03    0.206E-03
RMM:  34    -0.231365629574E+04   -0.16319E-04   -0.51102E-06  2791   0.249E-03    0.144E-03
RMM:  35    -0.231365630325E+04   -0.75146E-05   -0.30061E-06  2511   0.200E-03
   1 F= -.23348780E+04 E0= -.23348749E+04  d E =-.615064E-02  mag=     3.9191
       N       E                     dE             d eps       ncg     rms          rms(c)
DAV:   1    -0.231368401677E+04   -0.27721E-01   -0.18324E+00  4480   0.505E-01    0.289E-01
RMM:   2    -0.231368449818E+04   -0.48141E-03   -0.12286E-02  4905   0.463E-02    0.297E-01
RMM:   3    -0.231368423114E+04    0.26704E-03   -0.25794E-03  4662   0.231E-02    0.292E-01
RMM:   4    -0.231368351807E+04    0.71307E-03   -0.91183E-04  3751   0.122E-02    0.996E-02
RMM:   5    -0.231368354935E+04   -0.31280E-04   -0.39836E-04  3105   0.858E-03    0.100E-01
RMM:   6    -0.231368342461E+04    0.12475E-03   -0.12824E-04  3022   0.599E-03    0.262E-02
RMM:   7    -0.231368342456E+04    0.50466E-07   -0.24068E-05  2702   0.269E-03
   2 F= -.23349058E+04 E0= -.23349027E+04  d E =-.628126E-02  mag=     3.9186
       N       E                     dE             d eps       ncg     rms          rms(c)
DAV:   1    -0.231362434942E+04    0.59075E-01   -0.73471E+00  4560   0.992E-01    0.592E-01
RMM:   2    -0.231362574944E+04   -0.14000E-02   -0.44084E-02  5115   0.883E-02    0.630E-01
RMM:   3    -0.231362432260E+04    0.14268E-02   -0.10628E-02  5439   0.472E-02    0.596E-01
RMM:   4    -0.231362140136E+04    0.29212E-02   -0.36062E-03  5033   0.238E-02    0.209E-01
RMM:   5    -0.231362151400E+04   -0.11264E-03   -0.16724E-03  4117   0.163E-02    0.209E-01
RMM:   6    -0.231362097783E+04    0.53617E-03   -0.52157E-04  3594   0.108E-02    0.584E-02
RMM:   7    -0.231362098812E+04   -0.10286E-04   -0.11916E-04  2999   0.523E-03    0.560E-02
RMM:   8    -0.231362095816E+04    0.29955E-04   -0.57947E-05  2815   0.424E-03    0.199E-02
RMM:   9    -0.231362095696E+04    0.12007E-05   -0.11545E-05  2758   0.217E-03
   3 F= -.23348420E+04 E0= -.23348389E+04  d E =-.614087E-02  mag=     3.9174
       N       E                     dE             d eps       ncg     rms          rms(c)
DAV:   1    -0.231364082251E+04   -0.19864E-01   -0.35453E+00  4480   0.706E-01    0.388E-01
RMM:   2    -0.231364152612E+04   -0.70361E-03   -0.16332E-02  4548   0.587E-02    0.379E-01
RMM:   3    -0.231364098908E+04    0.53704E-03   -0.42074E-03  4828   0.292E-02    0.327E-01
RMM:   4    -0.231364005854E+04    0.93054E-03   -0.18983E-03  4839   0.174E-02    0.218E-01
RMM:   5    -0.231363975516E+04    0.30338E-03   -0.67740E-04  3455   0.117E-02    0.952E-02
RMM:   6    -0.231363970144E+04    0.53711E-04   -0.80453E-05  2960   0.589E-03    0.295E-02
RMM:   7    -0.231363972048E+04   -0.19037E-04   -0.49735E-05  2838   0.386E-03    0.366E-02
RMM:   8    -0.231363970479E+04    0.15693E-04   -0.18636E-05  2778   0.299E-03    0.955E-03
RMM:   9    -0.231363970747E+04   -0.26806E-05   -0.30627E-06  2546   0.152E-03
   4 F= -.23348611E+04 E0= -.23348590E+04  d E =-.417655E-02  mag=     3.9408
       N       E                     dE             d eps       ncg     rms          rms(c)
DAV:   1    -0.231366364374E+04   -0.23939E-01   -0.74960E+00  4480   0.977E-01    0.579E-01
RMM:   2    -0.231366956169E+04   -0.59180E-02   -0.55485E-02  5432   0.974E-02    0.813E-01
RMM:   3    -0.231366282556E+04    0.67361E-02   -0.10722E-02  5736   0.453E-02    0.320E-01
RMM:   4    -0.231366168040E+04    0.11452E-02   -0.26457E-03  5212   0.218E-02    0.178E-01
RMM:   5    -0.231366171814E+04   -0.37738E-04   -0.11235E-03  4249   0.151E-02    0.223E-01
RMM:   6    -0.231366136807E+04    0.35007E-03   -0.43349E-04  3252   0.887E-03    0.684E-02
RMM:   7    -0.231366132493E+04    0.43142E-04   -0.83407E-05  3060   0.553E-03    0.358E-02
RMM:   8    -0.231366136519E+04   -0.40264E-04   -0.61218E-05  2998   0.491E-03    0.474E-02
RMM:   9    -0.231366135993E+04    0.52549E-05   -0.23995E-05  2864   0.382E-03
   5 F= -.23348834E+04 E0= -.23348783E+04  d E =-.102461E-01  mag=     3.8753
       N       E                     dE             d eps       ncg     rms          rms(c)
DAV:   1    -0.231367780699E+04   -0.16442E-01   -0.40493E+00  4560   0.745E-01    0.423E-01
RMM:   2    -0.231368253438E+04   -0.47274E-02   -0.31769E-02  4998   0.787E-02    0.638E-01
RMM:   3    -0.231367822269E+04    0.43117E-02   -0.53668E-03  4554   0.370E-02    0.273E-01
RMM:   4    -0.231367802081E+04    0.20188E-03   -0.25336E-03  5194   0.205E-02    0.253E-01
RMM:   5    -0.231367764648E+04    0.37433E-03   -0.13726E-03  4772   0.157E-02    0.160E-01
RMM:   6    -0.231367741501E+04    0.23147E-03   -0.25723E-04  3425   0.896E-03    0.349E-02
RMM:   7    -0.231367742725E+04   -0.12239E-04   -0.52879E-05  3035   0.512E-03    0.239E-02
RMM:   8    -0.231367744540E+04   -0.18147E-04   -0.24341E-05  2948   0.375E-03    0.238E-02
RMM:   9    -0.231367744701E+04   -0.16109E-05   -0.94023E-06  2777   0.281E-03
   6 F= -.23348991E+04 E0= -.23348967E+04  d E =-.471512E-02  mag=     3.9235
       N       E                     dE             d eps       ncg     rms          rms(c)
DAV:   1    -0.231361914250E+04    0.58303E-01   -0.78178E+00  4560   0.112E+00    0.694E-01
RMM:   2    -0.231362917791E+04   -0.10035E-01   -0.72799E-02  5423   0.122E-01    0.108E+00
RMM:   3    -0.231362006430E+04    0.91136E-02   -0.16175E-02  5567   0.562E-02    0.551E-01
RMM:   4    -0.231361724821E+04    0.28161E-02   -0.47223E-03  5225   0.276E-02    0.181E-01
RMM:   5    -0.231361737348E+04   -0.12527E-03   -0.20990E-03  5134   0.180E-02    0.211E-01
RMM:   6    -0.231361688193E+04    0.49154E-03   -0.70203E-04  3412   0.118E-02    0.902E-02
RMM:   7    -0.231361694377E+04   -0.61840E-04   -0.17797E-04  3243   0.721E-03    0.449E-02
RMM:   8    -0.231361698286E+04   -0.39084E-04   -0.62338E-05  2982   0.473E-03    0.469E-02
RMM:   9    -0.231361700203E+04   -0.19172E-04   -0.37614E-05  2907   0.389E-03    0.137E-02
RMM:  10    -0.231361701708E+04   -0.15053E-04   -0.10243E-05  2799   0.267E-03    0.718E-03
RMM:  11    -0.231361702159E+04   -0.45064E-05   -0.26109E-06  2593   0.195E-03
   7 F= -.23348388E+04 E0= -.23348348E+04  d E =-.807972E-02  mag=     3.8895
       N       E                     dE             d eps       ncg     rms          rms(c)
DAV:   1    -0.231365192991E+04   -0.34913E-01   -0.20422E+00  4560   0.574E-01    0.325E-01
RMM:   2    -0.231365370827E+04   -0.17784E-02   -0.15720E-02  4865   0.575E-02    0.455E-01
RMM:   3    -0.231365227091E+04    0.14374E-02   -0.32082E-03  4572   0.264E-02    0.266E-01
RMM:   4    -0.231365177841E+04    0.49250E-03   -0.11725E-03  4711   0.140E-02    0.119E-01
RMM:   5    -0.231365173545E+04    0.42961E-04   -0.55937E-04  3489   0.107E-02    0.931E-02
RMM:   6    -0.231365162860E+04    0.10685E-03   -0.93065E-05  3045   0.640E-03    0.283E-02
RMM:   7    -0.231365163190E+04   -0.33033E-05   -0.22737E-05  2848   0.297E-03
   8 F= -.23348728E+04 E0= -.23348687E+04  d E =-.817638E-02  mag=     3.8894
       N       E                     dE             d eps       ncg     rms          rms(c)
DAV:   1    -0.231366078762E+04   -0.91590E-02   -0.10650E+00  4600   0.396E-01    0.347E-01
RMM:   2    -0.231366149148E+04   -0.70386E-03   -0.11004E-02  5049   0.456E-02    0.329E-01
RMM:   3    -0.231366098570E+04    0.50578E-03   -0.31322E-03  5033   0.269E-02    0.281E-01
RMM:   4    -0.231366033379E+04    0.65191E-03   -0.11715E-03  4028   0.147E-02    0.186E-01
RMM:   5    -0.231366028342E+04    0.50372E-04   -0.73755E-04  3413   0.113E-02    0.160E-01
RMM:   6    -0.231366006041E+04    0.22301E-03   -0.27258E-04  3337   0.831E-03    0.307E-02
RMM:   7    -0.231366007545E+04   -0.15038E-04   -0.55906E-05  2915   0.441E-03    0.375E-02
RMM:   8    -0.231366006285E+04    0.12594E-04   -0.25273E-05  2793   0.330E-03    0.132E-02
RMM:   9    -0.231366007013E+04   -0.72738E-05   -0.52791E-06  2719   0.185E-03
   9 F= -.23348823E+04 E0= -.23348799E+04  d E =-.478925E-02  mag=     3.9258
       N       E                     dE             d eps       ncg     rms          rms(c)
DAV:   1    -0.231361795066E+04    0.42112E-01   -0.53449E-01  4640   0.288E-01    0.192E-01
RMM:   2    -0.231361888984E+04   -0.93919E-03   -0.45895E-03  4930   0.337E-02    0.275E-01
RMM:   3    -0.231361795477E+04    0.93507E-03   -0.10514E-03  3650   0.173E-02    0.953E-02
RMM:   4    -0.231361802282E+04   -0.68053E-04   -0.37137E-04  3262   0.844E-03    0.933E-02
RMM:   5    -0.231361797526E+04    0.47557E-04   -0.15759E-04  2939   0.647E-03    0.576E-02
RMM:   6    -0.231361795078E+04    0.24483E-04   -0.31075E-05  2775   0.362E-03    0.142E-02
RMM:   7    -0.231361795289E+04   -0.21136E-05   -0.11238E-05  2608   0.222E-03
  10 F= -.23348395E+04 E0= -.23348365E+04  d E =-.599315E-02  mag=     3.9244
       N       E                     dE             d eps       ncg     rms          rms(c)
DAV:   1    -0.231368847926E+04   -0.70528E-01   -0.10718E+00  4520   0.416E-01    0.324E-01
RMM:   2    -0.231369010009E+04   -0.16208E-02   -0.11661E-02  5096   0.516E-02    0.400E-01
RMM:   3    -0.231368844634E+04    0.16538E-02   -0.26889E-03  4299   0.268E-02    0.190E-01
RMM:   4    -0.231368832052E+04    0.12582E-03   -0.95200E-04  4004   0.128E-02    0.161E-01
RMM:   5    -0.231368825836E+04    0.62161E-04   -0.56402E-04  3424   0.106E-02    0.127E-01
RMM:   6    -0.231368809002E+04    0.16833E-03   -0.13504E-04  3059   0.674E-03    0.204E-02
RMM:   7    -0.231368808980E+04    0.22036E-06   -0.21229E-05  2845   0.303E-03
  11 F= -.23349100E+04 E0= -.23349067E+04  d E =-.663897E-02  mag=     3.9171
       N       E                     dE             d eps       ncg     rms          rms(c)
DAV:   1    -0.231362820905E+04    0.59881E-01   -0.54977E-01  4480   0.300E-01    0.219E-01
RMM:   2    -0.231362919241E+04   -0.98335E-03   -0.65967E-03  5063   0.360E-02    0.306E-01
RMM:   3    -0.231362806039E+04    0.11320E-02   -0.14568E-03  3899   0.203E-02    0.111E-01
RMM:   4    -0.231362805563E+04    0.47604E-05   -0.60083E-04  3858   0.100E-02    0.905E-02
RMM:   5    -0.231362805537E+04    0.26711E-06   -0.22313E-04  2967   0.702E-03    0.891E-02
RMM:   6    -0.231362798618E+04    0.69188E-04   -0.58551E-05  2824   0.451E-03    0.155E-02
RMM:   7    -0.231362798928E+04   -0.30968E-05   -0.18651E-05  2650   0.244E-03
  12 F= -.23348493E+04 E0= -.23348461E+04  d E =-.641197E-02  mag=     3.9159
       N       E                     dE             d eps       ncg     rms          rms(c)
DAV:   1    -0.231367755570E+04   -0.49570E-01   -0.10686E+00  4800   0.413E-01    0.314E-01
RMM:   2    -0.231367838825E+04   -0.83255E-03   -0.12064E-02  5092   0.459E-02    0.358E-01
RMM:   3    -0.231367717973E+04    0.12085E-02   -0.29333E-03  4876   0.274E-02    0.231E-01
RMM:   4    -0.231367680566E+04    0.37407E-03   -0.10678E-03  3960   0.134E-02    0.182E-01
RMM:   5    -0.231367677738E+04    0.28275E-04   -0.70324E-04  3472   0.106E-02    0.155E-01
RMM:   6    -0.231367655527E+04    0.22211E-03   -0.22961E-04  3180   0.788E-03    0.213E-02
RMM:   7    -0.231367655972E+04   -0.44517E-05   -0.50228E-05  2844   0.383E-03
  13 F= -.23348987E+04 E0= -.23348957E+04  d E =-.586878E-02  mag=     3.9193
       N       E                     dE             d eps       ncg     rms          rms(c)
DAV:   1    -0.231364304636E+04    0.33509E-01   -0.55103E-01  4560   0.291E-01    0.204E-01
RMM:   2    -0.231364330709E+04   -0.26072E-03   -0.49741E-03  4821   0.309E-02    0.217E-01
RMM:   3    -0.231364304478E+04    0.26230E-03   -0.11669E-03  3903   0.169E-02    0.177E-01
RMM:   4    -0.231364278094E+04    0.26384E-03   -0.44958E-04  3350   0.934E-03    0.106E-01
RMM:   5    -0.231364278541E+04   -0.44686E-05   -0.30723E-04  3146   0.770E-03    0.984E-02
RMM:   6    -0.231364269042E+04    0.94991E-04   -0.88946E-05  2950   0.542E-03    0.127E-02
RMM:   7    -0.231364269450E+04   -0.40795E-05   -0.18952E-05  2746   0.267E-03
  14 F= -.23348640E+04 E0= -.23348612E+04  d E =-.561476E-02  mag=     3.9237
       N       E                     dE             d eps       ncg     rms          rms(c)
DAV:   1    -0.231367004003E+04   -0.27350E-01   -0.11464E+00  4480   0.367E-01    0.262E-01
RMM:   2    -0.231367014879E+04   -0.10876E-03   -0.36945E-03  4365   0.276E-02    0.264E-01
RMM:   3    -0.231366979048E+04    0.35831E-03   -0.15742E-03  4148   0.172E-02    0.211E-01
RMM:   4    -0.231366954728E+04    0.24321E-03   -0.78905E-04  4048   0.117E-02    0.163E-01
RMM:   5    -0.231366928242E+04    0.26486E-03   -0.32658E-04  3230   0.907E-03    0.521E-02
RMM:   6    -0.231366926960E+04    0.12822E-04   -0.48682E-05  2967   0.437E-03    0.246E-02
RMM:   7    -0.231366926772E+04    0.18810E-05   -0.22457E-05  2763   0.300E-03
  15 F= -.23348913E+04 E0= -.23348880E+04  d E =-.663481E-02  mag=     3.9167
       N       E                     dE             d eps       ncg     rms          rms(c)
DAV:   1    -0.231368566985E+04   -0.16400E-01   -0.56544E-01  4480   0.262E-01    0.201E-01
RMM:   2    -0.231368560714E+04    0.62713E-04   -0.25179E-03  3844   0.221E-02    0.133E-01
RMM:   3    -0.231368594139E+04   -0.33425E-03   -0.98591E-04  3973   0.142E-02    0.206E-01
RMM:   4    -0.231368539824E+04    0.54314E-03   -0.47396E-04  3375   0.103E-02    0.580E-02
RMM:   5    -0.231368542906E+04   -0.30812E-04   -0.16921E-04  2971   0.596E-03    0.834E-02
RMM:   6    -0.231368537181E+04    0.57247E-04   -0.46227E-05  2829   0.409E-03    0.112E-02
RMM:   7    -0.231368537440E+04   -0.25918E-05   -0.90555E-06  2736   0.205E-03
  16 F= -.23349072E+04 E0= -.23349049E+04  d E =-.461209E-02  mag=     3.9337
       N       E                     dE             d eps       ncg     rms          rms(c)
DAV:   1    -0.231362663552E+04    0.58736E-01   -0.11366E+00  4560   0.373E-01    0.286E-01
RMM:   2    -0.231362658906E+04    0.46466E-04   -0.57162E-03  4233   0.337E-02    0.221E-01
RMM:   3    -0.231362679575E+04   -0.20669E-03   -0.20744E-03  3877   0.207E-02    0.264E-01
RMM:   4    -0.231362609517E+04    0.70058E-03   -0.10975E-03  4634   0.134E-02    0.127E-01
RMM:   5    -0.231362605311E+04    0.42061E-04   -0.31645E-04  3279   0.886E-03    0.936E-02
RMM:   6    -0.231362595007E+04    0.10304E-03   -0.76833E-05  2987   0.594E-03    0.190E-02
RMM:   7    -0.231362596126E+04   -0.11192E-04   -0.21847E-05  2932   0.317E-03    0.115E-02
RMM:   8    -0.231362597493E+04   -0.13670E-04   -0.76210E-06  2782   0.238E-03    0.150E-02
RMM:   9    -0.231362598244E+04   -0.75095E-05   -0.43723E-06  2642   0.180E-03
  17 F= -.23348476E+04 E0= -.23348433E+04  d E =-.854047E-02  mag=     3.8914
       N       E                     dE             d eps       ncg     rms          rms(c)
DAV:   1    -0.231364254149E+04   -0.16567E-01   -0.58212E-01  4640   0.267E-01    0.217E-01
RMM:   2    -0.231364290973E+04   -0.36824E-03   -0.42621E-03  4548   0.285E-02    0.261E-01
RMM:   3    -0.231364221897E+04    0.69076E-03   -0.10437E-03  4135   0.153E-02    0.135E-01
RMM:   4    -0.231364230307E+04   -0.84094E-04   -0.74530E-04  3842   0.114E-02    0.193E-01
RMM:   5    -0.231364198507E+04    0.31799E-03   -0.36119E-04  3250   0.820E-03    0.501E-02
RMM:   6    -0.231364195948E+04    0.25589E-04   -0.36843E-05  2899   0.382E-03    0.185E-02
RMM:   7    -0.231364195942E+04    0.59837E-07   -0.12899E-05  2708   0.263E-03
  18 F= -.23348636E+04 E0= -.23348588E+04  d E =-.944732E-02  mag=     3.8769
       N       E                     dE             d eps       ncg     rms          rms(c)
DAV:   1    -0.231366267236E+04   -0.20713E-01   -0.11567E+00  4480   0.392E-01    0.346E-01
RMM:   2    -0.231366393787E+04   -0.12655E-02   -0.11105E-02  4789   0.471E-02    0.407E-01
RMM:   3    -0.231366230695E+04    0.16309E-02   -0.24694E-03  5325   0.238E-02    0.241E-01
RMM:   4    -0.231366222091E+04    0.86039E-04   -0.16266E-03  4864   0.169E-02    0.257E-01
RMM:   5    -0.231366162802E+04    0.59289E-03   -0.95201E-04  4122   0.128E-02    0.988E-02
RMM:   6    -0.231366149853E+04    0.12949E-03   -0.13437E-04  3295   0.678E-03    0.297E-02
RMM:   7    -0.231366152248E+04   -0.23951E-04   -0.53882E-05  2978   0.530E-03    0.351E-02
RMM:   8    -0.231366152253E+04   -0.51848E-07   -0.23909E-05  2902   0.382E-03
  19 F= -.23348837E+04 E0= -.23348814E+04  d E =-.447601E-02  mag=     3.9225
