       N       E                     dE             d eps       ncg     rms          rms(c)
DAV:   1     0.131439172930E+05    0.13144E+05   -0.84442E+05  4528   0.144E+03
DAV:   2    -0.100720686355E+04   -0.14151E+05   -0.13525E+05  4960   0.330E+02
DAV:   3    -0.248771301152E+04   -0.14805E+04   -0.14618E+04  5544   0.115E+02
DAV:   4    -0.253388268573E+04   -0.46170E+02   -0.45905E+02  6800   0.294E+01
DAV:   5    -0.253472878500E+04   -0.84610E+00   -0.84426E+00  6264   0.345E+00    0.170E+02
RMM:   6    -0.150098193664E+04    0.10337E+04   -0.19621E+03  4492   0.382E+01    0.735E+01
RMM:   7    -0.169395805302E+04   -0.19298E+03   -0.30977E+02  5223   0.147E+01    0.645E+01
RMM:   8    -0.170691000594E+04   -0.12952E+02   -0.10238E+02  5344   0.872E+00    0.473E+01
RMM:   9    -0.177155963240E+04   -0.64650E+02   -0.55642E+01  4985   0.750E+00    0.335E+01
RMM:  10    -0.190911223246E+04   -0.13755E+03   -0.61431E+01  5370   0.740E+00    0.315E+01
RMM:  11    -0.197779569232E+04   -0.68683E+02   -0.28774E+01  5421   0.471E+00    0.224E+01
RMM:  12    -0.207509902029E+04   -0.97303E+02   -0.44512E+01  4693   0.520E+00    0.146E+01
RMM:  13    -0.216107249772E+04   -0.85973E+02   -0.44193E+01  4804   0.506E+00    0.120E+01
RMM:  14    -0.225412881379E+04   -0.93056E+02   -0.70364E+01  4577   0.624E+00    0.133E+01
RMM:  15    -0.230024885238E+04   -0.46120E+02   -0.39333E+01  4997   0.497E+00    0.606E+00
RMM:  16    -0.232117573888E+04   -0.20927E+02   -0.21984E+01  4794   0.315E+00    0.377E+00
RMM:  17    -0.232737019803E+04   -0.61945E+01   -0.62887E+00  4980   0.178E+00    0.270E+00
RMM:  18    -0.232950655777E+04   -0.21364E+01   -0.17219E+00  5378   0.905E-01    0.355E+00
RMM:  19    -0.232948261514E+04    0.23943E-01   -0.16538E-01  5943   0.281E-01    0.349E+00
RMM:  20    -0.232949792587E+04   -0.15311E-01   -0.13428E-02  5686   0.701E-02    0.345E+00
RMM:  21    -0.232947542498E+04    0.22501E-01   -0.31875E-03  4980   0.351E-02    0.349E+00
RMM:  22    -0.232982335615E+04   -0.34793E+00   -0.77284E-01  4518   0.409E-01    0.169E+00
RMM:  23    -0.233051597062E+04   -0.69261E+00   -0.42274E-01  4523   0.372E-01    0.188E+00
RMM:  24    -0.233092917055E+04   -0.41320E+00   -0.36027E-01  4519   0.287E-01    0.733E-01
RMM:  25    -0.233107841193E+04   -0.14924E+00   -0.15915E-01  4628   0.213E-01    0.482E-01
RMM:  26    -0.233114971174E+04   -0.71300E-01   -0.72836E-02  4623   0.133E-01    0.427E-01
RMM:  27    -0.233118652767E+04   -0.36816E-01   -0.31011E-02  4632   0.100E-01    0.176E-01
RMM:  28    -0.233121423764E+04   -0.27710E-01   -0.11534E-02  4657   0.669E-02    0.112E-01
RMM:  29    -0.233122846125E+04   -0.14224E-01   -0.42120E-03  4760   0.491E-02    0.766E-02
RMM:  30    -0.233123483444E+04   -0.63732E-02   -0.15877E-03  4777   0.292E-02    0.489E-02
RMM:  31    -0.233124030152E+04   -0.54671E-02   -0.11334E-03  4337   0.226E-02    0.450E-02
RMM:  32    -0.233124247402E+04   -0.21725E-02   -0.54874E-04  4228   0.177E-02    0.327E-02
RMM:  33    -0.233124311269E+04   -0.63867E-03   -0.19974E-04  4071   0.109E-02    0.177E-02
RMM:  34    -0.233124336166E+04   -0.24896E-03   -0.78020E-05  3676   0.728E-03    0.621E-03
RMM:  35    -0.233124345339E+04   -0.91733E-04   -0.24928E-05  3123   0.520E-03    0.399E-03
RMM:  36    -0.233124349508E+04   -0.41696E-04   -0.11249E-05  2890   0.367E-03    0.218E-03
RMM:  37    -0.233124351603E+04   -0.20945E-04   -0.62203E-06  2799   0.283E-03    0.129E-03
RMM:  38    -0.233124352500E+04   -0.89743E-05   -0.37444E-06  2486   0.223E-03
   1 F= -.23526563E+04 E0= -.23526562E+04  d E =-.235266E+04  mag=     5.0000
       N       E                     dE             d eps       ncg     rms          rms(c)
DAV:   1    -0.233169178720E+04   -0.44827E+00   -0.29426E+01  4880   0.395E+00    0.156E+00
RMM:   2    -0.233206479748E+04   -0.37301E+00   -0.38680E+00  6540   0.937E-01    0.181E+00
RMM:   3    -0.233205304180E+04    0.11756E-01   -0.41707E-01  6401   0.353E-01    0.109E+00
RMM:   4    -0.233204248445E+04    0.10557E-01   -0.45809E-02  5854   0.866E-02    0.711E-01
RMM:   5    -0.233204028500E+04    0.21994E-02   -0.15467E-02  6111   0.533E-02    0.702E-01
RMM:   6    -0.233203343504E+04    0.68500E-02   -0.11384E-02  5672   0.514E-02    0.176E-01
RMM:   7    -0.233203327120E+04    0.16384E-03   -0.23931E-03  4913   0.283E-02    0.110E-01
RMM:   8    -0.233203323864E+04    0.32557E-04   -0.52443E-04  3922   0.124E-02    0.998E-02
RMM:   9    -0.233203311809E+04    0.12055E-03   -0.15897E-04  3271   0.866E-03    0.298E-02
RMM:  10    -0.233203309921E+04    0.18888E-04   -0.68401E-05  3220   0.638E-03    0.141E-02
RMM:  11    -0.233203309480E+04    0.44083E-05   -0.17980E-05  2969   0.478E-03
   2 F= -.23534457E+04 E0= -.23534456E+04  d E =-.789445E+00  mag=     5.0000
       N       E                     dE             d eps       ncg     rms          rms(c)
DAV:   1    -0.233151491545E+04    0.51818E+00   -0.88315E+01  4588   0.685E+00    0.270E+00
RMM:   2    -0.233279428336E+04   -0.12794E+01   -0.12493E+01  6565   0.170E+00    0.519E+00
RMM:   3    -0.233266908397E+04    0.12520E+00   -0.13667E+00  6373   0.635E-01    0.188E+00
RMM:   4    -0.233264989714E+04    0.19187E-01   -0.15149E-01  5949   0.158E-01    0.141E+00
RMM:   5    -0.233264075978E+04    0.91374E-02   -0.48458E-02  6043   0.955E-02    0.118E+00
RMM:   6    -0.233262355282E+04    0.17207E-01   -0.40965E-02  5392   0.938E-02    0.609E-01
RMM:   7    -0.233262219672E+04    0.13561E-02   -0.14749E-02  5188   0.711E-02    0.539E-01
RMM:   8    -0.233262014999E+04    0.20467E-02   -0.47446E-03  5386   0.296E-02    0.200E-01
RMM:   9    -0.233262017542E+04   -0.25425E-04   -0.10749E-03  4969   0.203E-02    0.115E-01
RMM:  10    -0.233262027166E+04   -0.96240E-04   -0.47872E-04  4517   0.134E-02    0.679E-02
RMM:  11    -0.233262031744E+04   -0.45787E-04   -0.18812E-04  4095   0.104E-02    0.416E-02
RMM:  12    -0.233262034333E+04   -0.25886E-04   -0.60848E-05  3415   0.649E-03    0.195E-02
RMM:  13    -0.233262036905E+04   -0.25717E-04   -0.29260E-05  3070   0.554E-03    0.107E-02
RMM:  14    -0.233262039124E+04   -0.22188E-04   -0.21385E-05  2971   0.473E-03    0.608E-03
RMM:  15    -0.233262039867E+04   -0.74397E-05   -0.93993E-06  2883   0.419E-03
   3 F= -.23540339E+04 E0= -.23540298E+04  d E =-.137765E+01  mag=     4.8822
       N       E                     dE             d eps       ncg     rms          rms(c)
DAV:   1    -0.233292900351E+04   -0.30861E+00   -0.66223E+00  4720   0.200E+00    0.949E-01
RMM:   2    -0.233300890584E+04   -0.79902E-01   -0.79930E-01  6318   0.453E-01    0.114E+00
RMM:   3    -0.233300809243E+04    0.81342E-03   -0.97571E-02  6063   0.186E-01    0.927E-01
RMM:   4    -0.233300755144E+04    0.54098E-03   -0.10724E-02  5532   0.430E-02    0.971E-01
RMM:   5    -0.233300885962E+04   -0.13082E-02   -0.22681E-03  4997   0.221E-02    0.866E-01
RMM:   6    -0.233300329656E+04    0.55631E-02   -0.11064E-02  5069   0.421E-02    0.570E-01
RMM:   7    -0.233299943795E+04    0.38586E-02   -0.56410E-03  5132   0.350E-02    0.413E-01
RMM:   8    -0.233299728627E+04    0.21517E-02   -0.75366E-03  5435   0.413E-02    0.681E-01
RMM:   9    -0.233299326707E+04    0.40192E-02   -0.23174E-03  4910   0.247E-02    0.724E-01
RMM:  10    -0.233299636056E+04   -0.30935E-02   -0.11008E-03  4119   0.152E-02    0.541E-01
RMM:  11    -0.233299944589E+04   -0.30853E-02   -0.41536E-03  4476   0.290E-02    0.365E-01
RMM:  12    -0.233300171826E+04   -0.22724E-02   -0.34296E-03  4581   0.274E-02    0.452E-01
RMM:  13    -0.233300236821E+04   -0.64995E-03   -0.73629E-04  4003   0.126E-02    0.474E-01
RMM:  14    -0.233300180292E+04    0.56530E-03   -0.78166E-05  2991   0.539E-03    0.404E-01
RMM:  15    -0.233299922225E+04    0.25807E-02   -0.28637E-03  4313   0.226E-02    0.309E-01
RMM:  16    -0.233299698600E+04    0.22363E-02   -0.23649E-03  4139   0.228E-02    0.435E-01
RMM:  17    -0.233299584373E+04    0.11423E-02   -0.90785E-04  4014   0.125E-02    0.514E-01
RMM:  18    -0.233299678163E+04   -0.93790E-03   -0.12444E-04  3014   0.630E-03    0.466E-01
RMM:  19    -0.233300110822E+04   -0.43266E-02   -0.57361E-03  4629   0.313E-02    0.469E-01
RMM:  20    -0.233300658028E+04   -0.54721E-02   -0.65133E-03  4657   0.360E-02    0.930E-01
RMM:  21    -0.233300333306E+04    0.32472E-02   -0.86615E-04  3858   0.155E-02    0.488E-01
RMM:  22    -0.233300339741E+04   -0.64353E-04   -0.64408E-05  2896   0.562E-03    0.625E-01
RMM:  23    -0.233300259171E+04    0.80570E-03   -0.15841E-04  2962   0.559E-03    0.529E-01
RMM:  24    -0.233300080528E+04    0.17864E-02   -0.11118E-03  4199   0.133E-02    0.415E-01
RMM:  25    -0.233299865377E+04    0.21515E-02   -0.21732E-03  4346   0.198E-02    0.407E-01
RMM:  26    -0.233299683536E+04    0.18184E-02   -0.15613E-03  4269   0.171E-02    0.504E-01
RMM:  27    -0.233299471932E+04    0.21160E-02   -0.13344E-03  4283   0.156E-02    0.661E-01
RMM:  28    -0.233299445438E+04    0.26494E-03   -0.18626E-04  3052   0.713E-03    0.683E-01
RMM:  29    -0.233299449336E+04   -0.38976E-04   -0.15011E-05  2822   0.276E-03    0.680E-01
RMM:  30    -0.233299475237E+04   -0.25902E-03   -0.94700E-06  2599   0.220E-03    0.660E-01
RMM:  31    -0.233299577194E+04   -0.10196E-02   -0.18077E-04  2991   0.585E-03    0.581E-01
RMM:  32    -0.233299726043E+04   -0.14885E-02   -0.62412E-04  3884   0.103E-02    0.476E-01
RMM:  33    -0.233299869621E+04   -0.14358E-02   -0.93518E-04  3859   0.127E-02    0.410E-01
RMM:  34    -0.233300092533E+04   -0.22291E-02   -0.22398E-03  4573   0.198E-02    0.459E-01
RMM:  35    -0.233300184489E+04   -0.91956E-03   -0.72988E-04  3675   0.127E-02    0.499E-01
RMM:  36    -0.233300158868E+04    0.25622E-03   -0.64119E-05  2981   0.449E-03    0.462E-01
RMM:  37    -0.233300122486E+04    0.36381E-03   -0.39322E-05  2761   0.348E-03    0.444E-01
RMM:  38    -0.233300012196E+04    0.11029E-02   -0.49406E-04  3544   0.919E-03    0.392E-01
RMM:  39    -0.233299835487E+04    0.17671E-02   -0.14778E-03  4214   0.160E-02    0.413E-01
RMM:  40    -0.233299668206E+04    0.16728E-02   -0.12300E-03  4011   0.152E-02    0.512E-01
RMM:  41    -0.233299424827E+04    0.24338E-02   -0.15155E-03  4402   0.163E-02    0.694E-01
RMM:  42    -0.233299188076E+04    0.23675E-02   -0.96369E-04  3880   0.141E-02    0.868E-01
RMM:  43    -0.233299180546E+04    0.75300E-04   -0.11463E-04  3007   0.520E-03    0.873E-01
RMM:  44    -0.233299180487E+04    0.59136E-06   -0.81267E-06  2736   0.258E-03
   4 F= -.23544058E+04 E0= -.23544034E+04  d E =-.371849E+00  mag=     5.3234
       N       E                     dE             d eps       ncg     rms          rms(c)
DAV:   1    -0.233294172697E+04    0.50078E-01   -0.37675E+01  4524   0.477E+00    0.263E+00
RMM:   2    -0.233345000066E+04   -0.50827E+00   -0.48199E+00  6380   0.112E+00    0.360E+00
RMM:   3    -0.233342228719E+04    0.27713E-01   -0.57126E-01  5982   0.435E-01    0.288E+00
RMM:   4    -0.233343413473E+04   -0.11848E-01   -0.57018E-02  5530   0.941E-02    0.296E+00
RMM:   5    -0.233343607547E+04   -0.19407E-02   -0.32892E-02  5541   0.746E-02    0.308E+00
RMM:   6    -0.233337061842E+04    0.65457E-01   -0.12123E-01  4751   0.150E-01    0.204E+00
RMM:   7    -0.233332041460E+04    0.50204E-01   -0.70648E-02  5046   0.117E-01    0.270E+00
RMM:   8    -0.233334970820E+04   -0.29294E-01   -0.64852E-03  4544   0.517E-02    0.214E+00
RMM:   9    -0.233339345532E+04   -0.43747E-01   -0.13362E-01  4639   0.154E-01    0.199E+00
RMM:  10    -0.233342094741E+04   -0.27492E-01   -0.63019E-02  5092   0.135E-01    0.242E+00
RMM:  11    -0.233345404172E+04   -0.33094E-01   -0.29712E-02  5718   0.834E-02    0.238E+00
RMM:  12    -0.233346736188E+04   -0.13320E-01   -0.13759E-02  5085   0.495E-02    0.193E+00
RMM:  13    -0.233347503914E+04   -0.76773E-02   -0.37795E-03  4843   0.302E-02    0.168E+00
RMM:  14    -0.233348566773E+04   -0.10629E-01   -0.27866E-03  4360   0.253E-02    0.138E+00
RMM:  15    -0.233349945954E+04   -0.13792E-01   -0.41291E-03  4506   0.324E-02    0.947E-01
RMM:  16    -0.233350708115E+04   -0.76216E-02   -0.35852E-03  4708   0.300E-02    0.558E-01
RMM:  17    -0.233351560940E+04   -0.85282E-02   -0.59318E-03  4521   0.391E-02    0.925E-02
RMM:  18    -0.233351950812E+04   -0.38987E-02   -0.18009E-03  4371   0.273E-02    0.736E-02
RMM:  19    -0.233352096531E+04   -0.14572E-02   -0.31142E-04  4498   0.140E-02    0.556E-02
RMM:  20    -0.233352213001E+04   -0.11647E-02   -0.17754E-04  3876   0.890E-03    0.398E-02
RMM:  21    -0.233352266821E+04   -0.53820E-03   -0.95728E-05  3631   0.755E-03    0.274E-02
RMM:  22    -0.233352292989E+04   -0.26168E-03   -0.50759E-05  3356   0.531E-03    0.914E-03
RMM:  23    -0.233352299279E+04   -0.62899E-04   -0.12820E-05  2942   0.437E-03    0.382E-03
RMM:  24    -0.233352300748E+04   -0.14693E-04   -0.56636E-06  2782   0.278E-03    0.239E-03
RMM:  25    -0.233352301730E+04   -0.98184E-05   -0.38110E-06  2628   0.229E-03
   5 F= -.23549388E+04 E0= -.23549387E+04  d E =-.904847E+00  mag=     3.0000
       N       E                     dE             d eps       ncg     rms          rms(c)
DAV:   1    -0.233363310251E+04   -0.11010E+00   -0.26577E+00  4736   0.122E+00    0.617E-01
RMM:   2    -0.233371618585E+04   -0.83083E-01   -0.66579E-01  6485   0.349E-01    0.149E+00
RMM:   3    -0.233369699042E+04    0.19195E-01   -0.84364E-02  6216   0.150E-01    0.340E-01
RMM:   4    -0.233369628401E+04    0.70641E-03   -0.77401E-03  5298   0.351E-02    0.192E-01
RMM:   5    -0.233369636968E+04   -0.85674E-04   -0.17651E-03  5266   0.220E-02    0.251E-01
RMM:   6    -0.233369576396E+04    0.60572E-03   -0.12872E-03  5372   0.177E-02    0.111E-01
RMM:   7    -0.233369566599E+04    0.97976E-04   -0.26877E-04  3258   0.957E-03    0.534E-02
RMM:   8    -0.233369565694E+04    0.90438E-05   -0.70740E-05  2971   0.553E-03
   6 F= -.23551112E+04 E0= -.23551112E+04  d E =-.172452E+00  mag=     3.0000
       N       E                     dE             d eps       ncg     rms          rms(c)
DAV:   1    -0.233339656866E+04    0.29910E+00   -0.23912E+01  4524   0.365E+00    0.185E+00
RMM:   2    -0.233414923406E+04   -0.75267E+00   -0.61051E+00  6513   0.105E+00    0.441E+00
RMM:   3    -0.233398279102E+04    0.16644E+00   -0.79104E-01  6368   0.451E-01    0.113E+00
RMM:   4    -0.233397458382E+04    0.82072E-02   -0.75541E-02  5687   0.110E-01    0.667E-01
RMM:   5    -0.233397453979E+04    0.44028E-04   -0.16097E-02  5848   0.601E-02    0.782E-01
RMM:   6    -0.233396842108E+04    0.61187E-02   -0.13962E-02  5609   0.569E-02    0.355E-01
RMM:   7    -0.233396914178E+04   -0.72069E-03   -0.46145E-03  5374   0.379E-02    0.406E-01
RMM:   8    -0.233396743563E+04    0.17061E-02   -0.16453E-03  5181   0.179E-02    0.113E-01
RMM:   9    -0.233396738714E+04    0.48492E-04   -0.32388E-04  3835   0.102E-02    0.426E-02
RMM:  10    -0.233396748054E+04   -0.93395E-04   -0.13092E-04  3504   0.810E-03    0.310E-02
RMM:  11    -0.233396756027E+04   -0.79737E-04   -0.45617E-05  3174   0.578E-03    0.182E-02
RMM:  12    -0.233396764692E+04   -0.86648E-04   -0.30379E-05  3076   0.509E-03    0.111E-02
RMM:  13    -0.233396770854E+04   -0.61621E-04   -0.18636E-05  2962   0.454E-03    0.662E-03
RMM:  14    -0.233396774069E+04   -0.32147E-04   -0.96520E-06  2877   0.371E-03    0.422E-03
RMM:  15    -0.233396776134E+04   -0.20651E-04   -0.70598E-06  2850   0.294E-03    0.264E-03
RMM:  16    -0.233396776818E+04   -0.68386E-05   -0.32155E-06  2617   0.244E-03
   7 F= -.23553833E+04 E0= -.23553832E+04  d E =-.444504E+00  mag=     3.0000
       N       E                     dE             d eps       ncg     rms          rms(c)
DAV:   1    -0.233394675336E+04    0.21008E-01   -0.13260E+00  4792   0.859E-01    0.434E-01
RMM:   2    -0.233398869974E+04   -0.41946E-01   -0.32925E-01  6498   0.243E-01    0.109E+00
RMM:   3    -0.233397838973E+04    0.10310E-01   -0.41006E-02  6133   0.104E-01    0.255E-01
RMM:   4    -0.233397809696E+04    0.29277E-03   -0.41626E-03  5056   0.256E-02    0.165E-01
RMM:   5    -0.233397802870E+04    0.68264E-04   -0.85872E-04  3819   0.144E-02    0.170E-01
RMM:   6    -0.233397780836E+04    0.22034E-03   -0.75938E-04  4935   0.142E-02    0.128E-01
RMM:   7    -0.233397773213E+04    0.76228E-04   -0.28820E-04  3103   0.110E-02    0.912E-02
RMM:   8    -0.233397765100E+04    0.81128E-04   -0.74206E-05  2977   0.528E-03    0.187E-02
RMM:   9    -0.233397764992E+04    0.10840E-05   -0.18762E-05  2971   0.338E-03
   8 F= -.23553932E+04 E0= -.23553932E+04  d E =-.454472E+00  mag=     3.0000
       N       E                     dE             d eps       ncg     rms          rms(c)
DAV:   1    -0.233397905567E+04   -0.14047E-02   -0.72515E+00  4560   0.214E+00    0.905E-01
RMM:   2    -0.233415805599E+04   -0.17900E+00   -0.16276E+00  6555   0.559E-01    0.169E+00
RMM:   3    -0.233414328597E+04    0.14770E-01   -0.18256E-01  6293   0.226E-01    0.722E-01
RMM:   4    -0.233413899284E+04    0.42931E-02   -0.17715E-02  5867   0.532E-02    0.339E-01
RMM:   5    -0.233413893834E+04    0.54495E-04   -0.31030E-03  5576   0.245E-02    0.376E-01
RMM:   6    -0.233413750020E+04    0.14381E-02   -0.24124E-03  5457   0.237E-02    0.163E-01
RMM:   7    -0.233413766408E+04   -0.16389E-03   -0.15388E-03  5068   0.201E-02    0.174E-01
RMM:   8    -0.233413729823E+04    0.36585E-03   -0.42493E-04  3525   0.105E-02    0.455E-02
RMM:   9    -0.233413728236E+04    0.15870E-04   -0.62074E-05  2999   0.577E-03    0.214E-02
RMM:  10    -0.233413729405E+04   -0.11690E-04   -0.33992E-05  3014   0.410E-03    0.106E-02
RMM:  11    -0.233413730912E+04   -0.15064E-04   -0.10152E-05  2953   0.351E-03    0.750E-03
RMM:  12    -0.233413732478E+04   -0.15660E-04   -0.67065E-06  2890   0.252E-03    0.449E-03
RMM:  13    -0.233413733719E+04   -0.12412E-04   -0.38320E-06  2811   0.248E-03    0.281E-03
RMM:  14    -0.233413734306E+04   -0.58676E-05   -0.25168E-06  2592   0.179E-03
   9 F= -.23555544E+04 E0= -.23555544E+04  d E =-.161211E+00  mag=     3.0000
       N       E                     dE             d eps       ncg     rms          rms(c)
DAV:   1    -0.233389202976E+04    0.24531E+00   -0.15227E+01  4536   0.313E+00    0.131E+00
RMM:   2    -0.233426793849E+04   -0.37591E+00   -0.34607E+00  6528   0.826E-01    0.237E+00
RMM:   3    -0.233424071241E+04    0.27226E-01   -0.38900E-01  6304   0.332E-01    0.109E+00
RMM:   4    -0.233423087630E+04    0.98361E-02   -0.38334E-02  6078   0.784E-02    0.534E-01
RMM:   5    -0.233422994018E+04    0.93612E-03   -0.67656E-03  5894   0.353E-02    0.517E-01
RMM:   6    -0.233422715354E+04    0.27866E-02   -0.51834E-03  5557   0.341E-02    0.241E-01
RMM:   7    -0.233422743243E+04   -0.27890E-03   -0.33685E-03  5409   0.293E-02    0.254E-01
RMM:   8    -0.233422663152E+04    0.80091E-03   -0.90042E-04  4467   0.149E-02    0.619E-02
RMM:   9    -0.233422658722E+04    0.44300E-04   -0.12672E-04  3103   0.733E-03    0.284E-02
RMM:  10    -0.233422659201E+04   -0.47854E-05   -0.57178E-05  3082   0.525E-03
  10 F= -.23556461E+04 E0= -.23556461E+04  d E =-.252865E+00  mag=     3.0000
       N       E                     dE             d eps       ncg     rms          rms(c)
DAV:   1    -0.233418631735E+04    0.40270E-01   -0.73252E+00  4632   0.232E+00    0.936E-01
RMM:   2    -0.233434567438E+04   -0.15936E+00   -0.15821E+00  6422   0.605E-01    0.114E+00
RMM:   3    -0.233434783316E+04   -0.21588E-02   -0.18803E-01  6286   0.250E-01    0.814E-01
RMM:   4    -0.233434257482E+04    0.52583E-02   -0.18768E-02  5957   0.583E-02    0.458E-01
RMM:   5    -0.233434131663E+04    0.12582E-02   -0.37853E-03  5499   0.285E-02    0.359E-01
RMM:   6    -0.233434004517E+04    0.12715E-02   -0.24734E-03  5593   0.260E-02    0.187E-01
RMM:   7    -0.233434004774E+04   -0.25731E-05   -0.18851E-03  5157   0.229E-02    0.178E-01
RMM:   8    -0.233433967493E+04    0.37281E-03   -0.50629E-04  4738   0.120E-02    0.378E-02
RMM:   9    -0.233433964995E+04    0.24979E-04   -0.61248E-05  2974   0.689E-03    0.215E-02
RMM:  10    -0.233433964114E+04    0.88115E-05   -0.41565E-05  3019   0.434E-03
  11 F= -.23557614E+04 E0= -.23557614E+04  d E =-.115301E+00  mag=     3.0000
       N       E                     dE             d eps       ncg     rms          rms(c)
DAV:   1    -0.233415996850E+04    0.17968E+00   -0.11054E+01  4524   0.284E+00    0.114E+00
RMM:   2    -0.233439769217E+04   -0.23772E+00   -0.23848E+00  6393   0.752E-01    0.132E+00
RMM:   3    -0.233440329270E+04   -0.56005E-02   -0.28584E-01  6257   0.310E-01    0.101E+00
RMM:   4    -0.233439520091E+04    0.80918E-02   -0.28466E-02  6034   0.716E-02    0.559E-01
RMM:   5    -0.233439320262E+04    0.19983E-02   -0.57945E-03  5735   0.354E-02    0.432E-01
RMM:   6    -0.233439143337E+04    0.17692E-02   -0.38101E-03  5647   0.317E-02    0.242E-01
RMM:   7    -0.233439126150E+04    0.17188E-03   -0.28174E-03  5424   0.275E-02    0.202E-01
RMM:   8    -0.233439077087E+04    0.49063E-03   -0.73120E-04  5058   0.142E-02    0.473E-02
RMM:   9    -0.233439073101E+04    0.39859E-04   -0.89294E-05  3004   0.826E-03    0.267E-02
RMM:  10    -0.233439071741E+04    0.13607E-04   -0.63650E-05  3109   0.518E-03    0.843E-03
RMM:  11    -0.233439071695E+04    0.45511E-06   -0.12127E-05  2963   0.394E-03
  12 F= -.23558153E+04 E0= -.23558153E+04  d E =-.169221E+00  mag=     3.0000
       N       E                     dE             d eps       ncg     rms          rms(c)
DAV:   1    -0.233427226920E+04    0.11845E+00   -0.95716E+00  4528   0.263E+00    0.110E+00
RMM:   2    -0.233447327061E+04   -0.20100E+00   -0.19775E+00  6335   0.669E-01    0.139E+00
RMM:   3    -0.233447548909E+04   -0.22185E-02   -0.23200E-01  6144   0.282E-01    0.105E+00
RMM:   4    -0.233446617417E+04    0.93149E-02   -0.23782E-02  5971   0.691E-02    0.510E-01
RMM:   5    -0.233446410755E+04    0.20666E-02   -0.54625E-03  5754   0.357E-02    0.371E-01
RMM:   6    -0.233446329622E+04    0.81134E-03   -0.39650E-03  5456   0.311E-02    0.303E-01
RMM:   7    -0.233446236005E+04    0.93617E-03   -0.21089E-03  5312   0.254E-02    0.128E-01
RMM:   8    -0.233446219538E+04    0.16467E-03   -0.41550E-04  4614   0.114E-02    0.360E-02
RMM:   9    -0.233446217026E+04    0.25116E-04   -0.59964E-05  3066   0.832E-03    0.200E-02
RMM:  10    -0.233446216071E+04    0.95533E-05   -0.49397E-05  3113   0.504E-03
  13 F= -.23558895E+04 E0= -.23558895E+04  d E =-.742289E-01  mag=     3.0000
       N       E                     dE             d eps       ncg     rms          rms(c)
DAV:   1    -0.233441631808E+04    0.45852E-01   -0.27728E+00  4592   0.142E+00    0.583E-01
RMM:   2    -0.233447280766E+04   -0.56490E-01   -0.56541E-01  6342   0.359E-01    0.684E-01
RMM:   3    -0.233447544976E+04   -0.26421E-02   -0.66203E-02  6133   0.149E-01    0.610E-01
RMM:   4    -0.233447207190E+04    0.33779E-02   -0.67983E-03  5693   0.374E-02    0.253E-01
RMM:   5    -0.233447162190E+04    0.45000E-03   -0.15861E-03  5235   0.201E-02    0.202E-01
RMM:   6    -0.233447138669E+04    0.23521E-03   -0.11720E-03  5164   0.174E-02    0.168E-01
RMM:   7    -0.233447110181E+04    0.28488E-03   -0.62981E-04  4452   0.142E-02    0.697E-02
RMM:   8    -0.233447105252E+04    0.49281E-04   -0.11972E-04  3500   0.701E-03    0.193E-02
RMM:   9    -0.233447104574E+04    0.67857E-05   -0.18119E-05  2980   0.521E-03
  14 F= -.23559000E+04 E0= -.23559000E+04  d E =-.846428E-01  mag=     3.0000
       N       E                     dE             d eps       ncg     rms          rms(c)
DAV:   1    -0.233437378934E+04    0.97263E-01   -0.72820E+00  4524   0.208E+00    0.894E-01
RMM:   2    -0.233453268852E+04   -0.15890E+00   -0.16385E+00  6599   0.558E-01    0.807E-01
RMM:   3    -0.233454725218E+04   -0.14564E-01   -0.18631E-01  6349   0.223E-01    0.871E-01
RMM:   4    -0.233453988366E+04    0.73685E-02   -0.18609E-02  6070   0.548E-02    0.377E-01
RMM:   5    -0.233453904214E+04    0.84152E-03   -0.31705E-03  5407   0.229E-02    0.292E-01
RMM:   6    -0.233453851521E+04    0.52694E-03   -0.20208E-03  5115   0.207E-02    0.229E-01
RMM:   7    -0.233453817502E+04    0.34018E-03   -0.14818E-03  5130   0.179E-02    0.152E-01
RMM:   8    -0.233453794715E+04    0.22787E-03   -0.40992E-04  4475   0.109E-02    0.360E-02
RMM:   9    -0.233453792950E+04    0.17651E-04   -0.55979E-05  3075   0.622E-03    0.233E-02
RMM:  10    -0.233453791761E+04    0.11892E-04   -0.40103E-05  2958   0.463E-03    0.808E-03
RMM:  11    -0.233453791658E+04    0.10219E-05   -0.10112E-05  2957   0.322E-03
  15 F= -.23559692E+04 E0= -.23559692E+04  d E =-.692849E-01  mag=     3.0000
       N       E                     dE             d eps       ncg     rms          rms(c)
DAV:   1    -0.233388870891E+04    0.64921E+00   -0.30545E+01  4520   0.426E+00    0.186E+00
RMM:   2    -0.233459240768E+04   -0.70370E+00   -0.71539E+00  6606   0.116E+00    0.199E+00
RMM:   3    -0.233463843883E+04   -0.46031E-01   -0.80653E-01  6339   0.461E-01    0.192E+00
RMM:   4    -0.233460410199E+04    0.34337E-01   -0.79452E-02  6244   0.113E-01    0.777E-01
RMM:   5    -0.233459978646E+04    0.43155E-02   -0.13686E-02  5966   0.479E-02    0.590E-01
RMM:   6    -0.233459725616E+04    0.25303E-02   -0.88784E-03  5739   0.432E-02    0.445E-01
RMM:   7    -0.233459613425E+04    0.11219E-02   -0.56923E-03  5884   0.336E-02    0.331E-01
RMM:   8    -0.233459509818E+04    0.10361E-02   -0.17654E-03  5454   0.206E-02    0.820E-02
RMM:   9    -0.233459501144E+04    0.86739E-04   -0.27279E-04  3779   0.108E-02    0.480E-02
RMM:  10    -0.233459496053E+04    0.50909E-04   -0.14526E-04  3278   0.801E-03    0.171E-02
RMM:  11    -0.233459495355E+04    0.69797E-05   -0.35786E-05  3033   0.509E-03
  16 F= -.23560315E+04 E0= -.23560315E+04  d E =-.131543E+00  mag=     3.0000
       N       E                     dE             d eps       ncg     rms          rms(c)
DAV:   1    -0.233443853829E+04    0.15642E+00   -0.10095E+01  4528   0.251E+00    0.105E+00
RMM:   2    -0.233465496419E+04   -0.21643E+00   -0.22469E+00  6542   0.664E-01    0.882E-01
RMM:   3    -0.233468298544E+04   -0.28021E-01   -0.26247E-01  6379   0.267E-01    0.117E+00
RMM:   4    -0.233466923077E+04    0.13755E-01   -0.26270E-02  6195   0.648E-02    0.433E-01
RMM:   5    -0.233466813245E+04    0.10983E-02   -0.44551E-03  5503   0.265E-02    0.358E-01
RMM:   6    -0.233466703225E+04    0.11002E-02   -0.21227E-03  5476   0.231E-02    0.209E-01
RMM:   7    -0.233466688537E+04    0.14688E-03   -0.19191E-03  5317   0.212E-02    0.185E-01
RMM:   8    -0.233466650375E+04    0.38162E-03   -0.62474E-04  5170   0.137E-02    0.370E-02
RMM:   9    -0.233466647296E+04    0.30787E-04   -0.77699E-05  3080   0.739E-03    0.239E-02
RMM:  10    -0.233466645984E+04    0.13122E-04   -0.45909E-05  2971   0.510E-03    0.864E-03
RMM:  11    -0.233466645853E+04    0.13076E-05   -0.10956E-05  2943   0.355E-03
  17 F= -.23561060E+04 E0= -.23561060E+04  d E =-.745372E-01  mag=     3.0000
       N       E                     dE             d eps       ncg     rms          rms(c)
DAV:   1    -0.233415075370E+04    0.51571E+00   -0.24178E+01  4520   0.390E+00    0.163E+00
RMM:   2    -0.233467223523E+04   -0.52148E+00   -0.54670E+00  6550   0.104E+00    0.123E+00
RMM:   3    -0.233474261771E+04   -0.70382E-01   -0.64226E-01  6373   0.416E-01    0.173E+00
RMM:   4    -0.233471102463E+04    0.31593E-01   -0.62029E-02  6369   0.993E-02    0.611E-01
RMM:   5    -0.233470990710E+04    0.11175E-02   -0.10006E-02  5770   0.386E-02    0.596E-01
RMM:   6    -0.233470666433E+04    0.32428E-02   -0.46785E-03  5785   0.336E-02    0.306E-01
RMM:   7    -0.233470684275E+04   -0.17842E-03   -0.49392E-03  5830   0.324E-02    0.344E-01
RMM:   8    -0.233470550741E+04    0.13353E-02   -0.18758E-03  5798   0.223E-02    0.693E-02
RMM:   9    -0.233470541704E+04    0.90364E-04   -0.26566E-04  3670   0.947E-03    0.461E-02
RMM:  10    -0.233470536678E+04    0.50268E-04   -0.13762E-04  3239   0.805E-03    0.174E-02
RMM:  11    -0.233470536066E+04    0.61161E-05   -0.36688E-05  3041   0.512E-03
  18 F= -.23561498E+04 E0= -.23561498E+04  d E =-.118315E+00  mag=     3.0000
       N       E                     dE             d eps       ncg     rms          rms(c)
DAV:   1    -0.233439333324E+04    0.31203E+00   -0.14873E+01  4528   0.299E+00    0.136E+00
RMM:   2    -0.233476541022E+04   -0.37208E+00   -0.38228E+00  6585   0.841E-01    0.131E+00
RMM:   3    -0.233481035243E+04   -0.44942E-01   -0.46678E-01  6365   0.347E-01    0.154E+00
RMM:   4    -0.233478765846E+04    0.22694E-01   -0.43131E-02  6212   0.821E-02    0.556E-01
RMM:   5    -0.233478570897E+04    0.19495E-02   -0.65851E-03  5692   0.308E-02    0.439E-01
RMM:   6    -0.233478368122E+04    0.20278E-02   -0.27235E-03  5609   0.263E-02    0.197E-01
RMM:   7    -0.233478390370E+04   -0.22248E-03   -0.29057E-03  5519   0.271E-02    0.226E-01
RMM:   8    -0.233478327852E+04    0.62518E-03   -0.89200E-04  5046   0.155E-02    0.549E-02
RMM:   9    -0.233478321287E+04    0.65645E-04   -0.12902E-04  3155   0.642E-03    0.304E-02
RMM:  10    -0.233478319426E+04    0.18617E-04   -0.66295E-05  2960   0.576E-03    0.104E-02
RMM:  11    -0.233478319247E+04    0.17847E-05   -0.15677E-05  2970   0.368E-03
  19 F= -.23562301E+04 E0= -.23562301E+04  d E =-.802984E-01  mag=     3.0000
       N       E                     dE             d eps       ncg     rms          rms(c)
DAV:   1    -0.233424301944E+04    0.54017E+00   -0.21725E+01  4520   0.362E+00    0.163E+00
RMM:   2    -0.233478882960E+04   -0.54581E+00   -0.56290E+00  6585   0.103E+00    0.153E+00
RMM:   3    -0.233485794239E+04   -0.69113E-01   -0.68431E-01  6368   0.419E-01    0.187E+00
RMM:   4    -0.233482346591E+04    0.34476E-01   -0.62611E-02  6283   0.993E-02    0.647E-01
RMM:   5    -0.233482107471E+04    0.23912E-02   -0.96566E-03  5833   0.370E-02    0.540E-01
RMM:   6    -0.233481801419E+04    0.30605E-02   -0.40748E-03  5730   0.318E-02    0.245E-01
RMM:   7    -0.233481833026E+04   -0.31607E-03   -0.43202E-03  5629   0.324E-02    0.281E-01
RMM:   8    -0.233481737374E+04    0.95652E-03   -0.14047E-03  5498   0.192E-02    0.707E-02
RMM:   9    -0.233481726830E+04    0.10544E-03   -0.20563E-04  3402   0.758E-03    0.396E-02
RMM:  10    -0.233481723488E+04    0.33420E-04   -0.10630E-04  2996   0.719E-03    0.130E-02
RMM:  11    -0.233481723119E+04    0.36827E-05   -0.23595E-05  2992   0.432E-03
  20 F= -.23562673E+04 E0= -.23562673E+04  d E =-.117450E+00  mag=     3.0000
       N       E                     dE             d eps       ncg     rms          rms(c)
DAV:   1    -0.233451914080E+04    0.29809E+00   -0.14204E+01  4528   0.296E+00    0.136E+00
RMM:   2    -0.233489977051E+04   -0.38063E+00   -0.38604E+00  6584   0.861E-01    0.143E+00
RMM:   3    -0.233492399018E+04   -0.24220E-01   -0.43404E-01  6375   0.343E-01    0.114E+00
RMM:   4    -0.233490937858E+04    0.14612E-01   -0.38710E-02  6172   0.786E-02    0.349E-01
RMM:   5    -0.233490809101E+04    0.12876E-02   -0.40252E-03  5347   0.313E-02    0.225E-01
RMM:   6    -0.233490959106E+04   -0.15000E-02   -0.35691E-03  5666   0.301E-02    0.427E-01
RMM:   7    -0.233490766805E+04    0.19230E-02   -0.15032E-03  5262   0.200E-02    0.107E-01
RMM:   8    -0.233490757623E+04    0.91822E-04   -0.35308E-04  3247   0.910E-03    0.671E-02
RMM:   9    -0.233490750732E+04    0.68909E-04   -0.93753E-05  3067   0.623E-03    0.304E-02
RMM:  10    -0.233490749307E+04    0.14258E-04   -0.57055E-05  2945   0.530E-03    0.867E-03
RMM:  11    -0.233490749322E+04   -0.15681E-06   -0.13018E-05  2951   0.366E-03
  21 F= -.23563587E+04 E0= -.23563587E+04  d E =-.914680E-01  mag=     3.0000
       N       E                     dE             d eps       ncg     rms          rms(c)
DAV:   1    -0.233405231009E+04    0.85518E+00   -0.32544E+01  4520   0.451E+00    0.207E+00
RMM:   2    -0.233493766684E+04   -0.88536E+00   -0.90236E+00  6583   0.133E+00    0.205E+00
RMM:   3    -0.233500074025E+04   -0.63073E-01   -0.10379E+00  6366   0.532E-01    0.173E+00
RMM:   4    -0.233496633165E+04    0.34409E-01   -0.89095E-02  6207   0.120E-01    0.568E-01
RMM:   5    -0.233496579752E+04    0.53413E-03   -0.10812E-02  5888   0.464E-02    0.583E-01
RMM:   6    -0.233496410713E+04    0.16904E-02   -0.66691E-03  5771   0.364E-02    0.487E-01
RMM:   7    -0.233496328861E+04    0.81852E-03   -0.57785E-03  5652   0.378E-02    0.358E-01
RMM:   8    -0.233496166080E+04    0.16278E-02   -0.16296E-03  5300   0.214E-02    0.706E-02
RMM:   9    -0.233496155914E+04    0.10166E-03   -0.24901E-04  3681   0.798E-03    0.499E-02
RMM:  10    -0.233496151629E+04    0.42852E-04   -0.13017E-04  3080   0.835E-03    0.140E-02
RMM:  11    -0.233496151433E+04    0.19540E-05   -0.32146E-05  3033   0.473E-03
  22 F= -.23564148E+04 E0= -.23564148E+04  d E =-.147546E+00  mag=     3.0000
       N       E                     dE             d eps       ncg     rms          rms(c)
DAV:   1    -0.233456536426E+04    0.39615E+00   -0.19404E+01  4528   0.352E+00    0.160E+00
RMM:   2    -0.233509049268E+04   -0.52513E+00   -0.49690E+00  6562   0.101E+00    0.238E+00
RMM:   3    -0.233506581864E+04    0.24674E-01   -0.56011E-01  6405   0.397E-01    0.114E+00
RMM:   4    -0.233505957496E+04    0.62437E-02   -0.54614E-02  6070   0.906E-02    0.836E-01
RMM:   5    -0.233505309870E+04    0.64763E-02   -0.91411E-03  5767   0.394E-02    0.427E-01
RMM:   6    -0.233505137640E+04    0.17223E-02   -0.48833E-03  5341   0.351E-02    0.264E-01
RMM:   7    -0.233505143837E+04   -0.61974E-04   -0.35363E-03  5226   0.331E-02    0.247E-01
RMM:   8    -0.233505063385E+04    0.80453E-03   -0.88903E-04  4934   0.151E-02    0.524E-02
RMM:   9    -0.233505058222E+04    0.51626E-04   -0.11411E-04  3025   0.802E-03    0.252E-02
RMM:  10    -0.233505057391E+04    0.83102E-05   -0.57508E-05  3062   0.537E-03
  23 F= -.23565063E+04 E0= -.23565063E+04  d E =-.914870E-01  mag=     3.0000
       N       E                     dE             d eps       ncg     rms          rms(c)
DAV:   1    -0.233475673439E+04    0.29385E+00   -0.12618E+01  4544   0.284E+00    0.129E+00
RMM:   2    -0.233509422090E+04   -0.33749E+00   -0.32087E+00  6552   0.809E-01    0.188E+00
RMM:   3    -0.233508062885E+04    0.13592E-01   -0.35471E-01  6393   0.316E-01    0.921E-01
RMM:   4    -0.233507642842E+04    0.42004E-02   -0.34833E-02  5982   0.725E-02    0.672E-01
RMM:   5    -0.233507235859E+04    0.40698E-02   -0.58124E-03  5532   0.318E-02    0.346E-01
RMM:   6    -0.233507111037E+04    0.12482E-02   -0.32008E-03  5243   0.290E-02    0.191E-01
RMM:   7    -0.233507125220E+04   -0.14183E-03   -0.21152E-03  4895   0.269E-02    0.193E-01
RMM:   8    -0.233507074402E+04    0.50818E-03   -0.53849E-04  4318   0.120E-02    0.418E-02
RMM:   9    -0.233507071094E+04    0.33080E-04   -0.69258E-05  2977   0.678E-03    0.206E-02
RMM:  10    -0.233507070711E+04    0.38287E-05   -0.42789E-05  3015   0.475E-03
  24 F= -.23565285E+04 E0= -.23565285E+04  d E =-.113732E+00  mag=     3.0000
       N       E                     dE             d eps       ncg     rms          rms(c)
DAV:   1    -0.233472798895E+04    0.34272E+00   -0.17188E+01  4520   0.350E+00    0.152E+00
RMM:   2    -0.233514227152E+04   -0.41428E+00   -0.40618E+00  6369   0.933E-01    0.191E+00
RMM:   3    -0.233514423617E+04   -0.19646E-02   -0.45937E-01  6259   0.385E-01    0.124E+00
RMM:   4    -0.233513177774E+04    0.12458E-01   -0.42863E-02  5937   0.898E-02    0.718E-01
RMM:   5    -0.233512826619E+04    0.35116E-02   -0.79511E-03  5666   0.413E-02    0.486E-01
RMM:   6    -0.233512545882E+04    0.28074E-02   -0.50066E-03  5112   0.391E-02    0.158E-01
RMM:   7    -0.233512532373E+04    0.13509E-03   -0.15625E-03  4889   0.279E-02    0.739E-02
RMM:   8    -0.233512533349E+04   -0.97566E-05   -0.35369E-04  4250   0.114E-02    0.776E-02
RMM:   9    -0.233512524222E+04    0.91271E-04   -0.10904E-04  3099   0.812E-03    0.277E-02
RMM:  10    -0.233512522635E+04    0.15866E-04   -0.49794E-05  3060   0.528E-03    0.999E-03
RMM:  11    -0.233512522314E+04    0.32094E-05   -0.10470E-05  2918   0.412E-03
  25 F= -.23565872E+04 E0= -.23565872E+04  d E =-.586530E-01  mag=     3.0000
       N       E                     dE             d eps       ncg     rms          rms(c)
DAV:   1    -0.233510160991E+04    0.23616E-01   -0.11005E+00  4776   0.884E-01    0.377E-01
RMM:   2    -0.233512700653E+04   -0.25397E-01   -0.25324E-01  6357   0.231E-01    0.433E-01
RMM:   3    -0.233512798252E+04   -0.97599E-03   -0.28274E-02  6134   0.970E-02    0.326E-01
RMM:   4    -0.233512702531E+04    0.95721E-03   -0.27000E-03  5232   0.231E-02    0.170E-01
RMM:   5    -0.233512685503E+04    0.17028E-03   -0.50840E-04  3296   0.112E-02    0.128E-01
RMM:   6    -0.233512665548E+04    0.19955E-03   -0.33572E-04  4420   0.115E-02    0.357E-02
RMM:   7    -0.233512664823E+04    0.72511E-05   -0.90197E-05  3302   0.843E-03
  26 F= -.23565897E+04 E0= -.23565897E+04  d E =-.611533E-01  mag=     3.0000
       N       E                     dE             d eps       ncg     rms          rms(c)
DAV:   1    -0.233498798746E+04    0.13867E+00   -0.85963E+00  4520   0.245E+00    0.988E-01
RMM:   2    -0.233516506611E+04   -0.17708E+00   -0.18424E+00  6449   0.610E-01    0.788E-01
RMM:   3    -0.233518406244E+04   -0.18996E-01   -0.21231E-01  6294   0.256E-01    0.901E-01
RMM:   4    -0.233517570606E+04    0.83564E-02   -0.19076E-02  6262   0.598E-02    0.349E-01
RMM:   5    -0.233517628636E+04   -0.58031E-03   -0.35509E-03  5422   0.240E-02    0.435E-01
RMM:   6    -0.233517445531E+04    0.18311E-02   -0.24862E-03  5389   0.243E-02    0.159E-01
RMM:   7    -0.233517455627E+04   -0.10096E-03   -0.13073E-03  5230   0.181E-02    0.164E-01
RMM:   8    -0.233517422006E+04    0.33621E-03   -0.43210E-04  3694   0.108E-02    0.367E-02
RMM:   9    -0.233517419864E+04    0.21419E-04   -0.52230E-05  3058   0.527E-03    0.239E-02
RMM:  10    -0.233517418986E+04    0.87825E-05   -0.34601E-05  2926   0.437E-03
  27 F= -.23566404E+04 E0= -.23566404E+04  d E =-.506736E-01  mag=     3.0000
       N       E                     dE             d eps       ncg     rms          rms(c)
DAV:   1    -0.233504481723E+04    0.12938E+00   -0.66002E+00  4524   0.215E+00    0.861E-01
RMM:   2    -0.233518022749E+04   -0.13541E+00   -0.14047E+00  6427   0.532E-01    0.705E-01
RMM:   3    -0.233519476843E+04   -0.14541E-01   -0.16141E-01  6277   0.223E-01    0.812E-01
RMM:   4    -0.233518813795E+04    0.66305E-02   -0.14695E-02  6167   0.526E-02    0.324E-01
RMM:   5    -0.233518834171E+04   -0.20376E-03   -0.27751E-03  5297   0.215E-02    0.366E-01
RMM:   6    -0.233518704075E+04    0.13010E-02   -0.19507E-03  5335   0.219E-02    0.143E-01
RMM:   7    -0.233518715395E+04   -0.11319E-03   -0.11461E-03  4978   0.168E-02    0.159E-01
RMM:   8    -0.233518683328E+04    0.32066E-03   -0.36043E-04  3835   0.985E-03    0.286E-02
RMM:   9    -0.233518681860E+04    0.14680E-04   -0.43523E-05  3014   0.513E-03    0.208E-02
RMM:  10    -0.233518681201E+04    0.65955E-05   -0.29215E-05  2927   0.399E-03
  28 F= -.23566558E+04 E0= -.23566558E+04  d E =-.661350E-01  mag=     3.0000
       N       E                     dE             d eps       ncg     rms          rms(c)
DAV:   1    -0.233511311829E+04    0.73700E-01   -0.66152E+00  4520   0.213E+00    0.810E-01
RMM:   2    -0.233522743243E+04   -0.11431E+00   -0.11913E+00  6512   0.512E-01    0.576E-01
RMM:   3    -0.233523988945E+04   -0.12457E-01   -0.12953E-01  6223   0.202E-01    0.723E-01
RMM:   4    -0.233523470106E+04    0.51884E-02   -0.12887E-02  6186   0.491E-02    0.322E-01
RMM:   5    -0.233523454054E+04    0.16052E-03   -0.24652E-03  5214   0.203E-02    0.308E-01
RMM:   6    -0.233523393828E+04    0.60226E-03   -0.16894E-03  5116   0.209E-02    0.202E-01
RMM:   7    -0.233523376319E+04    0.17508E-03   -0.11395E-03  4789   0.162E-02    0.147E-01
RMM:   8    -0.233523351099E+04    0.25221E-03   -0.26380E-04  3809   0.932E-03    0.240E-02
RMM:   9    -0.233523350231E+04    0.86795E-05   -0.32936E-05  2984   0.495E-03
  29 F= -.23567048E+04 E0= -.23567048E+04  d E =-.489422E-01  mag=     3.0000
       N       E                     dE             d eps       ncg     rms          rms(c)
DAV:   1    -0.233472534018E+04    0.50817E+00   -0.29136E+01  4520   0.450E+00    0.172E+00
RMM:   2    -0.233523756503E+04   -0.51222E+00   -0.53468E+00  6493   0.110E+00    0.122E+00
RMM:   3    -0.233529168966E+04   -0.54125E-01   -0.60692E-01  6256   0.433E-01    0.142E+00
RMM:   4    -0.233527116209E+04    0.20528E-01   -0.56072E-02  6481   0.103E-01    0.692E-01
RMM:   5    -0.233526982776E+04    0.13343E-02   -0.10271E-02  5815   0.409E-02    0.611E-01
RMM:   6    -0.233526781510E+04    0.20127E-02   -0.71728E-03  5712   0.416E-02    0.439E-01
RMM:   7    -0.233526743020E+04    0.38491E-03   -0.53446E-03  5791   0.322E-02    0.373E-01
RMM:   8    -0.233526579056E+04    0.16396E-02   -0.16468E-03  5647   0.204E-02    0.619E-02
RMM:   9    -0.233526573510E+04    0.55466E-04   -0.18208E-04  3210   0.759E-03    0.441E-02
RMM:  10    -0.233526570110E+04    0.34002E-04   -0.87674E-05  3012   0.614E-03    0.151E-02
RMM:  11    -0.233526569939E+04    0.17022E-05   -0.27963E-05  3004   0.440E-03
  30 F= -.23567420E+04 E0= -.23567420E+04  d E =-.861480E-01  mag=     3.0000
       N       E                     dE             d eps       ncg     rms          rms(c)
DAV:   1    -0.233521855229E+04    0.47149E-01   -0.46439E+00  4544   0.178E+00    0.656E-01
RMM:   2    -0.233529832847E+04   -0.79776E-01   -0.82610E-01  6544   0.427E-01    0.512E-01
RMM:   3    -0.233530736744E+04   -0.90390E-02   -0.88012E-02  6170   0.162E-01    0.682E-01
RMM:   4    -0.233530271889E+04    0.46486E-02   -0.87307E-03  5837   0.399E-02    0.260E-01
RMM:   5    -0.233530262839E+04    0.90499E-04   -0.18248E-03  4623   0.180E-02    0.236E-01
RMM:   6    -0.233530218662E+04    0.44177E-03   -0.12256E-03  5025   0.173E-02    0.154E-01
RMM:   7    -0.233530213001E+04    0.56603E-04   -0.75354E-04  4052   0.134E-02    0.118E-01
RMM:   8    -0.233530196594E+04    0.16407E-03   -0.17355E-04  3213   0.782E-03    0.231E-02
RMM:   9    -0.233530195811E+04    0.78290E-05   -0.25054E-05  2973   0.437E-03
  31 F= -.23567800E+04 E0= -.23567800E+04  d E =-.380632E-01  mag=     3.0000
       N       E                     dE             d eps       ncg     rms          rms(c)
DAV:   1    -0.233458977771E+04    0.71219E+00   -0.41478E+01  4520   0.535E+00    0.201E+00
RMM:   2    -0.233533794279E+04   -0.74817E+00   -0.76766E+00  6564   0.133E+00    0.177E+00
RMM:   3    -0.233540459918E+04   -0.66656E-01   -0.85339E-01  6275   0.500E-01    0.197E+00
RMM:   4    -0.233536824320E+04    0.36356E-01   -0.81388E-02  6335   0.120E-01    0.901E-01
RMM:   5    -0.233536292134E+04    0.53219E-02   -0.15766E-02  6027   0.521E-02    0.609E-01
RMM:   6    -0.233536108550E+04    0.18358E-02   -0.11030E-02  5647   0.489E-02    0.512E-01
RMM:   7    -0.233536020591E+04    0.87959E-03   -0.70631E-03  5863   0.376E-02    0.384E-01
RMM:   8    -0.233535860319E+04    0.16027E-02   -0.19171E-03  5599   0.215E-02    0.966E-02
RMM:   9    -0.233535848663E+04    0.11656E-03   -0.26688E-04  3336   0.926E-03    0.491E-02
RMM:  10    -0.233535846187E+04    0.24757E-04   -0.13710E-04  3161   0.730E-03    0.172E-02
RMM:  11    -0.233535847283E+04   -0.10958E-04   -0.33000E-05  3008   0.475E-03    0.110E-02
RMM:  12    -0.233535848172E+04   -0.88921E-05   -0.83685E-06  2895   0.323E-03
  32 F= -.23568423E+04 E0= -.23568423E+04  d E =-.100330E+00  mag=     3.0000
       N       E                     dE             d eps       ncg     rms          rms(c)
DAV:   1    -0.233536714325E+04   -0.86704E-02   -0.36949E+00  4576   0.158E+00    0.612E-01
RMM:   2    -0.233543077010E+04   -0.63627E-01   -0.59643E-01  6303   0.381E-01    0.896E-01
RMM:   3    -0.233542772881E+04    0.30413E-02   -0.65916E-02  6141   0.149E-01    0.499E-01
RMM:   4    -0.233542577703E+04    0.19518E-02   -0.63313E-03  5271   0.368E-02    0.269E-01
RMM:   5    -0.233542552915E+04    0.24788E-03   -0.17058E-03  5051   0.214E-02    0.232E-01
RMM:   6    -0.233542514329E+04    0.38586E-03   -0.12305E-03  4972   0.198E-02    0.123E-01
RMM:   7    -0.233542504821E+04    0.95083E-04   -0.49246E-04  3607   0.143E-02    0.834E-02
RMM:   8    -0.233542495652E+04    0.91690E-04   -0.82045E-05  3025   0.564E-03    0.190E-02
RMM:   9    -0.233542495602E+04    0.50137E-06   -0.20516E-05  2982   0.363E-03
  33 F= -.23569100E+04 E0= -.23569100E+04  d E =-.676763E-01  mag=     3.0000
       N       E                     dE             d eps       ncg     rms          rms(c)
DAV:   1    -0.233520057340E+04    0.22438E+00   -0.17884E+01  4520   0.347E+00    0.136E+00
RMM:   2    -0.233551948066E+04   -0.31891E+00   -0.29562E+00  6287   0.853E-01    0.204E+00
RMM:   3    -0.233549502255E+04    0.24458E-01   -0.31178E-01  6140   0.326E-01    0.105E+00
RMM:   4    -0.233548742495E+04    0.75976E-02   -0.31184E-02  5392   0.815E-02    0.641E-01
RMM:   5    -0.233548536174E+04    0.20632E-02   -0.81800E-03  5762   0.464E-02    0.493E-01
RMM:   6    -0.233548343014E+04    0.19316E-02   -0.56941E-03  5066   0.421E-02    0.238E-01
RMM:   7    -0.233548334042E+04    0.89714E-04   -0.22950E-03  4621   0.294E-02    0.203E-01
RMM:   8    -0.233548277957E+04    0.56085E-03   -0.50928E-04  4280   0.116E-02    0.458E-02
RMM:   9    -0.233548276068E+04    0.18887E-04   -0.11071E-04  3118   0.707E-03    0.232E-02
RMM:  10    -0.233548276946E+04   -0.87731E-05   -0.33850E-05  3021   0.522E-03
  34 F= -.23569707E+04 E0= -.23569707E+04  d E =-.128426E+00  mag=     3.0000
       N       E                     dE             d eps       ncg     rms          rms(c)
DAV:   1    -0.233546576388E+04    0.16997E-01   -0.50948E+00  4592   0.189E+00    0.721E-01
RMM:   2    -0.233554021864E+04   -0.74455E-01   -0.73310E-01  6211   0.438E-01    0.782E-01
RMM:   3    -0.233554278087E+04   -0.25622E-02   -0.79237E-02  6102   0.172E-01    0.651E-01
RMM:   4    -0.233553894129E+04    0.38396E-02   -0.86699E-03  5751   0.442E-02    0.341E-01
RMM:   5    -0.233553831582E+04    0.62547E-03   -0.22330E-03  5105   0.232E-02    0.247E-01
RMM:   6    -0.233553806920E+04    0.24662E-03   -0.14954E-03  5027   0.210E-02    0.177E-01
RMM:   7    -0.233553773885E+04    0.33036E-03   -0.78803E-04  4297   0.161E-02    0.805E-02
RMM:   8    -0.233553765387E+04    0.84975E-04   -0.95200E-05  3154   0.628E-03    0.211E-02
RMM:   9    -0.233553764805E+04    0.58265E-05   -0.24393E-05  3019   0.441E-03
  35 F= -.23570266E+04 E0= -.23570266E+04  d E =-.558277E-01  mag=     3.0000
       N       E                     dE             d eps       ncg     rms          rms(c)
DAV:   1    -0.233538521562E+04    0.15244E+00   -0.13252E+01  4560   0.305E+00    0.116E+00
RMM:   2    -0.233558023912E+04   -0.19502E+00   -0.19206E+00  6187   0.708E-01    0.126E+00
RMM:   3    -0.233558622512E+04   -0.59860E-02   -0.20885E-01  6083   0.280E-01    0.104E+00
RMM:   4    -0.233557638567E+04    0.98394E-02   -0.22234E-02  5903   0.708E-02    0.548E-01
RMM:   5    -0.233557482566E+04    0.15600E-02   -0.57648E-03  5524   0.365E-02    0.405E-01
RMM:   6    -0.233557405652E+04    0.76914E-03   -0.39043E-03  5103   0.333E-02    0.278E-01
RMM:   7    -0.233557327272E+04    0.78380E-03   -0.21036E-03  4913   0.256E-02    0.136E-01
RMM:   8    -0.233557302146E+04    0.25126E-03   -0.27537E-04  3954   0.949E-03    0.348E-02
RMM:   9    -0.233557300142E+04    0.20041E-04   -0.70708E-05  3108   0.679E-03    0.198E-02
RMM:  10    -0.233557299393E+04    0.74839E-05   -0.32206E-05  3058   0.493E-03
  36 F= -.23570636E+04 E0= -.23570636E+04  d E =-.929017E-01  mag=     3.0000
       N       E                     dE             d eps       ncg     rms          rms(c)
DAV:   1    -0.233552019235E+04    0.52809E-01   -0.64504E+00  4520   0.217E+00    0.855E-01
RMM:   2    -0.233562119488E+04   -0.10100E+00   -0.10343E+00  6153   0.499E-01    0.829E-01
RMM:   3    -0.233563237114E+04   -0.11176E-01   -0.12709E-01  6034   0.212E-01    0.935E-01
RMM:   4    -0.233562412349E+04    0.82476E-02   -0.12178E-02  5813   0.540E-02    0.302E-01
RMM:   5    -0.233562442392E+04   -0.30043E-03   -0.35511E-03  5588   0.291E-02    0.350E-01
RMM:   6    -0.233562328292E+04    0.11410E-02   -0.21819E-03  5552   0.251E-02    0.151E-01
RMM:   7    -0.233562330034E+04   -0.17417E-04   -0.10748E-03  4757   0.178E-02    0.141E-01
RMM:   8    -0.233562301387E+04    0.28647E-03   -0.23809E-04  3457   0.864E-03    0.249E-02
RMM:   9    -0.233562300319E+04    0.10676E-04   -0.40468E-05  3010   0.500E-03    0.127E-02
RMM:  10    -0.233562300141E+04    0.17790E-05   -0.17001E-05  2985   0.374E-03
  37 F= -.23571154E+04 E0= -.23571154E+04  d E =-.518139E-01  mag=     3.0000
       N       E                     dE             d eps       ncg     rms          rms(c)
DAV:   1    -0.233557361577E+04    0.49387E-01   -0.37626E+00  4576   0.166E+00    0.653E-01
RMM:   2    -0.233563235999E+04   -0.58744E-01   -0.60318E-01  6165   0.380E-01    0.627E-01
RMM:   3    -0.233563909518E+04   -0.67352E-02   -0.73627E-02  6021   0.161E-01    0.724E-01
RMM:   4    -0.233563412484E+04    0.49703E-02   -0.71291E-03  5683   0.413E-02    0.228E-01
RMM:   5    -0.233563433354E+04   -0.20870E-03   -0.20911E-03  5356   0.227E-02    0.270E-01
RMM:   6    -0.233563363692E+04    0.69662E-03   -0.12787E-03  5333   0.195E-02    0.113E-01
RMM:   7    -0.233563365020E+04   -0.13278E-04   -0.61451E-04  4181   0.141E-02    0.107E-01
RMM:   8    -0.233563348524E+04    0.16496E-03   -0.13767E-04  3209   0.708E-03    0.191E-02
RMM:   9    -0.233563347981E+04    0.54298E-05   -0.24810E-05  2990   0.437E-03
  38 F= -.23571274E+04 E0= -.23571274E+04  d E =-.637280E-01  mag=     3.0000
       N       E                     dE             d eps       ncg     rms          rms(c)
DAV:   1    -0.233557990629E+04    0.53579E-01   -0.52546E+00  4552   0.198E+00    0.765E-01
RMM:   2    -0.233566603355E+04   -0.86127E-01   -0.84579E-01  6257   0.448E-01    0.962E-01
RMM:   3    -0.233566892664E+04   -0.28931E-02   -0.10438E-01  6091   0.188E-01    0.744E-01
RMM:   4    -0.233566354661E+04    0.53800E-02   -0.93025E-03  5619   0.455E-02    0.238E-01
RMM:   5    -0.233566419021E+04   -0.64360E-03   -0.28346E-03  5384   0.255E-02    0.326E-01
RMM:   6    -0.233566302539E+04    0.11648E-02   -0.16213E-03  5385   0.209E-02    0.119E-01
RMM:   7    -0.233566307356E+04   -0.48173E-04   -0.65711E-04  4524   0.145E-02    0.117E-01
RMM:   8    -0.233566290263E+04    0.17094E-03   -0.14808E-04  3101   0.699E-03    0.222E-02
RMM:   9    -0.233566289718E+04    0.54455E-05   -0.27948E-05  2998   0.427E-03
  39 F= -.23571592E+04 E0= -.23571592E+04  d E =-.318604E-01  mag=     3.0000
       N       E                     dE             d eps       ncg     rms          rms(c)
DAV:   1    -0.233565511177E+04    0.77909E-02   -0.57322E-01  4744   0.657E-01    0.253E-01
RMM:   2    -0.233566447437E+04   -0.93626E-02   -0.91905E-02  6262   0.149E-01    0.316E-01
RMM:   3    -0.233566479351E+04   -0.31914E-03   -0.11101E-02  5717   0.611E-02    0.249E-01
RMM:   4    -0.233566419097E+04    0.60253E-03   -0.10168E-03  3954   0.153E-02    0.782E-02
RMM:   5    -0.233566426621E+04   -0.75239E-04   -0.31983E-04  3361   0.954E-03    0.110E-01
RMM:   6    -0.233566413062E+04    0.13559E-03   -0.19106E-04  3652   0.877E-03    0.378E-02
RMM:   7    -0.233566413692E+04   -0.63027E-05   -0.73250E-05  2968   0.662E-03
  40 F= -.23571613E+04 E0= -.23571613E+04  d E =-.339166E-01  mag=     3.0000
       N       E                     dE             d eps       ncg     rms          rms(c)
DAV:   1    -0.233564701681E+04    0.17114E-01   -0.19422E+00  4560   0.129E+00    0.463E-01
RMM:   2    -0.233567934736E+04   -0.32331E-01   -0.34450E-01  6163   0.300E-01    0.341E-01
RMM:   3    -0.233568262074E+04   -0.32734E-02   -0.38476E-02  6025   0.125E-01    0.393E-01
RMM:   4    -0.233568112160E+04    0.14991E-02   -0.37631E-03  5783   0.305E-02    0.156E-01
RMM:   5    -0.233568118251E+04   -0.60911E-04   -0.10197E-03  5031   0.182E-02    0.167E-01
RMM:   6    -0.233568089995E+04    0.28256E-03   -0.67890E-04  4793   0.148E-02    0.854E-02
RMM:   7    -0.233568094549E+04   -0.45541E-04   -0.23575E-04  3204   0.933E-03    0.106E-01
RMM:   8    -0.233568081899E+04    0.12651E-03   -0.89986E-05  2978   0.651E-03    0.174E-02
RMM:   9    -0.233568081527E+04    0.37151E-05   -0.14069E-05  2953   0.343E-03
  41 F= -.23571791E+04 E0= -.23571791E+04  d E =-.178311E-01  mag=     3.0000
       N       E                     dE             d eps       ncg     rms          rms(c)
DAV:   1    -0.233566730934E+04    0.13510E-01   -0.91912E-01  4624   0.891E-01    0.318E-01
RMM:   2    -0.233568265611E+04   -0.15347E-01   -0.16331E-01  6147   0.207E-01    0.236E-01
RMM:   3    -0.233568416373E+04   -0.15076E-02   -0.17856E-02  5987   0.836E-02    0.269E-01
RMM:   4    -0.233568343881E+04    0.72492E-03   -0.17537E-03  5322   0.210E-02    0.105E-01
RMM:   5    -0.233568345710E+04   -0.18295E-04   -0.49092E-04  4376   0.129E-02    0.110E-01
RMM:   6    -0.233568331914E+04    0.13796E-03   -0.31932E-04  3992   0.107E-02    0.440E-02
RMM:   7    -0.233568333725E+04   -0.18112E-04   -0.78551E-05  2979   0.705E-03    0.620E-02
RMM:   8    -0.233568329739E+04    0.39866E-04   -0.30624E-05  2920   0.462E-03    0.115E-02
RMM:   9    -0.233568329564E+04    0.17446E-05   -0.62458E-06  2928   0.257E-03
  42 F= -.23571824E+04 E0= -.23571824E+04  d E =-.211155E-01  mag=     3.0000
       N       E                     dE             d eps       ncg     rms          rms(c)
DAV:   1    -0.233564545885E+04    0.37839E-01   -0.27345E+00  4528   0.144E+00    0.509E-01
RMM:   2    -0.233569687543E+04   -0.51417E-01   -0.54260E-01  6308   0.349E-01    0.385E-01
RMM:   3    -0.233570185566E+04   -0.49802E-02   -0.58493E-02  6097   0.138E-01    0.453E-01
RMM:   4    -0.233570036470E+04    0.14910E-02   -0.56761E-03  5546   0.315E-02    0.217E-01
RMM:   5    -0.233570012807E+04    0.23663E-03   -0.10641E-03  4511   0.147E-02    0.187E-01
RMM:   6    -0.233569988979E+04    0.23828E-03   -0.82845E-04  4751   0.152E-02    0.121E-01
RMM:   7    -0.233569982153E+04    0.68263E-04   -0.46478E-04  3852   0.124E-02    0.890E-02
RMM:   8    -0.233569971960E+04    0.10192E-03   -0.10737E-04  3163   0.710E-03    0.181E-02
RMM:   9    -0.233569971471E+04    0.48910E-05   -0.13955E-05  2969   0.423E-03
  43 F= -.23571995E+04 E0= -.23571995E+04  d E =-.170915E-01  mag=     3.0000
       N       E                     dE             d eps       ncg     rms          rms(c)
DAV:   1    -0.233563592852E+04    0.63791E-01   -0.34922E+00  4528   0.163E+00    0.578E-01
RMM:   2    -0.233570184784E+04   -0.65919E-01   -0.69578E-01  6310   0.397E-01    0.440E-01
RMM:   3    -0.233570824590E+04   -0.63981E-02   -0.75736E-02  6117   0.156E-01    0.515E-01
RMM:   4    -0.233570632354E+04    0.19224E-02   -0.73146E-03  5758   0.358E-02    0.247E-01
RMM:   5    -0.233570599642E+04    0.32712E-03   -0.13504E-03  4838   0.163E-02    0.210E-01
RMM:   6    -0.233570570448E+04    0.29194E-03   -0.10539E-03  4933   0.168E-02    0.139E-01
RMM:   7    -0.233570560864E+04    0.95833E-04   -0.60945E-04  4258   0.136E-02    0.101E-01
RMM:   8    -0.233570547681E+04    0.13183E-03   -0.14084E-04  3313   0.755E-03    0.213E-02
RMM:   9    -0.233570546982E+04    0.69935E-05   -0.17455E-05  2973   0.452E-03
  44 F= -.23572060E+04 E0= -.23572060E+04  d E =-.236263E-01  mag=     3.0000
       N       E                     dE             d eps       ncg     rms          rms(c)
DAV:   1    -0.233568027275E+04    0.25204E-01   -0.20162E+00  4528   0.124E+00    0.444E-01
RMM:   2    -0.233571864048E+04   -0.38368E-01   -0.39939E-01  6311   0.299E-01    0.351E-01
RMM:   3    -0.233572309593E+04   -0.44554E-02   -0.41954E-02  6077   0.119E-01    0.455E-01
RMM:   4    -0.233572098043E+04    0.21155E-02   -0.42981E-03  5426   0.289E-02    0.173E-01
RMM:   5    -0.233572092010E+04    0.60329E-04   -0.83064E-04  4015   0.134E-02    0.162E-01
RMM:   6    -0.233572069711E+04    0.22299E-03   -0.55461E-04  4668   0.130E-02    0.890E-02
RMM:   7    -0.233572071427E+04   -0.17165E-04   -0.35978E-04  3669   0.111E-02    0.840E-02
RMM:   8    -0.233572061434E+04    0.99939E-04   -0.96771E-05  3089   0.693E-03    0.168E-02
RMM:   9    -0.233572060779E+04    0.65462E-05   -0.12910E-05  2953   0.402E-03
  45 F= -.23572216E+04 E0= -.23572216E+04  d E =-.155590E-01  mag=     3.0000
       N       E                     dE             d eps       ncg     rms          rms(c)
DAV:   1    -0.233557284923E+04    0.14777E+00   -0.79276E+00  4520   0.247E+00    0.885E-01
RMM:   2    -0.233572405912E+04   -0.15121E+00   -0.15739E+00  6305   0.594E-01    0.714E-01
RMM:   3    -0.233574207688E+04   -0.18018E-01   -0.17032E-01  6128   0.239E-01    0.917E-01
RMM:   4    -0.233573335399E+04    0.87229E-02   -0.16999E-02  6174   0.572E-02    0.347E-01
RMM:   5    -0.233573302397E+04    0.33001E-03   -0.32684E-03  5363   0.246E-02    0.317E-01
RMM:   6    -0.233573218421E+04    0.83977E-03   -0.21450E-03  5552   0.233E-02    0.180E-01
RMM:   7    -0.233573225094E+04   -0.66738E-04   -0.14450E-03  5147   0.196E-02    0.172E-01
RMM:   8    -0.233573183896E+04    0.41198E-03   -0.41757E-04  4231   0.115E-02    0.407E-02
RMM:   9    -0.233573180165E+04    0.37306E-04   -0.48354E-05  3002   0.565E-03    0.229E-02
RMM:  10    -0.233573178859E+04    0.13068E-04   -0.36122E-05  2928   0.463E-03    0.806E-03
RMM:  11    -0.233573178715E+04    0.14379E-05   -0.12247E-05  2941   0.365E-03
  46 F= -.23572336E+04 E0= -.23572336E+04  d E =-.275723E-01  mag=     3.0000
       N       E                     dE             d eps       ncg     rms          rms(c)
DAV:   1    -0.233569685459E+04    0.34934E-01   -0.23035E+00  4544   0.126E+00    0.479E-01
RMM:   2    -0.233574724462E+04   -0.50390E-01   -0.49299E-01  6453   0.309E-01    0.638E-01
RMM:   3    -0.233574900189E+04   -0.17573E-02   -0.54882E-02  6092   0.125E-01    0.444E-01
RMM:   4    -0.233574711231E+04    0.18896E-02   -0.50539E-03  5293   0.285E-02    0.155E-01
RMM:   5    -0.233574719096E+04   -0.78647E-04   -0.76937E-04  3939   0.127E-02    0.186E-01
RMM:   6    -0.233574681834E+04    0.37262E-03   -0.59696E-04  4636   0.125E-02    0.671E-02
RMM:   7    -0.233574679993E+04    0.18410E-04   -0.16259E-04  3480   0.829E-03    0.255E-02
RMM:   8    -0.233574679237E+04    0.75622E-05   -0.19268E-05  2968   0.511E-03
  47 F= -.23572491E+04 E0= -.23572491E+04  d E =-.154986E-01  mag=     3.0000
       N       E                     dE             d eps       ncg     rms          rms(c)
DAV:   1    -0.233534089118E+04    0.40591E+00   -0.19137E+01  4520   0.365E+00    0.141E+00
RMM:   2    -0.233577655044E+04   -0.43566E+00   -0.41978E+00  6470   0.908E-01    0.206E+00
RMM:   3    -0.233577917929E+04   -0.26289E-02   -0.49421E-01  6196   0.368E-01    0.118E+00
RMM:   4    -0.233576646441E+04    0.12715E-01   -0.43193E-02  6170   0.816E-02    0.465E-01
RMM:   5    -0.233576673230E+04   -0.26789E-03   -0.63609E-03  5613   0.341E-02    0.511E-01
RMM:   6    -0.233576401349E+04    0.27188E-02   -0.49461E-03  5733   0.327E-02    0.249E-01
RMM:   7    -0.233576424926E+04   -0.23577E-03   -0.26883E-03  5570   0.247E-02    0.234E-01
RMM:   8    -0.233576357977E+04    0.66949E-03   -0.76233E-04  4133   0.138E-02    0.639E-02
RMM:   9    -0.233576352022E+04    0.59548E-04   -0.10515E-04  3091   0.644E-03    0.315E-02
RMM:  10    -0.233576350770E+04    0.12516E-04   -0.66725E-05  2938   0.567E-03    0.949E-03
RMM:  11    -0.233576350907E+04   -0.13683E-05   -0.16891E-05  2970   0.407E-03
  48 F= -.23572672E+04 E0= -.23572672E+04  d E =-.336149E-01  mag=     3.0000
       N       E                     dE             d eps       ncg     rms          rms(c)
DAV:   1    -0.233567082497E+04    0.92683E-01   -0.50452E+00  4552   0.186E+00    0.725E-01
RMM:   2    -0.233578439059E+04   -0.11357E+00   -0.10997E+00  6361   0.461E-01    0.997E-01
RMM:   3    -0.233578634506E+04   -0.19545E-02   -0.12195E-01  6100   0.188E-01    0.624E-01
RMM:   4    -0.233578269699E+04    0.36481E-02   -0.11511E-02  5750   0.426E-02    0.237E-01
RMM:   5    -0.233578269066E+04    0.63290E-05   -0.17498E-03  4841   0.192E-02    0.248E-01
RMM:   6    -0.233578208388E+04    0.60678E-03   -0.13384E-03  5201   0.184E-02    0.141E-01
RMM:   7    -0.233578212213E+04   -0.38246E-04   -0.77752E-04  4528   0.141E-02    0.133E-01
RMM:   8    -0.233578191943E+04    0.20270E-03   -0.20239E-04  3193   0.825E-03    0.263E-02
RMM:   9    -0.233578190913E+04    0.10306E-04   -0.29649E-05  2985   0.484E-03    0.170E-02
RMM:  10    -0.233578190652E+04    0.26069E-05   -0.19695E-05  2924   0.336E-03
  49 F= -.23572858E+04 E0= -.23572858E+04  d E =-.185548E-01  mag=     3.0000
       N       E                     dE             d eps       ncg     rms          rms(c)
DAV:   1    -0.233562751294E+04    0.15440E+00   -0.73770E+00  4552   0.225E+00    0.882E-01
RMM:   2    -0.233579541985E+04   -0.16791E+00   -0.16212E+00  6352   0.558E-01    0.123E+00
RMM:   3    -0.233579710349E+04   -0.16836E-02   -0.18072E-01  6106   0.227E-01    0.740E-01
RMM:   4    -0.233579202239E+04    0.50811E-02   -0.16987E-02  5877   0.514E-02    0.289E-01
RMM:   5    -0.233579196157E+04    0.60826E-04   -0.25621E-03  5139   0.228E-02    0.296E-01
RMM:   6    -0.233579111842E+04    0.84315E-03   -0.19903E-03  5401   0.222E-02    0.176E-01
RMM:   7    -0.233579114485E+04   -0.26436E-04   -0.11437E-03  4907   0.166E-02    0.161E-01
RMM:   8    -0.233579084716E+04    0.29769E-03   -0.28869E-04  3459   0.944E-03    0.311E-02
RMM:   9    -0.233579083022E+04    0.16938E-04   -0.43909E-05  3007   0.540E-03    0.205E-02
RMM:  10    -0.233579082426E+04    0.59635E-05   -0.28073E-05  2936   0.397E-03
  50 F= -.23572949E+04 E0= -.23572949E+04  d E =-.276595E-01  mag=     3.0000
       N       E                     dE             d eps       ncg     rms          rms(c)
DAV:   1    -0.233568659183E+04    0.10424E+00   -0.55576E+00  4524   0.193E+00    0.740E-01
RMM:   2    -0.233580845842E+04   -0.12187E+00   -0.12461E+00  6383   0.491E-01    0.720E-01
RMM:   3    -0.233581946843E+04   -0.11010E-01   -0.13552E-01  6119   0.196E-01    0.732E-01
RMM:   4    -0.233581383760E+04    0.56308E-02   -0.12715E-02  5850   0.456E-02    0.261E-01
RMM:   5    -0.233581369778E+04    0.13983E-03   -0.19879E-03  4910   0.199E-02    0.239E-01
RMM:   6    -0.233581321883E+04    0.47894E-03   -0.13715E-03  5053   0.180E-02    0.155E-01
RMM:   7    -0.233581321328E+04    0.55517E-05   -0.83595E-04  4871   0.145E-02    0.140E-01
RMM:   8    -0.233581299167E+04    0.22162E-03   -0.27537E-04  3137   0.932E-03    0.338E-02
RMM:   9    -0.233581297283E+04    0.18835E-04   -0.34468E-05  3010   0.493E-03    0.232E-02
RMM:  10    -0.233581296387E+04    0.89583E-05   -0.25477E-05  2930   0.392E-03
  51 F= -.23573166E+04 E0= -.23573166E+04  d E =-.217456E-01  mag=     3.0000
       N       E                     dE             d eps       ncg     rms          rms(c)
DAV:   1    -0.233570206444E+04    0.11091E+00   -0.52352E+00  4520   0.188E+00    0.718E-01
RMM:   2    -0.233581671774E+04   -0.11465E+00   -0.11754E+00  6345   0.479E-01    0.677E-01
RMM:   3    -0.233582738984E+04   -0.10672E-01   -0.12703E-01  6105   0.191E-01    0.707E-01
RMM:   4    -0.233582211132E+04    0.52785E-02   -0.11972E-02  5819   0.443E-02    0.254E-01
RMM:   5    -0.233582196386E+04    0.14746E-03   -0.18732E-03  4890   0.195E-02    0.230E-01
RMM:   6    -0.233582152671E+04    0.43715E-03   -0.13016E-03  5038   0.175E-02    0.152E-01
RMM:   7    -0.233582150306E+04    0.23651E-04   -0.78156E-04  4828   0.141E-02    0.133E-01
RMM:   8    -0.233582130140E+04    0.20166E-03   -0.25785E-04  3141   0.918E-03    0.331E-02
RMM:   9    -0.233582128218E+04    0.19218E-04   -0.32551E-05  3009   0.485E-03    0.225E-02
RMM:  10    -0.233582127283E+04    0.93578E-05   -0.25192E-05  2928   0.397E-03
  52 F= -.23573246E+04 E0= -.23573245E+04  d E =-.296943E-01  mag=     3.0000
       N       E                     dE             d eps       ncg     rms          rms(c)
DAV:   1    -0.233569065091E+04    0.13063E+00   -0.65781E+00  4520   0.211E+00    0.816E-01
RMM:   2    -0.233583411814E+04   -0.14347E+00   -0.14852E+00  6307   0.542E-01    0.725E-01
RMM:   3    -0.233584934873E+04   -0.15231E-01   -0.16531E-01  6104   0.220E-01    0.822E-01
RMM:   4    -0.233584196644E+04    0.73823E-02   -0.15067E-02  5963   0.505E-02    0.275E-01
RMM:   5    -0.233584162377E+04    0.34267E-03   -0.22867E-03  5090   0.219E-02    0.231E-01
RMM:   6    -0.233584147524E+04    0.14853E-03   -0.15348E-03  5123   0.181E-02    0.201E-01
RMM:   7    -0.233584112210E+04    0.35314E-03   -0.74084E-04  4916   0.150E-02    0.624E-02
RMM:   8    -0.233584111101E+04    0.11083E-04   -0.18497E-04  3133   0.917E-03    0.595E-02
RMM:   9    -0.233584106146E+04    0.49557E-04   -0.52836E-05  2964   0.499E-03    0.290E-02
RMM:  10    -0.233584104863E+04    0.12827E-04   -0.41040E-05  2931   0.421E-03    0.795E-03
RMM:  11    -0.233584104847E+04    0.16391E-06   -0.11085E-05  2937   0.289E-03
  53 F= -.23573442E+04 E0= -.23573442E+04  d E =-.196371E-01  mag=     3.0000
       N       E                     dE             d eps       ncg     rms          rms(c)
DAV:   1    -0.233574056020E+04    0.10049E+00   -0.46503E+00  4524   0.178E+00    0.683E-01
RMM:   2    -0.233584127491E+04   -0.10071E+00   -0.10474E+00  6307   0.455E-01    0.573E-01
RMM:   3    -0.233585264765E+04   -0.11373E-01   -0.11637E-01  6107   0.186E-01    0.688E-01
RMM:   4    -0.233584747920E+04    0.51685E-02   -0.10723E-02  5910   0.426E-02    0.234E-01
RMM:   5    -0.233584732800E+04    0.15120E-03   -0.16382E-03  4810   0.186E-02    0.216E-01
RMM:   6    -0.233584704324E+04    0.28475E-03   -0.10747E-03  4881   0.155E-02    0.151E-01
RMM:   7    -0.233584685066E+04    0.19258E-03   -0.50820E-04  4615   0.129E-02    0.464E-02
RMM:   8    -0.233584684839E+04    0.22755E-05   -0.11629E-04  3061   0.822E-03    0.481E-02
RMM:   9    -0.233584681664E+04    0.31748E-04   -0.37735E-05  2942   0.429E-03    0.238E-02
RMM:  10    -0.233584680792E+04    0.87230E-05   -0.29041E-05  2923   0.366E-03
  54 F= -.23573499E+04 E0= -.23573498E+04  d E =-.252919E-01  mag=     3.0000
       N       E                     dE             d eps       ncg     rms          rms(c)
DAV:   1    -0.233574162628E+04    0.10519E+00   -0.54203E+00  4560   0.186E+00    0.735E-01
RMM:   2    -0.233586444330E+04   -0.12282E+00   -0.12164E+00  6479   0.480E-01    0.949E-01
RMM:   3    -0.233586927954E+04   -0.48362E-02   -0.13732E-01  6197   0.192E-01    0.652E-01
RMM:   4    -0.233586498171E+04    0.42978E-02   -0.12366E-02  5746   0.431E-02    0.244E-01
RMM:   5    -0.233586493216E+04    0.49554E-04   -0.19028E-03  4943   0.181E-02    0.255E-01
RMM:   6    -0.233586433218E+04    0.59998E-03   -0.14049E-03  5106   0.177E-02    0.131E-01
RMM:   7    -0.233586447189E+04   -0.13971E-03   -0.82454E-04  4291   0.147E-02    0.140E-01
RMM:   8    -0.233586420523E+04    0.26666E-03   -0.23236E-04  3250   0.855E-03    0.284E-02
RMM:   9    -0.233586418668E+04    0.18548E-04   -0.29379E-05  2990   0.459E-03    0.209E-02
RMM:  10    -0.233586417881E+04    0.78673E-05   -0.29189E-05  2918   0.346E-03
  55 F= -.23573672E+04 E0= -.23573672E+04  d E =-.173572E-01  mag=     3.0000
       N       E                     dE             d eps       ncg     rms          rms(c)
DAV:   1    -0.233571438321E+04    0.14980E+00   -0.69921E+00  4552   0.211E+00    0.837E-01
RMM:   2    -0.233587337331E+04   -0.15899E+00   -0.15747E+00  6521   0.545E-01    0.109E+00
RMM:   3    -0.233587972006E+04   -0.63468E-02   -0.18032E-01  6223   0.219E-01    0.744E-01
RMM:   4    -0.233587405695E+04    0.56631E-02   -0.15900E-02  5868   0.490E-02    0.277E-01
RMM:   5    -0.233587398492E+04    0.72031E-04   -0.24777E-03  5188   0.204E-02    0.287E-01
RMM:   6    -0.233587322019E+04    0.76472E-03   -0.18152E-03  5268   0.197E-02    0.150E-01
RMM:   7    -0.233587340981E+04   -0.18962E-03   -0.10606E-03  4656   0.162E-02    0.163E-01
RMM:   8    -0.233587305361E+04    0.35621E-03   -0.30897E-04  3440   0.946E-03    0.325E-02
RMM:   9    -0.233587302881E+04    0.24800E-04   -0.37203E-05  2999   0.481E-03    0.240E-02
RMM:  10    -0.233587301819E+04    0.10620E-04   -0.37361E-05  2921   0.387E-03    0.573E-03
RMM:  11    -0.233587301767E+04    0.51393E-06   -0.73894E-06  2926   0.274E-03
  56 F= -.23573760E+04 E0= -.23573760E+04  d E =-.261690E-01  mag=     3.0000
       N       E                     dE             d eps       ncg     rms          rms(c)
DAV:   1    -0.233586270444E+04    0.10314E-01   -0.47623E-01  4752   0.550E-01    0.215E-01
RMM:   2    -0.233587317187E+04   -0.10467E-01   -0.10547E-01  6485   0.140E-01    0.247E-01
RMM:   3    -0.233587393365E+04   -0.76178E-03   -0.12070E-02  5455   0.572E-02    0.210E-01
RMM:   4    -0.233587349601E+04    0.43763E-03   -0.11134E-03  3297   0.134E-02    0.825E-02
RMM:   5    -0.233587347808E+04    0.17932E-04   -0.17208E-04  2991   0.651E-03    0.769E-02
RMM:   6    -0.233587342565E+04    0.52434E-04   -0.12327E-04  3052   0.619E-03    0.425E-02
RMM:   7    -0.233587343078E+04   -0.51341E-05   -0.91287E-05  3025   0.602E-03
  57 F= -.23573764E+04 E0= -.23573764E+04  d E =-.265735E-01  mag=     3.0000
       N       E                     dE             d eps       ncg     rms          rms(c)
DAV:   1    -0.233576704875E+04    0.10638E+00   -0.57531E+00  4528   0.195E+00    0.780E-01
RMM:   2    -0.233589986382E+04   -0.13282E+00   -0.12143E+00  6476   0.487E-01    0.138E+00
RMM:   3    -0.233588985847E+04    0.10005E-01   -0.14007E-01  6224   0.198E-01    0.520E-01
RMM:   4    -0.233588752897E+04    0.23295E-02   -0.12900E-02  5534   0.425E-02    0.244E-01
RMM:   5    -0.233588785805E+04   -0.32908E-03   -0.19404E-03  5174   0.213E-02    0.322E-01
RMM:   6    -0.233588674646E+04    0.11116E-02   -0.16733E-03  5395   0.200E-02    0.116E-01
RMM:   7    -0.233588671642E+04    0.30036E-04   -0.45193E-04  4027   0.134E-02    0.656E-02
RMM:   8    -0.233588666876E+04    0.47660E-04   -0.11092E-04  3089   0.634E-03    0.330E-02
RMM:   9    -0.233588664989E+04    0.18876E-04   -0.25779E-05  2932   0.407E-03    0.155E-02
RMM:  10    -0.233588664771E+04    0.21812E-05   -0.27215E-05  2929   0.336E-03
  58 F= -.23573896E+04 E0= -.23573896E+04  d E =-.131617E-01  mag=     3.0000
       N       E                     dE             d eps       ncg     rms          rms(c)
DAV:   1    -0.233586959490E+04    0.17055E-01   -0.88527E-01  4576   0.765E-01    0.303E-01
RMM:   2    -0.233588957716E+04   -0.19982E-01   -0.18499E-01  6453   0.189E-01    0.511E-01
RMM:   3    -0.233588851319E+04    0.10640E-02   -0.21129E-02  5902   0.766E-02    0.219E-01
RMM:   4    -0.233588812643E+04    0.38677E-03   -0.20266E-03  4142   0.171E-02    0.115E-01
RMM:   5    -0.233588808365E+04    0.42776E-04   -0.27617E-04  3077   0.851E-03    0.107E-01
RMM:   6    -0.233588797149E+04    0.11216E-03   -0.27543E-04  4023   0.944E-03    0.568E-02
RMM:   7    -0.233588797343E+04   -0.19371E-05   -0.14502E-04  3102   0.782E-03    0.488E-02
RMM:   8    -0.233588794063E+04    0.32795E-04   -0.31252E-05  2927   0.432E-03    0.104E-02
RMM:   9    -0.233588793860E+04    0.20318E-05   -0.57312E-06  2881   0.261E-03
  59 F= -.23573909E+04 E0= -.23573908E+04  d E =-.144263E-01  mag=     3.0000
       N       E                     dE             d eps       ncg     rms          rms(c)
DAV:   1    -0.233586376649E+04    0.24174E-01   -0.17679E+00  4528   0.112E+00    0.446E-01
RMM:   2    -0.233590191480E+04   -0.38148E-01   -0.33952E-01  6170   0.266E-01    0.791E-01
RMM:   3    -0.233589772267E+04    0.41921E-02   -0.37495E-02  5979   0.109E-01    0.288E-01
RMM:   4    -0.233589706307E+04    0.65960E-03   -0.39545E-03  5173   0.252E-02    0.168E-01
RMM:   5    -0.233589696846E+04    0.94618E-04   -0.70992E-04  3796   0.140E-02    0.158E-01
RMM:   6    -0.233589677294E+04    0.19552E-03   -0.63384E-04  4726   0.140E-02    0.114E-01
RMM:   7    -0.233589668148E+04    0.91460E-04   -0.31294E-04  3480   0.112E-02    0.600E-02
RMM:   8    -0.233589664057E+04    0.40911E-04   -0.50810E-05  2983   0.530E-03    0.141E-02
RMM:   9    -0.233589663852E+04    0.20451E-05   -0.11524E-05  2945   0.356E-03
  60 F= -.23573991E+04 E0= -.23573991E+04  d E =-.821886E-02  mag=     3.0000
       N       E                     dE             d eps       ncg     rms          rms(c)
DAV:   1    -0.233587484981E+04    0.21791E-01   -0.13055E+00  4528   0.961E-01    0.382E-01
RMM:   2    -0.233590286341E+04   -0.28014E-01   -0.25127E-01  6153   0.228E-01    0.663E-01
RMM:   3    -0.233590007967E+04    0.27837E-02   -0.27867E-02  5921   0.947E-02    0.253E-01
RMM:   4    -0.233589955492E+04    0.52475E-03   -0.29125E-03  4984   0.218E-02    0.146E-01
RMM:   5    -0.233589948485E+04    0.70066E-04   -0.52068E-04  3497   0.122E-02    0.138E-01
RMM:   6    -0.233589932833E+04    0.15652E-03   -0.47479E-04  4498   0.124E-02    0.944E-02
RMM:   7    -0.233589926958E+04    0.58753E-04   -0.23390E-04  3251   0.102E-02    0.520E-02
RMM:   8    -0.233589923829E+04    0.31285E-04   -0.39971E-05  2983   0.491E-03    0.123E-02
RMM:   9    -0.233589923661E+04    0.16879E-05   -0.92573E-06  2929   0.328E-03
  61 F= -.23574013E+04 E0= -.23574013E+04  d E =-.104112E-01  mag=     3.0000
       N       E                     dE             d eps       ncg     rms          rms(c)
DAV:   1    -0.233588895933E+04    0.10279E-01   -0.90489E-01  4528   0.798E-01    0.305E-01
RMM:   2    -0.233590715200E+04   -0.18193E-01   -0.17495E-01  6377   0.188E-01    0.420E-01
RMM:   3    -0.233590718853E+04   -0.36532E-04   -0.18982E-02  5798   0.752E-02    0.254E-01
RMM:   4    -0.233590654875E+04    0.63978E-03   -0.18848E-03  4191   0.176E-02    0.117E-01
RMM:   5    -0.233590651525E+04    0.33500E-04   -0.35479E-04  3162   0.948E-03    0.112E-01
RMM:   6    -0.233590641187E+04    0.10338E-03   -0.30542E-04  3813   0.992E-03    0.741E-02
RMM:   7    -0.233590638728E+04    0.24598E-04   -0.17217E-04  3112   0.797E-03    0.482E-02
RMM:   8    -0.233590636110E+04    0.26181E-04   -0.30681E-05  2955   0.480E-03    0.103E-02
RMM:   9    -0.233590635914E+04    0.19589E-05   -0.60825E-06  2880   0.280E-03
  62 F= -.23574080E+04 E0= -.23574080E+04  d E =-.669534E-02  mag=     3.0000
       N       E                     dE             d eps       ncg     rms          rms(c)
DAV:   1    -0.233576013553E+04    0.14623E+00   -0.81236E+00  4520   0.239E+00    0.926E-01
RMM:   2    -0.233592951211E+04   -0.16938E+00   -0.16038E+00  6344   0.579E-01    0.137E+00
RMM:   3    -0.233592382257E+04    0.56895E-02   -0.17113E-01  6101   0.227E-01    0.697E-01
RMM:   4    -0.233591913696E+04    0.46856E-02   -0.17291E-02  5888   0.521E-02    0.344E-01
RMM:   5    -0.233591878887E+04    0.34809E-03   -0.31761E-03  5314   0.257E-02    0.322E-01
RMM:   6    -0.233591800240E+04    0.78647E-03   -0.27246E-03  5482   0.259E-02    0.237E-01
RMM:   7    -0.233591766371E+04    0.33869E-03   -0.14309E-03  5056   0.189E-02    0.143E-01
RMM:   8    -0.233591743315E+04    0.23056E-03   -0.22438E-04  3492   0.875E-03    0.287E-02
RMM:   9    -0.233591741619E+04    0.16963E-04   -0.39098E-05  2999   0.565E-03    0.192E-02
RMM:  10    -0.233591741080E+04    0.53933E-05   -0.36611E-05  2945   0.437E-03
  63 F= -.23574178E+04 E0= -.23574178E+04  d E =-.165149E-01  mag=     3.0000
       N       E                     dE             d eps       ncg     rms          rms(c)
DAV:   1    -0.233589473393E+04    0.22682E-01   -0.17824E+00  4528   0.115E+00    0.414E-01
RMM:   2    -0.233592654718E+04   -0.31813E-01   -0.32706E-01  6433   0.274E-01    0.382E-01
RMM:   3    -0.233592971448E+04   -0.31673E-02   -0.34315E-02  6018   0.103E-01    0.422E-01
RMM:   4    -0.233592770715E+04    0.20073E-02   -0.33179E-03  5378   0.257E-02    0.150E-01
RMM:   5    -0.233592782957E+04   -0.12242E-03   -0.80463E-04  4183   0.136E-02    0.186E-01
RMM:   6    -0.233592746911E+04    0.36046E-03   -0.62389E-04  4670   0.131E-02    0.673E-02
RMM:   7    -0.233592745923E+04    0.98754E-05   -0.16466E-04  3316   0.849E-03    0.432E-02
RMM:   8    -0.233592743935E+04    0.19880E-04   -0.56181E-05  2960   0.581E-03    0.226E-02
RMM:   9    -0.233592743085E+04    0.84977E-05   -0.96339E-06  2909   0.297E-03
  64 F= -.23574275E+04 E0= -.23574275E+04  d E =-.976439E-02  mag=     3.0000
       N       E                     dE             d eps       ncg     rms          rms(c)
DAV:   1    -0.233588145161E+04    0.45988E-01   -0.27860E+00  4524   0.144E+00    0.519E-01
RMM:   2    -0.233593149961E+04   -0.50048E-01   -0.51425E-01  6431   0.344E-01    0.483E-01
RMM:   3    -0.233593642903E+04   -0.49294E-02   -0.54111E-02  6077   0.130E-01    0.527E-01
RMM:   4    -0.233593328321E+04    0.31458E-02   -0.52062E-03  5718   0.321E-02    0.188E-01
RMM:   5    -0.233593345219E+04   -0.16897E-03   -0.12504E-03  4729   0.169E-02    0.230E-01
RMM:   6    -0.233593290704E+04    0.54515E-03   -0.96021E-04  5016   0.158E-02    0.881E-02
RMM:   7    -0.233593287449E+04    0.32551E-04   -0.26107E-04  3877   0.101E-02    0.494E-02
RMM:   8    -0.233593285126E+04    0.23228E-04   -0.85010E-05  2983   0.657E-03    0.318E-02
RMM:   9    -0.233593283461E+04    0.16649E-04   -0.15734E-05  2921   0.357E-03    0.132E-02
RMM:  10    -0.233593283159E+04    0.30205E-05   -0.15039E-05  2910   0.288E-03
  65 F= -.23574326E+04 E0= -.23574326E+04  d E =-.148671E-01  mag=     3.0000
       N       E                     dE             d eps       ncg     rms          rms(c)
DAV:   1    -0.233591763997E+04    0.15195E-01   -0.12494E+00  4528   0.980E-01    0.349E-01
RMM:   2    -0.233593948493E+04   -0.21845E-01   -0.22214E-01  6473   0.236E-01    0.361E-01
RMM:   3    -0.233594102906E+04   -0.15441E-02   -0.23802E-02  6044   0.879E-02    0.334E-01
RMM:   4    -0.233593976754E+04    0.12615E-02   -0.22320E-03  5157   0.218E-02    0.142E-01
RMM:   5    -0.233593977696E+04   -0.94183E-05   -0.56633E-04  3431   0.114E-02    0.154E-01
RMM:   6    -0.233593955004E+04    0.22692E-03   -0.53665E-04  4650   0.129E-02    0.635E-02
RMM:   7    -0.233593956116E+04   -0.11125E-04   -0.22409E-04  3271   0.937E-03    0.619E-02
RMM:   8    -0.233593950646E+04    0.54709E-04   -0.49399E-05  2961   0.534E-03    0.129E-02
RMM:   9    -0.233593950181E+04    0.46482E-05   -0.10512E-05  2942   0.281E-03
  66 F= -.23574392E+04 E0= -.23574392E+04  d E =-.657106E-02  mag=     3.0000
       N       E                     dE             d eps       ncg     rms          rms(c)
DAV:   1    -0.233591706406E+04    0.22442E-01   -0.14293E+00  4528   0.105E+00    0.374E-01
RMM:   2    -0.233594205225E+04   -0.24988E-01   -0.25388E-01  6449   0.250E-01    0.392E-01
RMM:   3    -0.233594376296E+04   -0.17107E-02   -0.26705E-02  6048   0.949E-02    0.361E-01
RMM:   4    -0.233594229837E+04    0.14646E-02   -0.25535E-03  5307   0.233E-02    0.152E-01
RMM:   5    -0.233594231464E+04   -0.16275E-04   -0.66308E-04  3586   0.121E-02    0.166E-01
RMM:   6    -0.233594205097E+04    0.26368E-03   -0.62835E-04  4808   0.136E-02    0.693E-02
RMM:   7    -0.233594206017E+04   -0.92000E-05   -0.25671E-04  3305   0.997E-03    0.663E-02
RMM:   8    -0.233594199742E+04    0.62752E-04   -0.54887E-05  2960   0.548E-03    0.138E-02
RMM:   9    -0.233594199182E+04    0.55933E-05   -0.12382E-05  2950   0.298E-03
  67 F= -.23574416E+04 E0= -.23574416E+04  d E =-.896691E-02  mag=     3.0000
[...]
RMM:   6    -0.233630743786E+04    0.31740E-02   -0.56125E-03  5476   0.393E-02    0.131E-01
RMM:   7    -0.233630751667E+04   -0.78807E-04   -0.10579E-03  4225   0.210E-02    0.122E-01
RMM:   8    -0.233630730386E+04    0.21281E-03   -0.28964E-04  3192   0.762E-03    0.359E-02
RMM:   9    -0.233630727383E+04    0.30033E-04   -0.69619E-05  3055   0.501E-03    0.184E-02
RMM:  10    -0.233630726972E+04    0.41063E-05   -0.34810E-05  3031   0.424E-03
 130 F= -.23577744E+04 E0= -.23577744E+04  d E =-.895511E-02  mag=     3.0000
       N       E                     dE             d eps       ncg     rms          rms(c)
DAV:   1    -0.233624842141E+04    0.58852E-01   -0.61950E+00  4520   0.209E+00    0.707E-01
RMM:   2    -0.233631796084E+04   -0.69539E-01   -0.64855E-01  6409   0.424E-01    0.968E-01
RMM:   3    -0.233631472545E+04    0.32354E-02   -0.63262E-02  6127   0.144E-01    0.551E-01
RMM:   4    -0.233631143877E+04    0.32867E-02   -0.65016E-03  5189   0.375E-02    0.221E-01
RMM:   5    -0.233631210487E+04   -0.66610E-03   -0.30100E-03  5656   0.277E-02    0.326E-01
RMM:   6    -0.233631103463E+04    0.10702E-02   -0.15860E-03  5330   0.196E-02    0.983E-02
RMM:   7    -0.233631105297E+04   -0.18341E-04   -0.33545E-04  3232   0.915E-03    0.851E-02
RMM:   8    -0.233631094766E+04    0.10531E-03   -0.93442E-05  2969   0.600E-03    0.200E-02
RMM:   9    -0.233631093864E+04    0.90271E-05   -0.21037E-05  2977   0.289E-03
 131 F= -.23577766E+04 E0= -.23577766E+04  d E =-.111300E-01  mag=     3.0000
       N       E                     dE             d eps       ncg     rms          rms(c)
DAV:   1    -0.233628071361E+04    0.30234E-01   -0.36076E+00  4520   0.156E+00    0.528E-01
RMM:   2    -0.233632086017E+04   -0.40147E-01   -0.37140E-01  6450   0.316E-01    0.739E-01
RMM:   3    -0.233631872394E+04    0.21362E-02   -0.36615E-02  6102   0.109E-01    0.416E-01
RMM:   4    -0.233631711564E+04    0.16083E-02   -0.40447E-03  5140   0.286E-02    0.222E-01
RMM:   5    -0.233631727928E+04   -0.16363E-03   -0.15931E-03  4909   0.187E-02    0.260E-01
RMM:   6    -0.233631661364E+04    0.66564E-03   -0.11772E-03  4998   0.182E-02    0.667E-02
RMM:   7    -0.233631662547E+04   -0.11828E-04   -0.26746E-04  3181   0.117E-02    0.621E-02
RMM:   8    -0.233631656828E+04    0.57185E-04   -0.55792E-05  2989   0.437E-03    0.148E-02
RMM:   9    -0.233631656266E+04    0.56228E-05   -0.14690E-05  2970   0.256E-03
 132 F= -.23577833E+04 E0= -.23577833E+04  d E =-.673813E-02  mag=     3.0000
       N       E                     dE             d eps       ncg     rms          rms(c)
DAV:   1    -0.233621103547E+04    0.10553E+00   -0.10872E+01  4520   0.272E+00    0.918E-01
RMM:   2    -0.233633163895E+04   -0.12060E+00   -0.11236E+00  6433   0.549E-01    0.125E+00
RMM:   3    -0.233632659060E+04    0.50484E-02   -0.11107E-01  6190   0.192E-01    0.744E-01
RMM:   4    -0.233632156512E+04    0.50255E-02   -0.12607E-02  5441   0.500E-02    0.407E-01
RMM:   5    -0.233632161777E+04   -0.52650E-04   -0.47234E-03  5654   0.314E-02    0.428E-01
RMM:   6    -0.233631992610E+04    0.16917E-02   -0.35482E-03  5354   0.308E-02    0.137E-01
RMM:   7    -0.233631991311E+04    0.12993E-04   -0.95857E-04  3949   0.194E-02    0.114E-01
RMM:   8    -0.233631971619E+04    0.19691E-03   -0.17533E-04  3117   0.668E-03    0.263E-02
RMM:   9    -0.233631969856E+04    0.17632E-04   -0.47052E-05  3039   0.415E-03    0.136E-02
RMM:  10    -0.233631969615E+04    0.24095E-05   -0.21744E-05  2999   0.349E-03
 133 F= -.23577884E+04 E0= -.23577884E+04  d E =-.118467E-01  mag=     3.0000
       N       E                     dE             d eps       ncg     rms          rms(c)
DAV:   1    -0.233630136423E+04    0.18334E-01   -0.21471E+00  4520   0.123E+00    0.437E-01
RMM:   2    -0.233632658057E+04   -0.25216E-01   -0.23783E-01  6270   0.260E-01    0.548E-01
RMM:   3    -0.233632581713E+04    0.76344E-03   -0.23290E-02  6024   0.942E-02    0.350E-01
RMM:   4    -0.233632468105E+04    0.11361E-02   -0.26987E-03  5035   0.250E-02    0.202E-01
RMM:   5    -0.233632461912E+04    0.61924E-04   -0.10088E-03  4397   0.165E-02    0.191E-01
RMM:   6    -0.233632423337E+04    0.38575E-03   -0.70089E-04  4599   0.153E-02    0.329E-02
RMM:   7    -0.233632423201E+04    0.13663E-05   -0.85019E-05  3140   0.985E-03
 134 F= -.23577938E+04 E0= -.23577938E+04  d E =-.535406E-02  mag=     3.0000
       N       E                     dE             d eps       ncg     rms          rms(c)
DAV:   1    -0.233630695454E+04    0.17279E-01   -0.17028E+00  4560   0.109E+00    0.393E-01
RMM:   2    -0.233632712853E+04   -0.20174E-01   -0.18914E-01  6248   0.231E-01    0.499E-01
RMM:   3    -0.233632637144E+04    0.75709E-03   -0.18466E-02  5978   0.834E-02    0.312E-01
RMM:   4    -0.233632549115E+04    0.88028E-03   -0.21578E-03  4884   0.222E-02    0.181E-01
RMM:   5    -0.233632543375E+04    0.57405E-04   -0.79243E-04  4065   0.148E-02    0.169E-01
RMM:   6    -0.233632513355E+04    0.30020E-03   -0.53912E-04  4464   0.137E-02    0.344E-02
RMM:   7    -0.233632513961E+04   -0.60647E-05   -0.88796E-05  3102   0.962E-03
 135 F= -.23577954E+04 E0= -.23577954E+04  d E =-.699806E-02  mag=     3.0000
       N       E                     dE             d eps       ncg     rms          rms(c)
DAV:   1    -0.233629738466E+04    0.27749E-01   -0.27823E+00  4520   0.137E+00    0.486E-01
RMM:   2    -0.233633202432E+04   -0.34640E-01   -0.33828E-01  6483   0.294E-01    0.553E-01
RMM:   3    -0.233633235275E+04   -0.32843E-03   -0.34655E-02  6190   0.107E-01    0.381E-01
RMM:   4    -0.233633096184E+04    0.13909E-02   -0.35509E-03  5205   0.271E-02    0.215E-01
RMM:   5    -0.233633109941E+04   -0.13757E-03   -0.12395E-03  4355   0.163E-02    0.242E-01
RMM:   6    -0.233633049935E+04    0.60006E-03   -0.91372E-04  4628   0.159E-02    0.448E-02
RMM:   7    -0.233633051684E+04   -0.17490E-04   -0.16431E-04  3169   0.106E-02    0.481E-02
RMM:   8    -0.233633048763E+04    0.29207E-04   -0.48011E-05  2984   0.402E-03    0.149E-02
RMM:   9    -0.233633048250E+04    0.51363E-05   -0.11144E-05  2936   0.253E-03
 136 F= -.23578017E+04 E0= -.23578017E+04  d E =-.622519E-02  mag=     3.0000
       N       E                     dE             d eps       ncg     rms          rms(c)
DAV:   1    -0.233626559369E+04    0.64894E-01   -0.56696E+00  4520   0.194E+00    0.691E-01
RMM:   2    -0.233633608146E+04   -0.70488E-01   -0.68930E-01  6496   0.419E-01    0.786E-01
RMM:   3    -0.233633666054E+04   -0.57908E-03   -0.70350E-02  6270   0.152E-01    0.540E-01
RMM:   4    -0.233633385436E+04    0.28062E-02   -0.72397E-03  5414   0.384E-02    0.310E-01
RMM:   5    -0.233633410531E+04   -0.25095E-03   -0.25299E-03  5070   0.232E-02    0.345E-01
RMM:   6    -0.233633291164E+04    0.11937E-02   -0.19172E-03  4940   0.222E-02    0.849E-02
RMM:   7    -0.233633295654E+04   -0.44901E-04   -0.49772E-04  3550   0.153E-02    0.913E-02
RMM:   8    -0.233633284375E+04    0.11279E-03   -0.11866E-04  3055   0.577E-03    0.204E-02
RMM:   9    -0.233633283331E+04    0.10444E-04   -0.30009E-05  3003   0.355E-03    0.114E-02
RMM:  10    -0.233633283197E+04    0.13355E-05   -0.13968E-05  2954   0.282E-03
 137 F= -.23578053E+04 E0= -.23578053E+04  d E =-.985298E-02  mag=     3.0000
       N       E                     dE             d eps       ncg     rms          rms(c)
DAV:   1    -0.233629353785E+04    0.39295E-01   -0.44725E+00  4520   0.175E+00    0.597E-01
RMM:   2    -0.233633854974E+04   -0.45012E-01   -0.46235E-01  6312   0.361E-01    0.507E-01
RMM:   3    -0.233634212791E+04   -0.35782E-02   -0.47300E-02  6095   0.134E-01    0.517E-01
RMM:   4    -0.233633911634E+04    0.30116E-02   -0.48888E-03  5757   0.356E-02    0.218E-01
RMM:   5    -0.233634000265E+04   -0.88631E-03   -0.23711E-03  5261   0.230E-02    0.364E-01
RMM:   6    -0.233633871975E+04    0.12829E-02   -0.14128E-03  5125   0.189E-02    0.775E-02
RMM:   7    -0.233633872960E+04   -0.98486E-05   -0.28783E-04  3262   0.102E-02    0.686E-02
RMM:   8    -0.233633866297E+04    0.66629E-04   -0.88654E-05  2970   0.555E-03    0.190E-02
RMM:   9    -0.233633865604E+04    0.69257E-05   -0.20700E-05  2999   0.294E-03
 138 F= -.23578121E+04 E0= -.23578121E+04  d E =-.681189E-02  mag=     3.0000
       N       E                     dE             d eps       ncg     rms          rms(c)
DAV:   1    -0.233632572943E+04    0.12934E-01   -0.13492E+00  4528   0.957E-01    0.328E-01
RMM:   2    -0.233633931008E+04   -0.13581E-01   -0.13933E-01  6297   0.199E-01    0.280E-01
RMM:   3    -0.233634039148E+04   -0.10814E-02   -0.14135E-02  5933   0.722E-02    0.286E-01
RMM:   4    -0.233633946826E+04    0.92322E-03   -0.14966E-03  4954   0.197E-02    0.123E-01
RMM:   5    -0.233633972572E+04   -0.25746E-03   -0.72226E-04  4017   0.132E-02    0.200E-01
RMM:   6    -0.233633934033E+04    0.38539E-03   -0.44674E-04  4314   0.116E-02    0.436E-02
RMM:   7    -0.233633934695E+04   -0.66251E-05   -0.10345E-04  3077   0.708E-03    0.421E-02
RMM:   8    -0.233633932150E+04    0.25452E-04   -0.30688E-05  2931   0.371E-03    0.978E-03
RMM:   9    -0.233633931945E+04    0.20546E-05   -0.69666E-06  2930   0.206E-03
 139 F= -.23578133E+04 E0= -.23578133E+04  d E =-.802281E-02  mag=     3.0000
       N       E                     dE             d eps       ncg     rms          rms(c)
DAV:   1    -0.233629702898E+04    0.42293E-01   -0.51846E+00  4520   0.183E+00    0.613E-01
RMM:   2    -0.233634382915E+04   -0.46800E-01   -0.49383E-01  6332   0.369E-01    0.437E-01
RMM:   3    -0.233634823468E+04   -0.44055E-02   -0.51047E-02  6087   0.137E-01    0.492E-01
RMM:   4    -0.233634597903E+04    0.22556E-02   -0.55424E-03  5864   0.359E-02    0.271E-01
RMM:   5    -0.233634628548E+04   -0.30645E-03   -0.24652E-03  5168   0.223E-02    0.326E-01
RMM:   6    -0.233634543059E+04    0.85489E-03   -0.17583E-03  5162   0.203E-02    0.136E-01
RMM:   7    -0.233634536922E+04    0.61370E-04   -0.54009E-04  3596   0.122E-02    0.102E-01
RMM:   8    -0.233634521994E+04    0.14929E-03   -0.12150E-04  2995   0.659E-03    0.190E-02
RMM:   9    -0.233634521134E+04    0.85962E-05   -0.28821E-05  3009   0.334E-03
 140 F= -.23578202E+04 E0= -.23578202E+04  d E =-.687037E-02  mag=     3.0000
       N       E                     dE             d eps       ncg     rms          rms(c)
DAV:   1    -0.233633155727E+04    0.13663E-01   -0.15450E+00  4524   0.997E-01    0.334E-01
RMM:   2    -0.233634544865E+04   -0.13891E-01   -0.14647E-01  6334   0.201E-01    0.239E-01
RMM:   3    -0.233634680413E+04   -0.13555E-02   -0.15053E-02  5929   0.734E-02    0.276E-01
RMM:   4    -0.233634607964E+04    0.72450E-03   -0.16669E-03  4875   0.198E-02    0.150E-01
RMM:   5    -0.233634616785E+04   -0.88215E-04   -0.74228E-04  4015   0.129E-02    0.179E-01
RMM:   6    -0.233634590544E+04    0.26241E-03   -0.54741E-04  4271   0.123E-02    0.703E-02
RMM:   7    -0.233634589033E+04    0.15116E-04   -0.16041E-04  3100   0.762E-03    0.537E-02
RMM:   8    -0.233634584829E+04    0.42035E-04   -0.36092E-05  2942   0.433E-03    0.993E-03
RMM:   9    -0.233634584560E+04    0.26973E-05   -0.89250E-06  2945   0.221E-03
 141 F= -.23578213E+04 E0= -.23578213E+04  d E =-.804001E-02  mag=     3.0000
       N       E                     dE             d eps       ncg     rms          rms(c)
DAV:   1    -0.233630699894E+04    0.38849E-01   -0.48437E+00  4520   0.178E+00    0.604E-01
RMM:   2    -0.233635020605E+04   -0.43207E-01   -0.45184E-01  6245   0.357E-01    0.462E-01
RMM:   3    -0.233635462944E+04   -0.44234E-02   -0.47318E-02  6043   0.136E-01    0.544E-01
RMM:   4    -0.233635176164E+04    0.28678E-02   -0.53771E-03  5830   0.364E-02    0.277E-01
RMM:   5    -0.233635192564E+04   -0.16400E-03   -0.23401E-03  5137   0.218E-02    0.313E-01
RMM:   6    -0.233635117456E+04    0.75108E-03   -0.17798E-03  5323   0.213E-02    0.131E-01
RMM:   7    -0.233635109656E+04    0.78001E-04   -0.56396E-04  3674   0.128E-02    0.921E-02
RMM:   8    -0.233635097105E+04    0.12550E-03   -0.10566E-04  2988   0.618E-03    0.178E-02
RMM:   9    -0.233635096461E+04    0.64474E-05   -0.26460E-05  2993   0.333E-03
 142 F= -.23578276E+04 E0= -.23578276E+04  d E =-.622409E-02  mag=     3.0000
       N       E                     dE             d eps       ncg     rms          rms(c)
DAV:   1    -0.233634613806E+04    0.48330E-02   -0.55303E-01  4592   0.602E-01    0.204E-01
RMM:   2    -0.233635109777E+04   -0.49597E-02   -0.51609E-02  6290   0.121E-01    0.160E-01
RMM:   3    -0.233635160272E+04   -0.50495E-03   -0.53335E-03  5479   0.444E-02    0.189E-01
RMM:   4    -0.233635124780E+04    0.35492E-03   -0.61476E-04  3406   0.128E-02    0.924E-02
RMM:   5    -0.233635127216E+04   -0.24357E-04   -0.27927E-04  3210   0.879E-03    0.107E-01
RMM:   6    -0.233635118196E+04    0.90195E-04   -0.21575E-04  3504   0.882E-03    0.423E-02
RMM:   7    -0.233635117439E+04    0.75726E-05   -0.65724E-05  3010   0.614E-03
 143 F= -.23578282E+04 E0= -.23578282E+04  d E =-.680682E-02  mag=     3.0000
       N       E                     dE             d eps       ncg     rms          rms(c)
DAV:   1    -0.233631272167E+04    0.38460E-01   -0.48346E+00  4520   0.181E+00    0.599E-01
RMM:   2    -0.233635684951E+04   -0.44128E-01   -0.44930E-01  6357   0.359E-01    0.537E-01
RMM:   3    -0.233636003541E+04   -0.31859E-02   -0.46731E-02  6157   0.134E-01    0.519E-01
RMM:   4    -0.233635710220E+04    0.29332E-02   -0.50286E-03  5772   0.360E-02    0.223E-01
RMM:   5    -0.233635801002E+04   -0.90782E-03   -0.24620E-03  5258   0.228E-02    0.375E-01
RMM:   6    -0.233635671211E+04    0.12979E-02   -0.15907E-03  5130   0.200E-02    0.969E-02
RMM:   7    -0.233635671427E+04   -0.21596E-05   -0.44472E-04  3457   0.115E-02    0.847E-02
RMM:   8    -0.233635660978E+04    0.10449E-03   -0.10353E-04  2965   0.596E-03    0.186E-02
RMM:   9    -0.233635660348E+04    0.63083E-05   -0.25233E-05  3001   0.313E-03
 144 F= -.23578349E+04 E0= -.23578349E+04  d E =-.678799E-02  mag=     3.0000
       N       E                     dE             d eps       ncg     rms          rms(c)
DAV:   1    -0.233633586195E+04    0.20748E-01   -0.23703E+00  4520   0.127E+00    0.419E-01
RMM:   2    -0.233635752063E+04   -0.21659E-01   -0.21991E-01  6347   0.251E-01    0.383E-01
RMM:   3    -0.233635895946E+04   -0.14388E-02   -0.22670E-02  6082   0.916E-02    0.361E-01
RMM:   4    -0.233635754494E+04    0.14145E-02   -0.24571E-03  5406   0.251E-02    0.158E-01
RMM:   5    -0.233635799948E+04   -0.45454E-03   -0.12217E-03  4658   0.163E-02    0.266E-01
RMM:   6    -0.233635733532E+04    0.66416E-03   -0.80222E-04  4649   0.147E-02    0.627E-02
RMM:   7    -0.233635734225E+04   -0.69303E-05   -0.20902E-04  3158   0.882E-03    0.582E-02
RMM:   8    -0.233635729303E+04    0.49218E-04   -0.52025E-05  2946   0.455E-03    0.133E-02
RMM:   9    -0.233635728982E+04    0.32176E-05   -0.12552E-05  2964   0.245E-03
 145 F= -.23578366E+04 E0= -.23578366E+04  d E =-.842892E-02  mag=     3.0000
       N       E                     dE             d eps       ncg     rms          rms(c)
DAV:   1    -0.233632987452E+04    0.27419E-01   -0.35040E+00  4520   0.154E+00    0.501E-01
RMM:   2    -0.233636370814E+04   -0.33834E-01   -0.33539E-01  6439   0.306E-01    0.533E-01
RMM:   3    -0.233636456745E+04   -0.85932E-03   -0.34909E-02  6174   0.111E-01    0.398E-01
RMM:   4    -0.233636280977E+04    0.17577E-02   -0.35284E-03  5412   0.286E-02    0.162E-01
RMM:   5    -0.233636342285E+04   -0.61309E-03   -0.16685E-03  5021   0.201E-02    0.286E-01
RMM:   6    -0.233636259274E+04    0.83012E-03   -0.85183E-04  4520   0.151E-02    0.778E-02
RMM:   7    -0.233636256101E+04    0.31727E-04   -0.12577E-04  3084   0.677E-03    0.419E-02
RMM:   8    -0.233636254034E+04    0.20671E-04   -0.38195E-05  2961   0.445E-03    0.182E-02
RMM:   9    -0.233636253438E+04    0.59616E-05   -0.12067E-05  2957   0.234E-03
 146 F= -.23578431E+04 E0= -.23578431E+04  d E =-.648011E-02  mag=     3.0000
       N       E                     dE             d eps       ncg     rms          rms(c)
DAV:   1    -0.233630618605E+04    0.56354E-01   -0.63109E+00  4520   0.207E+00    0.673E-01
RMM:   2    -0.233636732437E+04   -0.61138E-01   -0.60627E-01  6431   0.412E-01    0.718E-01
RMM:   3    -0.233636890434E+04   -0.15800E-02   -0.63193E-02  6242   0.149E-01    0.540E-01
RMM:   4    -0.233636572276E+04    0.31816E-02   -0.63826E-03  5599   0.383E-02    0.225E-01
RMM:   5    -0.233636710858E+04   -0.13858E-02   -0.31024E-03  5383   0.263E-02    0.419E-01
RMM:   6    -0.233636528088E+04    0.18277E-02   -0.17144E-03  5314   0.203E-02    0.964E-02
RMM:   7    -0.233636525451E+04    0.26371E-04   -0.27465E-04  3225   0.934E-03    0.660E-02
RMM:   8    -0.233636520087E+04    0.53642E-04   -0.82874E-05  2993   0.563E-03    0.237E-02
RMM:   9    -0.233636518994E+04    0.10927E-04   -0.23633E-05  3011   0.303E-03    0.111E-02
RMM:  10    -0.233636518823E+04    0.17115E-05   -0.90494E-06  2922   0.279E-03
 147 F= -.23578474E+04 E0= -.23578474E+04  d E =-.108058E-01  mag=     3.0000
       N       E                     dE             d eps       ncg     rms          rms(c)
DAV:   1    -0.233635711686E+04    0.80731E-02   -0.84116E-01  4544   0.755E-01    0.245E-01
RMM:   2    -0.233636522994E+04   -0.81131E-02   -0.80343E-02  6454   0.150E-01    0.263E-01
RMM:   3    -0.233636543436E+04   -0.20442E-03   -0.83859E-03  5821   0.538E-02    0.195E-01
RMM:   4    -0.233636501466E+04    0.41970E-03   -0.84688E-04  4058   0.142E-02    0.815E-02
RMM:   5    -0.233636520201E+04   -0.18735E-03   -0.41763E-04  3626   0.105E-02    0.155E-01
RMM:   6    -0.233636495482E+04    0.24719E-03   -0.23181E-04  3301   0.901E-03    0.338E-02
RMM:   7    -0.233636495230E+04    0.25152E-05   -0.39430E-05  2999   0.527E-03
 148 F= -.23578478E+04 E0= -.23578478E+04  d E =-.111836E-01  mag=     3.0000
       N       E                     dE             d eps       ncg     rms          rms(c)
DAV:   1    -0.233631539113E+04    0.49564E-01   -0.58712E+00  4520   0.200E+00    0.657E-01
RMM:   2    -0.233637198703E+04   -0.56596E-01   -0.55850E-01  6403   0.402E-01    0.717E-01
RMM:   3    -0.233637328762E+04   -0.13006E-02   -0.57877E-02  6226   0.146E-01    0.560E-01
RMM:   4    -0.233637035909E+04    0.29285E-02   -0.61550E-03  5533   0.382E-02    0.269E-01
RMM:   5    -0.233637108087E+04   -0.72178E-03   -0.26039E-03  5208   0.238E-02    0.367E-01
RMM:   6    -0.233636964162E+04    0.14392E-02   -0.18263E-03  5250   0.223E-02    0.846E-02
RMM:   7    -0.233636967783E+04   -0.36207E-04   -0.46130E-04  3434   0.140E-02    0.879E-02
RMM:   8    -0.233636957688E+04    0.10095E-03   -0.11075E-04  3039   0.569E-03    0.194E-02
RMM:   9    -0.233636956949E+04    0.73872E-05   -0.26355E-05  2997   0.308E-03
 149 F= -.23578540E+04 E0= -.23578540E+04  d E =-.627102E-02  mag=     3.0000
       N       E                     dE             d eps       ncg     rms          rms(c)
DAV:   1    -0.233634525074E+04    0.24326E-01   -0.26459E+00  4520   0.134E+00    0.440E-01
RMM:   2    -0.233637072844E+04   -0.25478E-01   -0.25120E-01  6355   0.269E-01    0.485E-01
RMM:   3    -0.233637131176E+04   -0.58332E-03   -0.26056E-02  6138   0.975E-02    0.377E-01
RMM:   4    -0.233636999970E+04    0.13121E-02   -0.27839E-03  5236   0.258E-02    0.186E-01
RMM:   5    -0.233637027259E+04   -0.27289E-03   -0.11729E-03  4406   0.165E-02    0.242E-01
RMM:   6    -0.233636964957E+04    0.62302E-03   -0.85330E-04  4763   0.158E-02    0.559E-02
RMM:   7    -0.233636966577E+04   -0.16202E-04   -0.20968E-04  3144   0.104E-02    0.588E-02
RMM:   8    -0.233636962086E+04    0.44915E-04   -0.50639E-05  2969   0.423E-03    0.131E-02
RMM:   9    -0.233636961741E+04    0.34462E-05   -0.12266E-05  2940   0.233E-03
 150 F= -.23578552E+04 E0= -.23578552E+04  d E =-.743325E-02  mag=     3.0000
