       N       E                     dE             d eps       ncg     rms          rms(c)
DAV:   1     0.128676237813E+05    0.12868E+05   -0.83606E+05  4512   0.144E+03
DAV:   2    -0.106077947574E+04   -0.13928E+05   -0.13328E+05  5112   0.330E+02
DAV:   3    -0.247841675979E+04   -0.14176E+04   -0.14026E+04  5416   0.112E+02
DAV:   4    -0.252302656649E+04   -0.44610E+02   -0.44364E+02  6752   0.294E+01
DAV:   5    -0.252384758416E+04   -0.82102E+00   -0.81971E+00  6040   0.340E+00    0.170E+02
RMM:   6    -0.149570100027E+04    0.10281E+04   -0.19405E+03  4434   0.385E+01    0.737E+01
RMM:   7    -0.168195832256E+04   -0.18626E+03   -0.29985E+02  5070   0.147E+01    0.595E+01
RMM:   8    -0.169646265268E+04   -0.14504E+02   -0.90236E+01  5361   0.827E+00    0.418E+01
RMM:   9    -0.178385149603E+04   -0.87389E+02   -0.56200E+01  4930   0.747E+00    0.321E+01
RMM:  10    -0.191800522867E+04   -0.13415E+03   -0.57031E+01  5237   0.716E+00    0.253E+01
RMM:  11    -0.199191787442E+04   -0.73913E+02   -0.27322E+01  5197   0.447E+00    0.224E+01
RMM:  12    -0.207115479676E+04   -0.79237E+02   -0.33200E+01  4828   0.462E+00    0.158E+01
RMM:  13    -0.220281661350E+04   -0.13166E+03   -0.96587E+01  4480   0.709E+00    0.978E+00
RMM:  14    -0.227794263921E+04   -0.75126E+02   -0.65300E+01  4773   0.591E+00    0.892E+00
RMM:  15    -0.230198717798E+04   -0.24045E+02   -0.21418E+01  4733   0.371E+00    0.602E+00
RMM:  16    -0.231440274840E+04   -0.12416E+02   -0.12139E+01  4578   0.232E+00    0.298E+00
RMM:  17    -0.231777884042E+04   -0.33761E+01   -0.25135E+00  4903   0.147E+00    0.232E+00
RMM:  18    -0.231891510600E+04   -0.11363E+01   -0.11041E+00  5005   0.581E-01    0.113E+00
RMM:  19    -0.231923089237E+04   -0.31579E+00   -0.36774E-01  4695   0.429E-01    0.544E-01
RMM:  20    -0.231938892151E+04   -0.15803E+00   -0.13167E-01  4681   0.218E-01    0.363E-01
RMM:  21    -0.231943057249E+04   -0.41651E-01   -0.32738E-02  4752   0.138E-01    0.219E-01
RMM:  22    -0.231945609757E+04   -0.25525E-01   -0.13396E-02  4516   0.798E-02    0.141E-01
RMM:  23    -0.231947001880E+04   -0.13921E-01   -0.53934E-03  4540   0.619E-02    0.115E-01
RMM:  24    -0.231947948931E+04   -0.94705E-02   -0.30538E-03  4470   0.427E-02    0.732E-02
RMM:  25    -0.231948447932E+04   -0.49900E-02   -0.14956E-03  4497   0.340E-02    0.335E-02
RMM:  26    -0.231948744310E+04   -0.29638E-02   -0.89818E-04  4163   0.220E-02    0.190E-02
RMM:  27    -0.231948887236E+04   -0.14293E-02   -0.43139E-04  4021   0.182E-02    0.114E-02
RMM:  28    -0.231948929908E+04   -0.42672E-03   -0.17062E-04  3855   0.109E-02    0.602E-03
RMM:  29    -0.231948944651E+04   -0.14743E-03   -0.47878E-05  3468   0.750E-03    0.434E-03
RMM:  30    -0.231948952038E+04   -0.73869E-04   -0.20768E-05  3068   0.429E-03    0.261E-03
RMM:  31    -0.231948955071E+04   -0.30330E-04   -0.81803E-06  2848   0.332E-03    0.150E-03
RMM:  32    -0.231948956115E+04   -0.10441E-04   -0.46634E-06  2589   0.243E-03    0.764E-04
RMM:  33    -0.231948956327E+04   -0.21213E-05   -0.22099E-06  2396   0.189E-03
   1 F= -.23404449E+04 E0= -.23404449E+04  d E =-.234044E+04  mag=     6.0000
       N       E                     dE             d eps       ncg     rms          rms(c)
DAV:   1    -0.232037758688E+04   -0.88803E+00   -0.64685E+01  4784   0.453E+00    0.222E+00
RMM:   2    -0.232087324659E+04   -0.49566E+00   -0.56063E+00  5971   0.110E+00    0.224E+00
RMM:   3    -0.232087797860E+04   -0.47320E-02   -0.60219E-01  5668   0.435E-01    0.178E+00
RMM:   4    -0.232084987434E+04    0.28104E-01   -0.77831E-02  5777   0.116E-01    0.908E-01
RMM:   5    -0.232084831532E+04    0.15590E-02   -0.26100E-02  5869   0.693E-02    0.920E-01
RMM:   6    -0.232084043295E+04    0.78824E-02   -0.21349E-02  5678   0.623E-02    0.333E-01
RMM:   7    -0.232083922043E+04    0.12125E-02   -0.20427E-03  4886   0.298E-02    0.915E-02
RMM:   8    -0.232083914187E+04    0.78558E-04   -0.45388E-04  4469   0.980E-03    0.492E-02
RMM:   9    -0.232083911753E+04    0.24335E-04   -0.97494E-05  3357   0.766E-03    0.196E-02
RMM:  10    -0.232083911516E+04    0.23697E-05   -0.41504E-05  3206   0.533E-03
   2 F= -.23417958E+04 E0= -.23417958E+04  d E =-.135095E+01  mag=     6.0000
       N       E                     dE             d eps       ncg     rms          rms(c)
DAV:   1    -0.232093284597E+04   -0.93728E-01   -0.45363E+01  4656   0.396E+00    0.190E+00
RMM:   2    -0.232123808454E+04   -0.30524E+00   -0.37444E+00  5910   0.890E-01    0.179E+00
RMM:   3    -0.232124127954E+04   -0.31950E-02   -0.39364E-01  5791   0.338E-01    0.145E+00
RMM:   4    -0.232122115780E+04    0.20122E-01   -0.58128E-02  5735   0.975E-02    0.810E-01
RMM:   5    -0.232122037193E+04    0.78587E-03   -0.23386E-02  5760   0.654E-02    0.850E-01
RMM:   6    -0.232121320503E+04    0.71669E-02   -0.14109E-02  5674   0.518E-02    0.261E-01
RMM:   7    -0.232121239626E+04    0.80876E-03   -0.12630E-03  4798   0.223E-02    0.855E-02
RMM:   8    -0.232121231437E+04    0.81887E-04   -0.32607E-04  4163   0.854E-03    0.374E-02
RMM:   9    -0.232121229340E+04    0.20977E-04   -0.58624E-05  3117   0.657E-03    0.171E-02
RMM:  10    -0.232121228731E+04    0.60886E-05   -0.37393E-05  3158   0.508E-03
   3 F= -.23421707E+04 E0= -.23421707E+04  d E =-.172580E+01  mag=     6.0000
       N       E                     dE             d eps       ncg     rms          rms(c)
DAV:   1    -0.232135966341E+04   -0.14737E+00   -0.38656E+01  4592   0.431E+00    0.189E+00
RMM:   2    -0.232188313013E+04   -0.52347E+00   -0.53519E+00  6034   0.103E+00    0.198E+00
RMM:   3    -0.232188031826E+04    0.28119E-02   -0.56824E-01  5611   0.438E-01    0.897E-01
RMM:   4    -0.232187633462E+04    0.39836E-02   -0.51751E-02  5627   0.857E-02    0.593E-01
RMM:   5    -0.232187678685E+04   -0.45223E-03   -0.10172E-02  5507   0.467E-02    0.622E-01
RMM:   6    -0.232187322413E+04    0.35627E-02   -0.62609E-03  5377   0.379E-02    0.224E-01
RMM:   7    -0.232187302444E+04    0.19969E-03   -0.11399E-03  4710   0.217E-02    0.606E-02
RMM:   8    -0.232187301029E+04    0.14156E-04   -0.19193E-04  3568   0.944E-03    0.311E-02
RMM:   9    -0.232187301330E+04   -0.30176E-05   -0.53270E-05  3020   0.597E-03
   4 F= -.23428322E+04 E0= -.23428322E+04  d E =-.661577E+00  mag=     6.0000
       N       E                     dE             d eps       ncg     rms          rms(c)
DAV:   1    -0.232164770927E+04    0.22530E+00   -0.33668E+01  4624   0.404E+00    0.174E+00
RMM:   2    -0.232208891928E+04   -0.44121E+00   -0.46062E+00  6044   0.969E-01    0.155E+00
RMM:   3    -0.232209834965E+04   -0.94304E-02   -0.49438E-01  5705   0.409E-01    0.775E-01
RMM:   4    -0.232209525002E+04    0.30996E-02   -0.40345E-02  5545   0.762E-02    0.439E-01
RMM:   5    -0.232209423351E+04    0.10165E-02   -0.74540E-03  5567   0.459E-02    0.343E-01
RMM:   6    -0.232209445407E+04   -0.22056E-03   -0.40370E-03  5615   0.302E-02    0.352E-01
RMM:   7    -0.232209340322E+04    0.10508E-02   -0.10424E-03  4665   0.192E-02    0.526E-02
RMM:   8    -0.232209339275E+04    0.10469E-04   -0.19387E-04  3445   0.718E-03    0.450E-02
RMM:   9    -0.232209337492E+04    0.17828E-04   -0.86982E-05  2962   0.655E-03    0.191E-02
RMM:  10    -0.232209337389E+04    0.10298E-05   -0.17400E-05  2919   0.386E-03
   5 F= -.23430535E+04 E0= -.23430535E+04  d E =-.882857E+00  mag=     6.0000
       N       E                     dE             d eps       ncg     rms          rms(c)
DAV:   1    -0.232214171172E+04   -0.48337E-01   -0.44132E+01  4552   0.388E+00    0.190E+00
RMM:   2    -0.232247198400E+04   -0.33027E+00   -0.40022E+00  6337   0.956E-01    0.147E+00
RMM:   3    -0.232248547564E+04   -0.13492E-01   -0.35484E-01  6039   0.290E-01    0.127E+00
RMM:   4    -0.232246850131E+04    0.16974E-01   -0.54900E-02  5866   0.922E-02    0.747E-01
RMM:   5    -0.232246328532E+04    0.52160E-02   -0.23130E-02  5514   0.704E-02    0.551E-01
RMM:   6    -0.232246264685E+04    0.63846E-03   -0.95310E-03  5429   0.473E-02    0.499E-01
RMM:   7    -0.232246036978E+04    0.22771E-02   -0.23544E-03  4651   0.236E-02    0.681E-02
RMM:   8    -0.232246032770E+04    0.42074E-04   -0.36963E-04  3378   0.929E-03    0.446E-02
RMM:   9    -0.232246032462E+04    0.30783E-05   -0.12757E-04  3153   0.682E-03    0.173E-02
RMM:  10    -0.232246033817E+04   -0.13542E-04   -0.29370E-05  2964   0.467E-03    0.784E-03
RMM:  11    -0.232246034723E+04   -0.90671E-05   -0.85997E-06  2874   0.319E-03
   6 F= -.23434200E+04 E0= -.23434200E+04  d E =-.366494E+00  mag=     6.0000
       N       E                     dE             d eps       ncg     rms          rms(c)
DAV:   1    -0.232247292246E+04   -0.12584E-01   -0.22394E+00  4648   0.895E-01    0.411E-01
RMM:   2    -0.232248935311E+04   -0.16431E-01   -0.19056E-01  6333   0.212E-01    0.363E-01
RMM:   3    -0.232248959293E+04   -0.23982E-03   -0.15781E-02  5505   0.636E-02    0.270E-01
RMM:   4    -0.232248882233E+04    0.77060E-03   -0.25144E-03  4618   0.196E-02    0.155E-01
RMM:   5    -0.232248881895E+04    0.33833E-05   -0.13431E-03  4243   0.168E-02    0.182E-01
RMM:   6    -0.232248850038E+04    0.31857E-03   -0.52339E-04  3741   0.121E-02    0.536E-02
RMM:   7    -0.232248847889E+04    0.21490E-04   -0.40715E-05  2955   0.510E-03    0.179E-02
RMM:   8    -0.232248847584E+04    0.30500E-05   -0.12686E-05  2901   0.258E-03
   7 F= -.23434483E+04 E0= -.23434483E+04  d E =-.394827E+00  mag=     6.0000
       N       E                     dE             d eps       ncg     rms          rms(c)
DAV:   1    -0.232243188139E+04    0.56597E-01   -0.12739E+01  4648   0.263E+00    0.127E+00
RMM:   2    -0.232264986219E+04   -0.21798E+00   -0.22160E+00  6352   0.689E-01    0.129E+00
RMM:   3    -0.232265721735E+04   -0.73552E-02   -0.21398E-01  6092   0.227E-01    0.903E-01
RMM:   4    -0.232265014368E+04    0.70737E-02   -0.20912E-02  5702   0.573E-02    0.389E-01
RMM:   5    -0.232264993430E+04    0.20937E-03   -0.61739E-03  5556   0.365E-02    0.431E-01
RMM:   6    -0.232264840792E+04    0.15264E-02   -0.40104E-03  5463   0.317E-02    0.224E-01
RMM:   7    -0.232264802940E+04    0.37852E-03   -0.64476E-04  4217   0.142E-02    0.445E-02
RMM:   8    -0.232264799306E+04    0.36340E-04   -0.10314E-04  3031   0.661E-03    0.224E-02
RMM:   9    -0.232264798149E+04    0.11570E-04   -0.50709E-05  3068   0.451E-03    0.877E-03
RMM:  10    -0.232264798167E+04   -0.17566E-06   -0.10555E-05  2912   0.314E-03
   8 F= -.23436077E+04 E0= -.23436077E+04  d E =-.159373E+00  mag=     6.0000
       N       E                     dE             d eps       ncg     rms          rms(c)
DAV:   1    -0.232264764682E+04    0.33467E-03   -0.52043E-02  5168   0.166E-01    0.819E-02
RMM:   2    -0.232264856979E+04   -0.92297E-03   -0.91120E-03  6098   0.446E-02    0.980E-02
RMM:   3    -0.232264854938E+04    0.20413E-04   -0.81081E-04  3246   0.148E-02    0.492E-02
RMM:   4    -0.232264853370E+04    0.15677E-04   -0.91915E-05  2960   0.460E-03    0.271E-02
RMM:   5    -0.232264853329E+04    0.41298E-06   -0.23996E-05  2768   0.292E-03
   9 F= -.23436083E+04 E0= -.23436083E+04  d E =-.159918E+00  mag=     6.0000
       N       E                     dE             d eps       ncg     rms          rms(c)
DAV:   1    -0.232257773836E+04    0.70795E-01   -0.98023E+00  4512   0.222E+00    0.112E+00
RMM:   2    -0.232278145642E+04   -0.20372E+00   -0.19799E+00  6484   0.618E-01    0.142E+00
RMM:   3    -0.232277879705E+04    0.26594E-02   -0.18616E-01  6042   0.206E-01    0.644E-01
RMM:   4    -0.232277615003E+04    0.26470E-02   -0.19332E-02  5443   0.472E-02    0.292E-01
RMM:   5    -0.232277583340E+04    0.31663E-03   -0.26797E-03  4960   0.235E-02    0.309E-01
RMM:   6    -0.232277505024E+04    0.78316E-03   -0.19418E-03  4963   0.220E-02    0.190E-01
RMM:   7    -0.232277476541E+04    0.28483E-03   -0.78666E-04  4189   0.153E-02    0.385E-02
RMM:   8    -0.232277475117E+04    0.14235E-04   -0.86040E-05  2982   0.634E-03    0.183E-02
RMM:   9    -0.232277474755E+04    0.36282E-05   -0.18350E-05  2943   0.341E-03
  10 F= -.23437341E+04 E0= -.23437341E+04  d E =-.125875E+00  mag=     6.0000
       N       E                     dE             d eps       ncg     rms          rms(c)
DAV:   1    -0.232263746221E+04    0.13729E+00   -0.87502E+00  4520   0.211E+00    0.107E+00
RMM:   2    -0.232282209706E+04   -0.18463E+00   -0.17837E+00  6468   0.585E-01    0.142E+00
RMM:   3    -0.232281772576E+04    0.43713E-02   -0.16580E-01  6027   0.195E-01    0.606E-01
RMM:   4    -0.232281547313E+04    0.22526E-02   -0.17788E-02  5392   0.448E-02    0.272E-01
RMM:   5    -0.232281507499E+04    0.39813E-03   -0.23737E-03  4929   0.225E-02    0.279E-01
RMM:   6    -0.232281451358E+04    0.56141E-03   -0.17630E-03  4879   0.208E-02    0.193E-01
RMM:   7    -0.232281420291E+04    0.31067E-03   -0.72588E-04  4069   0.145E-02    0.372E-02
RMM:   8    -0.232281418910E+04    0.13809E-04   -0.78091E-05  2984   0.630E-03    0.176E-02
RMM:   9    -0.232281418610E+04    0.30045E-05   -0.18285E-05  2945   0.332E-03
  11 F= -.23437731E+04 E0= -.23437731E+04  d E =-.164840E+00  mag=     6.0000
       N       E                     dE             d eps       ncg     rms          rms(c)
DAV:   1    -0.232281432328E+04   -0.13417E-03   -0.33013E+00  4512   0.131E+00    0.685E-01
RMM:   2    -0.232289566901E+04   -0.81346E-01   -0.77433E-01  6482   0.376E-01    0.960E-01
RMM:   3    -0.232289298539E+04    0.26836E-02   -0.70606E-02  5904   0.127E-01    0.350E-01
RMM:   4    -0.232289240989E+04    0.57551E-03   -0.72520E-03  4833   0.273E-02    0.171E-01
RMM:   5    -0.232289227247E+04    0.13741E-03   -0.68061E-04  3759   0.121E-02    0.162E-01
RMM:   6    -0.232289203209E+04    0.24038E-03   -0.47541E-04  3896   0.116E-02    0.106E-01
RMM:   7    -0.232289195003E+04    0.82061E-04   -0.37040E-04  3538   0.111E-02    0.261E-02
RMM:   8    -0.232289194518E+04    0.48480E-05   -0.37922E-05  2942   0.483E-03
  12 F= -.23438500E+04 E0= -.23438500E+04  d E =-.769102E-01  mag=     6.0000
       N       E                     dE             d eps       ncg     rms          rms(c)
DAV:   1    -0.232232948299E+04    0.56247E+00   -0.29546E+01  4472   0.393E+00    0.206E+00
RMM:   2    -0.232308464690E+04   -0.75516E+00   -0.72466E+00  6539   0.116E+00    0.277E+00
RMM:   3    -0.232306408244E+04    0.20564E-01   -0.65949E-01  6004   0.384E-01    0.109E+00
RMM:   4    -0.232305745302E+04    0.66294E-02   -0.64683E-02  5702   0.841E-02    0.510E-01
RMM:   5    -0.232305612687E+04    0.13262E-02   -0.60038E-03  5246   0.340E-02    0.477E-01
RMM:   6    -0.232305416461E+04    0.19623E-02   -0.43407E-03  5241   0.316E-02    0.331E-01
RMM:   7    -0.232305333132E+04    0.83330E-03   -0.35436E-03  4940   0.303E-02    0.924E-02
RMM:   8    -0.232305326329E+04    0.68021E-04   -0.34180E-04  3333   0.104E-02    0.354E-02
RMM:   9    -0.232305326801E+04   -0.47169E-05   -0.56127E-05  3021   0.519E-03
  13 F= -.23440075E+04 E0= -.23440075E+04  d E =-.234429E+00  mag=     6.0000
       N       E                     dE             d eps       ncg     rms          rms(c)
DAV:   1    -0.232000126278E+04    0.30520E+01   -0.11810E+02  4480   0.790E+00    0.410E+00
RMM:   2    -0.232316183712E+04   -0.31606E+01   -0.30499E+01  6573   0.242E+00    0.532E+00
RMM:   3    -0.232308584139E+04    0.75996E-01   -0.29832E+00  5802   0.955E-01    0.213E+00
RMM:   4    -0.232305369971E+04    0.32142E-01   -0.26435E-01  5743   0.180E-01    0.100E+00
RMM:   5    -0.232304796964E+04    0.57301E-02   -0.24470E-02  5563   0.688E-02    0.926E-01
RMM:   6    -0.232304104694E+04    0.69227E-02   -0.17900E-02  5615   0.610E-02    0.691E-01
RMM:   7    -0.232303744890E+04    0.35980E-02   -0.15810E-02  5360   0.612E-02    0.243E-01
RMM:   8    -0.232303693160E+04    0.51731E-03   -0.14258E-03  4448   0.210E-02    0.776E-02
RMM:   9    -0.232303697191E+04   -0.40313E-04   -0.29036E-04  3728   0.878E-03    0.579E-02
RMM:  10    -0.232303702407E+04   -0.52162E-04   -0.15964E-04  3358   0.869E-03    0.188E-02
RMM:  11    -0.232303707217E+04   -0.48098E-04   -0.32468E-05  3023   0.451E-03    0.115E-02
RMM:  12    -0.232303710658E+04   -0.34409E-04   -0.11315E-05  2870   0.366E-03    0.729E-03
RMM:  13    -0.232303713059E+04   -0.24011E-04   -0.84826E-06  2846   0.320E-03    0.543E-03
RMM:  14    -0.232303714316E+04   -0.12567E-04   -0.61749E-06  2821   0.286E-03    0.338E-03
RMM:  15    -0.232303714826E+04   -0.51038E-05   -0.35628E-06  2683   0.244E-03
  14 F= -.23439824E+04 E0= -.23439824E+04  d E =-.209281E+00  mag=     6.0000
       N       E                     dE             d eps       ncg     rms          rms(c)
DAV:   1    -0.232217700705E+04    0.86014E+00   -0.37221E+01  4496   0.444E+00    0.233E+00
RMM:   2    -0.232316766243E+04   -0.99066E+00   -0.93777E+00  6558   0.137E+00    0.342E+00
RMM:   3    -0.232311437850E+04    0.53284E-01   -0.81269E-01  5963   0.442E-01    0.112E+00
RMM:   4    -0.232310851909E+04    0.58594E-02   -0.81708E-02  5588   0.925E-02    0.521E-01
RMM:   5    -0.232310529718E+04    0.32219E-02   -0.60540E-03  5223   0.383E-02    0.450E-01
RMM:   6    -0.232310525654E+04    0.40642E-04   -0.77677E-03  5301   0.426E-02    0.442E-01
RMM:   7    -0.232310331621E+04    0.19403E-02   -0.31954E-03  5126   0.277E-02    0.870E-02
RMM:   8    -0.232310324622E+04    0.69990E-04   -0.24431E-04  3188   0.976E-03    0.380E-02
RMM:   9    -0.232310325789E+04   -0.11672E-04   -0.85952E-05  3199   0.558E-03    0.245E-02
RMM:  10    -0.232310327384E+04   -0.15952E-04   -0.29361E-05  2920   0.478E-03    0.834E-03
RMM:  11    -0.232310328519E+04   -0.11348E-04   -0.91778E-06  2878   0.295E-03    0.507E-03
RMM:  12    -0.232310329395E+04   -0.87647E-05   -0.45454E-06  2803   0.244E-03
  15 F= -.23440533E+04 E0= -.23440533E+04  d E =-.280224E+00  mag=     6.0000
       N       E                     dE             d eps       ncg     rms          rms(c)
DAV:   1    -0.232294637853E+04    0.15691E+00   -0.10931E+01  4488   0.241E+00    0.130E+00
RMM:   2    -0.232324735497E+04   -0.30098E+00   -0.28335E+00  6505   0.728E-01    0.194E+00
RMM:   3    -0.232322895580E+04    0.18399E-01   -0.23623E-01  5965   0.230E-01    0.635E-01
RMM:   4    -0.232322719900E+04    0.17568E-02   -0.25101E-02  5443   0.527E-02    0.328E-01
RMM:   5    -0.232322670951E+04    0.48948E-03   -0.22679E-03  4692   0.211E-02    0.286E-01
RMM:   6    -0.232322592408E+04    0.78544E-03   -0.15127E-03  4902   0.192E-02    0.196E-01
RMM:   7    -0.232322564338E+04    0.28070E-03   -0.12509E-03  4353   0.193E-02    0.591E-02
RMM:   8    -0.232322561035E+04    0.33031E-04   -0.12375E-04  3091   0.669E-03    0.210E-02
RMM:   9    -0.232322561093E+04   -0.57675E-06   -0.22639E-05  2934   0.379E-03
  16 F= -.23441726E+04 E0= -.23441726E+04  d E =-.119220E+00  mag=     6.0000
       N       E                     dE             d eps       ncg     rms          rms(c)
DAV:   1    -0.232072668142E+04    0.24989E+01   -0.98025E+01  4480   0.739E+00    0.398E+00
RMM:   2    -0.232375258651E+04   -0.30259E+01   -0.28552E+01  6549   0.236E+00    0.594E+00
RMM:   3    -0.232347213597E+04    0.28045E+00   -0.25077E+00  5766   0.856E-01    0.167E+00
RMM:   4    -0.232346362191E+04    0.85141E-02   -0.25162E-01  5767   0.171E-01    0.109E+00
RMM:   5    -0.232345756747E+04    0.60544E-02   -0.23435E-02  5545   0.665E-02    0.845E-01
RMM:   6    -0.232345101973E+04    0.65477E-02   -0.11465E-02  5288   0.495E-02    0.658E-01
RMM:   7    -0.232344812745E+04    0.28923E-02   -0.16381E-02  5131   0.701E-02    0.314E-01
RMM:   8    -0.232344719178E+04    0.93567E-03   -0.13565E-03  4767   0.200E-02    0.103E-01
RMM:   9    -0.232344716111E+04    0.30673E-04   -0.28030E-04  3489   0.103E-02    0.383E-02
RMM:  10    -0.232344721867E+04   -0.57566E-04   -0.98988E-05  3210   0.662E-03    0.147E-02
RMM:  11    -0.232344725871E+04   -0.40037E-04   -0.25028E-05  2944   0.437E-03    0.923E-03
RMM:  12    -0.232344729269E+04   -0.33986E-04   -0.11729E-05  2885   0.335E-03    0.651E-03
RMM:  13    -0.232344731024E+04   -0.17546E-04   -0.58098E-06  2823   0.302E-03    0.474E-03
RMM:  14    -0.232344732242E+04   -0.12175E-04   -0.58490E-06  2777   0.250E-03    0.268E-03
RMM:  15    -0.232344732596E+04   -0.35490E-05   -0.27434E-06  2642   0.234E-03
  17 F= -.23443874E+04 E0= -.23443874E+04  d E =-.334024E+00  mag=     6.0000
       N       E                     dE             d eps       ncg     rms          rms(c)
DAV:   1    -0.232317960878E+04    0.26771E+00   -0.10601E+01  4512   0.246E+00    0.129E+00
RMM:   2    -0.232348165482E+04   -0.30205E+00   -0.28367E+00  6528   0.771E-01    0.199E+00
RMM:   3    -0.232346047223E+04    0.21183E-01   -0.22810E-01  5965   0.230E-01    0.609E-01
RMM:   4    -0.232345902132E+04    0.14509E-02   -0.25036E-02  5452   0.526E-02    0.315E-01
RMM:   5    -0.232345862765E+04    0.39367E-03   -0.22357E-03  4762   0.217E-02    0.291E-01
RMM:   6    -0.232345787301E+04    0.75464E-03   -0.15858E-03  4950   0.200E-02    0.209E-01
RMM:   7    -0.232345754212E+04    0.33090E-03   -0.12823E-03  4433   0.196E-02    0.601E-02
RMM:   8    -0.232345751140E+04    0.30715E-04   -0.11396E-04  3069   0.674E-03    0.219E-02
RMM:   9    -0.232345751511E+04   -0.37070E-05   -0.24955E-05  2917   0.386E-03
  18 F= -.23443958E+04 E0= -.23443958E+04  d E =-.342479E+00  mag=     6.0000
       N       E                     dE             d eps       ncg     rms          rms(c)
DAV:   1    -0.232333841272E+04    0.11910E+00   -0.97082E+00  4480   0.254E+00    0.118E+00
RMM:   2    -0.232355440894E+04   -0.21600E+00   -0.20882E+00  6315   0.714E-01    0.167E+00
RMM:   3    -0.232354226944E+04    0.12139E-01   -0.17017E-01  5920   0.211E-01    0.660E-01
RMM:   4    -0.232353892394E+04    0.33455E-02   -0.19036E-02  5541   0.523E-02    0.279E-01
RMM:   5    -0.232353849985E+04    0.42408E-03   -0.35705E-03  5348   0.287E-02    0.295E-01
RMM:   6    -0.232353775530E+04    0.74455E-03   -0.22453E-03  5289   0.241E-02    0.179E-01
RMM:   7    -0.232353747036E+04    0.28494E-03   -0.53887E-04  4099   0.137E-02    0.384E-02
RMM:   8    -0.232353745867E+04    0.11691E-04   -0.84240E-05  3020   0.694E-03    0.216E-02
RMM:   9    -0.232353745681E+04    0.18642E-05   -0.23676E-05  2978   0.421E-03
  19 F= -.23444750E+04 E0= -.23444750E+04  d E =-.791948E-01  mag=     6.0000
       N       E                     dE             d eps       ncg     rms          rms(c)
DAV:   1    -0.232350944918E+04    0.28009E-01   -0.18288E+00  4576   0.109E+00    0.514E-01
RMM:   2    -0.232354894272E+04   -0.39494E-01   -0.38219E-01  6309   0.301E-01    0.725E-01
RMM:   3    -0.232354690409E+04    0.20386E-02   -0.32575E-02  5866   0.902E-02    0.280E-01
RMM:   4    -0.232354630514E+04    0.59896E-03   -0.34806E-03  4697   0.221E-02    0.114E-01
RMM:   5    -0.232354613605E+04    0.16908E-03   -0.56561E-04  4288   0.128E-02    0.897E-02
RMM:   6    -0.232354614729E+04   -0.11239E-04   -0.34505E-04  3743   0.113E-02    0.928E-02
RMM:   7    -0.232354605661E+04    0.90678E-04   -0.10817E-04  3064   0.706E-03    0.157E-02
RMM:   8    -0.232354605487E+04    0.17412E-05   -0.16497E-05  2872   0.382E-03
  20 F= -.23444833E+04 E0= -.23444833E+04  d E =-.875401E-01  mag=     6.0000
       N       E                     dE             d eps       ncg     rms          rms(c)
DAV:   1    -0.232356452557E+04   -0.18469E-01   -0.17114E+00  4600   0.111E+00    0.440E-01
RMM:   2    -0.232359099030E+04   -0.26465E-01   -0.27334E-01  6143   0.264E-01    0.459E-01
RMM:   3    -0.232359161633E+04   -0.62603E-03   -0.25450E-02  5580   0.866E-02    0.299E-01
RMM:   4    -0.232359092387E+04    0.69247E-03   -0.24506E-03  4621   0.213E-02    0.142E-01
RMM:   5    -0.232359094979E+04   -0.25924E-04   -0.83496E-04  4315   0.141E-02    0.174E-01
RMM:   6    -0.232359063220E+04    0.31759E-03   -0.53382E-04  4060   0.125E-02    0.370E-02
RMM:   7    -0.232359062978E+04    0.24226E-05   -0.62396E-05  3020   0.625E-03
  21 F= -.23445280E+04 E0= -.23445280E+04  d E =-.446218E-01  mag=     6.0000
       N       E                     dE             d eps       ncg     rms          rms(c)
DAV:   1    -0.232358148814E+04    0.91441E-02   -0.15137E+00  4616   0.105E+00    0.419E-01
RMM:   2    -0.232360481850E+04   -0.23330E-01   -0.24133E-01  6125   0.249E-01    0.440E-01
RMM:   3    -0.232360531209E+04   -0.49359E-03   -0.22420E-02  5562   0.821E-02    0.286E-01
RMM:   4    -0.232360468714E+04    0.62495E-03   -0.22020E-03  4504   0.202E-02    0.137E-01
RMM:   5    -0.232360472133E+04   -0.34195E-04   -0.78629E-04  4232   0.138E-02    0.169E-01
RMM:   6    -0.232360442133E+04    0.30000E-03   -0.49170E-04  4023   0.121E-02    0.344E-02
RMM:   7    -0.232360441847E+04    0.28673E-05   -0.56947E-05  3004   0.606E-03
  22 F= -.23445419E+04 E0= -.23445419E+04  d E =-.585243E-01  mag=     6.0000
       N       E                     dE             d eps       ncg     rms          rms(c)
DAV:   1    -0.232361527534E+04   -0.10854E-01   -0.13783E+00  4512   0.103E+00    0.326E-01
RMM:   2    -0.232363068747E+04   -0.15412E-01   -0.16576E-01  6127   0.220E-01    0.236E-01
RMM:   3    -0.232363167129E+04   -0.98383E-03   -0.16356E-02  5521   0.783E-02    0.206E-01
RMM:   4    -0.232363138152E+04    0.28977E-03   -0.15774E-03  4511   0.187E-02    0.109E-01
RMM:   5    -0.232363130325E+04    0.78278E-04   -0.48074E-04  4216   0.122E-02    0.106E-01
RMM:   6    -0.232363122762E+04    0.75630E-04   -0.27184E-04  3668   0.101E-02    0.627E-02
RMM:   7    -0.232363119662E+04    0.30994E-04   -0.52428E-05  3054   0.633E-03    0.179E-02
RMM:   8    -0.232363119218E+04    0.44437E-05   -0.11495E-05  2892   0.407E-03
  23 F= -.23445694E+04 E0= -.23445694E+04  d E =-.274834E-01  mag=     6.0000
       N       E                     dE             d eps       ncg     rms          rms(c)
DAV:   1    -0.232360538621E+04    0.25810E-01   -0.35545E+00  4480   0.166E+00    0.523E-01
RMM:   2    -0.232364511008E+04   -0.39724E-01   -0.42756E-01  6075   0.354E-01    0.374E-01
RMM:   3    -0.232364766897E+04   -0.25589E-02   -0.42509E-02  5656   0.125E-01    0.326E-01
RMM:   4    -0.232364699415E+04    0.67482E-03   -0.40703E-03  5350   0.295E-02    0.180E-01
RMM:   5    -0.232364681359E+04    0.18056E-03   -0.11960E-03  4796   0.180E-02    0.179E-01
RMM:   6    -0.232364655983E+04    0.25376E-03   -0.75889E-04  4727   0.153E-02    0.887E-02
RMM:   7    -0.232364649721E+04    0.62623E-04   -0.12878E-04  3491   0.851E-03    0.305E-02
RMM:   8    -0.232364648404E+04    0.13169E-04   -0.24767E-05  2948   0.514E-03    0.125E-02
RMM:   9    -0.232364647981E+04    0.42302E-05   -0.12476E-05  2906   0.347E-03
  24 F= -.23445858E+04 E0= -.23445858E+04  d E =-.439717E-01  mag=     6.0000
       N       E                     dE             d eps       ncg     rms          rms(c)
DAV:   1    -0.232366044503E+04   -0.13961E-01   -0.89752E-01  4512   0.851E-01    0.257E-01
RMM:   2    -0.232366882780E+04   -0.83828E-02   -0.87218E-02  6023   0.172E-01    0.244E-01
RMM:   3    -0.232366913617E+04   -0.30837E-03   -0.83691E-03  5429   0.597E-02    0.187E-01
RMM:   4    -0.232366887347E+04    0.26271E-03   -0.83685E-04  4264   0.151E-02    0.730E-02
RMM:   5    -0.232366880812E+04    0.65346E-04   -0.24077E-04  4178   0.106E-02    0.407E-02
RMM:   6    -0.232366882664E+04   -0.18518E-04   -0.11722E-04  3342   0.826E-03    0.515E-02
RMM:   7    -0.232366880012E+04    0.26515E-04   -0.31451E-05  2935   0.535E-03    0.102E-02
RMM:   8    -0.232366879955E+04    0.57281E-06   -0.55529E-06  2848   0.269E-03
  25 F= -.23446084E+04 E0= -.23446084E+04  d E =-.225982E-01  mag=     6.0000
       N       E                     dE             d eps       ncg     rms          rms(c)
DAV:   1    -0.232363556106E+04    0.33239E-01   -0.80557E+00  4464   0.255E+00    0.766E-01
RMM:   2    -0.232371102109E+04   -0.75460E-01   -0.78818E-01  6003   0.517E-01    0.693E-01
RMM:   3    -0.232371417781E+04   -0.31567E-02   -0.76019E-02  5714   0.180E-01    0.538E-01
RMM:   4    -0.232371198021E+04    0.21976E-02   -0.74613E-03  5440   0.442E-02    0.217E-01
RMM:   5    -0.232371132871E+04    0.65150E-03   -0.21005E-03  5103   0.278E-02    0.953E-02
RMM:   6    -0.232371130471E+04    0.24002E-04   -0.46589E-04  4758   0.181E-02    0.436E-02
RMM:   7    -0.232371130061E+04    0.41033E-05   -0.80311E-05  3339   0.757E-03
  26 F= -.23446518E+04 E0= -.23446518E+04  d E =-.659875E-01  mag=     6.0000
       N       E                     dE             d eps       ncg     rms          rms(c)
DAV:   1    -0.232337664372E+04    0.33466E+00   -0.31996E+01  4464   0.509E+00    0.151E+00
RMM:   2    -0.232368061064E+04   -0.30397E+00   -0.31937E+00  6035   0.105E+00    0.126E+00
RMM:   3    -0.232369578850E+04   -0.15178E-01   -0.31097E-01  5782   0.356E-01    0.101E+00
RMM:   4    -0.232368811283E+04    0.76757E-02   -0.29128E-02  5618   0.869E-02    0.435E-01
RMM:   5    -0.232368598480E+04    0.21280E-02   -0.81213E-03  5273   0.535E-02    0.261E-01
RMM:   6    -0.232368623318E+04   -0.24838E-03   -0.39563E-03  5491   0.399E-02    0.265E-01
RMM:   7    -0.232368548944E+04    0.74374E-03   -0.10909E-03  5231   0.201E-02    0.815E-02
RMM:   8    -0.232368543790E+04    0.51540E-04   -0.12085E-04  3335   0.803E-03    0.298E-02
RMM:   9    -0.232368542598E+04    0.11925E-04   -0.49020E-05  3121   0.559E-03    0.136E-02
RMM:  10    -0.232368542447E+04    0.15078E-05   -0.17573E-05  2947   0.449E-03
  27 F= -.23446277E+04 E0= -.23446277E+04  d E =-.418504E-01  mag=     6.0000
       N       E                     dE             d eps       ncg     rms          rms(c)
DAV:   1    -0.232358417311E+04    0.10125E+00   -0.14170E+01  4496   0.338E+00    0.101E+00
RMM:   2    -0.232371714392E+04   -0.13297E+00   -0.14016E+00  6006   0.696E-01    0.858E-01
RMM:   3    -0.232372487349E+04   -0.77296E-02   -0.14412E-01  5748   0.249E-01    0.734E-01
RMM:   4    -0.232372048640E+04    0.43871E-02   -0.13014E-02  5726   0.601E-02    0.298E-01
RMM:   5    -0.232371952175E+04    0.96465E-03   -0.44380E-03  5367   0.400E-02    0.193E-01
RMM:   6    -0.232371966096E+04   -0.13921E-03   -0.25368E-03  5489   0.292E-02    0.206E-01
RMM:   7    -0.232371921812E+04    0.44285E-03   -0.54142E-04  4267   0.155E-02    0.467E-02
RMM:   8    -0.232371917880E+04    0.39313E-04   -0.10946E-04  3109   0.682E-03    0.211E-02
RMM:   9    -0.232371917310E+04    0.57045E-05   -0.43325E-05  3064   0.482E-03
  28 F= -.23446603E+04 E0= -.23446603E+04  d E =-.744731E-01  mag=     6.0000
       N       E                     dE             d eps       ncg     rms          rms(c)
DAV:   1    -0.232373012636E+04   -0.10948E-01   -0.10546E+00  4544   0.908E-01    0.298E-01
RMM:   2    -0.232374223132E+04   -0.12105E-01   -0.12427E-01  6037   0.194E-01    0.310E-01
RMM:   3    -0.232374239814E+04   -0.16681E-03   -0.12178E-02  5489   0.674E-02    0.182E-01
RMM:   4    -0.232374211956E+04    0.27858E-03   -0.11593E-03  4369   0.158E-02    0.848E-02
RMM:   5    -0.232374202665E+04    0.92906E-04   -0.30492E-04  4250   0.110E-02    0.617E-02
RMM:   6    -0.232374201968E+04    0.69727E-05   -0.18045E-04  3492   0.910E-03    0.571E-02
RMM:   7    -0.232374198643E+04    0.33252E-04   -0.35339E-05  2979   0.550E-03    0.854E-03
RMM:   8    -0.232374198563E+04    0.79228E-06   -0.66266E-06  2871   0.311E-03
  29 F= -.23446832E+04 E0= -.23446832E+04  d E =-.228954E-01  mag=     6.0000
       N       E                     dE             d eps       ncg     rms          rms(c)
DAV:   1    -0.232366650793E+04    0.75478E-01   -0.94857E+00  4480   0.273E+00    0.885E-01
RMM:   2    -0.232377474841E+04   -0.10824E+00   -0.11203E+00  5964   0.572E-01    0.863E-01
RMM:   3    -0.232377862512E+04   -0.38767E-02   -0.11319E-01  5669   0.206E-01    0.576E-01
RMM:   4    -0.232377570311E+04    0.29220E-02   -0.10110E-02  5336   0.475E-02    0.258E-01
RMM:   5    -0.232377480345E+04    0.89966E-03   -0.28592E-03  5307   0.303E-02    0.152E-01
RMM:   6    -0.232377495024E+04   -0.14678E-03   -0.15037E-03  5290   0.233E-02    0.183E-01
RMM:   7    -0.232377459969E+04    0.35055E-03   -0.31709E-04  3986   0.112E-02    0.259E-02
RMM:   8    -0.232377459439E+04    0.52957E-05   -0.44953E-05  3031   0.540E-03
  30 F= -.23447159E+04 E0= -.23447159E+04  d E =-.555577E-01  mag=     6.0000
       N       E                     dE             d eps       ncg     rms          rms(c)
DAV:   1    -0.232377892342E+04   -0.43237E-02   -0.51905E-01  4792   0.625E-01    0.244E-01
RMM:   2    -0.232378897116E+04   -0.10048E-01   -0.10500E-01  6227   0.150E-01    0.255E-01
RMM:   3    -0.232378927659E+04   -0.30543E-03   -0.10906E-02  5062   0.564E-02    0.153E-01
RMM:   4    -0.232378907860E+04    0.19799E-03   -0.95422E-04  3496   0.126E-02    0.724E-02
RMM:   5    -0.232378897110E+04    0.10751E-03   -0.22087E-04  3737   0.815E-03    0.371E-02
RMM:   6    -0.232378896639E+04    0.47096E-05   -0.91030E-05  3216   0.682E-03
  31 F= -.23447300E+04 E0= -.23447300E+04  d E =-.141127E-01  mag=     6.0000
       N       E                     dE             d eps       ncg     rms          rms(c)
DAV:   1    -0.232374995302E+04    0.39018E-01   -0.27392E+00  4512   0.143E+00    0.556E-01
RMM:   2    -0.232380170529E+04   -0.51752E-01   -0.54461E-01  6064   0.337E-01    0.567E-01
RMM:   3    -0.232380446892E+04   -0.27636E-02   -0.62177E-02  5533   0.141E-01    0.385E-01
RMM:   4    -0.232380318249E+04    0.12864E-02   -0.50635E-03  4972   0.291E-02    0.169E-01
RMM:   5    -0.232380264834E+04    0.53414E-03   -0.10867E-03  4946   0.170E-02    0.847E-02
RMM:   6    -0.232380256763E+04    0.80710E-04   -0.47756E-04  4574   0.129E-02    0.266E-02
RMM:   7    -0.232380257088E+04   -0.32457E-05   -0.58106E-05  2980   0.720E-03
  32 F= -.23447430E+04 E0= -.23447430E+04  d E =-.270947E-01  mag=     6.0000
       N       E                     dE             d eps       ncg     rms          rms(c)
DAV:   1    -0.232380741630E+04   -0.48487E-02   -0.76373E-01  4512   0.799E-01    0.248E-01
RMM:   2    -0.232381413805E+04   -0.67217E-02   -0.68521E-02  5814   0.152E-01    0.299E-01
RMM:   3    -0.232381379454E+04    0.34351E-03   -0.61057E-03  5172   0.558E-02    0.155E-01
RMM:   4    -0.232381358101E+04    0.21353E-03   -0.66426E-04  4427   0.134E-02    0.706E-02
RMM:   5    -0.232381354955E+04    0.31458E-04   -0.24087E-04  4043   0.105E-02    0.771E-02
RMM:   6    -0.232381349400E+04    0.55547E-04   -0.14219E-04  3546   0.840E-03    0.381E-02
RMM:   7    -0.232381348108E+04    0.12923E-04   -0.23472E-05  2923   0.544E-03    0.719E-03
RMM:   8    -0.232381348119E+04   -0.11326E-06   -0.60366E-06  2865   0.311E-03
  33 F= -.23447539E+04 E0= -.23447539E+04  d E =-.109202E-01  mag=     6.0000
       N       E                     dE             d eps       ncg     rms          rms(c)
DAV:   1    -0.232380252115E+04    0.10960E-01   -0.20101E+00  4496   0.130E+00    0.398E-01
RMM:   2    -0.232381997753E+04   -0.17456E-01   -0.17822E-01  5758   0.242E-01    0.465E-01
RMM:   3    -0.232381935004E+04    0.62748E-03   -0.15844E-02  5375   0.903E-02    0.261E-01
RMM:   4    -0.232381872866E+04    0.62139E-03   -0.17359E-03  4938   0.216E-02    0.116E-01
RMM:   5    -0.232381866292E+04    0.65739E-04   -0.64456E-04  4895   0.163E-02    0.132E-01
RMM:   6    -0.232381848949E+04    0.17343E-03   -0.39398E-04  4609   0.125E-02    0.552E-02
RMM:   7    -0.232381846049E+04    0.28999E-04   -0.53093E-05  3049   0.697E-03    0.117E-02
RMM:   8    -0.232381845847E+04    0.20226E-05   -0.12075E-05  2910   0.387E-03
  34 F= -.23447589E+04 E0= -.23447589E+04  d E =-.158844E-01  mag=     6.0000
       N       E                     dE             d eps       ncg     rms          rms(c)
DAV:   1    -0.232382243353E+04   -0.39730E-02   -0.58943E-01  4624   0.710E-01    0.196E-01
RMM:   2    -0.232382697434E+04   -0.45408E-02   -0.43640E-02  6046   0.132E-01    0.258E-01
RMM:   3    -0.232382664814E+04    0.32620E-03   -0.37233E-03  5018   0.480E-02    0.114E-01
RMM:   4    -0.232382655618E+04    0.91962E-04   -0.40051E-04  3832   0.109E-02    0.544E-02
RMM:   5    -0.232382651661E+04    0.39565E-04   -0.10835E-04  3874   0.824E-03    0.383E-02
RMM:   6    -0.232382651169E+04    0.49279E-05   -0.54846E-05  3043   0.708E-03
  35 F= -.23447670E+04 E0= -.23447670E+04  d E =-.819034E-02  mag=     6.0000
       N       E                     dE             d eps       ncg     rms          rms(c)
DAV:   1    -0.232379906608E+04    0.27451E-01   -0.52953E+00  4480   0.213E+00    0.589E-01
RMM:   2    -0.232384045255E+04   -0.41386E-01   -0.39702E-01  5914   0.399E-01    0.785E-01
RMM:   3    -0.232383712969E+04    0.33229E-02   -0.33956E-02  5497   0.144E-01    0.335E-01
RMM:   4    -0.232383640383E+04    0.72587E-03   -0.36825E-03  5031   0.313E-02    0.164E-01
RMM:   5    -0.232383617332E+04    0.23050E-03   -0.10581E-03  5126   0.228E-02    0.159E-01
RMM:   6    -0.232383606543E+04    0.10789E-03   -0.65340E-04  4760   0.167E-02    0.108E-01
RMM:   7    -0.232383595310E+04    0.11233E-03   -0.19400E-04  3619   0.887E-03    0.216E-02
RMM:   8    -0.232383595063E+04    0.24756E-05   -0.17377E-05  2916   0.481E-03
  36 F= -.23447768E+04 E0= -.23447768E+04  d E =-.179779E-01  mag=     6.0000
       N       E                     dE             d eps       ncg     rms          rms(c)
DAV:   1    -0.232383674101E+04   -0.78791E-03   -0.40483E-01  4720   0.590E-01    0.211E-01
RMM:   2    -0.232384292137E+04   -0.61804E-02   -0.64841E-02  5889   0.134E-01    0.175E-01
RMM:   3    -0.232384319241E+04   -0.27105E-03   -0.63715E-03  5033   0.582E-02    0.129E-01
RMM:   4    -0.232384306841E+04    0.12400E-03   -0.60712E-04  3645   0.117E-02    0.612E-02
RMM:   5    -0.232384300610E+04    0.62316E-04   -0.13988E-04  3532   0.801E-03    0.311E-02
RMM:   6    -0.232384301462E+04   -0.85218E-05   -0.68014E-05  3147   0.677E-03
  37 F= -.23447842E+04 E0= -.23447842E+04  d E =-.737787E-02  mag=     6.0000
       N       E                     dE             d eps       ncg     rms          rms(c)
DAV:   1    -0.232383759840E+04    0.54077E-02   -0.49846E-01  4528   0.656E-01    0.234E-01
RMM:   2    -0.232384513587E+04   -0.75375E-02   -0.80162E-02  5939   0.151E-01    0.167E-01
RMM:   3    -0.232384555623E+04   -0.42036E-03   -0.77362E-03  5311   0.615E-02    0.133E-01
RMM:   4    -0.232384543839E+04    0.11784E-03   -0.72900E-04  3726   0.126E-02    0.718E-02
RMM:   5    -0.232384536895E+04    0.69438E-04   -0.18018E-04  3649   0.875E-03    0.445E-02
RMM:   6    -0.232384537083E+04   -0.18802E-05   -0.10216E-04  3205   0.740E-03    0.517E-02
RMM:   7    -0.232384534850E+04    0.22331E-04   -0.37569E-05  2965   0.563E-03    0.174E-02
RMM:   8    -0.232384534493E+04    0.35647E-05   -0.94726E-06  2877   0.350E-03
  38 F= -.23447869E+04 E0= -.23447869E+04  d E =-.100579E-01  mag=     6.0000
       N       E                     dE             d eps       ncg     rms          rms(c)
DAV:   1    -0.232384361651E+04    0.17320E-02   -0.49185E-01  4512   0.697E-01    0.226E-01
RMM:   2    -0.232385011316E+04   -0.64967E-02   -0.67436E-02  5800   0.149E-01    0.169E-01
RMM:   3    -0.232385039877E+04   -0.28561E-03   -0.59892E-03  5164   0.602E-02    0.130E-01
RMM:   4    -0.232385025953E+04    0.13924E-03   -0.59515E-04  3925   0.125E-02    0.598E-02
RMM:   5    -0.232385021096E+04    0.48572E-04   -0.13767E-04  3648   0.867E-03    0.369E-02
RMM:   6    -0.232385021896E+04   -0.80030E-05   -0.87271E-05  3139   0.730E-03
  39 F= -.23447920E+04 E0= -.23447920E+04  d E =-.514038E-02  mag=     6.0000
       N       E                     dE             d eps       ncg     rms          rms(c)
DAV:   1    -0.232384517353E+04    0.50374E-02   -0.45937E-01  4528   0.674E-01    0.218E-01
RMM:   2    -0.232385121536E+04   -0.60418E-02   -0.63274E-02  5947   0.144E-01    0.146E-01
RMM:   3    -0.232385152257E+04   -0.30721E-03   -0.53880E-03  5292   0.540E-02    0.119E-01
RMM:   4    -0.232385141741E+04    0.10516E-03   -0.55529E-04  3664   0.119E-02    0.604E-02
RMM:   5    -0.232385137429E+04    0.43126E-04   -0.13151E-04  3554   0.820E-03    0.401E-02
RMM:   6    -0.232385137523E+04   -0.94215E-06   -0.82487E-05  3120   0.715E-03
  40 F= -.23447934E+04 E0= -.23447934E+04  d E =-.655418E-02  mag=     6.0000
       N       E                     dE             d eps       ncg     rms          rms(c)
DAV:   1    -0.232385050181E+04    0.87247E-03   -0.53613E-01  4496   0.725E-01    0.189E-01
RMM:   2    -0.232385497995E+04   -0.44781E-02   -0.47204E-02  5905   0.133E-01    0.115E-01
RMM:   3    -0.232385525086E+04   -0.27091E-03   -0.40497E-03  5143   0.486E-02    0.998E-02
RMM:   4    -0.232385518033E+04    0.70529E-04   -0.43234E-04  3506   0.110E-02    0.585E-02
RMM:   5    -0.232385514008E+04    0.40250E-04   -0.10957E-04  3538   0.838E-03    0.281E-02
RMM:   6    -0.232385513965E+04    0.43745E-06   -0.54895E-05  3138   0.699E-03
  41 F= -.23447973E+04 E0= -.23447973E+04  d E =-.386008E-02  mag=     6.0000
       N       E                     dE             d eps       ncg     rms          rms(c)
DAV:   1    -0.232384782621E+04    0.73139E-02   -0.10273E+00  4496   0.100E+00    0.263E-01
RMM:   2    -0.232385648912E+04   -0.86629E-02   -0.91055E-02  5744   0.184E-01    0.171E-01
RMM:   3    -0.232385699283E+04   -0.50371E-03   -0.78194E-03  5270   0.674E-02    0.150E-01
RMM:   4    -0.232385681806E+04    0.17477E-03   -0.83876E-04  4366   0.150E-02    0.789E-02
RMM:   5    -0.232385674393E+04    0.74128E-04   -0.20800E-04  4012   0.109E-02    0.442E-02
RMM:   6    -0.232385674448E+04   -0.54928E-06   -0.12685E-04  3600   0.904E-03    0.457E-02
RMM:   7    -0.232385672343E+04    0.21056E-04   -0.34531E-05  2998   0.619E-03    0.107E-02
RMM:   8    -0.232385672165E+04    0.17791E-05   -0.74567E-06  2876   0.309E-03
  42 F= -.23447990E+04 E0= -.23447990E+04  d E =-.558483E-02  mag=     6.0000
       N       E                     dE             d eps       ncg     rms          rms(c)
DAV:   1    -0.232385605129E+04    0.67213E-03   -0.36074E-01  4544   0.584E-01    0.154E-01
RMM:   2    -0.232385944882E+04   -0.33975E-02   -0.35120E-02  5719   0.103E-01    0.114E-01
RMM:   3    -0.232385964398E+04   -0.19515E-03   -0.32412E-03  4533   0.409E-02    0.961E-02
RMM:   4    -0.232385957617E+04    0.67807E-04   -0.32838E-04  3226   0.903E-03    0.430E-02
RMM:   5    -0.232385954995E+04    0.26224E-04   -0.63330E-05  3098   0.644E-03    0.226E-02
RMM:   6    -0.232385955189E+04   -0.19470E-05   -0.38605E-05  3066   0.568E-03
  43 F= -.23448018E+04 E0= -.23448018E+04  d E =-.277601E-02  mag=     6.0000
       N       E                     dE             d eps       ncg     rms          rms(c)
DAV:   1    -0.232385079370E+04    0.87562E-02   -0.10889E+00  4480   0.101E+00    0.267E-01
RMM:   2    -0.232386099973E+04   -0.10206E-01   -0.10602E-01  5634   0.179E-01    0.186E-01
RMM:   3    -0.232386166396E+04   -0.66423E-03   -0.10101E-02  5141   0.677E-02    0.163E-01
RMM:   4    -0.232386146019E+04    0.20377E-03   -0.99101E-04  4099   0.146E-02    0.766E-02
RMM:   5    -0.232386138571E+04    0.74477E-04   -0.19373E-04  3788   0.102E-02    0.436E-02
RMM:   6    -0.232386139037E+04   -0.46577E-05   -0.12257E-04  3664   0.844E-03    0.490E-02
RMM:   7    -0.232386136733E+04    0.23042E-04   -0.37211E-05  2987   0.613E-03    0.119E-02
RMM:   8    -0.232386136646E+04    0.86530E-06   -0.69997E-06  2872   0.313E-03
  44 F= -.23448035E+04 E0= -.23448035E+04  d E =-.449488E-02  mag=     6.0000
       N       E                     dE             d eps       ncg     rms          rms(c)
DAV:   1    -0.232385981701E+04    0.15503E-02   -0.27611E-01  4576   0.525E-01    0.151E-01
RMM:   2    -0.232386340709E+04   -0.35901E-02   -0.37092E-02  5832   0.104E-01    0.104E-01
RMM:   3    -0.232386364065E+04   -0.23356E-03   -0.35686E-03  4485   0.400E-02    0.854E-02
RMM:   4    -0.232386358731E+04    0.53333E-04   -0.32147E-04  3123   0.870E-03    0.418E-02
RMM:   5    -0.232386356457E+04    0.22740E-04   -0.54403E-05  3032   0.581E-03    0.277E-02
RMM:   6    -0.232386356310E+04    0.14735E-05   -0.38779E-05  3023   0.539E-03
  45 F= -.23448056E+04 E0= -.23448056E+04  d E =-.207467E-02  mag=     6.0000
       N       E                     dE             d eps       ncg     rms          rms(c)
DAV:   1    -0.232385224491E+04    0.11320E-01   -0.94639E-01  4480   0.971E-01    0.280E-01
RMM:   2    -0.232386450555E+04   -0.12261E-01   -0.12732E-01  5747   0.191E-01    0.179E-01
RMM:   3    -0.232386535409E+04   -0.84854E-03   -0.12281E-02  5178   0.726E-02    0.151E-01
RMM:   4    -0.232386519958E+04    0.15451E-03   -0.11040E-03  3972   0.148E-02    0.798E-02
RMM:   5    -0.232386512422E+04    0.75362E-04   -0.18191E-04  3736   0.976E-03    0.546E-02
RMM:   6    -0.232386511132E+04    0.12904E-04   -0.13485E-04  3717   0.845E-03    0.500E-02
RMM:   7    -0.232386508722E+04    0.24100E-04   -0.46485E-05  3049   0.654E-03    0.132E-02
RMM:   8    -0.232386508524E+04    0.19766E-05   -0.89124E-06  2867   0.389E-03
  46 F= -.23448069E+04 E0= -.23448069E+04  d E =-.337205E-02  mag=     6.0000
       N       E                     dE             d eps       ncg     rms          rms(c)
DAV:   1    -0.232386164898E+04    0.34382E-02   -0.48916E-01  4512   0.711E-01    0.201E-01
RMM:   2    -0.232386696898E+04   -0.53200E-02   -0.55516E-02  5739   0.132E-01    0.117E-01
RMM:   3    -0.232386733736E+04   -0.36837E-03   -0.51744E-03  4956   0.522E-02    0.107E-01
RMM:   4    -0.232386725277E+04    0.84588E-04   -0.51502E-04  3552   0.111E-02    0.550E-02
RMM:   5    -0.232386721370E+04    0.39067E-04   -0.94622E-05  3350   0.791E-03    0.282E-02
RMM:   6    -0.232386721238E+04    0.13201E-05   -0.55166E-05  3305   0.674E-03
  47 F= -.23448089E+04 E0= -.23448089E+04  d E =-.204834E-02  mag=     6.0000
       N       E                     dE             d eps       ncg     rms          rms(c)
DAV:   1    -0.232386020665E+04    0.70070E-02   -0.68060E-01  4480   0.839E-01    0.238E-01
RMM:   2    -0.232386760725E+04   -0.74006E-02   -0.77436E-02  5763   0.156E-01    0.134E-01
RMM:   3    -0.232386812532E+04   -0.51807E-03   -0.73110E-03  5170   0.611E-02    0.119E-01
RMM:   4    -0.232386803266E+04    0.92659E-04   -0.71950E-04  3830   0.128E-02    0.680E-02
RMM:   5    -0.232386797598E+04    0.56688E-04   -0.13298E-04  3666   0.907E-03    0.346E-02
RMM:   6    -0.232386797071E+04    0.52691E-05   -0.77277E-05  3599   0.754E-03
  48 F= -.23448096E+04 E0= -.23448096E+04  d E =-.270891E-02  mag=     6.0000
       N       E                     dE             d eps       ncg     rms          rms(c)
DAV:   1    -0.232386302801E+04    0.49480E-02   -0.57428E-01  4480   0.768E-01    0.209E-01
RMM:   2    -0.232386968232E+04   -0.66543E-02   -0.69408E-02  6039   0.150E-01    0.116E-01
RMM:   3    -0.232387017205E+04   -0.48974E-03   -0.62288E-03  5245   0.546E-02    0.932E-02
RMM:   4    -0.232387013051E+04    0.41544E-04   -0.61594E-04  3462   0.117E-02    0.602E-02
RMM:   5    -0.232387009437E+04    0.36134E-04   -0.82536E-05  3095   0.737E-03    0.319E-02
RMM:   6    -0.232387009395E+04    0.42137E-06   -0.72345E-05  3433   0.699E-03
  49 F= -.23448119E+04 E0= -.23448119E+04  d E =-.234079E-02  mag=     6.0000
       N       E                     dE             d eps       ncg     rms          rms(c)
DAV:   1    -0.232380868348E+04    0.61411E-01   -0.51757E+00  4480   0.230E+00    0.624E-01
RMM:   2    -0.232386862025E+04   -0.59937E-01   -0.62594E-01  5804   0.445E-01    0.337E-01
RMM:   3    -0.232387311926E+04   -0.44990E-02   -0.57275E-02  5405   0.169E-01    0.280E-01
RMM:   4    -0.232387278677E+04    0.33249E-03   -0.56037E-03  5534   0.333E-02    0.188E-01
RMM:   5    -0.232387246609E+04    0.32068E-03   -0.68354E-04  4625   0.175E-02    0.107E-01
RMM:   6    -0.232387241599E+04    0.50104E-04   -0.78645E-04  4808   0.186E-02    0.915E-02
RMM:   7    -0.232387233817E+04    0.77817E-04   -0.16138E-04  3614   0.113E-02    0.340E-02
RMM:   8    -0.232387232708E+04    0.11086E-04   -0.28397E-05  2950   0.435E-03    0.126E-02
RMM:   9    -0.232387232647E+04    0.61636E-06   -0.89022E-06  2886   0.313E-03
  50 F= -.23448148E+04 E0= -.23448148E+04  d E =-.522107E-02  mag=     6.0000
       N       E                     dE             d eps       ncg     rms          rms(c)
DAV:   1    -0.232385776876E+04    0.14558E-01   -0.11618E+00  4496   0.108E+00    0.330E-01
RMM:   2    -0.232387381497E+04   -0.16046E-01   -0.16716E-01  5872   0.228E-01    0.194E-01
RMM:   3    -0.232387504035E+04   -0.12254E-02   -0.15051E-02  5451   0.857E-02    0.178E-01
RMM:   4    -0.232387483087E+04    0.20948E-03   -0.15084E-03  4401   0.177E-02    0.887E-02
RMM:   5    -0.232387475362E+04    0.77257E-04   -0.20057E-04  3596   0.103E-02    0.535E-02
RMM:   6    -0.232387475184E+04    0.17733E-05   -0.18893E-04  3972   0.979E-03    0.555E-02
RMM:   7    -0.232387472121E+04    0.30635E-04   -0.48163E-05  3040   0.681E-03    0.148E-02
RMM:   8    -0.232387471956E+04    0.16465E-05   -0.10122E-05  2880   0.361E-03
  51 F= -.23448176E+04 E0= -.23448176E+04  d E =-.281442E-02  mag=     6.0000
       N       E                     dE             d eps       ncg     rms          rms(c)
DAV:   1    -0.232386645863E+04    0.82626E-02   -0.57862E-01  4560   0.764E-01    0.234E-01
RMM:   2    -0.232387447595E+04   -0.80173E-02   -0.83511E-02  5909   0.161E-01    0.139E-01
RMM:   3    -0.232387508099E+04   -0.60504E-03   -0.74531E-03  5267   0.572E-02    0.126E-01
RMM:   4    -0.232387497482E+04    0.10617E-03   -0.75005E-04  3589   0.126E-02    0.622E-02
RMM:   5    -0.232387493678E+04    0.38041E-04   -0.98782E-05  3098   0.762E-03    0.377E-02
RMM:   6    -0.232387493644E+04    0.34277E-06   -0.93301E-05  3361   0.748E-03
  52 F= -.23448182E+04 E0= -.23448182E+04  d E =-.332750E-02  mag=     6.0000
       N       E                     dE             d eps       ncg     rms          rms(c)
DAV:   1    -0.232386065174E+04    0.14285E-01   -0.95818E-01  4480   0.979E-01    0.315E-01
RMM:   2    -0.232387586693E+04   -0.15215E-01   -0.15888E-01  5988   0.215E-01    0.187E-01
RMM:   3    -0.232387712274E+04   -0.12558E-02   -0.15113E-02  5544   0.799E-02    0.170E-01
RMM:   4    -0.232387695055E+04    0.17220E-03   -0.14579E-03  4068   0.165E-02    0.827E-02
RMM:   5    -0.232387688240E+04    0.68148E-04   -0.16543E-04  3401   0.936E-03    0.496E-02
RMM:   6    -0.232387687622E+04    0.61738E-05   -0.15841E-04  3910   0.927E-03    0.467E-02
RMM:   7    -0.232387685655E+04    0.19676E-04   -0.43214E-05  3012   0.644E-03    0.190E-02
RMM:   8    -0.232387685302E+04    0.35268E-05   -0.93850E-06  2880   0.337E-03
  53 F= -.23448204E+04 E0= -.23448204E+04  d E =-.228230E-02  mag=     6.0000
       N       E                     dE             d eps       ncg     rms          rms(c)
DAV:   1    -0.232385339494E+04    0.23462E-01   -0.13702E+00  4480   0.117E+00    0.377E-01
RMM:   2    -0.232387508150E+04   -0.21687E-01   -0.22567E-01  6004   0.257E-01    0.237E-01
RMM:   3    -0.232387684957E+04   -0.17681E-02   -0.21641E-02  5574   0.952E-02    0.213E-01
RMM:   4    -0.232387655094E+04    0.29864E-03   -0.20737E-03  4662   0.199E-02    0.959E-02
RMM:   5    -0.232387645197E+04    0.98969E-04   -0.24852E-04  3758   0.110E-02    0.575E-02
RMM:   6    -0.232387644430E+04    0.76639E-05   -0.21637E-04  4267   0.105E-02    0.585E-02
RMM:   7    -0.232387641152E+04    0.32780E-04   -0.60583E-05  3047   0.726E-03    0.215E-02
RMM:   8    -0.232387640654E+04    0.49849E-05   -0.13589E-05  2900   0.364E-03
  54 F= -.23448204E+04 E0= -.23448204E+04  d E =-.226702E-02  mag=     6.0000
       N       E                     dE             d eps       ncg     rms          rms(c)
DAV:   1    -0.232387163412E+04    0.47774E-02   -0.32154E-01  4512   0.566E-01    0.182E-01
RMM:   2    -0.232387669560E+04   -0.50615E-02   -0.52519E-02  6125   0.123E-01    0.117E-01
RMM:   3    -0.232387708923E+04   -0.39363E-03   -0.49054E-03  4950   0.450E-02    0.103E-01
RMM:   4    -0.232387701899E+04    0.70240E-04   -0.48137E-04  3209   0.101E-02    0.459E-02
RMM:   5    -0.232387699490E+04    0.24092E-04   -0.53375E-05  2974   0.595E-03    0.252E-02
RMM:   6    -0.232387699566E+04   -0.76261E-06   -0.48104E-05  3072   0.592E-03
  55 F= -.23448208E+04 E0= -.23448208E+04  d E =-.264815E-02  mag=     6.0000
       N       E                     dE             d eps       ncg     rms          rms(c)
DAV:   1    -0.232386154581E+04    0.15449E-01   -0.97630E-01  4480   0.965E-01    0.324E-01
RMM:   2    -0.232387817329E+04   -0.16627E-01   -0.17213E-01  6206   0.214E-01    0.234E-01
RMM:   3    -0.232387952223E+04   -0.13489E-02   -0.16963E-02  5633   0.794E-02    0.203E-01
RMM:   4    -0.232387922504E+04    0.29719E-03   -0.16383E-03  4148   0.174E-02    0.827E-02
RMM:   5    -0.232387914570E+04    0.79344E-04   -0.18386E-04  3455   0.969E-03    0.458E-02
RMM:   6    -0.232387912517E+04    0.20534E-04   -0.12905E-04  3984   0.893E-03    0.238E-02
RMM:   7    -0.232387912465E+04    0.51380E-06   -0.26079E-05  2946   0.624E-03
  56 F= -.23448230E+04 E0= -.23448230E+04  d E =-.223833E-02  mag=     6.0000
       N       E                     dE             d eps       ncg     rms          rms(c)
DAV:   1    -0.232386822071E+04    0.10904E-01   -0.62249E-01  4496   0.770E-01    0.260E-01
RMM:   2    -0.232387882943E+04   -0.10609E-01   -0.11015E-01  6040   0.170E-01    0.184E-01
RMM:   3    -0.232387969592E+04   -0.86649E-03   -0.10729E-02  5387   0.641E-02    0.163E-01
RMM:   4    -0.232387951021E+04    0.18571E-03   -0.10561E-03  3589   0.140E-02    0.663E-02
RMM:   5    -0.232387946201E+04    0.48196E-04   -0.11618E-04  3151   0.804E-03    0.387E-02
RMM:   6    -0.232387945715E+04    0.48636E-05   -0.10645E-04  3576   0.802E-03    0.326E-02
RMM:   7    -0.232387944852E+04    0.86275E-05   -0.24954E-05  2938   0.551E-03
  57 F= -.23448234E+04 E0= -.23448234E+04  d E =-.264353E-02  mag=     6.0000
       N       E                     dE             d eps       ncg     rms          rms(c)
DAV:   1    -0.232386390738E+04    0.15550E-01   -0.90007E-01  4480   0.913E-01    0.319E-01
RMM:   2    -0.232388006436E+04   -0.16157E-01   -0.16874E-01  6034   0.201E-01    0.219E-01
RMM:   3    -0.232388151968E+04   -0.14553E-02   -0.17096E-02  5516   0.787E-02    0.193E-01
RMM:   4    -0.232388125911E+04    0.26057E-03   -0.15936E-03  3939   0.166E-02    0.827E-02
RMM:   5    -0.232388118650E+04    0.72608E-04   -0.18535E-04  3220   0.918E-03    0.458E-02
RMM:   6    -0.232388116711E+04    0.19391E-04   -0.14102E-04  4010   0.891E-03    0.221E-02
RMM:   7    -0.232388116663E+04    0.47967E-06   -0.23560E-05  2909   0.632E-03
  58 F= -.23448253E+04 E0= -.23448253E+04  d E =-.181235E-02  mag=     6.0000
       N       E                     dE             d eps       ncg     rms          rms(c)
DAV:   1    -0.232386323200E+04    0.17935E-01   -0.92854E-01  4480   0.926E-01    0.325E-01
RMM:   2    -0.232387992621E+04   -0.16694E-01   -0.17412E-01  6010   0.204E-01    0.228E-01
RMM:   3    -0.232388139393E+04   -0.14677E-02   -0.17209E-02  5536   0.776E-02    0.203E-01
RMM:   4    -0.232388109317E+04    0.30077E-03   -0.16457E-03  3961   0.168E-02    0.838E-02
RMM:   5    -0.232388101697E+04    0.76196E-04   -0.19260E-04  3275   0.929E-03    0.460E-02
RMM:   6    -0.232388099656E+04    0.20409E-04   -0.14101E-04  4003   0.901E-03    0.192E-02
RMM:   7    -0.232388099705E+04   -0.49091E-06   -0.21572E-05  2909   0.627E-03
  59 F= -.23448252E+04 E0= -.23448252E+04  d E =-.173297E-02  mag=     6.0000
       N       E                     dE             d eps       ncg     rms          rms(c)
DAV:   1    -0.232387703535E+04    0.39612E-02   -0.22434E-01  4528   0.455E-01    0.159E-01
RMM:   2    -0.232388106076E+04   -0.40254E-02   -0.41786E-02  5939   0.993E-02    0.113E-01
RMM:   3    -0.232388139128E+04   -0.33052E-03   -0.41412E-03  4386   0.371E-02    0.900E-02
RMM:   4    -0.232388134040E+04    0.50881E-04   -0.39151E-04  3101   0.877E-03    0.410E-02
RMM:   5    -0.232388132277E+04    0.17629E-04   -0.40420E-05  2913   0.492E-03    0.244E-02
RMM:   6    -0.232388132385E+04   -0.10792E-05   -0.41122E-05  2952   0.500E-03
  60 F= -.23448255E+04 E0= -.23448255E+04  d E =-.201617E-02  mag=     6.0000
       N       E                     dE             d eps       ncg     rms          rms(c)
DAV:   1    -0.232387399891E+04    0.73239E-02   -0.41192E-01  4512   0.594E-01    0.226E-01
RMM:   2    -0.232388218757E+04   -0.81887E-02   -0.84891E-02  6186   0.140E-01    0.179E-01
RMM:   3    -0.232388286159E+04   -0.67403E-03   -0.86725E-03  5320   0.534E-02    0.140E-01
RMM:   4    -0.232388271227E+04    0.14932E-03   -0.79987E-04  3364   0.121E-02    0.574E-02
RMM:   5    -0.232388267372E+04    0.38550E-04   -0.95150E-05  3036   0.711E-03    0.336E-02
RMM:   6    -0.232388267469E+04   -0.96757E-06   -0.84710E-05  3204   0.706E-03
  61 F= -.23448270E+04 E0= -.23448270E+04  d E =-.151281E-02  mag=     6.0000
       N       E                     dE             d eps       ncg     rms          rms(c)
DAV:   1    -0.232387200819E+04    0.10666E-01   -0.51094E-01  4520   0.661E-01    0.251E-01
RMM:   2    -0.232388206219E+04   -0.10054E-01   -0.10563E-01  6070   0.154E-01    0.170E-01
RMM:   3    -0.232388301279E+04   -0.95061E-03   -0.11097E-02  5452   0.610E-02    0.146E-01
RMM:   4    -0.232388287496E+04    0.13783E-03   -0.10128E-03  3462   0.131E-02    0.695E-02
RMM:   5    -0.232388283045E+04    0.44517E-04   -0.11969E-04  3087   0.734E-03    0.455E-02
RMM:   6    -0.232388282467E+04    0.57783E-05   -0.12283E-04  3258   0.777E-03    0.436E-02
RMM:   7    -0.232388280482E+04    0.19852E-04   -0.35926E-05  2985   0.587E-03    0.127E-02
RMM:   8    -0.232388280286E+04    0.19545E-05   -0.80953E-06  2877   0.364E-03
  62 F= -.23448273E+04 E0= -.23448273E+04  d E =-.181535E-02  mag=     6.0000
       N       E                     dE             d eps       ncg     rms          rms(c)
DAV:   1    -0.232387898430E+04    0.38205E-02   -0.21051E-01  4560   0.417E-01    0.158E-01
RMM:   2    -0.232388332512E+04   -0.43408E-02   -0.45006E-02  6229   0.985E-02    0.118E-01
RMM:   3    -0.232388370736E+04   -0.38224E-03   -0.46041E-03  4427   0.389E-02    0.912E-02
RMM:   4    -0.232388365687E+04    0.50489E-04   -0.42379E-04  3125   0.868E-03    0.411E-02
RMM:   5    -0.232388364345E+04    0.13419E-04   -0.38084E-05  2906   0.440E-03    0.300E-02
RMM:   6    -0.232388363961E+04    0.38419E-05   -0.39596E-05  2927   0.427E-03
  63 F= -.23448283E+04 E0= -.23448283E+04  d E =-.100889E-02  mag=     6.0000
       N       E                     dE             d eps       ncg     rms          rms(c)
DAV:   1    -0.232384286544E+04    0.40778E-01   -0.18896E+00  4480   0.125E+00    0.470E-01
RMM:   2    -0.232388167809E+04   -0.38813E-01   -0.40428E-01  6008   0.294E-01    0.328E-01
RMM:   3    -0.232388543358E+04   -0.37555E-02   -0.42818E-02  5611   0.118E-01    0.280E-01
RMM:   4    -0.232388493881E+04    0.49478E-03   -0.38150E-03  4834   0.237E-02    0.127E-01
RMM:   5    -0.232388480733E+04    0.13148E-03   -0.36382E-04  3458   0.108E-02    0.883E-02
RMM:   6    -0.232388478519E+04    0.22132E-04   -0.38694E-04  4067   0.114E-02    0.834E-02
RMM:   7    -0.232388471893E+04    0.66268E-04   -0.12413E-04  3444   0.829E-03    0.252E-02
RMM:   8    -0.232388471308E+04    0.58462E-05   -0.21256E-05  2933   0.505E-03
  64 F= -.23448299E+04 E0= -.23448299E+04  d E =-.257985E-02  mag=     6.0000
       N       E                     dE             d eps       ncg     rms          rms(c)
DAV:   1    -0.232388361152E+04    0.11074E-02   -0.11604E-01  4640   0.326E-01    0.128E-01
RMM:   2    -0.232388594322E+04   -0.23317E-02   -0.24495E-02  6125   0.816E-02    0.774E-02
RMM:   3    -0.232388614015E+04   -0.19693E-03   -0.24928E-03  4296   0.315E-02    0.588E-02
RMM:   4    -0.232388612193E+04    0.18220E-04   -0.21963E-04  3061   0.763E-03    0.337E-02
RMM:   5    -0.232388611083E+04    0.11100E-04   -0.35598E-05  2920   0.527E-03    0.212E-02
RMM:   6    -0.232388611191E+04   -0.10742E-05   -0.26173E-05  2930   0.465E-03
  65 F= -.23448313E+04 E0= -.23448313E+04  d E =-.142314E-02  mag=     6.0000
       N       E                     dE             d eps       ncg     rms          rms(c)
DAV:   1    -0.232388081942E+04    0.52914E-02   -0.27915E-01  4512   0.506E-01    0.197E-01
RMM:   2    -0.232388640322E+04   -0.55838E-02   -0.58883E-02  5986   0.126E-01    0.108E-01
RMM:   3    -0.232388687818E+04   -0.47496E-03   -0.59113E-03  5214   0.504E-02    0.793E-02
RMM:   4    -0.232388686177E+04    0.16409E-04   -0.52553E-04  3373   0.106E-02    0.573E-02
RMM:   5    -0.232388683421E+04    0.27559E-04   -0.84879E-05  3082   0.736E-03    0.386E-02
RMM:   6    -0.232388682664E+04    0.75731E-05   -0.65188E-05  3104   0.666E-03
  66 F= -.23448320E+04 E0= -.23448320E+04  d E =-.217400E-02  mag=     6.0000
       N       E                     dE             d eps       ncg     rms          rms(c)
DAV:   1    -0.232388468131E+04    0.21529E-02   -0.15692E-01  4512   0.359E-01    0.138E-01
RMM:   2    -0.232388778671E+04   -0.31054E-02   -0.32784E-02  6343   0.897E-02    0.667E-02
RMM:   3    -0.232388806577E+04   -0.27906E-03   -0.32879E-03  4102   0.331E-02    0.389E-02
RMM:   4    -0.232388807299E+04   -0.72166E-05   -0.27506E-04  3024   0.703E-03    0.274E-02
RMM:   5    -0.232388807473E+04   -0.17431E-05   -0.31993E-05  2994   0.425E-03
  67 F= -.23448332E+04 E0= -.23448332E+04  d E =-.116543E-02  mag=     6.0000
       N       E                     dE             d eps       ncg     rms          rms(c)
DAV:   1    -0.232387683942E+04    0.11234E-01   -0.57387E-01  4480   0.686E-01    0.263E-01
RMM:   2    -0.232388819580E+04   -0.11356E-01   -0.11916E-01  6199   0.170E-01    0.146E-01
RMM:   3    -0.232388921631E+04   -0.10205E-02   -0.12138E-02  5427   0.637E-02    0.106E-01
RMM:   4    -0.232388918509E+04    0.31228E-04   -0.10343E-03  3487   0.132E-02    0.736E-02
RMM:   5    -0.232388914073E+04    0.44359E-04   -0.12841E-04  3151   0.773E-03    0.515E-02
RMM:   6    -0.232388912791E+04    0.12817E-04   -0.11222E-04  3248   0.728E-03    0.410E-02
RMM:   7    -0.232388911402E+04    0.13889E-04   -0.32736E-05  2959   0.562E-03    0.149E-02
RMM:   8    -0.232388911179E+04    0.22273E-05   -0.79828E-06  2871   0.337E-03
  68 F= -.23448341E+04 E0= -.23448341E+04  d E =-.204261E-02  mag=     6.0000
       N       E                     dE             d eps       ncg     rms          rms(c)
DAV:   1    -0.232388657867E+04    0.25354E-02   -0.20202E-01  4512   0.402E-01    0.150E-01
RMM:   2    -0.232389025564E+04   -0.36770E-02   -0.38808E-02  6082   0.965E-02    0.855E-02
RMM:   3    -0.232389058226E+04   -0.32663E-03   -0.39065E-03  4490   0.372E-02    0.559E-02
RMM:   4    -0.232389057717E+04    0.50945E-05   -0.34290E-04  3081   0.832E-03    0.408E-02
RMM:   5    -0.232389056173E+04    0.15440E-04   -0.51680E-05  2931   0.563E-03    0.254E-02
RMM:   6    -0.232389055956E+04    0.21652E-05   -0.30775E-05  2972   0.475E-03
  69 F= -.23448355E+04 E0= -.23448355E+04  d E =-.140406E-02  mag=     6.0000
       N       E                     dE             d eps       ncg     rms          rms(c)
DAV:   1    -0.232388064805E+04    0.99137E-02   -0.54992E-01  4480   0.663E-01    0.246E-01
RMM:   2    -0.232389065096E+04   -0.10003E-01   -0.10590E-01  5972   0.159E-01    0.134E-01
RMM:   3    -0.232389156036E+04   -0.90941E-03   -0.10740E-02  5304   0.651E-02    0.868E-02
RMM:   4    -0.232389156868E+04   -0.83150E-05   -0.94753E-04  3578   0.129E-02    0.732E-02
RMM:   5    -0.232389153236E+04    0.36323E-04   -0.12510E-04  3077   0.801E-03    0.540E-02
RMM:   6    -0.232389151204E+04    0.20314E-04   -0.10710E-04  3344   0.748E-03    0.324E-02
RMM:   7    -0.232389150500E+04    0.70437E-05   -0.26820E-05  2928   0.548E-03
  70 F= -.23448363E+04 E0= -.23448363E+04  d E =-.227267E-02  mag=     6.0000
       N       E                     dE             d eps       ncg     rms          rms(c)
DAV:   1    -0.232388641610E+04    0.50959E-02   -0.33314E-01  4480   0.508E-01    0.187E-01
RMM:   2    -0.232389251319E+04   -0.60971E-02   -0.64589E-02  6076   0.118E-01    0.104E-01
RMM:   3    -0.232389312876E+04   -0.61557E-03   -0.72079E-03  4774   0.549E-02    0.660E-02
RMM:   4    -0.232389313173E+04   -0.29656E-05   -0.59483E-04  3199   0.100E-02    0.513E-02
RMM:   5    -0.232389310757E+04    0.24157E-04   -0.74789E-05  2975   0.616E-03    0.331E-02
RMM:   6    -0.232389309609E+04    0.11482E-04   -0.49381E-05  3078   0.532E-03    0.159E-02
RMM:   7    -0.232389309589E+04    0.19409E-06   -0.11779E-05  2880   0.435E-03
  71 F= -.23448379E+04 E0= -.23448379E+04  d E =-.154156E-02  mag=     6.0000
       N       E                     dE             d eps       ncg     rms          rms(c)
DAV:   1    -0.232387097575E+04    0.22120E-01   -0.11648E+00  4480   0.950E-01    0.349E-01
RMM:   2    -0.232389222684E+04   -0.21251E-01   -0.22501E-01  6052   0.219E-01    0.193E-01
RMM:   3    -0.232389442082E+04   -0.21940E-02   -0.25840E-02  5480   0.100E-01    0.123E-01
RMM:   4    -0.232389442348E+04   -0.26567E-05   -0.20748E-03  4092   0.177E-02    0.938E-02
RMM:   5    -0.232389434606E+04    0.77414E-04   -0.26302E-04  3372   0.105E-02    0.646E-02
RMM:   6    -0.232389430063E+04    0.45427E-04   -0.18037E-04  4160   0.879E-03    0.297E-02
RMM:   7    -0.232389429481E+04    0.58228E-05   -0.28689E-05  2936   0.618E-03
  72 F= -.23448390E+04 E0= -.23448390E+04  d E =-.263882E-02  mag=     6.0000
       N       E                     dE             d eps       ncg     rms          rms(c)
DAV:   1    -0.232389097483E+04    0.33258E-02   -0.22018E-01  4560   0.401E-01    0.151E-01
RMM:   2    -0.232389526316E+04   -0.42883E-02   -0.45363E-02  6107   0.953E-02    0.901E-02
RMM:   3    -0.232389569691E+04   -0.43375E-03   -0.49045E-03  4386   0.435E-02    0.638E-02
RMM:   4    -0.232389569761E+04   -0.69756E-06   -0.43237E-04  3139   0.841E-03    0.465E-02
RMM:   5    -0.232389568302E+04    0.14589E-04   -0.46367E-05  2919   0.446E-03    0.366E-02
RMM:   6    -0.232389567462E+04    0.84015E-05   -0.44211E-05  2926   0.451E-03
  73 F= -.23448403E+04 E0= -.23448403E+04  d E =-.135566E-02  mag=     6.0000
       N       E                     dE             d eps       ncg     rms          rms(c)
DAV:   1    -0.232385523348E+04    0.40450E-01   -0.19785E+00  4480   0.120E+00    0.448E-01
RMM:   2    -0.232389371090E+04   -0.38477E-01   -0.40710E-01  5981   0.285E-01    0.249E-01
RMM:   3    -0.232389767534E+04   -0.39644E-02   -0.45332E-02  5535   0.127E-01    0.156E-01
RMM:   4    -0.232389772420E+04   -0.48855E-04   -0.37301E-03  4669   0.225E-02    0.117E-01
RMM:   5    -0.232389762451E+04    0.99689E-04   -0.47478E-04  3930   0.131E-02    0.924E-02
RMM:   6    -0.232389754625E+04    0.78259E-04   -0.26020E-04  4389   0.992E-03    0.486E-02
RMM:   7    -0.232389753049E+04    0.15754E-04   -0.53031E-05  2995   0.679E-03    0.312E-02
RMM:   8    -0.232389752322E+04    0.72762E-05   -0.19956E-05  2896   0.390E-03
  74 F= -.23448421E+04 E0= -.23448421E+04  d E =-.311674E-02  mag=     6.0000
       N       E                     dE             d eps       ncg     rms          rms(c)
DAV:   1    -0.232389040199E+04    0.71285E-02   -0.38757E-01  4512   0.541E-01    0.210E-01
RMM:   2    -0.232389862408E+04   -0.82221E-02   -0.86936E-02  6115   0.134E-01    0.116E-01
RMM:   3    -0.232389943729E+04   -0.81321E-03   -0.90561E-03  5049   0.561E-02    0.770E-02
RMM:   4    -0.232389944381E+04   -0.65161E-05   -0.77130E-04  3243   0.106E-02    0.563E-02
RMM:   5    -0.232389941651E+04    0.27295E-04   -0.81998E-05  2967   0.621E-03    0.382E-02
RMM:   6    -0.232389940713E+04    0.93825E-05   -0.58149E-05  3050   0.553E-03
  75 F= -.23448439E+04 E0= -.23448439E+04  d E =-.175772E-02  mag=     6.0000
       N       E                     dE             d eps       ncg     rms          rms(c)
DAV:   1    -0.232382046157E+04    0.78955E-01   -0.34795E+00  4464   0.162E+00    0.624E-01
RMM:   2    -0.232389420776E+04   -0.73746E-01   -0.78109E-01  6066   0.405E-01    0.331E-01
RMM:   3    -0.232390202215E+04   -0.78144E-02   -0.87314E-02  5663   0.170E-01    0.231E-01
RMM:   4    -0.232390210584E+04   -0.83692E-04   -0.70140E-03  5229   0.311E-02    0.178E-01
RMM:   5    -0.232390190587E+04    0.19997E-03   -0.73719E-04  4058   0.145E-02    0.142E-01
RMM:   6    -0.232390173395E+04    0.17192E-03   -0.60614E-04  4729   0.146E-02    0.812E-02
RMM:   7    -0.232390171767E+04    0.16278E-04   -0.19307E-04  3690   0.988E-03    0.649E-02
RMM:   8    -0.232390167607E+04    0.41599E-04   -0.60843E-05  3013   0.580E-03    0.161E-02
RMM:   9    -0.232390167305E+04    0.30258E-05   -0.13186E-05  2891   0.379E-03
  76 F= -.23448457E+04 E0= -.23448457E+04  d E =-.362151E-02  mag=     6.0000
       N       E                     dE             d eps       ncg     rms          rms(c)
DAV:   1    -0.232389809987E+04    0.35762E-02   -0.19326E-01  4608   0.365E-01    0.146E-01
RMM:   2    -0.232390244225E+04   -0.43424E-02   -0.45836E-02  6281   0.942E-02    0.806E-02
RMM:   3    -0.232390289146E+04   -0.44921E-03   -0.48936E-03  4057   0.394E-02    0.527E-02
RMM:   4    -0.232390289919E+04   -0.77287E-05   -0.40536E-04  3093   0.776E-03    0.393E-02
RMM:   5    -0.232390288766E+04    0.11522E-04   -0.35352E-05  2901   0.397E-03    0.286E-02
RMM:   6    -0.232390288359E+04    0.40702E-05   -0.30142E-05  2911   0.353E-03
  77 F= -.23448468E+04 E0= -.23448468E+04  d E =-.110011E-02  mag=     6.0000
       N       E                     dE             d eps       ncg     rms          rms(c)
DAV:   1    -0.232386286264E+04    0.40025E-01   -0.17335E+00  4464   0.109E+00    0.434E-01
RMM:   2    -0.232390186099E+04   -0.38998E-01   -0.41263E-01  6244   0.284E-01    0.229E-01
RMM:   3    -0.232390602341E+04   -0.41624E-02   -0.45222E-02  5590   0.116E-01    0.156E-01
RMM:   4    -0.232390610060E+04   -0.77187E-04   -0.36193E-03  3982   0.210E-02    0.121E-01
RMM:   5    -0.232390601098E+04    0.89620E-04   -0.31699E-04  3206   0.962E-03    0.956E-02
RMM:   6    -0.232390593837E+04    0.72602E-04   -0.28791E-04  3841   0.997E-03    0.585E-02
RMM:   7    -0.232390592810E+04    0.10271E-04   -0.90816E-05  3186   0.679E-03    0.419E-02
RMM:   8    -0.232390591119E+04    0.16910E-04   -0.26457E-05  2933   0.440E-03    0.114E-02
RMM:   9    -0.232390590997E+04    0.12259E-05   -0.63156E-06  2846   0.263E-03
  78 F= -.23448495E+04 E0= -.23448495E+04  d E =-.378316E-02  mag=     6.0000
       N       E                     dE             d eps       ncg     rms          rms(c)
DAV:   1    -0.232373531048E+04    0.17060E+00   -0.69418E+00  4472   0.219E+00    0.868E-01
RMM:   2    -0.232389244006E+04   -0.15713E+00   -0.16632E+00  6340   0.576E-01    0.467E-01
RMM:   3    -0.232391011665E+04   -0.17677E-01   -0.19385E-01  5810   0.229E-01    0.348E-01
RMM:   4    -0.232391004255E+04    0.74104E-04   -0.14753E-02  5435   0.431E-02    0.247E-01
RMM:   5    -0.232390960947E+04    0.43307E-03   -0.12439E-03  4136   0.176E-02    0.180E-01
RMM:   6    -0.232390928359E+04    0.32588E-03   -0.12187E-03  5058   0.192E-02    0.988E-02
RMM:   7    -0.232390930968E+04   -0.26093E-04   -0.38672E-04  3821   0.118E-02    0.106E-01
RMM:   8    -0.232390920810E+04    0.10158E-03   -0.12413E-04  3118   0.683E-03    0.259E-02
RMM:   9    -0.232390920160E+04    0.65005E-05   -0.28638E-05  2915   0.440E-03
  79 F= -.23448521E+04 E0= -.23448521E+04  d E =-.633266E-02  mag=     6.0000
       N       E                     dE             d eps       ncg     rms          rms(c)
DAV:   1    -0.232387914112E+04    0.30067E-01   -0.14116E+00  4472   0.991E-01    0.402E-01
RMM:   2    -0.232391089623E+04   -0.31755E-01   -0.33695E-01  6196   0.259E-01    0.214E-01
RMM:   3    -0.232391431399E+04   -0.34178E-02   -0.37457E-02  5663   0.107E-01    0.155E-01
RMM:   4    -0.232391429767E+04    0.16317E-04   -0.29909E-03  3932   0.198E-02    0.110E-01
RMM:   5    -0.232391419653E+04    0.10115E-03   -0.27459E-04  3164   0.995E-03    0.738E-02
RMM:   6    -0.232391416327E+04    0.33263E-04   -0.27336E-04  4131   0.990E-03    0.579E-02
RMM:   7    -0.232391414475E+04    0.18517E-04   -0.66173E-05  3021   0.670E-03    0.334E-02
RMM:   8    -0.232391413368E+04    0.11068E-04   -0.16316E-05  2902   0.342E-03    0.100E-02
RMM:   9    -0.232391413257E+04    0.11075E-05   -0.58522E-06  2846   0.238E-03
  80 F= -.23448566E+04 E0= -.23448566E+04  d E =-.459254E-02  mag=     6.0000
       N       E                     dE             d eps       ncg     rms          rms(c)
DAV:   1    -0.232374313675E+04    0.17100E+00   -0.70567E+00  4472   0.221E+00    0.894E-01
RMM:   2    -0.232390259069E+04   -0.15945E+00   -0.16957E+00  6263   0.588E-01    0.464E-01
RMM:   3    -0.232392032406E+04   -0.17733E-01   -0.19532E-01  5803   0.225E-01    0.359E-01
RMM:   4    -0.232392012663E+04    0.19744E-03   -0.15014E-02  5599   0.443E-02    0.257E-01
RMM:   5    -0.232391963693E+04    0.48970E-03   -0.13688E-03  4369   0.188E-02    0.181E-01
RMM:   6    -0.232391928613E+04    0.35080E-03   -0.15416E-03  5269   0.218E-02    0.832E-02
RMM:   7    -0.232391931367E+04   -0.27540E-04   -0.31465E-04  3732   0.116E-02    0.973E-02
RMM:   8    -0.232391922709E+04    0.86575E-04   -0.10584E-04  3046   0.632E-03    0.272E-02
RMM:   9    -0.232391921806E+04    0.90272E-05   -0.31715E-05  2918   0.434E-03
  81 F= -.23448609E+04 E0= -.23448609E+04  d E =-.885017E-02  mag=     6.0000
       N       E                     dE             d eps       ncg     rms          rms(c)
DAV:   1    -0.232385662768E+04    0.62599E-01   -0.27100E+00  4472   0.132E+00    0.545E-01
RMM:   2    -0.232391770664E+04   -0.61079E-01   -0.64742E-01  6274   0.348E-01    0.302E-01
RMM:   3    -0.232392465904E+04   -0.69524E-02   -0.75792E-02  5757   0.148E-01    0.228E-01
RMM:   4    -0.232392457597E+04    0.83066E-04   -0.59544E-03  4555   0.271E-02    0.158E-01
RMM:   5    -0.232392437051E+04    0.20546E-03   -0.49820E-04  3417   0.123E-02    0.104E-01
RMM:   6    -0.232392426142E+04    0.10909E-03   -0.52991E-04  4621   0.128E-02    0.504E-02
RMM:   7    -0.232392426764E+04   -0.62155E-05   -0.10194E-04  3039   0.817E-03    0.543E-02
RMM:   8    -0.232392424123E+04    0.26406E-04   -0.36342E-05  2945   0.411E-03    0.161E-02
RMM:   9    -0.232392423828E+04    0.29514E-05   -0.10883E-05  2869   0.278E-03
  82 F= -.23448653E+04 E0= -.23448653E+04  d E =-.441779E-02  mag=     6.0000
       N       E                     dE             d eps       ncg     rms          rms(c)
DAV:   1    -0.232377550849E+04    0.14873E+00   -0.60483E+00  4472   0.197E+00    0.813E-01
RMM:   2    -0.232391240705E+04   -0.13690E+00   -0.14533E+00  6322   0.525E-01    0.448E-01
RMM:   3    -0.232392879699E+04   -0.16390E-01   -0.17865E-01  5829   0.220E-01    0.359E-01
RMM:   4    -0.232392849403E+04    0.30296E-03   -0.13726E-02  5411   0.410E-02    0.247E-01
RMM:   5    -0.232392801383E+04    0.48020E-03   -0.11484E-03  4047   0.169E-02    0.167E-01
RMM:   6    -0.232392774123E+04    0.27261E-03   -0.13679E-03  5075   0.194E-02    0.968E-02
RMM:   7    -0.232392775683E+04   -0.15605E-04   -0.35603E-04  3570   0.120E-02    0.988E-02
RMM:   8    -0.232392766406E+04    0.92768E-04   -0.10229E-04  3063   0.634E-03    0.236E-02
RMM:   9    -0.232392765719E+04    0.68720E-05   -0.29527E-05  2911   0.417E-03
  83 F= -.23448678E+04 E0= -.23448678E+04  d E =-.686622E-02  mag=     6.0000
       N       E                     dE             d eps       ncg     rms          rms(c)
DAV:   1    -0.232388231447E+04    0.45350E-01   -0.19830E+00  4480   0.107E+00    0.464E-01
RMM:   2    -0.232392791788E+04   -0.45603E-01   -0.48133E-01  6405   0.288E-01    0.277E-01
RMM:   3    -0.232393324965E+04   -0.53318E-02   -0.57520E-02  5685   0.129E-01    0.212E-01
RMM:   4    -0.232393317459E+04    0.75061E-04   -0.45888E-03  4050   0.229E-02    0.138E-01
RMM:   5    -0.232393303157E+04    0.14301E-03   -0.34021E-04  3180   0.101E-02    0.967E-02
RMM:   6    -0.232393300561E+04    0.25961E-04   -0.39022E-04  3810   0.997E-03    0.952E-02
RMM:   7    -0.232393294394E+04    0.61671E-04   -0.15097E-04  3164   0.770E-03    0.400E-02
RMM:   8    -0.232393292883E+04    0.15110E-04   -0.29192E-05  2958   0.461E-03    0.127E-02
RMM:   9    -0.232393292718E+04    0.16513E-05   -0.81660E-06  2861   0.286E-03
  84 F= -.23448723E+04 E0= -.23448723E+04  d E =-.457182E-02  mag=     6.0000
       N       E                     dE             d eps       ncg     rms          rms(c)
DAV:   1    -0.232347742823E+04    0.45550E+00   -0.17795E+01  4464   0.323E+00    0.139E+00
RMM:   2    -0.232389645380E+04   -0.41903E+00   -0.44441E+00  6468   0.886E-01    0.807E-01
RMM:   3    -0.232394818774E+04   -0.51734E-01   -0.56088E-01  5908   0.387E-01    0.685E-01
RMM:   4    -0.232394684186E+04    0.13459E-02   -0.41992E-02  5882   0.695E-02    0.447E-01
RMM:   5    -0.232394537147E+04    0.14704E-02   -0.34329E-03  4817   0.264E-02    0.314E-01
RMM:   6    -0.232394463044E+04    0.74104E-03   -0.39534E-03  5195   0.294E-02    0.231E-01
RMM:   7    -0.232394448090E+04    0.14953E-03   -0.15779E-03  4687   0.207E-02    0.176E-01
RMM:   8    -0.232394419702E+04    0.28389E-03   -0.34629E-04  3827   0.103E-02    0.454E-02
RMM:   9    -0.232394417511E+04    0.21907E-04   -0.86608E-05  3003   0.673E-03    0.227E-02
RMM:  10    -0.232394417041E+04    0.46957E-05   -0.35332E-05  2902   0.405E-03
  85 F= -.23448813E+04 E0= -.23448813E+04  d E =-.135660E-01  mag=     6.0000
       N       E                     dE             d eps       ncg     rms          rms(c)
DAV:   1    -0.232199647245E+04    0.19477E+01   -0.71265E+01  4464   0.646E+00    0.278E+00
RMM:   2    -0.232376192063E+04   -0.17654E+01   -0.18743E+01  6484   0.180E+00    0.166E+00
RMM:   3    -0.232395719910E+04   -0.19528E+00   -0.21752E+00  5881   0.766E-01    0.139E+00
RMM:   4    -0.232395244855E+04    0.47505E-02   -0.15180E-01  6083   0.128E-01    0.961E-01
RMM:   5    -0.232394586210E+04    0.65865E-02   -0.14175E-02  5701   0.508E-02    0.644E-01
RMM:   6    -0.232394183237E+04    0.40297E-02   -0.14331E-02  5104   0.553E-02    0.365E-01
RMM:   7    -0.232394252334E+04   -0.69097E-03   -0.66504E-03  5266   0.420E-02    0.421E-01
RMM:   8    -0.232394085330E+04    0.16700E-02   -0.16792E-03  4965   0.205E-02    0.107E-01
RMM:   9    -0.232394074135E+04    0.11195E-03   -0.47056E-04  3619   0.110E-02    0.457E-02
RMM:  10    -0.232394071752E+04    0.23825E-04   -0.11325E-04  2987   0.708E-03    0.188E-02
RMM:  11    -0.232394071820E+04   -0.67383E-06   -0.41641E-05  2942   0.492E-03
  86 F= -.23448727E+04 E0= -.23448727E+04  d E =-.491556E-02  mag=     5.9999
       N       E                     dE             d eps       ncg     rms          rms(c)
DAV:   1    -0.232286149260E+04    0.10792E+01   -0.41755E+01  4480   0.490E+00    0.225E+00
RMM:   2    -0.232388552408E+04   -0.10240E+01   -0.10696E+01  6491   0.136E+00    0.192E+00
RMM:   3    -0.232395273192E+04   -0.67208E-01   -0.11802E+00  6068   0.554E-01    0.984E-01
RMM:   4    -0.232395134519E+04    0.13867E-02   -0.95929E-02  5841   0.983E-02    0.586E-01
RMM:   5    -0.232394778602E+04    0.35592E-02   -0.67586E-03  5126   0.428E-02    0.356E-01
RMM:   6    -0.232394707123E+04    0.71479E-03   -0.68655E-03  5431   0.412E-02    0.222E-01
RMM:   7    -0.232394695780E+04    0.11343E-03   -0.15456E-03  4855   0.228E-02    0.170E-01
RMM:   8    -0.232394670036E+04    0.25744E-03   -0.26577E-04  3456   0.905E-03    0.635E-02
[...]
RMM:   5    -0.232441569094E+04    0.10373E-03   -0.12301E-03  4888   0.197E-02    0.210E-01
RMM:   6    -0.232441522913E+04    0.46181E-03   -0.94542E-04  4818   0.191E-02    0.662E-02
RMM:   7    -0.232441522854E+04    0.58860E-06   -0.19181E-04  4005   0.123E-02    0.272E-02
RMM:   8    -0.232441522182E+04    0.67244E-05   -0.24868E-05  2917   0.475E-03
 128 F= -.23452901E+04 E0= -.23452901E+04  d E =-.918479E-02  mag=     6.0000
       N       E                     dE             d eps       ncg     rms          rms(c)
DAV:   1    -0.232438031001E+04    0.34919E-01   -0.27594E+00  4480   0.162E+00    0.494E-01
RMM:   2    -0.232441737549E+04   -0.37065E-01   -0.38579E-01  6054   0.312E-01    0.371E-01
RMM:   3    -0.232441972675E+04   -0.23513E-02   -0.39651E-02  5661   0.119E-01    0.229E-01
RMM:   4    -0.232441954480E+04    0.18195E-03   -0.38465E-03  5020   0.250E-02    0.143E-01
RMM:   5    -0.232441954400E+04    0.79305E-06   -0.69710E-04  4376   0.159E-02    0.166E-01
RMM:   6    -0.232441931114E+04    0.23286E-03   -0.50041E-04  4540   0.131E-02    0.628E-02
RMM:   7    -0.232441930016E+04    0.10983E-04   -0.87166E-05  3204   0.851E-03    0.222E-02
RMM:   8    -0.232441929581E+04    0.43557E-05   -0.14966E-05  2904   0.449E-03
 129 F= -.23452959E+04 E0= -.23452959E+04  d E =-.580288E-02  mag=     6.0000
       N       E                     dE             d eps       ncg     rms          rms(c)
DAV:   1    -0.232436170415E+04    0.57596E-01   -0.40930E+00  4480   0.197E+00    0.602E-01
RMM:   2    -0.232441684249E+04   -0.55138E-01   -0.57370E-01  6029   0.382E-01    0.456E-01
RMM:   3    -0.232442032037E+04   -0.34779E-02   -0.59007E-02  5668   0.150E-01    0.284E-01
RMM:   4    -0.232442004119E+04    0.27918E-03   -0.57105E-03  5112   0.307E-02    0.176E-01
RMM:   5    -0.232442003791E+04    0.32788E-05   -0.10418E-03  4729   0.190E-02    0.203E-01
RMM:   6    -0.232441967480E+04    0.36311E-03   -0.75306E-04  4820   0.158E-02    0.731E-02
RMM:   7    -0.232441965988E+04    0.14926E-04   -0.13744E-04  3617   0.996E-03    0.267E-02
RMM:   8    -0.232441965265E+04    0.72314E-05   -0.21060E-05  2904   0.486E-03
 130 F= -.23452984E+04 E0= -.23452984E+04  d E =-.827967E-02  mag=     6.0000
       N       E                     dE             d eps       ncg     rms          rms(c)
DAV:   1    -0.232437902741E+04    0.40632E-01   -0.28078E+00  4464   0.158E+00    0.508E-01
RMM:   2    -0.232442172574E+04   -0.42698E-01   -0.44566E-01  6155   0.320E-01    0.348E-01
RMM:   3    -0.232442511783E+04   -0.33921E-02   -0.48072E-02  5774   0.124E-01    0.209E-01
RMM:   4    -0.232442501826E+04    0.99570E-04   -0.44136E-03  5165   0.245E-02    0.136E-01
RMM:   5    -0.232442486481E+04    0.15345E-03   -0.61891E-04  4509   0.158E-02    0.108E-01
RMM:   6    -0.232442487396E+04   -0.91471E-05   -0.42547E-04  3971   0.119E-02    0.106E-01
RMM:   7    -0.232442479271E+04    0.81254E-04   -0.11247E-04  3145   0.775E-03    0.206E-02
RMM:   8    -0.232442478848E+04    0.42227E-05   -0.15536E-05  2931   0.436E-03
 131 F= -.23453057E+04 E0= -.23453057E+04  d E =-.732010E-02  mag=     6.0000
       N       E                     dE             d eps       ncg     rms          rms(c)
DAV:   1    -0.232408766667E+04    0.33713E+00   -0.20440E+01  4464   0.426E+00    0.138E+00
RMM:   2    -0.232440617991E+04   -0.31851E+00   -0.33163E+00  6156   0.881E-01    0.103E+00
RMM:   3    -0.232442956553E+04   -0.23386E-01   -0.35234E-01  5860   0.328E-01    0.656E-01
RMM:   4    -0.232442849302E+04    0.10725E-02   -0.32173E-02  5290   0.660E-02    0.412E-01
RMM:   5    -0.232442812738E+04    0.36563E-03   -0.50487E-03  5190   0.387E-02    0.423E-01
RMM:   6    -0.232442661990E+04    0.15075E-02   -0.35682E-03  5432   0.325E-02    0.177E-01
RMM:   7    -0.232442650636E+04    0.11354E-03   -0.87113E-04  4909   0.196E-02    0.622E-02
RMM:   8    -0.232442647296E+04    0.33404E-04   -0.12953E-04  3291   0.915E-03    0.403E-02
RMM:   9    -0.232442645154E+04    0.21423E-04   -0.58810E-05  2898   0.581E-03    0.158E-02
RMM:  10    -0.232442644621E+04    0.53287E-05   -0.22830E-05  2930   0.369E-03
 132 F= -.23453131E+04 E0= -.23453131E+04  d E =-.147604E-01  mag=     6.0000
       N       E                     dE             d eps       ncg     rms          rms(c)
DAV:   1    -0.232440358625E+04    0.22865E-01   -0.14904E+00  4608   0.113E+00    0.368E-01
RMM:   2    -0.232442780277E+04   -0.24217E-01   -0.25163E-01  6202   0.233E-01    0.260E-01
RMM:   3    -0.232442975603E+04   -0.19533E-02   -0.27402E-02  5738   0.858E-02    0.158E-01
RMM:   4    -0.232442973394E+04    0.22094E-04   -0.25261E-03  4323   0.175E-02    0.121E-01
RMM:   5    -0.232442968939E+04    0.44545E-04   -0.29091E-04  3068   0.914E-03    0.117E-01
RMM:   6    -0.232442957225E+04    0.11714E-03   -0.30161E-04  3951   0.107E-02    0.342E-02
RMM:   7    -0.232442957299E+04   -0.73647E-06   -0.59313E-05  3013   0.685E-03
 133 F= -.23453178E+04 E0= -.23453178E+04  d E =-.469553E-02  mag=     6.0000
       N       E                     dE             d eps       ncg     rms          rms(c)
DAV:   1    -0.232419658097E+04    0.23299E+00   -0.13381E+01  4464   0.338E+00    0.111E+00
RMM:   2    -0.232441680778E+04   -0.22023E+00   -0.22935E+00  6246   0.704E-01    0.787E-01
RMM:   3    -0.232443479332E+04   -0.17986E-01   -0.25134E-01  5941   0.266E-01    0.479E-01
RMM:   4    -0.232443429025E+04    0.50308E-03   -0.22401E-02  5505   0.519E-02    0.304E-01
RMM:   5    -0.232443349339E+04    0.79686E-03   -0.29034E-03  4973   0.306E-02    0.225E-01
RMM:   6    -0.232443364098E+04   -0.14759E-03   -0.21834E-03  5358   0.244E-02    0.251E-01
RMM:   7    -0.232443315723E+04    0.48375E-03   -0.63372E-04  4532   0.146E-02    0.504E-02
RMM:   8    -0.232443313326E+04    0.23969E-04   -0.76182E-05  3018   0.634E-03    0.268E-02
RMM:   9    -0.232443312140E+04    0.11864E-04   -0.39953E-05  2892   0.467E-03    0.129E-02
RMM:  10    -0.232443311866E+04    0.27370E-05   -0.14054E-05  2922   0.302E-03
 134 F= -.23453259E+04 E0= -.23453259E+04  d E =-.127414E-01  mag=     6.0000
       N       E                     dE             d eps       ncg     rms          rms(c)
DAV:   1    -0.232441025925E+04    0.22862E-01   -0.12768E+00  4560   0.104E+00    0.341E-01
RMM:   2    -0.232443080941E+04   -0.20550E-01   -0.21328E-01  6228   0.215E-01    0.243E-01
RMM:   3    -0.232443247671E+04   -0.16673E-02   -0.23425E-02  5718   0.801E-02    0.152E-01
RMM:   4    -0.232443245903E+04    0.17674E-04   -0.21903E-03  4012   0.164E-02    0.121E-01
RMM:   5    -0.232443239506E+04    0.63976E-04   -0.24728E-04  3010   0.843E-03    0.100E-01
RMM:   6    -0.232443230229E+04    0.92768E-04   -0.26197E-04  3900   0.101E-02    0.299E-02
RMM:   7    -0.232443230367E+04   -0.13772E-05   -0.53809E-05  2987   0.664E-03
 135 F= -.23453264E+04 E0= -.23453264E+04  d E =-.132475E-01  mag=     6.0000
       N       E                     dE             d eps       ncg     rms          rms(c)
DAV:   1    -0.232443227044E+04    0.31843E-04   -0.36209E-01  4640   0.604E-01    0.227E-01
RMM:   2    -0.232443731827E+04   -0.50478E-02   -0.52966E-02  6058   0.126E-01    0.159E-01
RMM:   3    -0.232443759104E+04   -0.27277E-03   -0.55650E-03  5314   0.505E-02    0.116E-01
RMM:   4    -0.232443751148E+04    0.79557E-04   -0.63064E-04  4121   0.124E-02    0.838E-02
RMM:   5    -0.232443747269E+04    0.38789E-04   -0.14039E-04  2960   0.842E-03    0.586E-02
RMM:   6    -0.232443743750E+04    0.35194E-04   -0.10693E-04  3956   0.808E-03    0.145E-02
RMM:   7    -0.232443743732E+04    0.17622E-06   -0.17892E-05  2916   0.594E-03
 136 F= -.23453320E+04 E0= -.23453320E+04  d E =-.560725E-02  mag=     6.0000
       N       E                     dE             d eps       ncg     rms          rms(c)
DAV:   1    -0.232442335219E+04    0.14085E-01   -0.12032E+00  4512   0.110E+00    0.410E-01
RMM:   2    -0.232444009080E+04   -0.16739E-01   -0.17533E-01  6018   0.228E-01    0.282E-01
RMM:   3    -0.232444100793E+04   -0.91713E-03   -0.18344E-02  5616   0.881E-02    0.208E-01
RMM:   4    -0.232444073975E+04    0.26818E-03   -0.20590E-03  5018   0.217E-02    0.149E-01
RMM:   5    -0.232444061940E+04    0.12035E-03   -0.46217E-04  4011   0.140E-02    0.109E-01
RMM:   6    -0.232444049475E+04    0.12464E-03   -0.34274E-04  4464   0.129E-02    0.269E-02
RMM:   7    -0.232444049129E+04    0.34615E-05   -0.51952E-05  3036   0.868E-03
 137 F= -.23453359E+04 E0= -.23453359E+04  d E =-.951683E-02  mag=     6.0000
       N       E                     dE             d eps       ncg     rms          rms(c)
DAV:   1    -0.232443863702E+04    0.18577E-02   -0.49426E-01  4576   0.689E-01    0.238E-01
RMM:   2    -0.232444581981E+04   -0.71828E-02   -0.74283E-02  6104   0.141E-01    0.204E-01
RMM:   3    -0.232444607768E+04   -0.25787E-03   -0.75071E-03  5314   0.517E-02    0.130E-01
RMM:   4    -0.232444600687E+04    0.70802E-04   -0.83939E-04  3840   0.126E-02    0.958E-02
RMM:   5    -0.232444594579E+04    0.61080E-04   -0.15207E-04  2993   0.787E-03    0.592E-02
RMM:   6    -0.232444590586E+04    0.39939E-04   -0.13732E-04  3973   0.839E-03    0.197E-02
RMM:   7    -0.232444590489E+04    0.96385E-06   -0.27607E-05  2919   0.654E-03
 138 F= -.23453417E+04 E0= -.23453417E+04  d E =-.581557E-02  mag=     6.0000
       N       E                     dE             d eps       ncg     rms          rms(c)
DAV:   1    -0.232440479957E+04    0.41106E-01   -0.30947E+00  4464   0.173E+00    0.594E-01
RMM:   2    -0.232444980981E+04   -0.45010E-01   -0.46620E-01  6115   0.355E-01    0.495E-01
RMM:   3    -0.232445157994E+04   -0.17701E-02   -0.47490E-02  5650   0.130E-01    0.322E-01
RMM:   4    -0.232445111254E+04    0.46740E-03   -0.52033E-03  5185   0.305E-02    0.238E-01
RMM:   5    -0.232445074271E+04    0.36982E-03   -0.94149E-04  4496   0.174E-02    0.150E-01
RMM:   6    -0.232445047737E+04    0.26535E-03   -0.84433E-04  4691   0.183E-02    0.504E-02
RMM:   7    -0.232445046295E+04    0.14417E-04   -0.17326E-04  3805   0.132E-02    0.215E-02
RMM:   8    -0.232445045574E+04    0.72085E-05   -0.25764E-05  2923   0.425E-03
 139 F= -.23453473E+04 E0= -.23453473E+04  d E =-.113635E-01  mag=     6.0000
       N       E                     dE             d eps       ncg     rms          rms(c)
DAV:   1    -0.232444372783E+04    0.67351E-02   -0.82190E-01  4528   0.889E-01    0.288E-01
RMM:   2    -0.232445549583E+04   -0.11768E-01   -0.12027E-01  6098   0.180E-01    0.265E-01
RMM:   3    -0.232445597064E+04   -0.47481E-03   -0.12284E-02  5575   0.676E-02    0.171E-01
RMM:   4    -0.232445585447E+04    0.11617E-03   -0.13715E-03  4279   0.157E-02    0.113E-01
RMM:   5    -0.232445577162E+04    0.82855E-04   -0.23343E-04  3129   0.916E-03    0.738E-02
RMM:   6    -0.232445571062E+04    0.60996E-04   -0.21118E-04  4127   0.104E-02    0.256E-02
RMM:   7    -0.232445571077E+04   -0.15015E-06   -0.39620E-05  2944   0.773E-03
 140 F= -.23453530E+04 E0= -.23453530E+04  d E =-.576108E-02  mag=     6.0000
       N       E                     dE             d eps       ncg     rms          rms(c)
DAV:   1    -0.232443008018E+04    0.25630E-01   -0.19105E+00  4480   0.136E+00    0.439E-01
RMM:   2    -0.232445735187E+04   -0.27272E-01   -0.27946E-01  6044   0.275E-01    0.394E-01
RMM:   3    -0.232445862874E+04   -0.12769E-02   -0.29044E-02  5664   0.106E-01    0.265E-01
RMM:   4    -0.232445832909E+04    0.29964E-03   -0.31888E-03  5024   0.238E-02    0.173E-01
RMM:   5    -0.232445813777E+04    0.19132E-03   -0.54858E-04  4001   0.133E-02    0.113E-01
RMM:   6    -0.232445799362E+04    0.14415E-03   -0.48475E-04  4546   0.148E-02    0.383E-02
RMM:   7    -0.232445799189E+04    0.17252E-05   -0.86982E-05  3228   0.106E-02
 141 F= -.23453561E+04 E0= -.23453561E+04  d E =-.880531E-02  mag=     6.0000
       N       E                     dE             d eps       ncg     rms          rms(c)
DAV:   1    -0.232444587106E+04    0.12123E-01   -0.12947E+00  4480   0.114E+00    0.358E-01
RMM:   2    -0.232446346043E+04   -0.17589E-01   -0.18178E-01  6021   0.227E-01    0.295E-01
RMM:   3    -0.232446468921E+04   -0.12288E-02   -0.19282E-02  5654   0.881E-02    0.238E-01
RMM:   4    -0.232446438339E+04    0.30582E-03   -0.20217E-03  4737   0.198E-02    0.120E-01
RMM:   5    -0.232446429413E+04    0.89257E-04   -0.33878E-04  3798   0.111E-02    0.913E-02
RMM:   6    -0.232446420401E+04    0.90121E-04   -0.30467E-04  4308   0.121E-02    0.310E-02
RMM:   7    -0.232446420546E+04   -0.14480E-05   -0.55627E-05  3049   0.825E-03
 142 F= -.23453630E+04 E0= -.23453630E+04  d E =-.694225E-02  mag=     6.0000
       N       E                     dE             d eps       ncg     rms          rms(c)
DAV:   1    -0.232441610983E+04    0.48094E-01   -0.35949E+00  4480   0.190E+00    0.596E-01
RMM:   2    -0.232446510835E+04   -0.48999E-01   -0.50582E-01  6036   0.378E-01    0.494E-01
RMM:   3    -0.232446856500E+04   -0.34567E-02   -0.54315E-02  5753   0.146E-01    0.400E-01
RMM:   4    -0.232446767408E+04    0.89092E-03   -0.55906E-03  5245   0.326E-02    0.200E-01
RMM:   5    -0.232446742361E+04    0.25047E-03   -0.94299E-04  4907   0.173E-02    0.153E-01
RMM:   6    -0.232446716800E+04    0.25561E-03   -0.83995E-04  4853   0.184E-02    0.532E-02
RMM:   7    -0.232446716633E+04    0.16675E-05   -0.15437E-04  3962   0.116E-02    0.260E-02
RMM:   8    -0.232446715937E+04    0.69599E-05   -0.21258E-05  2912   0.445E-03
 143 F= -.23453672E+04 E0= -.23453672E+04  d E =-.111078E-01  mag=     6.0000
       N       E                     dE             d eps       ncg     rms          rms(c)
DAV:   1    -0.232445028239E+04    0.16884E-01   -0.14587E+00  4480   0.120E+00    0.373E-01
RMM:   2    -0.232447161198E+04   -0.21330E-01   -0.22149E-01  6127   0.244E-01    0.296E-01
RMM:   3    -0.232447334026E+04   -0.17283E-02   -0.23749E-02  5765   0.908E-02    0.246E-01
RMM:   4    -0.232447304350E+04    0.29676E-03   -0.23526E-03  4663   0.202E-02    0.122E-01
RMM:   5    -0.232447295522E+04    0.88282E-04   -0.34073E-04  3763   0.108E-02    0.940E-02
RMM:   6    -0.232447286321E+04    0.92008E-04   -0.30464E-04  4280   0.117E-02    0.379E-02
RMM:   7    -0.232447286149E+04    0.17223E-05   -0.65127E-05  3167   0.791E-03
 144 F= -.23453739E+04 E0= -.23453739E+04  d E =-.672213E-02  mag=     6.0000
       N       E                     dE             d eps       ncg     rms          rms(c)
DAV:   1    -0.232436978285E+04    0.10308E+00   -0.68232E+00  4480   0.260E+00    0.810E-01
RMM:   2    -0.232446985623E+04   -0.10007E+00   -0.10399E+00  6137   0.529E-01    0.653E-01
RMM:   3    -0.232447828290E+04   -0.84267E-02   -0.11562E-01  5893   0.201E-01    0.548E-01
RMM:   4    -0.232447670590E+04    0.15770E-02   -0.11068E-02  5453   0.439E-02    0.265E-01
RMM:   5    -0.232447628573E+04    0.42018E-03   -0.16501E-03  5129   0.214E-02    0.205E-01
RMM:   6    -0.232447585743E+04    0.42829E-03   -0.13930E-03  5013   0.225E-02    0.873E-02
RMM:   7    -0.232447582908E+04    0.28353E-04   -0.31838E-04  4536   0.144E-02    0.417E-02
RMM:   8    -0.232447581361E+04    0.15469E-04   -0.45954E-05  3020   0.638E-03    0.195E-02
RMM:   9    -0.232447580748E+04    0.61290E-05   -0.21963E-05  2883   0.458E-03
 145 F= -.23453791E+04 E0= -.23453791E+04  d E =-.118912E-01  mag=     6.0000
       N       E                     dE             d eps       ncg     rms          rms(c)
DAV:   1    -0.232444244490E+04    0.33369E-01   -0.25642E+00  4480   0.158E+00    0.497E-01
RMM:   2    -0.232448022258E+04   -0.37778E-01   -0.39010E-01  6111   0.321E-01    0.401E-01
RMM:   3    -0.232448311240E+04   -0.28898E-02   -0.41056E-02  5824   0.121E-01    0.324E-01
RMM:   4    -0.232448257212E+04    0.54028E-03   -0.40818E-03  5100   0.264E-02    0.164E-01
RMM:   5    -0.232448240741E+04    0.16472E-03   -0.60628E-04  4302   0.134E-02    0.126E-01
RMM:   6    -0.232448223666E+04    0.17075E-03   -0.52469E-04  4562   0.147E-02    0.486E-02
RMM:   7    -0.232448223512E+04    0.15331E-05   -0.11964E-04  3694   0.100E-02    0.237E-02
RMM:   8    -0.232448223028E+04    0.48425E-05   -0.16580E-05  2901   0.442E-03
 146 F= -.23453868E+04 E0= -.23453868E+04  d E =-.770135E-02  mag=     6.0000
       N       E                     dE             d eps       ncg     rms          rms(c)
DAV:   1    -0.232438588885E+04    0.96346E-01   -0.63151E+00  4480   0.248E+00    0.780E-01
RMM:   2    -0.232447898958E+04   -0.93101E-01   -0.96384E-01  6106   0.506E-01    0.615E-01
RMM:   3    -0.232448655627E+04   -0.75667E-02   -0.10459E-01  5874   0.188E-01    0.506E-01
RMM:   4    -0.232448524740E+04    0.13089E-02   -0.10129E-02  5496   0.411E-02    0.259E-01
RMM:   5    -0.232448482679E+04    0.42061E-03   -0.14913E-03  5000   0.197E-02    0.196E-01
RMM:   6    -0.232448442430E+04    0.40249E-03   -0.13102E-03  4927   0.219E-02    0.817E-02
RMM:   7    -0.232448440683E+04    0.17473E-04   -0.30887E-04  4555   0.141E-02    0.404E-02
RMM:   8    -0.232448439362E+04    0.13209E-04   -0.41290E-05  2958   0.583E-03    0.185E-02
RMM:   9    -0.232448438964E+04    0.39751E-05   -0.19257E-05  2883   0.429E-03
 147 F= -.23453909E+04 E0= -.23453909E+04  d E =-.118816E-01  mag=     6.0000
       N       E                     dE             d eps       ncg     rms          rms(c)
DAV:   1    -0.232443891601E+04    0.45478E-01   -0.34693E+00  4480   0.183E+00    0.603E-01
RMM:   2    -0.232449046763E+04   -0.51552E-01   -0.53199E-01  6029   0.372E-01    0.494E-01
RMM:   3    -0.232449388567E+04   -0.34180E-02   -0.55617E-02  5777   0.143E-01    0.357E-01
RMM:   4    -0.232449324363E+04    0.64204E-03   -0.56822E-03  5311   0.316E-02    0.213E-01
RMM:   5    -0.232449297741E+04    0.26622E-03   -0.93167E-04  4577   0.166E-02    0.151E-01
RMM:   6    -0.232449271943E+04    0.25798E-03   -0.77311E-04  4774   0.176E-02    0.541E-02
RMM:   7    -0.232449271852E+04    0.91201E-06   -0.15387E-04  3858   0.116E-02    0.256E-02
RMM:   8    -0.232449271194E+04    0.65735E-05   -0.21838E-05  2910   0.446E-03
 148 F= -.23454003E+04 E0= -.23454003E+04  d E =-.939343E-02  mag=     6.0000
       N       E                     dE             d eps       ncg     rms          rms(c)
DAV:   1    -0.232444581419E+04    0.46904E-01   -0.31316E+00  4480   0.174E+00    0.574E-01
RMM:   2    -0.232449230200E+04   -0.46488E-01   -0.48052E-01  6028   0.354E-01    0.461E-01
RMM:   3    -0.232449547321E+04   -0.31712E-02   -0.50142E-02  5786   0.133E-01    0.338E-01
RMM:   4    -0.232449490974E+04    0.56347E-03   -0.51386E-03  5257   0.298E-02    0.203E-01
RMM:   5    -0.232449466615E+04    0.24360E-03   -0.83686E-04  4480   0.157E-02    0.143E-01
RMM:   6    -0.232449443427E+04    0.23187E-03   -0.70573E-04  4762   0.168E-02    0.513E-02
RMM:   7    -0.232449443211E+04    0.21653E-05   -0.13601E-04  3774   0.110E-02    0.246E-02
RMM:   8    -0.232449442560E+04    0.65027E-05   -0.20582E-05  2905   0.444E-03
 149 F= -.23454031E+04 E0= -.23454031E+04  d E =-.121224E-01  mag=     6.0000
       N       E                     dE             d eps       ncg     rms          rms(c)
DAV:   1    -0.232444577559E+04    0.48657E-01   -0.33552E+00  4480   0.175E+00    0.605E-01
RMM:   2    -0.232449971015E+04   -0.53935E-01   -0.55543E-01  6097   0.367E-01    0.513E-01
RMM:   3    -0.232450302909E+04   -0.33189E-02   -0.58589E-02  5797   0.141E-01    0.338E-01
RMM:   4    -0.232450251067E+04    0.51842E-03   -0.59510E-03  5282   0.305E-02    0.224E-01
RMM:   5    -0.232450219838E+04    0.31229E-03   -0.88150E-04  4262   0.156E-02    0.148E-01
RMM:   6    -0.232450192109E+04    0.27729E-03   -0.85606E-04  4816   0.176E-02    0.543E-02
RMM:   7    -0.232450191746E+04    0.36243E-05   -0.16120E-04  3786   0.117E-02    0.249E-02
RMM:   8    -0.232450191000E+04    0.74610E-05   -0.23712E-05  2921   0.450E-03
 150 F= -.23454116E+04 E0= -.23454116E+04  d E =-.850235E-02  mag=     6.0000
