       N       E                     dE             d eps       ncg     rms          rms(c)
DAV:   1     0.123988005331E+05    0.12399E+05   -0.83899E+05  4640   0.142E+03
DAV:   2    -0.125867706255E+04   -0.13657E+05   -0.13114E+05  5040   0.321E+02
DAV:   3    -0.249689828197E+04   -0.12382E+04   -0.12277E+04  5440   0.104E+02
DAV:   4    -0.252499958010E+04   -0.28101E+02   -0.27936E+02  5680   0.194E+01
DAV:   5    -0.252583118559E+04   -0.83161E+00   -0.83010E+00  5840   0.283E+00    0.170E+02
RMM:   6    -0.148967967347E+04    0.10362E+04   -0.19212E+03  4502   0.378E+01    0.732E+01
RMM:   7    -0.167473414141E+04   -0.18505E+03   -0.29205E+02  5063   0.142E+01    0.577E+01
RMM:   8    -0.170215887637E+04   -0.27425E+02   -0.82640E+01  5306   0.814E+00    0.455E+01
RMM:   9    -0.177720010345E+04   -0.75041E+02   -0.65447E+01  5065   0.759E+00    0.367E+01
RMM:  10    -0.188748793353E+04   -0.11029E+03   -0.54976E+01  5353   0.722E+00    0.353E+01
RMM:  11    -0.196274974616E+04   -0.75262E+02   -0.36489E+01  5446   0.535E+00    0.205E+01
RMM:  12    -0.206311386966E+04   -0.10036E+03   -0.43783E+01  4776   0.501E+00    0.148E+01
RMM:  13    -0.217424956227E+04   -0.11114E+03   -0.68875E+01  4721   0.623E+00    0.145E+01
RMM:  14    -0.225229896595E+04   -0.78049E+02   -0.58865E+01  4825   0.545E+00    0.900E+00
RMM:  15    -0.230055241512E+04   -0.48253E+02   -0.43951E+01  4637   0.481E+00    0.480E+00
RMM:  16    -0.231168927384E+04   -0.11137E+02   -0.12474E+01  4825   0.299E+00    0.312E+00
RMM:  17    -0.231605571647E+04   -0.43664E+01   -0.42314E+00  4803   0.131E+00    0.168E+00
RMM:  18    -0.231765001923E+04   -0.15943E+01   -0.91509E-01  4850   0.873E-01    0.125E+00
RMM:  19    -0.231831799128E+04   -0.66797E+00   -0.30314E-01  4854   0.362E-01    0.974E-01
RMM:  20    -0.231840932597E+04   -0.91335E-01   -0.49204E-02  5037   0.212E-01    0.893E-01
RMM:  21    -0.231851127922E+04   -0.10195E+00   -0.61293E-02  4530   0.149E-01    0.526E-01
RMM:  22    -0.231857973297E+04   -0.68454E-01   -0.30439E-02  4561   0.154E-01    0.478E-01
RMM:  23    -0.231858972419E+04   -0.99912E-02   -0.76128E-03  4903   0.828E-02    0.404E-01
RMM:  24    -0.231859452506E+04   -0.48009E-02   -0.45524E-03  4614   0.462E-02    0.168E-01
RMM:  25    -0.231860779781E+04   -0.13273E-01   -0.46289E-03  4500   0.530E-02    0.920E-02
RMM:  26    -0.231861773015E+04   -0.99323E-02   -0.29774E-03  4488   0.494E-02    0.711E-02
RMM:  27    -0.231862508418E+04   -0.73540E-02   -0.27282E-03  4480   0.430E-02    0.404E-02
RMM:  28    -0.231862828346E+04   -0.31993E-02   -0.12354E-03  4406   0.320E-02    0.232E-02
RMM:  29    -0.231863001227E+04   -0.17288E-02   -0.70592E-04  4158   0.201E-02    0.150E-02
RMM:  30    -0.231863051764E+04   -0.50537E-03   -0.23506E-04  3954   0.157E-02    0.921E-03
RMM:  31    -0.231863074787E+04   -0.23024E-03   -0.10520E-04  3699   0.877E-03    0.629E-03
RMM:  32    -0.231863085955E+04   -0.11167E-03   -0.42045E-05  3479   0.691E-03    0.474E-03
RMM:  33    -0.231863091590E+04   -0.56355E-04   -0.17026E-05  3113   0.383E-03    0.248E-03
RMM:  34    -0.231863094685E+04   -0.30952E-04   -0.83483E-06  2904   0.317E-03    0.163E-03
RMM:  35    -0.231863095678E+04   -0.99291E-05   -0.45231E-06  2516   0.235E-03
   1 F= -.23395201E+04 E0= -.23395172E+04  d E =-.568940E-02  mag=     5.0000
       N       E                     dE             d eps       ncg     rms          rms(c)
DAV:   1    -0.231855114253E+04    0.79804E-01   -0.19655E+00  4480   0.534E-01    0.376E-01
RMM:   2    -0.231855274294E+04   -0.16004E-02   -0.12827E-02  4510   0.418E-02    0.373E-01
RMM:   3    -0.231855250395E+04    0.23899E-03   -0.24183E-03  4541   0.230E-02    0.430E-01
RMM:   4    -0.231855220060E+04    0.30335E-03   -0.47906E-04  3610   0.838E-03    0.351E-01
RMM:   5    -0.231855255424E+04   -0.35364E-03   -0.23595E-03  4574   0.202E-02    0.435E-01
RMM:   6    -0.231855112905E+04    0.14252E-02   -0.25195E-03  5148   0.202E-02    0.127E-01
RMM:   7    -0.231855131255E+04   -0.18350E-03   -0.39661E-04  3609   0.104E-02    0.128E-01
RMM:   8    -0.231855130572E+04    0.68366E-05   -0.34412E-04  3437   0.851E-03    0.630E-02
RMM:   9    -0.231855129883E+04    0.68866E-05   -0.19078E-04  3135   0.680E-03    0.178E-02
RMM:  10    -0.231855129998E+04   -0.11493E-05   -0.24074E-05  2940   0.340E-03
   2 F= -.23394413E+04 E0= -.23394385E+04  d E =-.553950E-02  mag=     5.0000
       N       E                     dE             d eps       ncg     rms          rms(c)
DAV:   1    -0.231869937144E+04   -0.14807E+00   -0.78274E+00  4480   0.101E+00    0.741E-01
RMM:   2    -0.231870551779E+04   -0.61464E-02   -0.43172E-02  4775   0.817E-02    0.768E-01
RMM:   3    -0.231870444994E+04    0.10679E-02   -0.79375E-03  5082   0.451E-02    0.848E-01
RMM:   4    -0.231870373138E+04    0.71856E-03   -0.13081E-03  4465   0.133E-02    0.741E-01
RMM:   5    -0.231870692472E+04   -0.31933E-02   -0.94289E-03  5169   0.393E-02    0.114E+00
RMM:   6    -0.231869933679E+04    0.75879E-02   -0.10477E-02  5400   0.393E-02    0.328E-01
RMM:   7    -0.231869947375E+04   -0.13696E-03   -0.26497E-03  5049   0.259E-02    0.344E-01
RMM:   8    -0.231869984736E+04   -0.37361E-03   -0.13769E-03  4169   0.154E-02    0.261E-01
RMM:   9    -0.231869977777E+04    0.69592E-04   -0.15753E-03  4221   0.173E-02    0.908E-02
RMM:  10    -0.231869976995E+04    0.78178E-05   -0.50411E-04  3644   0.102E-02    0.224E-02
RMM:  11    -0.231869976861E+04    0.13395E-05   -0.38611E-05  2979   0.437E-03
   3 F= -.23395880E+04 E0= -.23395854E+04  d E =-.535009E-02  mag=     5.0000
       N       E                     dE             d eps       ncg     rms          rms(c)
DAV:   1    -0.231859588474E+04    0.10389E+00   -0.37723E+00  4480   0.685E-01    0.442E-01
RMM:   2    -0.231859708941E+04   -0.12047E-02   -0.15559E-02  4316   0.465E-02    0.400E-01
RMM:   3    -0.231859800387E+04   -0.91446E-03   -0.38290E-03  4430   0.274E-02    0.700E-01
RMM:   4    -0.231859664071E+04    0.13632E-02   -0.10305E-03  4401   0.134E-02    0.456E-01
RMM:   5    -0.231859636902E+04    0.27170E-03   -0.28102E-03  4673   0.215E-02    0.395E-01
RMM:   6    -0.231859527212E+04    0.10969E-02   -0.21362E-03  5366   0.191E-02    0.141E-01
RMM:   7    -0.231859551315E+04   -0.24103E-03   -0.33797E-04  3518   0.909E-03    0.194E-01
RMM:   8    -0.231859546920E+04    0.43953E-04   -0.67695E-04  3854   0.111E-02    0.745E-02
RMM:   9    -0.231859545562E+04    0.13576E-04   -0.30447E-04  3260   0.848E-03    0.155E-02
RMM:  10    -0.231859545845E+04   -0.28284E-05   -0.37631E-05  2973   0.384E-03
   4 F= -.23394846E+04 E0= -.23394805E+04  d E =-.827240E-02  mag=     5.0000
       N       E                     dE             d eps       ncg     rms          rms(c)
DAV:   1    -0.231865373998E+04   -0.58284E-01   -0.76403E+00  4480   0.987E-01    0.545E-01
RMM:   2    -0.231865358613E+04    0.15384E-03   -0.23353E-02  4192   0.579E-02    0.470E-01
RMM:   3    -0.231865428108E+04   -0.69495E-03   -0.62862E-03  5554   0.313E-02    0.636E-01
RMM:   4    -0.231865213817E+04    0.21429E-02   -0.35208E-03  4808   0.228E-02    0.270E-01
RMM:   5    -0.231865179617E+04    0.34200E-03   -0.13428E-03  4043   0.158E-02    0.153E-01
RMM:   6    -0.231865161699E+04    0.17919E-03   -0.35352E-04  3432   0.879E-03    0.597E-02
RMM:   7    -0.231865159489E+04    0.22101E-04   -0.75568E-05  3036   0.519E-03    0.236E-02
RMM:   8    -0.231865160834E+04   -0.13454E-04   -0.17938E-05  2923   0.313E-03    0.310E-02
RMM:   9    -0.231865161276E+04   -0.44248E-05   -0.71762E-06  2674   0.228E-03
   5 F= -.23395407E+04 E0= -.23395388E+04  d E =-.392046E-02  mag=     5.0000
       N       E                     dE             d eps       ncg     rms          rms(c)
DAV:   1    -0.231854030120E+04    0.11131E+00   -0.41943E+00  4480   0.790E-01    0.674E-01
RMM:   2    -0.231855073762E+04   -0.10436E-01   -0.45195E-02  5182   0.854E-02    0.116E+00
RMM:   3    -0.231854244065E+04    0.82970E-02   -0.13150E-02  5833   0.465E-02    0.676E-01
RMM:   4    -0.231854119518E+04    0.12455E-02   -0.26864E-03  4619   0.195E-02    0.477E-01
RMM:   5    -0.231854071829E+04    0.47689E-03   -0.34886E-03  5376   0.236E-02    0.462E-01
RMM:   6    -0.231853909666E+04    0.16216E-02   -0.38935E-03  5150   0.255E-02    0.138E-01
RMM:   7    -0.231853920858E+04   -0.11192E-03   -0.48962E-04  3826   0.120E-02    0.121E-01
RMM:   8    -0.231853921590E+04   -0.73143E-05   -0.36352E-04  3386   0.874E-03    0.750E-02
RMM:   9    -0.231853920526E+04    0.10635E-04   -0.16711E-04  3128   0.651E-03    0.250E-02
RMM:  10    -0.231853920696E+04   -0.16939E-05   -0.22849E-05  2963   0.372E-03
   6 F= -.23394291E+04 E0= -.23394269E+04  d E =-.446349E-02  mag=     5.0000
       N       E                     dE             d eps       ncg     rms          rms(c)
DAV:   1    -0.231869868607E+04   -0.15948E+00   -0.83408E+00  4480   0.106E+00    0.131E+00
RMM:   2    -0.231874293839E+04   -0.44252E-01   -0.14908E-01  5469   0.153E-01    0.234E+00
RMM:   3    -0.231871500932E+04    0.27929E-01   -0.52878E-02  6125   0.897E-02    0.179E+00
RMM:   4    -0.231871203882E+04    0.29705E-02   -0.59130E-03  4554   0.245E-02    0.160E+00
RMM:   5    -0.231870878564E+04    0.32532E-02   -0.81106E-03  5483   0.345E-02    0.131E+00
RMM:   6    -0.231869834186E+04    0.10444E-01   -0.23890E-02  5412   0.594E-02    0.401E-01
RMM:   7    -0.231869738668E+04    0.95518E-03   -0.40158E-03  5111   0.305E-02    0.222E-01
RMM:   8    -0.231869813794E+04   -0.75126E-03   -0.15498E-03  4444   0.159E-02    0.304E-01
RMM:   9    -0.231869794367E+04    0.19427E-03   -0.17498E-03  4137   0.172E-02    0.117E-01
RMM:  10    -0.231869791477E+04    0.28899E-04   -0.28549E-04  3301   0.912E-03    0.308E-02
RMM:  11    -0.231869792710E+04   -0.12329E-04   -0.62999E-05  3002   0.470E-03    0.144E-02
RMM:  12    -0.231869793938E+04   -0.12281E-04   -0.11589E-05  2948   0.323E-03    0.107E-02
RMM:  13    -0.231869794693E+04   -0.75509E-05   -0.74002E-06  2883   0.264E-03
   7 F= -.23395863E+04 E0= -.23395836E+04  d E =-.543526E-02  mag=     5.0000
       N       E                     dE             d eps       ncg     rms          rms(c)
DAV:   1    -0.231871233601E+04   -0.14397E-01   -0.39219E+00  4480   0.754E-01    0.534E-01
RMM:   2    -0.231871719917E+04   -0.48632E-02   -0.27422E-02  5009   0.668E-02    0.917E-01
RMM:   3    -0.231871295679E+04    0.42424E-02   -0.87318E-03  5760   0.377E-02    0.603E-01
RMM:   4    -0.231871188078E+04    0.10760E-02   -0.26699E-03  4563   0.196E-02    0.336E-01
RMM:   5    -0.231871100965E+04    0.87113E-03   -0.19048E-03  5117   0.172E-02    0.230E-01
RMM:   6    -0.231871066950E+04    0.34015E-03   -0.85528E-04  4185   0.123E-02    0.902E-02
RMM:   7    -0.231871078828E+04   -0.11878E-03   -0.13489E-04  3074   0.645E-03    0.122E-01
RMM:   8    -0.231871079352E+04   -0.52378E-05   -0.13232E-04  3009   0.541E-03    0.911E-02
RMM:   9    -0.231871077209E+04    0.21427E-04   -0.14501E-04  3146   0.533E-03    0.209E-02
RMM:  10    -0.231871077240E+04   -0.30700E-06   -0.18667E-05  2834   0.328E-03
   8 F= -.23395991E+04 E0= -.23395972E+04  d E =-.381535E-02  mag=     5.0000
       N       E                     dE             d eps       ncg     rms          rms(c)
DAV:   1    -0.231854987473E+04    0.16090E+00   -0.82356E+00  4480   0.106E+00    0.754E-01
RMM:   2    -0.231855596549E+04   -0.60908E-02   -0.52378E-02  4836   0.825E-02    0.940E-01
RMM:   3    -0.231855429445E+04    0.16710E-02   -0.13540E-02  5095   0.511E-02    0.106E+00
RMM:   4    -0.231855270275E+04    0.15917E-02   -0.22061E-03  4407   0.176E-02    0.899E-01
RMM:   5    -0.231854922800E+04    0.34747E-02   -0.11912E-02  5110   0.455E-02    0.457E-01
RMM:   6    -0.231854819275E+04    0.10353E-02   -0.74335E-03  5732   0.365E-02    0.325E-01
RMM:   7    -0.231854757206E+04    0.62069E-03   -0.18660E-03  5167   0.196E-02    0.162E-01
RMM:   8    -0.231854767181E+04   -0.99752E-04   -0.77024E-04  3763   0.123E-02    0.127E-01
RMM:   9    -0.231854763673E+04    0.35083E-04   -0.48366E-04  3393   0.109E-02    0.746E-02
RMM:  10    -0.231854762804E+04    0.86828E-05   -0.17339E-04  3138   0.659E-03    0.169E-02
RMM:  11    -0.231854763055E+04   -0.25047E-05   -0.17435E-05  2967   0.377E-03
   9 F= -.23394376E+04 E0= -.23394340E+04  d E =-.726222E-02  mag=     5.0000
       N       E                     dE             d eps       ncg     rms          rms(c)
DAV:   1    -0.231863418420E+04   -0.86556E-01   -0.41705E+00  4480   0.830E-01    0.555E-01
RMM:   2    -0.231863597613E+04   -0.17919E-02   -0.22064E-02  4607   0.633E-02    0.608E-01
RMM:   3    -0.231863619309E+04   -0.21696E-03   -0.68371E-03  5006   0.358E-02    0.830E-01
RMM:   4    -0.231863461654E+04    0.15766E-02   -0.20902E-03  4375   0.178E-02    0.612E-01
RMM:   5    -0.231863260963E+04    0.20069E-02   -0.61056E-03  4902   0.339E-02    0.220E-01
RMM:   6    -0.231863273198E+04   -0.12235E-03   -0.22014E-03  5175   0.207E-02    0.256E-01
RMM:   7    -0.231863247616E+04    0.25582E-03   -0.61387E-04  4133   0.114E-02    0.177E-01
RMM:   8    -0.231863248512E+04   -0.89596E-05   -0.56348E-04  3637   0.100E-02    0.121E-01
RMM:   9    -0.231863243786E+04    0.47259E-04   -0.39038E-04  3467   0.945E-03    0.369E-02
RMM:  10    -0.231863243437E+04    0.34896E-05   -0.59174E-05  2985   0.439E-03
  10 F= -.23395215E+04 E0= -.23395191E+04  d E =-.489141E-02  mag=     5.0000
       N       E                     dE             d eps       ncg     rms          rms(c)
DAV:   1    -0.231859239785E+04    0.40040E-01   -0.85418E+00  4480   0.130E+00    0.678E-01
RMM:   2    -0.231858701210E+04    0.53858E-02   -0.29898E-02  4111   0.716E-02    0.436E-01
RMM:   3    -0.231858871072E+04   -0.16986E-02   -0.12114E-02  5689   0.424E-02    0.712E-01
RMM:   4    -0.231858479485E+04    0.39159E-02   -0.72792E-03  5569   0.332E-02    0.355E-01
RMM:   5    -0.231858434968E+04    0.44517E-03   -0.15052E-03  4012   0.149E-02    0.146E-01
RMM:   6    -0.231858417320E+04    0.17648E-03   -0.20333E-04  3109   0.709E-03    0.653E-02
RMM:   7    -0.231858415755E+04    0.15652E-04   -0.62850E-05  3000   0.375E-03    0.534E-02
RMM:   8    -0.231858414540E+04    0.12144E-04   -0.39492E-05  2921   0.368E-03    0.329E-02
RMM:   9    -0.231858414077E+04    0.46347E-05   -0.26474E-05  2880   0.298E-03
  11 F= -.23394734E+04 E0= -.23394700E+04  d E =-.672597E-02  mag=     5.0000
       N       E                     dE             d eps       ncg     rms          rms(c)
DAV:   1    -0.231868079290E+04   -0.96647E-01   -0.42139E+00  4480   0.871E-01    0.452E-01
RMM:   2    -0.231867997862E+04    0.81428E-03   -0.17196E-02  4237   0.547E-02    0.511E-01
RMM:   3    -0.231867909871E+04    0.87991E-03   -0.47552E-03  4981   0.292E-02    0.478E-01
RMM:   4    -0.231867814266E+04    0.95605E-03   -0.35011E-03  4649   0.222E-02    0.286E-01
RMM:   5    -0.231867745357E+04    0.68909E-03   -0.14945E-03  4359   0.190E-02    0.116E-01
RMM:   6    -0.231867736110E+04    0.92469E-04   -0.20713E-04  3311   0.683E-03    0.280E-02
RMM:   7    -0.231867736010E+04    0.99951E-06   -0.34018E-05  2959   0.376E-03
  12 F= -.23395662E+04 E0= -.23395638E+04  d E =-.480295E-02  mag=     5.0000
       N       E                     dE             d eps       ncg     rms          rms(c)
DAV:   1    -0.231856497381E+04    0.11239E+00   -0.81773E+00  4480   0.115E+00    0.667E-01
RMM:   2    -0.231856537520E+04   -0.40139E-03   -0.43502E-02  4611   0.824E-02    0.943E-01
RMM:   3    -0.231856208473E+04    0.32905E-02   -0.12285E-02  5398   0.448E-02    0.788E-01
RMM:   4    -0.231855947551E+04    0.26092E-02   -0.53619E-03  4972   0.284E-02    0.355E-01
RMM:   5    -0.231855849662E+04    0.97889E-03   -0.29308E-03  4866   0.230E-02    0.239E-01
RMM:   6    -0.231855812991E+04    0.36671E-03   -0.77422E-04  4274   0.122E-02    0.765E-02
RMM:   7    -0.231855822618E+04   -0.96268E-04   -0.11316E-04  3085   0.627E-03    0.122E-01
RMM:   8    -0.231855824173E+04   -0.15547E-04   -0.46820E-05  2853   0.364E-03    0.116E-01
RMM:   9    -0.231855820942E+04    0.32310E-04   -0.21562E-04  3247   0.613E-03    0.458E-02
RMM:  10    -0.231855820029E+04    0.91325E-05   -0.56585E-05  2899   0.409E-03
  13 F= -.23394476E+04 E0= -.23394443E+04  d E =-.665975E-02  mag=     5.0000
       N       E                     dE             d eps       ncg     rms          rms(c)
DAV:   1    -0.231862146701E+04   -0.63258E-01   -0.23818E+00  4480   0.630E-01    0.374E-01
RMM:   2    -0.231862157237E+04   -0.10536E-03   -0.12660E-02  4241   0.460E-02    0.437E-01
RMM:   3    -0.231862123369E+04    0.33869E-03   -0.32647E-03  5181   0.227E-02    0.465E-01
RMM:   4    -0.231862009205E+04    0.11416E-02   -0.17080E-03  4253   0.163E-02    0.148E-01
RMM:   5    -0.231862008122E+04    0.10833E-04   -0.83507E-04  3691   0.133E-02    0.147E-01
RMM:   6    -0.231861989804E+04    0.18318E-03   -0.27639E-04  3457   0.824E-03    0.363E-02
RMM:   7    -0.231861992139E+04   -0.23356E-04   -0.40166E-05  2948   0.425E-03    0.568E-02
RMM:   8    -0.231861992834E+04   -0.69530E-05   -0.16036E-05  2651   0.248E-03
  14 F= -.23395087E+04 E0= -.23395056E+04  d E =-.604507E-02  mag=     5.0000
       N       E                     dE             d eps       ncg     rms          rms(c)
DAV:   1    -0.231863976023E+04   -0.19839E-01   -0.12150E+00  4640   0.482E-01    0.345E-01
RMM:   2    -0.231864020503E+04   -0.44480E-03   -0.64652E-03  3869   0.320E-02    0.231E-01
RMM:   3    -0.231864177045E+04   -0.15654E-02   -0.24198E-03  5169   0.198E-02    0.580E-01
RMM:   4    -0.231864006561E+04    0.17048E-02   -0.15644E-03  4408   0.162E-02    0.104E-01
RMM:   5    -0.231864002312E+04    0.42492E-04   -0.36081E-04  3238   0.902E-03    0.970E-02
RMM:   6    -0.231863995176E+04    0.71360E-04   -0.10141E-04  3029   0.537E-03    0.281E-02
RMM:   7    -0.231863997240E+04   -0.20636E-04   -0.17632E-05  2852   0.304E-03    0.476E-02
RMM:   8    -0.231863997304E+04   -0.64747E-06   -0.24801E-05  2645   0.261E-03
  15 F= -.23395295E+04 E0= -.23395268E+04  d E =-.537070E-02  mag=     5.0000
       N       E                     dE             d eps       ncg     rms          rms(c)
DAV:   1    -0.231861085157E+04    0.29121E-01   -0.64857E-01  4960   0.351E-01    0.370E-01
RMM:   2    -0.231860935915E+04    0.14924E-02   -0.81497E-03  4166   0.331E-02    0.238E-01
RMM:   3    -0.231861056825E+04   -0.12091E-02   -0.27724E-03  4642   0.213E-02    0.540E-01
RMM:   4    -0.231860893412E+04    0.16341E-02   -0.13124E-03  4285   0.151E-02    0.957E-02
RMM:   5    -0.231860893444E+04   -0.31991E-06   -0.41951E-04  3535   0.855E-03    0.989E-02
RMM:   6    -0.231860887326E+04    0.61175E-04   -0.20031E-04  3038   0.688E-03    0.514E-02
RMM:   7    -0.231860885325E+04    0.20014E-04   -0.26471E-05  2742   0.345E-03    0.279E-02
RMM:   8    -0.231860885647E+04   -0.32220E-05   -0.86977E-06  2532   0.189E-03
  16 F= -.23394975E+04 E0= -.23394945E+04  d E =-.585037E-02  mag=     5.0000
       N       E                     dE             d eps       ncg     rms          rms(c)
DAV:   1    -0.231863577464E+04   -0.26921E-01   -0.13320E+00  5040   0.500E-01    0.646E-01
RMM:   2    -0.231862896395E+04    0.68107E-02   -0.27560E-02  4381   0.584E-02    0.408E-01
RMM:   3    -0.231863228827E+04   -0.33243E-02   -0.91959E-03  5083   0.401E-02    0.943E-01
RMM:   4    -0.231862737189E+04    0.49164E-02   -0.37449E-03  5228   0.254E-02    0.154E-01
RMM:   5    -0.231862715395E+04    0.21794E-03   -0.84792E-04  3830   0.127E-02    0.862E-02
RMM:   6    -0.231862717318E+04   -0.19232E-04   -0.16263E-04  3255   0.683E-03    0.900E-02
RMM:   7    -0.231862713598E+04    0.37202E-04   -0.58029E-05  2876   0.412E-03    0.671E-02
RMM:   8    -0.231862712430E+04    0.11684E-04   -0.24880E-05  2704   0.285E-03    0.500E-02
RMM:   9    -0.231862711147E+04    0.12821E-04   -0.39873E-05  2907   0.312E-03    0.246E-02
RMM:  10    -0.231862711039E+04    0.10807E-05   -0.80246E-06  2596   0.210E-03
  17 F= -.23395168E+04 E0= -.23395140E+04  d E =-.558272E-02  mag=     5.0000
       N       E                     dE             d eps       ncg     rms          rms(c)
DAV:   1    -0.231862248916E+04    0.46223E-02   -0.66808E-01  4960   0.365E-01    0.443E-01
RMM:   2    -0.231861943229E+04    0.30569E-02   -0.12417E-02  4170   0.409E-02    0.255E-01
RMM:   3    -0.231862064047E+04   -0.12082E-02   -0.35893E-03  4465   0.262E-02    0.558E-01
RMM:   4    -0.231861881397E+04    0.18265E-02   -0.16557E-03  4417   0.165E-02    0.115E-01
RMM:   5    -0.231861875991E+04    0.54068E-04   -0.47182E-04  3598   0.994E-03    0.804E-02
RMM:   6    -0.231861874949E+04    0.10414E-04   -0.18465E-04  3100   0.656E-03    0.787E-02
RMM:   7    -0.231861870069E+04    0.48807E-04   -0.37478E-05  2796   0.383E-03    0.338E-02
RMM:   8    -0.231861869875E+04    0.19331E-05   -0.13741E-05  2602   0.209E-03
  18 F= -.23395078E+04 E0= -.23395052E+04  d E =-.524832E-02  mag=     5.0000
       N       E                     dE             d eps       ncg     rms          rms(c)
DAV:   1    -0.231863770480E+04   -0.19004E-01   -0.12464E+00  4640   0.483E-01    0.415E-01
RMM:   2    -0.231863698252E+04    0.72228E-03   -0.88717E-03  3974   0.376E-02    0.301E-01
RMM:   3    -0.231863878769E+04   -0.18052E-02   -0.39931E-03  4894   0.263E-02    0.665E-01
RMM:   4    -0.231863641487E+04    0.23728E-02   -0.19968E-03  4713   0.189E-02    0.102E-01
RMM:   5    -0.231863646474E+04   -0.49866E-04   -0.62954E-04  3493   0.110E-02    0.117E-01
RMM:   6    -0.231863634986E+04    0.11487E-03   -0.16593E-04  3075   0.631E-03    0.652E-02
RMM:   7    -0.231863634090E+04    0.89662E-05   -0.21687E-05  2799   0.282E-03
  19 F= -.23395255E+04 E0= -.23395224E+04  d E =-.612459E-02  mag=     5.0000
       N       E                     dE             d eps       ncg     rms          rms(c)
DAV:   1    -0.231864707595E+04   -0.10726E-01   -0.61984E-01  4880   0.358E-01    0.320E-01
RMM:   2    -0.231864629077E+04    0.78518E-03   -0.70182E-03  4237   0.329E-02    0.225E-01
RMM:   3    -0.231864657909E+04   -0.28832E-03   -0.18964E-03  4789   0.189E-02    0.348E-01
RMM:   4    -0.231864594581E+04    0.63328E-03   -0.85361E-04  3964   0.117E-02    0.150E-01
RMM:   5    -0.231864594331E+04    0.24968E-05   -0.40699E-04  3439   0.868E-03    0.121E-01
RMM:   6    -0.231864580355E+04    0.13976E-03   -0.17235E-04  2988   0.642E-03    0.280E-02
RMM:   7    -0.231864579951E+04    0.40350E-05   -0.14495E-05  2523   0.244E-03
  20 F= -.23395352E+04 E0= -.23395327E+04  d E =-.507437E-02  mag=     5.0000
       N       E                     dE             d eps       ncg     rms          rms(c)
DAV:   1    -0.231860882908E+04    0.36974E-01   -0.12465E+00  4800   0.456E-01    0.523E-01
RMM:   2    -0.231860683758E+04    0.19915E-02   -0.19277E-02  4632   0.467E-02    0.395E-01
RMM:   3    -0.231860683817E+04   -0.59188E-06   -0.48863E-03  4738   0.308E-02    0.547E-01
RMM:   4    -0.231860525921E+04    0.15790E-02   -0.22554E-03  4610   0.180E-02    0.224E-01
RMM:   5    -0.231860551037E+04   -0.25116E-03   -0.15483E-03  4594   0.156E-02    0.258E-01
RMM:   6    -0.231860490887E+04    0.60150E-03   -0.59735E-04  3807   0.109E-02    0.581E-02
RMM:   7    -0.231860493882E+04   -0.29951E-04   -0.74252E-05  2953   0.447E-03    0.730E-02
RMM:   8    -0.231860494011E+04   -0.12902E-05   -0.12366E-05  2687   0.251E-03
  21 F= -.23394938E+04 E0= -.23394905E+04  d E =-.647387E-02  mag=     5.0000
       N       E                     dE             d eps       ncg     rms          rms(c)
DAV:   1    -0.231863739443E+04   -0.32456E-01   -0.60664E-01  4480   0.310E-01    0.305E-01
RMM:   2    -0.231863793747E+04   -0.54304E-03   -0.44962E-03  4203   0.262E-02    0.348E-01
RMM:   3    -0.231863781440E+04    0.12307E-03   -0.19283E-03  4559   0.170E-02    0.380E-01
RMM:   4    -0.231863714707E+04    0.66733E-03   -0.86978E-04  3917   0.131E-02    0.138E-01
RMM:   5    -0.231863702518E+04    0.12189E-03   -0.32974E-04  3453   0.829E-03    0.388E-02
RMM:   6    -0.231863709182E+04   -0.66639E-04   -0.57730E-05  2927   0.518E-03    0.885E-02
RMM:   7    -0.231863708722E+04    0.46059E-05   -0.24285E-05  2703   0.294E-03
  22 F= -.23395259E+04 E0= -.23395236E+04  d E =-.449586E-02  mag=     5.0000
       N       E                     dE             d eps       ncg     rms          rms(c)
DAV:   1    -0.231861991460E+04    0.17177E-01   -0.12197E+00  4800   0.449E-01    0.486E-01
RMM:   2    -0.231861920860E+04    0.70601E-03   -0.12637E-02  4416   0.438E-02    0.437E-01
RMM:   3    -0.231861984728E+04   -0.63868E-03   -0.50459E-03  5413   0.288E-02    0.638E-01
RMM:   4    -0.231861779463E+04    0.20527E-02   -0.19820E-03  4491   0.169E-02    0.211E-01
RMM:   5    -0.231861780158E+04   -0.69554E-05   -0.14391E-03  4532   0.165E-02    0.258E-01
RMM:   6    -0.231861732769E+04    0.47389E-03   -0.75125E-04  3835   0.113E-02    0.901E-02
RMM:   7    -0.231861732303E+04    0.46610E-05   -0.12211E-04  3073   0.571E-03    0.802E-02
RMM:   8    -0.231861735541E+04   -0.32381E-04   -0.49459E-05  2884   0.428E-03    0.850E-02
RMM:   9    -0.231861734309E+04    0.12316E-04   -0.99746E-05  2988   0.432E-03    0.383E-02
RMM:  10    -0.231861733937E+04    0.37203E-05   -0.69812E-05  2939   0.394E-03
  23 F= -.23395068E+04 E0= -.23395033E+04  d E =-.707438E-02  mag=     5.0000
       N       E                     dE             d eps       ncg     rms          rms(c)
DAV:   1    -0.231864404997E+04   -0.26707E-01   -0.64369E-01  4960   0.328E-01    0.404E-01
RMM:   2    -0.231864274151E+04    0.13085E-02   -0.11797E-02  4594   0.368E-02    0.309E-01
RMM:   3    -0.231864288292E+04   -0.14141E-03   -0.32338E-03  4931   0.239E-02    0.467E-01
RMM:   4    -0.231864183982E+04    0.10431E-02   -0.10528E-03  4237   0.127E-02    0.173E-01
RMM:   5    -0.231864204395E+04   -0.20413E-03   -0.92843E-04  3917   0.126E-02    0.297E-01
RMM:   6    -0.231864160139E+04    0.44256E-03   -0.49574E-04  3565   0.974E-03    0.137E-01
RMM:   7    -0.231864147422E+04    0.12717E-03   -0.31688E-04  3728   0.784E-03    0.468E-02
RMM:   8    -0.231864153442E+04   -0.60192E-04   -0.56114E-05  2928   0.523E-03    0.827E-02
RMM:   9    -0.231864152839E+04    0.60234E-05   -0.80440E-05  2908   0.413E-03
  24 F= -.23395309E+04 E0= -.23395276E+04  d E =-.665171E-02  mag=     5.0000
       N       E                     dE             d eps       ncg     rms          rms(c)
DAV:   1    -0.231861359577E+04    0.27939E-01   -0.12444E+00  4800   0.449E-01    0.492E-01
RMM:   2    -0.231861176044E+04    0.18353E-02   -0.16793E-02  4499   0.455E-02    0.331E-01
RMM:   3    -0.231861189815E+04   -0.13772E-03   -0.38132E-03  5174   0.273E-02    0.432E-01
RMM:   4    -0.231861085251E+04    0.10456E-02   -0.16277E-03  4836   0.159E-02    0.205E-01
RMM:   5    -0.231861106193E+04   -0.20942E-03   -0.11846E-03  4082   0.138E-02    0.307E-01
RMM:   6    -0.231861052696E+04    0.53496E-03   -0.57657E-04  3554   0.106E-02    0.105E-01
RMM:   7    -0.231861044479E+04    0.82173E-04   -0.25881E-04  3579   0.735E-03    0.522E-02
RMM:   8    -0.231861049953E+04   -0.54736E-04   -0.55411E-05  2941   0.531E-03    0.754E-02
RMM:   9    -0.231861049685E+04    0.26813E-05   -0.64360E-05  2882   0.385E-03
  25 F= -.23394994E+04 E0= -.23394970E+04  d E =-.484600E-02  mag=     5.0000
       N       E                     dE             d eps       ncg     rms          rms(c)
DAV:   1    -0.231862336247E+04   -0.12863E-01   -0.60792E-01  4720   0.343E-01    0.296E-01
RMM:   2    -0.231862327309E+04    0.89378E-04   -0.62674E-03  4294   0.309E-02    0.224E-01
RMM:   3    -0.231862364508E+04   -0.37199E-03   -0.15937E-03  4653   0.176E-02    0.413E-01
RMM:   4    -0.231862296043E+04    0.68465E-03   -0.54466E-04  3575   0.928E-03    0.162E-01
RMM:   5    -0.231862299594E+04   -0.35509E-04   -0.58939E-04  3932   0.106E-02    0.195E-01
RMM:   6    -0.231862281749E+04    0.17844E-03   -0.37530E-04  3316   0.839E-03    0.995E-02
RMM:   7    -0.231862276407E+04    0.53421E-04   -0.15093E-04  3299   0.614E-03    0.656E-02
RMM:   8    -0.231862279664E+04   -0.32564E-04   -0.60354E-05  2890   0.495E-03    0.706E-02
RMM:   9    -0.231862278598E+04    0.10653E-04   -0.83223E-05  2946   0.396E-03    0.242E-02
RMM:  10    -0.231862278523E+04    0.74768E-06   -0.23858E-05  2762   0.276E-03
  26 F= -.23395115E+04 E0= -.23395086E+04  d E =-.596688E-02  mag=     5.0000
       N       E                     dE             d eps       ncg     rms          rms(c)
DAV:   1    -0.231863692793E+04   -0.14142E-01   -0.11849E+00  4480   0.460E-01    0.335E-01
RMM:   2    -0.231863743035E+04   -0.50241E-03   -0.57959E-03  4065   0.304E-02    0.241E-01
RMM:   3    -0.231863852659E+04   -0.10962E-02   -0.20533E-03  4854   0.179E-02    0.517E-01
RMM:   4    -0.231863723680E+04    0.12898E-02   -0.13725E-03  4277   0.146E-02    0.125E-01
RMM:   5    -0.231863718289E+04    0.53908E-04   -0.60845E-04  3443   0.105E-02    0.956E-02
RMM:   6    -0.231863718414E+04   -0.12534E-05   -0.27947E-04  3368   0.751E-03    0.867E-02
RMM:   7    -0.231863716134E+04    0.22805E-04   -0.76794E-05  2960   0.537E-03    0.738E-02
RMM:   8    -0.231863716703E+04   -0.56891E-05   -0.50240E-05  2773   0.341E-03
  27 F= -.23395267E+04 E0= -.23395239E+04  d E =-.547013E-02  mag=     5.0000
       N       E                     dE             d eps       ncg     rms          rms(c)
DAV:   1    -0.231861212219E+04    0.25039E-01   -0.59397E-01  4960   0.333E-01    0.296E-01
RMM:   2    -0.231861145726E+04    0.66493E-03   -0.56722E-03  3889   0.290E-02    0.197E-01
RMM:   3    -0.231861239200E+04   -0.93473E-03   -0.18440E-03  4411   0.170E-02    0.480E-01
RMM:   4    -0.231861117429E+04    0.12177E-02   -0.87216E-04  3961   0.126E-02    0.807E-02
RMM:   5    -0.231861114367E+04    0.30622E-04   -0.26269E-04  3256   0.727E-03    0.428E-02
RMM:   6    -0.231861115435E+04   -0.10677E-04   -0.64455E-05  2939   0.470E-03    0.527E-02
RMM:   7    -0.231861114141E+04    0.12937E-04   -0.21068E-05  2653   0.289E-03    0.379E-02
RMM:   8    -0.231861114292E+04   -0.15111E-05   -0.63553E-06  2399   0.166E-03
  28 F= -.23395006E+04 E0= -.23394978E+04  d E =-.563389E-02  mag=     5.0000
       N       E                     dE             d eps       ncg     rms          rms(c)
DAV:   1    -0.231864010610E+04   -0.28965E-01   -0.12401E+00  4960   0.476E-01    0.542E-01
RMM:   2    -0.231863540380E+04    0.47023E-02   -0.19533E-02  4306   0.484E-02    0.317E-01
RMM:   3    -0.231863685298E+04   -0.14492E-02   -0.50124E-03  4671   0.311E-02    0.629E-01
RMM:   4    -0.231863457933E+04    0.22737E-02   -0.24116E-03  4814   0.199E-02    0.194E-01
RMM:   5    -0.231863439927E+04    0.18005E-03   -0.63453E-04  3823   0.107E-02    0.109E-01
RMM:   6    -0.231863438961E+04    0.96667E-05   -0.30126E-04  3194   0.813E-03    0.950E-02
RMM:   7    -0.231863430698E+04    0.82630E-04   -0.75537E-05  2952   0.507E-03    0.227E-02
RMM:   8    -0.231863430687E+04    0.10882E-06   -0.17613E-05  2736   0.255E-03
  29 F= -.23395231E+04 E0= -.23395203E+04  d E =-.570488E-02  mag=     5.0000
       N       E                     dE             d eps       ncg     rms          rms(c)
DAV:   1    -0.231862889968E+04    0.54073E-02   -0.60397E-01  4480   0.325E-01    0.249E-01
RMM:   2    -0.231862890136E+04   -0.16793E-05   -0.34778E-03  3809   0.233E-02    0.180E-01
RMM:   3    -0.231862945189E+04   -0.55053E-03   -0.12516E-03  4329   0.140E-02    0.374E-01
RMM:   4    -0.231862873042E+04    0.72147E-03   -0.68724E-04  3646   0.107E-02    0.699E-02
RMM:   5    -0.231862873071E+04   -0.28730E-06   -0.23584E-04  3074   0.710E-03    0.717E-02
RMM:   6    -0.231862869042E+04    0.40288E-04   -0.80711E-05  2888   0.470E-03    0.263E-02
RMM:   7    -0.231862868943E+04    0.98938E-06   -0.10088E-05  2601   0.253E-03
  30 F= -.23395177E+04 E0= -.23395147E+04  d E =-.595855E-02  mag=     5.0000
       N       E                     dE             d eps       ncg     rms          rms(c)
DAV:   1    -0.231862413639E+04    0.45540E-02   -0.12293E+00  4800   0.480E-01    0.459E-01
RMM:   2    -0.231862238767E+04    0.17487E-02   -0.12584E-02  4147   0.438E-02    0.352E-01
RMM:   3    -0.231862427446E+04   -0.18868E-02   -0.51178E-03  4845   0.299E-02    0.719E-01
RMM:   4    -0.231862146124E+04    0.28132E-02   -0.21939E-03  4830   0.200E-02    0.127E-01
RMM:   5    -0.231862153608E+04   -0.74845E-04   -0.89633E-04  3737   0.126E-02    0.144E-01
RMM:   6    -0.231862135901E+04    0.17708E-03   -0.27991E-04  3389   0.770E-03    0.775E-02
RMM:   7    -0.231862134200E+04    0.17004E-04   -0.31991E-05  2884   0.354E-03    0.577E-02
RMM:   8    -0.231862133942E+04    0.25800E-05   -0.10533E-05  2577   0.220E-03
  31 F= -.23395106E+04 E0= -.23395079E+04  d E =-.540279E-02  mag=     5.0000
