       N       E                     dE             d eps       ncg     rms          rms(c)
DAV:   1     0.126870845046E+05    0.12687E+05   -0.82792E+05  4432   0.143E+03
DAV:   2    -0.106753340968E+04   -0.13755E+05   -0.13181E+05  5320   0.329E+02
DAV:   3    -0.247073706360E+04   -0.14032E+04   -0.13902E+04  5344   0.111E+02
DAV:   4    -0.251719463324E+04   -0.46458E+02   -0.46228E+02  6640   0.301E+01
DAV:   5    -0.251814485211E+04   -0.95022E+00   -0.94876E+00  5592   0.335E+00    0.170E+02
RMM:   6    -0.147898330203E+04    0.10392E+04   -0.19511E+03  4386   0.388E+01    0.741E+01
RMM:   7    -0.165894173338E+04   -0.17996E+03   -0.28561E+02  5041   0.139E+01    0.560E+01
RMM:   8    -0.168721340661E+04   -0.28272E+02   -0.69027E+01  5059   0.810E+00    0.387E+01
RMM:   9    -0.180051848016E+04   -0.11331E+03   -0.51206E+01  4664   0.750E+00    0.327E+01
RMM:  10    -0.191299998206E+04   -0.11248E+03   -0.45607E+01  4917   0.661E+00    0.283E+01
RMM:  11    -0.199074863945E+04   -0.77749E+02   -0.32146E+01  5165   0.496E+00    0.185E+01
RMM:  12    -0.208200796148E+04   -0.91259E+02   -0.39924E+01  4659   0.495E+00    0.131E+01
RMM:  13    -0.221335623003E+04   -0.13135E+03   -0.10490E+02  4428   0.748E+00    0.897E+00
RMM:  14    -0.227913523569E+04   -0.65779E+02   -0.59368E+01  4696   0.551E+00    0.572E+00
RMM:  15    -0.229768575293E+04   -0.18551E+02   -0.18394E+01  4890   0.346E+00    0.375E+00
RMM:  16    -0.230682032808E+04   -0.91346E+01   -0.94807E+00  4761   0.193E+00    0.215E+00
RMM:  17    -0.230922459579E+04   -0.24043E+01   -0.24452E+00  4927   0.122E+00    0.154E+00
RMM:  18    -0.231066355402E+04   -0.14390E+01   -0.11979E+00  4646   0.589E-01    0.802E-01
RMM:  19    -0.231092563179E+04   -0.26208E+00   -0.19518E-01  4751   0.375E-01    0.721E-01
RMM:  20    -0.231102007210E+04   -0.94440E-01   -0.72125E-02  4480   0.170E-01    0.430E-01
RMM:  21    -0.231104759666E+04   -0.27525E-01   -0.18401E-02  4775   0.128E-01    0.338E-01
RMM:  22    -0.231106418673E+04   -0.16590E-01   -0.90004E-03  4473   0.635E-02    0.194E-01
RMM:  23    -0.231107525613E+04   -0.11069E-01   -0.49397E-03  4407   0.559E-02    0.132E-01
RMM:  24    -0.231108163769E+04   -0.63816E-02   -0.29634E-03  4494   0.406E-02    0.909E-02
RMM:  25    -0.231108528342E+04   -0.36457E-02   -0.19729E-03  4519   0.323E-02    0.877E-02
RMM:  26    -0.231108692769E+04   -0.16443E-02   -0.10383E-03  4230   0.196E-02    0.807E-02
RMM:  27    -0.231108801364E+04   -0.10859E-02   -0.92781E-04  3936   0.168E-02    0.764E-02
RMM:  28    -0.231108903173E+04   -0.10181E-02   -0.20825E-03  4013   0.224E-02    0.701E-02
RMM:  29    -0.231108935786E+04   -0.32613E-03   -0.14684E-03  4050   0.195E-02    0.642E-02
RMM:  30    -0.231108967270E+04   -0.31484E-03   -0.36565E-03  4059   0.240E-02    0.448E-02
RMM:  31    -0.231108981942E+04   -0.14672E-03   -0.10064E-03  3877   0.204E-02    0.300E-02
RMM:  32    -0.231108989224E+04   -0.72819E-04   -0.22228E-04  3525   0.764E-03    0.223E-02
RMM:  33    -0.231108992616E+04   -0.33919E-04   -0.17119E-04  3058   0.705E-03    0.179E-02
RMM:  34    -0.231108995374E+04   -0.27582E-04   -0.11636E-04  3049   0.539E-03    0.144E-02
RMM:  35    -0.231108998722E+04   -0.33478E-04   -0.25734E-04  3224   0.720E-03    0.808E-03
RMM:  36    -0.231108999805E+04   -0.10826E-04   -0.28965E-05  2860   0.491E-03    0.394E-03
RMM:  37    -0.231109000545E+04   -0.74038E-05   -0.24220E-05  2657   0.264E-03
   1 F= -.23315392E+04 E0= -.23315392E+04  d E =-.233154E+04  mag=     5.0002
       N       E                     dE             d eps       ncg     rms          rms(c)
DAV:   1    -0.231156390126E+04   -0.47390E+00   -0.66187E+01  4688   0.464E+00    0.228E+00
RMM:   2    -0.231216862848E+04   -0.60473E+00   -0.59373E+00  6208   0.109E+00    0.363E+00
RMM:   3    -0.231212333076E+04    0.45298E-01   -0.63707E-01  5660   0.344E-01    0.143E+00
RMM:   4    -0.231210979327E+04    0.13537E-01   -0.74648E-02  4793   0.966E-02    0.745E-01
RMM:   5    -0.231210837710E+04    0.14162E-02   -0.42715E-02  5209   0.866E-02    0.916E-01
RMM:   6    -0.231210269104E+04    0.56861E-02   -0.13648E-02  5595   0.557E-02    0.268E-01
RMM:   7    -0.231210225862E+04    0.43242E-03   -0.19542E-03  4712   0.201E-02    0.143E-01
RMM:   8    -0.231210249196E+04   -0.23335E-03   -0.62783E-04  3947   0.124E-02    0.123E-01
RMM:   9    -0.231210264158E+04   -0.14962E-03   -0.22883E-04  3318   0.856E-03    0.115E-01
RMM:  10    -0.231210292154E+04   -0.27996E-03   -0.63370E-04  3683   0.115E-02    0.967E-02
RMM:  11    -0.231210325493E+04   -0.33339E-03   -0.13167E-03  3900   0.168E-02    0.746E-02
RMM:  12    -0.231210336662E+04   -0.11168E-03   -0.78173E-04  3642   0.127E-02    0.317E-02
RMM:  13    -0.231210341074E+04   -0.44129E-04   -0.26766E-04  3176   0.755E-03    0.191E-02
RMM:  14    -0.231210343107E+04   -0.20328E-04   -0.11333E-04  2923   0.572E-03    0.135E-02
RMM:  15    -0.231210344001E+04   -0.89423E-05   -0.66414E-05  2898   0.442E-03
   2 F= -.23325509E+04 E0= -.23325509E+04  d E =-.101168E+01  mag=     5.0000
       N       E                     dE             d eps       ncg     rms          rms(c)
DAV:   1    -0.231212854857E+04   -0.25118E-01   -0.13386E+01  4560   0.210E+00    0.107E+00
RMM:   2    -0.231222666260E+04   -0.98114E-01   -0.11110E+00  6175   0.451E-01    0.112E+00
RMM:   3    -0.231222904276E+04   -0.23802E-02   -0.12700E-01  5592   0.154E-01    0.816E-01
RMM:   4    -0.231222436225E+04    0.46805E-02   -0.16337E-02  5091   0.446E-02    0.317E-01
RMM:   5    -0.231222270011E+04    0.16621E-02   -0.60997E-03  5026   0.352E-02    0.146E-01
RMM:   6    -0.231222266945E+04    0.30657E-04   -0.10400E-03  4480   0.212E-02    0.119E-01
RMM:   7    -0.231222257418E+04    0.95274E-04   -0.36116E-04  3624   0.889E-03    0.511E-02
RMM:   8    -0.231222255520E+04    0.18974E-04   -0.56043E-05  2907   0.603E-03    0.265E-02
RMM:   9    -0.231222254999E+04    0.52105E-05   -0.30973E-05  2892   0.415E-03
   3 F= -.23326696E+04 E0= -.23326696E+04  d E =-.113041E+01  mag=     5.0000
       N       E                     dE             d eps       ncg     rms          rms(c)
DAV:   1    -0.231222541692E+04   -0.28617E-02   -0.25243E+01  4496   0.369E+00    0.191E+00
RMM:   2    -0.231261998545E+04   -0.39457E+00   -0.40316E+00  6193   0.101E+00    0.253E+00
RMM:   3    -0.231259746797E+04    0.22517E-01   -0.38274E-01  5583   0.298E-01    0.131E+00
RMM:   4    -0.231258777026E+04    0.96977E-02   -0.44650E-02  5209   0.793E-02    0.488E-01
RMM:   5    -0.231258595104E+04    0.18192E-02   -0.10197E-02  5258   0.506E-02    0.419E-01
RMM:   6    -0.231258457276E+04    0.13783E-02   -0.51732E-03  5705   0.397E-02    0.144E-01
RMM:   7    -0.231258440593E+04    0.16683E-03   -0.58732E-04  4343   0.156E-02    0.712E-02
RMM:   8    -0.231258441058E+04   -0.46483E-05   -0.20949E-04  3700   0.808E-03    0.393E-02
RMM:   9    -0.231258441671E+04   -0.61297E-05   -0.45066E-05  2981   0.573E-03
   4 F= -.23330297E+04 E0= -.23330297E+04  d E =-.360131E+00  mag=     5.0000
       N       E                     dE             d eps       ncg     rms          rms(c)
DAV:   1    -0.231245514876E+04    0.12926E+00   -0.14580E+01  4512   0.291E+00    0.143E+00
RMM:   2    -0.231268468164E+04   -0.22953E+00   -0.23994E+00  6229   0.812E-01    0.163E+00
RMM:   3    -0.231268145536E+04    0.32263E-02   -0.21967E-01  5553   0.232E-01    0.108E+00
RMM:   4    -0.231267454516E+04    0.69102E-02   -0.25819E-02  5286   0.605E-02    0.357E-01
RMM:   5    -0.231267334903E+04    0.11961E-02   -0.60321E-03  5151   0.391E-02    0.288E-01
RMM:   6    -0.231267278681E+04    0.56221E-03   -0.24434E-03  5350   0.292E-02    0.110E-01
RMM:   7    -0.231267273208E+04    0.54739E-04   -0.35058E-04  4086   0.119E-02    0.762E-02
RMM:   8    -0.231267272864E+04    0.34347E-05   -0.15568E-04  3413   0.749E-03    0.439E-02
RMM:   9    -0.231267273754E+04   -0.88963E-05   -0.45055E-05  2909   0.547E-03
   5 F= -.23331168E+04 E0= -.23331168E+04  d E =-.447172E+00  mag=     5.0000
       N       E                     dE             d eps       ncg     rms          rms(c)
DAV:   1    -0.231281250830E+04   -0.13978E+00   -0.15330E+01  4464   0.288E+00    0.123E+00
RMM:   2    -0.231294788637E+04   -0.13538E+00   -0.14263E+00  6217   0.680E-01    0.161E+00
RMM:   3    -0.231293704375E+04    0.10843E-01   -0.11314E-01  5915   0.176E-01    0.910E-01
RMM:   4    -0.231293195326E+04    0.50905E-02   -0.21795E-02  4885   0.573E-02    0.408E-01
RMM:   5    -0.231293033031E+04    0.16229E-02   -0.75452E-03  5238   0.481E-02    0.303E-01
RMM:   6    -0.231292972655E+04    0.60376E-03   -0.22433E-03  5447   0.289E-02    0.106E-01
RMM:   7    -0.231292970242E+04    0.24134E-04   -0.26249E-04  3666   0.966E-03    0.734E-02
RMM:   8    -0.231292973762E+04   -0.35204E-04   -0.16247E-04  3536   0.819E-03    0.572E-02
RMM:   9    -0.231292980400E+04   -0.66376E-04   -0.15137E-04  3466   0.767E-03    0.473E-02
RMM:  10    -0.231292986855E+04   -0.64548E-04   -0.14667E-04  3201   0.737E-03    0.407E-02
RMM:  11    -0.231292993508E+04   -0.66533E-04   -0.33601E-04  3607   0.901E-03    0.231E-02
RMM:  12    -0.231292995822E+04   -0.23136E-04   -0.16932E-04  3003   0.737E-03    0.128E-02
RMM:  13    -0.231292995967E+04   -0.14536E-05   -0.29298E-05  2852   0.408E-03
   6 F= -.23333731E+04 E0= -.23333731E+04  d E =-.256283E+00  mag=     5.0000
       N       E                     dE             d eps       ncg     rms          rms(c)
DAV:   1    -0.231293387526E+04   -0.39170E-02   -0.22647E+00  4608   0.113E+00    0.475E-01
RMM:   2    -0.231295342277E+04   -0.19548E-01   -0.20774E-01  6225   0.257E-01    0.573E-01
RMM:   3    -0.231295254228E+04    0.88049E-03   -0.17138E-02  5665   0.672E-02    0.374E-01
RMM:   4    -0.231295166579E+04    0.87649E-03   -0.30450E-03  4500   0.222E-02    0.152E-01
RMM:   5    -0.231295144893E+04    0.21686E-03   -0.11029E-03  4680   0.189E-02    0.108E-01
RMM:   6    -0.231295138642E+04    0.62502E-04   -0.30402E-04  4204   0.119E-02    0.400E-02
RMM:   7    -0.231295138389E+04    0.25317E-05   -0.44102E-05  2976   0.518E-03
   7 F= -.23333942E+04 E0= -.23333942E+04  d E =-.277381E+00  mag=     5.0000
       N       E                     dE             d eps       ncg     rms          rms(c)
DAV:   1    -0.231311802958E+04   -0.16664E+00   -0.78726E+00  4456   0.226E+00    0.902E-01
RMM:   2    -0.231315349850E+04   -0.35469E-01   -0.40969E-01  5759   0.402E-01    0.739E-01
RMM:   3    -0.231315603207E+04   -0.25336E-02   -0.43375E-02  5623   0.143E-01    0.763E-01
RMM:   4    -0.231315200526E+04    0.40268E-02   -0.68726E-03  5303   0.461E-02    0.288E-01
RMM:   5    -0.231315140360E+04    0.60166E-03   -0.37387E-03  5122   0.374E-02    0.137E-01
RMM:   6    -0.231315132929E+04    0.74306E-04   -0.63822E-04  4982   0.180E-02    0.552E-02
RMM:   7    -0.231315129090E+04    0.38391E-04   -0.99566E-05  3315   0.710E-03    0.313E-02
RMM:   8    -0.231315127345E+04    0.17451E-04   -0.41085E-05  3026   0.532E-03    0.178E-02
RMM:   9    -0.231315126981E+04    0.36394E-05   -0.11821E-05  2839   0.409E-03
   8 F= -.23335949E+04 E0= -.23335949E+04  d E =-.200748E+00  mag=     5.0000
       N       E                     dE             d eps       ncg     rms          rms(c)
DAV:   1    -0.231318646489E+04   -0.35191E-01   -0.12969E+01  4480   0.288E+00    0.114E+00
RMM:   2    -0.231324663496E+04   -0.60170E-01   -0.67756E-01  5788   0.505E-01    0.102E+00
RMM:   3    -0.231324972865E+04   -0.30937E-02   -0.70807E-02  5699   0.176E-01    0.970E-01
RMM:   4    -0.231324304722E+04    0.66814E-02   -0.10731E-02  5171   0.566E-02    0.337E-01
RMM:   5    -0.231324210970E+04    0.93752E-03   -0.56610E-03  5251   0.457E-02    0.152E-01
RMM:   6    -0.231324202582E+04    0.83879E-04   -0.89082E-04  5171   0.212E-02    0.696E-02
RMM:   7    -0.231324196694E+04    0.58884E-04   -0.13982E-04  3542   0.802E-03    0.382E-02
RMM:   8    -0.231324193799E+04    0.28950E-04   -0.60880E-05  3199   0.637E-03    0.208E-02
RMM:   9    -0.231324192870E+04    0.92847E-05   -0.18679E-05  2881   0.484E-03
   9 F= -.23336867E+04 E0= -.23336867E+04  d E =-.292569E+00  mag=     5.0000
       N       E                     dE             d eps       ncg     rms          rms(c)
DAV:   1    -0.231336632016E+04   -0.12438E+00   -0.33981E+00  4552   0.132E+00    0.531E-01
RMM:   2    -0.231338992935E+04   -0.23609E-01   -0.25192E-01  6119   0.239E-01    0.475E-01
RMM:   3    -0.231339166443E+04   -0.17351E-02   -0.27774E-02  5687   0.868E-02    0.376E-01
RMM:   4    -0.231339090634E+04    0.75809E-03   -0.31885E-03  4930   0.245E-02    0.215E-01
RMM:   5    -0.231339072697E+04    0.17937E-03   -0.16193E-03  4977   0.206E-02    0.143E-01
RMM:   6    -0.231339061194E+04    0.11503E-03   -0.36145E-04  4116   0.112E-02    0.758E-02
RMM:   7    -0.231339057503E+04    0.36906E-04   -0.75767E-05  2917   0.571E-03    0.253E-02
RMM:   8    -0.231339057347E+04    0.15636E-05   -0.19664E-05  2866   0.357E-03
  10 F= -.23338364E+04 E0= -.23338364E+04  d E =-.149612E+00  mag=     5.0000
       N       E                     dE             d eps       ncg     rms          rms(c)
DAV:   1    -0.231341601307E+04   -0.25438E-01   -0.18793E+01  4416   0.309E+00    0.124E+00
RMM:   2    -0.231355220256E+04   -0.13619E+00   -0.14431E+00  6082   0.561E-01    0.129E+00
RMM:   3    -0.231355852292E+04   -0.63204E-02   -0.16188E-01  5848   0.204E-01    0.889E-01
RMM:   4    -0.231355365525E+04    0.48677E-02   -0.17811E-02  5001   0.555E-02    0.424E-01
RMM:   5    -0.231355241256E+04    0.12427E-02   -0.72626E-03  5373   0.452E-02    0.232E-01
RMM:   6    -0.231355229130E+04    0.12126E-03   -0.14795E-03  5213   0.236E-02    0.185E-01
RMM:   7    -0.231355207916E+04    0.21214E-03   -0.47124E-04  3807   0.107E-02    0.688E-02
RMM:   8    -0.231355204172E+04    0.37441E-04   -0.80401E-05  3033   0.653E-03    0.189E-02
RMM:   9    -0.231355204435E+04   -0.26339E-05   -0.40144E-05  2989   0.522E-03
  11 F= -.23340000E+04 E0= -.23340000E+04  d E =-.313217E+00  mag=     5.0000
       N       E                     dE             d eps       ncg     rms          rms(c)
DAV:   1    -0.231366650938E+04   -0.11447E+00   -0.45330E+00  4480   0.151E+00    0.604E-01
RMM:   2    -0.231368307271E+04   -0.16563E-01   -0.22316E-01  5861   0.247E-01    0.451E-01
RMM:   3    -0.231368440597E+04   -0.13333E-02   -0.23789E-02  5384   0.962E-02    0.549E-01
RMM:   4    -0.231368250562E+04    0.19003E-02   -0.46421E-03  5298   0.330E-02    0.217E-01
RMM:   5    -0.231368214792E+04    0.35770E-03   -0.19536E-03  4849   0.240E-02    0.124E-01
RMM:   6    -0.231368203744E+04    0.11048E-03   -0.33729E-04  4245   0.128E-02    0.464E-02
RMM:   7    -0.231368201770E+04    0.19743E-04   -0.59025E-05  3155   0.641E-03    0.169E-02
RMM:   8    -0.231368201092E+04    0.67827E-05   -0.17389E-05  2882   0.408E-03
  12 F= -.23341301E+04 E0= -.23341301E+04  d E =-.130137E+00  mag=     5.0000
       N       E                     dE             d eps       ncg     rms          rms(c)
DAV:   1    -0.231370385036E+04   -0.21833E-01   -0.28367E+00  4512   0.121E+00    0.473E-01
RMM:   2    -0.231371418774E+04   -0.10337E-01   -0.13794E-01  5804   0.194E-01    0.343E-01
RMM:   3    -0.231371502443E+04   -0.83670E-03   -0.14923E-02  5293   0.778E-02    0.423E-01
RMM:   4    -0.231371395866E+04    0.10658E-02   -0.27527E-03  5106   0.259E-02    0.177E-01
RMM:   5    -0.231371374738E+04    0.21128E-03   -0.12665E-03  4729   0.193E-02    0.106E-01
RMM:   6    -0.231371366678E+04    0.80601E-04   -0.22347E-04  3885   0.107E-02    0.403E-02
RMM:   7    -0.231371365211E+04    0.14670E-04   -0.41528E-05  2999   0.544E-03    0.133E-02
RMM:   8    -0.231371364751E+04    0.45955E-05   -0.11925E-05  2862   0.350E-03
  13 F= -.23341619E+04 E0= -.23341619E+04  d E =-.161955E+00  mag=     5.0000
       N       E                     dE             d eps       ncg     rms          rms(c)
DAV:   1    -0.231374352789E+04   -0.29876E-01   -0.84610E-01  4648   0.699E-01    0.289E-01
RMM:   2    -0.231375242414E+04   -0.88962E-02   -0.97645E-02  6067   0.146E-01    0.217E-01
RMM:   3    -0.231375334253E+04   -0.91839E-03   -0.10330E-02  5409   0.513E-02    0.265E-01
RMM:   4    -0.231375296552E+04    0.37701E-03   -0.12170E-03  4117   0.142E-02    0.948E-02
RMM:   5    -0.231375286221E+04    0.10331E-03   -0.39601E-04  4046   0.115E-02    0.486E-02
RMM:   6    -0.231375284748E+04    0.14733E-04   -0.14263E-04  3731   0.861E-03    0.424E-02
RMM:   7    -0.231375283485E+04    0.12635E-04   -0.29752E-05  2845   0.545E-03    0.920E-03
RMM:   8    -0.231375283350E+04    0.13450E-05   -0.83832E-06  2849   0.312E-03
  14 F= -.23342010E+04 E0= -.23342010E+04  d E =-.390679E-01  mag=     5.0000
       N       E                     dE             d eps       ncg     rms          rms(c)
DAV:   1    -0.231373039914E+04    0.22436E-01   -0.75908E+00  4420   0.210E+00    0.870E-01
RMM:   2    -0.231381261130E+04   -0.82212E-01   -0.88918E-01  5998   0.442E-01    0.808E-01
RMM:   3    -0.231381998580E+04   -0.73745E-02   -0.99827E-02  5728   0.153E-01    0.850E-01
RMM:   4    -0.231381590659E+04    0.40792E-02   -0.11061E-02  5457   0.423E-02    0.276E-01
RMM:   5    -0.231381493800E+04    0.96858E-03   -0.38421E-03  5255   0.330E-02    0.146E-01
RMM:   6    -0.231381479159E+04    0.14642E-03   -0.15303E-03  5172   0.212E-02    0.129E-01
RMM:   7    -0.231381465131E+04    0.14028E-03   -0.26410E-04  4046   0.119E-02    0.358E-02
RMM:   8    -0.231381462514E+04    0.26170E-04   -0.76264E-05  3222   0.574E-03    0.200E-02
RMM:   9    -0.231381461601E+04    0.91275E-05   -0.18276E-05  2870   0.462E-03
  15 F= -.23342624E+04 E0= -.23342624E+04  d E =-.100467E+00  mag=     5.0000
       N       E                     dE             d eps       ncg     rms          rms(c)
DAV:   1    -0.231383912324E+04   -0.24498E-01   -0.13441E+00  4560   0.900E-01    0.386E-01
RMM:   2    -0.231385579831E+04   -0.16675E-01   -0.17633E-01  6141   0.180E-01    0.410E-01
RMM:   3    -0.231385696883E+04   -0.11705E-02   -0.19008E-02  5583   0.649E-02    0.369E-01
RMM:   4    -0.231385630061E+04    0.66821E-03   -0.21687E-03  4579   0.176E-02    0.108E-01
RMM:   5    -0.231385615020E+04    0.15041E-03   -0.55111E-04  4285   0.137E-02    0.519E-02
RMM:   6    -0.231385614709E+04    0.31153E-05   -0.16432E-04  3957   0.964E-03    0.406E-02
RMM:   7    -0.231385613933E+04    0.77641E-05   -0.34235E-05  2890   0.565E-03
  16 F= -.23343039E+04 E0= -.23343039E+04  d E =-.415076E-01  mag=     5.0000
       N       E                     dE             d eps       ncg     rms          rms(c)
DAV:   1    -0.231382610779E+04    0.30039E-01   -0.46900E+00  4472   0.169E+00    0.722E-01
RMM:   2    -0.231388503869E+04   -0.58931E-01   -0.62220E-01  6155   0.339E-01    0.787E-01
RMM:   3    -0.231388881166E+04   -0.37730E-02   -0.68522E-02  5749   0.122E-01    0.686E-01
RMM:   4    -0.231388650993E+04    0.23017E-02   -0.76276E-03  5173   0.324E-02    0.208E-01
RMM:   5    -0.231388594899E+04    0.56094E-03   -0.22323E-03  5021   0.251E-02    0.101E-01
RMM:   6    -0.231388590337E+04    0.45623E-04   -0.63822E-04  4790   0.156E-02    0.698E-02
RMM:   7    -0.231388587067E+04    0.32703E-04   -0.11276E-04  3332   0.786E-03    0.255E-02
RMM:   8    -0.231388586448E+04    0.61903E-05   -0.27134E-05  2876   0.470E-03
  17 F= -.23343336E+04 E0= -.23343336E+04  d E =-.711721E-01  mag=     5.0000
       N       E                     dE             d eps       ncg     rms          rms(c)
DAV:   1    -0.231388578844E+04    0.82221E-04   -0.15879E+00  4552   0.844E-01    0.402E-01
RMM:   2    -0.231391400477E+04   -0.28216E-01   -0.29063E-01  6325   0.182E-01    0.473E-01
RMM:   3    -0.231391616726E+04   -0.21625E-02   -0.33365E-02  5403   0.758E-02    0.349E-01
RMM:   4    -0.231391580181E+04    0.36544E-03   -0.34150E-03  3915   0.176E-02    0.128E-01
RMM:   5    -0.231391563289E+04    0.16893E-03   -0.50120E-04  3818   0.108E-02    0.761E-02
RMM:   6    -0.231391563201E+04    0.87895E-06   -0.31867E-04  3743   0.922E-03    0.663E-02
RMM:   7    -0.231391561770E+04    0.14307E-04   -0.74972E-05  2892   0.686E-03    0.318E-02
RMM:   8    -0.231391561265E+04    0.50503E-05   -0.15816E-05  2831   0.355E-03
  18 F= -.23343633E+04 E0= -.23343633E+04  d E =-.297149E-01  mag=     5.0000
       N       E                     dE             d eps       ncg     rms          rms(c)
DAV:   1    -0.231379260907E+04    0.12301E+00   -0.81460E+00  4432   0.190E+00    0.918E-01
RMM:   2    -0.231394271008E+04   -0.15010E+00   -0.15303E+00  6308   0.421E-01    0.122E+00
RMM:   3    -0.231395043499E+04   -0.77249E-02   -0.17996E-01  5713   0.166E-01    0.733E-01
RMM:   4    -0.231394906974E+04    0.13653E-02   -0.17435E-02  5011   0.384E-02    0.289E-01
RMM:   5    -0.231394817657E+04    0.89317E-03   -0.25298E-03  4748   0.239E-02    0.180E-01
RMM:   6    -0.231394805380E+04    0.12278E-03   -0.15981E-03  4513   0.195E-02    0.611E-02
RMM:   7    -0.231394806900E+04   -0.15207E-04   -0.15972E-04  3349   0.110E-02    0.389E-02
RMM:   8    -0.231394806613E+04    0.28737E-05   -0.50368E-05  2922   0.462E-03
  19 F= -.23343955E+04 E0= -.23343955E+04  d E =-.619451E-01  mag=     5.0000
       N       E                     dE             d eps       ncg     rms          rms(c)
DAV:   1    -0.231393401727E+04    0.14052E-01   -0.36500E+00  4576   0.145E+00    0.644E-01
RMM:   2    -0.231399196974E+04   -0.57952E-01   -0.60960E-01  6082   0.298E-01    0.643E-01
RMM:   3    -0.231399686064E+04   -0.48909E-02   -0.66190E-02  5676   0.118E-01    0.553E-01
RMM:   4    -0.231399562991E+04    0.12307E-02   -0.67977E-03  5154   0.292E-02    0.220E-01
RMM:   5    -0.231399521896E+04    0.41095E-03   -0.16367E-03  5068   0.204E-02    0.145E-01
RMM:   6    -0.231399516010E+04    0.58854E-04   -0.82467E-04  4846   0.153E-02    0.143E-01
RMM:   7    -0.231399505022E+04    0.10988E-03   -0.20349E-04  3493   0.104E-02    0.420E-02
RMM:   8    -0.231399503743E+04    0.12796E-04   -0.33863E-05  2856   0.456E-03    0.219E-02
RMM:   9    -0.231399503676E+04    0.66428E-06   -0.37450E-05  2872   0.415E-03
  20 F= -.23344425E+04 E0= -.23344425E+04  d E =-.469640E-01  mag=     5.0000
       N       E                     dE             d eps       ncg     rms          rms(c)
DAV:   1    -0.231397354485E+04    0.21493E-01   -0.19493E+00  4576   0.107E+00    0.464E-01
RMM:   2    -0.231400425146E+04   -0.30707E-01   -0.32403E-01  6053   0.217E-01    0.440E-01
RMM:   3    -0.231400695514E+04   -0.27037E-02   -0.33560E-02  5572   0.856E-02    0.406E-01
RMM:   4    -0.231400628820E+04    0.66694E-03   -0.36171E-03  4887   0.216E-02    0.163E-01
RMM:   5    -0.231400606233E+04    0.22587E-03   -0.85999E-04  4701   0.151E-02    0.108E-01
RMM:   6    -0.231400602035E+04    0.41974E-04   -0.44919E-04  4576   0.119E-02    0.105E-01
RMM:   7    -0.231400595836E+04    0.61993E-04   -0.10407E-04  3087   0.826E-03    0.273E-02
RMM:   8    -0.231400595171E+04    0.66519E-05   -0.19188E-05  2851   0.394E-03
  21 F= -.23344533E+04 E0= -.23344533E+04  d E =-.578244E-01  mag=     5.0000
       N       E                     dE             d eps       ncg     rms          rms(c)
DAV:   1    -0.231399278643E+04    0.13172E-01   -0.16132E+00  4496   0.825E-01    0.396E-01
RMM:   2    -0.231402525318E+04   -0.32467E-01   -0.33885E-01  6328   0.195E-01    0.350E-01
RMM:   3    -0.231402854166E+04   -0.32885E-02   -0.36365E-02  5593   0.769E-02    0.295E-01
RMM:   4    -0.231402842518E+04    0.11648E-03   -0.37573E-03  3814   0.170E-02    0.161E-01
RMM:   5    -0.231402826466E+04    0.16052E-03   -0.48460E-04  3340   0.101E-02    0.110E-01
RMM:   6    -0.231402823575E+04    0.28904E-04   -0.42343E-04  4314   0.984E-03    0.114E-01
RMM:   7    -0.231402817348E+04    0.62273E-04   -0.11691E-04  2926   0.739E-03    0.252E-02
RMM:   8    -0.231402817089E+04    0.25869E-05   -0.19451E-05  2856   0.359E-03
  22 F= -.23344758E+04 E0= -.23344758E+04  d E =-.224307E-01  mag=     5.0000
       N       E                     dE             d eps       ncg     rms          rms(c)
DAV:   1    -0.231373436070E+04    0.29381E+00   -0.14473E+01  4408   0.248E+00    0.124E+00
RMM:   2    -0.231404517079E+04   -0.31081E+00   -0.31779E+00  6356   0.618E-01    0.163E+00
RMM:   3    -0.231406416268E+04   -0.18992E-01   -0.36015E-01  5968   0.234E-01    0.934E-01
RMM:   4    -0.231406264131E+04    0.15214E-02   -0.34457E-02  5300   0.512E-02    0.423E-01
RMM:   5    -0.231406101321E+04    0.16281E-02   -0.39681E-03  4926   0.287E-02    0.260E-01
RMM:   6    -0.231406092158E+04    0.91634E-04   -0.31785E-03  5361   0.248E-02    0.284E-01
RMM:   7    -0.231406061200E+04    0.30958E-03   -0.10212E-03  4414   0.175E-02    0.123E-01
RMM:   8    -0.231406052072E+04    0.91279E-04   -0.11826E-04  3014   0.665E-03    0.417E-02
RMM:   9    -0.231406052698E+04   -0.62553E-05   -0.12141E-04  3063   0.592E-03    0.285E-02
RMM:  10    -0.231406053433E+04   -0.73514E-05   -0.33639E-05  2869   0.447E-03
  23 F= -.23345085E+04 E0= -.23345085E+04  d E =-.551476E-01  mag=     5.0000
       N       E                     dE             d eps       ncg     rms          rms(c)
DAV:   1    -0.231404543732E+04    0.15090E-01   -0.17893E+00  4480   0.916E-01    0.411E-01
RMM:   2    -0.231407801552E+04   -0.32578E-01   -0.34750E-01  6269   0.200E-01    0.349E-01
RMM:   3    -0.231408134061E+04   -0.33251E-02   -0.35590E-02  5616   0.776E-02    0.353E-01
RMM:   4    -0.231408108057E+04    0.26004E-03   -0.39193E-03  3988   0.186E-02    0.177E-01
RMM:   5    -0.231408088896E+04    0.19161E-03   -0.57218E-04  3762   0.109E-02    0.117E-01
RMM:   6    -0.231408082420E+04    0.64763E-04   -0.43904E-04  4310   0.106E-02    0.103E-01
RMM:   7    -0.231408078018E+04    0.44017E-04   -0.11067E-04  2994   0.787E-03    0.263E-02
RMM:   8    -0.231408077765E+04    0.25309E-05   -0.19936E-05  2874   0.405E-03
  24 F= -.23345285E+04 E0= -.23345285E+04  d E =-.200268E-01  mag=     5.0000
       N       E                     dE             d eps       ncg     rms          rms(c)
DAV:   1    -0.231404946046E+04    0.31320E-01   -0.19514E+00  4448   0.955E-01    0.430E-01
RMM:   2    -0.231408505891E+04   -0.35598E-01   -0.37976E-01  6216   0.208E-01    0.365E-01
RMM:   3    -0.231408877926E+04   -0.37204E-02   -0.40075E-02  5588   0.825E-02    0.364E-01
RMM:   4    -0.231408853190E+04    0.24735E-03   -0.43141E-03  4106   0.194E-02    0.187E-01
RMM:   5    -0.231408832961E+04    0.20230E-03   -0.63784E-04  3805   0.113E-02    0.126E-01
RMM:   6    -0.231408825618E+04    0.73427E-04   -0.48026E-04  4362   0.108E-02    0.114E-01
RMM:   7    -0.231408820051E+04    0.55666E-04   -0.13550E-04  3050   0.834E-03    0.288E-02
RMM:   8    -0.231408819693E+04    0.35877E-05   -0.22264E-05  2879   0.432E-03
  25 F= -.23345356E+04 E0= -.23345356E+04  d E =-.271745E-01  mag=     5.0000
       N       E                     dE             d eps       ncg     rms          rms(c)
DAV:   1    -0.231408069746E+04    0.75031E-02   -0.97385E-01  4464   0.652E-01    0.299E-01
RMM:   2    -0.231409896737E+04   -0.18270E-01   -0.19458E-01  6174   0.144E-01    0.228E-01
RMM:   3    -0.231410077593E+04   -0.18086E-02   -0.18512E-02  5331   0.556E-02    0.245E-01
RMM:   4    -0.231410068990E+04    0.86030E-04   -0.20604E-03  3191   0.133E-02    0.123E-01
RMM:   5    -0.231410059635E+04    0.93550E-04   -0.27775E-04  3171   0.854E-03    0.899E-02
RMM:   6    -0.231410056915E+04    0.27197E-04   -0.27145E-04  3910   0.876E-03    0.854E-02
RMM:   7    -0.231410053534E+04    0.33804E-04   -0.59790E-05  2874   0.661E-03    0.160E-02
RMM:   8    -0.231410053435E+04    0.99299E-06   -0.11553E-05  2863   0.331E-03
  26 F= -.23345476E+04 E0= -.23345476E+04  d E =-.119490E-01  mag=     5.0000
       N       E                     dE             d eps       ncg     rms          rms(c)
DAV:   1    -0.231393871256E+04    0.16182E+00   -0.87410E+00  4408   0.195E+00    0.925E-01
RMM:   2    -0.231410910537E+04   -0.17039E+00   -0.17828E+00  6227   0.443E-01    0.109E+00
RMM:   3    -0.231412263988E+04   -0.13535E-01   -0.19075E-01  5819   0.171E-01    0.879E-01
RMM:   4    -0.231412065206E+04    0.19878E-02   -0.18896E-02  5431   0.413E-02    0.329E-01
RMM:   5    -0.231411978510E+04    0.86695E-03   -0.27815E-03  5163   0.237E-02    0.227E-01
RMM:   6    -0.231411961529E+04    0.16981E-03   -0.20748E-03  4935   0.207E-02    0.231E-01
RMM:   7    -0.231411939599E+04    0.21930E-03   -0.63150E-04  4423   0.162E-02    0.917E-02
RMM:   8    -0.231411934151E+04    0.54478E-04   -0.77577E-05  3022   0.603E-03    0.288E-02
RMM:   9    -0.231411934011E+04    0.14055E-05   -0.43185E-05  2881   0.482E-03
  27 F= -.23345651E+04 E0= -.23345651E+04  d E =-.294563E-01  mag=     5.0000
       N       E                     dE             d eps       ncg     rms          rms(c)
DAV:   1    -0.231410358889E+04    0.15753E-01   -0.17369E+00  4480   0.971E-01    0.419E-01
RMM:   2    -0.231413199028E+04   -0.28401E-01   -0.30437E-01  6126   0.202E-01    0.312E-01
RMM:   3    -0.231413494825E+04   -0.29580E-02   -0.29301E-02  5458   0.773E-02    0.400E-01
RMM:   4    -0.231413446472E+04    0.48353E-03   -0.33016E-03  4544   0.192E-02    0.161E-01
RMM:   5    -0.231413428510E+04    0.17962E-03   -0.60527E-04  4295   0.124E-02    0.110E-01
RMM:   6    -0.231413422107E+04    0.64021E-04   -0.44068E-04  4619   0.117E-02    0.935E-02
RMM:   7    -0.231413417881E+04    0.42261E-04   -0.87680E-05  3039   0.842E-03    0.213E-02
RMM:   8    -0.231413417602E+04    0.27925E-05   -0.17264E-05  2870   0.384E-03
  28 F= -.23345795E+04 E0= -.23345795E+04  d E =-.143562E-01  mag=     5.0000
       N       E                     dE             d eps       ncg     rms          rms(c)
DAV:   1    -0.231409808443E+04    0.36094E-01   -0.24518E+00  4408   0.116E+00    0.497E-01
RMM:   2    -0.231413818021E+04   -0.40096E-01   -0.43130E-01  6062   0.241E-01    0.354E-01
RMM:   3    -0.231414231622E+04   -0.41360E-02   -0.42225E-02  5445   0.928E-02    0.440E-01
RMM:   4    -0.231414182346E+04    0.49276E-03   -0.46270E-03  4853   0.224E-02    0.201E-01
RMM:   5    -0.231414155300E+04    0.27046E-03   -0.86444E-04  4618   0.144E-02    0.136E-01
RMM:   6    -0.231414144405E+04    0.10895E-03   -0.62562E-04  4794   0.134E-02    0.113E-01
RMM:   7    -0.231414137895E+04    0.65098E-04   -0.13121E-04  3488   0.946E-03    0.256E-02
RMM:   8    -0.231414137307E+04    0.58798E-05   -0.23530E-05  2887   0.412E-03
  29 F= -.23345860E+04 E0= -.23345860E+04  d E =-.209495E-01  mag=     5.0000
       N       E                     dE             d eps       ncg     rms          rms(c)
DAV:   1    -0.231413701553E+04    0.43634E-02   -0.64160E-01  4544   0.599E-01    0.245E-01
RMM:   2    -0.231414678861E+04   -0.97731E-02   -0.10626E-01  6072   0.125E-01    0.150E-01
RMM:   3    -0.231414764217E+04   -0.85356E-03   -0.92879E-03  5194   0.476E-02    0.143E-01
RMM:   4    -0.231414769016E+04   -0.47993E-04   -0.11340E-03  3216   0.115E-02    0.149E-01
RMM:   5    -0.231414756011E+04    0.13006E-03   -0.20890E-04  3473   0.892E-03    0.525E-02
RMM:   6    -0.231414755112E+04    0.89901E-05   -0.15262E-04  3778   0.865E-03    0.340E-02
RMM:   7    -0.231414754592E+04    0.51981E-05   -0.23122E-05  2840   0.580E-03
  30 F= -.23345919E+04 E0= -.23345919E+04  d E =-.586732E-02  mag=     5.0000
       N       E                     dE             d eps       ncg     rms          rms(c)
DAV:   1    -0.231414303624E+04    0.45149E-02   -0.36624E-01  4528   0.452E-01    0.185E-01
RMM:   2    -0.231414865146E+04   -0.56152E-02   -0.61042E-02  6001   0.943E-02    0.111E-01
RMM:   3    -0.231414908724E+04   -0.43579E-03   -0.50605E-03  4857   0.366E-02    0.730E-02
RMM:   4    -0.231414911122E+04   -0.23972E-04   -0.61933E-04  3269   0.952E-03    0.838E-02
RMM:   5    -0.231414910300E+04    0.82189E-05   -0.13349E-04  2950   0.731E-03    0.791E-02
RMM:   6    -0.231414907015E+04    0.32851E-04   -0.73568E-05  3119   0.642E-03    0.283E-02
RMM:   7    -0.231414906845E+04    0.16981E-05   -0.11696E-05  2846   0.469E-03
  31 F= -.23345932E+04 E0= -.23345932E+04  d E =-.715362E-02  mag=     5.0000
       N       E                     dE             d eps       ncg     rms          rms(c)
DAV:   1    -0.231414661591E+04    0.24542E-02   -0.40871E-01  4432   0.500E-01    0.187E-01
RMM:   2    -0.231415171278E+04   -0.50969E-02   -0.55472E-02  6094   0.965E-02    0.146E-01
RMM:   3    -0.231415222391E+04   -0.51113E-03   -0.45942E-03  4922   0.343E-02    0.214E-01
RMM:   4    -0.231415203082E+04    0.19310E-03   -0.62363E-04  3064   0.974E-03    0.746E-02
RMM:   5    -0.231415197784E+04    0.52976E-04   -0.17055E-04  3511   0.755E-03    0.367E-02
RMM:   6    -0.231415197169E+04    0.61477E-05   -0.49434E-05  2960   0.660E-03
  32 F= -.23345959E+04 E0= -.23345959E+04  d E =-.268376E-02  mag=     5.0000
       N       E                     dE             d eps       ncg     rms          rms(c)
DAV:   1    -0.231415148950E+04    0.48834E-03   -0.50874E-02  4800   0.177E-01    0.685E-02
RMM:   2    -0.231415214903E+04   -0.65953E-03   -0.69940E-03  6187   0.356E-02    0.826E-02
RMM:   3    -0.231415220693E+04   -0.57904E-04   -0.67947E-04  2951   0.137E-02    0.817E-02
RMM:   4    -0.231415217739E+04    0.29544E-04   -0.83283E-05  2883   0.455E-03    0.238E-02
RMM:   5    -0.231415217177E+04    0.56157E-05   -0.22838E-05  2908   0.317E-03
  33 F= -.23345960E+04 E0= -.23345960E+04  d E =-.280533E-02  mag=     5.0000
       N       E                     dE             d eps       ncg     rms          rms(c)
DAV:   1    -0.231415007125E+04    0.21061E-02   -0.33198E-01  4432   0.494E-01    0.181E-01
RMM:   2    -0.231415449289E+04   -0.44216E-02   -0.46301E-02  6123   0.100E-01    0.215E-01
RMM:   3    -0.231415483241E+04   -0.33952E-03   -0.41614E-03  4729   0.331E-02    0.211E-01
RMM:   4    -0.231415463635E+04    0.19606E-03   -0.54041E-04  3404   0.103E-02    0.568E-02
RMM:   5    -0.231415459721E+04    0.39139E-04   -0.12416E-04  3630   0.802E-03    0.303E-02
RMM:   6    -0.231415459463E+04    0.25826E-05   -0.46904E-05  3049   0.677E-03
  34 F= -.23345982E+04 E0= -.23345982E+04  d E =-.221237E-02  mag=     5.0000
       N       E                     dE             d eps       ncg     rms          rms(c)
DAV:   1    -0.231415292531E+04    0.16719E-02   -0.16129E-01  4480   0.345E-01    0.129E-01
RMM:   2    -0.231415514865E+04   -0.22233E-02   -0.22705E-02  6201   0.709E-02    0.190E-01
RMM:   3    -0.231415523334E+04   -0.84691E-04   -0.21223E-03  4029   0.252E-02    0.135E-01
RMM:   4    -0.231415515582E+04    0.77527E-04   -0.26322E-04  2955   0.779E-03    0.388E-02
RMM:   5    -0.231415513625E+04    0.19567E-04   -0.61530E-05  3213   0.622E-03    0.202E-02
RMM:   6    -0.231415513444E+04    0.18108E-05   -0.21449E-05  2859   0.560E-03
  35 F= -.23345986E+04 E0= -.23345986E+04  d E =-.260329E-02  mag=     5.0000
       N       E                     dE             d eps       ncg     rms          rms(c)
DAV:   1    -0.231415347693E+04    0.16593E-02   -0.26750E-01  4432   0.468E-01    0.171E-01
RMM:   2    -0.231415702293E+04   -0.35460E-02   -0.35490E-02  6191   0.952E-02    0.276E-01
RMM:   3    -0.231415701300E+04    0.99281E-05   -0.34473E-03  4714   0.332E-02    0.161E-01
RMM:   4    -0.231415689907E+04    0.11394E-03   -0.41280E-04  3253   0.939E-03    0.480E-02
RMM:   5    -0.231415686968E+04    0.29392E-04   -0.92470E-05  3488   0.721E-03    0.351E-02
RMM:   6    -0.231415686297E+04    0.67014E-05   -0.40954E-05  2917   0.669E-03
  36 F= -.23346002E+04 E0= -.23346002E+04  d E =-.162256E-02  mag=     5.0000
       N       E                     dE             d eps       ncg     rms          rms(c)
DAV:   1    -0.231415566919E+04    0.12005E-02   -0.99711E-02  4512   0.286E-01    0.103E-01
RMM:   2    -0.231415695748E+04   -0.12883E-02   -0.13327E-02  6244   0.595E-02    0.137E-01
RMM:   3    -0.231415702248E+04   -0.64998E-04   -0.13022E-03  3575   0.205E-02    0.114E-01
RMM:   4    -0.231415696559E+04    0.56885E-04   -0.15926E-04  2920   0.654E-03    0.296E-02
RMM:   5    -0.231415695323E+04    0.12362E-04   -0.34538E-05  2915   0.472E-03    0.160E-02
RMM:   6    -0.231415695164E+04    0.15843E-05   -0.15396E-05  2862   0.456E-03
  37 F= -.23346003E+04 E0= -.23346003E+04  d E =-.164440E-02  mag=     5.0000
       N       E                     dE             d eps       ncg     rms          rms(c)
DAV:   1    -0.231415680639E+04    0.14684E-03   -0.15729E-02  4624   0.113E-01    0.401E-02
RMM:   2    -0.231415700594E+04   -0.19956E-03   -0.20485E-03  5958   0.248E-02    0.560E-02
RMM:   3    -0.231415701314E+04   -0.71984E-05   -0.20285E-04  2869   0.866E-03    0.408E-02
RMM:   4    -0.231415700543E+04    0.77062E-05   -0.24030E-05  2848   0.298E-03
  38 F= -.23346003E+04 E0= -.23346003E+04  d E =-.172463E-02  mag=     5.0000
       N       E                     dE             d eps       ncg     rms          rms(c)
DAV:   1    -0.231415603078E+04    0.98236E-03   -0.15416E-01  4432   0.357E-01    0.131E-01
RMM:   2    -0.231415859019E+04   -0.25594E-02   -0.23865E-02  6194   0.750E-02    0.275E-01
RMM:   3    -0.231415840562E+04    0.18456E-03   -0.23126E-03  3827   0.245E-02    0.892E-02
RMM:   4    -0.231415838417E+04    0.21450E-04   -0.27590E-04  2941   0.736E-03    0.397E-02
RMM:   5    -0.231415837156E+04    0.12616E-04   -0.52685E-05  2970   0.533E-03    0.475E-02
RMM:   6    -0.231415836008E+04    0.11478E-04   -0.42164E-05  2877   0.543E-03    0.214E-02
RMM:   7    -0.231415835746E+04    0.26160E-05   -0.57878E-06  2827   0.332E-03
  39 F= -.23346016E+04 E0= -.23346016E+04  d E =-.131196E-02  mag=     5.0000
       N       E                     dE             d eps       ncg     rms          rms(c)
DAV:   1    -0.231415618065E+04    0.21794E-02   -0.17530E-01  4432   0.381E-01    0.139E-01
RMM:   2    -0.231415909941E+04   -0.29188E-02   -0.27264E-02  6233   0.801E-02    0.292E-01
RMM:   3    -0.231415889512E+04    0.20429E-03   -0.26328E-03  3992   0.257E-02    0.946E-02
RMM:   4    -0.231415887111E+04    0.24006E-04   -0.31233E-04  2972   0.773E-03    0.432E-02
RMM:   5    -0.231415885852E+04    0.12592E-04   -0.63635E-05  3027   0.585E-03    0.531E-02
RMM:   6    -0.231415884473E+04    0.13787E-04   -0.49677E-05  2885   0.591E-03    0.236E-02
RMM:   7    -0.231415884154E+04    0.31970E-05   -0.64965E-06  2828   0.354E-03
  40 F= -.23346021E+04 E0= -.23346021E+04  d E =-.175000E-02  mag=     5.0000
       N       E                     dE             d eps       ncg     rms          rms(c)
DAV:   1    -0.231415825743E+04    0.58731E-03   -0.14565E-01  4496   0.371E-01    0.144E-01
RMM:   2    -0.231416050724E+04   -0.22498E-02   -0.19997E-02  6129   0.764E-02    0.302E-01
RMM:   3    -0.231416019517E+04    0.31206E-03   -0.18839E-03  4033   0.257E-02    0.914E-02
RMM:   4    -0.231416015749E+04    0.37687E-04   -0.23507E-04  3038   0.774E-03    0.390E-02
RMM:   5    -0.231416014572E+04    0.11766E-04   -0.59605E-05  3273   0.633E-03    0.513E-02
RMM:   6    -0.231416013098E+04    0.14739E-04   -0.41697E-05  2866   0.616E-03    0.177E-02
RMM:   7    -0.231416012897E+04    0.20164E-05   -0.67670E-06  2824   0.391E-03
  41 F= -.23346033E+04 E0= -.23346033E+04  d E =-.116824E-02  mag=     5.0000
       N       E                     dE             d eps       ncg     rms          rms(c)
DAV:   1    -0.231415863707E+04    0.14939E-02   -0.15425E-01  4480   0.382E-01    0.148E-01
RMM:   2    -0.231416101353E+04   -0.23765E-02   -0.21195E-02  6084   0.786E-02    0.307E-01
RMM:   3    -0.231416069586E+04    0.31767E-03   -0.20109E-03  4184   0.278E-02    0.949E-02
RMM:   4    -0.231416065438E+04    0.41480E-04   -0.24910E-04  3088   0.792E-03    0.401E-02
RMM:   5    -0.231416064053E+04    0.13846E-04   -0.63417E-05  3328   0.651E-03    0.527E-02
RMM:   6    -0.231416062424E+04    0.16291E-04   -0.44583E-05  2878   0.628E-03    0.184E-02
RMM:   7    -0.231416062180E+04    0.24475E-05   -0.72862E-06  2826   0.406E-03
  42 F= -.23346036E+04 E0= -.23346036E+04  d E =-.153549E-02  mag=     5.0000
       N       E                     dE             d eps       ncg     rms          rms(c)
DAV:   1    -0.231416029051E+04    0.33374E-03   -0.12279E-01  4448   0.314E-01    0.119E-01
RMM:   2    -0.231416226657E+04   -0.19761E-02   -0.16827E-02  6230   0.638E-02    0.302E-01
RMM:   3    -0.231416191444E+04    0.35213E-03   -0.15436E-03  3655   0.212E-02    0.596E-02
RMM:   4    -0.231416191093E+04    0.35083E-05   -0.20676E-04  2922   0.635E-03    0.356E-02
RMM:   5    -0.231416190949E+04    0.14462E-05   -0.39976E-05  2934   0.453E-03
  43 F= -.23346048E+04 E0= -.23346048E+04  d E =-.115344E-02  mag=     5.0000
       N       E                     dE             d eps       ncg     rms          rms(c)
DAV:   1    -0.231414958025E+04    0.12331E-01   -0.11020E+00  4408   0.942E-01    0.359E-01
RMM:   2    -0.231416753332E+04   -0.17953E-01   -0.15065E-01  6221   0.190E-01    0.942E-01
RMM:   3    -0.231416405735E+04    0.34760E-02   -0.14000E-02  5643   0.596E-02    0.172E-01
RMM:   4    -0.231416402693E+04    0.30418E-04   -0.18768E-03  4326   0.160E-02    0.105E-01
RMM:   5    -0.231416401952E+04    0.74171E-05   -0.33726E-04  4165   0.113E-02    0.164E-01
RMM:   6    -0.231416387144E+04    0.14808E-03   -0.33481E-04  3887   0.112E-02    0.430E-02
RMM:   7    -0.231416386177E+04    0.96695E-05   -0.28005E-05  2869   0.538E-03
  44 F= -.23346063E+04 E0= -.23346063E+04  d E =-.269058E-02  mag=     5.0000
       N       E                     dE             d eps       ncg     rms          rms(c)
DAV:   1    -0.231416396655E+04   -0.95114E-04   -0.78539E-02  4560   0.250E-01    0.961E-02
RMM:   2    -0.231416524313E+04   -0.12766E-02   -0.10399E-02  6184   0.502E-02    0.260E-01
RMM:   3    -0.231416496073E+04    0.28240E-03   -0.95250E-04  3207   0.164E-02    0.435E-02
RMM:   4    -0.231416496239E+04   -0.16612E-05   -0.14103E-04  2894   0.516E-03    0.299E-02
RMM:   5    -0.231416496092E+04    0.14732E-05   -0.26725E-05  2891   0.348E-03
  45 F= -.23346073E+04 E0= -.23346073E+04  d E =-.103123E-02  mag=     5.0000
       N       E                     dE             d eps       ncg     rms          rms(c)
DAV:   1    -0.231415877205E+04    0.61903E-02   -0.70444E-01  4408   0.748E-01    0.280E-01
RMM:   2    -0.231416979208E+04   -0.11020E-01   -0.91095E-02  6181   0.146E-01    0.743E-01
RMM:   3    -0.231416756962E+04    0.22225E-02   -0.83705E-03  5417   0.464E-02    0.128E-01
RMM:   4    -0.231416755202E+04    0.17606E-04   -0.11506E-03  3784   0.123E-02    0.810E-02
RMM:   5    -0.231416754757E+04    0.44429E-05   -0.22188E-04  3812   0.899E-03    0.128E-01
RMM:   6    -0.231416745473E+04    0.92841E-04   -0.19928E-04  3293   0.907E-03    0.322E-02
RMM:   7    -0.231416745025E+04    0.44865E-05   -0.20585E-05  2866   0.498E-03
  46 F= -.23346096E+04 E0= -.23346096E+04  d E =-.330905E-02  mag=     5.0000
       N       E                     dE             d eps       ncg     rms          rms(c)
DAV:   1    -0.231413410601E+04    0.33349E-01   -0.28280E+00  4408   0.150E+00    0.561E-01
RMM:   2    -0.231417861102E+04   -0.44505E-01   -0.36840E-01  6132   0.291E-01    0.149E+00
RMM:   3    -0.231416959526E+04    0.90158E-02   -0.34760E-02  5692   0.980E-02    0.255E-01
RMM:   4    -0.231416956665E+04    0.28604E-04   -0.46870E-03  4591   0.238E-02    0.167E-01
RMM:   5    -0.231416953683E+04    0.29823E-04   -0.93029E-04  4864   0.174E-02    0.256E-01
RMM:   6    -0.231416915500E+04    0.38183E-03   -0.76747E-04  4677   0.152E-02    0.480E-02
RMM:   7    -0.231416914829E+04    0.67066E-05   -0.79061E-05  2952   0.713E-03
  47 F= -.23346109E+04 E0= -.23346109E+04  d E =-.454902E-02  mag=     5.0000
       N       E                     dE             d eps       ncg     rms          rms(c)
DAV:   1    -0.231416870037E+04    0.45463E-03   -0.96651E-02  4688   0.272E-01    0.107E-01
RMM:   2    -0.231417034401E+04   -0.16436E-02   -0.13530E-02  6184   0.554E-02    0.288E-01
RMM:   3    -0.231417000396E+04    0.34004E-03   -0.12583E-03  3333   0.176E-02    0.497E-02
RMM:   4    -0.231417001040E+04   -0.64416E-05   -0.17854E-04  2896   0.558E-03    0.343E-02
RMM:   5    -0.231417001040E+04   -0.87311E-10   -0.30829E-05  2890   0.353E-03
  48 F= -.23346116E+04 E0= -.23346116E+04  d E =-.784260E-03  mag=     5.0000
       N       E                     dE             d eps       ncg     rms          rms(c)
DAV:   1    -0.231416091592E+04    0.90945E-02   -0.86616E-01  4408   0.815E-01    0.310E-01
RMM:   2    -0.231417519740E+04   -0.14281E-01   -0.11801E-01  6193   0.160E-01    0.842E-01
RMM:   3    -0.231417234169E+04    0.28557E-02   -0.10873E-02  5536   0.510E-02    0.141E-01
RMM:   4    -0.231417234919E+04   -0.75008E-05   -0.14659E-03  3741   0.131E-02    0.909E-02
RMM:   5    -0.231417234866E+04    0.53548E-06   -0.25433E-04  3757   0.914E-03    0.143E-01
RMM:   6    -0.231417223238E+04    0.11628E-03   -0.25194E-04  3369   0.954E-03    0.306E-02
RMM:   7    -0.231417222987E+04    0.25140E-05   -0.27156E-05  2867   0.497E-03
  49 F= -.23346136E+04 E0= -.23346136E+04  d E =-.275967E-02  mag=     5.0000
       N       E                     dE             d eps       ncg     rms          rms(c)
DAV:   1    -0.231412948811E+04    0.42744E-01   -0.34761E+00  4408   0.163E+00    0.624E-01
RMM:   2    -0.231418746647E+04   -0.57978E-01   -0.47848E-01  6192   0.320E-01    0.170E+00
RMM:   3    -0.231417564019E+04    0.11826E-01   -0.45377E-02  5793   0.105E-01    0.280E-01
RMM:   4    -0.231417574547E+04   -0.10528E-03   -0.61442E-03  4574   0.255E-02    0.189E-01
RMM:   5    -0.231417571431E+04    0.31156E-04   -0.10483E-03  4795   0.174E-02    0.286E-01
RMM:   6    -0.231417524418E+04    0.47013E-03   -0.10534E-03  4793   0.170E-02    0.558E-02
RMM:   7    -0.231417523505E+04    0.91312E-05   -0.10317E-04  2962   0.724E-03    0.266E-02
RMM:   8    -0.231417522781E+04    0.72339E-05   -0.18357E-05  2851   0.372E-03
  50 F= -.23346161E+04 E0= -.23346161E+04  d E =-.522138E-02  mag=     5.0000
       N       E                     dE             d eps       ncg     rms          rms(c)
DAV:   1    -0.231399094106E+04    0.18429E+00   -0.13917E+01  4408   0.326E+00    0.126E+00
RMM:   2    -0.231422984807E+04   -0.23891E+00   -0.19505E+00  6192   0.638E-01    0.351E+00
RMM:   3    -0.231417689099E+04    0.52957E-01   -0.19048E-01  5886   0.206E-01    0.551E-01
RMM:   4    -0.231417736186E+04   -0.47087E-03   -0.25024E-02  4735   0.505E-02    0.380E-01
RMM:   5    -0.231417739176E+04   -0.29905E-04   -0.43519E-03  5229   0.345E-02    0.590E-01
RMM:   6    -0.231417536922E+04    0.20225E-02   -0.40440E-03  5341   0.322E-02    0.107E-01
RMM:   7    -0.231417536439E+04    0.48318E-05   -0.43047E-04  3751   0.125E-02    0.661E-02
RMM:   8    -0.231417533073E+04    0.33660E-04   -0.73148E-05  2920   0.562E-03    0.210E-02
RMM:   9    -0.231417533309E+04   -0.23614E-05   -0.41177E-05  2910   0.398E-03
  51 F= -.23346149E+04 E0= -.23346149E+04  d E =-.405876E-02  mag=     5.0000
       N       E                     dE             d eps       ncg     rms          rms(c)
DAV:   1    -0.231409785923E+04    0.77471E-01   -0.59149E+00  4408   0.212E+00    0.771E-01
RMM:   2    -0.231418800809E+04   -0.90149E-01   -0.80186E-01  6215   0.422E-01    0.176E+00
RMM:   3    -0.231417758133E+04    0.10427E-01   -0.73532E-02  5858   0.131E-01    0.466E-01
RMM:   4    -0.231417702486E+04    0.55647E-03   -0.93226E-03  4777   0.332E-02    0.227E-01
RMM:   5    -0.231417676650E+04    0.25836E-03   -0.16076E-03  4992   0.219E-02    0.313E-01
RMM:   6    -0.231417628617E+04    0.48032E-03   -0.17506E-03  5050   0.215E-02    0.122E-01
RMM:   7    -0.231417618768E+04    0.98494E-04   -0.10963E-04  3102   0.826E-03    0.237E-02
RMM:   8    -0.231417618049E+04    0.71866E-05   -0.21576E-05  2858   0.380E-03
  52 F= -.23346166E+04 E0= -.23346166E+04  d E =-.576253E-02  mag=     5.0000
       N       E                     dE             d eps       ncg     rms          rms(c)
DAV:   1    -0.231417602716E+04    0.16052E-03   -0.29368E-01  4448   0.482E-01    0.192E-01
RMM:   2    -0.231417992078E+04   -0.38936E-02   -0.35164E-02  6025   0.974E-02    0.390E-01
RMM:   3    -0.231417940187E+04    0.51891E-03   -0.31228E-03  4827   0.308E-02    0.125E-01
RMM:   4    -0.231417932466E+04    0.77206E-04   -0.41629E-04  3418   0.952E-03    0.518E-02
RMM:   5    -0.231417930036E+04    0.24305E-04   -0.10825E-04  3601   0.771E-03    0.640E-02
RMM:   6    -0.231417928053E+04    0.19825E-04   -0.65759E-05  2922   0.701E-03    0.218E-02
RMM:   7    -0.231417927752E+04    0.30064E-05   -0.77680E-06  2835   0.393E-03
  53 F= -.23346195E+04 E0= -.23346195E+04  d E =-.290207E-02  mag=     5.0000
       N       E                     dE             d eps       ncg     rms          rms(c)
DAV:   1    -0.231417630689E+04    0.29736E-02   -0.38357E-01  4408   0.550E-01    0.225E-01
RMM:   2    -0.231418162414E+04   -0.53173E-02   -0.46620E-02  6006   0.112E-01    0.486E-01
RMM:   3    -0.231418073967E+04    0.88447E-03   -0.42571E-03  5124   0.374E-02    0.135E-01
RMM:   4    -0.231418066151E+04    0.78160E-04   -0.57679E-04  3837   0.107E-02    0.633E-02
RMM:   5    -0.231418063602E+04    0.25487E-04   -0.14262E-04  3748   0.861E-03    0.828E-02
RMM:   6    -0.231418060081E+04    0.35210E-04   -0.99732E-05  3004   0.784E-03    0.268E-02
RMM:   7    -0.231418059599E+04    0.48209E-05   -0.10231E-05  2852   0.458E-03
  54 F= -.23346206E+04 E0= -.23346206E+04  d E =-.399246E-02  mag=     5.0000
       N       E                     dE             d eps       ncg     rms          rms(c)
DAV:   1    -0.231418112897E+04   -0.52815E-03   -0.60223E-02  4592   0.220E-01    0.850E-02
RMM:   2    -0.231418183692E+04   -0.70795E-03   -0.63189E-03  5984   0.443E-02    0.174E-01
RMM:   3    -0.231418172200E+04    0.11491E-03   -0.54515E-04  3337   0.154E-02    0.554E-02
RMM:   4    -0.231418170633E+04    0.15672E-04   -0.78281E-05  2911   0.534E-03    0.265E-02
RMM:   5    -0.231418170098E+04    0.53522E-05   -0.31860E-05  2943   0.483E-03
  55 F= -.23346217E+04 E0= -.23346217E+04  d E =-.104669E-02  mag=     5.0000
       N       E                     dE             d eps       ncg     rms          rms(c)
DAV:   1    -0.231418116797E+04    0.53836E-03   -0.12331E-01  4420   0.315E-01    0.124E-01
RMM:   2    -0.231418266496E+04   -0.14970E-02   -0.12945E-02  6102   0.647E-02    0.271E-01
RMM:   3    -0.231418237019E+04    0.29477E-03   -0.10956E-03  4038   0.209E-02    0.746E-02
RMM:   4    -0.231418233809E+04    0.32101E-04   -0.15730E-04  2999   0.737E-03    0.369E-02
RMM:   5    -0.231418232864E+04    0.94508E-05   -0.66958E-05  3455   0.691E-03
  56 F= -.23346222E+04 E0= -.23346222E+04  d E =-.159027E-02  mag=     5.0000
       N       E                     dE             d eps       ncg     rms          rms(c)
DAV:   1    -0.231418266093E+04   -0.32284E-03   -0.58294E-02  4512   0.246E-01    0.824E-02
RMM:   2    -0.231418314820E+04   -0.48728E-03   -0.44466E-03  6101   0.455E-02    0.144E-01
RMM:   3    -0.231418308427E+04    0.63939E-04   -0.43138E-04  3482   0.161E-02    0.685E-02
RMM:   4    -0.231418305498E+04    0.29288E-04   -0.49435E-05  2874   0.539E-03    0.190E-02
RMM:   5    -0.231418304965E+04    0.53310E-05   -0.22279E-05  2905   0.446E-03
  57 F= -.23346230E+04 E0= -.23346230E+04  d E =-.769588E-03  mag=     5.0000
       N       E                     dE             d eps       ncg     rms          rms(c)
DAV:   1    -0.231418152506E+04    0.15299E-02   -0.29736E-01  4408   0.554E-01    0.179E-01
RMM:   2    -0.231418378202E+04   -0.22570E-02   -0.22447E-02  5942   0.989E-02    0.236E-01
RMM:   3    -0.231418376436E+04    0.17658E-04   -0.19748E-03  4744   0.357E-02    0.192E-01
RMM:   4    -0.231418356098E+04    0.20339E-03   -0.27098E-04  3955   0.104E-02    0.420E-02
RMM:   5    -0.231418352963E+04    0.31351E-04   -0.10534E-04  3902   0.863E-03    0.243E-02
RMM:   6    -0.231418352507E+04    0.45558E-05   -0.27966E-05  2925   0.648E-03
  58 F= -.23346236E+04 E0= -.23346236E+04  d E =-.135361E-02  mag=     5.0000
       N       E                     dE             d eps       ncg     rms          rms(c)
DAV:   1    -0.231418371137E+04   -0.18174E-03   -0.47767E-02  4608   0.221E-01    0.576E-02
RMM:   2    -0.231418408429E+04   -0.37293E-03   -0.37495E-03  6154   0.395E-02    0.797E-02
RMM:   3    -0.231418408946E+04   -0.51638E-05   -0.31938E-04  3086   0.121E-02    0.605E-02
RMM:   4    -0.231418407213E+04    0.17328E-04   -0.39688E-05  2867   0.442E-03    0.165E-02
RMM:   5    -0.231418406841E+04    0.37166E-05   -0.12503E-05  2857   0.318E-03
  59 F= -.23346242E+04 E0= -.23346242E+04  d E =-.608364E-03  mag=     5.0000
       N       E                     dE             d eps       ncg     rms          rms(c)
DAV:   1    -0.231418169717E+04    0.23750E-02   -0.43129E-01  4408   0.664E-01    0.172E-01
RMM:   2    -0.231418500287E+04   -0.33057E-02   -0.33357E-02  5874   0.112E-01    0.233E-01
RMM:   3    -0.231418506630E+04   -0.63432E-04   -0.28715E-03  4728   0.376E-02    0.182E-01
RMM:   4    -0.231418490586E+04    0.16044E-03   -0.35580E-04  3614   0.102E-02    0.491E-02
RMM:   5    -0.231418486916E+04    0.36704E-04   -0.95796E-05  3741   0.812E-03    0.261E-02
RMM:   6    -0.231418486521E+04    0.39449E-05   -0.33830E-05  2987   0.677E-03
  60 F= -.23346252E+04 E0= -.23346252E+04  d E =-.159945E-02  mag=     5.0000
       N       E                     dE             d eps       ncg     rms          rms(c)
DAV:   1    -0.231418420299E+04    0.66617E-03   -0.83515E-02  4512   0.293E-01    0.770E-02
RMM:   2    -0.231418485911E+04   -0.65612E-03   -0.65554E-03  6110   0.509E-02    0.110E-01
RMM:   3    -0.231418486201E+04   -0.29072E-05   -0.55630E-04  3402   0.162E-02    0.791E-02
RMM:   4    -0.231418483233E+04    0.29685E-04   -0.68415E-05  2884   0.544E-03    0.217E-02
RMM:   5    -0.231418482567E+04    0.66538E-05   -0.20770E-05  2887   0.404E-03
  61 F= -.23346252E+04 E0= -.23346252E+04  d E =-.164520E-02  mag=     5.0000
       N       E                     dE             d eps       ncg     rms          rms(c)
DAV:   1    -0.231418488548E+04   -0.53155E-04   -0.12618E-01  4408   0.363E-01    0.101E-01
RMM:   2    -0.231418572009E+04   -0.83461E-03   -0.87378E-03  5904   0.611E-02    0.102E-01
RMM:   3    -0.231418579190E+04   -0.71809E-04   -0.80606E-04  3778   0.218E-02    0.125E-01
RMM:   4    -0.231418571079E+04    0.81111E-04   -0.10665E-04  2913   0.697E-03    0.277E-02
RMM:   5    -0.231418570011E+04    0.10682E-04   -0.42849E-05  3002   0.545E-03    0.123E-02
RMM:   6    -0.231418569965E+04    0.45895E-06   -0.11536E-05  2855   0.471E-03
  62 F= -.23346262E+04 E0= -.23346262E+04  d E =-.958547E-03  mag=     5.0000
       N       E                     dE             d eps       ncg     rms          rms(c)
DAV:   1    -0.231418405601E+04    0.16441E-02   -0.30078E-01  4408   0.560E-01    0.156E-01
RMM:   2    -0.231418610310E+04   -0.20471E-02   -0.20918E-02  5529   0.921E-02    0.185E-01
RMM:   3    -0.231418619155E+04   -0.88443E-04   -0.19213E-03  4504   0.388E-02    0.177E-01
RMM:   4    -0.231418602515E+04    0.16639E-03   -0.24792E-04  3548   0.936E-03    0.411E-02
RMM:   5    -0.231418599889E+04    0.26263E-04   -0.87497E-05  3500   0.771E-03    0.182E-02
RMM:   6    -0.231418599709E+04    0.17988E-05   -0.23576E-05  2904   0.597E-03
  63 F= -.23346266E+04 E0= -.23346266E+04  d E =-.138573E-02  mag=     5.0000
       N       E                     dE             d eps       ncg     rms          rms(c)
DAV:   1    -0.231418599144E+04    0.74535E-05   -0.95903E-02  4496   0.315E-01    0.868E-02
RMM:   2    -0.231418665116E+04   -0.65973E-03   -0.70203E-03  5812   0.530E-02    0.829E-02
RMM:   3    -0.231418671565E+04   -0.64492E-04   -0.62379E-04  3793   0.194E-02    0.109E-01
RMM:   4    -0.231418665497E+04    0.60678E-04   -0.85648E-05  2864   0.607E-03    0.262E-02
RMM:   5    -0.231418664677E+04    0.82038E-05   -0.33486E-05  2917   0.472E-03
  64 F= -.23346273E+04 E0= -.23346273E+04  d E =-.701063E-03  mag=     5.0000
       N       E                     dE             d eps       ncg     rms          rms(c)
DAV:   1    -0.231418494884E+04    0.17061E-02   -0.30821E-01  4408   0.564E-01    0.154E-01
RMM:   2    -0.231418702105E+04   -0.20722E-02   -0.22351E-02  5754   0.927E-02    0.127E-01
RMM:   3    -0.231418724561E+04   -0.22456E-03   -0.19348E-03  4710   0.352E-02    0.188E-01
RMM:   4    -0.231418706765E+04    0.17795E-03   -0.27477E-04  3163   0.946E-03    0.496E-02
RMM:   5    -0.231418704024E+04    0.27410E-04   -0.10640E-04  3716   0.789E-03    0.246E-02
RMM:   6    -0.231418703525E+04    0.49885E-05   -0.29448E-05  2934   0.638E-03
  65 F= -.23346278E+04 E0= -.23346278E+04  d E =-.118045E-02  mag=     5.0000
       N       E                     dE             d eps       ncg     rms          rms(c)
DAV:   1    -0.231418670317E+04    0.33707E-03   -0.15814E-01  4424   0.395E-01    0.118E-01
RMM:   2    -0.231418789580E+04   -0.11926E-02   -0.13059E-02  5844   0.674E-02    0.700E-02
RMM:   3    -0.231418801086E+04   -0.11506E-03   -0.10932E-03  4218   0.266E-02    0.112E-01
RMM:   4    -0.231418795685E+04    0.54015E-04   -0.15296E-04  2892   0.698E-03    0.442E-02
RMM:   5    -0.231418794035E+04    0.16498E-04   -0.48565E-05  2970   0.556E-03    0.175E-02
RMM:   6    -0.231418793871E+04    0.16374E-05   -0.15731E-05  2867   0.498E-03
  66 F= -.23346288E+04 E0= -.23346288E+04  d E =-.100210E-02  mag=     5.0000
       N       E                     dE             d eps       ncg     rms          rms(c)
DAV:   1    -0.231418660083E+04    0.13395E-02   -0.19752E-01  4408   0.442E-01    0.131E-01
RMM:   2    -0.231418808827E+04   -0.14874E-02   -0.16311E-02  5682   0.745E-02    0.747E-02
RMM:   3    -0.231418821658E+04   -0.12831E-03   -0.13570E-03  4325   0.319E-02    0.109E-01
RMM:   4    -0.231418817003E+04    0.46553E-04   -0.19088E-04  2940   0.749E-03    0.534E-02
RMM:   5    -0.231418814644E+04    0.23588E-04   -0.60029E-05  3051   0.625E-03    0.227E-02
RMM:   6    -0.231418814234E+04    0.41057E-05   -0.21349E-05  2880   0.559E-03
  67 F= -.23346291E+04 E0= -.23346291E+04  d E =-.131439E-02  mag=     5.0000
       N       E                     dE             d eps       ncg     rms          rms(c)
DAV:   1    -0.231418713680E+04    0.10096E-02   -0.17186E-01  4408   0.394E-01    0.113E-01
RMM:   2    -0.231418868902E+04   -0.15522E-02   -0.16937E-02  5906   0.673E-02    0.606E-02
RMM:   3    -0.231418879159E+04   -0.10257E-03   -0.13590E-03  4080   0.256E-02    0.375E-02
RMM:   4    -0.231418878654E+04    0.50548E-05   -0.17251E-04  3005   0.703E-03    0.226E-02
RMM:   5    -0.231418878633E+04    0.21036E-06   -0.29903E-05  2917   0.525E-03
  68 F= -.23346299E+04 E0= -.23346299E+04  d E =-.780114E-03  mag=     5.0000
       N       E                     dE             d eps       ncg     rms          rms(c)
DAV:   1    -0.231418741527E+04    0.13713E-02   -0.15023E-01  4440   0.368E-01    0.108E-01
RMM:   2    -0.231418878641E+04   -0.13711E-02   -0.14811E-02  6008   0.638E-02    0.801E-02
RMM:   3    -0.231418894833E+04   -0.16192E-03   -0.13272E-03  3854   0.239E-02    0.128E-01
RMM:   4    -0.231418887312E+04    0.75219E-04   -0.17645E-04  2887   0.686E-03    0.390E-02
RMM:   5    -0.231418885984E+04    0.13272E-04   -0.44328E-05  2937   0.493E-03    0.173E-02
RMM:   6    -0.231418885834E+04    0.15062E-05   -0.14693E-05  2870   0.450E-03
  69 F= -.23346301E+04 E0= -.23346301E+04  d E =-.978183E-03  mag=     5.0000
       N       E                     dE             d eps       ncg     rms          rms(c)
DAV:   1    -0.231418735522E+04    0.15046E-02   -0.22836E-01  4408   0.463E-01    0.147E-01
RMM:   2    -0.231418948832E+04   -0.21331E-02   -0.23313E-02  5688   0.799E-02    0.705E-02
RMM:   3    -0.231418963148E+04   -0.14316E-03   -0.19695E-03  4358   0.344E-02    0.433E-02
RMM:   4    -0.231418963108E+04    0.40256E-06   -0.24252E-04  3557   0.834E-03    0.461E-02
RMM:   5    -0.231418963425E+04   -0.31716E-05   -0.55977E-05  2866   0.640E-03
  70 F= -.23346310E+04 E0= -.23346310E+04  d E =-.924850E-03  mag=     5.0000
       N       E                     dE             d eps       ncg     rms          rms(c)
DAV:   1    -0.231418853799E+04    0.10931E-02   -0.11024E-01  4560   0.322E-01    0.103E-01
RMM:   2    -0.231418957604E+04   -0.10381E-02   -0.11308E-02  5830   0.567E-02    0.568E-02
RMM:   3    -0.231418967170E+04   -0.95657E-04   -0.10089E-03  3768   0.230E-02    0.765E-02
RMM:   4    -0.231418965804E+04    0.13655E-04   -0.12995E-04  2879   0.595E-03    0.417E-02
RMM:   5    -0.231418964609E+04    0.11947E-04   -0.31945E-05  2859   0.449E-03    0.271E-02
RMM:   6    -0.231418964084E+04    0.52531E-05   -0.17515E-05  2875   0.428E-03
  71 F= -.23346311E+04 E0= -.23346311E+04  d E =-.103458E-02  mag=     5.0000
       N       E                     dE             d eps       ncg     rms          rms(c)
DAV:   1    -0.231418795711E+04    0.16890E-02   -0.20053E-01  4408   0.413E-01    0.132E-01
RMM:   2    -0.231419012718E+04   -0.21701E-02   -0.23458E-02  5920   0.728E-02    0.815E-02
RMM:   3    -0.231419034802E+04   -0.22084E-03   -0.20743E-03  4178   0.289E-02    0.116E-01
RMM:   4    -0.231419030330E+04    0.44721E-04   -0.26562E-04  2895   0.742E-03    0.515E-02
RMM:   5    -0.231419028391E+04    0.19388E-04   -0.47405E-05  2900   0.532E-03    0.279E-02
RMM:   6    -0.231419027994E+04    0.39740E-05   -0.24960E-05  2904   0.508E-03
  72 F= -.23346319E+04 E0= -.23346319E+04  d E =-.829359E-03  mag=     5.0000
       N       E                     dE             d eps       ncg     rms          rms(c)
DAV:   1    -0.231418715555E+04    0.31284E-02   -0.27142E-01  4408   0.481E-01    0.154E-01
RMM:   2    -0.231419008810E+04   -0.29325E-02   -0.31815E-02  6083   0.860E-02    0.805E-02
RMM:   3    -0.231419033245E+04   -0.24435E-03   -0.28145E-03  4495   0.313E-02    0.655E-02
RMM:   4    -0.231419036150E+04   -0.29044E-04   -0.34598E-04  2931   0.799E-03    0.883E-02
RMM:   5    -0.231419031758E+04    0.43921E-04   -0.73122E-05  2911   0.582E-03    0.330E-02
RMM:   6    -0.231419031067E+04    0.69067E-05   -0.30623E-05  2926   0.535E-03
  73 F= -.23346322E+04 E0= -.23346322E+04  d E =-.107964E-02  mag=     5.0000
       N       E                     dE             d eps       ncg     rms          rms(c)
DAV:   1    -0.231418927320E+04    0.10444E-02   -0.12529E-01  4496   0.325E-01    0.105E-01
RMM:   2    -0.231419071451E+04   -0.14413E-02   -0.15572E-02  6121   0.594E-02    0.549E-02
RMM:   3    -0.231419083614E+04   -0.12163E-03   -0.14075E-03  3599   0.219E-02    0.365E-02
RMM:   4    -0.231419084664E+04   -0.10504E-04   -0.16104E-04  2893   0.582E-03    0.509E-02
RMM:   5    -0.231419083653E+04    0.10114E-04   -0.33863E-05  2851   0.408E-03    0.328E-02
RMM:   6    -0.231419083028E+04    0.62446E-05   -0.15523E-05  2880   0.355E-03
  74 F= -.23346329E+04 E0= -.23346329E+04  d E =-.717080E-03  mag=     5.0000
       N       E                     dE             d eps       ncg     rms          rms(c)
DAV:   1    -0.231418637385E+04    0.44627E-02   -0.37081E-01  4408   0.558E-01    0.180E-01
RMM:   2    -0.231419063675E+04   -0.42629E-02   -0.45907E-02  5909   0.993E-02    0.103E-01
RMM:   3    -0.231419104097E+04   -0.40422E-03   -0.41361E-03  4659   0.404E-02    0.124E-01
RMM:   4    -0.231419101294E+04    0.28028E-04   -0.50240E-04  3041   0.897E-03    0.797E-02
RMM:   5    -0.231419096910E+04    0.43841E-04   -0.86789E-05  2988   0.669E-03    0.372E-02
RMM:   6    -0.231419096014E+04    0.89584E-05   -0.49172E-05  3045   0.626E-03
  75 F= -.23346334E+04 E0= -.23346334E+04  d E =-.118356E-02  mag=     5.0000
       N       E                     dE             d eps       ncg     rms          rms(c)
DAV:   1    -0.231418971996E+04    0.12491E-02   -0.15353E-01  4464   0.368E-01    0.123E-01
RMM:   2    -0.231419150134E+04   -0.17814E-02   -0.19164E-02  6042   0.680E-02    0.768E-02
RMM:   3    -0.231419169999E+04   -0.19865E-03   -0.17960E-03  4138   0.257E-02    0.121E-01
RMM:   4    -0.231419164082E+04    0.59173E-04   -0.21995E-04  2880   0.694E-03    0.439E-02
RMM:   5    -0.231419162506E+04    0.15751E-04   -0.43225E-05  2910   0.501E-03    0.199E-02
RMM:   6    -0.231419162273E+04    0.23322E-05   -0.18760E-05  2882   0.473E-03
  76 F= -.23346343E+04 E0= -.23346343E+04  d E =-.890587E-03  mag=     5.0000
       N       E                     dE             d eps       ncg     rms          rms(c)
DAV:   1    -0.231418765347E+04    0.39716E-02   -0.32871E-01  4408   0.538E-01    0.180E-01
RMM:   2    -0.231419150150E+04   -0.38480E-02   -0.40917E-02  5950   0.971E-02    0.146E-01
RMM:   3    -0.231419197046E+04   -0.46896E-03   -0.39375E-03  4961   0.395E-02    0.220E-01
RMM:   4    -0.231419174560E+04    0.22485E-03   -0.48995E-04  3082   0.101E-02    0.558E-02
RMM:   5    -0.231419171450E+04    0.31103E-04   -0.10231E-04  3390   0.750E-03    0.274E-02
RMM:   6    -0.231419170847E+04    0.60344E-05   -0.39475E-05  3020   0.655E-03
  77 F= -.23346347E+04 E0= -.23346347E+04  d E =-.130640E-02  mag=     5.0000
       N       E                     dE             d eps       ncg     rms          rms(c)
DAV:   1    -0.231418986561E+04    0.18489E-02   -0.19727E-01  4420   0.403E-01    0.134E-01
RMM:   2    -0.231419226010E+04   -0.23945E-02   -0.25050E-02  6149   0.737E-02    0.138E-01
RMM:   3    -0.231419251019E+04   -0.25009E-03   -0.24716E-03  4241   0.274E-02    0.167E-01
RMM:   4    -0.231419238791E+04    0.12227E-03   -0.29707E-04  2929   0.794E-03    0.393E-02
RMM:   5    -0.231419237214E+04    0.15770E-04   -0.60442E-05  2966   0.547E-03    0.204E-02
RMM:   6    -0.231419237011E+04    0.20358E-05   -0.24187E-05  2903   0.513E-03
  78 F= -.23346356E+04 E0= -.23346356E+04  d E =-.911550E-03  mag=     5.0000
       N       E                     dE             d eps       ncg     rms          rms(c)
DAV:   1    -0.231418424151E+04    0.81306E-02   -0.65202E-01  4408   0.732E-01    0.243E-01
RMM:   2    -0.231419211749E+04   -0.78760E-02   -0.82293E-02  5940   0.131E-01    0.251E-01
RMM:   3    -0.231419294875E+04   -0.83126E-03   -0.83146E-03  5186   0.547E-02    0.299E-01
RMM:   4    -0.231419255829E+04    0.39046E-03   -0.98388E-04  3851   0.131E-02    0.717E-02
RMM:   5    -0.231419250426E+04    0.54031E-04   -0.19727E-04  3720   0.900E-03    0.379E-02
RMM:   6    -0.231419249550E+04    0.87609E-05   -0.81530E-05  3571   0.770E-03
  79 F= -.23346362E+04 E0= -.23346362E+04  d E =-.148408E-02  mag=     5.0000
       N       E                     dE             d eps       ncg     rms          rms(c)
DAV:   1    -0.231419058943E+04    0.19148E-02   -0.20420E-01  4464   0.399E-01    0.137E-01
RMM:   2    -0.231419317706E+04   -0.25876E-02   -0.26809E-02  6204   0.745E-02    0.163E-01
RMM:   3    -0.231419339487E+04   -0.21781E-03   -0.26286E-03  4294   0.273E-02    0.164E-01
RMM:   4    -0.231419328126E+04    0.11361E-03   -0.30847E-04  2944   0.793E-03    0.394E-02
RMM:   5    -0.231419326558E+04    0.15675E-04   -0.62248E-05  2967   0.540E-03    0.210E-02
RMM:   6    -0.231419326315E+04    0.24298E-05   -0.23437E-05  2906   0.503E-03
  80 F= -.23346371E+04 E0= -.23346371E+04  d E =-.980341E-03  mag=     5.0000
       N       E                     dE             d eps       ncg     rms          rms(c)
DAV:   1    -0.231418400411E+04    0.92615E-02   -0.72920E-01  4408   0.753E-01    0.256E-01
RMM:   2    -0.231419308472E+04   -0.90806E-02   -0.94769E-02  5948   0.136E-01    0.278E-01
RMM:   3    -0.231419398630E+04   -0.90158E-03   -0.95297E-03  5212   0.563E-02    0.313E-01
RMM:   4    -0.231419357228E+04    0.41403E-03   -0.11229E-03  3915   0.135E-02    0.754E-02
RMM:   5    -0.231419351082E+04    0.61453E-04   -0.21782E-04  3735   0.915E-03    0.409E-02
RMM:   6    -0.231419350109E+04    0.97365E-05   -0.91466E-05  3561   0.783E-03
  81 F= -.23346378E+04 E0= -.23346378E+04  d E =-.161206E-02  mag=     5.0000
       N       E                     dE             d eps       ncg     rms          rms(c)
DAV:   1    -0.231419005774E+04    0.34531E-02   -0.32118E-01  4432   0.500E-01    0.179E-01
RMM:   2    -0.231419422912E+04   -0.41714E-02   -0.43311E-02  6099   0.930E-02    0.203E-01
RMM:   3    -0.231419461936E+04   -0.39024E-03   -0.44002E-03  4934   0.372E-02    0.219E-01
RMM:   4    -0.231419441118E+04    0.20818E-03   -0.50940E-04  3083   0.984E-03    0.505E-02
RMM:   5    -0.231419438464E+04    0.26543E-04   -0.10526E-04  3239   0.698E-03    0.266E-02
RMM:   6    -0.231419438002E+04    0.46155E-05   -0.37124E-05  2946   0.630E-03
  82 F= -.23346388E+04 E0= -.23346388E+04  d E =-.108350E-02  mag=     5.0000
       N       E                     dE             d eps       ncg     rms          rms(c)
DAV:   1    -0.231418912256E+04    0.52621E-02   -0.39874E-01  4408   0.557E-01    0.198E-01
RMM:   2    -0.231419427136E+04   -0.51488E-02   -0.53660E-02  6084   0.103E-01    0.214E-01
RMM:   3    -0.231419478788E+04   -0.51652E-03   -0.53609E-03  5075   0.413E-02    0.245E-01
RMM:   4    -0.231419452769E+04    0.26019E-03   -0.63614E-04  3187   0.107E-02    0.569E-02
RMM:   5    -0.231419449297E+04    0.34726E-04   -0.12998E-04  3399   0.764E-03    0.301E-02
RMM:   6    -0.231419448683E+04    0.61381E-05   -0.49283E-05  3054   0.667E-03
  83 F= -.23346392E+04 E0= -.23346392E+04  d E =-.141350E-02  mag=     5.0000
       N       E                     dE             d eps       ncg     rms          rms(c)
DAV:   1    -0.231419192066E+04    0.25723E-02   -0.26197E-01  4464   0.454E-01    0.168E-01
RMM:   2    -0.231419523930E+04   -0.33186E-02   -0.34769E-02  6106   0.844E-02    0.171E-01
RMM:   3    -0.231419560332E+04   -0.36402E-03   -0.34388E-03  4756   0.328E-02    0.212E-01
RMM:   4    -0.231419539863E+04    0.20469E-03   -0.42055E-04  3012   0.924E-03    0.474E-02
RMM:   5    -0.231419537658E+04    0.22059E-04   -0.84587E-05  3116   0.650E-03    0.240E-02
RMM:   6    -0.231419537300E+04    0.35764E-05   -0.30864E-05  2919   0.599E-03
  84 F= -.23346403E+04 E0= -.23346403E+04  d E =-.108957E-02  mag=     5.0000
       N       E                     dE             d eps       ncg     rms          rms(c)
DAV:   1    -0.231419030114E+04    0.50754E-02   -0.39392E-01  4408   0.557E-01    0.204E-01
RMM:   2    -0.231419526307E+04   -0.49619E-02   -0.52158E-02  6034   0.103E-01    0.199E-01
RMM:   3    -0.231419583862E+04   -0.57555E-03   -0.51456E-03  5142   0.419E-02    0.260E-01
RMM:   4    -0.231419553250E+04    0.30612E-03   -0.63636E-04  3231   0.109E-02    0.591E-02
RMM:   5    -0.231419549782E+04    0.34681E-04   -0.12633E-04  3449   0.776E-03    0.305E-02
RMM:   6    -0.231419549110E+04    0.67222E-05   -0.49009E-05  3066   0.673E-03
  85 F= -.23346406E+04 E0= -.23346406E+04  d E =-.145317E-02  mag=     5.0000
       N       E                     dE             d eps       ncg     rms          rms(c)
DAV:   1    -0.231419367196E+04    0.18259E-02   -0.19800E-01  4496   0.379E-01    0.138E-01
RMM:   2    -0.231419618424E+04   -0.25123E-02   -0.26397E-02  6233   0.708E-02    0.142E-01
RMM:   3    -0.231419645595E+04   -0.27171E-03   -0.25072E-03  4071   0.255E-02    0.174E-01
RMM:   4    -0.231419632176E+04    0.13420E-03   -0.30900E-04  2942   0.790E-03    0.428E-02
RMM:   5    -0.231419630601E+04    0.15744E-04   -0.59992E-05  2946   0.533E-03    0.213E-02
RMM:   6    -0.231419630423E+04    0.17792E-05   -0.22206E-05  2900   0.491E-03
  86 F= -.23346416E+04 E0= -.23346416E+04  d E =-.100109E-02  mag=     5.0000
       N       E                     dE             d eps       ncg     rms          rms(c)
DAV:   1    -0.231418455337E+04    0.11753E-01   -0.91649E-01  4408   0.814E-01    0.294E-01
RMM:   2    -0.231419606624E+04   -0.11513E-01   -0.12120E-01  5947   0.148E-01    0.289E-01
RMM:   3    -0.231419734634E+04   -0.12801E-02   -0.11561E-02  5358   0.584E-02    0.366E-01
RMM:   4    -0.231419677679E+04    0.56955E-03   -0.14665E-03  4178   0.148E-02    0.934E-02
RMM:   5    -0.231419669857E+04    0.78228E-04   -0.24955E-04  3887   0.980E-03    0.491E-02
RMM:   6    -0.231419668926E+04    0.93053E-05   -0.11037E-04  3666   0.835E-03    0.404E-02
RMM:   7    -0.231419668185E+04    0.74059E-05   -0.22287E-05  2854   0.561E-03
  87 F= -.23346424E+04 E0= -.23346424E+04  d E =-.177674E-02  mag=     5.0000
       N       E                     dE             d eps       ncg     rms          rms(c)
DAV:   1    -0.231419425520E+04    0.24341E-02   -0.28568E-01  4424   0.462E-01    0.166E-01
RMM:   2    -0.231419766897E+04   -0.34138E-02   -0.35925E-02  5865   0.829E-02    0.163E-01
RMM:   3    -0.231419804256E+04   -0.37360E-03   -0.33735E-03  4535   0.339E-02    0.205E-01
RMM:   4    -0.231419786073E+04    0.18183E-03   -0.43286E-04  3022   0.894E-03    0.514E-02
RMM:   5    -0.231419783757E+04    0.23166E-04   -0.87564E-05  3034   0.624E-03    0.283E-02
RMM:   6    -0.231419783462E+04    0.29494E-05   -0.35646E-05  2938   0.576E-03
  88 F= -.23346437E+04 E0= -.23346437E+04  d E =-.133066E-02  mag=     5.0000
       N       E                     dE             d eps       ncg     rms          rms(c)
DAV:   1    -0.231418265446E+04    0.15183E-01   -0.12620E+00  4408   0.970E-01    0.348E-01
RMM:   2    -0.231419769586E+04   -0.15041E-01   -0.15853E-01  5765   0.173E-01    0.336E-01
RMM:   3    -0.231419945443E+04   -0.17586E-02   -0.15741E-02  5269   0.682E-02    0.440E-01
RMM:   4    -0.231419859502E+04    0.85941E-03   -0.19264E-03  4598   0.173E-02    0.109E-01
RMM:   5    -0.231419848643E+04    0.10859E-03   -0.38910E-04  4184   0.115E-02    0.561E-02
RMM:   6    -0.231419846745E+04    0.18980E-04   -0.14917E-04  4049   0.934E-03    0.392E-02
RMM:   7    -0.231419846039E+04    0.70653E-05   -0.26968E-05  2866   0.611E-03
  89 F= -.23346447E+04 E0= -.23346447E+04  d E =-.232404E-02  mag=     5.0000
       N       E                     dE             d eps       ncg     rms          rms(c)
DAV:   1    -0.231419342371E+04    0.50437E-02   -0.50089E-01  4420   0.606E-01    0.221E-01
RMM:   2    -0.231419952652E+04   -0.61028E-02   -0.64035E-02  5826   0.109E-01    0.225E-01
RMM:   3    -0.231420017447E+04   -0.64795E-03   -0.60746E-03  4960   0.448E-02    0.274E-01
RMM:   4    -0.231419985501E+04    0.31945E-03   -0.77314E-04  3430   0.114E-02    0.687E-02
RMM:   5    -0.231419981320E+04    0.41811E-04   -0.16115E-04  3445   0.808E-03    0.365E-02
RMM:   6    -0.231419980831E+04    0.48908E-05   -0.61080E-05  3148   0.681E-03
  90 F= -.23346463E+04 E0= -.23346463E+04  d E =-.155487E-02  mag=     5.0000
       N       E                     dE             d eps       ncg     rms          rms(c)
DAV:   1    -0.231418999776E+04    0.98154E-02   -0.79001E-01  4408   0.761E-01    0.279E-01
RMM:   2    -0.231419964449E+04   -0.96467E-02   -0.10117E-01  5855   0.137E-01    0.288E-01
RMM:   3    -0.231420070404E+04   -0.10596E-02   -0.10061E-02  5274   0.568E-02    0.351E-01
RMM:   4    -0.231420016139E+04    0.54265E-03   -0.12255E-03  4057   0.140E-02    0.858E-02
RMM:   5    -0.231420009077E+04    0.70623E-04   -0.25459E-04  3925   0.977E-03    0.431E-02
RMM:   6    -0.231420007875E+04    0.12016E-04   -0.90814E-05  3568   0.782E-03    0.278E-02
RMM:   7    -0.231420007536E+04    0.33861E-05   -0.16611E-05  2851   0.548E-03
  91 F= -.23346468E+04 E0= -.23346468E+04  d E =-.207753E-02  mag=     5.0000
       N       E                     dE             d eps       ncg     rms          rms(c)
DAV:   1    -0.231419336913E+04    0.67096E-02   -0.63700E-01  4408   0.676E-01    0.251E-01
RMM:   2    -0.231420117599E+04   -0.78069E-02   -0.81700E-02  5956   0.123E-01    0.258E-01
RMM:   3    -0.231420200272E+04   -0.82673E-03   -0.76648E-03  5143   0.480E-02    0.313E-01
RMM:   4    -0.231420158237E+04    0.42035E-03   -0.97841E-04  3691   0.125E-02    0.769E-02
RMM:   5    -0.231420152839E+04    0.53981E-04   -0.20557E-04  3628   0.881E-03    0.393E-02
RMM:   6    -0.231420152303E+04    0.53509E-05   -0.76054E-05  3234   0.729E-03
  92 F= -.23346485E+04 E0= -.23346485E+04  d E =-.167293E-02  mag=     5.0000
       N       E                     dE             d eps       ncg     rms          rms(c)
DAV:   1    -0.231419325689E+04    0.82715E-02   -0.66075E-01  4448   0.689E-01    0.257E-01
RMM:   2    -0.231420141728E+04   -0.81604E-02   -0.85010E-02  5996   0.126E-01    0.280E-01
RMM:   3    -0.231420225348E+04   -0.83620E-03   -0.82728E-03  5278   0.492E-02    0.323E-01
RMM:   4    -0.231420179807E+04    0.45541E-03   -0.10123E-03  3712   0.127E-02    0.773E-02
RMM:   5    -0.231420174194E+04    0.56135E-04   -0.21146E-04  3786   0.889E-03    0.384E-02
RMM:   6    -0.231420173452E+04    0.74142E-05   -0.71426E-05  3128   0.729E-03
  93 F= -.23346489E+04 E0= -.23346489E+04  d E =-.210909E-02  mag=     5.0000
       N       E                     dE             d eps       ncg     rms          rms(c)
DAV:   1    -0.231419282330E+04    0.89186E-02   -0.87605E-01  4408   0.788E-01    0.295E-01
RMM:   2    -0.231420325063E+04   -0.10427E-01   -0.10855E-01  6057   0.144E-01    0.322E-01
RMM:   3    -0.231420433657E+04   -0.10859E-02   -0.10884E-02  5367   0.584E-02    0.372E-01
RMM:   4    -0.231420372378E+04    0.61279E-03   -0.13136E-03  4240   0.148E-02    0.884E-02
RMM:   5    -0.231420364646E+04    0.77323E-04   -0.31308E-04  4089   0.106E-02    0.443E-02
RMM:   6    -0.231420363548E+04    0.10980E-04   -0.10349E-04  3530   0.822E-03    0.296E-02
RMM:   7    -0.231420363222E+04    0.32582E-05   -0.21456E-05  2857   0.564E-03
  94 F= -.23346510E+04 E0= -.23346510E+04  d E =-.211129E-02  mag=     5.0000
       N       E                     dE             d eps       ncg     rms          rms(c)
DAV:   1    -0.231419770860E+04    0.59269E-02   -0.50644E-01  4448   0.599E-01    0.223E-01
RMM:   2    -0.231420370217E+04   -0.59936E-02   -0.62709E-02  5955   0.109E-01    0.229E-01
RMM:   3    -0.231420434829E+04   -0.64612E-03   -0.59387E-03  4961   0.432E-02    0.283E-01
RMM:   4    -0.231420400015E+04    0.34814E-03   -0.75615E-04  3446   0.114E-02    0.683E-02
RMM:   5    -0.231420395434E+04    0.45814E-04   -0.18174E-04  3579   0.836E-03    0.348E-02
RMM:   6    -0.231420394770E+04    0.66387E-05   -0.61667E-05  3163   0.682E-03
  95 F= -.23346515E+04 E0= -.23346515E+04  d E =-.258463E-02  mag=     5.0000
       N       E                     dE             d eps       ncg     rms          rms(c)
DAV:   1    -0.231419396603E+04    0.99883E-02   -0.10100E+00  4408   0.847E-01    0.322E-01
RMM:   2    -0.231420578443E+04   -0.11818E-01   -0.12317E-01  5984   0.156E-01    0.348E-01
RMM:   3    -0.231420702170E+04   -0.12373E-02   -0.12191E-02  5340   0.600E-02    0.414E-01
RMM:   4    -0.231420625778E+04    0.76392E-03   -0.15050E-03  4439   0.160E-02    0.955E-02
RMM:   5    -0.231420616619E+04    0.91595E-04   -0.38502E-04  4196   0.117E-02    0.477E-02
RMM:   6    -0.231420615479E+04    0.11399E-04   -0.11470E-04  3700   0.878E-03    0.318E-02
RMM:   7    -0.231420615158E+04    0.32111E-05   -0.23301E-05  2872   0.562E-03
  96 F= -.23346538E+04 E0= -.23346538E+04  d E =-.233342E-02  mag=     5.0000
       N       E                     dE             d eps       ncg     rms          rms(c)
DAV:   1    -0.231420181146E+04    0.43433E-02   -0.37312E-01  4496   0.515E-01    0.195E-01
RMM:   2    -0.231420615919E+04   -0.43477E-02   -0.45477E-02  5966   0.946E-02    0.201E-01
RMM:   3    -0.231420662504E+04   -0.46585E-03   -0.42707E-03  4725   0.376E-02    0.250E-01
[...]
RMM:   2    -0.231423316841E+04   -0.78507E-03   -0.79138E-03  5924   0.536E-02    0.136E-01
RMM:   3    -0.231423320001E+04   -0.31597E-04   -0.76479E-04  3683   0.198E-02    0.131E-01
RMM:   4    -0.231423310857E+04    0.91444E-04   -0.10377E-04  2945   0.695E-03    0.294E-02
RMM:   5    -0.231423309660E+04    0.11964E-04   -0.55506E-05  3226   0.598E-03    0.133E-02
RMM:   6    -0.231423309573E+04    0.87528E-06   -0.11268E-05  2844   0.501E-03
 169 F= -.23346815E+04 E0= -.23346815E+04  d E =-.412681E-03  mag=     5.0000
       N       E                     dE             d eps       ncg     rms          rms(c)
DAV:   1    -0.231423306599E+04    0.30608E-04   -0.99912E-03  4784   0.907E-02    0.338E-02
RMM:   2    -0.231423314149E+04   -0.75495E-04   -0.72240E-04  5191   0.171E-02    0.497E-02
RMM:   3    -0.231423313869E+04    0.28027E-05   -0.71064E-05  2850   0.750E-03
 170 F= -.23346815E+04 E0= -.23346815E+04  d E =-.428179E-03  mag=     5.0000
       N       E                     dE             d eps       ncg     rms          rms(c)
DAV:   1    -0.231423297655E+04    0.16494E-03   -0.91282E-02  4408   0.277E-01    0.108E-01
RMM:   2    -0.231423361241E+04   -0.63585E-03   -0.63130E-03  5817   0.491E-02    0.136E-01
RMM:   3    -0.231423362169E+04   -0.92801E-05   -0.61099E-04  3468   0.163E-02    0.122E-01
RMM:   4    -0.231423354408E+04    0.77604E-04   -0.93597E-05  2948   0.651E-03    0.285E-02
RMM:   5    -0.231423353186E+04    0.12226E-04   -0.44854E-05  3089   0.564E-03    0.115E-02
RMM:   6    -0.231423353115E+04    0.70794E-06   -0.10947E-05  2837   0.484E-03
 171 F= -.23346819E+04 E0= -.23346819E+04  d E =-.347052E-03  mag=     5.0000
       N       E                     dE             d eps       ncg     rms          rms(c)
DAV:   1    -0.231423350913E+04    0.22724E-04   -0.53076E-03  5048   0.672E-02    0.253E-02
RMM:   2    -0.231423354535E+04   -0.36214E-04   -0.37646E-04  4405   0.130E-02    0.256E-02
RMM:   3    -0.231423354985E+04   -0.45032E-05   -0.40927E-05  2838   0.670E-03
 172 F= -.23346819E+04 E0= -.23346819E+04  d E =-.354780E-03  mag=     5.0000
       N       E                     dE             d eps       ncg     rms          rms(c)
DAV:   1    -0.231423336489E+04    0.18046E-03   -0.91298E-02  4408   0.278E-01    0.105E-01
RMM:   2    -0.231423399103E+04   -0.62614E-03   -0.63875E-03  5772   0.484E-02    0.117E-01
RMM:   3    -0.231423403349E+04   -0.42457E-04   -0.61785E-04  3447   0.163E-02    0.128E-01
RMM:   4    -0.231423395005E+04    0.83436E-04   -0.95720E-05  2933   0.652E-03    0.282E-02
RMM:   5    -0.231423393815E+04    0.11898E-04   -0.42402E-05  3068   0.556E-03    0.120E-02
RMM:   6    -0.231423393749E+04    0.66088E-06   -0.10906E-05  2848   0.474E-03
 173 F= -.23346822E+04 E0= -.23346822E+04  d E =-.337072E-03  mag=     5.0000
       N       E                     dE             d eps       ncg     rms          rms(c)
DAV:   1    -0.231423391016E+04    0.27991E-04   -0.62653E-03  5056   0.732E-02    0.274E-02
RMM:   2    -0.231423395560E+04   -0.45443E-04   -0.45611E-04  4680   0.140E-02    0.334E-02
RMM:   3    -0.231423395816E+04   -0.25521E-05   -0.48749E-05  2844   0.680E-03
 174 F= -.23346822E+04 E0= -.23346822E+04  d E =-.344466E-03  mag=     5.0000
       N       E                     dE             d eps       ncg     rms          rms(c)
DAV:   1    -0.231423379690E+04    0.15870E-03   -0.94934E-02  4408   0.283E-01    0.105E-01
RMM:   2    -0.231423442969E+04   -0.63279E-03   -0.64208E-03  5793   0.483E-02    0.119E-01
RMM:   3    -0.231423446889E+04   -0.39201E-04   -0.64195E-04  3426   0.167E-02    0.129E-01
RMM:   4    -0.231423438329E+04    0.85594E-04   -0.95231E-05  2926   0.647E-03    0.280E-02
RMM:   5    -0.231423437183E+04    0.11462E-04   -0.46411E-05  3078   0.551E-03    0.114E-02
RMM:   6    -0.231423437141E+04    0.41966E-06   -0.10117E-05  2831   0.473E-03
 175 F= -.23346826E+04 E0= -.23346826E+04  d E =-.346563E-03  mag=     5.0000
       N       E                     dE             d eps       ncg     rms          rms(c)
DAV:   1    -0.231423433940E+04    0.32429E-04   -0.87803E-03  4768   0.863E-02    0.317E-02
RMM:   2    -0.231423440018E+04   -0.60780E-04   -0.61303E-04  5018   0.160E-02    0.364E-02
RMM:   3    -0.231423440453E+04   -0.43482E-05   -0.63740E-05  2853   0.736E-03
 176 F= -.23346826E+04 E0= -.23346826E+04  d E =-.359350E-03  mag=     5.0000
       N       E                     dE             d eps       ncg     rms          rms(c)
DAV:   1    -0.231423421019E+04    0.18999E-03   -0.95457E-02  4408   0.276E-01    0.105E-01
RMM:   2    -0.231423487910E+04   -0.66890E-03   -0.67511E-03  5844   0.488E-02    0.123E-01
RMM:   3    -0.231423491176E+04   -0.32664E-04   -0.67376E-04  3383   0.161E-02    0.124E-01
RMM:   4    -0.231423483320E+04    0.78562E-04   -0.99522E-05  2933   0.646E-03    0.292E-02
RMM:   5    -0.231423482083E+04    0.12366E-04   -0.47326E-05  3097   0.562E-03    0.115E-02
RMM:   6    -0.231423482027E+04    0.56380E-06   -0.10852E-05  2836   0.487E-03
 177 F= -.23346829E+04 E0= -.23346829E+04  d E =-.346926E-03  mag=     5.0000
       N       E                     dE             d eps       ncg     rms          rms(c)
DAV:   1    -0.231423476920E+04    0.51631E-04   -0.13127E-02  4736   0.103E-01    0.380E-02
RMM:   2    -0.231423486074E+04   -0.91536E-04   -0.94532E-04  5401   0.189E-02    0.395E-02
RMM:   3    -0.231423487018E+04   -0.94441E-05   -0.95141E-05  2854   0.833E-03
 178 F= -.23346829E+04 E0= -.23346829E+04  d E =-.371334E-03  mag=     5.0000
       N       E                     dE             d eps       ncg     rms          rms(c)
DAV:   1    -0.231423455930E+04    0.30144E-03   -0.10325E-01  4408   0.282E-01    0.109E-01
RMM:   2    -0.231423530442E+04   -0.74512E-03   -0.75079E-03  5874   0.510E-02    0.130E-01
RMM:   3    -0.231423533524E+04   -0.30825E-04   -0.74264E-04  3458   0.166E-02    0.127E-01
RMM:   4    -0.231423525335E+04    0.81892E-04   -0.10736E-04  2936   0.659E-03    0.317E-02
RMM:   5    -0.231423523872E+04    0.14636E-04   -0.50918E-05  3172   0.580E-03    0.129E-02
RMM:   6    -0.231423523779E+04    0.92466E-06   -0.11368E-05  2840   0.493E-03
 179 F= -.23346833E+04 E0= -.23346833E+04  d E =-.329637E-03  mag=     5.0000
       N       E                     dE             d eps       ncg     rms          rms(c)
DAV:   1    -0.231423521947E+04    0.19245E-04   -0.32928E-03  5136   0.507E-02    0.190E-02
RMM:   2    -0.231423524296E+04   -0.23491E-04   -0.24522E-04  3737   0.101E-02    0.198E-02
RMM:   3    -0.231423524586E+04   -0.29012E-05   -0.28219E-05  2820   0.574E-03
 180 F= -.23346833E+04 E0= -.23346833E+04  d E =-.330935E-03  mag=     5.0000
       N       E                     dE             d eps       ncg     rms          rms(c)
DAV:   1    -0.231423497755E+04    0.26542E-03   -0.10474E-01  4440   0.293E-01    0.116E-01
RMM:   2    -0.231423568750E+04   -0.70996E-03   -0.72433E-03  5784   0.507E-02    0.128E-01
RMM:   3    -0.231423574201E+04   -0.54504E-04   -0.75535E-04  3626   0.185E-02    0.146E-01
RMM:   4    -0.231423563055E+04    0.11145E-03   -0.11158E-04  2983   0.693E-03    0.294E-02
RMM:   5    -0.231423561735E+04    0.13198E-04   -0.54467E-05  3202   0.588E-03    0.133E-02
RMM:   6    -0.231423561596E+04    0.13909E-05   -0.11483E-05  2837   0.492E-03
 181 F= -.23346836E+04 E0= -.23346836E+04  d E =-.323209E-03  mag=     5.0000
       N       E                     dE             d eps       ncg     rms          rms(c)
DAV:   1    -0.231423560526E+04    0.12098E-04   -0.19000E-03  5184   0.399E-02    0.158E-02
RMM:   2    -0.231423561943E+04   -0.14172E-04   -0.13932E-04  3371   0.811E-03    0.208E-02
RMM:   3    -0.231423561995E+04   -0.52011E-06   -0.17734E-05  2776   0.492E-03
 182 F= -.23346836E+04 E0= -.23346836E+04  d E =-.320815E-03  mag=     5.0000
       N       E                     dE             d eps       ncg     rms          rms(c)
DAV:   1    -0.231423536965E+04    0.24978E-03   -0.93070E-02  4408   0.263E-01    0.103E-01
RMM:   2    -0.231423605186E+04   -0.68222E-03   -0.68202E-03  5791   0.464E-02    0.128E-01
RMM:   3    -0.231423607207E+04   -0.20211E-04   -0.69241E-04  3452   0.172E-02    0.118E-01
RMM:   4    -0.231423600020E+04    0.71874E-04   -0.99449E-05  2935   0.631E-03    0.288E-02
RMM:   5    -0.231423598825E+04    0.11947E-04   -0.45669E-05  3109   0.552E-03    0.129E-02
RMM:   6    -0.231423598745E+04    0.80619E-06   -0.91881E-06  2827   0.463E-03
 183 F= -.23346839E+04 E0= -.23346839E+04  d E =-.302710E-03  mag=     5.0000
       N       E                     dE             d eps       ncg     rms          rms(c)
DAV:   1    -0.231423597968E+04    0.85736E-05   -0.22919E-03  5120   0.416E-02    0.165E-02
RMM:   2    -0.231423599797E+04   -0.18291E-04   -0.17736E-04  3412   0.846E-03    0.239E-02
RMM:   3    -0.231423599791E+04    0.63286E-07   -0.20796E-05  2770   0.499E-03
 184 F= -.23346839E+04 E0= -.23346839E+04  d E =-.302931E-03  mag=     5.0000
       N       E                     dE             d eps       ncg     rms          rms(c)
DAV:   1    -0.231423573786E+04    0.26011E-03   -0.98677E-02  4408   0.275E-01    0.109E-01
RMM:   2    -0.231423642919E+04   -0.69133E-03   -0.70578E-03  5784   0.484E-02    0.124E-01
RMM:   3    -0.231423647412E+04   -0.44926E-04   -0.71281E-04  3570   0.178E-02    0.135E-01
RMM:   4    -0.231423637995E+04    0.94162E-04   -0.10729E-04  2961   0.666E-03    0.292E-02
RMM:   5    -0.231423636699E+04    0.12964E-04   -0.51426E-05  3145   0.570E-03    0.126E-02
RMM:   6    -0.231423636579E+04    0.12039E-05   -0.11012E-05  2833   0.488E-03
 185 F= -.23346842E+04 E0= -.23346842E+04  d E =-.332187E-03  mag=     5.0000
       N       E                     dE             d eps       ncg     rms          rms(c)
DAV:   1    -0.231423635343E+04    0.13557E-04   -0.22230E-03  5216   0.416E-02    0.163E-02
RMM:   2    -0.231423636888E+04   -0.15443E-04   -0.16492E-04  3423   0.843E-03    0.152E-02
RMM:   3    -0.231423637146E+04   -0.25795E-05   -0.20243E-05  2795   0.508E-03
 186 F= -.23346842E+04 E0= -.23346842E+04  d E =-.332477E-03  mag=     5.0000
       N       E                     dE             d eps       ncg     rms          rms(c)
DAV:   1    -0.231423609302E+04    0.27585E-03   -0.93682E-02  4408   0.269E-01    0.105E-01
RMM:   2    -0.231423674376E+04   -0.65074E-03   -0.66610E-03  5766   0.464E-02    0.112E-01
RMM:   3    -0.231423680418E+04   -0.60412E-04   -0.67567E-04  3469   0.172E-02    0.135E-01
RMM:   4    -0.231423671324E+04    0.90933E-04   -0.10176E-04  2903   0.638E-03    0.279E-02
RMM:   5    -0.231423670232E+04    0.10918E-04   -0.44860E-05  3051   0.529E-03    0.114E-02
RMM:   6    -0.231423670185E+04    0.47522E-06   -0.98387E-06  2828   0.459E-03
 187 F= -.23346845E+04 E0= -.23346845E+04  d E =-.317673E-03  mag=     5.0000
       N       E                     dE             d eps       ncg     rms          rms(c)
DAV:   1    -0.231423664862E+04    0.53709E-04   -0.92764E-03  4728   0.848E-02    0.329E-02
RMM:   2    -0.231423671525E+04   -0.66634E-04   -0.67956E-04  5030   0.158E-02    0.354E-02
RMM:   3    -0.231423672194E+04   -0.66865E-05   -0.70823E-05  2854   0.739E-03
 188 F= -.23346846E+04 E0= -.23346846E+04  d E =-.333888E-03  mag=     5.0000
       N       E                     dE             d eps       ncg     rms          rms(c)
DAV:   1    -0.231423651781E+04    0.19744E-03   -0.75556E-02  4408   0.237E-01    0.925E-02
RMM:   2    -0.231423708236E+04   -0.56455E-03   -0.56564E-03  5850   0.420E-02    0.113E-01
RMM:   3    -0.231423710331E+04   -0.20953E-04   -0.57463E-04  3201   0.141E-02    0.106E-01
RMM:   4    -0.231423704762E+04    0.55694E-04   -0.83761E-05  2902   0.565E-03    0.271E-02
RMM:   5    -0.231423703689E+04    0.10727E-04   -0.36846E-05  2989   0.482E-03    0.108E-02
RMM:   6    -0.231423703627E+04    0.61598E-06   -0.79553E-06  2829   0.422E-03
 189 F= -.23346849E+04 E0= -.23346849E+04  d E =-.307366E-03  mag=     5.0000
       N       E                     dE             d eps       ncg     rms          rms(c)
DAV:   1    -0.231423695808E+04    0.78804E-04   -0.13976E-02  4632   0.102E-01    0.388E-02
RMM:   2    -0.231423706408E+04   -0.10600E-03   -0.10585E-03  5373   0.185E-02    0.493E-02
RMM:   3    -0.231423706826E+04   -0.41768E-05   -0.10811E-04  2866   0.846E-03    0.447E-02
RMM:   4    -0.231423705797E+04    0.10285E-04   -0.15526E-05  2858   0.279E-03    0.107E-02
RMM:   5    -0.231423705594E+04    0.20276E-05   -0.61180E-06  2818   0.208E-03
 190 F= -.23346849E+04 E0= -.23346849E+04  d E =-.324213E-03  mag=     5.0000
       N       E                     dE             d eps       ncg     rms          rms(c)
DAV:   1    -0.231423680345E+04    0.25452E-03   -0.82645E-02  4408   0.251E-01    0.959E-02
RMM:   2    -0.231423742946E+04   -0.62601E-03   -0.64255E-03  5873   0.445E-02    0.103E-01
RMM:   3    -0.231423748877E+04   -0.59307E-04   -0.63454E-04  3444   0.166E-02    0.124E-01
RMM:   4    -0.231423741117E+04    0.77601E-04   -0.94185E-05  2883   0.606E-03    0.262E-02
RMM:   5    -0.231423740141E+04    0.97581E-05   -0.38923E-05  2985   0.495E-03
 191 F= -.23346852E+04 E0= -.23346852E+04  d E =-.351033E-03  mag=     5.0000
       N       E                     dE             d eps       ncg     rms          rms(c)
DAV:   1    -0.231423729421E+04    0.11696E-03   -0.15984E-02  4664   0.110E-01    0.428E-02
RMM:   2    -0.231423741495E+04   -0.12074E-03   -0.12698E-03  5501   0.219E-02    0.401E-02
RMM:   3    -0.231423743209E+04   -0.17140E-04   -0.14066E-04  2886   0.890E-03    0.580E-02
RMM:   4    -0.231423741585E+04    0.16237E-04   -0.19782E-05  2839   0.335E-03    0.127E-02
RMM:   5    -0.231423741371E+04    0.21453E-05   -0.81497E-06  2838   0.232E-03
 192 F= -.23346853E+04 E0= -.23346853E+04  d E =-.366007E-03  mag=     5.0000
       N       E                     dE             d eps       ncg     rms          rms(c)
DAV:   1    -0.231423699871E+04    0.41714E-03   -0.93151E-02  4408   0.255E-01    0.981E-02
RMM:   2    -0.231423775294E+04   -0.75423E-03   -0.77748E-03  5896   0.458E-02    0.103E-01
RMM:   3    -0.231423783016E+04   -0.77216E-04   -0.75647E-04  3468   0.172E-02    0.129E-01
RMM:   4    -0.231423774949E+04    0.80670E-04   -0.11279E-04  2894   0.605E-03    0.286E-02
RMM:   5    -0.231423773741E+04    0.12076E-04   -0.39470E-05  2979   0.492E-03    0.118E-02
RMM:   6    -0.231423773625E+04    0.11656E-05   -0.98848E-06  2834   0.439E-03
 193 F= -.23346856E+04 E0= -.23346856E+04  d E =-.344315E-03  mag=     5.0000
       N       E                     dE             d eps       ncg     rms          rms(c)
DAV:   1    -0.231423760959E+04    0.12782E-03   -0.16851E-02  4680   0.108E-01    0.422E-02
RMM:   2    -0.231423775069E+04   -0.14110E-03   -0.14339E-03  5554   0.202E-02    0.497E-02
RMM:   3    -0.231423776092E+04   -0.10228E-04   -0.13989E-04  2870   0.851E-03    0.518E-02
RMM:   4    -0.231423774779E+04    0.13129E-04   -0.20453E-05  2856   0.300E-03    0.122E-02
RMM:   5    -0.231423774526E+04    0.25327E-05   -0.72128E-06  2824   0.222E-03
 194 F= -.23346856E+04 E0= -.23346856E+04  d E =-.362901E-03  mag=     5.0000
       N       E                     dE             d eps       ncg     rms          rms(c)
DAV:   1    -0.231423727803E+04    0.46976E-03   -0.10320E-01  4408   0.269E-01    0.104E-01
RMM:   2    -0.231423813071E+04   -0.85267E-03   -0.87787E-03  5946   0.484E-02    0.109E-01
RMM:   3    -0.231423822375E+04   -0.93041E-04   -0.88879E-04  3490   0.180E-02    0.139E-01
RMM:   4    -0.231423812919E+04    0.94556E-04   -0.12844E-04  2896   0.637E-03    0.296E-02
RMM:   5    -0.231423811631E+04    0.12883E-04   -0.46131E-05  3055   0.517E-03    0.127E-02
RMM:   6    -0.231423811511E+04    0.12040E-05   -0.10680E-05  2838   0.453E-03
 195 F= -.23346860E+04 E0= -.23346860E+04  d E =-.371413E-03  mag=     5.0000
       N       E                     dE             d eps       ncg     rms          rms(c)
DAV:   1    -0.231423800419E+04    0.11212E-03   -0.15272E-02  4600   0.104E-01    0.407E-02
RMM:   2    -0.231423813798E+04   -0.13379E-03   -0.13308E-03  5460   0.195E-02    0.529E-02
RMM:   3    -0.231423814399E+04   -0.60065E-05   -0.13453E-04  2872   0.854E-03    0.468E-02
RMM:   4    -0.231423813320E+04    0.10787E-04   -0.18656E-05  2855   0.290E-03    0.114E-02
RMM:   5    -0.231423813101E+04    0.21949E-05   -0.67115E-06  2821   0.213E-03
 196 F= -.23346860E+04 E0= -.23346860E+04  d E =-.388167E-03  mag=     5.0000
       N       E                     dE             d eps       ncg     rms          rms(c)
DAV:   1    -0.231423757094E+04    0.56227E-03   -0.11203E-01  4408   0.282E-01    0.110E-01
RMM:   2    -0.231423855989E+04   -0.98895E-03   -0.10158E-02  5956   0.512E-02    0.116E-01
RMM:   3    -0.231423866781E+04   -0.10792E-03   -0.10360E-03  3526   0.191E-02    0.147E-01
RMM:   4    -0.231423856270E+04    0.10510E-03   -0.14741E-04  2901   0.670E-03    0.311E-02
RMM:   5    -0.231423854742E+04    0.15286E-04   -0.51151E-05  3089   0.546E-03    0.133E-02
RMM:   6    -0.231423854558E+04    0.18335E-05   -0.12210E-05  2847   0.478E-03
 197 F= -.23346864E+04 E0= -.23346864E+04  d E =-.379969E-03  mag=     5.0000
       N       E                     dE             d eps       ncg     rms          rms(c)
DAV:   1    -0.231423842237E+04    0.12505E-03   -0.16570E-02  4696   0.109E-01    0.433E-02
RMM:   2    -0.231423857766E+04   -0.15529E-03   -0.15455E-03  5560   0.207E-02    0.564E-02
RMM:   3    -0.231423858483E+04   -0.71679E-05   -0.15726E-04  2879   0.898E-03    0.502E-02
RMM:   4    -0.231423857242E+04    0.12401E-04   -0.21326E-05  2854   0.304E-03    0.120E-02
RMM:   5    -0.231423856978E+04    0.26433E-05   -0.74449E-06  2839   0.226E-03
 198 F= -.23346864E+04 E0= -.23346864E+04  d E =-.391007E-03  mag=     5.0000
       N       E                     dE             d eps       ncg     rms          rms(c)
DAV:   1    -0.231423795895E+04    0.61347E-03   -0.10143E-01  4408   0.258E-01    0.104E-01
RMM:   2    -0.231423896298E+04   -0.10040E-02   -0.10248E-02  6052   0.487E-02    0.111E-01
RMM:   3    -0.231423906836E+04   -0.10538E-03   -0.10523E-03  3363   0.177E-02    0.136E-01
RMM:   4    -0.231423898403E+04    0.84328E-04   -0.14492E-04  2884   0.622E-03    0.305E-02
RMM:   5    -0.231423897137E+04    0.12663E-04   -0.41031E-05  2959   0.478E-03    0.142E-02
RMM:   6    -0.231423897017E+04    0.12068E-05   -0.12374E-05  2854   0.428E-03
 199 F= -.23346868E+04 E0= -.23346868E+04  d E =-.374807E-03  mag=     5.0000
       N       E                     dE             d eps       ncg     rms          rms(c)
DAV:   1    -0.231423860545E+04    0.36592E-03   -0.41071E-02  4436   0.164E-01    0.673E-02
RMM:   2    -0.231423902741E+04   -0.42196E-03   -0.42219E-03  5981   0.309E-02    0.841E-02
RMM:   3    -0.231423905524E+04   -0.27832E-04   -0.41955E-04  3025   0.127E-02    0.819E-02
RMM:   4    -0.231423902420E+04    0.31039E-04   -0.55501E-05  2862   0.414E-03    0.190E-02
RMM:   5    -0.231423901864E+04    0.55566E-05   -0.15942E-05  2868   0.311E-03
 200 F= -.23346868E+04 E0= -.23346868E+04  d E =-.407420E-03  mag=     5.0000
       N       E                     dE             d eps       ncg     rms          rms(c)
DAV:   1    -0.231423840194E+04    0.62226E-03   -0.98455E-02  4408   0.248E-01    0.102E-01
RMM:   2    -0.231423941660E+04   -0.10147E-02   -0.10362E-02  6086   0.479E-02    0.111E-01
RMM:   3    -0.231423952169E+04   -0.10508E-03   -0.10858E-03  3366   0.183E-02    0.132E-01
RMM:   4    -0.231423944216E+04    0.79530E-04   -0.14225E-04  2890   0.612E-03    0.304E-02
RMM:   5    -0.231423942886E+04    0.13294E-04   -0.41611E-05  2954   0.472E-03    0.140E-02
RMM:   6    -0.231423942722E+04    0.16420E-05   -0.12755E-05  2862   0.428E-03
 201 F= -.23346872E+04 E0= -.23346872E+04  d E =-.406519E-03  mag=     5.0000
