       N       E                     dE             d eps       ncg     rms          rms(c)
DAV:   1     0.127205633877E+05    0.12721E+05   -0.82471E+05  4408   0.144E+03
DAV:   2    -0.104608287505E+04   -0.13767E+05   -0.13185E+05  5288   0.330E+02
DAV:   3    -0.245935082031E+04   -0.14133E+04   -0.14002E+04  5312   0.111E+02
DAV:   4    -0.250403574332E+04   -0.44685E+02   -0.44472E+02  6616   0.294E+01
DAV:   5    -0.250486358947E+04   -0.82785E+00   -0.82645E+00  5464   0.321E+00    0.170E+02
RMM:   6    -0.147243495736E+04    0.10324E+04   -0.19180E+03  4364   0.386E+01    0.724E+01
RMM:   7    -0.163810100810E+04   -0.16567E+03   -0.27977E+02  4948   0.142E+01    0.493E+01
RMM:   8    -0.169552823709E+04   -0.57427E+02   -0.46314E+01  5095   0.729E+00    0.380E+01
RMM:   9    -0.180939870643E+04   -0.11387E+03   -0.72000E+01  4903   0.801E+00    0.339E+01
RMM:  10    -0.192694341849E+04   -0.11754E+03   -0.55027E+01  5260   0.712E+00    0.193E+01
RMM:  11    -0.203494580023E+04   -0.10800E+03   -0.48807E+01  4744   0.548E+00    0.145E+01
RMM:  12    -0.214620855985E+04   -0.11126E+03   -0.69171E+01  4416   0.624E+00    0.105E+01
RMM:  13    -0.225506777724E+04   -0.10886E+03   -0.99380E+01  4392   0.692E+00    0.635E+00
RMM:  14    -0.228579610341E+04   -0.30728E+02   -0.32978E+01  4463   0.466E+00    0.345E+00
RMM:  15    -0.229298656441E+04   -0.71905E+01   -0.10262E+01  4826   0.222E+00    0.313E+00
RMM:  16    -0.229382895331E+04   -0.84239E+00   -0.10259E+00  5241   0.931E-01    0.382E+00
RMM:  17    -0.229385430330E+04   -0.25350E-01   -0.14914E-01  5452   0.246E-01    0.387E+00
RMM:  18    -0.229402651982E+04   -0.17222E+00   -0.11441E-01  4416   0.289E-01    0.314E+00
RMM:  19    -0.229544270340E+04   -0.14162E+01   -0.92178E-01  4360   0.700E-01    0.419E+00
RMM:  20    -0.229554719534E+04   -0.10449E+00   -0.34087E-01  4369   0.480E-01    0.471E+00
RMM:  21    -0.229555771899E+04   -0.10524E-01   -0.97726E-02  4756   0.198E-01    0.444E+00
RMM:  22    -0.229586677987E+04   -0.30906E+00   -0.42005E-01  4492   0.431E-01    0.291E+00
RMM:  23    -0.229625616560E+04   -0.38939E+00   -0.53654E-01  4817   0.488E-01    0.124E+00
RMM:  24    -0.229648594581E+04   -0.22978E+00   -0.19265E-01  4487   0.310E-01    0.102E+00
RMM:  25    -0.229660036219E+04   -0.11442E+00   -0.74125E-02  4657   0.149E-01    0.422E-01
RMM:  26    -0.229666574989E+04   -0.65388E-01   -0.38423E-02  4676   0.124E-01    0.260E-01
RMM:  27    -0.229669849870E+04   -0.32749E-01   -0.11488E-02  4537   0.775E-02    0.219E-01
RMM:  28    -0.229671429162E+04   -0.15793E-01   -0.42299E-03  4551   0.497E-02    0.223E-01
RMM:  29    -0.229672230370E+04   -0.80121E-02   -0.24228E-03  4497   0.396E-02    0.728E-02
RMM:  30    -0.229672815660E+04   -0.58529E-02   -0.19218E-03  4714   0.330E-02    0.105E-01
RMM:  31    -0.229673283399E+04   -0.46774E-02   -0.10384E-03  4108   0.260E-02    0.389E-02
RMM:  32    -0.229673411545E+04   -0.12815E-02   -0.34732E-04  4160   0.135E-02    0.218E-02
RMM:  33    -0.229673462783E+04   -0.51238E-03   -0.13715E-04  3856   0.953E-03    0.115E-02
RMM:  34    -0.229673492974E+04   -0.30191E-03   -0.70596E-05  3463   0.710E-03    0.668E-03
RMM:  35    -0.229673501722E+04   -0.87480E-04   -0.20473E-05  2970   0.473E-03    0.709E-03
RMM:  36    -0.229673505619E+04   -0.38965E-04   -0.89101E-06  2826   0.299E-03    0.558E-03
RMM:  37    -0.229673507602E+04   -0.19832E-04   -0.53117E-06  2662   0.251E-03    0.169E-03
RMM:  38    -0.229673508323E+04   -0.72083E-05   -0.29362E-06  2430   0.190E-03
   1 F= -.23170206E+04 E0= -.23170206E+04  d E =-.231702E+04  mag=     2.9995
       N       E                     dE             d eps       ncg     rms          rms(c)
DAV:   1    -0.229670720014E+04    0.27876E-01   -0.69407E+00  4976   0.193E+00    0.928E-01
RMM:   2    -0.229685399577E+04   -0.14680E+00   -0.13998E+00  5875   0.454E-01    0.142E+00
RMM:   3    -0.229684873752E+04    0.52582E-02   -0.15997E-01  5332   0.226E-01    0.631E-01
RMM:   4    -0.229684537870E+04    0.33588E-02   -0.15457E-02  4931   0.463E-02    0.309E-01
RMM:   5    -0.229684402837E+04    0.13503E-02   -0.37795E-03  5312   0.330E-02    0.159E-01
RMM:   6    -0.229684380676E+04    0.22162E-03   -0.10055E-03  4916   0.185E-02    0.823E-02
RMM:   7    -0.229684371415E+04    0.92609E-04   -0.19786E-04  3799   0.931E-03    0.318E-02
RMM:   8    -0.229684368705E+04    0.27096E-04   -0.75886E-05  3168   0.649E-03    0.207E-02
RMM:   9    -0.229684368791E+04   -0.85850E-06   -0.27352E-05  2862   0.495E-03
   2 F= -.23171289E+04 E0= -.23171289E+04  d E =-.108259E+00  mag=     2.9999
       N       E                     dE             d eps       ncg     rms          rms(c)
DAV:   1    -0.229666394581E+04    0.17974E+00   -0.11290E+01  4560   0.246E+00    0.117E+00
RMM:   2    -0.229690410016E+04   -0.24015E+00   -0.22952E+00  6035   0.577E-01    0.179E+00
RMM:   3    -0.229689951968E+04    0.45805E-02   -0.27274E-01  5631   0.253E-01    0.853E-01
RMM:   4    -0.229689338182E+04    0.61379E-02   -0.24798E-02  4967   0.575E-02    0.385E-01
RMM:   5    -0.229689114440E+04    0.22374E-02   -0.62342E-03  5354   0.416E-02    0.197E-01
RMM:   6    -0.229689082002E+04    0.32438E-03   -0.17346E-03  4953   0.233E-02    0.103E-01
RMM:   7    -0.229689066680E+04    0.15322E-03   -0.32687E-04  4183   0.122E-02    0.433E-02
RMM:   8    -0.229689062536E+04    0.41436E-04   -0.14193E-04  3535   0.790E-03    0.311E-02
RMM:   9    -0.229689062964E+04   -0.42753E-05   -0.45336E-05  2957   0.577E-03
   3 F= -.23171755E+04 E0= -.23171755E+04  d E =-.154884E+00  mag=     3.0000
       N       E                     dE             d eps       ncg     rms          rms(c)
DAV:   1    -0.229689879183E+04   -0.81665E-02   -0.31762E+00  4560   0.145E+00    0.770E-01
RMM:   2    -0.229697519274E+04   -0.76401E-01   -0.62638E-01  6086   0.333E-01    0.144E+00
RMM:   3    -0.229695721256E+04    0.17980E-01   -0.60260E-02  5737   0.125E-01    0.331E-01
RMM:   4    -0.229695634854E+04    0.86402E-03   -0.72159E-03  4422   0.309E-02    0.177E-01
RMM:   5    -0.229695600100E+04    0.34754E-03   -0.12646E-03  5172   0.229E-02    0.142E-01
RMM:   6    -0.229695584961E+04    0.15139E-03   -0.66927E-04  4836   0.148E-02    0.377E-02
RMM:   7    -0.229695583683E+04    0.12779E-04   -0.89467E-05  2969   0.772E-03    0.220E-02
RMM:   8    -0.229695583881E+04   -0.19736E-05   -0.24607E-05  2827   0.384E-03
   4 F= -.23172413E+04 E0= -.23172413E+04  d E =-.657994E-01  mag=     3.0000
       N       E                     dE             d eps       ncg     rms          rms(c)
DAV:   1    -0.229681314766E+04    0.14269E+00   -0.10744E+01  4480   0.268E+00    0.140E+00
RMM:   2    -0.229706753112E+04   -0.25438E+00   -0.21459E+00  6127   0.631E-01    0.249E+00
RMM:   3    -0.229701509656E+04    0.52435E-01   -0.21288E-01  5874   0.231E-01    0.630E-01
RMM:   4    -0.229701204708E+04    0.30495E-02   -0.25907E-02  4756   0.568E-02    0.328E-01
RMM:   5    -0.229701057364E+04    0.14734E-02   -0.41580E-03  5384   0.393E-02    0.256E-01
RMM:   6    -0.229700991550E+04    0.65813E-03   -0.27300E-03  5230   0.292E-02    0.745E-02
RMM:   7    -0.229700984097E+04    0.74537E-04   -0.31216E-04  3869   0.149E-02    0.513E-02
RMM:   8    -0.229700981498E+04    0.25989E-04   -0.10333E-04  3211   0.650E-03    0.170E-02
RMM:   9    -0.229700981765E+04   -0.26726E-05   -0.26771E-05  2849   0.459E-03
   5 F= -.23172963E+04 E0= -.23172963E+04  d E =-.120732E+00  mag=     3.0000
       N       E                     dE             d eps       ncg     rms          rms(c)
DAV:   1    -0.229702908191E+04   -0.19267E-01   -0.12090E+00  4520   0.845E-01    0.478E-01
RMM:   2    -0.229705778640E+04   -0.28704E-01   -0.25710E-01  6168   0.220E-01    0.749E-01
RMM:   3    -0.229705344966E+04    0.43367E-02   -0.22916E-02  5629   0.727E-02    0.281E-01
RMM:   4    -0.229705281451E+04    0.63516E-03   -0.26849E-03  4465   0.216E-02    0.114E-01
RMM:   5    -0.229705264885E+04    0.16565E-03   -0.51103E-04  4640   0.159E-02    0.638E-02
RMM:   6    -0.229705262397E+04    0.24883E-04   -0.16185E-04  3887   0.930E-03    0.201E-02
RMM:   7    -0.229705262642E+04   -0.24503E-05   -0.29689E-05  2882   0.627E-03
   6 F= -.23173397E+04 E0= -.23173397E+04  d E =-.434748E-01  mag=     3.0000
       N       E                     dE             d eps       ncg     rms          rms(c)
DAV:   1    -0.229690284429E+04    0.14978E+00   -0.10859E+01  4416   0.252E+00    0.141E+00
RMM:   2    -0.229715379685E+04   -0.25095E+00   -0.22987E+00  6185   0.670E-01    0.206E+00
RMM:   3    -0.229712218035E+04    0.31616E-01   -0.23118E-01  5864   0.226E-01    0.773E-01
RMM:   4    -0.229711754303E+04    0.46373E-02   -0.24810E-02  4682   0.648E-02    0.328E-01
RMM:   5    -0.229711621420E+04    0.13288E-02   -0.43826E-03  5218   0.450E-02    0.205E-01
RMM:   6    -0.229711580615E+04    0.40805E-03   -0.17694E-03  5238   0.269E-02    0.608E-02
RMM:   7    -0.229711579263E+04    0.13517E-04   -0.25625E-04  4183   0.142E-02    0.290E-02
RMM:   8    -0.229711579090E+04    0.17266E-05   -0.52130E-05  3215   0.605E-03
   7 F= -.23174047E+04 E0= -.23174047E+04  d E =-.108489E+00  mag=     3.0000
       N       E                     dE             d eps       ncg     rms          rms(c)
DAV:   1    -0.229713952786E+04   -0.23735E-01   -0.85483E-01  4512   0.576E-01    0.318E-01
RMM:   2    -0.229715268917E+04   -0.13161E-01   -0.13060E-01  6169   0.142E-01    0.353E-01
RMM:   3    -0.229715276224E+04   -0.73078E-04   -0.10848E-02  5240   0.464E-02    0.264E-01
RMM:   4    -0.229715223671E+04    0.52554E-03   -0.14096E-03  3729   0.136E-02    0.821E-02
RMM:   5    -0.229715219168E+04    0.45028E-04   -0.22525E-04  3364   0.806E-03    0.453E-02
RMM:   6    -0.229715219311E+04   -0.14322E-05   -0.67153E-05  2936   0.644E-03
   8 F= -.23174409E+04 E0= -.23174409E+04  d E =-.361575E-01  mag=     3.0000
       N       E                     dE             d eps       ncg     rms          rms(c)
DAV:   1    -0.229711120521E+04    0.40986E-01   -0.76497E+00  4416   0.173E+00    0.937E-01
RMM:   2    -0.229722740379E+04   -0.11620E+00   -0.11692E+00  6120   0.420E-01    0.981E-01
RMM:   3    -0.229723226233E+04   -0.48585E-02   -0.11755E-01  5728   0.146E-01    0.821E-01
RMM:   4    -0.229722718488E+04    0.50774E-02   -0.12756E-02  5409   0.393E-02    0.241E-01
RMM:   5    -0.229722674760E+04    0.43728E-03   -0.21227E-03  4715   0.216E-02    0.137E-01
RMM:   6    -0.229722669475E+04    0.52852E-04   -0.74592E-04  4804   0.155E-02    0.624E-02
RMM:   7    -0.229722666370E+04    0.31043E-04   -0.12416E-04  3263   0.871E-03    0.209E-02
RMM:   8    -0.229722666025E+04    0.34543E-05   -0.32132E-05  2873   0.460E-03
   9 F= -.23175147E+04 E0= -.23175147E+04  d E =-.109915E+00  mag=     3.0000
       N       E                     dE             d eps       ncg     rms          rms(c)
DAV:   1    -0.229672821157E+04    0.49845E+00   -0.30297E+01  4384   0.350E+00    0.184E+00
RMM:   2    -0.229720836371E+04   -0.48015E+00   -0.48888E+00  6130   0.855E-01    0.186E+00
RMM:   3    -0.229723980224E+04   -0.31439E-01   -0.49184E-01  5743   0.307E-01    0.169E+00
RMM:   4    -0.229721755237E+04    0.22250E-01   -0.51549E-02  5752   0.802E-02    0.495E-01
RMM:   5    -0.229721539973E+04    0.21526E-02   -0.89866E-03  5052   0.425E-02    0.298E-01
RMM:   6    -0.229721482470E+04    0.57502E-03   -0.41397E-03  5336   0.327E-02    0.131E-01
RMM:   7    -0.229721469911E+04    0.12559E-03   -0.54266E-04  4619   0.177E-02    0.482E-02
RMM:   8    -0.229721466927E+04    0.29837E-04   -0.13378E-04  3495   0.713E-03    0.244E-02
RMM:   9    -0.229721465433E+04    0.14944E-04   -0.41288E-05  2999   0.558E-03    0.115E-02
RMM:  10    -0.229721465103E+04    0.32970E-05   -0.18055E-05  2856   0.461E-03
  10 F= -.23175015E+04 E0= -.23175015E+04  d E =-.968070E-01  mag=     3.0000
       N       E                     dE             d eps       ncg     rms          rms(c)
DAV:   1    -0.229709265938E+04    0.12199E+00   -0.94494E+00  4384   0.204E+00    0.108E+00
RMM:   2    -0.229726911215E+04   -0.17645E+00   -0.16853E+00  6170   0.540E-01    0.173E+00
RMM:   3    -0.229725191770E+04    0.17194E-01   -0.12744E-01  5845   0.154E-01    0.723E-01
RMM:   4    -0.229724903937E+04    0.28783E-02   -0.18546E-02  5338   0.427E-02    0.298E-01
RMM:   5    -0.229724817971E+04    0.85966E-03   -0.24097E-03  4844   0.227E-02    0.168E-01
RMM:   6    -0.229724800547E+04    0.17424E-03   -0.13487E-03  5075   0.203E-02    0.798E-02
RMM:   7    -0.229724797118E+04    0.34290E-04   -0.19183E-04  3631   0.107E-02    0.237E-02
RMM:   8    -0.229724797127E+04   -0.98284E-07   -0.42637E-05  2893   0.479E-03
  11 F= -.23175354E+04 E0= -.23175354E+04  d E =-.130679E+00  mag=     3.0000
       N       E                     dE             d eps       ncg     rms          rms(c)
DAV:   1    -0.229726799705E+04   -0.20026E-01   -0.12404E+00  4432   0.914E-01    0.396E-01
RMM:   2    -0.229727792374E+04   -0.99267E-02   -0.10002E-01  5774   0.203E-01    0.471E-01
RMM:   3    -0.229727682971E+04    0.10940E-02   -0.73616E-03  5512   0.628E-02    0.334E-01
RMM:   4    -0.229727571592E+04    0.11138E-02   -0.13542E-03  4599   0.247E-02    0.942E-02
RMM:   5    -0.229727554965E+04    0.16627E-03   -0.64613E-04  4968   0.204E-02    0.477E-02
RMM:   6    -0.229727551804E+04    0.31610E-04   -0.92691E-05  4302   0.916E-03    0.185E-02
RMM:   7    -0.229727551044E+04    0.76056E-05   -0.24889E-05  2951   0.467E-03
  12 F= -.23175627E+04 E0= -.23175627E+04  d E =-.272757E-01  mag=     3.0000
       N       E                     dE             d eps       ncg     rms          rms(c)
DAV:   1    -0.229727574685E+04   -0.22881E-03   -0.15606E+00  4416   0.104E+00    0.449E-01
RMM:   2    -0.229728860411E+04   -0.12857E-01   -0.12852E-01  5764   0.232E-01    0.544E-01
RMM:   3    -0.229728703161E+04    0.15725E-02   -0.96634E-03  5559   0.706E-02    0.371E-01
RMM:   4    -0.229728566452E+04    0.13671E-02   -0.17260E-03  4608   0.283E-02    0.106E-01
RMM:   5    -0.229728545839E+04    0.20614E-03   -0.82080E-04  5063   0.227E-02    0.557E-02
RMM:   6    -0.229728541619E+04    0.42193E-04   -0.11854E-04  4521   0.101E-02    0.199E-02
RMM:   7    -0.229728540834E+04    0.78501E-05   -0.30416E-05  3023   0.497E-03
  13 F= -.23175723E+04 E0= -.23175723E+04  d E =-.369065E-01  mag=     3.0000
       N       E                     dE             d eps       ncg     rms          rms(c)
DAV:   1    -0.229729060998E+04   -0.51938E-02   -0.67707E-01  4512   0.767E-01    0.328E-01
RMM:   2    -0.229729751269E+04   -0.69027E-02   -0.76094E-02  5713   0.155E-01    0.211E-01
RMM:   3    -0.229729819473E+04   -0.68204E-03   -0.69794E-03  5242   0.613E-02    0.290E-01
RMM:   4    -0.229729744120E+04    0.75353E-03   -0.10099E-03  4846   0.171E-02    0.862E-02
RMM:   5    -0.229729734264E+04    0.98558E-04   -0.37785E-04  4460   0.138E-02    0.315E-02
RMM:   6    -0.229729733667E+04    0.59697E-05   -0.73964E-05  3677   0.798E-03
  14 F= -.23175841E+04 E0= -.23175841E+04  d E =-.117429E-01  mag=     3.0000
       N       E                     dE             d eps       ncg     rms          rms(c)
DAV:   1    -0.229729667350E+04    0.66915E-03   -0.27394E-01  4520   0.487E-01    0.209E-01
RMM:   2    -0.229729945662E+04   -0.27831E-02   -0.30860E-02  5857   0.101E-01    0.136E-01
RMM:   3    -0.229729975473E+04   -0.29811E-03   -0.31732E-03  5114   0.414E-02    0.185E-01
RMM:   4    -0.229729945131E+04    0.30342E-03   -0.42382E-04  3855   0.114E-02    0.560E-02
RMM:   5    -0.229729940371E+04    0.47597E-04   -0.16004E-04  4019   0.934E-03    0.215E-02
RMM:   6    -0.229729939890E+04    0.48108E-05   -0.36193E-05  3062   0.635E-03
  15 F= -.23175860E+04 E0= -.23175860E+04  d E =-.136902E-01  mag=     3.0000
       N       E                     dE             d eps       ncg     rms          rms(c)
DAV:   1    -0.229729824453E+04    0.11592E-02   -0.38060E-01  4448   0.606E-01    0.228E-01
RMM:   2    -0.229730426588E+04   -0.60214E-02   -0.67154E-02  5866   0.132E-01    0.114E-01
RMM:   3    -0.229730455221E+04   -0.28633E-03   -0.61256E-03  5113   0.529E-02    0.771E-02
RMM:   4    -0.229730458257E+04   -0.30355E-04   -0.75760E-04  4149   0.136E-02    0.970E-02
RMM:   5    -0.229730449944E+04    0.83130E-04   -0.19188E-04  3535   0.103E-02    0.486E-02
RMM:   6    -0.229730447659E+04    0.22849E-04   -0.71210E-05  3345   0.686E-03    0.177E-02
RMM:   7    -0.229730447060E+04    0.59856E-05   -0.17586E-05  2832   0.518E-03
  16 F= -.23175909E+04 E0= -.23175909E+04  d E =-.493095E-02  mag=     3.0000
       N       E                     dE             d eps       ncg     rms          rms(c)
DAV:   1    -0.229730302306E+04    0.14535E-02   -0.12731E-01  4576   0.350E-01    0.132E-01
RMM:   2    -0.229730504351E+04   -0.20204E-02   -0.22591E-02  5833   0.775E-02    0.696E-02
RMM:   3    -0.229730516549E+04   -0.12198E-03   -0.23327E-03  4539   0.314E-02    0.579E-02
RMM:   4    -0.229730516626E+04   -0.76459E-06   -0.25184E-04  3021   0.761E-03    0.580E-02
RMM:   5    -0.229730512923E+04    0.37025E-04   -0.75253E-05  2973   0.658E-03    0.258E-02
RMM:   6    -0.229730511987E+04    0.93620E-05   -0.31464E-05  2951   0.551E-03
  17 F= -.23175915E+04 E0= -.23175915E+04  d E =-.549658E-02  mag=     3.0000
       N       E                     dE             d eps       ncg     rms          rms(c)
DAV:   1    -0.229730475779E+04    0.37144E-03   -0.28324E-01  4416   0.518E-01    0.171E-01
RMM:   2    -0.229730801668E+04   -0.32589E-02   -0.35698E-02  5965   0.105E-01    0.848E-02
RMM:   3    -0.229730822404E+04   -0.20736E-03   -0.38214E-03  4754   0.389E-02    0.734E-02
RMM:   4    -0.229730823424E+04   -0.10206E-04   -0.41432E-04  3069   0.914E-03    0.696E-02
RMM:   5    -0.229730818360E+04    0.50646E-04   -0.11290E-04  3237   0.732E-03    0.314E-02
RMM:   6    -0.229730817644E+04    0.71547E-05   -0.34317E-05  2865   0.573E-03
  18 F= -.23175944E+04 E0= -.23175944E+04  d E =-.290382E-02  mag=     3.0000
       N       E                     dE             d eps       ncg     rms          rms(c)
DAV:   1    -0.229730499669E+04    0.31869E-02   -0.36351E-01  4416   0.586E-01    0.195E-01
RMM:   2    -0.229730920815E+04   -0.42115E-02   -0.46078E-02  5873   0.118E-01    0.970E-02
RMM:   3    -0.229730946955E+04   -0.26140E-03   -0.48982E-03  4853   0.455E-02    0.831E-02
RMM:   4    -0.229730948429E+04   -0.14738E-04   -0.53311E-04  3248   0.103E-02    0.808E-02
RMM:   5    -0.229730941588E+04    0.68414E-04   -0.14879E-04  3494   0.842E-03    0.359E-02
RMM:   6    -0.229730940538E+04    0.10503E-04   -0.45143E-05  2918   0.628E-03    0.152E-02
RMM:   7    -0.229730940202E+04    0.33519E-05   -0.16543E-05  2845   0.458E-03
  19 F= -.23175955E+04 E0= -.23175955E+04  d E =-.395268E-02  mag=     3.0000
       N       E                     dE             d eps       ncg     rms          rms(c)
DAV:   1    -0.229731069040E+04   -0.12850E-02   -0.34599E-01  4408   0.572E-01    0.177E-01
RMM:   2    -0.229731251832E+04   -0.18279E-02   -0.18044E-02  5660   0.105E-01    0.192E-01
RMM:   3    -0.229731240199E+04    0.11634E-03   -0.15542E-03  4976   0.372E-02    0.153E-01
RMM:   4    -0.229731216893E+04    0.23306E-03   -0.28159E-04  4257   0.116E-02    0.424E-02
RMM:   5    -0.229731213817E+04    0.30755E-04   -0.11636E-04  4024   0.996E-03    0.160E-02
RMM:   6    -0.229731213590E+04    0.22719E-05   -0.21856E-05  2848   0.614E-03
  20 F= -.23175980E+04 E0= -.23175980E+04  d E =-.255297E-02  mag=     3.0000
       N       E                     dE             d eps       ncg     rms          rms(c)
DAV:   1    -0.229731211693E+04    0.21243E-04   -0.79652E-02  4512   0.275E-01    0.858E-02
RMM:   2    -0.229731255212E+04   -0.43519E-03   -0.42452E-03  5745   0.523E-02    0.964E-02
RMM:   3    -0.229731251575E+04    0.36370E-04   -0.36286E-04  3768   0.169E-02    0.731E-02
RMM:   4    -0.229731246146E+04    0.54294E-04   -0.60352E-05  2921   0.629E-03    0.210E-02
RMM:   5    -0.229731245299E+04    0.84676E-05   -0.34239E-05  3093   0.557E-03
  21 F= -.23175982E+04 E0= -.23175982E+04  d E =-.278316E-02  mag=     3.0000
       N       E                     dE             d eps       ncg     rms          rms(c)
DAV:   1    -0.229731105812E+04    0.14033E-02   -0.33806E-01  4416   0.553E-01    0.198E-01
RMM:   2    -0.229731710033E+04   -0.60422E-02   -0.48282E-02  6097   0.116E-01    0.461E-01
RMM:   3    -0.229731541398E+04    0.16864E-02   -0.41776E-03  5045   0.382E-02    0.834E-02
RMM:   4    -0.229731537788E+04    0.36094E-04   -0.57717E-04  3421   0.103E-02    0.488E-02
RMM:   5    -0.229731535129E+04    0.26594E-04   -0.89078E-05  3315   0.734E-03    0.451E-02
RMM:   6    -0.229731533056E+04    0.20732E-04   -0.63333E-05  2972   0.714E-03    0.810E-03
RMM:   7    -0.229731533084E+04   -0.28586E-06   -0.11469E-05  2840   0.437E-03
  22 F= -.23176007E+04 E0= -.23176007E+04  d E =-.247660E-02  mag=     3.0000
       N       E                     dE             d eps       ncg     rms          rms(c)
DAV:   1    -0.229729553802E+04    0.19793E-01   -0.18270E+00  4400   0.128E+00    0.460E-01
RMM:   2    -0.229732816733E+04   -0.32629E-01   -0.26039E-01  5909   0.264E-01    0.109E+00
RMM:   3    -0.229731898715E+04    0.91802E-02   -0.21614E-02  5479   0.870E-02    0.191E-01
RMM:   4    -0.229731878579E+04    0.20136E-03   -0.30169E-03  4656   0.225E-02    0.112E-01
RMM:   5    -0.229731865208E+04    0.13372E-03   -0.46389E-04  4653   0.156E-02    0.107E-01
RMM:   6    -0.229731853360E+04    0.11848E-03   -0.31517E-04  4264   0.124E-02    0.174E-02
RMM:   7    -0.229731853131E+04    0.22835E-05   -0.40904E-05  2876   0.641E-03
  23 F= -.23176030E+04 E0= -.23176030E+04  d E =-.474416E-02  mag=     3.0000
       N       E                     dE             d eps       ncg     rms          rms(c)
DAV:   1    -0.229731602261E+04    0.25110E-02   -0.31633E-01  4432   0.515E-01    0.206E-01
RMM:   2    -0.229732292258E+04   -0.69000E-02   -0.57867E-02  6027   0.115E-01    0.459E-01
RMM:   3    -0.229732133621E+04    0.15864E-02   -0.53949E-03  4881   0.375E-02    0.832E-02
RMM:   4    -0.229732131794E+04    0.18268E-04   -0.70906E-04  3168   0.972E-03    0.492E-02
RMM:   5    -0.229732129638E+04    0.21562E-04   -0.73464E-05  3034   0.597E-03    0.494E-02
RMM:   6    -0.229732127075E+04    0.25622E-04   -0.74449E-05  3044   0.695E-03    0.952E-03
RMM:   7    -0.229732127102E+04   -0.26650E-06   -0.12891E-05  2838   0.440E-03
  24 F= -.23176053E+04 E0= -.23176053E+04  d E =-.233114E-02  mag=     3.0000
       N       E                     dE             d eps       ncg     rms          rms(c)
DAV:   1    -0.229727856139E+04    0.42709E-01   -0.28474E+00  4384   0.154E+00    0.612E-01
RMM:   2    -0.229733941525E+04   -0.60854E-01   -0.51051E-01  5992   0.330E-01    0.138E+00
RMM:   3    -0.229732578903E+04    0.13626E-01   -0.47936E-02  5519   0.118E-01    0.241E-01
RMM:   4    -0.229732565633E+04    0.13270E-03   -0.63223E-03  4742   0.274E-02    0.144E-01
RMM:   5    -0.229732545740E+04    0.19893E-03   -0.65226E-04  4712   0.163E-02    0.150E-01
RMM:   6    -0.229732522132E+04    0.23608E-03   -0.59009E-04  4569   0.155E-02    0.229E-02
RMM:   7    -0.229732522014E+04    0.11818E-05   -0.73758E-05  2923   0.808E-03
  25 F= -.23176081E+04 E0= -.23176081E+04  d E =-.506013E-02  mag=     3.0000
       N       E                     dE             d eps       ncg     rms          rms(c)
DAV:   1    -0.229732147327E+04    0.37481E-02   -0.46783E-01  4448   0.599E-01    0.229E-01
RMM:   2    -0.229732920455E+04   -0.77313E-02   -0.71861E-02  5998   0.130E-01    0.388E-01
RMM:   3    -0.229732834593E+04    0.85862E-03   -0.66891E-03  5079   0.410E-02    0.124E-01
RMM:   4    -0.229732826276E+04    0.83171E-04   -0.73647E-04  3359   0.105E-02    0.533E-02
RMM:   5    -0.229732822736E+04    0.35400E-04   -0.82953E-05  3098   0.677E-03    0.376E-02
RMM:   6    -0.229732821285E+04    0.14509E-04   -0.74277E-05  3124   0.744E-03    0.907E-03
RMM:   7    -0.229732821268E+04    0.16391E-06   -0.10392E-05  2832   0.475E-03
  26 F= -.23176107E+04 E0= -.23176107E+04  d E =-.262358E-02  mag=     3.0000
       N       E                     dE             d eps       ncg     rms          rms(c)
DAV:   1    -0.229727310136E+04    0.55111E-01   -0.42094E+00  4384   0.180E+00    0.679E-01
RMM:   2    -0.229734010991E+04   -0.67009E-01   -0.62862E-01  5998   0.378E-01    0.112E+00
RMM:   3    -0.229733408749E+04    0.60224E-02   -0.59587E-02  5653   0.127E-01    0.382E-01
RMM:   4    -0.229733316339E+04    0.92410E-03   -0.62355E-03  4806   0.296E-02    0.156E-01
RMM:   5    -0.229733282735E+04    0.33604E-03   -0.72232E-04  4809   0.186E-02    0.107E-01
RMM:   6    -0.229733270396E+04    0.12339E-03   -0.58142E-04  4587   0.168E-02    0.269E-02
RMM:   7    -0.229733269516E+04    0.87939E-05   -0.59688E-05  3027   0.883E-03
  27 F= -.23176141E+04 E0= -.23176141E+04  d E =-.601687E-02  mag=     3.0000
       N       E                     dE             d eps       ncg     rms          rms(c)
DAV:   1    -0.229732876982E+04    0.39341E-02   -0.62247E-01  4416   0.618E-01    0.246E-01
RMM:   2    -0.229733697144E+04   -0.82016E-02   -0.82756E-02  6027   0.134E-01    0.299E-01
RMM:   3    -0.229733698310E+04   -0.11658E-04   -0.75748E-03  5132   0.420E-02    0.197E-01
RMM:   4    -0.229733671451E+04    0.26859E-03   -0.95041E-04  3357   0.115E-02    0.589E-02
RMM:   5    -0.229733667363E+04    0.40876E-04   -0.90473E-05  2967   0.662E-03    0.345E-02
RMM:   6    -0.229733666522E+04    0.84141E-05   -0.74560E-05  3207   0.709E-03
  28 F= -.23176177E+04 E0= -.23176177E+04  d E =-.359857E-02  mag=     3.0000
       N       E                     dE             d eps       ncg     rms          rms(c)
DAV:   1    -0.229727364088E+04    0.63033E-01   -0.55906E+00  4384   0.185E+00    0.731E-01
RMM:   2    -0.229734519207E+04   -0.71551E-01   -0.72914E-01  6000   0.394E-01    0.845E-01
RMM:   3    -0.229734650048E+04   -0.13084E-02   -0.61930E-02  5704   0.120E-01    0.615E-01
RMM:   4    -0.229734368159E+04    0.28189E-02   -0.82218E-03  5149   0.332E-02    0.174E-01
RMM:   5    -0.229734331789E+04    0.36371E-03   -0.79561E-04  4586   0.174E-02    0.101E-01
RMM:   6    -0.229734321754E+04    0.10035E-03   -0.64401E-04  4628   0.172E-02    0.409E-02
RMM:   7    -0.229734320640E+04    0.11141E-04   -0.72190E-05  3096   0.912E-03    0.184E-02
RMM:   8    -0.229734320148E+04    0.49206E-05   -0.14516E-05  2851   0.317E-03
  29 F= -.23176231E+04 E0= -.23176231E+04  d E =-.904690E-02  mag=     3.0000
       N       E                     dE             d eps       ncg     rms          rms(c)
DAV:   1    -0.229733059291E+04    0.12613E-01   -0.11049E+00  4424   0.827E-01    0.384E-01
RMM:   2    -0.229734954808E+04   -0.18955E-01   -0.18542E-01  6047   0.194E-01    0.536E-01
RMM:   3    -0.229734868736E+04    0.86072E-03   -0.16976E-02  5592   0.647E-02    0.274E-01
RMM:   4    -0.229734812580E+04    0.56156E-03   -0.20970E-03  4565   0.173E-02    0.853E-02
RMM:   5    -0.229734802865E+04    0.97152E-04   -0.23284E-04  3887   0.103E-02    0.514E-02
RMM:   6    -0.229734799716E+04    0.31487E-04   -0.16522E-04  3975   0.996E-03    0.177E-02
RMM:   7    -0.229734799515E+04    0.20115E-05   -0.19011E-05  2844   0.624E-03
  30 F= -.23176272E+04 E0= -.23176272E+04  d E =-.411847E-02  mag=     3.0000
       N       E                     dE             d eps       ncg     rms          rms(c)
DAV:   1    -0.229733497296E+04    0.13024E-01   -0.93973E-01  4408   0.764E-01    0.355E-01
RMM:   2    -0.229735119189E+04   -0.16219E-01   -0.15848E-01  6069   0.181E-01    0.501E-01
RMM:   3    -0.229735039253E+04    0.79936E-03   -0.14407E-02  5562   0.595E-02    0.253E-01
RMM:   4    -0.229734991471E+04    0.47782E-03   -0.17924E-03  4447   0.161E-02    0.789E-02
RMM:   5    -0.229734983096E+04    0.83745E-04   -0.19946E-04  3699   0.962E-03    0.480E-02
RMM:   6    -0.229734980147E+04    0.29492E-04   -0.14495E-04  3936   0.952E-03    0.163E-02
RMM:   7    -0.229734979937E+04    0.21057E-05   -0.16769E-05  2845   0.587E-03
  31 F= -.23176284E+04 E0= -.23176284E+04  d E =-.530537E-02  mag=     3.0000
       N       E                     dE             d eps       ncg     rms          rms(c)
DAV:   1    -0.229732752410E+04    0.22277E-01   -0.14726E+00  4416   0.944E-01    0.447E-01
RMM:   2    -0.229735812055E+04   -0.30596E-01   -0.27897E-01  6191   0.228E-01    0.829E-01
RMM:   3    -0.229735399744E+04    0.41231E-02   -0.24119E-02  5633   0.741E-02    0.212E-01
RMM:   4    -0.229735379516E+04    0.20228E-03   -0.27037E-03  4456   0.177E-02    0.961E-02
RMM:   5    -0.229735368477E+04    0.11039E-03   -0.26214E-04  3934   0.107E-02    0.730E-02
RMM:   6    -0.229735363356E+04    0.51210E-04   -0.22501E-04  3904   0.107E-02    0.170E-02
RMM:   7    -0.229735363213E+04    0.14288E-05   -0.25212E-05  2854   0.572E-03
  32 F= -.23176315E+04 E0= -.23176315E+04  d E =-.311861E-02  mag=     3.0000
       N       E                     dE             d eps       ncg     rms          rms(c)
DAV:   1    -0.229731369025E+04    0.39943E-01   -0.23881E+00  4400   0.120E+00    0.569E-01
RMM:   2    -0.229736301517E+04   -0.49325E-01   -0.45053E-01  6161   0.290E-01    0.105E+00
RMM:   3    -0.229735653796E+04    0.64772E-02   -0.38973E-02  5720   0.939E-02    0.271E-01
RMM:   4    -0.229735619268E+04    0.34528E-03   -0.43951E-03  4675   0.224E-02    0.122E-01
RMM:   5    -0.229735601101E+04    0.18167E-03   -0.42437E-04  4325   0.134E-02    0.924E-02
RMM:   6    -0.229735592827E+04    0.82738E-04   -0.35930E-04  4189   0.129E-02    0.217E-02
RMM:   7    -0.229735592478E+04    0.34904E-05   -0.39029E-05  2869   0.672E-03
  33 F= -.23176329E+04 E0= -.23176329E+04  d E =-.450795E-02  mag=     3.0000
       N       E                     dE             d eps       ncg     rms          rms(c)
DAV:   1    -0.229733673623E+04    0.19192E-01   -0.12868E+00  4416   0.886E-01    0.412E-01
RMM:   2    -0.229736528377E+04   -0.28548E-01   -0.25018E-01  6231   0.218E-01    0.857E-01
RMM:   3    -0.229736020010E+04    0.50837E-02   -0.22360E-02  5618   0.678E-02    0.155E-01
RMM:   4    -0.229736018527E+04    0.14824E-04   -0.26014E-03  4152   0.157E-02    0.903E-02
RMM:   5    -0.229736012489E+04    0.60388E-04   -0.25709E-04  3757   0.988E-03    0.970E-02
RMM:   6    -0.229736004273E+04    0.82154E-04   -0.26163E-04  3714   0.107E-02    0.181E-02
RMM:   7    -0.229736004090E+04    0.18359E-05   -0.25126E-05  2854   0.507E-03
  34 F= -.23176366E+04 E0= -.23176366E+04  d E =-.363163E-02  mag=     3.0000
       N       E                     dE             d eps       ncg     rms          rms(c)
DAV:   1    -0.229727316768E+04    0.86875E-01   -0.50432E+00  4384   0.175E+00    0.813E-01
RMM:   2    -0.229738429463E+04   -0.11113E+00   -0.97736E-01  6238   0.424E-01    0.171E+00
RMM:   3    -0.229736459920E+04    0.19695E-01   -0.83774E-02  5837   0.134E-01    0.309E-01
RMM:   4    -0.229736449098E+04    0.10822E-03   -0.95006E-03  4647   0.295E-02    0.177E-01
RMM:   5    -0.229736423421E+04    0.25677E-03   -0.96643E-04  4776   0.186E-02    0.192E-01
RMM:   6    -0.229736391531E+04    0.31890E-03   -0.97848E-04  4743   0.186E-02    0.388E-02
RMM:   7    -0.229736390429E+04    0.11015E-04   -0.83912E-05  2941   0.727E-03    0.193E-02
RMM:   8    -0.229736389715E+04    0.71462E-05   -0.15071E-05  2833   0.333E-03
  35 F= -.23176395E+04 E0= -.23176395E+04  d E =-.652908E-02  mag=     3.0000
       N       E                     dE             d eps       ncg     rms          rms(c)
DAV:   1    -0.229732775507E+04    0.36149E-01   -0.21905E+00  4416   0.120E+00    0.570E-01
RMM:   2    -0.229737961981E+04   -0.51865E-01   -0.44382E-01  6192   0.295E-01    0.123E+00
RMM:   3    -0.229736865476E+04    0.10965E-01   -0.38837E-02  5753   0.939E-02    0.205E-01
RMM:   4    -0.229736857754E+04    0.77222E-04   -0.41920E-03  4541   0.218E-02    0.118E-01
RMM:   5    -0.229736843978E+04    0.13776E-03   -0.46059E-04  4547   0.145E-02    0.122E-01
RMM:   6    -0.229736830266E+04    0.13712E-03   -0.40761E-04  4241   0.133E-02    0.208E-02
RMM:   7    -0.229736830082E+04    0.18457E-05   -0.43234E-05  2866   0.620E-03
  36 F= -.23176431E+04 E0= -.23176431E+04  d E =-.362925E-02  mag=     3.0000
       N       E                     dE             d eps       ncg     rms          rms(c)
DAV:   1    -0.229735845283E+04    0.98498E-02   -0.57585E-01  4480   0.617E-01    0.296E-01
RMM:   2    -0.229737235480E+04   -0.13902E-01   -0.11836E-01  6216   0.154E-01    0.637E-01
RMM:   3    -0.229736929560E+04    0.30592E-02   -0.10702E-02  5373   0.485E-02    0.107E-01
RMM:   4    -0.229736927944E+04    0.16157E-04   -0.11889E-03  3689   0.120E-02    0.622E-02
RMM:   5    -0.229736925056E+04    0.28881E-04   -0.12502E-04  3367   0.779E-03    0.673E-02
RMM:   6    -0.229736920706E+04    0.43505E-04   -0.12227E-04  3273   0.829E-03    0.104E-02
RMM:   7    -0.229736920749E+04   -0.43141E-06   -0.16736E-05  2842   0.476E-03
  37 F= -.23176436E+04 E0= -.23176436E+04  d E =-.413958E-02  mag=     3.0000
       N       E                     dE             d eps       ncg     rms          rms(c)
DAV:   1    -0.229735758169E+04    0.11625E-01   -0.81680E-01  4416   0.766E-01    0.348E-01
RMM:   2    -0.229737583537E+04   -0.18254E-01   -0.15693E-01  6195   0.187E-01    0.729E-01
RMM:   3    -0.229737198627E+04    0.38491E-02   -0.14119E-02  5550   0.590E-02    0.135E-01
RMM:   4    -0.229737193215E+04    0.54120E-04   -0.17156E-03  4321   0.157E-02    0.743E-02
RMM:   5    -0.229737187744E+04    0.54703E-04   -0.18252E-04  3847   0.988E-03    0.717E-02
RMM:   6    -0.229737182316E+04    0.54280E-04   -0.16522E-04  3802   0.976E-03    0.121E-02
RMM:   7    -0.229737182294E+04    0.22663E-06   -0.21646E-05  2857   0.549E-03
  38 F= -.23176456E+04 E0= -.23176456E+04  d E =-.205047E-02  mag=     3.0000
       N       E                     dE             d eps       ncg     rms          rms(c)
DAV:   1    -0.229736441891E+04    0.74043E-02   -0.45647E-01  4448   0.574E-01    0.261E-01
RMM:   2    -0.229737469598E+04   -0.10277E-01   -0.88235E-02  6192   0.141E-01    0.548E-01
RMM:   3    -0.229737251311E+04    0.21829E-02   -0.79399E-03  5316   0.442E-02    0.101E-01
RMM:   4    -0.229737247842E+04    0.34689E-04   -0.93442E-04  3784   0.120E-02    0.560E-02
RMM:   5    -0.229737244671E+04    0.31711E-04   -0.10466E-04  3275   0.774E-03    0.524E-02
RMM:   6    -0.229737241559E+04    0.31125E-04   -0.93295E-05  3306   0.802E-03    0.950E-03
RMM:   7    -0.229737241540E+04    0.18801E-06   -0.14320E-05  2840   0.489E-03
  39 F= -.23176458E+04 E0= -.23176458E+04  d E =-.222165E-02  mag=     3.0000
       N       E                     dE             d eps       ncg     rms          rms(c)
DAV:   1    -0.229736353134E+04    0.88842E-02   -0.75969E-01  4400   0.752E-01    0.296E-01
RMM:   2    -0.229737678119E+04   -0.13250E-01   -0.11665E-01  6196   0.170E-01    0.594E-01
RMM:   3    -0.229737436572E+04    0.24155E-02   -0.10364E-02  5448   0.526E-02    0.122E-01
RMM:   4    -0.229737432385E+04    0.41864E-04   -0.11971E-03  3981   0.130E-02    0.639E-02
RMM:   5    -0.229737428302E+04    0.40836E-04   -0.12260E-04  3464   0.822E-03    0.592E-02
RMM:   6    -0.229737424927E+04    0.33748E-04   -0.12442E-04  3458   0.878E-03    0.106E-02
RMM:   7    -0.229737424910E+04    0.16287E-06   -0.14811E-05  2842   0.498E-03
  40 F= -.23176473E+04 E0= -.23176473E+04  d E =-.144301E-02  mag=     3.0000
       N       E                     dE             d eps       ncg     rms          rms(c)
DAV:   1    -0.229735679522E+04    0.17454E-01   -0.13205E+00  4400   0.990E-01    0.390E-01
RMM:   2    -0.229737982237E+04   -0.23027E-01   -0.20259E-01  6207   0.223E-01    0.793E-01
RMM:   3    -0.229737557327E+04    0.42491E-02   -0.17438E-02  5652   0.682E-02    0.161E-01
RMM:   4    -0.229737549236E+04    0.80912E-04   -0.20208E-03  4432   0.169E-02    0.835E-02
RMM:   5    -0.229737542268E+04    0.69686E-04   -0.21368E-04  4031   0.106E-02    0.761E-02
RMM:   6    -0.229737536733E+04    0.55349E-04   -0.20064E-04  3878   0.106E-02    0.134E-02
RMM:   7    -0.229737536681E+04    0.51231E-06   -0.22360E-05  2859   0.556E-03
  41 F= -.23176479E+04 E0= -.23176479E+04  d E =-.204543E-02  mag=     3.0000
       N       E                     dE             d eps       ncg     rms          rms(c)
DAV:   1    -0.229736418837E+04    0.11179E-01   -0.11077E+00  4400   0.956E-01    0.341E-01
RMM:   2    -0.229738058416E+04   -0.16396E-01   -0.15150E-01  6055   0.205E-01    0.598E-01
RMM:   3    -0.229737847185E+04    0.21123E-02   -0.13340E-02  5546   0.651E-02    0.173E-01
RMM:   4    -0.229737830265E+04    0.16920E-03   -0.16210E-03  4465   0.170E-02    0.788E-02
RMM:   5    -0.229737821733E+04    0.85311E-04   -0.21802E-04  4261   0.120E-02    0.635E-02
RMM:   6    -0.229737818174E+04    0.35594E-04   -0.15912E-04  3948   0.103E-02    0.160E-02
RMM:   7    -0.229737817934E+04    0.23998E-05   -0.17086E-05  2848   0.578E-03
  42 F= -.23176503E+04 E0= -.23176503E+04  d E =-.247343E-02  mag=     3.0000
       N       E                     dE             d eps       ncg     rms          rms(c)
DAV:   1    -0.229737698925E+04    0.11925E-02   -0.11186E-01  4544   0.304E-01    0.110E-01
RMM:   2    -0.229737867794E+04   -0.16887E-02   -0.15513E-02  6043   0.660E-02    0.194E-01
RMM:   3    -0.229737844275E+04    0.23519E-03   -0.13635E-03  3721   0.209E-02    0.545E-02
RMM:   4    -0.229737842631E+04    0.16439E-04   -0.16881E-04  2953   0.645E-03    0.257E-02
RMM:   5    -0.229737841736E+04    0.89541E-05   -0.25970E-05  2873   0.467E-03
  43 F= -.23176505E+04 E0= -.23176505E+04  d E =-.260323E-02  mag=     3.0000
       N       E                     dE             d eps       ncg     rms          rms(c)
DAV:   1    -0.229737134875E+04    0.70776E-02   -0.58845E-01  4448   0.734E-01    0.258E-01
RMM:   2    -0.229738115909E+04   -0.98103E-02   -0.94057E-02  6167   0.156E-01    0.405E-01
RMM:   3    -0.229738046335E+04    0.69574E-03   -0.85850E-03  5434   0.518E-02    0.147E-01
RMM:   4    -0.229738033204E+04    0.13131E-03   -0.10385E-03  4241   0.135E-02    0.610E-02
RMM:   5    -0.229738027711E+04    0.54923E-04   -0.12197E-04  3856   0.911E-03    0.447E-02
RMM:   6    -0.229738025832E+04    0.18795E-04   -0.93151E-05  3549   0.815E-03    0.103E-02
RMM:   7    -0.229738025775E+04    0.57201E-06   -0.11772E-05  2837   0.530E-03
  44 F= -.23176521E+04 E0= -.23176521E+04  d E =-.162991E-02  mag=     3.0000
       N       E                     dE             d eps       ncg     rms          rms(c)
DAV:   1    -0.229737682482E+04    0.34335E-02   -0.25256E-01  4464   0.481E-01    0.169E-01
RMM:   2    -0.229738103718E+04   -0.42124E-02   -0.40404E-02  6034   0.102E-01    0.264E-01
RMM:   3    -0.229738074010E+04    0.29709E-03   -0.37721E-03  4598   0.365E-02    0.952E-02
RMM:   4    -0.229738068672E+04    0.53381E-04   -0.44812E-04  3239   0.925E-03    0.404E-02
RMM:   5    -0.229738066260E+04    0.24113E-04   -0.54848E-05  3090   0.641E-03    0.310E-02
RMM:   6    -0.229738065293E+04    0.96753E-05   -0.45005E-05  2932   0.648E-03
  45 F= -.23176524E+04 E0= -.23176524E+04  d E =-.188651E-02  mag=     3.0000
       N       E                     dE             d eps       ncg     rms          rms(c)
DAV:   1    -0.229737536896E+04    0.52936E-02   -0.40834E-01  4400   0.592E-01    0.194E-01
RMM:   2    -0.229738249169E+04   -0.71227E-02   -0.70668E-02  6062   0.124E-01    0.287E-01
RMM:   3    -0.229738241808E+04    0.73617E-04   -0.70118E-03  5002   0.456E-02    0.117E-01
RMM:   4    -0.229738236624E+04    0.51834E-04   -0.82034E-04  3251   0.105E-02    0.528E-02
RMM:   5    -0.229738232795E+04    0.38294E-04   -0.66543E-05  3001   0.629E-03    0.353E-02
RMM:   6    -0.229738231657E+04    0.11378E-04   -0.68829E-05  3095   0.676E-03    0.897E-03
RMM:   7    -0.229738231687E+04   -0.29884E-06   -0.98424E-06  2833   0.456E-03
  46 F= -.23176539E+04 E0= -.23176539E+04  d E =-.154110E-02  mag=     3.0000
       N       E                     dE             d eps       ncg     rms          rms(c)
DAV:   1    -0.229732983022E+04    0.52486E-01   -0.32342E+00  4384   0.167E+00    0.541E-01
RMM:   2    -0.229738577000E+04   -0.55940E-01   -0.55562E-01  6112   0.346E-01    0.798E-01
RMM:   3    -0.229738561749E+04    0.15251E-03   -0.56104E-02  5622   0.128E-01    0.336E-01
RMM:   4    -0.229738512608E+04    0.49141E-03   -0.63923E-03  4905   0.283E-02    0.149E-01
RMM:   5    -0.229738480066E+04    0.32542E-03   -0.53818E-04  4584   0.157E-02    0.947E-02
RMM:   6    -0.229738471643E+04    0.84231E-04   -0.47954E-04  4420   0.149E-02    0.241E-02
RMM:   7    -0.229738471525E+04    0.11790E-05   -0.48027E-05  2948   0.837E-03
  47 F= -.23176559E+04 E0= -.23176559E+04  d E =-.358491E-02  mag=     3.0000
       N       E                     dE             d eps       ncg     rms          rms(c)
DAV:   1    -0.229737998748E+04    0.47289E-02   -0.40151E-01  4464   0.579E-01    0.185E-01
RMM:   2    -0.229738640710E+04   -0.64196E-02   -0.66676E-02  6043   0.118E-01    0.208E-01
RMM:   3    -0.229738676612E+04   -0.35902E-03   -0.65236E-03  4814   0.440E-02    0.147E-01
RMM:   4    -0.229738663026E+04    0.13587E-03   -0.77160E-04  3224   0.105E-02    0.534E-02
RMM:   5    -0.229738659277E+04    0.37486E-04   -0.64539E-05  2920   0.632E-03    0.310E-02
RMM:   6    -0.229738658460E+04    0.81705E-05   -0.67959E-05  3274   0.639E-03
  48 F= -.23176577E+04 E0= -.23176577E+04  d E =-.180834E-02  mag=     3.0000
       N       E                     dE             d eps       ncg     rms          rms(c)
DAV:   1    -0.229733068613E+04    0.55907E-01   -0.36023E+00  4400   0.173E+00    0.549E-01
RMM:   2    -0.229738741367E+04   -0.56728E-01   -0.59179E-01  5953   0.349E-01    0.592E-01
RMM:   3    -0.229739136555E+04   -0.39519E-02   -0.61845E-02  5535   0.131E-01    0.450E-01
RMM:   4    -0.229739003716E+04    0.13284E-02   -0.68721E-03  5273   0.299E-02    0.161E-01
RMM:   5    -0.229738969686E+04    0.34030E-03   -0.61151E-04  4476   0.157E-02    0.935E-02
RMM:   6    -0.229738959956E+04    0.97299E-04   -0.53756E-04  4579   0.146E-02    0.538E-02
RMM:   7    -0.229738958093E+04    0.18634E-04   -0.90940E-05  3111   0.104E-02    0.174E-02
RMM:   8    -0.229738957580E+04    0.51257E-05   -0.15743E-05  2827   0.361E-03
  49 F= -.23176605E+04 E0= -.23176605E+04  d E =-.459990E-02  mag=     3.0000
       N       E                     dE             d eps       ncg     rms          rms(c)
DAV:   1    -0.229737520835E+04    0.14373E-01   -0.99085E-01  4448   0.875E-01    0.282E-01
RMM:   2    -0.229739156157E+04   -0.16353E-01   -0.17323E-01  6109   0.178E-01    0.264E-01
RMM:   3    -0.229739301583E+04   -0.14543E-02   -0.17298E-02  5321   0.699E-02    0.240E-01
RMM:   4    -0.229739265397E+04    0.36186E-03   -0.20530E-03  4047   0.157E-02    0.894E-02
RMM:   5    -0.229739256136E+04    0.92607E-04   -0.16376E-04  3145   0.847E-03    0.542E-02
RMM:   6    -0.229739252713E+04    0.34230E-04   -0.17808E-04  4016   0.887E-03    0.304E-02
RMM:   7    -0.229739252209E+04    0.50464E-05   -0.28908E-05  2840   0.694E-03
  50 F= -.23176634E+04 E0= -.23176634E+04  d E =-.287892E-02  mag=     3.0000
       N       E                     dE             d eps       ncg     rms          rms(c)
DAV:   1    -0.229724344761E+04    0.14908E+00   -0.86795E+00  4416   0.259E+00    0.832E-01
RMM:   2    -0.229738562950E+04   -0.14218E+00   -0.15137E+00  6153   0.529E-01    0.739E-01
RMM:   3    -0.229740053208E+04   -0.14903E-01   -0.16601E-01  5765   0.198E-01    0.725E-01
RMM:   4    -0.229739709086E+04    0.34412E-02   -0.17967E-02  5820   0.455E-02    0.269E-01
RMM:   5    -0.229739630690E+04    0.78396E-03   -0.16239E-03  4645   0.213E-02    0.166E-01
RMM:   6    -0.229739594944E+04    0.35746E-03   -0.13173E-03  4804   0.203E-02    0.879E-02
RMM:   7    -0.229739589985E+04    0.49592E-04   -0.34659E-04  4309   0.156E-02    0.334E-02
RMM:   8    -0.229739588236E+04    0.17493E-04   -0.50565E-05  2931   0.535E-03    0.210E-02
RMM:   9    -0.229739587463E+04    0.77307E-05   -0.19902E-05  2823   0.411E-03
  51 F= -.23176665E+04 E0= -.23176665E+04  d E =-.598302E-02  mag=     3.0000
       N       E                     dE             d eps       ncg     rms          rms(c)
DAV:   1    -0.229739010911E+04    0.57732E-02   -0.37683E-01  4576   0.524E-01    0.175E-01
RMM:   2    -0.229739696808E+04   -0.68590E-02   -0.71529E-02  6225   0.111E-01    0.194E-01
RMM:   3    -0.229739742879E+04   -0.46071E-03   -0.70727E-03  4636   0.421E-02    0.136E-01
RMM:   4    -0.229739732495E+04    0.10384E-03   -0.82622E-04  3132   0.988E-03    0.554E-02
RMM:   5    -0.229739728866E+04    0.36288E-04   -0.55224E-05  2863   0.536E-03    0.335E-02
RMM:   6    -0.229739727618E+04    0.12490E-04   -0.74515E-05  3195   0.557E-03    0.179E-02
RMM:   7    -0.229739727460E+04    0.15711E-05   -0.11022E-05  2815   0.442E-03
  52 F= -.23176678E+04 E0= -.23176678E+04  d E =-.129916E-02  mag=     3.0000
       N       E                     dE             d eps       ncg     rms          rms(c)
DAV:   1    -0.229733636911E+04    0.60907E-01   -0.33782E+00  4416   0.157E+00    0.523E-01
RMM:   2    -0.229739734851E+04   -0.60979E-01   -0.63982E-01  6274   0.331E-01    0.554E-01
RMM:   3    -0.229740231196E+04   -0.49634E-02   -0.66850E-02  5756   0.124E-01    0.428E-01
RMM:   4    -0.229740121442E+04    0.10975E-02   -0.75545E-03  5236   0.281E-02    0.168E-01
RMM:   5    -0.229740089049E+04    0.32393E-03   -0.59529E-04  3902   0.128E-02    0.101E-01
RMM:   6    -0.229740076650E+04    0.12399E-03   -0.54165E-04  4518   0.132E-02    0.553E-02
RMM:   7    -0.229740074967E+04    0.16827E-04   -0.10991E-04  3077   0.983E-03    0.191E-02
RMM:   8    -0.229740074379E+04    0.58807E-05   -0.15672E-05  2826   0.376E-03
  53 F= -.23176710E+04 E0= -.23176710E+04  d E =-.444754E-02  mag=     3.0000
       N       E                     dE             d eps       ncg     rms          rms(c)
DAV:   1    -0.229714394393E+04    0.25681E+00   -0.13499E+01  4416   0.315E+00    0.105E+00
RMM:   2    -0.229738732832E+04   -0.24338E+00   -0.25610E+00  6305   0.671E-01    0.109E+00
RMM:   3    -0.229741102001E+04   -0.23692E-01   -0.29080E-01  5987   0.240E-01    0.909E-01
RMM:   4    -0.229740570747E+04    0.53125E-02   -0.29875E-02  5802   0.557E-02    0.344E-01
RMM:   5    -0.229740443574E+04    0.12717E-02   -0.26421E-03  4706   0.247E-02    0.210E-01
RMM:   6    -0.229740388625E+04    0.54949E-03   -0.19379E-03  4856   0.227E-02    0.119E-01
RMM:   7    -0.229740380541E+04    0.80839E-04   -0.66143E-04  4411   0.188E-02    0.443E-02
RMM:   8    -0.229740377724E+04    0.28175E-04   -0.85878E-05  2999   0.642E-03    0.266E-02
RMM:   9    -0.229740376663E+04    0.10610E-04   -0.30647E-05  2833   0.462E-03    0.982E-03
RMM:  10    -0.229740376544E+04    0.11863E-05   -0.15444E-05  2840   0.273E-03
  54 F= -.23176733E+04 E0= -.23176733E+04  d E =-.674646E-02  mag=     3.0000
       N       E                     dE             d eps       ncg     rms          rms(c)
DAV:   1    -0.229737503623E+04    0.28730E-01   -0.16776E+00  4464   0.109E+00    0.402E-01
RMM:   2    -0.229740803235E+04   -0.32996E-01   -0.33744E-01  6215   0.244E-01    0.507E-01
RMM:   3    -0.229740945644E+04   -0.14241E-02   -0.34652E-02  5670   0.894E-02    0.282E-01
RMM:   4    -0.229740901600E+04    0.44044E-03   -0.39342E-03  4958   0.209E-02    0.121E-01
RMM:   5    -0.229740880969E+04    0.20632E-03   -0.31960E-04  3922   0.111E-02    0.676E-02
RMM:   6    -0.229740875831E+04    0.51372E-04   -0.28969E-04  4252   0.109E-02    0.311E-02
RMM:   7    -0.229740875297E+04    0.53389E-05   -0.34906E-05  2876   0.744E-03
  55 F= -.23176779E+04 E0= -.23176779E+04  d E =-.462663E-02  mag=     3.0000
       N       E                     dE             d eps       ncg     rms          rms(c)
DAV:   1    -0.229729487118E+04    0.11389E+00   -0.58117E+00  4416   0.203E+00    0.750E-01
RMM:   2    -0.229740915620E+04   -0.11429E+00   -0.11717E+00  6290   0.457E-01    0.941E-01
RMM:   3    -0.229741508566E+04   -0.59295E-02   -0.12645E-01  5985   0.163E-01    0.548E-01
RMM:   4    -0.229741336839E+04    0.17173E-02   -0.13698E-02  5543   0.392E-02    0.228E-01
RMM:   5    -0.229741266259E+04    0.70579E-03   -0.11865E-03  4769   0.196E-02    0.127E-01
RMM:   6    -0.229741248091E+04    0.18168E-03   -0.91428E-04  4792   0.178E-02    0.656E-02
RMM:   7    -0.229741245483E+04    0.26086E-04   -0.14246E-04  3516   0.114E-02    0.275E-02
RMM:   8    -0.229741244272E+04    0.12107E-04   -0.29324E-05  2831   0.441E-03    0.149E-02
RMM:   9    -0.229741243923E+04    0.34931E-05   -0.15449E-05  2837   0.316E-03
  56 F= -.23176809E+04 E0= -.23176809E+04  d E =-.761046E-02  mag=     3.0000
       N       E                     dE             d eps       ncg     rms          rms(c)
DAV:   1    -0.229738189054E+04    0.30552E-01   -0.17032E+00  4464   0.106E+00    0.420E-01
RMM:   2    -0.229741783123E+04   -0.35941E-01   -0.36039E-01  6297   0.249E-01    0.595E-01
RMM:   3    -0.229741847230E+04   -0.64107E-03   -0.38122E-02  5794   0.876E-02    0.261E-01
RMM:   4    -0.229741818471E+04    0.28759E-03   -0.41779E-03  4938   0.211E-02    0.126E-01
RMM:   5    -0.229741796852E+04    0.21619E-03   -0.32861E-04  4002   0.110E-02    0.736E-02
RMM:   6    -0.229741791772E+04    0.50799E-04   -0.27976E-04  4189   0.110E-02    0.256E-02
RMM:   7    -0.229741791467E+04    0.30532E-05   -0.28171E-05  2847   0.675E-03
  57 F= -.23176860E+04 E0= -.23176860E+04  d E =-.511561E-02  mag=     3.0000
       N       E                     dE             d eps       ncg     rms          rms(c)
DAV:   1    -0.229732829598E+04    0.89622E-01   -0.43927E+00  4416   0.171E+00    0.676E-01
RMM:   2    -0.229742083158E+04   -0.92536E-01   -0.93217E-01  6317   0.404E-01    0.934E-01
RMM:   3    -0.229742320032E+04   -0.23687E-02   -0.10065E-01  5945   0.142E-01    0.430E-01
RMM:   4    -0.229742236002E+04    0.84030E-03   -0.10637E-02  5414   0.339E-02    0.208E-01
RMM:   5    -0.229742179665E+04    0.56337E-03   -0.89608E-04  4694   0.172E-02    0.119E-01
RMM:   6    -0.229742166285E+04    0.13380E-03   -0.69846E-04  4670   0.163E-02    0.467E-02
RMM:   7    -0.229742165072E+04    0.12133E-04   -0.71962E-05  3034   0.932E-03    0.234E-02
RMM:   8    -0.229742164305E+04    0.76690E-05   -0.24427E-05  2836   0.401E-03
  58 F= -.23176891E+04 E0= -.23176891E+04  d E =-.824393E-02  mag=     3.0000
       N       E                     dE             d eps       ncg     rms          rms(c)
DAV:   1    -0.229740721972E+04    0.14431E-01   -0.95711E-01  4448   0.826E-01    0.322E-01
RMM:   2    -0.229742656742E+04   -0.19348E-01   -0.18974E-01  6207   0.194E-01    0.494E-01
RMM:   3    -0.229742620519E+04    0.36222E-03   -0.19348E-02  5600   0.686E-02    0.174E-01
RMM:   4    -0.229742610770E+04    0.97492E-04   -0.22156E-03  4655   0.170E-02    0.966E-02
RMM:   5    -0.229742598449E+04    0.12321E-03   -0.20838E-04  4012   0.105E-02    0.587E-02
RMM:   6    -0.229742595759E+04    0.26903E-04   -0.17030E-04  3963   0.959E-03    0.146E-02
RMM:   7    -0.229742595590E+04    0.16859E-05   -0.20456E-05  2859   0.608E-03
  59 F= -.23176932E+04 E0= -.23176932E+04  d E =-.403977E-02  mag=     3.0000
       N       E                     dE             d eps       ncg     rms          rms(c)
DAV:   1    -0.229739143299E+04    0.34525E-01   -0.18799E+00  4384   0.116E+00    0.450E-01
RMM:   2    -0.229742929649E+04   -0.37864E-01   -0.37223E-01  6234   0.274E-01    0.682E-01
RMM:   3    -0.229742880237E+04    0.49412E-03   -0.38661E-02  5789   0.953E-02    0.247E-01
RMM:   4    -0.229742859588E+04    0.20649E-03   -0.43711E-03  4945   0.238E-02    0.138E-01
RMM:   5    -0.229742834306E+04    0.25282E-03   -0.42040E-04  4497   0.144E-02    0.844E-02
RMM:   6    -0.229742828109E+04    0.61966E-04   -0.34522E-04  4312   0.128E-02    0.217E-02
RMM:   7    -0.229742827544E+04    0.56515E-05   -0.41020E-05  2886   0.778E-03
  60 F= -.23176951E+04 E0= -.23176951E+04  d E =-.596979E-02  mag=     3.0000
       N       E                     dE             d eps       ncg     rms          rms(c)
DAV:   1    -0.229741708280E+04    0.11198E-01   -0.86210E-01  4416   0.793E-01    0.290E-01
RMM:   2    -0.229743272170E+04   -0.15639E-01   -0.15209E-01  6236   0.177E-01    0.457E-01
RMM:   3    -0.229743228014E+04    0.44156E-03   -0.15442E-02  5486   0.616E-02    0.149E-01
RMM:   4    -0.229743223321E+04    0.46933E-04   -0.17738E-03  4305   0.147E-02    0.876E-02
RMM:   5    -0.229743214274E+04    0.90461E-04   -0.16035E-04  3649   0.902E-03    0.572E-02
RMM:   6    -0.229743212277E+04    0.19976E-04   -0.14520E-04  3595   0.877E-03    0.134E-02
RMM:   7    -0.229743212207E+04    0.70166E-06   -0.18448E-05  2853   0.525E-03
  61 F= -.23176986E+04 E0= -.23176986E+04  d E =-.354144E-02  mag=     3.0000
       N       E                     dE             d eps       ncg     rms          rms(c)
DAV:   1    -0.229730340410E+04    0.12872E+00   -0.77640E+00  4384   0.237E+00    0.866E-01
RMM:   2    -0.229744387825E+04   -0.14047E+00   -0.13603E+00  6281   0.528E-01    0.140E+00
RMM:   3    -0.229743998626E+04    0.38920E-02   -0.14579E-01  5944   0.182E-01    0.458E-01
RMM:   4    -0.229743937616E+04    0.61010E-03   -0.15719E-02  5205   0.432E-02    0.276E-01
RMM:   5    -0.229743856854E+04    0.80762E-03   -0.14985E-03  5041   0.244E-02    0.187E-01
RMM:   6    -0.229743832900E+04    0.23954E-03   -0.13875E-03  4772   0.227E-02    0.467E-02
RMM:   7    -0.229743830789E+04    0.21108E-04   -0.14580E-04  3371   0.113E-02    0.310E-02
RMM:   8    -0.229743829721E+04    0.10682E-04   -0.34730E-05  2835   0.440E-03    0.122E-02
RMM:   9    -0.229743829660E+04    0.61441E-06   -0.12218E-05  2823   0.273E-03
  62 F= -.23177039E+04 E0= -.23177039E+04  d E =-.879199E-02  mag=     3.0000
       N       E                     dE             d eps       ncg     rms          rms(c)
DAV:   1    -0.229742436727E+04    0.13930E-01   -0.12273E+00  4416   0.935E-01    0.326E-01
RMM:   2    -0.229744452272E+04   -0.20155E-01   -0.19529E-01  6253   0.203E-01    0.529E-01
RMM:   3    -0.229744383068E+04    0.69204E-03   -0.19255E-02  5569   0.683E-02    0.172E-01
RMM:   4    -0.229744377713E+04    0.53546E-04   -0.22863E-03  4513   0.169E-02    0.111E-01
RMM:   5    -0.229744364180E+04    0.13534E-03   -0.23135E-04  3965   0.105E-02    0.660E-02
RMM:   6    -0.229744361642E+04    0.25374E-04   -0.18799E-04  3784   0.988E-03    0.156E-02
RMM:   7    -0.229744361491E+04    0.15156E-05   -0.22688E-05  2854   0.549E-03
  63 F= -.23177089E+04 E0= -.23177089E+04  d E =-.505630E-02  mag=     3.0000
       N       E                     dE             d eps       ncg     rms          rms(c)
DAV:   1    -0.229727823984E+04    0.16538E+00   -0.11039E+01  4384   0.280E+00    0.982E-01
RMM:   2    -0.229746097004E+04   -0.18273E+00   -0.17677E+00  6285   0.613E-01    0.159E+00
RMM:   3    -0.229745489543E+04    0.60746E-02   -0.18608E-01  5953   0.207E-01    0.541E-01
RMM:   4    -0.229745417147E+04    0.72396E-03   -0.20487E-02  5228   0.504E-02    0.350E-01
RMM:   5    -0.229745297993E+04    0.11915E-02   -0.22155E-03  5073   0.289E-02    0.222E-01
RMM:   6    -0.229745264969E+04    0.33025E-03   -0.18817E-03  4769   0.270E-02    0.575E-02
RMM:   7    -0.229745262995E+04    0.19736E-04   -0.19837E-04  3716   0.128E-02    0.400E-02
RMM:   8    -0.229745261505E+04    0.14900E-04   -0.49904E-05  2843   0.489E-03    0.160E-02
RMM:   9    -0.229745261691E+04   -0.18584E-05   -0.15779E-05  2843   0.309E-03
  64 F= -.23177172E+04 E0= -.23177172E+04  d E =-.132814E-01  mag=     3.0000
       N       E                     dE             d eps       ncg     rms          rms(c)
DAV:   1    -0.229743596783E+04    0.16647E-01   -0.11182E+00  4432   0.891E-01    0.318E-01
RMM:   2    -0.229745450736E+04   -0.18540E-01   -0.17722E-01  6264   0.194E-01    0.527E-01
RMM:   3    -0.229745363273E+04    0.87463E-03   -0.17493E-02  5550   0.646E-02    0.166E-01
RMM:   4    -0.229745358535E+04    0.47377E-04   -0.20790E-03  4445   0.163E-02    0.111E-01
RMM:   5    -0.229745346025E+04    0.12510E-03   -0.23188E-04  4003   0.104E-02    0.694E-02
RMM:   6    -0.229745343604E+04    0.24206E-04   -0.16806E-04  3591   0.950E-03    0.168E-02
RMM:   7    -0.229745343466E+04    0.13802E-05   -0.21206E-05  2851   0.517E-03
  65 F= -.23177177E+04 E0= -.23177177E+04  d E =-.138560E-01  mag=     3.0000
       N       E                     dE             d eps       ncg     rms          rms(c)
DAV:   1    -0.229744060412E+04    0.12832E-01   -0.10885E+00  4384   0.848E-01    0.311E-01
RMM:   2    -0.229745878339E+04   -0.18179E-01   -0.17529E-01  6288   0.186E-01    0.503E-01
RMM:   3    -0.229745811862E+04    0.66477E-03   -0.16548E-02  5495   0.622E-02    0.174E-01
RMM:   4    -0.229745803352E+04    0.85099E-04   -0.19136E-03  4076   0.153E-02    0.114E-01
RMM:   5    -0.229745790905E+04    0.12447E-03   -0.22866E-04  3845   0.951E-03    0.665E-02
RMM:   6    -0.229745788941E+04    0.19645E-04   -0.14941E-04  3256   0.896E-03    0.175E-02
RMM:   7    -0.229745788848E+04    0.93004E-06   -0.20730E-05  2849   0.498E-03
  66 F= -.23177220E+04 E0= -.23177220E+04  d E =-.425967E-02  mag=     3.0000
       N       E                     dE             d eps       ncg     rms          rms(c)
DAV:   1    -0.229731328537E+04    0.14460E+00   -0.97872E+00  4384   0.254E+00    0.939E-01
RMM:   2    -0.229747828226E+04   -0.16500E+00   -0.15844E+00  6322   0.563E-01    0.151E+00
RMM:   3    -0.229747236375E+04    0.59185E-02   -0.16729E-01  5983   0.189E-01    0.553E-01
RMM:   4    -0.229747141348E+04    0.95027E-03   -0.17951E-02  5341   0.447E-02    0.335E-01
RMM:   5    -0.229747033219E+04    0.10813E-02   -0.21545E-03  4911   0.250E-02    0.215E-01
RMM:   6    -0.229747006052E+04    0.27168E-03   -0.17850E-03  4795   0.250E-02    0.639E-02
RMM:   7    -0.229747003682E+04    0.23693E-04   -0.17537E-04  3316   0.102E-02    0.389E-02
RMM:   8    -0.229747002269E+04    0.14135E-04   -0.45467E-05  2839   0.488E-03    0.197E-02
RMM:   9    -0.229747002631E+04   -0.36248E-05   -0.16261E-05  2841   0.306E-03
  67 F= -.23177336E+04 E0= -.23177336E+04  d E =-.158298E-01  mag=     3.0000
       N       E                     dE             d eps       ncg     rms          rms(c)
DAV:   1    -0.229685111226E+04    0.61891E+00   -0.39071E+01  4384   0.507E+00    0.192E+00
RMM:   2    -0.229753228516E+04   -0.68117E+00   -0.64810E+00  6369   0.114E+00    0.305E+00
RMM:   3    -0.229750027089E+04    0.32014E-01   -0.71185E-01  6104   0.372E-01    0.123E+00
RMM:   4    -0.229749421211E+04    0.60588E-02   -0.72958E-02  5549   0.892E-02    0.648E-01
RMM:   5    -0.229749044545E+04    0.37667E-02   -0.90294E-03  4850   0.462E-02    0.447E-01
RMM:   6    -0.229748875183E+04    0.16936E-02   -0.92495E-03  5049   0.529E-02    0.146E-01
RMM:   7    -0.229748868880E+04    0.63034E-04   -0.78132E-04  4812   0.221E-02    0.853E-02
RMM:   8    -0.229748864031E+04    0.48491E-04   -0.19092E-04  3216   0.734E-03    0.523E-02
RMM:   9    -0.229748864091E+04   -0.60780E-06   -0.72755E-05  2882   0.541E-03
  68 F= -.23177511E+04 E0= -.23177511E+04  d E =-.333890E-01  mag=     3.0000
       N       E                     dE             d eps       ncg     rms          rms(c)
DAV:   1    -0.229473130840E+04    0.27573E+01   -0.15391E+02  4384   0.101E+01    0.395E+00
RMM:   2    -0.229778643034E+04   -0.30551E+01   -0.28410E+01  6439   0.241E+00    0.648E+00
RMM:   3    -0.229749747035E+04    0.28896E+00   -0.29382E+00  6209   0.752E-01    0.243E+00
RMM:   4    -0.229746992503E+04    0.27545E-01   -0.32246E-01  5771   0.178E-01    0.128E+00
RMM:   5    -0.229745630320E+04    0.13622E-01   -0.27975E-02  4871   0.779E-02    0.932E-01
RMM:   6    -0.229744658384E+04    0.97194E-02   -0.42294E-02  5100   0.102E-01    0.369E-01
RMM:   7    -0.229744602895E+04    0.55489E-03   -0.51783E-03  5231   0.506E-02    0.159E-01
RMM:   8    -0.229744582374E+04    0.20521E-03   -0.94829E-04  4471   0.178E-02    0.751E-02
RMM:   9    -0.229744586227E+04   -0.38530E-04   -0.21215E-04  3797   0.112E-02    0.345E-02
RMM:  10    -0.229744589563E+04   -0.33359E-04   -0.43261E-05  2966   0.546E-03    0.303E-02
RMM:  11    -0.229744592824E+04   -0.32604E-04   -0.34301E-05  2864   0.489E-03    0.981E-03
RMM:  12    -0.229744595419E+04   -0.25951E-04   -0.14368E-05  2836   0.408E-03    0.768E-03
RMM:  13    -0.229744596683E+04   -0.12646E-04   -0.59441E-06  2792   0.328E-03    0.426E-03
RMM:  14    -0.229744598082E+04   -0.13981E-04   -0.57308E-06  2786   0.256E-03    0.246E-03
RMM:  15    -0.229744599069E+04   -0.98708E-05   -0.46284E-06  2776   0.261E-03
  69 F= -.23177067E+04 E0= -.23177067E+04  d E =0.110057E-01  mag=     3.0000
       N       E                     dE             d eps       ncg     rms          rms(c)
DAV:   1    -0.229560905695E+04    0.18369E+01   -0.11470E+02  4384   0.867E+00    0.355E+00
RMM:   2    -0.229767650785E+04   -0.20675E+01   -0.19082E+01  6390   0.194E+00    0.632E+00
RMM:   3    -0.229752939307E+04    0.14711E+00   -0.20905E+00  6130   0.661E-01    0.207E+00
RMM:   4    -0.229750244666E+04    0.26946E-01   -0.19091E-01  4995   0.145E-01    0.921E-01
RMM:   5    -0.229749503847E+04    0.74082E-02   -0.19054E-02  5111   0.792E-02    0.634E-01
RMM:   6    -0.229749150120E+04    0.35373E-02   -0.12364E-02  5025   0.633E-02    0.252E-01
RMM:   7    -0.229749127383E+04    0.22737E-03   -0.29007E-03  5165   0.365E-02    0.120E-01
RMM:   8    -0.229749138978E+04   -0.11595E-03   -0.58869E-04  4518   0.145E-02    0.859E-02
RMM:   9    -0.229749136532E+04    0.24454E-04   -0.15825E-04  3236   0.107E-02    0.395E-02
RMM:  10    -0.229749135446E+04    0.10865E-04   -0.97406E-05  3169   0.604E-03    0.167E-02
RMM:  11    -0.229749135835E+04   -0.38981E-05   -0.23750E-05  2832   0.454E-03
  70 F= -.23177536E+04 E0= -.23177536E+04  d E =-.358292E-01  mag=     3.0000
       N       E                     dE             d eps       ncg     rms          rms(c)
DAV:   1    -0.229744809085E+04    0.43264E-01   -0.28433E+00  4384   0.136E+00    0.537E-01
RMM:   2    -0.229749725924E+04   -0.49168E-01   -0.45671E-01  6370   0.297E-01    0.919E-01
RMM:   3    -0.229749289905E+04    0.43602E-02   -0.43924E-02  5918   0.977E-02    0.312E-01
RMM:   4    -0.229749247928E+04    0.41977E-03   -0.50041E-03  4758   0.235E-02    0.152E-01
RMM:   5    -0.229749222578E+04    0.25350E-03   -0.53851E-04  4385   0.134E-02    0.109E-01
RMM:   6    -0.229749214171E+04    0.84074E-04   -0.45512E-04  4204   0.133E-02    0.351E-02
RMM:   7    -0.229749213291E+04    0.87979E-05   -0.48276E-05  2857   0.594E-03
  71 F= -.23177541E+04 E0= -.23177541E+04  d E =-.363504E-01  mag=     3.0000
       N       E                     dE             d eps       ncg     rms          rms(c)
DAV:   1    -0.229748594800E+04    0.61937E-02   -0.56769E-01  4448   0.582E-01    0.240E-01
RMM:   2    -0.229749588896E+04   -0.99410E-02   -0.94020E-02  6364   0.130E-01    0.390E-01
RMM:   3    -0.229749524487E+04    0.64409E-03   -0.89522E-03  5134   0.431E-02    0.150E-01
RMM:   4    -0.229749515151E+04    0.93362E-04   -0.10390E-03  3071   0.108E-02    0.698E-02
RMM:   5    -0.229749509751E+04    0.53996E-04   -0.10750E-04  3062   0.646E-03    0.471E-02
RMM:   6    -0.229749508499E+04    0.12518E-04   -0.84616E-05  2859   0.679E-03    0.158E-02
RMM:   7    -0.229749508370E+04    0.12946E-05   -0.12093E-05  2836   0.414E-03
  72 F= -.23177570E+04 E0= -.23177570E+04  d E =-.286555E-02  mag=     3.0000
       N       E                     dE             d eps       ncg     rms          rms(c)
DAV:   1    -0.229742023038E+04    0.74855E-01   -0.51078E+00  4384   0.175E+00    0.718E-01
RMM:   2    -0.229751064770E+04   -0.90417E-01   -0.84999E-01  6408   0.391E-01    0.121E+00
RMM:   3    -0.229750367276E+04    0.69749E-02   -0.81749E-02  6028   0.128E-01    0.437E-01
RMM:   4    -0.229750278194E+04    0.89082E-03   -0.90570E-03  5119   0.308E-02    0.203E-01
RMM:   5    -0.229750234832E+04    0.43362E-03   -0.95149E-04  4570   0.159E-02    0.140E-01
RMM:   6    -0.229750219963E+04    0.14869E-03   -0.83347E-04  4560   0.166E-02    0.463E-02
RMM:   7    -0.229750218579E+04    0.13834E-04   -0.88547E-05  2882   0.692E-03    0.206E-02
RMM:   8    -0.229750218337E+04    0.24197E-05   -0.15932E-05  2824   0.367E-03
  73 F= -.23177638E+04 E0= -.23177638E+04  d E =-.971938E-02  mag=     3.0000
       N       E                     dE             d eps       ncg     rms          rms(c)
DAV:   1    -0.229717470834E+04    0.32748E+00   -0.20409E+01  4384   0.350E+00    0.143E+00
RMM:   2    -0.229753594062E+04   -0.36123E+00   -0.34049E+00  6410   0.794E-01    0.236E+00
RMM:   3    -0.229751065169E+04    0.25289E-01   -0.36904E-01  6147   0.266E-01    0.864E-01
RMM:   4    -0.229750693254E+04    0.37192E-02   -0.38502E-02  5627   0.629E-02    0.402E-01
RMM:   5    -0.229750528254E+04    0.16500E-02   -0.34919E-03  4842   0.282E-02    0.281E-01
RMM:   6    -0.229750458167E+04    0.70087E-03   -0.41109E-03  5107   0.336E-02    0.906E-02
RMM:   7    -0.229750452068E+04    0.60984E-04   -0.39793E-04  4074   0.141E-02    0.410E-02
RMM:   8    -0.229750450990E+04    0.10783E-04   -0.67416E-05  2839   0.533E-03    0.207E-02
RMM:   9    -0.229750451432E+04   -0.44215E-05   -0.20688E-05  2830   0.317E-03
  74 F= -.23177657E+04 E0= -.23177657E+04  d E =-.115983E-01  mag=     3.0000
       N       E                     dE             d eps       ncg     rms          rms(c)
DAV:   1    -0.229744608841E+04    0.58421E-01   -0.38369E+00  4384   0.151E+00    0.620E-01
RMM:   2    -0.229751230680E+04   -0.66218E-01   -0.61816E-01  6389   0.331E-01    0.107E+00
RMM:   3    -0.229750669444E+04    0.56124E-02   -0.56323E-02  5952   0.109E-01    0.343E-01
RMM:   4    -0.229750621417E+04    0.48027E-03   -0.63902E-03  4774   0.258E-02    0.160E-01
RMM:   5    -0.229750592576E+04    0.28841E-03   -0.63160E-04  4420   0.144E-02    0.121E-01
RMM:   6    -0.229750582489E+04    0.10088E-03   -0.43985E-04  4094   0.131E-02    0.291E-02
RMM:   7    -0.229750582328E+04    0.16043E-05   -0.54960E-05  2870   0.588E-03
  75 F= -.23177672E+04 E0= -.23177672E+04  d E =-.130968E-01  mag=     3.0000
       N       E                     dE             d eps       ncg     rms          rms(c)
DAV:   1    -0.229751295021E+04   -0.71253E-02   -0.13867E-01  4480   0.302E-01    0.134E-01
RMM:   2    -0.229751506058E+04   -0.21104E-02   -0.21715E-02  6178   0.692E-02    0.134E-01
RMM:   3    -0.229751516610E+04   -0.10553E-03   -0.20973E-03  3716   0.255E-02    0.120E-01
RMM:   4    -0.229751504394E+04    0.12216E-03   -0.23804E-04  2913   0.821E-03    0.347E-02
RMM:   5    -0.229751502436E+04    0.19582E-04   -0.63636E-05  3035   0.622E-03    0.169E-02
RMM:   6    -0.229751502151E+04    0.28528E-05   -0.18534E-05  2840   0.540E-03
  76 F= -.23177764E+04 E0= -.23177764E+04  d E =-.926151E-02  mag=     3.0000
       N       E                     dE             d eps       ncg     rms          rms(c)
DAV:   1    -0.229751912253E+04   -0.40982E-02   -0.12467E+00  4384   0.907E-01    0.407E-01
RMM:   2    -0.229753807923E+04   -0.18957E-01   -0.19765E-01  6088   0.207E-01    0.380E-01
RMM:   3    -0.229753926587E+04   -0.11866E-02   -0.19580E-02  5591   0.736E-02    0.368E-01
RMM:   4    -0.229753816360E+04    0.11023E-02   -0.22907E-03  5214   0.208E-02    0.106E-01
RMM:   5    -0.229753800035E+04    0.16325E-03   -0.52966E-04  4633   0.145E-02    0.573E-02
RMM:   6    -0.229753796359E+04    0.36764E-04   -0.15430E-04  4212   0.975E-03    0.324E-02
RMM:   7    -0.229753795252E+04    0.11069E-04   -0.29452E-05  2887   0.626E-03    0.106E-02
RMM:   8    -0.229753794914E+04    0.33745E-05   -0.98546E-06  2819   0.362E-03
  77 F= -.23177996E+04 E0= -.23177996E+04  d E =-.323780E-01  mag=     3.0000
       N       E                     dE             d eps       ncg     rms          rms(c)
DAV:   1    -0.229748737385E+04    0.50579E-01   -0.49857E+00  4384   0.181E+00    0.813E-01
RMM:   2    -0.229756293157E+04   -0.75558E-01   -0.78986E-01  6148   0.418E-01    0.749E-01
RMM:   3    -0.229756802364E+04   -0.50921E-02   -0.85282E-02  5827   0.150E-01    0.722E-01
RMM:   4    -0.229756373590E+04    0.42877E-02   -0.92182E-03  5705   0.409E-02    0.212E-01
RMM:   5    -0.229756307400E+04    0.66190E-03   -0.21434E-03  4980   0.277E-02    0.116E-01
RMM:   6    -0.229756292213E+04    0.15187E-03   -0.65671E-04  4883   0.182E-02    0.655E-02
RMM:   7    -0.229756287790E+04    0.44231E-04   -0.12846E-04  3969   0.102E-02    0.230E-02
RMM:   8    -0.229756286231E+04    0.15585E-04   -0.32119E-05  2893   0.517E-03    0.117E-02
RMM:   9    -0.229756285410E+04    0.82193E-05   -0.17089E-05  2862   0.400E-03
  78 F= -.23178248E+04 E0= -.23178248E+04  d E =-.576541E-01  mag=     3.0000
       N       E                     dE             d eps       ncg     rms          rms(c)
DAV:   1    -0.229755237308E+04    0.10489E-01   -0.84170E-01  4480   0.746E-01    0.334E-01
RMM:   2    -0.229756513124E+04   -0.12758E-01   -0.13308E-01  6138   0.171E-01    0.318E-01
RMM:   3    -0.229756584690E+04   -0.71566E-03   -0.13168E-02  5547   0.606E-02    0.292E-01
RMM:   4    -0.229756514158E+04    0.70532E-03   -0.15057E-03  4929   0.172E-02    0.855E-02
RMM:   5    -0.229756503089E+04    0.11068E-03   -0.34496E-04  4245   0.124E-02    0.463E-02
RMM:   6    -0.229756500362E+04    0.27267E-04   -0.11231E-04  3948   0.882E-03    0.255E-02
RMM:   7    -0.229756499645E+04    0.71711E-05   -0.22781E-05  2847   0.618E-03
  79 F= -.23178271E+04 E0= -.23178271E+04  d E =-.599454E-01  mag=     3.0000
       N       E                     dE             d eps       ncg     rms          rms(c)
DAV:   1    -0.229757066810E+04   -0.56645E-02   -0.56333E-01  4416   0.610E-01    0.255E-01
RMM:   2    -0.229757858123E+04   -0.79131E-02   -0.84832E-02  6149   0.132E-01    0.145E-01
RMM:   3    -0.229757949850E+04   -0.91727E-03   -0.10390E-02  5457   0.534E-02    0.179E-01
RMM:   4    -0.229757931020E+04    0.18830E-03   -0.11075E-03  3208   0.128E-02    0.103E-01
RMM:   5    -0.229757921937E+04    0.90825E-04   -0.23424E-04  3199   0.884E-03    0.449E-02
RMM:   6    -0.229757920363E+04    0.15749E-04   -0.93518E-05  3327   0.728E-03    0.179E-02
RMM:   7    -0.229757920345E+04    0.17710E-06   -0.20713E-05  2844   0.550E-03
  80 F= -.23178417E+04 E0= -.23178417E+04  d E =-.145931E-01  mag=     3.0000
       N       E                     dE             d eps       ncg     rms          rms(c)
DAV:   1    -0.229752997834E+04    0.49225E-01   -0.50544E+00  4384   0.183E+00    0.766E-01
RMM:   2    -0.229760141294E+04   -0.71435E-01   -0.76767E-01  6120   0.397E-01    0.438E-01
RMM:   3    -0.229760962488E+04   -0.82119E-02   -0.95195E-02  5692   0.163E-01    0.528E-01
RMM:   4    -0.229760799014E+04    0.16347E-02   -0.10148E-02  5686   0.373E-02    0.312E-01
RMM:   5    -0.229760712332E+04    0.86682E-03   -0.21008E-03  5127   0.220E-02    0.137E-01
RMM:   6    -0.229760694212E+04    0.18120E-03   -0.91363E-04  4952   0.160E-02    0.611E-02
RMM:   7    -0.229760690284E+04    0.39281E-04   -0.18246E-04  4103   0.110E-02    0.294E-02
RMM:   8    -0.229760689521E+04    0.76341E-05   -0.55027E-05  3029   0.572E-03
  81 F= -.23178706E+04 E0= -.23178706E+04  d E =-.434216E-01  mag=     3.0000
       N       E                     dE             d eps       ncg     rms          rms(c)
DAV:   1    -0.229728424131E+04    0.32266E+00   -0.20135E+01  4384   0.366E+00    0.152E+00
RMM:   2    -0.229757338948E+04   -0.28915E+00   -0.31167E+00  6166   0.805E-01    0.901E-01
RMM:   3    -0.229760876413E+04   -0.35375E-01   -0.41040E-01  5842   0.321E-01    0.112E+00
RMM:   4    -0.229759967082E+04    0.90933E-02   -0.40306E-02  6089   0.750E-02    0.581E-01
RMM:   5    -0.229759675119E+04    0.29196E-02   -0.91248E-03  5466   0.417E-02    0.282E-01
RMM:   6    -0.229759589265E+04    0.85854E-03   -0.38039E-03  4885   0.309E-02    0.139E-01
RMM:   7    -0.229759570842E+04    0.18423E-03   -0.86730E-04  4912   0.233E-02    0.636E-02
RMM:   8    -0.229759567287E+04    0.35554E-04   -0.25638E-04  4271   0.106E-02    0.254E-02
RMM:   9    -0.229759567039E+04    0.24751E-05   -0.54506E-05  3052   0.710E-03
  82 F= -.23178615E+04 E0= -.23178615E+04  d E =-.343428E-01  mag=     3.0000
       N       E                     dE             d eps       ncg     rms          rms(c)
DAV:   1    -0.229750236212E+04    0.93311E-01   -0.72550E+00  4384   0.219E+00    0.902E-01
RMM:   2    -0.229760603913E+04   -0.10368E+00   -0.11140E+00  6154   0.467E-01    0.530E-01
RMM:   3    -0.229761731624E+04   -0.11277E-01   -0.12195E-01  5824   0.180E-01    0.678E-01
RMM:   4    -0.229761413448E+04    0.31818E-02   -0.13537E-02  5940   0.442E-02    0.327E-01
RMM:   5    -0.229761309508E+04    0.10394E-02   -0.22238E-03  4634   0.245E-02    0.139E-01
RMM:   6    -0.229761294830E+04    0.14678E-03   -0.70956E-04  4940   0.189E-02    0.387E-02
RMM:   7    -0.229761296032E+04   -0.12015E-04   -0.75310E-05  4131   0.791E-03    0.218E-02
RMM:   8    -0.229761296210E+04   -0.17873E-05   -0.19420E-05  2862   0.419E-03
  83 F= -.23178775E+04 E0= -.23178775E+04  d E =-.503714E-01  mag=     3.0000
       N       E                     dE             d eps       ncg     rms          rms(c)
DAV:   1    -0.229760483177E+04    0.81285E-02   -0.23564E+00  4384   0.131E+00    0.458E-01
RMM:   2    -0.229763344524E+04   -0.28613E-01   -0.29277E-01  6054   0.262E-01    0.458E-01
RMM:   3    -0.229763530701E+04   -0.18618E-02   -0.33475E-02  5750   0.102E-01    0.370E-01
RMM:   4    -0.229763419621E+04    0.11108E-02   -0.37044E-03  5138   0.260E-02    0.164E-01
RMM:   5    -0.229763390613E+04    0.29008E-03   -0.97757E-04  4945   0.185E-02    0.719E-02
RMM:   6    -0.229763387533E+04    0.30807E-04   -0.26960E-04  4484   0.109E-02    0.302E-02
RMM:   7    -0.229763387179E+04    0.35337E-05   -0.47160E-05  2959   0.639E-03
  84 F= -.23178990E+04 E0= -.23178990E+04  d E =-.215021E-01  mag=     3.0000
       N       E                     dE             d eps       ncg     rms          rms(c)
DAV:   1    -0.229738080091E+04    0.25307E+00   -0.21110E+01  4384   0.393E+00    0.137E+00
RMM:   2    -0.229764419624E+04   -0.26340E+00   -0.26831E+00  6133   0.801E-01    0.147E+00
RMM:   3    -0.229765607246E+04   -0.11876E-01   -0.33185E-01  5942   0.296E-01    0.103E+00
RMM:   4    -0.229764736834E+04    0.87041E-02   -0.32919E-02  5238   0.764E-02    0.464E-01
RMM:   5    -0.229764508186E+04    0.22865E-02   -0.85720E-03  5184   0.540E-02    0.227E-01
RMM:   6    -0.229764486175E+04    0.22011E-03   -0.29846E-03  5083   0.319E-02    0.103E-01
RMM:   7    -0.229764481797E+04    0.43776E-04   -0.53717E-04  4531   0.184E-02    0.622E-02
RMM:   8    -0.229764483697E+04   -0.18999E-04   -0.23111E-04  3771   0.932E-03    0.207E-02
RMM:   9    -0.229764486045E+04   -0.23477E-04   -0.42309E-05  2979   0.579E-03    0.133E-02
RMM:  10    -0.229764487630E+04   -0.15852E-04   -0.21286E-05  2917   0.431E-03    0.703E-03
RMM:  11    -0.229764488721E+04   -0.10911E-04   -0.13655E-05  2825   0.434E-03    0.484E-03
RMM:  12    -0.229764489109E+04   -0.38758E-05   -0.74655E-06  2795   0.363E-03
  85 F= -.23179117E+04 E0= -.23179117E+04  d E =-.341827E-01  mag=     3.0000
       N       E                     dE             d eps       ncg     rms          rms(c)
DAV:   1    -0.229762070117E+04    0.24186E-01   -0.23868E+00  4384   0.132E+00    0.451E-01
RMM:   2    -0.229764952905E+04   -0.28828E-01   -0.29829E-01  6082   0.261E-01    0.422E-01
RMM:   3    -0.229765153800E+04   -0.20089E-02   -0.27550E-02  5791   0.921E-02    0.402E-01
RMM:   4    -0.229765016501E+04    0.13730E-02   -0.36358E-03  5246   0.258E-02    0.148E-01
RMM:   5    -0.229764990414E+04    0.26087E-03   -0.77329E-04  4813   0.172E-02    0.644E-02
RMM:   6    -0.229764988939E+04    0.14752E-04   -0.16335E-04  4247   0.111E-02    0.200E-02
RMM:   7    -0.229764989135E+04   -0.19662E-05   -0.26902E-05  2914   0.527E-03
  86 F= -.23179162E+04 E0= -.23179162E+04  d E =-.386471E-01  mag=     3.0000
       N       E                     dE             d eps       ncg     rms          rms(c)
DAV:   1    -0.229762966898E+04    0.20220E-01   -0.34054E+00  4384   0.175E+00    0.545E-01
RMM:   2    -0.229766737267E+04   -0.37704E-01   -0.39728E-01  5961   0.326E-01    0.415E-01
RMM:   3    -0.229767137748E+04   -0.40048E-02   -0.46068E-02  5604   0.135E-01    0.476E-01
RMM:   4    -0.229766942467E+04    0.19528E-02   -0.48799E-03  5530   0.306E-02    0.171E-01
RMM:   5    -0.229766912117E+04    0.30350E-03   -0.10937E-03  4854   0.194E-02    0.872E-02
RMM:   6    -0.229766904091E+04    0.80262E-04   -0.46640E-04  4844   0.140E-02    0.392E-02
RMM:   7    -0.229766902510E+04    0.15812E-04   -0.77528E-05  3259   0.891E-03    0.181E-02
RMM:   8    -0.229766902158E+04    0.35153E-05   -0.19567E-05  2819   0.429E-03
  87 F= -.23179355E+04 E0= -.23179355E+04  d E =-.193543E-01  mag=     3.0000
       N       E                     dE             d eps       ncg     rms          rms(c)
DAV:   1    -0.229757409305E+04    0.94932E-01   -0.90139E+00  4384   0.285E+00    0.887E-01
RMM:   2    -0.229767446779E+04   -0.10037E+00   -0.10544E+00  5987   0.534E-01    0.711E-01
RMM:   3    -0.229768456458E+04   -0.10097E-01   -0.12747E-01  5679   0.217E-01    0.771E-01
RMM:   4    -0.229767937740E+04    0.51872E-02   -0.12850E-02  5667   0.495E-02    0.272E-01
RMM:   5    -0.229767861676E+04    0.76063E-03   -0.28840E-03  4997   0.302E-02    0.144E-01
RMM:   6    -0.229767839855E+04    0.21821E-03   -0.12843E-03  4962   0.223E-02    0.698E-02
RMM:   7    -0.229767835223E+04    0.46322E-04   -0.24292E-04  4503   0.149E-02    0.328E-02
RMM:   8    -0.229767834108E+04    0.11153E-04   -0.58233E-05  2924   0.548E-03    0.133E-02
RMM:   9    -0.229767834360E+04   -0.25237E-05   -0.13983E-05  2840   0.372E-03
  88 F= -.23179451E+04 E0= -.23179451E+04  d E =-.289652E-01  mag=     3.0000
       N       E                     dE             d eps       ncg     rms          rms(c)
DAV:   1    -0.229762699227E+04    0.51349E-01   -0.48094E+00  4384   0.210E+00    0.639E-01
RMM:   2    -0.229768829655E+04   -0.61304E-01   -0.65755E-01  6064   0.400E-01    0.408E-01
RMM:   3    -0.229769537785E+04   -0.70813E-02   -0.78574E-02  5612   0.167E-01    0.502E-01
RMM:   4    -0.229769346421E+04    0.19136E-02   -0.78086E-03  5734   0.347E-02    0.210E-01
RMM:   5    -0.229769301157E+04    0.45264E-03   -0.12883E-03  4748   0.191E-02    0.118E-01
RMM:   6    -0.229769285039E+04    0.16117E-03   -0.66153E-04  4928   0.157E-02    0.599E-02
RMM:   7    -0.229769281731E+04    0.33080E-04   -0.17980E-04  4187   0.116E-02    0.245E-02
RMM:   8    -0.229769281256E+04    0.47570E-05   -0.35975E-05  2848   0.514E-03
  89 F= -.23179599E+04 E0= -.23179599E+04  d E =-.147348E-01  mag=     3.0000
       N       E                     dE             d eps       ncg     rms          rms(c)
DAV:   1    -0.229767163426E+04    0.21183E-01   -0.17177E+00  4432   0.125E+00    0.382E-01
RMM:   2    -0.229769342366E+04   -0.21789E-01   -0.23393E-01  6038   0.238E-01    0.239E-01
RMM:   3    -0.229769590021E+04   -0.24765E-02   -0.27100E-02  5469   0.101E-01    0.295E-01
RMM:   4    -0.229769524121E+04    0.65901E-03   -0.28034E-03  4901   0.208E-02    0.122E-01
RMM:   5    -0.229769507755E+04    0.16366E-03   -0.42093E-04  4049   0.124E-02    0.681E-02
[...]
DAV:   1    -0.229833068688E+04    0.17305E-03   -0.49537E-02  4416   0.238E-01    0.730E-02
RMM:   2    -0.229833110975E+04   -0.42287E-03   -0.45755E-03  6087   0.452E-02    0.471E-02
RMM:   3    -0.229833115317E+04   -0.43415E-04   -0.43511E-04  3514   0.163E-02    0.695E-02
RMM:   4    -0.229833111132E+04    0.41846E-04   -0.54651E-05  2891   0.556E-03    0.184E-02
RMM:   5    -0.229833110361E+04    0.77123E-05   -0.26069E-05  2861   0.444E-03
 266 F= -.23185743E+04 E0= -.23185743E+04  d E =-.226698E-03  mag=     3.0000
       N       E                     dE             d eps       ncg     rms          rms(c)
DAV:   1    -0.229833106003E+04    0.51289E-04   -0.64865E-03  4856   0.865E-02    0.268E-02
RMM:   2    -0.229833111667E+04   -0.56634E-04   -0.62790E-04  5692   0.185E-02    0.131E-02
RMM:   3    -0.229833112146E+04   -0.47913E-05   -0.63112E-05  2827   0.700E-03
 267 F= -.23185743E+04 E0= -.23185743E+04  d E =-.236342E-03  mag=     3.0000
       N       E                     dE             d eps       ncg     rms          rms(c)
DAV:   1    -0.229833096295E+04    0.15371E-03   -0.37599E-02  4416   0.206E-01    0.597E-02
RMM:   2    -0.229833132831E+04   -0.36535E-03   -0.38929E-03  6092   0.403E-02    0.384E-02
RMM:   3    -0.229833135661E+04   -0.28305E-04   -0.34293E-04  3218   0.133E-02    0.468E-02
RMM:   4    -0.229833134053E+04    0.16081E-04   -0.43718E-05  2870   0.477E-03    0.188E-02
RMM:   5    -0.229833133532E+04    0.52134E-05   -0.14266E-05  2818   0.351E-03
 268 F= -.23185745E+04 E0= -.23185745E+04  d E =-.174481E-03  mag=     3.0000
       N       E                     dE             d eps       ncg     rms          rms(c)
DAV:   1    -0.229833119804E+04    0.14249E-03   -0.17598E-02  4416   0.141E-01    0.414E-02
RMM:   2    -0.229833136882E+04   -0.17079E-03   -0.18492E-03  6165   0.287E-02    0.231E-02
RMM:   3    -0.229833138301E+04   -0.14183E-04   -0.17118E-04  2928   0.940E-03    0.294E-02
RMM:   4    -0.229833137695E+04    0.60539E-05   -0.20591E-05  2833   0.345E-03
 269 F= -.23185745E+04 E0= -.23185745E+04  d E =-.188905E-03  mag=     3.0000
       N       E                     dE             d eps       ncg     rms          rms(c)
DAV:   1    -0.229833124417E+04    0.13884E-03   -0.33580E-02  4448   0.195E-01    0.582E-02
RMM:   2    -0.229833158767E+04   -0.34351E-03   -0.35170E-03  6121   0.375E-02    0.581E-02
RMM:   3    -0.229833160243E+04   -0.14753E-04   -0.33486E-04  3238   0.133E-02    0.525E-02
RMM:   4    -0.229833157789E+04    0.24534E-04   -0.39020E-05  2866   0.473E-03    0.147E-02
RMM:   5    -0.229833157317E+04    0.47251E-05   -0.15809E-05  2844   0.355E-03
 270 F= -.23185747E+04 E0= -.23185747E+04  d E =-.159792E-03  mag=     3.0000
       N       E                     dE             d eps       ncg     rms          rms(c)
DAV:   1    -0.229833126312E+04    0.31477E-03   -0.37362E-02  4416   0.206E-01    0.612E-02
RMM:   2    -0.229833163771E+04   -0.37459E-03   -0.39592E-03  6213   0.413E-02    0.469E-02
RMM:   3    -0.229833166976E+04   -0.32048E-04   -0.35991E-04  3301   0.135E-02    0.569E-02
RMM:   4    -0.229833164245E+04    0.27308E-04   -0.44389E-05  2870   0.504E-03    0.157E-02
RMM:   5    -0.229833163760E+04    0.48575E-05   -0.14861E-05  2832   0.340E-03
 271 F= -.23185747E+04 E0= -.23185747E+04  d E =-.185756E-03  mag=     3.0000
       N       E                     dE             d eps       ncg     rms          rms(c)
DAV:   1    -0.229833143486E+04    0.20759E-03   -0.38100E-02  4448   0.207E-01    0.606E-02
RMM:   2    -0.229833183716E+04   -0.40230E-03   -0.41839E-03  6228   0.413E-02    0.516E-02
RMM:   3    -0.229833186779E+04   -0.30632E-04   -0.40099E-04  3306   0.139E-02    0.550E-02
RMM:   4    -0.229833184265E+04    0.25141E-04   -0.46490E-05  2872   0.508E-03    0.159E-02
RMM:   5    -0.229833183835E+04    0.43031E-05   -0.13569E-05  2826   0.331E-03
 272 F= -.23185749E+04 E0= -.23185749E+04  d E =-.175176E-03  mag=     3.0000
       N       E                     dE             d eps       ncg     rms          rms(c)
DAV:   1    -0.229833145820E+04    0.38445E-03   -0.42350E-02  4448   0.218E-01    0.638E-02
RMM:   2    -0.229833190442E+04   -0.44623E-03   -0.46536E-03  6241   0.433E-02    0.534E-02
RMM:   3    -0.229833193953E+04   -0.35108E-04   -0.44376E-04  3343   0.145E-02    0.579E-02
RMM:   4    -0.229833191151E+04    0.28026E-04   -0.50675E-05  2881   0.532E-03    0.170E-02
RMM:   5    -0.229833190651E+04    0.49935E-05   -0.16066E-05  2827   0.351E-03
 273 F= -.23185749E+04 E0= -.23185749E+04  d E =-.216417E-03  mag=     3.0000
       N       E                     dE             d eps       ncg     rms          rms(c)
DAV:   1    -0.229833161468E+04    0.29682E-03   -0.50188E-02  4416   0.237E-01    0.735E-02
RMM:   2    -0.229833213787E+04   -0.52319E-03   -0.54736E-03  6249   0.477E-02    0.601E-02
RMM:   3    -0.229833218131E+04   -0.43440E-04   -0.53460E-04  3517   0.162E-02    0.674E-02
RMM:   4    -0.229833214235E+04    0.38966E-04   -0.62549E-05  2892   0.589E-03    0.189E-02
RMM:   5    -0.229833213578E+04    0.65689E-05   -0.21053E-05  2826   0.412E-03
 274 F= -.23185751E+04 E0= -.23185751E+04  d E =-.204901E-03  mag=     3.0000
       N       E                     dE             d eps       ncg     rms          rms(c)
DAV:   1    -0.229833201058E+04    0.13177E-03   -0.13837E-02  4624   0.125E-01    0.386E-02
RMM:   2    -0.229833215546E+04   -0.14488E-03   -0.15397E-03  6123   0.263E-02    0.285E-02
RMM:   3    -0.229833216903E+04   -0.13568E-04   -0.15162E-04  2928   0.908E-03    0.351E-02
RMM:   4    -0.229833215868E+04    0.10348E-04   -0.18579E-05  2831   0.357E-03    0.109E-02
RMM:   5    -0.229833215641E+04    0.22641E-05   -0.63692E-06  2811   0.226E-03
 275 F= -.23185751E+04 E0= -.23185751E+04  d E =-.212650E-03  mag=     3.0000
       N       E                     dE             d eps       ncg     rms          rms(c)
DAV:   1    -0.229833191892E+04    0.23976E-03   -0.40376E-02  4416   0.209E-01    0.651E-02
RMM:   2    -0.229833235446E+04   -0.43555E-03   -0.45363E-03  6189   0.421E-02    0.549E-02
RMM:   3    -0.229833238824E+04   -0.33779E-04   -0.43950E-04  3277   0.141E-02    0.595E-02
RMM:   4    -0.229833235823E+04    0.30013E-04   -0.51215E-05  2885   0.527E-03    0.170E-02
RMM:   5    -0.229833235311E+04    0.51246E-05   -0.17088E-05  2828   0.364E-03
 276 F= -.23185753E+04 E0= -.23185753E+04  d E =-.171901E-03  mag=     3.0000
       N       E                     dE             d eps       ncg     rms          rms(c)
DAV:   1    -0.229833225679E+04    0.10144E-03   -0.10301E-02  4544   0.106E-01    0.329E-02
RMM:   2    -0.229833236804E+04   -0.11125E-03   -0.11826E-03  6016   0.226E-02    0.234E-02
RMM:   3    -0.229833237880E+04   -0.10752E-04   -0.11614E-04  2899   0.787E-03    0.295E-02
RMM:   4    -0.229833237175E+04    0.70413E-05   -0.13794E-05  2826   0.307E-03
 277 F= -.23185753E+04 E0= -.23185753E+04  d E =-.177912E-03  mag=     3.0000
       N       E                     dE             d eps       ncg     rms          rms(c)
DAV:   1    -0.229833211898E+04    0.25981E-03   -0.46294E-02  4432   0.225E-01    0.711E-02
RMM:   2    -0.229833259476E+04   -0.47577E-03   -0.49851E-03  6170   0.444E-02    0.590E-02
RMM:   3    -0.229833263309E+04   -0.38333E-04   -0.48331E-04  3340   0.145E-02    0.675E-02
RMM:   4    -0.229833259342E+04    0.39670E-04   -0.58577E-05  2892   0.558E-03    0.179E-02
RMM:   5    -0.229833258646E+04    0.69590E-05   -0.22942E-05  2840   0.421E-03
 278 F= -.23185755E+04 E0= -.23185755E+04  d E =-.159057E-03  mag=     3.0000
       N       E                     dE             d eps       ncg     rms          rms(c)
DAV:   1    -0.229833256990E+04    0.23520E-04   -0.28460E-03  5064   0.562E-02    0.180E-02
RMM:   2    -0.229833259898E+04   -0.29083E-04   -0.32115E-04  4819   0.125E-02    0.955E-03
RMM:   3    -0.229833260189E+04   -0.29056E-05   -0.35474E-05  2810   0.557E-03
 279 F= -.23185755E+04 E0= -.23185755E+04  d E =-.160353E-03  mag=     3.0000
       N       E                     dE             d eps       ncg     rms          rms(c)
DAV:   1    -0.229833237203E+04    0.22695E-03   -0.41265E-02  4448   0.213E-01    0.686E-02
RMM:   2    -0.229833279433E+04   -0.42230E-03   -0.45439E-03  6137   0.430E-02    0.380E-02
RMM:   3    -0.229833282827E+04   -0.33940E-04   -0.39932E-04  3296   0.140E-02    0.504E-02
RMM:   4    -0.229833280961E+04    0.18657E-04   -0.49391E-05  2876   0.497E-03    0.202E-02
RMM:   5    -0.229833280345E+04    0.61609E-05   -0.16290E-05  2818   0.375E-03
 280 F= -.23185756E+04 E0= -.23185756E+04  d E =-.154052E-03  mag=     3.0000
       N       E                     dE             d eps       ncg     rms          rms(c)
DAV:   1    -0.229833278914E+04    0.20476E-04   -0.20778E-03  5032   0.482E-02    0.159E-02
RMM:   2    -0.229833281037E+04   -0.21233E-04   -0.23662E-04  4186   0.107E-02    0.757E-03
RMM:   3    -0.229833281231E+04   -0.19404E-05   -0.27498E-05  2796   0.552E-03
 281 F= -.23185756E+04 E0= -.23185756E+04  d E =-.151882E-03  mag=     3.0000
       N       E                     dE             d eps       ncg     rms          rms(c)
DAV:   1    -0.229833258894E+04    0.22143E-03   -0.32486E-02  4416   0.188E-01    0.633E-02
RMM:   2    -0.229833295363E+04   -0.36470E-03   -0.38949E-03  6183   0.387E-02    0.430E-02
RMM:   3    -0.229833299019E+04   -0.36556E-04   -0.36213E-04  3191   0.127E-02    0.601E-02
RMM:   4    -0.229833295984E+04    0.30354E-04   -0.46677E-05  2874   0.499E-03    0.157E-02
RMM:   5    -0.229833295447E+04    0.53718E-05   -0.17217E-05  2834   0.357E-03
 282 F= -.23185757E+04 E0= -.23185757E+04  d E =-.120018E-03  mag=     3.0000
       N       E                     dE             d eps       ncg     rms          rms(c)
DAV:   1    -0.229833294222E+04    0.17619E-04   -0.12851E-03  5072   0.378E-02    0.128E-02
RMM:   2    -0.229833295643E+04   -0.14207E-04   -0.16080E-04  3623   0.880E-03    0.605E-03
RMM:   3    -0.229833295769E+04   -0.12678E-05   -0.20235E-05  2719   0.504E-03
 283 F= -.23185757E+04 E0= -.23185757E+04  d E =-.118676E-03  mag=     3.0000
       N       E                     dE             d eps       ncg     rms          rms(c)
DAV:   1    -0.229833274357E+04    0.21286E-03   -0.29243E-02  4416   0.176E-01    0.598E-02
RMM:   2    -0.229833309521E+04   -0.35165E-03   -0.38085E-03  6190   0.370E-02    0.276E-02
RMM:   3    -0.229833311765E+04   -0.22435E-04   -0.31536E-04  3098   0.120E-02    0.313E-02
RMM:   4    -0.229833311286E+04    0.47882E-05   -0.38343E-05  2866   0.403E-03
 284 F= -.23185759E+04 E0= -.23185759E+04  d E =-.127114E-03  mag=     3.0000
       N       E                     dE             d eps       ncg     rms          rms(c)
DAV:   1    -0.229833309068E+04    0.26963E-04   -0.22475E-03  5096   0.489E-02    0.187E-02
RMM:   2    -0.229833311913E+04   -0.28451E-04   -0.29505E-04  4146   0.105E-02    0.210E-02
RMM:   3    -0.229833311957E+04   -0.43868E-06   -0.33042E-05  2816   0.550E-03
 285 F= -.23185759E+04 E0= -.23185759E+04  d E =-.125847E-03  mag=     3.0000
       N       E                     dE             d eps       ncg     rms          rms(c)
DAV:   1    -0.229833295214E+04    0.16699E-03   -0.24336E-02  4416   0.160E-01    0.551E-02
RMM:   2    -0.229833324777E+04   -0.29563E-03   -0.31762E-03  6150   0.340E-02    0.313E-02
RMM:   3    -0.229833327075E+04   -0.22979E-04   -0.27542E-04  3042   0.114E-02    0.398E-02
RMM:   4    -0.229833325941E+04    0.11338E-04   -0.35163E-05  2861   0.412E-03    0.166E-02
RMM:   5    -0.229833325508E+04    0.43271E-05   -0.10787E-05  2813   0.293E-03
 286 F= -.23185760E+04 E0= -.23185760E+04  d E =-.111135E-03  mag=     3.0000
       N       E                     dE             d eps       ncg     rms          rms(c)
DAV:   1    -0.229833323248E+04    0.26930E-04   -0.23186E-03  5016   0.496E-02    0.173E-02
RMM:   2    -0.229833326029E+04   -0.27812E-04   -0.30886E-04  4447   0.114E-02    0.853E-03
RMM:   3    -0.229833326298E+04   -0.26854E-05   -0.34125E-05  2801   0.552E-03
 287 F= -.23185760E+04 E0= -.23185760E+04  d E =-.111314E-03  mag=     3.0000
       N       E                     dE             d eps       ncg     rms          rms(c)
DAV:   1    -0.229833307319E+04    0.18710E-03   -0.21630E-02  4416   0.147E-01    0.516E-02
RMM:   2    -0.229833336443E+04   -0.29124E-03   -0.30569E-03  6183   0.320E-02    0.393E-02
RMM:   3    -0.229833339152E+04   -0.27091E-04   -0.28884E-04  2998   0.107E-02    0.493E-02
RMM:   4    -0.229833337130E+04    0.20220E-04   -0.35809E-05  2864   0.415E-03    0.135E-02
RMM:   5    -0.229833336776E+04    0.35415E-05   -0.10412E-05  2824   0.275E-03
 288 F= -.23185761E+04 E0= -.23185761E+04  d E =-.958162E-04  mag=     3.0000
       N       E                     dE             d eps       ncg     rms          rms(c)
DAV:   1    -0.229833333413E+04    0.37171E-04   -0.28265E-03  4688   0.532E-02    0.188E-02
RMM:   2    -0.229833337117E+04   -0.37045E-04   -0.40348E-04  4687   0.123E-02    0.972E-03
RMM:   3    -0.229833337490E+04   -0.37300E-05   -0.42581E-05  2816   0.564E-03
 289 F= -.23185761E+04 E0= -.23185761E+04  d E =-.996602E-04  mag=     3.0000
       N       E                     dE             d eps       ncg     rms          rms(c)
DAV:   1    -0.229833314221E+04    0.22896E-03   -0.23839E-02  4400   0.152E-01    0.537E-02
RMM:   2    -0.229833347890E+04   -0.33668E-03   -0.35867E-03  6224   0.340E-02    0.309E-02
RMM:   3    -0.229833350528E+04   -0.26383E-04   -0.32047E-04  2999   0.111E-02    0.372E-02
RMM:   4    -0.229833349607E+04    0.92095E-05   -0.37118E-05  2861   0.392E-03
 290 F= -.23185762E+04 E0= -.23185762E+04  d E =-.119149E-03  mag=     3.0000
       N       E                     dE             d eps       ncg     rms          rms(c)
DAV:   1    -0.229833344053E+04    0.64747E-04   -0.41567E-03  4720   0.633E-02    0.248E-02
RMM:   2    -0.229833350372E+04   -0.63184E-04   -0.62741E-04  5354   0.142E-02    0.333E-02
RMM:   3    -0.229833350118E+04    0.25309E-05   -0.66188E-05  2864   0.593E-03
 291 F= -.23185762E+04 E0= -.23185762E+04  d E =-.123428E-03  mag=     3.0000
       N       E                     dE             d eps       ncg     rms          rms(c)
DAV:   1    -0.229833322593E+04    0.27779E-03   -0.25569E-02  4400   0.153E-01    0.555E-02
RMM:   2    -0.229833361199E+04   -0.38606E-03   -0.40080E-03  6247   0.350E-02    0.448E-02
RMM:   3    -0.229833364173E+04   -0.29746E-04   -0.37731E-04  3019   0.109E-02    0.475E-02
RMM:   4    -0.229833362404E+04    0.17694E-04   -0.42993E-05  2868   0.432E-03    0.168E-02
RMM:   5    -0.229833361945E+04    0.45921E-05   -0.11559E-05  2822   0.293E-03
 292 F= -.23185763E+04 E0= -.23185763E+04  d E =-.115388E-03  mag=     3.0000
       N       E                     dE             d eps       ncg     rms          rms(c)
DAV:   1    -0.229833350685E+04    0.11719E-03   -0.76345E-03  4448   0.840E-02    0.306E-02
RMM:   2    -0.229833361909E+04   -0.11225E-03   -0.12112E-03  5989   0.197E-02    0.160E-02
RMM:   3    -0.229833362809E+04   -0.90001E-05   -0.11405E-04  2872   0.695E-03    0.168E-02
RMM:   4    -0.229833362671E+04    0.13783E-05   -0.12480E-05  2823   0.229E-03
 293 F= -.23185763E+04 E0= -.23185763E+04  d E =-.121089E-03  mag=     3.0000
       N       E                     dE             d eps       ncg     rms          rms(c)
DAV:   1    -0.229833348372E+04    0.14438E-03   -0.14495E-02  4416   0.111E-01    0.404E-02
RMM:   2    -0.229833372120E+04   -0.23749E-03   -0.24276E-03  6186   0.254E-02    0.414E-02
RMM:   3    -0.229833373548E+04   -0.14276E-04   -0.23687E-04  2927   0.885E-03    0.365E-02
RMM:   4    -0.229833372428E+04    0.11198E-04   -0.25239E-05  2837   0.329E-03    0.114E-02
RMM:   5    -0.229833372152E+04    0.27673E-05   -0.69469E-06  2790   0.209E-03
 294 F= -.23185764E+04 E0= -.23185764E+04  d E =-.913208E-04  mag=     3.0000
       N       E                     dE             d eps       ncg     rms          rms(c)
DAV:   1    -0.229833319665E+04    0.52763E-03   -0.34206E-02  4384   0.171E-01    0.622E-02
RMM:   2    -0.229833374282E+04   -0.54617E-03   -0.57567E-03  6276   0.394E-02    0.455E-02
RMM:   3    -0.229833379393E+04   -0.51109E-04   -0.54627E-04  3093   0.128E-02    0.549E-02
RMM:   4    -0.229833377048E+04    0.23450E-04   -0.59792E-05  2881   0.467E-03    0.177E-02
RMM:   5    -0.229833376542E+04    0.50616E-05   -0.12384E-05  2799   0.271E-03
 295 F= -.23185765E+04 E0= -.23185765E+04  d E =-.129925E-03  mag=     3.0000
       N       E                     dE             d eps       ncg     rms          rms(c)
DAV:   1    -0.229833358406E+04    0.18641E-03   -0.19940E-02  4400   0.132E-01    0.487E-02
RMM:   2    -0.229833390285E+04   -0.31879E-03   -0.33982E-03  6239   0.308E-02    0.289E-02
RMM:   3    -0.229833393210E+04   -0.29251E-04   -0.31356E-04  2955   0.104E-02    0.369E-02
RMM:   4    -0.229833392260E+04    0.94994E-05   -0.35252E-05  2859   0.367E-03
 296 F= -.23185766E+04 E0= -.23185766E+04  d E =-.144116E-03  mag=     3.0000
       N       E                     dE             d eps       ncg     rms          rms(c)
DAV:   1    -0.229833356697E+04    0.36513E-03   -0.25489E-02  4384   0.148E-01    0.555E-02
RMM:   2    -0.229833398019E+04   -0.41322E-03   -0.43187E-03  6257   0.338E-02    0.465E-02
RMM:   3    -0.229833401413E+04   -0.33938E-04   -0.40891E-04  3032   0.116E-02    0.520E-02
RMM:   4    -0.229833399175E+04    0.22382E-04   -0.46705E-05  2875   0.434E-03    0.164E-02
RMM:   5    -0.229833398634E+04    0.54088E-05   -0.14458E-05  2832   0.300E-03
 297 F= -.23185766E+04 E0= -.23185766E+04  d E =-.193221E-03  mag=     3.0000
       N       E                     dE             d eps       ncg     rms          rms(c)
DAV:   1    -0.229833388363E+04    0.10812E-03   -0.14859E-02  4416   0.117E-01    0.448E-02
RMM:   2    -0.229833411016E+04   -0.22654E-03   -0.24524E-03  6200   0.274E-02    0.229E-02
RMM:   3    -0.229833412956E+04   -0.19400E-04   -0.22546E-04  2924   0.949E-03    0.290E-02
RMM:   4    -0.229833412416E+04    0.54066E-05   -0.25811E-05  2838   0.322E-03
 298 F= -.23185768E+04 E0= -.23185768E+04  d E =-.124165E-03  mag=     3.0000
       N       E                     dE             d eps       ncg     rms          rms(c)
DAV:   1    -0.229833396683E+04    0.16273E-03   -0.12383E-02  4432   0.107E-01    0.414E-02
RMM:   2    -0.229833415763E+04   -0.19079E-03   -0.20283E-03  6147   0.241E-02    0.321E-02
RMM:   3    -0.229833417475E+04   -0.17121E-04   -0.19426E-04  2927   0.883E-03    0.398E-02
RMM:   4    -0.229833416127E+04    0.13480E-04   -0.23877E-05  2853   0.338E-03    0.120E-02
RMM:   5    -0.229833415787E+04    0.33975E-05   -0.88346E-06  2827   0.245E-03
 299 F= -.23185768E+04 E0= -.23185768E+04  d E =-.145440E-03  mag=     3.0000
       N       E                     dE             d eps       ncg     rms          rms(c)
DAV:   1    -0.229833391584E+04    0.24543E-03   -0.20355E-02  4384   0.134E-01    0.511E-02
RMM:   2    -0.229833424773E+04   -0.33189E-03   -0.35616E-03  6257   0.313E-02    0.258E-02
RMM:   3    -0.229833427608E+04   -0.28354E-04   -0.31915E-04  2961   0.105E-02    0.316E-02
RMM:   4    -0.229833427022E+04    0.58653E-05   -0.35033E-05  2846   0.346E-03
 300 F= -.23185769E+04 E0= -.23185769E+04  d E =-.104007E-03  mag=     3.0000
       N       E                     dE             d eps       ncg     rms          rms(c)
DAV:   1    -0.229833418193E+04    0.94154E-04   -0.60704E-03  4632   0.729E-02    0.286E-02
RMM:   2    -0.229833428205E+04   -0.10012E-03   -0.10498E-03  5725   0.167E-02    0.240E-02
RMM:   3    -0.229833429078E+04   -0.87269E-05   -0.10461E-04  2890   0.659E-03    0.277E-02
RMM:   4    -0.229833428440E+04    0.63769E-05   -0.12342E-05  2823   0.244E-03
 301 F= -.23185769E+04 E0= -.23185769E+04  d E =-.113630E-03  mag=     3.0000
