       N       E                     dE             d eps       ncg     rms          rms(c)
DAV:   1     0.124439885021E+05    0.12444E+05   -0.82020E+05  4408   0.143E+03
DAV:   2    -0.109474460184E+04   -0.13539E+05   -0.12989E+05  5360   0.329E+02
DAV:   3    -0.247381405622E+04   -0.13791E+04   -0.13678E+04  5248   0.109E+02
DAV:   4    -0.251248100385E+04   -0.38667E+02   -0.38489E+02  6336   0.257E+01
DAV:   5    -0.251325635078E+04   -0.77535E+00   -0.77439E+00  5472   0.289E+00    0.170E+02
RMM:   6    -0.147203288847E+04    0.10412E+04   -0.19407E+03  4341   0.389E+01    0.729E+01
RMM:   7    -0.163889245354E+04   -0.16686E+03   -0.26765E+02  4789   0.135E+01    0.498E+01
RMM:   8    -0.169524793272E+04   -0.56355E+02   -0.44950E+01  4726   0.758E+00    0.362E+01
RMM:   9    -0.183377004026E+04   -0.13852E+03   -0.71664E+01  4484   0.873E+00    0.241E+01
RMM:  10    -0.196402941096E+04   -0.13026E+03   -0.49590E+01  4489   0.679E+00    0.166E+01
RMM:  11    -0.208304219747E+04   -0.11901E+03   -0.62157E+01  4361   0.603E+00    0.129E+01
RMM:  12    -0.223502219362E+04   -0.15198E+03   -0.13533E+02  4351   0.837E+00    0.704E+00
RMM:  13    -0.228517367771E+04   -0.50151E+02   -0.46389E+01  4371   0.528E+00    0.598E+00
RMM:  14    -0.229431617520E+04   -0.91425E+01   -0.10928E+01  4781   0.273E+00    0.465E+00
RMM:  15    -0.230161585699E+04   -0.72997E+01   -0.73467E+00  4582   0.186E+00    0.252E+00
RMM:  16    -0.230592784134E+04   -0.43120E+01   -0.23429E+00  4430   0.123E+00    0.163E+00
RMM:  17    -0.230692691763E+04   -0.99908E+00   -0.46892E-01  4970   0.496E-01    0.946E-01
RMM:  18    -0.230713422643E+04   -0.20731E+00   -0.12038E-01  4637   0.233E-01    0.721E-01
RMM:  19    -0.230723750970E+04   -0.10328E+00   -0.47110E-02  4400   0.211E-01    0.413E-01
RMM:  20    -0.230730552048E+04   -0.68011E-01   -0.30455E-02  4474   0.153E-01    0.291E-01
RMM:  21    -0.230732202651E+04   -0.16506E-01   -0.11533E-02  4602   0.107E-01    0.154E-01
RMM:  22    -0.230733202217E+04   -0.99957E-02   -0.55027E-03  4527   0.615E-02    0.921E-02
RMM:  23    -0.230733995473E+04   -0.79326E-02   -0.27306E-03  4379   0.510E-02    0.538E-02
RMM:  24    -0.230734439683E+04   -0.44421E-02   -0.16898E-03  4439   0.328E-02    0.308E-02
RMM:  25    -0.230734630505E+04   -0.19082E-02   -0.73784E-04  4095   0.262E-02    0.153E-02
RMM:  26    -0.230734692892E+04   -0.62386E-03   -0.30080E-04  4010   0.145E-02    0.104E-02
RMM:  27    -0.230734716773E+04   -0.23881E-03   -0.75119E-05  3590   0.100E-02    0.663E-03
RMM:  28    -0.230734740287E+04   -0.23514E-03   -0.65429E-05  3544   0.687E-03    0.487E-03
RMM:  29    -0.230734748184E+04   -0.78977E-04   -0.25599E-05  3137   0.569E-03    0.299E-03
RMM:  30    -0.230734750980E+04   -0.27961E-04   -0.95700E-06  2807   0.352E-03    0.190E-03
RMM:  31    -0.230734752511E+04   -0.15304E-04   -0.56120E-06  2732   0.272E-03    0.114E-03
RMM:  32    -0.230734752858E+04   -0.34672E-05   -0.30581E-06  2305   0.205E-03
   1 F= -.23273875E+04 E0= -.23273875E+04  d E =-.232739E+04  mag=     3.0001
       N       E                     dE             d eps       ncg     rms          rms(c)
DAV:   1    -0.230773270586E+04   -0.38518E+00   -0.11684E+02  4656   0.115E+01    0.523E+00
RMM:   2    -0.230798031791E+04   -0.24761E+00   -0.43602E+00  4694   0.197E+00    0.201E+00
RMM:   3    -0.230785479195E+04    0.12553E+00   -0.24285E-01  4776   0.700E-01    0.109E+00
RMM:   4    -0.230781651705E+04    0.38275E-01   -0.22171E-01  4442   0.375E-01    0.423E-01
RMM:   5    -0.230781233442E+04    0.41826E-02   -0.18552E-02  4648   0.262E-01    0.253E-01
RMM:   6    -0.230780945599E+04    0.28784E-02   -0.11585E-02  4386   0.746E-02    0.175E-01
RMM:   7    -0.230780836083E+04    0.10952E-02   -0.38554E-03  5058   0.762E-02    0.951E-02
RMM:   8    -0.230780784326E+04    0.51757E-03   -0.12819E-03  4897   0.282E-02    0.752E-02
RMM:   9    -0.230780799830E+04   -0.15504E-03   -0.20578E-03  5199   0.379E-02    0.845E-02
RMM:  10    -0.230780792106E+04    0.77237E-04   -0.14780E-04  4597   0.156E-02    0.650E-02
RMM:  11    -0.230780804090E+04   -0.11983E-03   -0.10202E-03  4394   0.242E-02    0.326E-02
RMM:  12    -0.230780808331E+04   -0.42409E-04   -0.95690E-05  4064   0.157E-02    0.179E-02
RMM:  13    -0.230780817586E+04   -0.92552E-04   -0.13611E-04  4053   0.912E-03    0.169E-02
RMM:  14    -0.230780819014E+04   -0.14279E-04   -0.33925E-05  3265   0.803E-03    0.489E-03
RMM:  15    -0.230780821353E+04   -0.23397E-04   -0.31938E-05  3291   0.573E-03    0.114E-02
RMM:  16    -0.230780821837E+04   -0.48403E-05   -0.76538E-06  2785   0.517E-03
   2 F= -.23278470E+04 E0= -.23278470E+04  d E =-.459505E+00  mag=     3.0000
       N       E                     dE             d eps       ncg     rms          rms(c)
DAV:   1    -0.230798211979E+04   -0.17391E+00   -0.14154E+01  4576   0.401E+00    0.181E+00
RMM:   2    -0.230801062779E+04   -0.28508E-01   -0.51634E-01  4675   0.677E-01    0.691E-01
RMM:   3    -0.230799527161E+04    0.15356E-01   -0.28003E-02  4744   0.237E-01    0.370E-01
RMM:   4    -0.230799082074E+04    0.44509E-02   -0.26277E-02  4498   0.130E-01    0.141E-01
RMM:   5    -0.230799022869E+04    0.59205E-03   -0.20239E-03  4821   0.838E-02    0.839E-02
RMM:   6    -0.230798991585E+04    0.31284E-03   -0.10699E-03  4532   0.229E-02    0.616E-02
RMM:   7    -0.230798977672E+04    0.13913E-03   -0.52414E-04  5074   0.261E-02    0.389E-02
RMM:   8    -0.230798966209E+04    0.11463E-03   -0.14603E-04  4605   0.985E-03    0.239E-02
RMM:   9    -0.230798964089E+04    0.21198E-04   -0.13278E-04  4408   0.104E-02    0.221E-02
RMM:  10    -0.230798962775E+04    0.13143E-04   -0.16801E-05  2837   0.620E-03    0.150E-02
RMM:  11    -0.230798962367E+04    0.40738E-05   -0.52533E-05  3713   0.567E-03
   3 F= -.23280289E+04 E0= -.23280289E+04  d E =-.641386E+00  mag=     3.0000
       N       E                     dE             d eps       ncg     rms          rms(c)
DAV:   1    -0.230804355703E+04   -0.53929E-01   -0.44370E+00  4560   0.225E+00    0.954E-01
RMM:   2    -0.230806032788E+04   -0.16771E-01   -0.22239E-01  5112   0.400E-01    0.441E-01
RMM:   3    -0.230805701164E+04    0.33162E-02   -0.16078E-02  4625   0.160E-01    0.253E-01
RMM:   4    -0.230805595727E+04    0.10544E-02   -0.80435E-03  4558   0.739E-02    0.113E-01
RMM:   5    -0.230805578921E+04    0.16806E-03   -0.75091E-04  4817   0.423E-02    0.580E-02
RMM:   6    -0.230805571925E+04    0.69959E-04   -0.38995E-04  4489   0.136E-02    0.379E-02
RMM:   7    -0.230805568807E+04    0.31173E-04   -0.72953E-05  3860   0.128E-02    0.197E-02
RMM:   8    -0.230805567620E+04    0.11877E-04   -0.46146E-05  3574   0.581E-03    0.167E-02
RMM:   9    -0.230805567395E+04    0.22502E-05   -0.17645E-05  2833   0.561E-03
   4 F= -.23280944E+04 E0= -.23280944E+04  d E =-.654846E-01  mag=     3.0000
       N       E                     dE             d eps       ncg     rms          rms(c)
DAV:   1    -0.230805588406E+04   -0.20786E-03   -0.16354E-02  5424   0.137E-01    0.575E-02
RMM:   2    -0.230805594130E+04   -0.57239E-04   -0.80313E-04  5603   0.262E-02    0.271E-02
RMM:   3    -0.230805592699E+04    0.14311E-04   -0.64947E-05  3222   0.111E-02    0.151E-02
RMM:   4    -0.230805592209E+04    0.49033E-05   -0.26457E-05  2939   0.502E-03
   5 F= -.23280946E+04 E0= -.23280946E+04  d E =-.656981E-01  mag=     3.0000
       N       E                     dE             d eps       ncg     rms          rms(c)
DAV:   1    -0.230807232511E+04   -0.16398E-01   -0.14054E+00  4448   0.125E+00    0.475E-01
RMM:   2    -0.230807754989E+04   -0.52248E-02   -0.64745E-02  5234   0.198E-01    0.182E-01
RMM:   3    -0.230807724555E+04    0.30433E-03   -0.51498E-03  4592   0.830E-02    0.108E-01
RMM:   4    -0.230807712412E+04    0.12143E-03   -0.12439E-03  4631   0.264E-02    0.558E-02
RMM:   5    -0.230807710191E+04    0.22212E-04   -0.15232E-04  4280   0.177E-02    0.256E-02
RMM:   6    -0.230807710724E+04   -0.53316E-05   -0.37817E-05  3129   0.517E-03
   6 F= -.23281154E+04 E0= -.23281154E+04  d E =-.208462E-01  mag=     3.0000
       N       E                     dE             d eps       ncg     rms          rms(c)
DAV:   1    -0.230807932941E+04   -0.22275E-02   -0.10284E+00  4448   0.107E+00    0.407E-01
RMM:   2    -0.230808313560E+04   -0.38062E-02   -0.47143E-02  5319   0.170E-01    0.158E-01
RMM:   3    -0.230808294664E+04    0.18896E-03   -0.40170E-03  4682   0.691E-02    0.943E-02
RMM:   4    -0.230808285727E+04    0.89367E-04   -0.88808E-04  4674   0.222E-02    0.504E-02
RMM:   5    -0.230808283332E+04    0.23954E-04   -0.11362E-04  4169   0.147E-02    0.242E-02
RMM:   6    -0.230808283787E+04   -0.45498E-05   -0.29040E-05  2948   0.492E-03
   7 F= -.23281209E+04 E0= -.23281209E+04  d E =-.262818E-01  mag=     3.0000
       N       E                     dE             d eps       ncg     rms          rms(c)
DAV:   1    -0.230809394825E+04   -0.11115E-01   -0.67539E-01  4512   0.819E-01    0.250E-01
RMM:   2    -0.230809812111E+04   -0.41729E-02   -0.44479E-02  5575   0.133E-01    0.129E-01
RMM:   3    -0.230809828097E+04   -0.15986E-03   -0.35395E-03  4798   0.521E-02    0.805E-02
RMM:   4    -0.230809825078E+04    0.30184E-04   -0.56902E-04  4414   0.149E-02    0.438E-02
RMM:   5    -0.230809823956E+04    0.11226E-04   -0.77917E-05  3671   0.104E-02    0.157E-02
RMM:   6    -0.230809824051E+04   -0.95635E-06   -0.16638E-05  2812   0.466E-03
   8 F= -.23281362E+04 E0= -.23281362E+04  d E =-.153549E-01  mag=     3.0000
       N       E                     dE             d eps       ncg     rms          rms(c)
DAV:   1    -0.230807514386E+04    0.23096E-01   -0.60782E+00  4384   0.246E+00    0.748E-01
RMM:   2    -0.230811286729E+04   -0.37723E-01   -0.39865E-01  5484   0.395E-01    0.387E-01
RMM:   3    -0.230811470658E+04   -0.18393E-02   -0.35975E-02  4803   0.154E-01    0.246E-01
RMM:   4    -0.230811443125E+04    0.27533E-03   -0.54015E-03  4737   0.428E-02    0.140E-01
RMM:   5    -0.230811424283E+04    0.18842E-03   -0.92396E-04  4617   0.305E-02    0.486E-02
RMM:   6    -0.230811422944E+04    0.13393E-04   -0.17200E-04  4249   0.116E-02    0.272E-02
RMM:   7    -0.230811422893E+04    0.50892E-06   -0.36498E-05  3041   0.819E-03
   9 F= -.23281520E+04 E0= -.23281520E+04  d E =-.311822E-01  mag=     3.0000
       N       E                     dE             d eps       ncg     rms          rms(c)
DAV:   1    -0.230811991926E+04   -0.56898E-02   -0.67440E-01  4584   0.778E-01    0.245E-01
RMM:   2    -0.230812504279E+04   -0.51235E-02   -0.54589E-02  5638   0.129E-01    0.131E-01
RMM:   3    -0.230812534890E+04   -0.30611E-03   -0.45614E-03  4731   0.475E-02    0.834E-02
RMM:   4    -0.230812533556E+04    0.13334E-04   -0.65093E-04  4198   0.130E-02    0.496E-02
RMM:   5    -0.230812532720E+04    0.83596E-05   -0.96402E-05  3431   0.950E-03
  10 F= -.23281631E+04 E0= -.23281631E+04  d E =-.110379E-01  mag=     3.0000
       N       E                     dE             d eps       ncg     rms          rms(c)
DAV:   1    -0.230810566749E+04    0.19668E-01   -0.36202E+00  4384   0.180E+00    0.568E-01
RMM:   2    -0.230813353689E+04   -0.27869E-01   -0.29453E-01  5634   0.296E-01    0.307E-01
RMM:   3    -0.230813512053E+04   -0.15836E-02   -0.23671E-02  4857   0.109E-01    0.193E-01
RMM:   4    -0.230813503533E+04    0.85207E-04   -0.35376E-03  4648   0.296E-02    0.113E-01
RMM:   5    -0.230813496617E+04    0.69155E-04   -0.51711E-04  4397   0.207E-02    0.476E-02
RMM:   6    -0.230813496434E+04    0.18279E-05   -0.94488E-05  3517   0.855E-03
  11 F= -.23281726E+04 E0= -.23281726E+04  d E =-.205157E-01  mag=     3.0000
       N       E                     dE             d eps       ncg     rms          rms(c)
DAV:   1    -0.230813982808E+04   -0.48619E-02   -0.49699E-01  4592   0.711E-01    0.256E-01
RMM:   2    -0.230814429588E+04   -0.44678E-02   -0.47886E-02  5846   0.128E-01    0.127E-01
RMM:   3    -0.230814450081E+04   -0.20494E-03   -0.43597E-03  4927   0.499E-02    0.770E-02
RMM:   4    -0.230814445529E+04    0.45521E-04   -0.65250E-04  4544   0.155E-02    0.399E-02
RMM:   5    -0.230814444113E+04    0.14163E-04   -0.86832E-05  3775   0.102E-02    0.154E-02
RMM:   6    -0.230814443942E+04    0.17068E-05   -0.20523E-05  2836   0.460E-03
  12 F= -.23281821E+04 E0= -.23281821E+04  d E =-.955349E-02  mag=     3.0000
       N       E                     dE             d eps       ncg     rms          rms(c)
DAV:   1    -0.230814136752E+04    0.30736E-02   -0.78591E-01  4416   0.894E-01    0.320E-01
RMM:   2    -0.230814838871E+04   -0.70212E-02   -0.75140E-02  5647   0.159E-01    0.160E-01
RMM:   3    -0.230814870860E+04   -0.31990E-03   -0.70097E-03  4876   0.651E-02    0.961E-02
RMM:   4    -0.230814863176E+04    0.76845E-04   -0.10463E-03  4609   0.196E-02    0.485E-02
RMM:   5    -0.230814860389E+04    0.27865E-04   -0.12714E-04  4076   0.131E-02    0.170E-02
RMM:   6    -0.230814860005E+04    0.38420E-05   -0.31601E-05  3093   0.502E-03
  13 F= -.23281864E+04 E0= -.23281864E+04  d E =-.138027E-01  mag=     3.0000
       N       E                     dE             d eps       ncg     rms          rms(c)
DAV:   1    -0.230815056628E+04   -0.19624E-02   -0.43283E-01  4528   0.671E-01    0.235E-01
RMM:   2    -0.230815441898E+04   -0.38527E-02   -0.40528E-02  5671   0.113E-01    0.105E-01
RMM:   3    -0.230815460388E+04   -0.18490E-03   -0.32767E-03  4749   0.489E-02    0.628E-02
RMM:   4    -0.230815458257E+04    0.21306E-04   -0.48923E-04  4223   0.124E-02    0.360E-02
RMM:   5    -0.230815456939E+04    0.13176E-04   -0.70464E-05  3494   0.927E-03    0.123E-02
RMM:   6    -0.230815457003E+04   -0.63925E-06   -0.14758E-05  2815   0.484E-03
  14 F= -.23281923E+04 E0= -.23281923E+04  d E =-.593826E-02  mag=     3.0000
       N       E                     dE             d eps       ncg     rms          rms(c)
DAV:   1    -0.230814379611E+04    0.10773E-01   -0.16357E+00  4384   0.131E+00    0.458E-01
RMM:   2    -0.230815855562E+04   -0.14760E-01   -0.15494E-01  5460   0.217E-01    0.204E-01
RMM:   3    -0.230815916612E+04   -0.61051E-03   -0.11518E-02  4716   0.996E-02    0.123E-01
RMM:   4    -0.230815907822E+04    0.87901E-04   -0.18039E-03  4582   0.234E-02    0.713E-02
RMM:   5    -0.230815901738E+04    0.60840E-04   -0.26975E-04  4201   0.180E-02    0.249E-02
RMM:   6    -0.230815901686E+04    0.52348E-06   -0.57071E-05  3534   0.678E-03
  15 F= -.23281967E+04 E0= -.23281967E+04  d E =-.103054E-01  mag=     3.0000
       N       E                     dE             d eps       ncg     rms          rms(c)
DAV:   1    -0.230815725814E+04    0.17592E-02   -0.69451E-01  4448   0.827E-01    0.269E-01
RMM:   2    -0.230816358590E+04   -0.63278E-02   -0.66698E-02  5867   0.140E-01    0.134E-01
RMM:   3    -0.230816394660E+04   -0.36070E-03   -0.55893E-03  4998   0.530E-02    0.802E-02
RMM:   4    -0.230816390928E+04    0.37318E-04   -0.74163E-04  4306   0.143E-02    0.466E-02
RMM:   5    -0.230816388685E+04    0.22434E-04   -0.14098E-04  3984   0.110E-02    0.156E-02
RMM:   6    -0.230816388692E+04   -0.76601E-07   -0.21872E-05  2838   0.572E-03
  16 F= -.23282016E+04 E0= -.23282016E+04  d E =-.491191E-02  mag=     3.0000
       N       E                     dE             d eps       ncg     rms          rms(c)
DAV:   1    -0.230815577613E+04    0.81107E-02   -0.96864E-01  4384   0.977E-01    0.317E-01
RMM:   2    -0.230816464229E+04   -0.88662E-02   -0.93301E-02  5528   0.162E-01    0.158E-01
RMM:   3    -0.230816512364E+04   -0.48134E-03   -0.75687E-03  4704   0.724E-02    0.950E-02
RMM:   4    -0.230816506242E+04    0.61220E-04   -0.10674E-03  4403   0.173E-02    0.551E-02
RMM:   5    -0.230816501940E+04    0.43017E-04   -0.18953E-04  4112   0.137E-02    0.182E-02
RMM:   6    -0.230816501623E+04    0.31723E-05   -0.35224E-05  3110   0.585E-03
  17 F= -.23282028E+04 E0= -.23282028E+04  d E =-.608338E-02  mag=     3.0000
       N       E                     dE             d eps       ncg     rms          rms(c)
DAV:   1    -0.230816465734E+04    0.36205E-03   -0.58793E-02  4816   0.240E-01    0.776E-02
RMM:   2    -0.230816517633E+04   -0.51898E-03   -0.54577E-03  6013   0.417E-02    0.385E-02
RMM:   3    -0.230816520579E+04   -0.29465E-04   -0.46565E-04  3282   0.150E-02    0.243E-02
RMM:   4    -0.230816520208E+04    0.37080E-05   -0.63217E-05  2841   0.466E-03
  18 F= -.23282029E+04 E0= -.23282029E+04  d E =-.625960E-02  mag=     3.0000
       N       E                     dE             d eps       ncg     rms          rms(c)
DAV:   1    -0.230816346840E+04    0.17374E-02   -0.43130E-01  4416   0.629E-01    0.205E-01
RMM:   2    -0.230816818565E+04   -0.47173E-02   -0.48652E-02  5571   0.104E-01    0.110E-01
RMM:   3    -0.230816848825E+04   -0.30260E-03   -0.38047E-03  4683   0.461E-02    0.680E-02
RMM:   4    -0.230816847362E+04    0.14633E-04   -0.52859E-04  3998   0.106E-02    0.436E-02
RMM:   5    -0.230816845592E+04    0.17703E-04   -0.96426E-05  3476   0.873E-03    0.148E-02
RMM:   6    -0.230816845626E+04   -0.34332E-06   -0.16409E-05  2806   0.517E-03
  19 F= -.23282063E+04 E0= -.23282063E+04  d E =-.337536E-02  mag=     3.0000
       N       E                     dE             d eps       ncg     rms          rms(c)
DAV:   1    -0.230815737304E+04    0.11083E-01   -0.10759E+00  4384   0.994E-01    0.326E-01
RMM:   2    -0.230816918167E+04   -0.11809E-01   -0.12121E-01  5528   0.164E-01    0.178E-01
RMM:   3    -0.230817010148E+04   -0.91982E-03   -0.10907E-02  4796   0.747E-02    0.111E-01
RMM:   4    -0.230817009690E+04    0.45817E-05   -0.13906E-03  4371   0.165E-02    0.720E-02
RMM:   5    -0.230817005210E+04    0.44801E-04   -0.26759E-04  4161   0.134E-02    0.254E-02
RMM:   6    -0.230817005225E+04   -0.14600E-06   -0.36859E-05  2911   0.644E-03
  20 F= -.23282081E+04 E0= -.23282081E+04  d E =-.515747E-02  mag=     3.0000
       N       E                     dE             d eps       ncg     rms          rms(c)
DAV:   1    -0.230816791357E+04    0.21385E-02   -0.34668E-01  4416   0.550E-01    0.183E-01
RMM:   2    -0.230817198373E+04   -0.40702E-02   -0.41885E-02  5676   0.921E-02    0.103E-01
RMM:   3    -0.230817233450E+04   -0.35077E-03   -0.41239E-03  4525   0.423E-02    0.636E-02
RMM:   4    -0.230817233250E+04    0.20008E-05   -0.49571E-04  3568   0.934E-03    0.412E-02
RMM:   5    -0.230817231779E+04    0.14709E-04   -0.86188E-05  3273   0.742E-03    0.128E-02
RMM:   6    -0.230817231899E+04   -0.12043E-05   -0.12184E-05  2806   0.505E-03
  21 F= -.23282106E+04 E0= -.23282106E+04  d E =-.247531E-02  mag=     3.0000
       N       E                     dE             d eps       ncg     rms          rms(c)
DAV:   1    -0.230816262662E+04    0.96912E-02   -0.85247E-01  4384   0.861E-01    0.286E-01
RMM:   2    -0.230817250773E+04   -0.98811E-02   -0.10126E-01  5508   0.143E-01    0.162E-01
RMM:   3    -0.230817343659E+04   -0.92886E-03   -0.10665E-02  4682   0.716E-02    0.101E-01
RMM:   4    -0.230817344833E+04   -0.11744E-04   -0.12220E-03  4284   0.142E-02    0.655E-02
RMM:   5    -0.230817340596E+04    0.42366E-04   -0.21115E-04  3947   0.112E-02    0.202E-02
RMM:   6    -0.230817340784E+04   -0.18759E-05   -0.27217E-05  2840   0.608E-03
  22 F= -.23282120E+04 E0= -.23282120E+04  d E =-.388836E-02  mag=     3.0000
       N       E                     dE             d eps       ncg     rms          rms(c)
DAV:   1    -0.230817195938E+04    0.14466E-02   -0.22909E-01  4464   0.454E-01    0.163E-01
RMM:   2    -0.230817489586E+04   -0.29365E-02   -0.30522E-02  5802   0.796E-02    0.897E-02
RMM:   3    -0.230817509803E+04   -0.20218E-03   -0.23859E-03  4473   0.311E-02    0.570E-02
RMM:   4    -0.230817509204E+04    0.59893E-05   -0.34500E-04  3375   0.847E-03    0.374E-02
RMM:   5    -0.230817508368E+04    0.83616E-05   -0.64752E-05  3110   0.693E-03
  23 F= -.23282137E+04 E0= -.23282137E+04  d E =-.177041E-02  mag=     3.0000
       N       E                     dE             d eps       ncg     rms          rms(c)
DAV:   1    -0.230817098911E+04    0.41029E-02   -0.33882E-01  4384   0.553E-01    0.199E-01
RMM:   2    -0.230817532160E+04   -0.43325E-02   -0.44919E-02  5829   0.975E-02    0.110E-01
RMM:   3    -0.230817563538E+04   -0.31378E-03   -0.36931E-03  4778   0.414E-02    0.698E-02
RMM:   4    -0.230817562948E+04    0.59038E-05   -0.51368E-04  3728   0.103E-02    0.460E-02
RMM:   5    -0.230817561567E+04    0.13804E-04   -0.96791E-05  3497   0.840E-03    0.182E-02
RMM:   6    -0.230817561609E+04   -0.41662E-06   -0.15989E-05  2808   0.539E-03
  24 F= -.23282144E+04 E0= -.23282144E+04  d E =-.241674E-02  mag=     3.0000
       N       E                     dE             d eps       ncg     rms          rms(c)
DAV:   1    -0.230817246725E+04    0.31484E-02   -0.35807E-01  4384   0.569E-01    0.195E-01
RMM:   2    -0.230817689753E+04   -0.44303E-02   -0.45618E-02  5641   0.953E-02    0.108E-01
RMM:   3    -0.230817723306E+04   -0.33553E-03   -0.38799E-03  4617   0.424E-02    0.675E-02
RMM:   4    -0.230817723173E+04    0.13319E-05   -0.51358E-04  3665   0.933E-03    0.458E-02
RMM:   5    -0.230817721655E+04    0.15176E-04   -0.89055E-05  3269   0.768E-03    0.180E-02
RMM:   6    -0.230817721757E+04   -0.10208E-05   -0.15686E-05  2804   0.525E-03
  25 F= -.23282161E+04 E0= -.23282161E+04  d E =-.172516E-02  mag=     3.0000
       N       E                     dE             d eps       ncg     rms          rms(c)
DAV:   1    -0.230816370475E+04    0.13512E-01   -0.10433E+00  4368   0.973E-01    0.334E-01
RMM:   2    -0.230817678784E+04   -0.13083E-01   -0.13414E-01  5624   0.164E-01    0.185E-01
RMM:   3    -0.230817800201E+04   -0.12142E-02   -0.13160E-02  4882   0.713E-02    0.119E-01
RMM:   4    -0.230817802893E+04   -0.26928E-04   -0.15784E-03  4432   0.155E-02    0.810E-02
RMM:   5    -0.230817797911E+04    0.49821E-04   -0.27877E-04  4068   0.124E-02    0.318E-02
RMM:   6    -0.230817798167E+04   -0.25587E-05   -0.43895E-05  2926   0.722E-03
  26 F= -.23282171E+04 E0= -.23282171E+04  d E =-.269809E-02  mag=     3.0000
       N       E                     dE             d eps       ncg     rms          rms(c)
DAV:   1    -0.230817354931E+04    0.44298E-02   -0.45396E-01  4384   0.642E-01    0.214E-01
RMM:   2    -0.230817922196E+04   -0.56727E-02   -0.58392E-02  5763   0.109E-01    0.123E-01
RMM:   3    -0.230817965453E+04   -0.43256E-03   -0.48617E-03  4874   0.432E-02    0.791E-02
RMM:   4    -0.230817965685E+04   -0.23257E-05   -0.65795E-04  3715   0.104E-02    0.544E-02
RMM:   5    -0.230817963634E+04    0.20508E-04   -0.12062E-04  3590   0.836E-03    0.224E-02
RMM:   6    -0.230817963648E+04   -0.14163E-06   -0.19849E-05  2808   0.574E-03
  27 F= -.23282188E+04 E0= -.23282188E+04  d E =-.175556E-02  mag=     3.0000
       N       E                     dE             d eps       ncg     rms          rms(c)
DAV:   1    -0.230817280955E+04    0.68268E-02   -0.54119E-01  4384   0.701E-01    0.233E-01
RMM:   2    -0.230817962345E+04   -0.68139E-02   -0.69983E-02  5558   0.119E-01    0.134E-01
RMM:   3    -0.230818013358E+04   -0.51013E-03   -0.57722E-03  4759   0.514E-02    0.857E-02
RMM:   4    -0.230818013499E+04   -0.14037E-05   -0.79082E-04  4041   0.114E-02    0.590E-02
RMM:   5    -0.230818010740E+04    0.27584E-04   -0.14333E-04  3680   0.933E-03    0.242E-02
RMM:   6    -0.230818010653E+04    0.87627E-06   -0.24523E-05  2813   0.572E-03
  28 F= -.23282194E+04 E0= -.23282194E+04  d E =-.233305E-02  mag=     3.0000
       N       E                     dE             d eps       ncg     rms          rms(c)
DAV:   1    -0.230817660704E+04    0.35004E-02   -0.47189E-01  4384   0.690E-01    0.212E-01
RMM:   2    -0.230818127788E+04   -0.46708E-02   -0.48363E-02  5553   0.113E-01    0.112E-01
RMM:   3    -0.230818157832E+04   -0.30044E-03   -0.39520E-03  4705   0.464E-02    0.712E-02
RMM:   4    -0.230818156702E+04    0.11300E-04   -0.54992E-04  4064   0.109E-02    0.466E-02
RMM:   5    -0.230818154694E+04    0.20075E-04   -0.97184E-05  3578   0.876E-03    0.183E-02
RMM:   6    -0.230818154712E+04   -0.17531E-06   -0.17651E-05  2801   0.542E-03
  29 F= -.23282210E+04 E0= -.23282210E+04  d E =-.158082E-02  mag=     3.0000
       N       E                     dE             d eps       ncg     rms          rms(c)
DAV:   1    -0.230817803432E+04    0.35126E-02   -0.35724E-01  4384   0.601E-01    0.185E-01
RMM:   2    -0.230818159000E+04   -0.35557E-02   -0.36838E-02  5601   0.985E-02    0.975E-02
RMM:   3    -0.230818181313E+04   -0.22313E-03   -0.29474E-03  4652   0.404E-02    0.613E-02
RMM:   4    -0.230818180327E+04    0.98636E-05   -0.41326E-04  3863   0.967E-03    0.400E-02
RMM:   5    -0.230818178762E+04    0.15646E-04   -0.72553E-05  3328   0.789E-03    0.152E-02
RMM:   6    -0.230818178765E+04   -0.28114E-07   -0.13605E-05  2806   0.509E-03
  30 F= -.23282214E+04 E0= -.23282214E+04  d E =-.194165E-02  mag=     3.0000
       N       E                     dE             d eps       ncg     rms          rms(c)
DAV:   1    -0.230817847773E+04    0.33099E-02   -0.54839E-01  4376   0.769E-01    0.221E-01
RMM:   2    -0.230818270806E+04   -0.42303E-02   -0.44238E-02  5406   0.123E-01    0.111E-01
RMM:   3    -0.230818289712E+04   -0.18905E-03   -0.33545E-03  4720   0.519E-02    0.702E-02
RMM:   4    -0.230818287756E+04    0.19553E-04   -0.51694E-04  4210   0.125E-02    0.434E-02
RMM:   5    -0.230818286120E+04    0.16358E-04   -0.88148E-05  3648   0.979E-03    0.170E-02
RMM:   6    -0.230818286115E+04    0.56971E-07   -0.16800E-05  2813   0.494E-03
  31 F= -.23282227E+04 E0= -.23282227E+04  d E =-.129564E-02  mag=     3.0000
       N       E                     dE             d eps       ncg     rms          rms(c)
DAV:   1    -0.230818044032E+04    0.24209E-02   -0.27745E-01  4448   0.547E-01    0.157E-01
RMM:   2    -0.230818258626E+04   -0.21459E-02   -0.22438E-02  5509   0.879E-02    0.794E-02
RMM:   3    -0.230818268232E+04   -0.96053E-04   -0.16989E-03  4572   0.352E-02    0.501E-02
RMM:   4    -0.230818267078E+04    0.11537E-04   -0.25731E-04  3848   0.906E-03    0.312E-02
RMM:   5    -0.230818266261E+04    0.81653E-05   -0.44205E-05  3018   0.716E-03
  32 F= -.23282226E+04 E0= -.23282226E+04  d E =-.125401E-02  mag=     3.0000
       N       E                     dE             d eps       ncg     rms          rms(c)
DAV:   1    -0.230818242876E+04    0.24201E-03   -0.55074E-02  4528   0.243E-01    0.684E-02
RMM:   2    -0.230818283934E+04   -0.41058E-03   -0.43077E-03  5927   0.405E-02    0.341E-02
RMM:   3    -0.230818285404E+04   -0.14691E-04   -0.29633E-04  3349   0.140E-02    0.215E-02
RMM:   4    -0.230818285149E+04    0.25436E-05   -0.41603E-05  2828   0.443E-03
  33 F= -.23282227E+04 E0= -.23282227E+04  d E =-.137365E-02  mag=     3.0000
       N       E                     dE             d eps       ncg     rms          rms(c)
DAV:   1    -0.230818167999E+04    0.11740E-02   -0.31315E-01  4384   0.586E-01    0.159E-01
RMM:   2    -0.230818350319E+04   -0.18232E-02   -0.19317E-02  5322   0.921E-02    0.757E-02
RMM:   3    -0.230818354510E+04   -0.41912E-04   -0.14222E-03  4472   0.404E-02    0.468E-02
RMM:   4    -0.230818352749E+04    0.17614E-04   -0.23549E-04  4053   0.995E-03    0.263E-02
RMM:   5    -0.230818351996E+04    0.75263E-05   -0.34077E-05  2960   0.771E-03
  34 F= -.23282236E+04 E0= -.23282236E+04  d E =-.842074E-03  mag=     3.0000
       N       E                     dE             d eps       ncg     rms          rms(c)
DAV:   1    -0.230818268928E+04    0.83821E-03   -0.12485E-01  4432   0.370E-01    0.102E-01
RMM:   2    -0.230818342503E+04   -0.73575E-03   -0.77804E-03  5587   0.593E-02    0.493E-02
RMM:   3    -0.230818344905E+04   -0.24014E-04   -0.59493E-04  3998   0.253E-02    0.307E-02
RMM:   4    -0.230818344236E+04    0.66889E-05   -0.94747E-05  3213   0.676E-03
  35 F= -.23282236E+04 E0= -.23282236E+04  d E =-.874676E-03  mag=     3.0000
       N       E                     dE             d eps       ncg     rms          rms(c)
DAV:   1    -0.230818315333E+04    0.29572E-03   -0.16965E-01  4384   0.431E-01    0.103E-01
RMM:   2    -0.230818401142E+04   -0.85808E-03   -0.90056E-03  5836   0.668E-02    0.524E-02
RMM:   3    -0.230818404026E+04   -0.28848E-04   -0.70091E-04  4109   0.230E-02    0.338E-02
RMM:   4    -0.230818403338E+04    0.68885E-05   -0.10081E-04  3008   0.683E-03    0.199E-02
RMM:   5    -0.230818403120E+04    0.21733E-05   -0.22590E-05  2868   0.531E-03
  36 F= -.23282243E+04 E0= -.23282243E+04  d E =-.680730E-03  mag=     3.0000
       N       E                     dE             d eps       ncg     rms          rms(c)
DAV:   1    -0.230817634413E+04    0.76892E-02   -0.15368E+00  4368   0.130E+00    0.308E-01
RMM:   2    -0.230818417993E+04   -0.78358E-02   -0.82301E-02  5419   0.197E-01    0.154E-01
RMM:   3    -0.230818440612E+04   -0.22618E-03   -0.65155E-03  4653   0.797E-02    0.100E-01
RMM:   4    -0.230818434445E+04    0.61663E-04   -0.96660E-04  4546   0.187E-02    0.592E-02
RMM:   5    -0.230818431058E+04    0.33876E-04   -0.18217E-04  4238   0.138E-02    0.226E-02
RMM:   6    -0.230818431110E+04   -0.52084E-06   -0.28534E-05  2973   0.619E-03
  37 F= -.23282248E+04 E0= -.23282248E+04  d E =-.123506E-02  mag=     3.0000
       N       E                     dE             d eps       ncg     rms          rms(c)
DAV:   1    -0.230818380851E+04    0.50207E-03   -0.28330E-01  4400   0.555E-01    0.137E-01
RMM:   2    -0.230818518860E+04   -0.13801E-02   -0.14621E-02  5589   0.861E-02    0.680E-02
RMM:   3    -0.230818520986E+04   -0.21259E-04   -0.10046E-03  4493   0.318E-02    0.428E-02
RMM:   4    -0.230818519599E+04    0.13876E-04   -0.16780E-04  3861   0.894E-03    0.235E-02
RMM:   5    -0.230818519392E+04    0.20622E-05   -0.25689E-05  2862   0.669E-03
  38 F= -.23282258E+04 E0= -.23282258E+04  d E =-.972848E-03  mag=     3.0000
       N       E                     dE             d eps       ncg     rms          rms(c)
DAV:   1    -0.230818132036E+04    0.38756E-02   -0.85371E-01  4368   0.964E-01    0.236E-01
RMM:   2    -0.230818544388E+04   -0.41235E-02   -0.43699E-02  5373   0.148E-01    0.117E-01
RMM:   3    -0.230818550672E+04   -0.62833E-04   -0.32108E-03  4608   0.623E-02    0.743E-02
RMM:   4    -0.230818546507E+04    0.41647E-04   -0.54128E-04  4411   0.153E-02    0.413E-02
RMM:   5    -0.230818545278E+04    0.12286E-04   -0.88913E-05  3759   0.110E-02    0.166E-02
RMM:   6    -0.230818545340E+04   -0.61627E-06   -0.16064E-05  2826   0.468E-03
  39 F= -.23282262E+04 E0= -.23282262E+04  d E =-.138804E-02  mag=     3.0000
       N       E                     dE             d eps       ncg     rms          rms(c)
DAV:   1    -0.230818483979E+04    0.61300E-03   -0.34761E-01  4384   0.607E-01    0.148E-01
RMM:   2    -0.230818644543E+04   -0.16056E-02   -0.17075E-02  5394   0.922E-02    0.751E-02
RMM:   3    -0.230818644083E+04    0.46034E-05   -0.10309E-03  4503   0.352E-02    0.475E-02
RMM:   4    -0.230818642237E+04    0.18461E-04   -0.20886E-04  4034   0.984E-03    0.253E-02
RMM:   5    -0.230818641872E+04    0.36480E-05   -0.28032E-05  2872   0.710E-03
  40 F= -.23282273E+04 E0= -.23282273E+04  d E =-.107766E-02  mag=     3.0000
       N       E                     dE             d eps       ncg     rms          rms(c)
DAV:   1    -0.230818114807E+04    0.52743E-02   -0.12121E+00  4368   0.113E+00    0.276E-01
RMM:   2    -0.230818675038E+04   -0.56023E-02   -0.59581E-02  5281   0.172E-01    0.140E-01
RMM:   3    -0.230818672279E+04    0.27594E-04   -0.35751E-03  4610   0.658E-02    0.883E-02
RMM:   4    -0.230818665291E+04    0.69873E-04   -0.76013E-04  4540   0.181E-02    0.463E-02
RMM:   5    -0.230818663482E+04    0.18091E-04   -0.11085E-04  3949   0.124E-02    0.187E-02
RMM:   6    -0.230818663542E+04   -0.59731E-06   -0.20460E-05  2850   0.473E-03
  41 F= -.23282277E+04 E0= -.23282277E+04  d E =-.150398E-02  mag=     3.0000
       N       E                     dE             d eps       ncg     rms          rms(c)
DAV:   1    -0.230818642376E+04    0.21106E-03   -0.81252E-02  4512   0.294E-01    0.704E-02
RMM:   2    -0.230818678783E+04   -0.36406E-03   -0.38865E-03  5744   0.452E-02    0.359E-02
RMM:   3    -0.230818678899E+04   -0.11690E-05   -0.26972E-04  3606   0.166E-02    0.227E-02
RMM:   4    -0.230818678392E+04    0.50708E-05   -0.46928E-05  2884   0.523E-03
  42 F= -.23282278E+04 E0= -.23282278E+04  d E =-.159833E-02  mag=     3.0000
       N       E                     dE             d eps       ncg     rms          rms(c)
DAV:   1    -0.230818662001E+04    0.16898E-03   -0.30272E-01  4384   0.556E-01    0.144E-01
RMM:   2    -0.230818789520E+04   -0.12752E-02   -0.13803E-02  5509   0.858E-02    0.715E-02
RMM:   3    -0.230818787490E+04    0.20299E-04   -0.79166E-04  4485   0.312E-02    0.444E-02
RMM:   4    -0.230818785127E+04    0.23626E-04   -0.17552E-04  4018   0.989E-03    0.213E-02
RMM:   5    -0.230818784914E+04    0.21307E-05   -0.23109E-05  2848   0.714E-03
  43 F= -.23282290E+04 E0= -.23282290E+04  d E =-.117790E-02  mag=     3.0000
       N       E                     dE             d eps       ncg     rms          rms(c)
DAV:   1    -0.230818594790E+04    0.19034E-02   -0.50936E-01  4408   0.722E-01    0.190E-01
RMM:   2    -0.230818811109E+04   -0.21632E-02   -0.23330E-02  5386   0.111E-01    0.942E-02
RMM:   3    -0.230818808213E+04    0.28957E-04   -0.14099E-03  4608   0.390E-02    0.588E-02
RMM:   4    -0.230818804617E+04    0.35963E-04   -0.31415E-04  4259   0.126E-02    0.288E-02
RMM:   5    -0.230818804098E+04    0.51842E-05   -0.40139E-05  3058   0.867E-03
  44 F= -.23282293E+04 E0= -.23282293E+04  d E =-.151687E-02  mag=     3.0000
       N       E                     dE             d eps       ncg     rms          rms(c)
DAV:   1    -0.230818784253E+04    0.20364E-03   -0.24112E-01  4384   0.482E-01    0.120E-01
RMM:   2    -0.230818888791E+04   -0.10454E-02   -0.11160E-02  5463   0.732E-02    0.640E-02
RMM:   3    -0.230818889105E+04   -0.31339E-05   -0.71301E-04  4294   0.272E-02    0.406E-02
RMM:   4    -0.230818887836E+04    0.12688E-04   -0.14449E-04  3707   0.816E-03    0.204E-02
RMM:   5    -0.230818887699E+04    0.13748E-05   -0.21096E-05  2832   0.585E-03
  45 F= -.23282302E+04 E0= -.23282302E+04  d E =-.897326E-03  mag=     3.0000
       N       E                     dE             d eps       ncg     rms          rms(c)
DAV:   1    -0.230818473002E+04    0.41483E-02   -0.10914E+00  4368   0.102E+00    0.254E-01
RMM:   2    -0.230818943725E+04   -0.47072E-02   -0.50353E-02  5348   0.155E-01    0.135E-01
RMM:   3    -0.230818944756E+04   -0.10304E-04   -0.32735E-03  4589   0.583E-02    0.865E-02
RMM:   4    -0.230818938662E+04    0.60934E-04   -0.67313E-04  4508   0.168E-02    0.441E-02
RMM:   5    -0.230818937297E+04    0.13650E-04   -0.10760E-04  3768   0.112E-02    0.156E-02
RMM:   6    -0.230818937269E+04    0.28698E-06   -0.17326E-05  2825   0.464E-03
  46 F= -.23282309E+04 E0= -.23282309E+04  d E =-.152429E-02  mag=     3.0000
       N       E                     dE             d eps       ncg     rms          rms(c)
DAV:   1    -0.230818899927E+04    0.37370E-03   -0.37386E-01  4384   0.585E-01    0.157E-01
RMM:   2    -0.230819080088E+04   -0.18016E-02   -0.19330E-02  5551   0.929E-02    0.836E-02
RMM:   3    -0.230819081252E+04   -0.11639E-04   -0.11901E-03  4493   0.347E-02    0.527E-02
RMM:   4    -0.230819078844E+04    0.24080E-04   -0.25124E-04  4038   0.106E-02    0.259E-02
RMM:   5    -0.230819078530E+04    0.31433E-05   -0.32192E-05  2903   0.714E-03
  47 F= -.23282323E+04 E0= -.23282323E+04  d E =-.139518E-02  mag=     3.0000
       N       E                     dE             d eps       ncg     rms          rms(c)
DAV:   1    -0.230818775027E+04    0.30382E-02   -0.75624E-01  4368   0.832E-01    0.224E-01
RMM:   2    -0.230819138884E+04   -0.36386E-02   -0.39036E-02  5515   0.132E-01    0.119E-01
RMM:   3    -0.230819141557E+04   -0.26731E-04   -0.24596E-03  4639   0.475E-02    0.756E-02
RMM:   4    -0.230819136504E+04    0.50528E-04   -0.52936E-04  4423   0.150E-02    0.374E-02
RMM:   5    -0.230819135578E+04    0.92667E-05   -0.75867E-05  3413   0.964E-03
  48 F= -.23282328E+04 E0= -.23282328E+04  d E =-.194099E-02  mag=     3.0000
       N       E                     dE             d eps       ncg     rms          rms(c)
DAV:   1    -0.230818997719E+04    0.13879E-02   -0.49534E-01  4376   0.668E-01    0.189E-01
RMM:   2    -0.230819263724E+04   -0.26601E-02   -0.28298E-02  5635   0.107E-01    0.976E-02
RMM:   3    -0.230819269603E+04   -0.58783E-04   -0.19956E-03  4588   0.393E-02    0.637E-02
RMM:   4    -0.230819266846E+04    0.27563E-04   -0.37076E-04  4095   0.114E-02    0.347E-02
RMM:   5    -0.230819265807E+04    0.10394E-04   -0.71452E-05  3174   0.820E-03    0.128E-02
RMM:   6    -0.230819265752E+04    0.54964E-06   -0.11999E-05  2807   0.481E-03
  49 F= -.23282341E+04 E0= -.23282341E+04  d E =-.129888E-02  mag=     3.0000
       N       E                     dE             d eps       ncg     rms          rms(c)
DAV:   1    -0.230819112095E+04    0.15371E-02   -0.34542E-01  4400   0.557E-01    0.157E-01
RMM:   2    -0.230819297962E+04   -0.18587E-02   -0.19787E-02  5722   0.895E-02    0.808E-02
RMM:   3    -0.230819301112E+04   -0.31496E-04   -0.12753E-03  4475   0.326E-02    0.517E-02
RMM:   4    -0.230819298992E+04    0.21199E-04   -0.25516E-04  3967   0.972E-03    0.275E-02
RMM:   5    -0.230819298340E+04    0.65142E-05   -0.44655E-05  2945   0.698E-03
  50 F= -.23282344E+04 E0= -.23282344E+04  d E =-.162181E-02  mag=     3.0000
       N       E                     dE             d eps       ncg     rms          rms(c)
DAV:   1    -0.230819246779E+04    0.52212E-03   -0.25452E-01  4408   0.477E-01    0.153E-01
RMM:   2    -0.230819402702E+04   -0.15592E-02   -0.16676E-02  5756   0.807E-02    0.759E-02
RMM:   3    -0.230819405669E+04   -0.29676E-04   -0.11537E-03  4494   0.309E-02    0.484E-02
RMM:   4    -0.230819403978E+04    0.16915E-04   -0.23038E-04  3889   0.966E-03    0.258E-02
RMM:   5    -0.230819403433E+04    0.54478E-05   -0.40616E-05  2915   0.670E-03
  51 F= -.23282356E+04 E0= -.23282356E+04  d E =-.113871E-02  mag=     3.0000
       N       E                     dE             d eps       ncg     rms          rms(c)
DAV:   1    -0.230819323566E+04    0.80412E-03   -0.15170E-01  4432   0.368E-01    0.119E-01
RMM:   2    -0.230819417159E+04   -0.93593E-03   -0.99930E-03  5853   0.633E-02    0.594E-02
RMM:   3    -0.230819419482E+04   -0.23225E-04   -0.73460E-04  4078   0.246E-02    0.385E-02
RMM:   4    -0.230819418392E+04    0.10894E-04   -0.14047E-04  3313   0.762E-03    0.208E-02
RMM:   5    -0.230819418030E+04    0.36195E-05   -0.28214E-05  2856   0.575E-03
  52 F= -.23282358E+04 E0= -.23282358E+04  d E =-.135219E-02  mag=     3.0000
       N       E                     dE             d eps       ncg     rms          rms(c)
DAV:   1    -0.230819352070E+04    0.66323E-03   -0.25013E-01  4376   0.477E-01    0.155E-01
RMM:   2    -0.230819489242E+04   -0.13717E-02   -0.14859E-02  5852   0.801E-02    0.725E-02
RMM:   3    -0.230819490941E+04   -0.16993E-04   -0.99694E-04  4446   0.285E-02    0.462E-02
RMM:   4    -0.230819489256E+04    0.16855E-04   -0.19780E-04  3760   0.938E-03    0.242E-02
RMM:   5    -0.230819488811E+04    0.44532E-05   -0.38121E-05  2913   0.672E-03
  53 F= -.23282366E+04 E0= -.23282366E+04  d E =-.817162E-03  mag=     3.0000
       N       E                     dE             d eps       ncg     rms          rms(c)
DAV:   1    -0.230819444954E+04    0.44302E-03   -0.79678E-02  4544   0.269E-01    0.880E-02
RMM:   2    -0.230819489284E+04   -0.44330E-03   -0.47768E-03  5841   0.464E-02    0.417E-02
RMM:   3    -0.230819490163E+04   -0.87926E-05   -0.34928E-04  3672   0.182E-02    0.270E-02
RMM:   4    -0.230819489621E+04    0.54213E-05   -0.67187E-05  2895   0.533E-03
  54 F= -.23282367E+04 E0= -.23282367E+04  d E =-.886929E-03  mag=     3.0000
       N       E                     dE             d eps       ncg     rms          rms(c)
DAV:   1    -0.230819456691E+04    0.33473E-03   -0.23664E-01  4376   0.459E-01    0.139E-01
RMM:   2    -0.230819568591E+04   -0.11190E-02   -0.12223E-02  5802   0.752E-02    0.689E-02
RMM:   3    -0.230819570282E+04   -0.16903E-04   -0.87569E-04  4379   0.263E-02    0.445E-02
RMM:   4    -0.230819568883E+04    0.13984E-04   -0.17573E-04  3646   0.865E-03    0.229E-02
RMM:   5    -0.230819568522E+04    0.36144E-05   -0.31763E-05  2872   0.626E-03
  55 F= -.23282375E+04 E0= -.23282375E+04  d E =-.830541E-03  mag=     3.0000
       N       E                     dE             d eps       ncg     rms          rms(c)
DAV:   1    -0.230819478903E+04    0.89980E-03   -0.21346E-01  4384   0.436E-01    0.132E-01
RMM:   2    -0.230819582317E+04   -0.10341E-02   -0.11225E-02  5777   0.716E-02    0.655E-02
RMM:   3    -0.230819583177E+04   -0.86038E-05   -0.69082E-04  4243   0.249E-02    0.416E-02
RMM:   4    -0.230819581838E+04    0.13395E-04   -0.15449E-04  3714   0.849E-03    0.208E-02
RMM:   5    -0.230819581590E+04    0.24792E-05   -0.24591E-05  2846   0.584E-03
  56 F= -.23282377E+04 E0= -.23282377E+04  d E =-.100030E-02  mag=     3.0000
       N       E                     dE             d eps       ncg     rms          rms(c)
DAV:   1    -0.230819552966E+04    0.28872E-03   -0.24380E-01  4376   0.471E-01    0.138E-01
RMM:   2    -0.230819664277E+04   -0.11131E-02   -0.12142E-02  5731   0.762E-02    0.687E-02
RMM:   3    -0.230819665017E+04   -0.73949E-05   -0.82075E-04  4343   0.265E-02    0.438E-02
RMM:   4    -0.230819663511E+04    0.15061E-04   -0.17555E-04  3785   0.886E-03    0.222E-02
RMM:   5    -0.230819663137E+04    0.37371E-05   -0.28871E-05  2868   0.622E-03
  57 F= -.23282385E+04 E0= -.23282385E+04  d E =-.844547E-03  mag=     3.0000
       N       E                     dE             d eps       ncg     rms          rms(c)
DAV:   1    -0.230819574975E+04    0.88536E-03   -0.23669E-01  4384   0.464E-01    0.136E-01
RMM:   2    -0.230819683448E+04   -0.10847E-02   -0.11811E-02  5699   0.753E-02    0.680E-02
RMM:   3    -0.230819684196E+04   -0.74840E-05   -0.80600E-04  4335   0.264E-02    0.435E-02
RMM:   4    -0.230819682657E+04    0.15389E-04   -0.16946E-04  3767   0.877E-03    0.222E-02
RMM:   5    -0.230819682252E+04    0.40533E-05   -0.29451E-05  2856   0.612E-03
  58 F= -.23282387E+04 E0= -.23282387E+04  d E =-.106405E-02  mag=     3.0000
       N       E                     dE             d eps       ncg     rms          rms(c)
DAV:   1    -0.230819633717E+04    0.48941E-03   -0.30091E-01  4368   0.529E-01    0.155E-01
RMM:   2    -0.230819774473E+04   -0.14076E-02   -0.15274E-02  5673   0.844E-02    0.780E-02
RMM:   3    -0.230819775732E+04   -0.12591E-04   -0.10772E-03  4430   0.307E-02    0.498E-02
RMM:   4    -0.230819773811E+04    0.19204E-04   -0.21875E-04  3966   0.991E-03    0.257E-02
RMM:   5    -0.230819773303E+04    0.50800E-05   -0.39260E-05  2940   0.688E-03
  59 F= -.23282397E+04 E0= -.23282397E+04  d E =-.100294E-02  mag=     3.0000
       N       E                     dE             d eps       ncg     rms          rms(c)
DAV:   1    -0.230819666904E+04    0.10691E-02   -0.25376E-01  4376   0.486E-01    0.143E-01
RMM:   2    -0.230819786550E+04   -0.11965E-02   -0.12960E-02  5673   0.780E-02    0.720E-02
RMM:   3    -0.230819787431E+04   -0.88093E-05   -0.89840E-04  4403   0.288E-02    0.458E-02
RMM:   4    -0.230819785785E+04    0.16458E-04   -0.18977E-04  3894   0.929E-03    0.236E-02
RMM:   5    -0.230819785291E+04    0.49444E-05   -0.30901E-05  2867   0.635E-03
  60 F= -.23282399E+04 E0= -.23282399E+04  d E =-.120772E-02  mag=     3.0000
       N       E                     dE             d eps       ncg     rms          rms(c)
DAV:   1    -0.230819719961E+04    0.65824E-03   -0.28930E-01  4368   0.516E-01    0.148E-01
RMM:   2    -0.230819863419E+04   -0.14346E-02   -0.15428E-02  5672   0.830E-02    0.772E-02
RMM:   3    -0.230819866322E+04   -0.29021E-04   -0.11052E-03  4448   0.303E-02    0.497E-02
RMM:   4    -0.230819864786E+04    0.15355E-04   -0.21438E-04  3880   0.944E-03    0.258E-02
RMM:   5    -0.230819864355E+04    0.43108E-05   -0.35858E-05  2897   0.659E-03
  61 F= -.23282409E+04 E0= -.23282409E+04  d E =-.938103E-03  mag=     3.0000
       N       E                     dE             d eps       ncg     rms          rms(c)
DAV:   1    -0.230819702298E+04    0.16249E-02   -0.34705E-01  4376   0.565E-01    0.163E-01
RMM:   2    -0.230819875194E+04   -0.17290E-02   -0.18576E-02  5662   0.908E-02    0.847E-02
RMM:   3    -0.230819878274E+04   -0.30805E-04   -0.13078E-03  4507   0.327E-02    0.544E-02
RMM:   4    -0.230819876386E+04    0.18881E-04   -0.26564E-04  4017   0.104E-02    0.281E-02
RMM:   5    -0.230819875807E+04    0.57956E-05   -0.41544E-05  2956   0.691E-03
  62 F= -.23282412E+04 E0= -.23282412E+04  d E =-.121457E-02  mag=     3.0000
       N       E                     dE             d eps       ncg     rms          rms(c)
DAV:   1    -0.230819791474E+04    0.84912E-03   -0.36082E-01  4368   0.579E-01    0.166E-01
RMM:   2    -0.230819972317E+04   -0.18084E-02   -0.19423E-02  5655   0.936E-02    0.867E-02
RMM:   3    -0.230819974758E+04   -0.24413E-04   -0.12636E-03  4530   0.333E-02    0.550E-02
RMM:   4    -0.230819972614E+04    0.21442E-04   -0.26893E-04  4040   0.109E-02    0.273E-02
RMM:   5    -0.230819972242E+04    0.37214E-05   -0.38352E-05  2923   0.709E-03
  63 F= -.23282423E+04 E0= -.23282423E+04  d E =-.113060E-02  mag=     3.0000
       N       E                     dE             d eps       ncg     rms          rms(c)
DAV:   1    -0.230819845113E+04    0.12750E-02   -0.27826E-01  4384   0.508E-01    0.146E-01
RMM:   2    -0.230819984951E+04   -0.13984E-02   -0.15008E-02  5662   0.826E-02    0.765E-02
RMM:   3    -0.230819986407E+04   -0.14568E-04   -0.93068E-04  4452   0.289E-02    0.484E-02
RMM:   4    -0.230819984576E+04    0.18309E-04   -0.20671E-04  3924   0.975E-03    0.236E-02
RMM:   5    -0.230819984281E+04    0.29524E-05   -0.29580E-05  2873   0.639E-03
  64 F= -.23282426E+04 E0= -.23282426E+04  d E =-.139756E-02  mag=     3.0000
       N       E                     dE             d eps       ncg     rms          rms(c)
DAV:   1    -0.230819896887E+04    0.87689E-03   -0.34140E-01  4368   0.569E-01    0.172E-01
RMM:   2    -0.230820070187E+04   -0.17330E-02   -0.18786E-02  5606   0.921E-02    0.858E-02
RMM:   3    -0.230820071122E+04   -0.93505E-05   -0.12088E-03  4507   0.323E-02    0.536E-02
RMM:   4    -0.230820068801E+04    0.23207E-04   -0.26982E-04  4076   0.111E-02    0.263E-02
RMM:   5    -0.230820068467E+04    0.33446E-05   -0.38928E-05  2957   0.726E-03
  65 F= -.23282436E+04 E0= -.23282436E+04  d E =-.101271E-02  mag=     3.0000
       N       E                     dE             d eps       ncg     rms          rms(c)
DAV:   1    -0.230820019126E+04    0.49676E-03   -0.95260E-02  4512   0.301E-01    0.917E-02
RMM:   2    -0.230820068032E+04   -0.48906E-03   -0.52775E-03  5703   0.499E-02    0.461E-02
RMM:   3    -0.230820068635E+04   -0.60347E-05   -0.35573E-04  3825   0.191E-02    0.291E-02
RMM:   4    -0.230820067940E+04    0.69499E-05   -0.74401E-05  3068   0.592E-03
  66 F= -.23282437E+04 E0= -.23282437E+04  d E =-.109798E-02  mag=     3.0000
       N       E                     dE             d eps       ncg     rms          rms(c)
DAV:   1    -0.230819936402E+04    0.13223E-02   -0.37410E-01  4368   0.585E-01    0.179E-01
RMM:   2    -0.230820138791E+04   -0.20239E-02   -0.21751E-02  5704   0.940E-02    0.923E-02
RMM:   3    -0.230820142969E+04   -0.41785E-04   -0.14877E-03  4573   0.340E-02    0.580E-02
RMM:   4    -0.230820140778E+04    0.21911E-04   -0.30289E-04  4065   0.110E-02    0.288E-02
RMM:   5    -0.230820140393E+04    0.38530E-05   -0.40635E-05  2937   0.745E-03
  67 F= -.23282446E+04 E0= -.23282446E+04  d E =-.912049E-03  mag=     3.0000
       N       E                     dE             d eps       ncg     rms          rms(c)
DAV:   1    -0.230820081940E+04    0.58838E-03   -0.96319E-02  4512   0.297E-01    0.914E-02
RMM:   2    -0.230820135103E+04   -0.53163E-03   -0.56740E-03  5764   0.490E-02    0.475E-02
RMM:   3    -0.230820136673E+04   -0.15706E-04   -0.42129E-04  3736   0.185E-02    0.302E-02
RMM:   4    -0.230820136159E+04    0.51381E-05   -0.80118E-05  2943   0.580E-03
  68 F= -.23282446E+04 E0= -.23282446E+04  d E =-.964970E-03  mag=     3.0000
       N       E                     dE             d eps       ncg     rms          rms(c)
DAV:   1    -0.230819982712E+04    0.15396E-02   -0.38685E-01  4368   0.591E-01    0.192E-01
RMM:   2    -0.230820184662E+04   -0.20195E-02   -0.22042E-02  5595   0.952E-02    0.948E-02
RMM:   3    -0.230820187682E+04   -0.30204E-04   -0.15741E-03  4546   0.375E-02    0.588E-02
RMM:   4    -0.230820185049E+04    0.26333E-04   -0.31670E-04  4114   0.117E-02    0.292E-02
RMM:   5    -0.230820184541E+04    0.50785E-05   -0.41733E-05  3010   0.824E-03
  69 F= -.23282453E+04 E0= -.23282453E+04  d E =-.706721E-03  mag=     3.0000
       N       E                     dE             d eps       ncg     rms          rms(c)
DAV:   1    -0.230820162038E+04    0.23011E-03   -0.23349E-02  4888   0.146E-01    0.482E-02
RMM:   2    -0.230820174869E+04   -0.12831E-03   -0.13836E-03  5687   0.253E-02    0.244E-02
RMM:   3    -0.230820175250E+04   -0.38132E-05   -0.11628E-04  2923   0.106E-02    0.154E-02
RMM:   4    -0.230820175110E+04    0.14020E-05   -0.20964E-05  2823   0.341E-03
  70 F= -.23282453E+04 E0= -.23282453E+04  d E =-.667469E-03  mag=     3.0000
       N       E                     dE             d eps       ncg     rms          rms(c)
DAV:   1    -0.230820060918E+04    0.11433E-02   -0.28768E-01  4368   0.494E-01    0.157E-01
RMM:   2    -0.230820218189E+04   -0.15727E-02   -0.16883E-02  5645   0.781E-02    0.806E-02
RMM:   3    -0.230820223003E+04   -0.48142E-04   -0.12358E-03  4386   0.272E-02    0.500E-02
RMM:   4    -0.230820221447E+04    0.15561E-04   -0.22450E-04  3868   0.900E-03    0.246E-02
RMM:   5    -0.230820221158E+04    0.28881E-05   -0.29775E-05  2882   0.631E-03
  71 F= -.23282460E+04 E0= -.23282460E+04  d E =-.689768E-03  mag=     3.0000
       N       E                     dE             d eps       ncg     rms          rms(c)
DAV:   1    -0.230820068146E+04    0.15330E-02   -0.25750E-01  4368   0.467E-01    0.149E-01
RMM:   2    -0.230820210415E+04   -0.14227E-02   -0.15212E-02  5597   0.743E-02    0.766E-02
RMM:   3    -0.230820214824E+04   -0.44090E-04   -0.11003E-03  4378   0.265E-02    0.473E-02
RMM:   4    -0.230820213484E+04    0.13402E-04   -0.19968E-04  3795   0.854E-03    0.234E-02
RMM:   5    -0.230820213251E+04    0.23306E-05   -0.25539E-05  2855   0.589E-03
  72 F= -.23282461E+04 E0= -.23282461E+04  d E =-.828095E-03  mag=     3.0000
       N       E                     dE             d eps       ncg     rms          rms(c)
DAV:   1    -0.230820078137E+04    0.13535E-02   -0.36497E-01  4368   0.559E-01    0.197E-01
RMM:   2    -0.230820279004E+04   -0.20087E-02   -0.21947E-02  5590   0.917E-02    0.943E-02
RMM:   3    -0.230820283585E+04   -0.45812E-04   -0.16862E-03  4546   0.361E-02    0.575E-02
RMM:   4    -0.230820281110E+04    0.24742E-04   -0.31258E-04  4092   0.113E-02    0.283E-02
RMM:   5    -0.230820280590E+04    0.52074E-05   -0.41297E-05  2997   0.787E-03
  73 F= -.23282470E+04 E0= -.23282470E+04  d E =-.913769E-03  mag=     3.0000
       N       E                     dE             d eps       ncg     rms          rms(c)
DAV:   1    -0.230820202011E+04    0.79100E-03   -0.97098E-02  4496   0.289E-01    0.102E-01
RMM:   2    -0.230820255977E+04   -0.53967E-03   -0.58760E-03  5699   0.486E-02    0.496E-02
RMM:   3    -0.230820257388E+04   -0.14106E-04   -0.46886E-04  3857   0.195E-02    0.302E-02
RMM:   4    -0.230820256604E+04    0.78355E-05   -0.81782E-05  3128   0.600E-03
  74 F= -.23282469E+04 E0= -.23282469E+04  d E =-.798052E-03  mag=     3.0000
       N       E                     dE             d eps       ncg     rms          rms(c)
DAV:   1    -0.230820254425E+04    0.29625E-04   -0.41020E-02  4496   0.187E-01    0.649E-02
RMM:   2    -0.230820276500E+04   -0.22074E-03   -0.24293E-03  5856   0.327E-02    0.306E-02
RMM:   3    -0.230820276876E+04   -0.37649E-05   -0.18531E-04  3231   0.122E-02    0.183E-02
RMM:   4    -0.230820276600E+04    0.27624E-05   -0.29754E-05  2827   0.409E-03
  75 F= -.23282470E+04 E0= -.23282470E+04  d E =-.918288E-03  mag=     3.0000
       N       E                     dE             d eps       ncg     rms          rms(c)
DAV:   1    -0.230820168781E+04    0.10810E-02   -0.25419E-01  4368   0.449E-01    0.158E-01
RMM:   2    -0.230820324149E+04   -0.15537E-02   -0.16726E-02  5700   0.738E-02    0.789E-02
RMM:   3    -0.230820329750E+04   -0.56016E-04   -0.12559E-03  4405   0.290E-02    0.481E-02
RMM:   4    -0.230820328194E+04    0.15565E-04   -0.22777E-04  3851   0.900E-03    0.239E-02
RMM:   5    -0.230820327724E+04    0.46968E-05   -0.29340E-05  2877   0.647E-03
  76 F= -.23282477E+04 E0= -.23282477E+04  d E =-.709459E-03  mag=     3.0000
       N       E                     dE             d eps       ncg     rms          rms(c)
DAV:   1    -0.230820270851E+04    0.57343E-03   -0.77245E-02  4400   0.248E-01    0.884E-02
RMM:   2    -0.230820319245E+04   -0.48395E-03   -0.51735E-03  5780   0.418E-02    0.451E-02
RMM:   3    -0.230820321279E+04   -0.20340E-04   -0.40355E-04  3609   0.168E-02    0.276E-02
RMM:   4    -0.230820320822E+04    0.45771E-05   -0.67098E-05  2879   0.515E-03
  77 F= -.23282478E+04 E0= -.23282478E+04  d E =-.749985E-03  mag=     3.0000
       N       E                     dE             d eps       ncg     rms          rms(c)
DAV:   1    -0.230820190907E+04    0.13037E-02   -0.27804E-01  4368   0.469E-01    0.165E-01
RMM:   2    -0.230820370840E+04   -0.17993E-02   -0.19193E-02  5789   0.772E-02    0.837E-02
RMM:   3    -0.230820378452E+04   -0.76123E-04   -0.14672E-03  4474   0.291E-02    0.513E-02
RMM:   4    -0.230820376884E+04    0.15680E-04   -0.25193E-04  3807   0.897E-03    0.261E-02
RMM:   5    -0.230820376416E+04    0.46825E-05   -0.34860E-05  2896   0.665E-03
  78 F= -.23282485E+04 E0= -.23282485E+04  d E =-.757329E-03  mag=     3.0000
       N       E                     dE             d eps       ncg     rms          rms(c)
DAV:   1    -0.230820307939E+04    0.68945E-03   -0.93431E-02  4432   0.272E-01    0.963E-02
RMM:   2    -0.230820369763E+04   -0.61825E-03   -0.65703E-03  5832   0.463E-02    0.491E-02
RMM:   3    -0.230820372786E+04   -0.30224E-04   -0.52302E-04  3688   0.182E-02    0.301E-02
RMM:   4    -0.230820372225E+04    0.56055E-05   -0.82366E-05  2863   0.533E-03
  79 F= -.23282486E+04 E0= -.23282486E+04  d E =-.832005E-03  mag=     3.0000
       N       E                     dE             d eps       ncg     rms          rms(c)
DAV:   1    -0.230820172340E+04    0.20045E-02   -0.33086E-01  4368   0.512E-01    0.186E-01
RMM:   2    -0.230820410238E+04   -0.23790E-02   -0.25325E-02  5769   0.867E-02    0.950E-02
RMM:   3    -0.230820420599E+04   -0.10361E-03   -0.19073E-03  4586   0.340E-02    0.583E-02
RMM:   4    -0.230820418526E+04    0.20724E-04   -0.33476E-04  3983   0.105E-02    0.299E-02
RMM:   5    -0.230820417921E+04    0.60472E-05   -0.44766E-05  2946   0.758E-03
  80 F= -.23282493E+04 E0= -.23282493E+04  d E =-.695718E-03  mag=     3.0000
       N       E                     dE             d eps       ncg     rms          rms(c)
DAV:   1    -0.230820349783E+04    0.68743E-03   -0.66221E-02  4528   0.229E-01    0.839E-02
RMM:   2    -0.230820398457E+04   -0.48674E-03   -0.51588E-03  5841   0.405E-02    0.435E-02
RMM:   3    -0.230820400781E+04   -0.23235E-04   -0.39336E-04  3557   0.162E-02    0.267E-02
RMM:   4    -0.230820400340E+04    0.44067E-05   -0.65716E-05  2851   0.490E-03
  81 F= -.23282492E+04 E0= -.23282492E+04  d E =-.626680E-03  mag=     3.0000
       N       E                     dE             d eps       ncg     rms          rms(c)
DAV:   1    -0.230820394742E+04    0.60383E-04   -0.26249E-02  4464   0.144E-01    0.515E-02
RMM:   2    -0.230820413268E+04   -0.18526E-03   -0.19787E-03  5852   0.259E-02    0.257E-02
RMM:   3    -0.230820414086E+04   -0.81803E-05   -0.15933E-04  2906   0.991E-03    0.154E-02
RMM:   4    -0.230820413918E+04    0.16801E-05   -0.25523E-05  2820   0.327E-03
  82 F= -.23282493E+04 E0= -.23282493E+04  d E =-.696197E-03  mag=     3.0000
       N       E                     dE             d eps       ncg     rms          rms(c)
DAV:   1    -0.230820204875E+04    0.20921E-02   -0.29480E-01  4368   0.483E-01    0.178E-01
RMM:   2    -0.230820439802E+04   -0.23493E-02   -0.24800E-02  5692   0.823E-02    0.893E-02
RMM:   3    -0.230820451601E+04   -0.11799E-03   -0.19458E-03  4510   0.317E-02    0.549E-02
RMM:   4    -0.230820449823E+04    0.17788E-04   -0.31595E-04  3894   0.941E-03    0.295E-02
RMM:   5    -0.230820448949E+04    0.87404E-05   -0.45985E-05  2942   0.701E-03
  83 F= -.23282499E+04 E0= -.23282499E+04  d E =-.628225E-03  mag=     3.0000
       N       E                     dE             d eps       ncg     rms          rms(c)
DAV:   1    -0.230820409068E+04    0.40754E-03   -0.34919E-02  4560   0.167E-01    0.627E-02
RMM:   2    -0.230820437859E+04   -0.28791E-03   -0.30231E-03  5942   0.304E-02    0.323E-02
RMM:   3    -0.230820439523E+04   -0.16635E-04   -0.24580E-04  3039   0.116E-02    0.202E-02
RMM:   4    -0.230820439347E+04    0.17586E-05   -0.37722E-05  2830   0.370E-03
  84 F= -.23282499E+04 E0= -.23282499E+04  d E =-.628397E-03  mag=     3.0000
       N       E                     dE             d eps       ncg     rms          rms(c)
DAV:   1    -0.230820260580E+04    0.17894E-02   -0.24042E-01  4368   0.424E-01    0.156E-01
RMM:   2    -0.230820466961E+04   -0.20638E-02   -0.21514E-02  5852   0.722E-02    0.836E-02
RMM:   3    -0.230820479331E+04   -0.12370E-03   -0.17185E-03  4182   0.265E-02    0.516E-02
RMM:   4    -0.230820478176E+04    0.11554E-04   -0.26466E-04  3577   0.833E-03    0.280E-02
RMM:   5    -0.230820477694E+04    0.48139E-05   -0.41177E-05  2905   0.621E-03
  85 F= -.23282506E+04 E0= -.23282506E+04  d E =-.636075E-03  mag=     3.0000
       N       E                     dE             d eps       ncg     rms          rms(c)
DAV:   1    -0.230820324159E+04    0.15402E-02   -0.15312E-01  4368   0.338E-01    0.125E-01
RMM:   2    -0.230820457662E+04   -0.13350E-02   -0.13900E-02  5886   0.586E-02    0.669E-02
RMM:   3    -0.230820465921E+04   -0.82590E-04   -0.11052E-03  3863   0.227E-02    0.408E-02
RMM:   4    -0.230820465187E+04    0.73354E-05   -0.17564E-04  3080   0.679E-03    0.219E-02
RMM:   5    -0.230820464879E+04    0.30855E-05   -0.24761E-05  2843   0.493E-03
  86 F= -.23282507E+04 E0= -.23282507E+04  d E =-.708849E-03  mag=     3.0000
       N       E                     dE             d eps       ncg     rms          rms(c)
DAV:   1    -0.230820287893E+04    0.17729E-02   -0.25561E-01  4368   0.445E-01    0.165E-01
RMM:   2    -0.230820500871E+04   -0.21298E-02   -0.22294E-02  5858   0.758E-02    0.854E-02
RMM:   3    -0.230820513473E+04   -0.12601E-03   -0.17935E-03  4400   0.299E-02    0.518E-02
RMM:   4    -0.230820512111E+04    0.13622E-04   -0.27318E-04  3669   0.876E-03    0.276E-02
RMM:   5    -0.230820511685E+04    0.42574E-05   -0.38915E-05  2890   0.660E-03
  87 F= -.23282513E+04 E0= -.23282513E+04  d E =-.658721E-03  mag=     3.0000
       N       E                     dE             d eps       ncg     rms          rms(c)
DAV:   1    -0.230820415101E+04    0.97009E-03   -0.10095E-01  4384   0.279E-01    0.104E-01
RMM:   2    -0.230820499923E+04   -0.84821E-03   -0.88680E-03  5859   0.487E-02    0.544E-02
RMM:   3    -0.230820505292E+04   -0.53694E-04   -0.73703E-04  3671   0.199E-02    0.329E-02
RMM:   4    -0.230820504752E+04    0.54054E-05   -0.10903E-04  2934   0.569E-03    0.175E-02
RMM:   5    -0.230820504609E+04    0.14228E-05   -0.15552E-05  2826   0.423E-03
  88 F= -.23282514E+04 E0= -.23282514E+04  d E =-.707453E-03  mag=     3.0000
       N       E                     dE             d eps       ncg     rms          rms(c)
DAV:   1    -0.230820322795E+04    0.18196E-02   -0.25005E-01  4368   0.437E-01    0.161E-01
RMM:   2    -0.230820544221E+04   -0.22143E-02   -0.23056E-02  5838   0.740E-02    0.857E-02
RMM:   3    -0.230820558025E+04   -0.13805E-03   -0.18249E-03  4384   0.293E-02    0.518E-02
RMM:   4    -0.230820556757E+04    0.12680E-04   -0.27365E-04  3682   0.849E-03    0.276E-02
RMM:   5    -0.230820556282E+04    0.47507E-05   -0.36928E-05  2889   0.638E-03
  89 F= -.23282520E+04 E0= -.23282520E+04  d E =-.658304E-03  mag=     3.0000
       N       E                     dE             d eps       ncg     rms          rms(c)
DAV:   1    -0.230820414927E+04    0.14183E-02   -0.14790E-01  4408   0.337E-01    0.125E-01
RMM:   2    -0.230820546584E+04   -0.13166E-02   -0.13704E-02  5844   0.577E-02    0.667E-02
RMM:   3    -0.230820555197E+04   -0.86127E-04   -0.11211E-03  3881   0.227E-02    0.402E-02
RMM:   4    -0.230820554430E+04    0.76663E-05   -0.15964E-04  3031   0.670E-03    0.216E-02
RMM:   5    -0.230820554198E+04    0.23194E-05   -0.24070E-05  2838   0.506E-03
  90 F= -.23282521E+04 E0= -.23282521E+04  d E =-.745831E-03  mag=     3.0000
       N       E                     dE             d eps       ncg     rms          rms(c)
DAV:   1    -0.230820373120E+04    0.18131E-02   -0.23014E-01  4368   0.414E-01    0.157E-01
RMM:   2    -0.230820593154E+04   -0.22003E-02   -0.22815E-02  5912   0.708E-02    0.838E-02
RMM:   3    -0.230820609204E+04   -0.16050E-03   -0.19653E-03  4299   0.282E-02    0.508E-02
RMM:   4    -0.230820608342E+04    0.86193E-05   -0.27016E-04  3314   0.791E-03    0.281E-02
RMM:   5    -0.230820607922E+04    0.42043E-05   -0.40662E-05  2893   0.613E-03
  91 F= -.23282528E+04 E0= -.23282528E+04  d E =-.703278E-03  mag=     3.0000
       N       E                     dE             d eps       ncg     rms          rms(c)
DAV:   1    -0.230820360164E+04    0.24818E-02   -0.24082E-01  4368   0.424E-01    0.161E-01
RMM:   2    -0.230820591769E+04   -0.23160E-02   -0.24011E-02  5891   0.728E-02    0.861E-02
RMM:   3    -0.230820609022E+04   -0.17253E-03   -0.21009E-03  4330   0.290E-02    0.522E-02
RMM:   4    -0.230820608120E+04    0.90153E-05   -0.28574E-04  3371   0.800E-03    0.290E-02
RMM:   5    -0.230820607640E+04    0.48053E-05   -0.42781E-05  2896   0.617E-03
  92 F= -.23282530E+04 E0= -.23282530E+04  d E =-.869291E-03  mag=     3.0000
       N       E                     dE             d eps       ncg     rms          rms(c)
DAV:   1    -0.230820306913E+04    0.30121E-02   -0.32841E-01  4368   0.496E-01    0.190E-01
RMM:   2    -0.230820636769E+04   -0.32986E-02   -0.34158E-02  5886   0.855E-02    0.101E-01
RMM:   3    -0.230820661464E+04   -0.24696E-03   -0.29649E-03  4659   0.345E-02    0.614E-02
RMM:   4    -0.230820660443E+04    0.10214E-04   -0.40297E-04  3666   0.937E-03    0.347E-02
RMM:   5    -0.230820659825E+04    0.61777E-05   -0.58653E-05  2991   0.716E-03
  93 F= -.23282537E+04 E0= -.23282537E+04  d E =-.752431E-03  mag=     3.0000
       N       E                     dE             d eps       ncg     rms          rms(c)
DAV:   1    -0.230820532295E+04    0.12815E-02   -0.11013E-01  4400   0.287E-01    0.111E-01
RMM:   2    -0.230820644099E+04   -0.11180E-02   -0.11576E-02  5935   0.507E-02    0.600E-02
RMM:   3    -0.230820653092E+04   -0.89937E-04   -0.10511E-03  3693   0.211E-02    0.363E-02
RMM:   4    -0.230820652802E+04    0.29008E-05   -0.13770E-04  2883   0.571E-03    0.206E-02
RMM:   5    -0.230820652681E+04    0.12074E-05   -0.21049E-05  2831   0.434E-03
  94 F= -.23282538E+04 E0= -.23282538E+04  d E =-.814015E-03  mag=     3.0000
       N       E                     dE             d eps       ncg     rms          rms(c)
DAV:   1    -0.230820358443E+04    0.29436E-02   -0.30450E-01  4368   0.486E-01    0.191E-01
RMM:   2    -0.230820674478E+04   -0.31604E-02   -0.32837E-02  5864   0.839E-02    0.979E-02
RMM:   3    -0.230820696087E+04   -0.21609E-03   -0.26828E-03  4642   0.340E-02    0.593E-02
RMM:   4    -0.230820695292E+04    0.79480E-05   -0.38480E-04  3784   0.918E-03    0.342E-02
RMM:   5    -0.230820694512E+04    0.77992E-05   -0.56229E-05  3010   0.723E-03
  95 F= -.23282544E+04 E0= -.23282544E+04  d E =-.631384E-03  mag=     3.0000
       N       E                     dE             d eps       ncg     rms          rms(c)
DAV:   1    -0.230820632136E+04    0.63156E-03   -0.48713E-02  4624   0.195E-01    0.781E-02
RMM:   2    -0.230820683130E+04   -0.50994E-03   -0.52969E-03  5945   0.354E-02    0.408E-02
RMM:   3    -0.230820687143E+04   -0.40131E-04   -0.47414E-04  3267   0.147E-02    0.248E-02
RMM:   4    -0.230820687057E+04    0.86011E-06   -0.64420E-05  2838   0.414E-03
  96 F= -.23282544E+04 E0= -.23282544E+04  d E =-.641967E-03  mag=     3.0000
       N       E                     dE             d eps       ncg     rms          rms(c)
DAV:   1    -0.230820357840E+04    0.32930E-02   -0.32541E-01  4368   0.497E-01    0.195E-01
RMM:   2    -0.230820708995E+04   -0.35115E-02   -0.36386E-02  5770   0.859E-02    0.103E-01
RMM:   3    -0.230820734361E+04   -0.25367E-03   -0.30463E-03  4536   0.359E-02    0.634E-02
RMM:   4    -0.230820733366E+04    0.99544E-05   -0.43188E-04  3821   0.939E-03    0.374E-02
RMM:   5    -0.230820732406E+04    0.95971E-05   -0.63026E-05  3034   0.732E-03
  97 F= -.23282550E+04 E0= -.23282550E+04  d E =-.609127E-03  mag=     3.0000
       N       E                     dE             d eps       ncg     rms          rms(c)
DAV:   1    -0.230820691549E+04    0.41817E-03   -0.31069E-02  4624   0.154E-01    0.622E-02
RMM:   2    -0.230820725527E+04   -0.33978E-03   -0.35271E-03  5924   0.287E-02    0.339E-02
RMM:   3    -0.230820728299E+04   -0.27722E-04   -0.31529E-04  2922   0.115E-02    0.211E-02
RMM:   4    -0.230820728285E+04    0.14520E-06   -0.44071E-05  2829   0.349E-03
  98 F= -.23282550E+04 E0= -.23282550E+04  d E =-.615865E-03  mag=     3.0000
       N       E                     dE             d eps       ncg     rms          rms(c)
DAV:   1    -0.230820412446E+04    0.31585E-02   -0.34025E-01  4368   0.523E-01    0.204E-01
RMM:   2    -0.230820758579E+04   -0.34613E-02   -0.36011E-02  5721   0.901E-02    0.103E-01
RMM:   3    -0.230820781232E+04   -0.22653E-03   -0.29542E-03  4611   0.355E-02    0.628E-02
RMM:   4    -0.230820780003E+04    0.12289E-04   -0.43190E-04  3933   0.988E-03    0.361E-02
RMM:   5    -0.230820779206E+04    0.79747E-05   -0.65248E-05  3056   0.766E-03
  99 F= -.23282557E+04 E0= -.23282557E+04  d E =-.605870E-03  mag=     3.0000
       N       E                     dE             d eps       ncg     rms          rms(c)
DAV:   1    -0.230820758029E+04    0.21974E-03   -0.16448E-02  5000   0.115E-01    0.472E-02
RMM:   2    -0.230820775187E+04   -0.17158E-03   -0.17857E-03  5724   0.220E-02    0.253E-02
RMM:   3    -0.230820776615E+04   -0.14280E-04   -0.16619E-04  2831   0.898E-03    0.161E-02
RMM:   4    -0.230820776639E+04   -0.24223E-06   -0.23461E-05  2818   0.280E-03
 100 F= -.23282556E+04 E0= -.23282556E+04  d E =-.601298E-03  mag=     3.0000
       N       E                     dE             d eps       ncg     rms          rms(c)
DAV:   1    -0.230820499667E+04    0.27695E-02   -0.27855E-01  4368   0.464E-01    0.181E-01
RMM:   2    -0.230820790837E+04   -0.29117E-02   -0.30273E-02  5657   0.804E-02    0.945E-02
RMM:   3    -0.230820809832E+04   -0.18995E-03   -0.24481E-03  4448   0.312E-02    0.577E-02
RMM:   4    -0.230820808516E+04    0.13160E-04   -0.36229E-04  3860   0.901E-03    0.331E-02
RMM:   5    -0.230820807700E+04    0.81568E-05   -0.54549E-05  2981   0.695E-03
 101 F= -.23282561E+04 E0= -.23282561E+04  d E =-.424570E-03  mag=     3.0000
       N       E                     dE             d eps       ncg     rms          rms(c)
DAV:   1    -0.230820801656E+04    0.68604E-04   -0.34191E-03  5216   0.518E-02    0.233E-02
RMM:   2    -0.230820805413E+04   -0.37575E-04   -0.39506E-04  4217   0.104E-02    0.139E-02
RMM:   3    -0.230820805819E+04   -0.40571E-05   -0.43059E-05  2787   0.547E-03
 102 F= -.23282561E+04 E0= -.23282561E+04  d E =-.418495E-03  mag=     3.0000
       N       E                     dE             d eps       ncg     rms          rms(c)
DAV:   1    -0.230820545214E+04    0.26020E-02   -0.25845E-01  4368   0.446E-01    0.178E-01
RMM:   2    -0.230820820266E+04   -0.27505E-02   -0.28580E-02  5585   0.773E-02    0.922E-02
RMM:   3    -0.230820837660E+04   -0.17394E-03   -0.22763E-03  4359   0.301E-02    0.563E-02
RMM:   4    -0.230820836785E+04    0.87467E-05   -0.34609E-04  3866   0.879E-03    0.321E-02
RMM:   5    -0.230820836103E+04    0.68234E-05   -0.49398E-05  2935   0.679E-03
 103 F= -.23282565E+04 E0= -.23282565E+04  d E =-.453774E-03  mag=     3.0000
       N       E                     dE             d eps       ncg     rms          rms(c)
DAV:   1    -0.230820820986E+04    0.15799E-03   -0.90392E-03  5104   0.837E-02    0.355E-02
RMM:   2    -0.230820830820E+04   -0.98339E-04   -0.10234E-03  5435   0.163E-02    0.196E-02
RMM:   3    -0.230820831742E+04   -0.92194E-05   -0.10427E-04  2809   0.702E-03    0.126E-02
RMM:   4    -0.230820831766E+04   -0.23782E-06   -0.14425E-05  2804   0.221E-03
 104 F= -.23282565E+04 E0= -.23282565E+04  d E =-.438828E-03  mag=     3.0000
       N       E                     dE             d eps       ncg     rms          rms(c)
DAV:   1    -0.230820649753E+04    0.18199E-02   -0.17997E-01  4368   0.363E-01    0.144E-01
RMM:   2    -0.230820849908E+04   -0.20015E-02   -0.20683E-02  5679   0.628E-02    0.770E-02
RMM:   3    -0.230820863792E+04   -0.13883E-03   -0.16761E-03  3939   0.246E-02    0.467E-02
RMM:   4    -0.230820863115E+04    0.67673E-05   -0.24241E-04  3245   0.720E-03    0.271E-02
RMM:   5    -0.230820862574E+04    0.54035E-05   -0.36223E-05  2881   0.551E-03
 105 F= -.23282569E+04 E0= -.23282569E+04  d E =-.435580E-03  mag=     3.0000
       N       E                     dE             d eps       ncg     rms          rms(c)
DAV:   1    -0.230820746319E+04    0.11680E-02   -0.92723E-02  4384   0.261E-01    0.105E-01
RMM:   2    -0.230820850115E+04   -0.10380E-02   -0.10738E-02  5946   0.469E-02    0.562E-02
RMM:   3    -0.230820858077E+04   -0.79617E-04   -0.92536E-04  3487   0.189E-02    0.339E-02
RMM:   4    -0.230820857769E+04    0.30852E-05   -0.12530E-04  2872   0.527E-03    0.198E-02
RMM:   5    -0.230820857540E+04    0.22874E-05   -0.18832E-05  2826   0.401E-03
 106 F= -.23282570E+04 E0= -.23282570E+04  d E =-.476667E-03  mag=     3.0000
       N       E                     dE             d eps       ncg     rms          rms(c)
DAV:   1    -0.230820654151E+04    0.20362E-02   -0.21641E-01  4368   0.405E-01    0.162E-01
RMM:   2    -0.230820889270E+04   -0.23512E-02   -0.24296E-02  5898   0.708E-02    0.836E-02
RMM:   3    -0.230820905898E+04   -0.16628E-03   -0.20315E-03  4231   0.279E-02    0.506E-02
RMM:   4    -0.230820905189E+04    0.70932E-05   -0.28041E-04  3386   0.788E-03    0.292E-02
RMM:   5    -0.230820904638E+04    0.55070E-05   -0.42940E-05  2905   0.630E-03
 107 F= -.23282575E+04 E0= -.23282575E+04  d E =-.560146E-03  mag=     3.0000
       N       E                     dE             d eps       ncg     rms          rms(c)
DAV:   1    -0.230820800260E+04    0.10493E-02   -0.87554E-02  4400   0.257E-01    0.104E-01
RMM:   2    -0.230820896482E+04   -0.96222E-03   -0.99377E-03  5999   0.467E-02    0.542E-02
RMM:   3    -0.230820903797E+04   -0.73150E-04   -0.86638E-04  3542   0.187E-02    0.328E-02
RMM:   4    -0.230820903557E+04    0.23971E-05   -0.11450E-04  2859   0.521E-03    0.192E-02
RMM:   5    -0.230820903387E+04    0.16947E-05   -0.18090E-05  2829   0.403E-03
 108 F= -.23282576E+04 E0= -.23282576E+04  d E =-.604129E-03  mag=     3.0000
       N       E                     dE             d eps       ncg     rms          rms(c)
DAV:   1    -0.230820685710E+04    0.21785E-02   -0.21273E-01  4368   0.388E-01    0.160E-01
RMM:   2    -0.230820928755E+04   -0.24305E-02   -0.25112E-02  5949   0.689E-02    0.852E-02
RMM:   3    -0.230820946682E+04   -0.17928E-03   -0.21267E-03  4271   0.269E-02    0.516E-02
RMM:   4    -0.230820945879E+04    0.80306E-05   -0.29303E-04  3368   0.789E-03    0.298E-02
RMM:   5    -0.230820945234E+04    0.64493E-05   -0.46156E-05  2922   0.627E-03
 109 F= -.23282580E+04 E0= -.23282580E+04  d E =-.457283E-03  mag=     3.0000
       N       E                     dE             d eps       ncg     rms          rms(c)
DAV:   1    -0.230820911689E+04    0.34191E-03   -0.25810E-02  4592   0.135E-01    0.575E-02
RMM:   2    -0.230820941730E+04   -0.30042E-03   -0.31089E-03  5861   0.259E-02    0.314E-02
RMM:   3    -0.230820944359E+04   -0.26287E-04   -0.30063E-04  2876   0.106E-02    0.194E-02
RMM:   4    -0.230820944329E+04    0.30019E-06   -0.38326E-05  2818   0.318E-03
 110 F= -.23282580E+04 E0= -.23282580E+04  d E =-.461619E-03  mag=     3.0000
       N       E                     dE             d eps       ncg     rms          rms(c)
DAV:   1    -0.230820702489E+04    0.24187E-02   -0.23479E-01  4368   0.408E-01    0.170E-01
RMM:   2    -0.230820972020E+04   -0.26953E-02   -0.27819E-02  5767   0.718E-02    0.901E-02
RMM:   3    -0.230820991362E+04   -0.19342E-03   -0.23172E-03  4223   0.292E-02    0.544E-02
RMM:   4    -0.230820990474E+04    0.88782E-05   -0.33049E-04  3625   0.827E-03    0.310E-02
RMM:   5    -0.230820989743E+04    0.73117E-05   -0.47976E-05  2918   0.645E-03
 111 F= -.23282586E+04 E0= -.23282586E+04  d E =-.524730E-03  mag=     3.0000
       N       E                     dE             d eps       ncg     rms          rms(c)
DAV:   1    -0.230820949779E+04    0.40695E-03   -0.30364E-02  4608   0.147E-01    0.627E-02
RMM:   2    -0.230820985351E+04   -0.35572E-03   -0.36805E-03  5861   0.278E-02    0.338E-02
RMM:   3    -0.230820988335E+04   -0.29840E-04   -0.34170E-04  2909   0.119E-02    0.207E-02
RMM:   4    -0.230820988276E+04    0.59349E-06   -0.45314E-05  2830   0.346E-03
 112 F= -.23282586E+04 E0= -.23282586E+04  d E =-.535397E-03  mag=     3.0000
       N       E                     dE             d eps       ncg     rms          rms(c)
DAV:   1    -0.230820746660E+04    0.24168E-02   -0.22252E-01  4368   0.398E-01    0.170E-01
RMM:   2    -0.230821004235E+04   -0.25758E-02   -0.26694E-02  5750   0.700E-02    0.885E-02
RMM:   3    -0.230821021975E+04   -0.17740E-03   -0.21950E-03  4289   0.300E-02    0.533E-02
RMM:   4    -0.230821020951E+04    0.10238E-04   -0.32110E-04  3726   0.835E-03    0.301E-02
RMM:   5    -0.230821020275E+04    0.67662E-05   -0.46505E-05  2913   0.661E-03
 113 F= -.23282590E+04 E0= -.23282590E+04  d E =-.453734E-03  mag=     3.0000
       N       E                     dE             d eps       ncg     rms          rms(c)
DAV:   1    -0.230820990586E+04    0.30365E-03   -0.18157E-02  4880   0.114E-01    0.504E-02
RMM:   2    -0.230821012121E+04   -0.21535E-03   -0.22359E-03  5732   0.221E-02    0.270E-02
RMM:   3    -0.230821014027E+04   -0.19061E-04   -0.21749E-04  2842   0.964E-03    0.167E-02
RMM:   4    -0.230821014009E+04    0.17458E-06   -0.29460E-05  2827   0.286E-03
 114 F= -.23282590E+04 E0= -.23282590E+04  d E =-.429401E-03  mag=     3.0000
       N       E                     dE             d eps       ncg     rms          rms(c)
DAV:   1    -0.230821010556E+04    0.34708E-04   -0.69197E-03  4544   0.701E-02    0.298E-02
RMM:   2    -0.230821018289E+04   -0.77327E-04   -0.80001E-04  5033   0.131E-02    0.156E-02
RMM:   3    -0.230821018880E+04   -0.59094E-05   -0.72803E-05  2784   0.617E-03
 115 F= -.23282590E+04 E0= -.23282590E+04  d E =-.454961E-03  mag=     3.0000
       N       E                     dE             d eps       ncg     rms          rms(c)
DAV:   1    -0.230820771629E+04    0.24666E-02   -0.21396E-01  4368   0.385E-01    0.166E-01
RMM:   2    -0.230821031447E+04   -0.25982E-02   -0.26800E-02  5573   0.681E-02    0.861E-02
RMM:   3    -0.230821050714E+04   -0.19266E-03   -0.22967E-03  4040   0.308E-02    0.512E-02
RMM:   4    -0.230821049765E+04    0.94878E-05   -0.31631E-04  3670   0.801E-03    0.296E-02
RMM:   5    -0.230821048818E+04    0.94675E-05   -0.44716E-05  2897   0.630E-03
 116 F= -.23282595E+04 E0= -.23282595E+04  d E =-.415071E-03  mag=     3.0000
       N       E                     dE             d eps       ncg     rms          rms(c)
DAV:   1    -0.230821009627E+04    0.40137E-03   -0.23639E-02  4616   0.128E-01    0.570E-02
RMM:   2    -0.230821038940E+04   -0.29313E-03   -0.30331E-03  5806   0.248E-02    0.307E-02
RMM:   3    -0.230821041485E+04   -0.25453E-04   -0.29208E-04  2874   0.108E-02    0.186E-02
RMM:   4    -0.230821041427E+04    0.58606E-06   -0.38786E-05  2830   0.319E-03
 117 F= -.23282594E+04 E0= -.23282594E+04  d E =-.379783E-03  mag=     3.0000
       N       E                     dE             d eps       ncg     rms          rms(c)
DAV:   1    -0.230821033323E+04    0.81619E-04   -0.10984E-02  4512   0.873E-02    0.372E-02
RMM:   2    -0.230821046413E+04   -0.13089E-03   -0.13458E-03  5544   0.163E-02    0.196E-02
RMM:   3    -0.230821047419E+04   -0.10064E-04   -0.12146E-04  2804   0.708E-03    0.113E-02
RMM:   4    -0.230821047363E+04    0.55550E-06   -0.15192E-05  2732   0.215E-03
 118 F= -.23282595E+04 E0= -.23282595E+04  d E =-.413335E-03  mag=     3.0000
       N       E                     dE             d eps       ncg     rms          rms(c)
DAV:   1    -0.230820820147E+04    0.22727E-02   -0.20077E-01  4368   0.380E-01    0.165E-01
RMM:   2    -0.230821062919E+04   -0.24277E-02   -0.25097E-02  5486   0.666E-02    0.834E-02
RMM:   3    -0.230821081657E+04   -0.18738E-03   -0.22784E-03  4139   0.321E-02    0.493E-02
RMM:   4    -0.230821081191E+04    0.46654E-05   -0.30840E-04  3724   0.788E-03    0.283E-02
RMM:   5    -0.230821080424E+04    0.76685E-05   -0.40829E-05  2870   0.622E-03
 119 F= -.23282599E+04 E0= -.23282599E+04  d E =-.416670E-03  mag=     3.0000
       N       E                     dE             d eps       ncg     rms          rms(c)
DAV:   1    -0.230821063699E+04    0.17492E-03   -0.10743E-02  5048   0.881E-02    0.400E-02
RMM:   2    -0.230821076914E+04   -0.13215E-03   -0.13698E-03  5504   0.172E-02    0.210E-02
RMM:   3    -0.230821078176E+04   -0.12626E-04   -0.14001E-04  2810   0.767E-03    0.129E-02
RMM:   4    -0.230821078198E+04   -0.21225E-06   -0.17956E-05  2811   0.225E-03
 120 F= -.23282599E+04 E0= -.23282599E+04  d E =-.414421E-03  mag=     3.0000
       N       E                     dE             d eps       ncg     rms          rms(c)
DAV:   1    -0.230820857058E+04    0.22112E-02   -0.18230E-01  4368   0.354E-01    0.153E-01
RMM:   2    -0.230821093997E+04   -0.23694E-02   -0.24323E-02  5633   0.626E-02    0.816E-02
RMM:   3    -0.230821113127E+04   -0.19130E-03   -0.21646E-03  3979   0.289E-02    0.486E-02
RMM:   4    -0.230821112841E+04    0.28652E-05   -0.29221E-04  3289   0.728E-03    0.286E-02
RMM:   5    -0.230821112105E+04    0.73589E-05   -0.40832E-05  2872   0.560E-03
 121 F= -.23282603E+04 E0= -.23282603E+04  d E =-.441912E-03  mag=     3.0000
       N       E                     dE             d eps       ncg     rms          rms(c)
DAV:   1    -0.230821030115E+04    0.82726E-03   -0.55546E-02  4416   0.196E-01    0.857E-02
RMM:   2    -0.230821102536E+04   -0.72421E-03   -0.74577E-03  5954   0.366E-02    0.462E-02
RMM:   3    -0.230821109044E+04   -0.65081E-04   -0.71366E-04  3211   0.158E-02    0.277E-02
RMM:   4    -0.230821108959E+04    0.84659E-06   -0.89038E-05  2843   0.429E-03
 122 F= -.23282603E+04 E0= -.23282603E+04  d E =-.467132E-03  mag=     3.0000
       N       E                     dE             d eps       ncg     rms          rms(c)
DAV:   1    -0.230820954826E+04    0.15422E-02   -0.12730E-01  4368   0.287E-01    0.129E-01
RMM:   2    -0.230821128816E+04   -0.17399E-02   -0.17803E-02  5945   0.517E-02    0.701E-02
RMM:   3    -0.230821142914E+04   -0.14098E-03   -0.15259E-03  3603   0.222E-02    0.420E-02
RMM:   4    -0.230821142951E+04   -0.37544E-06   -0.21016E-04  2927   0.600E-03    0.253E-02
RMM:   5    -0.230821142631E+04    0.32003E-05   -0.31302E-05  2850   0.461E-03
 123 F= -.23282608E+04 E0= -.23282608E+04  d E =-.428969E-03  mag=     3.0000
       N       E                     dE             d eps       ncg     rms          rms(c)
DAV:   1    -0.230820882675E+04    0.26028E-02   -0.17438E-01  4368   0.336E-01    0.151E-01
RMM:   2    -0.230821124831E+04   -0.24216E-02   -0.24785E-02  5993   0.616E-02    0.817E-02
RMM:   3    -0.230821145720E+04   -0.20889E-03   -0.22140E-03  3883   0.258E-02    0.491E-02
RMM:   4    -0.230821145789E+04   -0.69090E-06   -0.27938E-04  2999   0.659E-03    0.301E-02
RMM:   5    -0.230821145226E+04    0.56296E-05   -0.45089E-05  2869   0.517E-03
 124 F= -.23282609E+04 E0= -.23282609E+04  d E =-.562189E-03  mag=     3.0000
       N       E                     dE             d eps       ncg     rms          rms(c)
DAV:   1    -0.230820918739E+04    0.22705E-02   -0.17611E-01  4368   0.336E-01    0.152E-01
RMM:   2    -0.230821168582E+04   -0.24984E-02   -0.25567E-02  6027   0.625E-02    0.831E-02
RMM:   3    -0.230821190523E+04   -0.21940E-03   -0.23262E-03  3913   0.265E-02    0.503E-02
RMM:   4    -0.230821190486E+04    0.37192E-06   -0.29961E-04  2988   0.675E-03    0.311E-02
RMM:   5    -0.230821189842E+04    0.64413E-05   -0.45403E-05  2888   0.536E-03
 125 F= -.23282614E+04 E0= -.23282614E+04  d E =-.538562E-03  mag=     3.0000
       N       E                     dE             d eps       ncg     rms          rms(c)
DAV:   1    -0.230820993733E+04    0.19675E-02   -0.13011E-01  4384   0.289E-01    0.131E-01
RMM:   2    -0.230821177952E+04   -0.18422E-02   -0.18857E-02  6070   0.544E-02    0.720E-02
RMM:   3    -0.230821194231E+04   -0.16279E-03   -0.17303E-03  3611   0.229E-02    0.439E-02
RMM:   4    -0.230821194213E+04    0.18066E-06   -0.22221E-04  2911   0.597E-03    0.274E-02
RMM:   5    -0.230821193684E+04    0.52815E-05   -0.35360E-05  2858   0.475E-03
 126 F= -.23282615E+04 E0= -.23282615E+04  d E =-.655912E-03  mag=     3.0000
       N       E                     dE             d eps       ncg     rms          rms(c)
DAV:   1    -0.230820888887E+04    0.30533E-02   -0.22576E-01  4368   0.382E-01    0.174E-01
RMM:   2    -0.230821213057E+04   -0.32417E-02   -0.33192E-02  6047   0.701E-02    0.944E-02
RMM:   3    -0.230821241754E+04   -0.28697E-03   -0.30362E-03  4236   0.303E-02    0.571E-02
RMM:   4    -0.230821241791E+04   -0.36838E-06   -0.39061E-04  3081   0.758E-03    0.356E-02
RMM:   5    -0.230821240817E+04    0.97440E-05   -0.58526E-05  2964   0.600E-03
 127 F= -.23282621E+04 E0= -.23282621E+04  d E =-.572019E-03  mag=     3.0000
       N       E                     dE             d eps       ncg     rms          rms(c)
DAV:   1    -0.230821044295E+04    0.19750E-02   -0.12325E-01  4384   0.282E-01    0.130E-01
RMM:   2    -0.230821224222E+04   -0.17993E-02   -0.18433E-02  6095   0.533E-02    0.709E-02
RMM:   3    -0.230821240945E+04   -0.16723E-03   -0.17642E-03  3593   0.226E-02    0.434E-02
RMM:   4    -0.230821241087E+04   -0.14173E-05   -0.22039E-04  2906   0.583E-03    0.275E-02
RMM:   5    -0.230821240553E+04    0.53419E-05   -0.33672E-05  2853   0.460E-03
 128 F= -.23282622E+04 E0= -.23282622E+04  d E =-.643297E-03  mag=     3.0000
       N       E                     dE             d eps       ncg     rms          rms(c)
DAV:   1    -0.230820959923E+04    0.28116E-02   -0.19419E-01  4368   0.347E-01    0.161E-01
RMM:   2    -0.230821252758E+04   -0.29284E-02   -0.29898E-02  6086   0.641E-02    0.887E-02
RMM:   3    -0.230821279511E+04   -0.26753E-03   -0.27417E-03  3981   0.273E-02    0.535E-02
RMM:   4    -0.230821279906E+04   -0.39495E-05   -0.34088E-04  2955   0.697E-03    0.338E-02
RMM:   5    -0.230821279153E+04    0.75359E-05   -0.54638E-05  2906   0.547E-03
 129 F= -.23282627E+04 E0= -.23282627E+04  d E =-.509012E-03  mag=     3.0000
       N       E                     dE             d eps       ncg     rms          rms(c)
DAV:   1    -0.230820968900E+04    0.31101E-02   -0.18499E-01  4384   0.339E-01    0.158E-01
RMM:   2    -0.230821253465E+04   -0.28456E-02   -0.29053E-02  6096   0.638E-02    0.869E-02
RMM:   3    -0.230821279994E+04   -0.26530E-03   -0.27112E-03  3929   0.270E-02    0.522E-02
RMM:   4    -0.230821280559E+04   -0.56516E-05   -0.33970E-04  2962   0.676E-03    0.332E-02
RMM:   5    -0.230821279881E+04    0.67865E-05   -0.53130E-05  2898   0.528E-03
 130 F= -.23282628E+04 E0= -.23282628E+04  d E =-.635872E-03  mag=     3.0000
       N       E                     dE             d eps       ncg     rms          rms(c)
DAV:   1    -0.230820928432E+04    0.35213E-02   -0.24004E-01  4368   0.396E-01    0.185E-01
RMM:   2    -0.230821295173E+04   -0.36674E-02   -0.37557E-02  6063   0.746E-02    0.993E-02
RMM:   3    -0.230821327752E+04   -0.32579E-03   -0.34172E-03  4427   0.324E-02    0.597E-02
RMM:   4    -0.230821328213E+04   -0.46096E-05   -0.43951E-04  3197   0.804E-03    0.376E-02
RMM:   5    -0.230821327357E+04    0.85651E-05   -0.71201E-05  3072   0.650E-03
 131 F= -.23282635E+04 E0= -.23282635E+04  d E =-.632660E-03  mag=     3.0000
       N       E                     dE             d eps       ncg     rms          rms(c)
DAV:   1    -0.230821222825E+04    0.10539E-02   -0.60573E-02  4576   0.199E-01    0.947E-02
RMM:   2    -0.230821315214E+04   -0.92389E-03   -0.94806E-03  6070   0.390E-02    0.518E-02
RMM:   3    -0.230821324490E+04   -0.92761E-04   -0.96712E-04  3224   0.167E-02    0.316E-02
RMM:   4    -0.230821324687E+04   -0.19703E-05   -0.11827E-04  2847   0.443E-03    0.205E-02
RMM:   5    -0.230821324548E+04    0.13851E-05   -0.18568E-05  2821   0.349E-03
 132 F= -.23282635E+04 E0= -.23282635E+04  d E =-.683804E-03  mag=     3.0000
       N       E                     dE             d eps       ncg     rms          rms(c)
DAV:   1    -0.230821039418E+04    0.28527E-02   -0.19080E-01  4368   0.355E-01    0.168E-01
RMM:   2    -0.230821332887E+04   -0.29347E-02   -0.30053E-02  5896   0.663E-02    0.885E-02
RMM:   3    -0.230821359030E+04   -0.26143E-03   -0.27761E-03  4177   0.305E-02    0.532E-02
RMM:   4    -0.230821359105E+04   -0.74857E-06   -0.35119E-04  3132   0.744E-03    0.333E-02
RMM:   5    -0.230821358296E+04    0.80914E-05   -0.55741E-05  2938   0.598E-03
 133 F= -.23282640E+04 E0= -.23282640E+04  d E =-.492004E-03  mag=     3.0000
       N       E                     dE             d eps       ncg     rms          rms(c)
DAV:   1    -0.230821282327E+04    0.76778E-03   -0.41956E-02  4608   0.167E-01    0.804E-02
RMM:   2    -0.230821347561E+04   -0.65234E-03   -0.66970E-03  6045   0.333E-02    0.433E-02
RMM:   3    -0.230821354076E+04   -0.65154E-04   -0.68375E-04  3043   0.142E-02    0.266E-02
RMM:   4    -0.230821354233E+04   -0.15628E-05   -0.83953E-05  2840   0.386E-03
 134 F= -.23282640E+04 E0= -.23282640E+04  d E =-.523965E-03  mag=     3.0000
       N       E                     dE             d eps       ncg     rms          rms(c)
DAV:   1    -0.230820998222E+04    0.35585E-02   -0.22506E-01  4368   0.378E-01    0.181E-01
RMM:   2    -0.230821357943E+04   -0.35972E-02   -0.36768E-02  5799   0.706E-02    0.981E-02
RMM:   3    -0.230821389553E+04   -0.31610E-03   -0.33311E-03  4151   0.339E-02    0.595E-02
RMM:   4    -0.230821390088E+04   -0.53486E-05   -0.43881E-04  3350   0.793E-03    0.377E-02
RMM:   5    -0.230821388990E+04    0.10982E-04   -0.63710E-05  3008   0.636E-03    0.163E-02
RMM:   6    -0.230821389171E+04   -0.18146E-05   -0.12809E-05  2804   0.461E-03
 135 F= -.23282645E+04 E0= -.23282645E+04  d E =-.507506E-03  mag=     3.0000
       N       E                     dE             d eps       ncg     rms          rms(c)
DAV:   1    -0.230821354206E+04    0.34784E-03   -0.18133E-02  4760   0.107E-01    0.526E-02
RMM:   2    -0.230821383959E+04   -0.29753E-03   -0.30472E-03  5791   0.214E-02    0.289E-02
RMM:   3    -0.230821386741E+04   -0.27823E-04   -0.28305E-04  2843   0.946E-03    0.176E-02
RMM:   4    -0.230821386797E+04   -0.55876E-06   -0.36364E-05  2822   0.263E-03
 136 F= -.23282646E+04 E0= -.23282646E+04  d E =-.528462E-03  mag=     3.0000
       N       E                     dE             d eps       ncg     rms          rms(c)
DAV:   1    -0.230821077553E+04    0.30919E-02   -0.20576E-01  4368   0.377E-01    0.178E-01
RMM:   2    -0.230821401292E+04   -0.32374E-02   -0.33256E-02  5610   0.703E-02    0.926E-02
RMM:   3    -0.230821427740E+04   -0.26448E-03   -0.29227E-03  4193   0.337E-02    0.552E-02
RMM:   4    -0.230821427553E+04    0.18686E-05   -0.38289E-04  3669   0.813E-03    0.341E-02
RMM:   5    -0.230821426498E+04    0.10551E-04   -0.55141E-05  2961   0.677E-03    0.146E-02
RMM:   6    -0.230821426608E+04   -0.11059E-05   -0.12362E-05  2808   0.444E-03
 137 F= -.23282651E+04 E0= -.23282651E+04  d E =-.503951E-03  mag=     3.0000
       N       E                     dE             d eps       ncg     rms          rms(c)
DAV:   1    -0.230821419740E+04    0.67573E-04   -0.32602E-03  5136   0.476E-02    0.238E-02
RMM:   2    -0.230821425074E+04   -0.53331E-04   -0.54806E-04  4123   0.101E-02    0.137E-02
RMM:   3    -0.230821425562E+04   -0.48850E-05   -0.48618E-05  2785   0.557E-03
 138 F= -.23282651E+04 E0= -.23282651E+04  d E =-.506727E-03  mag=     3.0000
       N       E                     dE             d eps       ncg     rms          rms(c)
DAV:   1    -0.230821225325E+04    0.19975E-02   -0.13152E-01  4368   0.300E-01    0.142E-01
RMM:   2    -0.230821440148E+04   -0.21482E-02   -0.21958E-02  5578   0.562E-02    0.753E-02
RMM:   3    -0.230821456968E+04   -0.16820E-03   -0.18760E-03  3863   0.271E-02    0.453E-02
RMM:   4    -0.230821456740E+04    0.22867E-05   -0.24973E-04  3235   0.684E-03    0.279E-02
RMM:   5    -0.230821456144E+04    0.59533E-05   -0.36723E-05  2866   0.548E-03
 139 F= -.23282655E+04 E0= -.23282655E+04  d E =-.384564E-03  mag=     3.0000
       N       E                     dE             d eps       ncg     rms          rms(c)
DAV:   1    -0.230821437500E+04    0.19240E-03   -0.95008E-03  5048   0.807E-02    0.404E-02
RMM:   2    -0.230821453074E+04   -0.15575E-03   -0.16109E-03  5542   0.169E-02    0.222E-02
RMM:   3    -0.230821454577E+04   -0.15033E-04   -0.15705E-04  2836   0.759E-03    0.140E-02
RMM:   4    -0.230821454603E+04   -0.25959E-06   -0.20414E-05  2806   0.218E-03
 140 F= -.23282655E+04 E0= -.23282655E+04  d E =-.390395E-03  mag=     3.0000
       N       E                     dE             d eps       ncg     rms          rms(c)
DAV:   1    -0.230821269019E+04    0.18556E-02   -0.11667E-01  4368   0.275E-01    0.131E-01
RMM:   2    -0.230821467051E+04   -0.19803E-02   -0.20183E-02  5703   0.517E-02    0.703E-02
RMM:   3    -0.230821483200E+04   -0.16149E-03   -0.16885E-03  3613   0.249E-02    0.413E-02
RMM:   4    -0.230821483298E+04   -0.98415E-06   -0.22666E-04  2933   0.609E-03    0.260E-02
RMM:   5    -0.230821482846E+04    0.45199E-05   -0.32756E-05  2840   0.464E-03
 141 F= -.23282658E+04 E0= -.23282658E+04  d E =-.371849E-03  mag=     3.0000
       N       E                     dE             d eps       ncg     rms          rms(c)
DAV:   1    -0.230821389193E+04    0.94105E-03   -0.49924E-02  4464   0.180E-01    0.870E-02
RMM:   2    -0.230821474429E+04   -0.85236E-03   -0.87202E-03  6071   0.360E-02    0.471E-02
RMM:   3    -0.230821482071E+04   -0.76414E-04   -0.78772E-04  3050   0.146E-02    0.278E-02
RMM:   4    -0.230821482130E+04   -0.59404E-06   -0.99555E-05  2841   0.404E-03
 142 F= -.23282659E+04 E0= -.23282659E+04  d E =-.422960E-03  mag=     3.0000
       N       E                     dE             d eps       ncg     rms          rms(c)
DAV:   1    -0.230821284045E+04    0.19803E-02   -0.12540E-01  4368   0.283E-01    0.139E-01
RMM:   2    -0.230821498019E+04   -0.21397E-02   -0.21868E-02  5783   0.538E-02    0.743E-02
RMM:   3    -0.230821515520E+04   -0.17501E-03   -0.18435E-03  3750   0.258E-02    0.441E-02
RMM:   4    -0.230821515791E+04   -0.27150E-05   -0.25229E-04  2971   0.622E-03    0.281E-02
RMM:   5    -0.230821515365E+04    0.42573E-05   -0.36153E-05  2847   0.488E-03
 143 F= -.23282663E+04 E0= -.23282663E+04  d E =-.442434E-03  mag=     3.0000
       N       E                     dE             d eps       ncg     rms          rms(c)
DAV:   1    -0.230821404111E+04    0.11168E-02   -0.58719E-02  4512   0.194E-01    0.961E-02
RMM:   2    -0.230821505323E+04   -0.10121E-02   -0.10378E-02  6062   0.389E-02    0.517E-02
RMM:   3    -0.230821514299E+04   -0.89762E-04   -0.92883E-04  3168   0.162E-02    0.307E-02
RMM:   4    -0.230821514470E+04   -0.17106E-05   -0.11973E-04  2852   0.439E-03    0.201E-02
RMM:   5    -0.230821514291E+04    0.17924E-05   -0.19396E-05  2812   0.349E-03
 144 F= -.23282664E+04 E0= -.23282664E+04  d E =-.506539E-03  mag=     3.0000
       N       E                     dE             d eps       ncg     rms          rms(c)
DAV:   1    -0.230821262438E+04    0.25203E-02   -0.13955E-01  4368   0.284E-01    0.146E-01
RMM:   2    -0.230821524261E+04   -0.26182E-02   -0.26652E-02  6033   0.564E-02    0.794E-02
RMM:   3    -0.230821546914E+04   -0.22654E-03   -0.22648E-03  3665   0.241E-02    0.468E-02
RMM:   4    -0.230821547541E+04   -0.62643E-05   -0.29539E-04  2916   0.636E-03    0.308E-02
RMM:   5    -0.230821547027E+04    0.51408E-05   -0.45049E-05  2858   0.497E-03
 145 F= -.23282668E+04 E0= -.23282668E+04  d E =-.444668E-03  mag=     3.0000
       N       E                     dE             d eps       ncg     rms          rms(c)
DAV:   1    -0.230821337020E+04    0.21052E-02   -0.10148E-01  4416   0.242E-01    0.126E-01
RMM:   2    -0.230821527783E+04   -0.19076E-02   -0.19448E-02  6124   0.495E-02    0.686E-02
RMM:   3    -0.230821545225E+04   -0.17442E-03   -0.17449E-03  3420   0.204E-02    0.406E-02
RMM:   4    -0.230821545817E+04   -0.59204E-05   -0.22123E-04  2874   0.538E-03    0.270E-02
RMM:   5    -0.230821545497E+04    0.31973E-05   -0.31275E-05  2834   0.422E-03
 146 F= -.23282669E+04 E0= -.23282669E+04  d E =-.528991E-03  mag=     3.0000
       N       E                     dE             d eps       ncg     rms          rms(c)
DAV:   1    -0.230821323640E+04    0.22218E-02   -0.12824E-01  4368   0.273E-01    0.142E-01
RMM:   2    -0.230821563068E+04   -0.23943E-02   -0.24388E-02  6118   0.544E-02    0.763E-02
RMM:   3    -0.230821584337E+04   -0.21269E-03   -0.21324E-03  3648   0.227E-02    0.450E-02
RMM:   4    -0.230821585050E+04   -0.71241E-05   -0.27065E-04  2895   0.594E-03    0.298E-02
RMM:   5    -0.230821584665E+04    0.38453E-05   -0.41284E-05  2848   0.469E-03
 147 F= -.23282674E+04 E0= -.23282674E+04  d E =-.488645E-03  mag=     3.0000
       N       E                     dE             d eps       ncg     rms          rms(c)
DAV:   1    -0.230821112157E+04    0.47289E-02   -0.23166E-01  4368   0.366E-01    0.191E-01
RMM:   2    -0.230821550078E+04   -0.43792E-02   -0.44564E-02  6113   0.730E-02    0.102E-01
RMM:   3    -0.230821589196E+04   -0.39119E-03   -0.39284E-03  4265   0.308E-02    0.607E-02
RMM:   4    -0.230821590492E+04   -0.12950E-04   -0.50143E-04  3005   0.748E-03    0.402E-02
RMM:   5    -0.230821589428E+04    0.10635E-04   -0.69798E-05  3034   0.591E-03    0.192E-02
RMM:   6    -0.230821589649E+04   -0.22139E-05   -0.13817E-05  2807   0.487E-03
 148 F= -.23282676E+04 E0= -.23282676E+04  d E =-.668004E-03  mag=     3.0000
       N       E                     dE             d eps       ncg     rms          rms(c)
DAV:   1    -0.230821319457E+04    0.26997E-02   -0.14441E-01  4424   0.279E-01    0.149E-01
RMM:   2    -0.230821605016E+04   -0.28556E-02   -0.28989E-02  5928   0.556E-02    0.815E-02
RMM:   3    -0.230821630107E+04   -0.25091E-03   -0.24474E-03  3595   0.255E-02    0.476E-02
RMM:   4    -0.230821631000E+04   -0.89332E-05   -0.31864E-04  2912   0.607E-03    0.321E-02
RMM:   5    -0.230821630553E+04    0.44747E-05   -0.44426E-05  2859   0.460E-03
 149 F= -.23282681E+04 E0= -.23282681E+04  d E =-.496852E-03  mag=     3.0000
       N       E                     dE             d eps       ncg     rms          rms(c)
DAV:   1    -0.230820999688E+04    0.63131E-02   -0.30032E-01  4368   0.402E-01    0.215E-01
RMM:   2    -0.230821585384E+04   -0.58570E-02   -0.59515E-02  6093   0.809E-02    0.118E-01
RMM:   3    -0.230821639610E+04   -0.54226E-03   -0.53491E-03  4495   0.351E-02    0.703E-02
RMM:   4    -0.230821641017E+04   -0.14071E-04   -0.66264E-04  3079   0.800E-03    0.472E-02
RMM:   5    -0.230821639637E+04    0.13793E-04   -0.85955E-05  3073   0.615E-03    0.229E-02
RMM:   6    -0.230821639959E+04   -0.32156E-05   -0.17661E-05  2810   0.502E-03
 150 F= -.23282683E+04 E0= -.23282683E+04  d E =-.716156E-03  mag=     3.0000
