       N       E                     dE             d eps       ncg     rms          rms(c)
DAV:   1     0.129765757363E+05    0.12977E+05   -0.84430E+05  4560   0.143E+03
DAV:   2    -0.111046933033E+04   -0.14087E+05   -0.13492E+05  5080   0.327E+02
DAV:   3    -0.249353325018E+04   -0.13831E+04   -0.13696E+04  5520   0.111E+02
DAV:   4    -0.253023158872E+04   -0.36698E+02   -0.36530E+02  6240   0.248E+01
DAV:   5    -0.253105998769E+04   -0.82840E+00   -0.82690E+00  5800   0.295E+00    0.170E+02
RMM:   6    -0.149621867292E+04    0.10348E+04   -0.19428E+03  4509   0.379E+01    0.724E+01
RMM:   7    -0.166218752295E+04   -0.16597E+03   -0.29118E+02  5173   0.143E+01    0.480E+01
RMM:   8    -0.171886037067E+04   -0.56673E+02   -0.37013E+01  5400   0.678E+00    0.381E+01
RMM:   9    -0.184077782780E+04   -0.12192E+03   -0.76308E+01  5180   0.837E+00    0.391E+01
RMM:  10    -0.193080208351E+04   -0.90024E+02   -0.51558E+01  5341   0.666E+00    0.283E+01
RMM:  11    -0.197630910842E+04   -0.45507E+02   -0.20403E+01  5370   0.394E+00    0.190E+01
RMM:  12    -0.206422717283E+04   -0.87918E+02   -0.31175E+01  4952   0.440E+00    0.160E+01
RMM:  13    -0.211827792418E+04   -0.54051E+02   -0.20093E+01  5299   0.357E+00    0.142E+01
RMM:  14    -0.223340924526E+04   -0.11513E+03   -0.86468E+01  4549   0.672E+00    0.868E+00
RMM:  15    -0.229887557513E+04   -0.65466E+02   -0.59760E+01  4599   0.534E+00    0.811E+00
RMM:  16    -0.231210443521E+04   -0.13229E+02   -0.14388E+01  4945   0.331E+00    0.472E+00
RMM:  17    -0.232027663044E+04   -0.81722E+01   -0.83147E+00  4547   0.175E+00    0.313E+00
RMM:  18    -0.232339837161E+04   -0.31217E+01   -0.25499E+00  4770   0.144E+00    0.195E+00
RMM:  19    -0.232474170476E+04   -0.13433E+01   -0.11284E+00  4879   0.576E-01    0.162E+00
RMM:  20    -0.232492017462E+04   -0.17847E+00   -0.20675E-01  5010   0.425E-01    0.259E+00
RMM:  21    -0.232493737817E+04   -0.17204E-01   -0.43077E-02  5578   0.116E-01    0.192E+00
RMM:  22    -0.232508286843E+04   -0.14549E+00   -0.10626E-01  4567   0.167E-01    0.168E+00
RMM:  23    -0.232519276541E+04   -0.10990E+00   -0.13444E-01  4555   0.182E-01    0.143E+00
RMM:  24    -0.232523733655E+04   -0.44571E-01   -0.81143E-02  4620   0.166E-01    0.221E+00
RMM:  25    -0.232522640758E+04    0.10929E-01   -0.24366E-02  5120   0.898E-02    0.277E+00
RMM:  26    -0.232526398242E+04   -0.37575E-01   -0.22128E-02  4763   0.672E-02    0.188E+00
RMM:  27    -0.232528925040E+04   -0.25268E-01   -0.28644E-02  4786   0.852E-02    0.172E+00
RMM:  28    -0.232532271152E+04   -0.33461E-01   -0.43158E-02  5214   0.930E-02    0.282E+00
RMM:  29    -0.232531094645E+04    0.11765E-01   -0.49211E-03  4896   0.391E-02    0.195E+00
RMM:  30    -0.232531353479E+04   -0.25883E-02   -0.11989E-02  4586   0.551E-02    0.161E+00
RMM:  31    -0.232529753878E+04    0.15996E-01   -0.47524E-02  4751   0.101E-01    0.210E+00
RMM:  32    -0.232525337802E+04    0.44161E-01   -0.49744E-02  5105   0.103E-01    0.353E+00
RMM:  33    -0.232525261359E+04    0.76443E-03   -0.41058E-03  5312   0.279E-02    0.355E+00
RMM:  34    -0.232525064470E+04    0.19689E-02   -0.32300E-04  3776   0.778E-03    0.355E+00
RMM:  35    -0.232524611980E+04    0.45249E-02   -0.47809E-04  3922   0.120E-02    0.353E+00
RMM:  36    -0.232523570078E+04    0.10419E-01   -0.11624E-03  4413   0.172E-02    0.359E+00
RMM:  37    -0.232526800351E+04   -0.32303E-01   -0.43769E-03  5009   0.323E-02    0.327E+00
RMM:  38    -0.232533337106E+04   -0.65368E-01   -0.32294E-02  5249   0.817E-02    0.281E+00
RMM:  39    -0.232541708634E+04   -0.83715E-01   -0.62845E-02  5097   0.105E-01    0.512E+00
RMM:  40    -0.232541386688E+04    0.32195E-02   -0.47359E-03  4389   0.455E-02    0.494E+00
RMM:  41    -0.232541660286E+04   -0.27360E-02   -0.12579E-03  4331   0.133E-02    0.506E+00
RMM:  42    -0.232540572996E+04    0.10873E-01   -0.13628E-03  4147   0.169E-02    0.488E+00
RMM:  43    -0.232537935667E+04    0.26373E-01   -0.34486E-03  4715   0.249E-02    0.406E+00
RMM:  44    -0.232535481568E+04    0.24541E-01   -0.52655E-03  4770   0.379E-02    0.306E+00
RMM:  45    -0.232533065724E+04    0.24158E-01   -0.11341E-02  4995   0.492E-02    0.262E+00
RMM:  46    -0.232532484818E+04    0.58091E-02   -0.29075E-03  4702   0.288E-02    0.281E+00
RMM:  47    -0.232530685362E+04    0.17995E-01   -0.55108E-03  5146   0.306E-02    0.320E+00
RMM:  48    -0.232528044472E+04    0.26409E-01   -0.79634E-03  4959   0.401E-02    0.387E+00
RMM:  49    -0.232524891993E+04    0.31525E-01   -0.80198E-03  5087   0.395E-02    0.448E+00
RMM:  50    -0.232525222193E+04   -0.33020E-02   -0.48542E-04  3454   0.118E-02    0.442E+00
RMM:  51    -0.232524863000E+04    0.35919E-02   -0.24086E-04  3288   0.648E-03    0.451E+00
RMM:  52    -0.232524012504E+04    0.85050E-02   -0.46778E-04  3800   0.105E-02    0.462E+00
RMM:  53    -0.232525092693E+04   -0.10802E-01   -0.18359E-03  4349   0.195E-02    0.426E+00
RMM:  54    -0.232526472067E+04   -0.13794E-01   -0.39977E-03  4752   0.274E-02    0.379E+00
RMM:  55    -0.232530519176E+04   -0.40471E-01   -0.19931E-02  5330   0.568E-02    0.265E+00
RMM:  56    -0.232533468081E+04   -0.29489E-01   -0.20588E-02  5310   0.608E-02    0.207E+00
RMM:  57    -0.232534241526E+04   -0.77344E-02   -0.56971E-03  5029   0.298E-02    0.214E+00
RMM:  58    -0.232534532423E+04   -0.29090E-02   -0.10529E-03  4335   0.127E-02    0.220E+00
RMM:  59    -0.232534782872E+04   -0.25045E-02   -0.37199E-04  3437   0.877E-03    0.227E+00
RMM:  60    -0.232534492287E+04    0.29059E-02   -0.26122E-04  3140   0.765E-03    0.218E+00
RMM:  61    -0.232534144347E+04    0.34794E-02   -0.80003E-04  4153   0.116E-02    0.215E+00
RMM:  62    -0.232533424029E+04    0.72032E-02   -0.22975E-03  4595   0.189E-02    0.214E+00
RMM:  63    -0.232531958498E+04    0.14655E-01   -0.98152E-03  5383   0.405E-02    0.258E+00
RMM:  64    -0.232531773221E+04    0.18528E-02   -0.12513E-03  4166   0.151E-02    0.265E+00
RMM:  65    -0.232531724213E+04    0.49008E-03   -0.18909E-04  3104   0.491E-03    0.266E+00
RMM:  66    -0.232531295834E+04    0.42838E-02   -0.33499E-04  3460   0.813E-03    0.278E+00
RMM:  67    -0.232532038797E+04   -0.74296E-02   -0.12066E-03  4138   0.144E-02    0.254E+00
RMM:  68    -0.232533477546E+04   -0.14387E-01   -0.70713E-03  5059   0.352E-02    0.222E+00
RMM:  69    -0.232534598861E+04   -0.11213E-01   -0.94589E-03  5190   0.406E-02    0.225E+00
RMM:  70    -0.232535905890E+04   -0.13070E-01   -0.10151E-02  5351   0.403E-02    0.265E+00
RMM:  71    -0.232536415188E+04   -0.50930E-02   -0.21095E-03  4453   0.189E-02    0.282E+00
RMM:  72    -0.232536430689E+04   -0.15501E-03   -0.28482E-04  3186   0.684E-03    0.281E+00
RMM:  73    -0.232536357380E+04    0.73309E-03   -0.25432E-05  2964   0.384E-03    0.279E+00
RMM:  74    -0.232535875089E+04    0.48229E-02   -0.36609E-04  3358   0.772E-03    0.257E+00
RMM:  75    -0.232535282895E+04    0.59219E-02   -0.80877E-04  4030   0.113E-02    0.232E+00
RMM:  76    -0.232533054475E+04    0.22284E-01   -0.10219E-02  5201   0.410E-02    0.171E+00
RMM:  77    -0.232533447080E+04   -0.39261E-02   -0.63131E-04  3620   0.179E-02    0.174E+00
RMM:  78    -0.232534015406E+04   -0.56833E-02   -0.94581E-04  4241   0.129E-02    0.179E+00
RMM:  79    -0.232534152721E+04   -0.13731E-02   -0.11705E-04  2994   0.711E-03    0.182E+00
RMM:  80    -0.232534205915E+04   -0.53194E-03   -0.36707E-05  2938   0.297E-03    0.184E+00
RMM:  81    -0.232540348698E+04   -0.61428E-01   -0.61787E-02  5474   0.970E-02    0.354E+00
RMM:  82    -0.232540063756E+04    0.28494E-02   -0.45915E-03  4296   0.413E-02    0.337E+00
RMM:  83    -0.232538946547E+04    0.11172E-01   -0.12091E-03  4297   0.158E-02    0.328E+00
RMM:  84    -0.232537103695E+04    0.18429E-01   -0.56076E-03  4964   0.308E-02    0.280E+00
RMM:  85    -0.232536202097E+04    0.90160E-02   -0.33565E-03  4822   0.250E-02    0.254E+00
RMM:  86    -0.232536145972E+04    0.56125E-03   -0.54904E-04  3452   0.102E-02    0.257E+00
RMM:  87    -0.232536068070E+04    0.77903E-03   -0.17530E-04  3088   0.584E-03    0.254E+00
RMM:  88    -0.232535907687E+04    0.16038E-02   -0.11569E-04  3071   0.559E-03    0.248E+00
RMM:  89    -0.232535901453E+04    0.62345E-04   -0.17880E-05  2835   0.390E-03    0.249E+00
RMM:  90    -0.232535879427E+04    0.22025E-03   -0.74852E-06  2636   0.194E-03    0.248E+00
RMM:  91    -0.232536027155E+04   -0.14773E-02   -0.53830E-05  2759   0.346E-03    0.254E+00
RMM:  92    -0.232536158819E+04   -0.13166E-02   -0.59884E-05  2880   0.343E-03    0.259E+00
RMM:  93    -0.232535971069E+04    0.18775E-02   -0.76958E-05  2810   0.410E-03    0.251E+00
RMM:  94    -0.232535652528E+04    0.31854E-02   -0.39642E-04  3631   0.802E-03    0.240E+00
RMM:  95    -0.232535519233E+04    0.13329E-02   -0.17233E-04  3039   0.620E-03    0.237E+00
RMM:  96    -0.232534465050E+04    0.10542E-01   -0.48256E-03  5172   0.280E-02    0.207E+00
RMM:  97    -0.232534497060E+04   -0.32010E-03   -0.32217E-04  3179   0.110E-02    0.211E+00
RMM:  98    -0.232534504723E+04   -0.76634E-04   -0.51511E-05  2977   0.371E-03    0.209E+00
RMM:  99    -0.232534471337E+04    0.33387E-03   -0.93817E-06  2745   0.230E-03    0.208E+00
RMM: 100    -0.232534447060E+04    0.24277E-03   -0.56604E-06  2502   0.164E-03    0.208E+00
RMM: 101    -0.232534362990E+04    0.84070E-03   -0.57451E-05  2941   0.358E-03    0.208E+00
RMM: 102    -0.232534432285E+04   -0.69295E-03   -0.15162E-05  2651   0.272E-03    0.209E+00
RMM: 103    -0.232534422768E+04    0.95174E-04   -0.68742E-07  1921   0.899E-04    0.209E+00
RMM: 104    -0.232534376019E+04    0.46748E-03   -0.73501E-06  2137   0.121E-03    0.208E+00
RMM: 105    -0.232534137794E+04    0.23823E-02   -0.26678E-04  3181   0.656E-03    0.204E+00
RMM: 106    -0.232532199013E+04    0.19388E-01   -0.10273E-02  5076   0.399E-02    0.217E+00
RMM: 107    -0.232531746066E+04    0.45295E-02   -0.17453E-03  4254   0.219E-02    0.232E+00
RMM: 108    -0.232532400597E+04   -0.65453E-02   -0.88327E-04  3977   0.128E-02    0.211E+00
RMM: 109    -0.232533143799E+04   -0.74320E-02   -0.28159E-03  4689   0.225E-02    0.191E+00
RMM: 110    -0.232534235192E+04   -0.10914E-01   -0.68804E-03  5061   0.348E-02    0.190E+00
RMM: 111    -0.232535163640E+04   -0.92845E-02   -0.57318E-03  5095   0.307E-02    0.213E+00
RMM: 112    -0.232535908648E+04   -0.74501E-02   -0.31180E-03  4908   0.219E-02    0.238E+00
RMM: 113    -0.232536001351E+04   -0.92704E-03   -0.44193E-04  3240   0.964E-03    0.239E+00
RMM: 114    -0.232536094216E+04   -0.92865E-03   -0.98316E-05  3075   0.473E-03    0.244E+00
RMM: 115    -0.232536095497E+04   -0.12813E-04   -0.66354E-06  2913   0.291E-03    0.243E+00
RMM: 116    -0.232536096860E+04   -0.13625E-04   -0.31828E-05  2879   0.285E-03    0.243E+00
RMM: 117    -0.232535947251E+04    0.14961E-02   -0.45971E-05  2816   0.341E-03    0.237E+00
RMM: 118    -0.232536018024E+04   -0.70773E-03   -0.85200E-06  2609   0.214E-03    0.241E+00
RMM: 119    -0.232535810590E+04    0.20743E-02   -0.11359E-04  2994   0.474E-03    0.232E+00
RMM: 120    -0.232535855481E+04   -0.44891E-03   -0.39593E-05  2887   0.395E-03    0.233E+00
RMM: 121    -0.232535680728E+04    0.17475E-02   -0.10115E-04  3008   0.511E-03    0.227E+00
RMM: 122    -0.232535881353E+04   -0.20063E-02   -0.74958E-05  2908   0.490E-03    0.236E+00
RMM: 123    -0.232536307345E+04   -0.42599E-02   -0.47839E-04  3747   0.856E-03    0.252E+00
RMM: 124    -0.232536303909E+04    0.34351E-04   -0.34144E-05  2807   0.420E-03    0.250E+00
RMM: 125    -0.232536125223E+04    0.17869E-02   -0.45354E-05  2707   0.304E-03    0.243E+00
RMM: 126    -0.232540742688E+04   -0.46175E-01   -0.34411E-02  5485   0.754E-02    0.327E+00
RMM: 127    -0.232539887364E+04    0.85532E-02   -0.17129E-03  4005   0.274E-02    0.312E+00
RMM: 128    -0.232538128879E+04    0.17585E-01   -0.41436E-03  4832   0.266E-02    0.288E+00
RMM: 129    -0.232537684909E+04    0.44397E-02   -0.87092E-04  3795   0.150E-02    0.281E+00
RMM: 130    -0.232536968414E+04    0.71649E-02   -0.14923E-03  4718   0.144E-02    0.258E+00
RMM: 131    -0.232536494436E+04    0.47398E-02   -0.73436E-04  3887   0.121E-02    0.243E+00
RMM: 132    -0.232535455323E+04    0.10391E-01   -0.35932E-03  5063   0.233E-02    0.203E+00
RMM: 133    -0.232534608180E+04    0.84714E-02   -0.37536E-03  4892   0.264E-02    0.181E+00
RMM: 134    -0.232534387231E+04    0.22095E-02   -0.11575E-03  4174   0.139E-02    0.181E+00
RMM: 135    -0.232534204099E+04    0.18313E-02   -0.37360E-04  3417   0.832E-03    0.178E+00
RMM: 136    -0.232534347523E+04   -0.14342E-02   -0.90318E-05  3008   0.580E-03    0.181E+00
RMM: 137    -0.232534460707E+04   -0.11318E-02   -0.90233E-05  2927   0.433E-03    0.182E+00
RMM: 138    -0.232534322458E+04    0.13825E-02   -0.63537E-05  2840   0.388E-03    0.179E+00
RMM: 139    -0.232533933233E+04    0.38923E-02   -0.79028E-04  4216   0.112E-02    0.175E+00
RMM: 140    -0.232533770912E+04    0.16232E-02   -0.28015E-04  3114   0.791E-03    0.176E+00
RMM: 141    -0.232533816407E+04   -0.45495E-03   -0.23154E-05  2800   0.327E-03    0.176E+00
RMM: 142    -0.232533781656E+04    0.34751E-03   -0.93841E-06  2452   0.191E-03    0.176E+00
RMM: 143    -0.232533772067E+04    0.95896E-04   -0.21186E-06  2354   0.152E-03    0.176E+00
RMM: 144    -0.232533763879E+04    0.81874E-04   -0.11569E-06  2133   0.105E-03    0.176E+00
RMM: 145    -0.232533760548E+04    0.33308E-04   -0.55210E-07  2011   0.917E-04    0.176E+00
RMM: 146    -0.232534060322E+04   -0.29977E-02   -0.39894E-04  3339   0.783E-03    0.178E+00
RMM: 147    -0.232534166503E+04   -0.10618E-02   -0.13179E-04  2919   0.535E-03    0.178E+00
RMM: 148    -0.232534177477E+04   -0.10974E-03   -0.21982E-05  2705   0.283E-03    0.178E+00
RMM: 149    -0.232534148894E+04    0.28583E-03   -0.14034E-05  2453   0.198E-03    0.179E+00
RMM: 150    -0.232534104610E+04    0.44285E-03   -0.40738E-05  2778   0.275E-03    0.180E+00
RMM: 151    -0.232532157028E+04    0.19476E-01   -0.17371E-02  5375   0.524E-02    0.214E+00
RMM: 152    -0.232532649594E+04   -0.49257E-02   -0.69963E-04  3825   0.172E-02    0.199E+00
RMM: 153    -0.232533849130E+04   -0.11995E-01   -0.72114E-03  4980   0.352E-02    0.177E+00
RMM: 154    -0.232535664216E+04   -0.18151E-01   -0.16976E-02  5311   0.557E-02    0.220E+00
RMM: 155    -0.232536807601E+04   -0.11434E-01   -0.85121E-03  5269   0.371E-02    0.254E+00
RMM: 156    -0.232539258124E+04   -0.24505E-01   -0.14117E-02  5526   0.461E-02    0.307E+00
RMM: 157    -0.232538904951E+04    0.35317E-02   -0.85202E-04  3589   0.179E-02    0.295E+00
RMM: 158    -0.232538724224E+04    0.18073E-02   -0.15993E-04  3050   0.557E-03    0.296E+00
RMM: 159    -0.232538883475E+04   -0.15925E-02   -0.51360E-05  2973   0.365E-03    0.299E+00
RMM: 160    -0.232538799515E+04    0.83960E-03   -0.10022E-05  2618   0.230E-03    0.297E+00
RMM: 161    -0.232538877728E+04   -0.78213E-03   -0.22026E-05  2691   0.233E-03    0.298E+00
RMM: 162    -0.232538939794E+04   -0.62066E-03   -0.23830E-05  2793   0.241E-03    0.297E+00
RMM: 163    -0.232539010417E+04   -0.70623E-03   -0.75877E-06  2590   0.189E-03    0.300E+00
RMM: 164    -0.232539019182E+04   -0.87650E-04   -0.22275E-06  2237   0.116E-03    0.299E+00
RMM: 165    -0.232538761046E+04    0.25814E-02   -0.76978E-05  2738   0.350E-03    0.294E+00
RMM: 166    -0.232543842999E+04   -0.50820E-01   -0.32154E-02  5485   0.710E-02    0.277E+00
RMM: 167    -0.232542283939E+04    0.15591E-01   -0.21278E-03  4485   0.250E-02    0.304E+00
RMM: 168    -0.232542015932E+04    0.26801E-02   -0.23695E-04  3153   0.773E-03    0.308E+00
RMM: 169    -0.232541954984E+04    0.60948E-03   -0.24059E-05  2929   0.380E-03    0.307E+00
RMM: 170    -0.232541672424E+04    0.28256E-02   -0.97793E-05  3026   0.427E-03    0.309E+00
RMM: 171    -0.232544939211E+04   -0.32668E-01   -0.13273E-02  5334   0.457E-02    0.252E+00
RMM: 172    -0.232544404123E+04    0.53509E-02   -0.42216E-04  3547   0.132E-02    0.266E+00
RMM: 173    -0.232544480614E+04   -0.76491E-03   -0.59260E-05  2979   0.360E-03    0.265E+00
RMM: 174    -0.232544464561E+04    0.16053E-03   -0.28228E-06  2577   0.180E-03    0.265E+00
RMM: 175    -0.232544716413E+04   -0.25185E-02   -0.10021E-04  2960   0.427E-03    0.258E+00
RMM: 176    -0.232544886075E+04   -0.16966E-02   -0.15015E-04  3122   0.513E-03    0.251E+00
RMM: 177    -0.232544574726E+04    0.31135E-02   -0.10518E-04  2979   0.485E-03    0.259E+00
RMM: 178    -0.232544158667E+04    0.41606E-02   -0.33643E-04  3431   0.761E-03    0.270E+00
RMM: 179    -0.232543717576E+04    0.44109E-02   -0.43300E-04  3552   0.838E-03    0.281E+00
RMM: 180    -0.232542917184E+04    0.80039E-02   -0.11227E-03  4333   0.134E-02    0.296E+00
RMM: 181    -0.232544950835E+04   -0.20337E-01   -0.73525E-03  5177   0.342E-02    0.241E+00
RMM: 182    -0.232544042959E+04    0.90788E-02   -0.70162E-04  4273   0.127E-02    0.264E+00
RMM: 183    -0.232543476250E+04    0.56671E-02   -0.65250E-04  3881   0.110E-02    0.277E+00
RMM: 184    -0.232541956919E+04    0.15193E-01   -0.39927E-03  5018   0.252E-02    0.302E+00
RMM: 185    -0.232541732457E+04    0.22446E-02   -0.44394E-04  3353   0.998E-03    0.302E+00
RMM: 186    -0.232541749102E+04   -0.16644E-03   -0.38836E-05  2969   0.342E-03    0.302E+00
RMM: 187    -0.232541028998E+04    0.72010E-02   -0.42542E-04  3724   0.851E-03    0.300E+00
RMM: 188    -0.232540096996E+04    0.93200E-02   -0.86823E-04  4289   0.121E-02    0.292E+00
RMM: 189    -0.232538381152E+04    0.17158E-01   -0.39264E-03  4973   0.245E-02    0.261E+00
RMM: 190    -0.232537113136E+04    0.12680E-01   -0.34140E-03  4867   0.244E-02    0.225E+00
RMM: 191    -0.232536945375E+04    0.16776E-02   -0.84825E-04  3843   0.126E-02    0.227E+00
RMM: 192    -0.232535705911E+04    0.12395E-01   -0.43338E-03  5237   0.262E-02    0.178E+00
RMM: 193    -0.232535157485E+04    0.54843E-02   -0.18599E-03  4569   0.193E-02    0.165E+00
RMM: 194    -0.232535105710E+04    0.51775E-03   -0.36024E-04  3186   0.765E-03    0.164E+00
RMM: 195    -0.232535079675E+04    0.26035E-03   -0.27040E-05  2975   0.350E-03    0.162E+00
RMM: 196    -0.232528515700E+04    0.65640E-01   -0.11767E-01  5523   0.138E-01    0.291E+00
RMM: 197    -0.232531120161E+04   -0.26045E-01   -0.66516E-03  4750   0.476E-02    0.207E+00
RMM: 198    -0.232533797703E+04   -0.26775E-01   -0.25153E-02  5244   0.655E-02    0.142E+00
RMM: 199    -0.232535220733E+04   -0.14230E-01   -0.15523E-02  5098   0.557E-02    0.167E+00
RMM: 200    -0.232538547360E+04   -0.33266E-01   -0.28413E-02  5698   0.648E-02    0.283E+00
RMM: 201    -0.232539240897E+04   -0.69354E-02   -0.36503E-03  4980   0.307E-02    0.287E+00
RMM: 202    -0.232539516584E+04   -0.27569E-02   -0.12356E-03  4318   0.116E-02    0.289E+00
RMM: 203    -0.232539534410E+04   -0.17826E-03   -0.56107E-05  3023   0.560E-03    0.289E+00
RMM: 204    -0.232539566707E+04   -0.32297E-03   -0.93279E-06  2943   0.233E-03    0.289E+00
RMM: 205    -0.232539476632E+04    0.90075E-03   -0.12137E-05  2872   0.231E-03    0.288E+00
RMM: 206    -0.232541072874E+04   -0.15962E-01   -0.28514E-03  4958   0.210E-02    0.299E+00
RMM: 207    -0.232541073616E+04   -0.74277E-05   -0.19562E-04  3038   0.844E-03    0.297E+00
RMM: 208    -0.232540944889E+04    0.12873E-02   -0.32070E-05  2878   0.324E-03    0.298E+00
RMM: 209    -0.232540828438E+04    0.11645E-02   -0.22573E-05  2717   0.248E-03    0.298E+00
RMM: 210    -0.232540852897E+04   -0.24459E-03   -0.19862E-06  2251   0.135E-03    0.298E+00
RMM: 211    -0.232539764931E+04    0.10880E-01   -0.15054E-03  4581   0.149E-02    0.292E+00
RMM: 212    -0.232538556988E+04    0.12079E-01   -0.23821E-03  4730   0.204E-02    0.274E+00
RMM: 213    -0.232536148799E+04    0.24082E-01   -0.11505E-02  5427   0.424E-02    0.193E+00
RMM: 214    -0.232534980940E+04    0.11679E-01   -0.66368E-03  5093   0.347E-02    0.160E+00
RMM: 215    -0.232533915896E+04    0.10650E-01   -0.74139E-03  5438   0.338E-02    0.139E+00
RMM: 216    -0.232533003274E+04    0.91262E-02   -0.54139E-03  5028   0.302E-02    0.149E+00
RMM: 217    -0.232533241697E+04   -0.23842E-02   -0.29072E-04  3236   0.956E-03    0.145E+00
RMM: 218    -0.232533359653E+04   -0.11796E-02   -0.94998E-05  3001   0.508E-03    0.143E+00
RMM: 219    -0.232534346078E+04   -0.98642E-02   -0.41767E-03  4910   0.259E-02    0.147E+00
RMM: 220    -0.232536850426E+04   -0.25043E-01   -0.20069E-02  5394   0.571E-02    0.237E+00
RMM: 221    -0.232538623228E+04   -0.17728E-01   -0.10742E-02  5269   0.428E-02    0.279E+00
RMM: 222    -0.232537883780E+04    0.73945E-02   -0.74903E-04  3841   0.142E-02    0.256E+00
RMM: 223    -0.232537954924E+04   -0.71144E-03   -0.16626E-04  3029   0.627E-03    0.265E+00
RMM: 224    -0.232536245976E+04    0.17089E-01   -0.56083E-03  5091   0.296E-02    0.203E+00
RMM: 225    -0.232535050742E+04    0.11952E-01   -0.64106E-03  5054   0.339E-02    0.168E+00
RMM: 226    -0.232533713467E+04    0.13373E-01   -0.11321E-02  5399   0.421E-02    0.149E+00
RMM: 227    -0.232533344763E+04    0.36870E-02   -0.21264E-03  4689   0.206E-02    0.154E+00
RMM: 228    -0.232533017186E+04    0.32758E-02   -0.94180E-04  4438   0.120E-02    0.159E+00
RMM: 229    -0.232533358869E+04   -0.34168E-02   -0.39258E-04  3377   0.926E-03    0.154E+00
RMM: 230    -0.232533695488E+04   -0.33662E-02   -0.64013E-04  3890   0.108E-02    0.151E+00
RMM: 231    -0.232534854497E+04   -0.11590E-01   -0.57740E-03  5011   0.302E-02    0.173E+00
RMM: 232    -0.232534827386E+04    0.27111E-03   -0.38045E-04  3170   0.117E-02    0.168E+00
RMM: 233    -0.232534980947E+04   -0.15356E-02   -0.22337E-04  3199   0.569E-03    0.175E+00
RMM: 234    -0.232535138497E+04   -0.15755E-02   -0.10650E-04  3067   0.488E-03    0.180E+00
RMM: 235    -0.232535104037E+04    0.34461E-03   -0.87985E-06  2771   0.303E-03    0.178E+00
RMM: 236    -0.232533727232E+04    0.13768E-01   -0.80842E-03  5075   0.356E-02    0.152E+00
RMM: 237    -0.232532859824E+04    0.86741E-02   -0.49765E-03  4813   0.310E-02    0.166E+00
RMM: 238    -0.232532887944E+04   -0.28121E-03   -0.42746E-04  3270   0.807E-03    0.166E+00
RMM: 239    -0.232532589859E+04    0.29809E-02   -0.38936E-04  3602   0.876E-03    0.173E+00
RMM: 240    -0.232532529118E+04    0.60741E-03   -0.52352E-05  2983   0.469E-03    0.175E+00
RMM: 241    -0.232531427376E+04    0.11017E-01   -0.35336E-03  5007   0.240E-02    0.210E+00
RMM: 242    -0.232530837753E+04    0.58962E-02   -0.13628E-03  4299   0.175E-02    0.230E+00
RMM: 243    -0.232530714904E+04    0.12285E-02   -0.27068E-04  3241   0.659E-03    0.234E+00
RMM: 244    -0.232530848001E+04   -0.13310E-02   -0.29006E-05  2831   0.403E-03    0.230E+00
RMM: 245    -0.232531832741E+04   -0.98474E-02   -0.21927E-03  4586   0.191E-02    0.197E+00
RMM: 246    -0.232533380359E+04   -0.15476E-01   -0.93003E-03  5148   0.405E-02    0.158E+00
RMM: 247    -0.232534434659E+04   -0.10543E-01   -0.74517E-03  5133   0.351E-02    0.165E+00
RMM: 248    -0.232535701947E+04   -0.12673E-01   -0.76753E-03  5195   0.344E-02    0.209E+00
RMM: 249    -0.232537581830E+04   -0.18799E-01   -0.97199E-03  5235   0.395E-02    0.277E+00
RMM: 250    -0.232539862506E+04   -0.22807E-01   -0.10091E-02  5299   0.395E-02    0.320E+00
RMM: 251    -0.232542017727E+04   -0.21552E-01   -0.83833E-03  5240   0.359E-02    0.319E+00
RMM: 252    -0.232542829903E+04   -0.81218E-02   -0.22359E-03  4818   0.191E-02    0.310E+00
RMM: 253    -0.232542744670E+04    0.85233E-03   -0.16364E-04  3119   0.603E-03    0.311E+00
RMM: 254    -0.232542724902E+04    0.19768E-03   -0.89147E-06  2952   0.271E-03    0.311E+00
RMM: 255    -0.232542452653E+04    0.27225E-02   -0.86757E-05  2966   0.405E-03    0.315E+00
RMM: 256    -0.232543012178E+04   -0.55952E-02   -0.29888E-04  3174   0.722E-03    0.308E+00
RMM: 257    -0.232542729273E+04    0.28290E-02   -0.78061E-05  2928   0.487E-03    0.313E+00
RMM: 258    -0.232542728757E+04    0.51662E-05   -0.46381E-06  2511   0.178E-03
   1 F= -.23468362E+04 E0= -.23468323E+04  d E =-.775619E-02  mag=     4.2151
       N       E                     dE             d eps       ncg     rms          rms(c)
DAV:   1    -0.232544025875E+04   -0.12966E-01   -0.15940E+00  4560   0.485E-01    0.317E+00
RMM:   2    -0.232555069768E+04   -0.11044E+00   -0.30823E-01  5276   0.225E-01    0.286E+00
RMM:   3    -0.232561235760E+04   -0.61660E-01   -0.26588E-01  6470   0.197E-01    0.330E+00
RMM:   4    -0.232551010937E+04    0.10225E+00   -0.83197E-02  5837   0.125E-01    0.200E+00
RMM:   5    -0.232547820098E+04    0.31908E-01   -0.37160E-02  6051   0.828E-02    0.100E+00
RMM:   6    -0.232547981956E+04   -0.16186E-02   -0.13648E-02  4628   0.617E-02    0.361E-01
RMM:   7    -0.232548893644E+04   -0.91169E-02   -0.71766E-03  4610   0.474E-02    0.256E-01
RMM:   8    -0.232549423557E+04   -0.52991E-02   -0.30983E-03  5010   0.329E-02    0.250E-01
RMM:   9    -0.232549905423E+04   -0.48187E-02   -0.17174E-03  4642   0.242E-02    0.139E-01
RMM:  10    -0.232550623702E+04   -0.71828E-02   -0.19405E-03  4463   0.271E-02    0.946E-02
RMM:  11    -0.232551054427E+04   -0.43073E-02   -0.13519E-03  4236   0.253E-02    0.488E-02
RMM:  12    -0.232551232791E+04   -0.17836E-02   -0.44389E-04  4282   0.165E-02    0.285E-02
RMM:  13    -0.232551338660E+04   -0.10587E-02   -0.18760E-04  3929   0.942E-03    0.186E-02
RMM:  14    -0.232551397472E+04   -0.58812E-03   -0.77658E-05  3667   0.761E-03    0.106E-02
RMM:  15    -0.232551429137E+04   -0.31665E-03   -0.49706E-05  3477   0.538E-03    0.568E-03
RMM:  16    -0.232551437846E+04   -0.87093E-04   -0.15183E-05  3005   0.450E-03    0.306E-03
RMM:  17    -0.232551439560E+04   -0.17139E-04   -0.72393E-06  2849   0.297E-03    0.180E-03
RMM:  18    -0.232551439945E+04   -0.38503E-05   -0.31858E-06  2601   0.236E-03
   2 F= -.23469231E+04 E0= -.23469231E+04  d E =-.105881E-03  mag=     2.9991
       N       E                     dE             d eps       ncg     rms          rms(c)
DAV:   1    -0.232548202741E+04    0.32368E-01   -0.63302E+00  4480   0.977E-01    0.510E-01
RMM:   2    -0.232548218935E+04   -0.16193E-03   -0.24928E-02  4429   0.729E-02    0.267E-01
RMM:   3    -0.232548304834E+04   -0.85900E-03   -0.49613E-03  4945   0.366E-02    0.328E-01
RMM:   4    -0.232548190465E+04    0.11437E-02   -0.23291E-03  5238   0.203E-02    0.137E-01
RMM:   5    -0.232548210785E+04   -0.20320E-03   -0.57113E-04  3619   0.103E-02    0.181E-01
RMM:   6    -0.232548182770E+04    0.28014E-03   -0.26622E-04  3126   0.796E-03    0.721E-02
RMM:   7    -0.232548183153E+04   -0.38225E-05   -0.10493E-04  2878   0.490E-03    0.602E-02
RMM:   8    -0.232548179600E+04    0.35531E-04   -0.42577E-05  2844   0.401E-03    0.178E-02
RMM:   9    -0.232548179575E+04    0.24786E-06   -0.71993E-06  2688   0.208E-03
   3 F= -.23468909E+04 E0= -.23468909E+04  d E =-.677352E-04  mag=     2.9994
       N       E                     dE             d eps       ncg     rms          rms(c)
DAV:   1    -0.232549697509E+04   -0.15179E-01   -0.36243E+00  4480   0.744E-01    0.428E-01
RMM:   2    -0.232549762410E+04   -0.64901E-03   -0.21731E-02  4978   0.603E-02    0.273E-01
RMM:   3    -0.232549836187E+04   -0.73777E-03   -0.43323E-03  5142   0.327E-02    0.402E-01
RMM:   4    -0.232549691727E+04    0.14446E-02   -0.20963E-03  5256   0.198E-02    0.211E-01
RMM:   5    -0.232549707975E+04   -0.16248E-03   -0.95571E-04  4252   0.127E-02    0.256E-01
RMM:   6    -0.232549651111E+04    0.56864E-03   -0.42631E-04  3550   0.971E-03    0.596E-02
RMM:   7    -0.232549653891E+04   -0.27804E-04   -0.14280E-04  3002   0.639E-03    0.571E-02
RMM:   8    -0.232549650045E+04    0.38459E-04   -0.56156E-05  2855   0.486E-03    0.189E-02
RMM:   9    -0.232549650143E+04   -0.97166E-06   -0.13418E-05  2844   0.251E-03
   4 F= -.23469048E+04 E0= -.23469047E+04  d E =-.138100E-03  mag=     2.9990
       N       E                     dE             d eps       ncg     rms          rms(c)
DAV:   1    -0.232547914593E+04    0.17355E-01   -0.78112E+00  4480   0.110E+00    0.644E-01
RMM:   2    -0.232548122772E+04   -0.20818E-02   -0.61562E-02  5542   0.946E-02    0.442E-01
RMM:   3    -0.232548228765E+04   -0.10599E-02   -0.10740E-02  5433   0.555E-02    0.633E-01
RMM:   4    -0.232547887514E+04    0.34125E-02   -0.48906E-03  5800   0.288E-02    0.329E-01
RMM:   5    -0.232547939168E+04   -0.51654E-03   -0.24344E-03  5077   0.191E-02    0.417E-01
RMM:   6    -0.232547785526E+04    0.15364E-02   -0.10225E-03  4597   0.144E-02    0.569E-02
RMM:   7    -0.232547787751E+04   -0.22252E-04   -0.14337E-04  3182   0.617E-03    0.383E-02
RMM:   8    -0.232547788319E+04   -0.56831E-05   -0.61398E-05  2959   0.481E-03
   5 F= -.23468874E+04 E0= -.23468874E+04  d E =-.566929E-04  mag=     2.9994
       N       E                     dE             d eps       ncg     rms          rms(c)
DAV:   1    -0.232548821632E+04   -0.10339E-01   -0.36596E+00  4480   0.769E-01    0.347E-01
RMM:   2    -0.232549051431E+04   -0.22980E-02   -0.25525E-02  4821   0.635E-02    0.265E-01
RMM:   3    -0.232549063192E+04   -0.11760E-03   -0.32116E-03  4764   0.335E-02    0.351E-01
RMM:   4    -0.232548992777E+04    0.70415E-03   -0.18799E-03  4993   0.181E-02    0.243E-01
RMM:   5    -0.232548963177E+04    0.29600E-03   -0.75710E-04  3742   0.118E-02    0.157E-01
RMM:   6    -0.232548943463E+04    0.19714E-03   -0.27617E-04  3392   0.842E-03    0.700E-02
RMM:   7    -0.232548939137E+04    0.43263E-04   -0.10806E-04  2938   0.564E-03    0.336E-02
RMM:   8    -0.232548937828E+04    0.13086E-04   -0.18570E-05  2796   0.340E-03    0.922E-03
RMM:   9    -0.232548937912E+04   -0.84403E-06   -0.59830E-06  2691   0.196E-03
   6 F= -.23468978E+04 E0= -.23468978E+04  d E =-.834536E-04  mag=     2.9993
       N       E                     dE             d eps       ncg     rms          rms(c)
DAV:   1    -0.232550529151E+04   -0.15913E-01   -0.63885E+00  4480   0.111E+00    0.434E-01
RMM:   2    -0.232550813195E+04   -0.28404E-02   -0.32175E-02  4986   0.864E-02    0.338E-01
RMM:   3    -0.232550939203E+04   -0.12601E-02   -0.58641E-03  5118   0.377E-02    0.484E-01
RMM:   4    -0.232550796991E+04    0.14221E-02   -0.24136E-03  5355   0.203E-02    0.324E-01
RMM:   5    -0.232550724356E+04    0.72634E-03   -0.14848E-03  4525   0.159E-02    0.153E-01
RMM:   6    -0.232550700211E+04    0.24145E-03   -0.35733E-04  3651   0.971E-03    0.283E-02
RMM:   7    -0.232550699885E+04    0.32605E-05   -0.51874E-05  3039   0.474E-03
   7 F= -.23469164E+04 E0= -.23469164E+04  d E =-.872454E-04  mag=     2.9993
       N       E                     dE             d eps       ncg     rms          rms(c)
DAV:   1    -0.232547945214E+04    0.27550E-01   -0.38611E+00  4440   0.101E+00    0.356E-01
RMM:   2    -0.232547988480E+04   -0.43266E-03   -0.20920E-02  4613   0.748E-02    0.244E-01
RMM:   3    -0.232548073529E+04   -0.85048E-03   -0.35669E-03  4550   0.384E-02    0.405E-01
RMM:   4    -0.232547957132E+04    0.11640E-02   -0.23173E-03  4738   0.205E-02    0.248E-01
RMM:   5    -0.232547923318E+04    0.33813E-03   -0.11239E-03  4234   0.179E-02    0.138E-01
RMM:   6    -0.232547899512E+04    0.23806E-03   -0.28909E-04  3514   0.850E-03    0.438E-02
RMM:   7    -0.232547898497E+04    0.10154E-04   -0.68085E-05  2752   0.509E-03    0.416E-02
RMM:   8    -0.232547896619E+04    0.18779E-04   -0.21786E-05  2705   0.277E-03    0.134E-02
RMM:   9    -0.232547896934E+04   -0.31526E-05   -0.14803E-05  2873   0.232E-03
   8 F= -.23468876E+04 E0= -.23468876E+04  d E =-.594989E-04  mag=     2.9995
       N       E                     dE             d eps       ncg     rms          rms(c)
DAV:   1    -0.232548424234E+04   -0.52761E-02   -0.84772E+00  4480   0.155E+00    0.562E-01
RMM:   2    -0.232548212093E+04    0.21214E-02   -0.35128E-02  4138   0.101E-01    0.345E-01
RMM:   3    -0.232548088470E+04    0.12362E-02   -0.11988E-02  4887   0.581E-02    0.277E-01
RMM:   4    -0.232548084485E+04    0.39856E-04   -0.32762E-03  5406   0.257E-02    0.283E-01
RMM:   5    -0.232548036829E+04    0.47656E-03   -0.70262E-04  3885   0.123E-02    0.165E-01
RMM:   6    -0.232548005336E+04    0.31492E-03   -0.20679E-04  3166   0.776E-03    0.480E-02
RMM:   7    -0.232548004736E+04    0.59990E-05   -0.87663E-05  2943   0.472E-03
   9 F= -.23468893E+04 E0= -.23468892E+04  d E =-.118631E-03  mag=     2.9992
       N       E                     dE             d eps       ncg     rms          rms(c)
DAV:   1    -0.232547010468E+04    0.99487E-02   -0.42175E+00  4480   0.107E+00    0.417E-01
RMM:   2    -0.232546822137E+04    0.18833E-02   -0.19553E-02  3948   0.735E-02    0.255E-01
RMM:   3    -0.232546911793E+04   -0.89656E-03   -0.63635E-03  4966   0.456E-02    0.478E-01
RMM:   4    -0.232546733416E+04    0.17838E-02   -0.33922E-03  5078   0.234E-02    0.185E-01
RMM:   5    -0.232546724460E+04    0.89565E-04   -0.76169E-04  3867   0.137E-02    0.157E-01
RMM:   6    -0.232546697090E+04    0.27370E-03   -0.19715E-04  3157   0.713E-03    0.310E-02
RMM:   7    -0.232546696442E+04    0.64787E-05   -0.45936E-05  2742   0.384E-03
  10 F= -.23468760E+04 E0= -.23468760E+04  d E =-.754931E-04  mag=     2.9994
       N       E                     dE             d eps       ncg     rms          rms(c)
DAV:   1    -0.232550428268E+04   -0.37312E-01   -0.83924E+00  4480   0.157E+00    0.623E-01
RMM:   2    -0.232549955982E+04    0.47229E-02   -0.38178E-02  4132   0.109E-01    0.393E-01
RMM:   3    -0.232550301783E+04   -0.34580E-02   -0.13153E-02  4850   0.691E-02    0.820E-01
RMM:   4    -0.232549780204E+04    0.52158E-02   -0.84197E-03  5275   0.385E-02    0.318E-01
RMM:   5    -0.232549745619E+04    0.34584E-03   -0.23570E-03  4665   0.294E-02    0.244E-01
RMM:   6    -0.232549674735E+04    0.70884E-03   -0.58673E-04  3935   0.110E-02    0.404E-02
RMM:   7    -0.232549671897E+04    0.28378E-04   -0.86705E-05  3099   0.504E-03    0.277E-02
RMM:   8    -0.232549672970E+04   -0.10729E-04   -0.43271E-05  2902   0.419E-03    0.308E-02
RMM:   9    -0.232549672028E+04    0.94254E-05   -0.23209E-05  2841   0.350E-03
  11 F= -.23469056E+04 E0= -.23469055E+04  d E =-.102191E-03  mag=     2.9992
       N       E                     dE             d eps       ncg     rms          rms(c)
DAV:   1    -0.232549475209E+04    0.19776E-02   -0.41148E+00  4400   0.107E+00    0.386E-01
RMM:   2    -0.232549306443E+04    0.16877E-02   -0.16084E-02  4162   0.672E-02    0.237E-01
RMM:   3    -0.232549433339E+04   -0.12690E-02   -0.54330E-03  5002   0.426E-02    0.494E-01
RMM:   4    -0.232549213442E+04    0.21990E-02   -0.26190E-03  4961   0.219E-02    0.161E-01
RMM:   5    -0.232549204759E+04    0.86834E-04   -0.59251E-04  3563   0.150E-02    0.118E-01
RMM:   6    -0.232549188703E+04    0.16057E-03   -0.11794E-04  3094   0.691E-03    0.282E-02
RMM:   7    -0.232549188297E+04    0.40564E-05   -0.33574E-05  2662   0.359E-03
  12 F= -.23469006E+04 E0= -.23469005E+04  d E =-.897932E-04  mag=     2.9993
       N       E                     dE             d eps       ncg     rms          rms(c)
DAV:   1    -0.232549176141E+04    0.12561E-03   -0.79528E+00  4480   0.149E+00    0.528E-01
RMM:   2    -0.232548947465E+04    0.22868E-02   -0.36449E-02  4258   0.940E-02    0.297E-01
RMM:   3    -0.232548800216E+04    0.14725E-02   -0.58763E-03  4441   0.513E-02    0.216E-01
RMM:   4    -0.232548819303E+04   -0.19088E-03   -0.30556E-03  5047   0.244E-02    0.251E-01
RMM:   5    -0.232548779709E+04    0.39594E-03   -0.83263E-04  4022   0.157E-02    0.169E-01
RMM:   6    -0.232548752536E+04    0.27173E-03   -0.25483E-04  3272   0.800E-03    0.457E-02
RMM:   7    -0.232548751446E+04    0.10899E-04   -0.58764E-05  2809   0.435E-03    0.420E-02
RMM:   8    -0.232548749726E+04    0.17201E-04   -0.26170E-05  2632   0.314E-03    0.166E-02
RMM:   9    -0.232548749648E+04    0.77992E-06   -0.14445E-05  2848   0.239E-03
  13 F= -.23468968E+04 E0= -.23468967E+04  d E =-.784058E-04  mag=     2.9994
       N       E                     dE             d eps       ncg     rms          rms(c)
DAV:   1    -0.232550089135E+04   -0.13394E-01   -0.22396E+00  4480   0.785E-01    0.298E-01
RMM:   2    -0.232550071530E+04    0.17604E-03   -0.10316E-02  4179   0.519E-02    0.176E-01
RMM:   3    -0.232550045676E+04    0.25854E-03   -0.19706E-03  4228   0.272E-02    0.143E-01
RMM:   4    -0.232550054864E+04   -0.91872E-04   -0.10005E-03  4197   0.139E-02    0.174E-01
RMM:   5    -0.232550031271E+04    0.23592E-03   -0.26184E-04  3260   0.935E-03    0.758E-02
RMM:   6    -0.232550024464E+04    0.68077E-04   -0.70478E-05  2805   0.478E-03    0.200E-02
RMM:   7    -0.232550023712E+04    0.75200E-05   -0.20829E-05  2670   0.267E-03
  14 F= -.23469086E+04 E0= -.23469086E+04  d E =-.891911E-04  mag=     2.9993
       N       E                     dE             d eps       ncg     rms          rms(c)
DAV:   1    -0.232549020917E+04    0.10035E-01   -0.12053E+00  4680   0.505E-01    0.361E-01
RMM:   2    -0.232548972048E+04    0.48869E-03   -0.92917E-03  3883   0.429E-02    0.216E-01
RMM:   3    -0.232549071896E+04   -0.99849E-03   -0.28360E-03  4513   0.318E-02    0.357E-01
RMM:   4    -0.232548965518E+04    0.10638E-02   -0.14192E-03  4579   0.163E-02    0.127E-01
RMM:   5    -0.232548976568E+04   -0.11050E-03   -0.42049E-04  3430   0.988E-03    0.159E-01
RMM:   6    -0.232548950432E+04    0.26136E-03   -0.17341E-04  3148   0.666E-03    0.277E-02
RMM:   7    -0.232548950025E+04    0.40650E-05   -0.31852E-05  2836   0.363E-03
  15 F= -.23468989E+04 E0= -.23468989E+04  d E =-.846075E-04  mag=     2.9993
       N       E                     dE             d eps       ncg     rms          rms(c)
DAV:   1    -0.232551008994E+04   -0.20586E-01   -0.63705E-01  4960   0.370E-01    0.390E-01
RMM:   2    -0.232550785481E+04    0.22351E-02   -0.11452E-02  3919   0.455E-02    0.211E-01
RMM:   3    -0.232550805412E+04   -0.19932E-03   -0.27128E-03  4187   0.320E-02    0.279E-01
RMM:   4    -0.232550771404E+04    0.34008E-03   -0.13346E-03  4407   0.152E-02    0.195E-01
RMM:   5    -0.232550746747E+04    0.24657E-03   -0.41403E-04  3505   0.989E-03    0.105E-01
RMM:   6    -0.232550735626E+04    0.11121E-03   -0.22850E-04  3242   0.755E-03    0.525E-02
RMM:   7    -0.232550734006E+04    0.16201E-04   -0.54633E-05  2841   0.445E-03    0.347E-02
RMM:   8    -0.232550732373E+04    0.16329E-04   -0.15823E-05  2459   0.314E-03    0.953E-03
RMM:   9    -0.232550732244E+04    0.12899E-05   -0.45793E-06  2266   0.143E-03
  16 F= -.23469161E+04 E0= -.23469160E+04  d E =-.851216E-04  mag=     2.9993
       N       E                     dE             d eps       ncg     rms          rms(c)
DAV:   1    -0.232547483266E+04    0.32491E-01   -0.12631E+00  4920   0.522E-01    0.539E-01
RMM:   2    -0.232547040375E+04    0.44289E-02   -0.19774E-02  4014   0.635E-02    0.286E-01
RMM:   3    -0.232547043014E+04   -0.26384E-04   -0.46214E-03  4196   0.450E-02    0.307E-01
RMM:   4    -0.232547042752E+04    0.26141E-05   -0.23428E-03  4867   0.199E-02    0.288E-01
RMM:   5    -0.232546971088E+04    0.71664E-03   -0.59743E-04  3957   0.131E-02    0.990E-02
RMM:   6    -0.232546971798E+04   -0.70986E-05   -0.37182E-04  3601   0.875E-03    0.103E-01
RMM:   7    -0.232546960005E+04    0.11793E-03   -0.96089E-05  3058   0.594E-03    0.229E-02
RMM:   8    -0.232546959455E+04    0.54972E-05   -0.19868E-05  2567   0.318E-03
  17 F= -.23468787E+04 E0= -.23468787E+04  d E =-.827783E-04  mag=     2.9993
       N       E                     dE             d eps       ncg     rms          rms(c)
DAV:   1    -0.232549422485E+04   -0.24625E-01   -0.63258E-01  4800   0.369E-01    0.377E-01
RMM:   2    -0.232549216867E+04    0.20562E-02   -0.94153E-03  4036   0.433E-02    0.197E-01
RMM:   3    -0.232549194951E+04    0.21915E-03   -0.18879E-03  3893   0.293E-02    0.132E-01
RMM:   4    -0.232549231221E+04   -0.36270E-03   -0.10114E-03  4112   0.134E-02    0.226E-01
RMM:   5    -0.232549187821E+04    0.43400E-03   -0.30721E-04  3366   0.101E-02    0.724E-02
RMM:   6    -0.232549186582E+04    0.12390E-04   -0.14529E-04  3015   0.561E-03    0.658E-02
RMM:   7    -0.232549181540E+04    0.50420E-04   -0.35877E-05  2693   0.395E-03    0.103E-02
RMM:   8    -0.232549181614E+04   -0.74352E-06   -0.80763E-06  2363   0.221E-03
  18 F= -.23469008E+04 E0= -.23469008E+04  d E =-.782015E-04  mag=     2.9994
       N       E                     dE             d eps       ncg     rms          rms(c)
DAV:   1    -0.232549916605E+04   -0.73506E-02   -0.12070E+00  4520   0.505E-01    0.358E-01
RMM:   2    -0.232549887617E+04    0.28988E-03   -0.75741E-03  3858   0.391E-02    0.206E-01
RMM:   3    -0.232549875622E+04    0.11995E-03   -0.15469E-03  4088   0.247E-02    0.761E-02
RMM:   4    -0.232549895190E+04   -0.19568E-03   -0.55190E-04  3749   0.106E-02    0.153E-01
RMM:   5    -0.232549876013E+04    0.19177E-03   -0.15717E-04  2971   0.723E-03    0.547E-02
RMM:   6    -0.232549874378E+04    0.16353E-04   -0.63430E-05  2722   0.392E-03    0.385E-02
RMM:   7    -0.232549872916E+04    0.14626E-04   -0.18798E-05  2570   0.287E-03    0.140E-02
RMM:   8    -0.232549872784E+04    0.13131E-05   -0.57369E-06  2279   0.200E-03
  19 F= -.23469076E+04 E0= -.23469075E+04  d E =-.961458E-04  mag=     2.9993
       N       E                     dE             d eps       ncg     rms          rms(c)
DAV:   1    -0.232550393081E+04   -0.52017E-02   -0.59117E-01  4600   0.381E-01    0.245E-01
RMM:   2    -0.232550367112E+04    0.25969E-03   -0.39356E-03  3897   0.306E-02    0.138E-01
RMM:   3    -0.232550372575E+04   -0.54630E-04   -0.73415E-04  3666   0.193E-02    0.959E-02
RMM:   4    -0.232550375894E+04   -0.33191E-04   -0.41033E-04  3707   0.936E-03    0.966E-02
RMM:   5    -0.232550366854E+04    0.90403E-04   -0.10471E-04  3138   0.644E-03    0.455E-02
RMM:   6    -0.232550366352E+04    0.50255E-05   -0.41390E-05  2665   0.347E-03
  20 F= -.23469121E+04 E0= -.23469120E+04  d E =-.782119E-04  mag=     2.9994
       N       E                     dE             d eps       ncg     rms          rms(c)
DAV:   1    -0.232548803048E+04    0.15638E-01   -0.11622E+00  4600   0.486E-01    0.319E-01
RMM:   2    -0.232548778814E+04    0.24233E-03   -0.71072E-03  4092   0.398E-02    0.187E-01
RMM:   3    -0.232548822936E+04   -0.44122E-03   -0.16432E-03  4133   0.275E-02    0.251E-01
RMM:   4    -0.232548778762E+04    0.44175E-03   -0.81487E-04  4029   0.126E-02    0.117E-01
RMM:   5    -0.232548783404E+04   -0.46420E-04   -0.30864E-04  3246   0.917E-03    0.120E-01
RMM:   6    -0.232548767748E+04    0.15656E-03   -0.11605E-04  3093   0.582E-03    0.285E-02
RMM:   7    -0.232548767272E+04    0.47589E-05   -0.28046E-05  2682   0.344E-03
  21 F= -.23468971E+04 E0= -.23468971E+04  d E =-.856992E-04  mag=     2.9993
       N       E                     dE             d eps       ncg     rms          rms(c)
DAV:   1    -0.232547168327E+04    0.15994E-01   -0.58839E-01  4560   0.355E-01    0.217E-01
RMM:   2    -0.232547163095E+04    0.52325E-04   -0.32527E-03  3687   0.265E-02    0.126E-01
RMM:   3    -0.232547165266E+04   -0.21713E-04   -0.65428E-04  3695   0.170E-02    0.764E-02
RMM:   4    -0.232547168344E+04   -0.30782E-04   -0.27272E-04  3399   0.786E-03    0.925E-02
RMM:   5    -0.232547162587E+04    0.57577E-04   -0.83004E-05  2804   0.558E-03    0.574E-02
RMM:   6    -0.232547159369E+04    0.32177E-04   -0.36886E-05  2596   0.327E-03    0.170E-02
RMM:   7    -0.232547159260E+04    0.10892E-05   -0.80674E-06  2422   0.215E-03
  22 F= -.23468807E+04 E0= -.23468806E+04  d E =-.900188E-04  mag=     2.9993
       N       E                     dE             d eps       ncg     rms          rms(c)
DAV:   1    -0.232551439211E+04   -0.42798E-01   -0.12154E+00  4680   0.502E-01    0.460E-01
RMM:   2    -0.232551153203E+04    0.28601E-02   -0.13460E-02  4186   0.562E-02    0.245E-01
RMM:   3    -0.232551144033E+04    0.91704E-04   -0.30256E-03  4128   0.378E-02    0.196E-01
RMM:   4    -0.232551159350E+04   -0.15317E-03   -0.15377E-03  4356   0.171E-02    0.227E-01
RMM:   5    -0.232551134740E+04    0.24610E-03   -0.54024E-04  3622   0.124E-02    0.150E-01
RMM:   6    -0.232551107991E+04    0.26749E-03   -0.26448E-04  3463   0.847E-03    0.325E-02
RMM:   7    -0.232551106606E+04    0.13853E-04   -0.24822E-05  2786   0.372E-03    0.109E-02
RMM:   8    -0.232551106779E+04   -0.17322E-05   -0.86057E-06  2471   0.230E-03
  23 F= -.23469198E+04 E0= -.23469198E+04  d E =-.859324E-04  mag=     2.9994
       N       E                     dE             d eps       ncg     rms          rms(c)
DAV:   1    -0.232552254279E+04   -0.11477E-01   -0.58637E-01  4360   0.360E-01    0.218E-01
RMM:   2    -0.232552262853E+04   -0.85733E-04   -0.28447E-03  3764   0.251E-02    0.129E-01
RMM:   3    -0.232552264570E+04   -0.17174E-04   -0.48705E-04  3603   0.154E-02    0.723E-02
RMM:   4    -0.232552269727E+04   -0.51565E-04   -0.25012E-04  3269   0.748E-03    0.933E-02
RMM:   5    -0.232552263214E+04    0.65131E-04   -0.65337E-05  2782   0.549E-03    0.559E-02
RMM:   6    -0.232552260391E+04    0.28231E-04   -0.20965E-05  2451   0.267E-03    0.107E-02
RMM:   7    -0.232552260415E+04   -0.24457E-06   -0.52241E-06  2391   0.172E-03
  24 F= -.23469311E+04 E0= -.23469311E+04  d E =-.893262E-04  mag=     2.9993
       N       E                     dE             d eps       ncg     rms          rms(c)
DAV:   1    -0.232546647769E+04    0.56126E-01   -0.11622E+00  4840   0.500E-01    0.409E-01
RMM:   2    -0.232546506380E+04    0.14139E-02   -0.95500E-03  4017   0.465E-02    0.228E-01
RMM:   3    -0.232546537213E+04   -0.30833E-03   -0.26706E-03  4260   0.323E-02    0.278E-01
RMM:   4    -0.232546494176E+04    0.43037E-03   -0.11571E-03  4451   0.145E-02    0.162E-01
RMM:   5    -0.232546478967E+04    0.15208E-03   -0.37000E-04  3540   0.979E-03    0.995E-02
RMM:   6    -0.232546470313E+04    0.86542E-04   -0.19760E-04  3205   0.688E-03    0.532E-02
RMM:   7    -0.232546467750E+04    0.25636E-04   -0.35598E-05  2781   0.416E-03    0.237E-02
RMM:   8    -0.232546467053E+04    0.69668E-05   -0.12219E-05  2492   0.266E-03
  25 F= -.23468740E+04 E0= -.23468739E+04  d E =-.810208E-04  mag=     2.9994
       N       E                     dE             d eps       ncg     rms          rms(c)
DAV:   1    -0.232547399016E+04   -0.93127E-02   -0.60565E-01  4920   0.394E-01    0.328E-01
RMM:   2    -0.232547325062E+04    0.73954E-03   -0.64641E-03  3810   0.409E-02    0.192E-01
RMM:   3    -0.232547291967E+04    0.33095E-03   -0.16616E-03  3850   0.262E-02    0.751E-02
RMM:   4    -0.232547298422E+04   -0.64553E-04   -0.55653E-04  3665   0.110E-02    0.949E-02
RMM:   5    -0.232547287428E+04    0.10994E-03   -0.94316E-05  3014   0.626E-03    0.307E-02
RMM:   6    -0.232547287266E+04    0.16185E-05   -0.32992E-05  2649   0.315E-03
  26 F= -.23468821E+04 E0= -.23468820E+04  d E =-.861164E-04  mag=     2.9993
       N       E                     dE             d eps       ncg     rms          rms(c)
DAV:   1    -0.232550408737E+04   -0.31213E-01   -0.13184E+00  4800   0.539E-01    0.589E-01
RMM:   2    -0.232549881587E+04    0.52715E-02   -0.23806E-02  4220   0.752E-02    0.335E-01
RMM:   3    -0.232550237538E+04   -0.35595E-02   -0.83837E-03  4800   0.555E-02    0.722E-01
RMM:   4    -0.232549804306E+04    0.43323E-02   -0.41860E-03  5302   0.279E-02    0.197E-01
RMM:   5    -0.232549806376E+04   -0.20695E-04   -0.10753E-03  4253   0.165E-02    0.202E-01
RMM:   6    -0.232549762014E+04    0.44362E-03   -0.53528E-04  3945   0.106E-02    0.637E-02
RMM:   7    -0.232549758197E+04    0.38174E-04   -0.81778E-05  3060   0.535E-03    0.324E-02
RMM:   8    -0.232549756854E+04    0.13431E-04   -0.26841E-05  2590   0.365E-03    0.158E-02
RMM:   9    -0.232549756452E+04    0.40153E-05   -0.11330E-05  2502   0.211E-03
  27 F= -.23469062E+04 E0= -.23469062E+04  d E =-.858422E-04  mag=     2.9993
       N       E                     dE             d eps       ncg     rms          rms(c)
DAV:   1    -0.232550573081E+04   -0.81623E-02   -0.64609E-01  4640   0.381E-01    0.334E-01
RMM:   2    -0.232550446092E+04    0.12699E-02   -0.66988E-03  3901   0.388E-02    0.185E-01
RMM:   3    -0.232550450616E+04   -0.45241E-04   -0.18046E-03  3852   0.274E-02    0.178E-01
RMM:   4    -0.232550450289E+04    0.32699E-05   -0.87691E-04  3952   0.127E-02    0.170E-01
RMM:   5    -0.232550433081E+04    0.17208E-03   -0.28161E-04  3310   0.924E-03    0.942E-02
RMM:   6    -0.232550423670E+04    0.94107E-04   -0.14727E-04  3058   0.609E-03    0.391E-02
RMM:   7    -0.232550422772E+04    0.89835E-05   -0.32704E-05  2651   0.366E-03
  28 F= -.23469130E+04 E0= -.23469130E+04  d E =-.896082E-04  mag=     2.9993
       N       E                     dE             d eps       ncg     rms          rms(c)
DAV:   1    -0.232548828607E+04    0.15951E-01   -0.12199E+00  4280   0.514E-01    0.317E-01
RMM:   2    -0.232548842488E+04   -0.13881E-03   -0.56061E-03  3731   0.366E-02    0.190E-01
RMM:   3    -0.232548892596E+04   -0.50108E-03   -0.14729E-03  4263   0.237E-02    0.221E-01
RMM:   4    -0.232548842425E+04    0.50171E-03   -0.54474E-04  3727   0.106E-02    0.658E-02
RMM:   5    -0.232548842334E+04    0.91078E-06   -0.12169E-04  2930   0.582E-03    0.685E-02
RMM:   6    -0.232548837482E+04    0.48526E-04   -0.36664E-05  2612   0.349E-03    0.117E-02
RMM:   7    -0.232548837384E+04    0.97298E-06   -0.94061E-06  2370   0.202E-03
  29 F= -.23468974E+04 E0= -.23468974E+04  d E =-.854604E-04  mag=     2.9993
       N       E                     dE             d eps       ncg     rms          rms(c)
DAV:   1    -0.232549197121E+04   -0.35964E-02   -0.60020E-01  4200   0.359E-01    0.221E-01
RMM:   2    -0.232549217757E+04   -0.20636E-03   -0.30964E-03  3602   0.260E-02    0.135E-01
RMM:   3    -0.232549243492E+04   -0.25734E-03   -0.72272E-04  3682   0.167E-02    0.178E-01
RMM:   4    -0.232549217657E+04    0.25834E-03   -0.27279E-04  3239   0.779E-03    0.557E-02
RMM:   5    -0.232549215840E+04    0.18175E-04   -0.63091E-05  2693   0.470E-03    0.349E-02
RMM:   6    -0.232549214382E+04    0.14582E-04   -0.13408E-05  2416   0.242E-03    0.110E-02
RMM:   7    -0.232549214313E+04    0.68192E-06   -0.44697E-06  2132   0.146E-03
  30 F= -.23469011E+04 E0= -.23469010E+04  d E =-.100053E-03  mag=     2.9993
       N       E                     dE             d eps       ncg     rms          rms(c)
DAV:   1    -0.232550086468E+04   -0.87209E-02   -0.11933E+00  4240   0.516E-01    0.321E-01
RMM:   2    -0.232550125423E+04   -0.38955E-03   -0.64528E-03  3803   0.380E-02    0.193E-01
RMM:   3    -0.232550151706E+04   -0.26282E-03   -0.13398E-03  3912   0.249E-02    0.193E-01
RMM:   4    -0.232550127857E+04    0.23849E-03   -0.52428E-04  3713   0.107E-02    0.103E-01
RMM:   5    -0.232550122858E+04    0.49982E-04   -0.12730E-04  2961   0.712E-03    0.606E-02
RMM:   6    -0.232550118178E+04    0.46800E-04   -0.34151E-05  2633   0.374E-03    0.156E-02
RMM:   7    -0.232550118159E+04    0.19350E-06   -0.10809E-05  2428   0.209E-03
  31 F= -.23469101E+04 E0= -.23469100E+04  d E =-.738393E-04  mag=     2.9994
