       N       E                     dE             d eps       ncg     rms          rms(c)
DAV:   1     0.125065338198E+05    0.12507E+05   -0.81786E+05  4384   0.143E+03
DAV:   2    -0.106945538260E+04   -0.13576E+05   -0.13033E+05  5360   0.329E+02
DAV:   3    -0.246295596836E+04   -0.13935E+04   -0.13823E+04  5240   0.109E+02
DAV:   4    -0.250100379847E+04   -0.38048E+02   -0.37871E+02  6280   0.250E+01
DAV:   5    -0.250176503216E+04   -0.76123E+00   -0.76025E+00  5464   0.291E+00    0.170E+02
RMM:   6    -0.146284697877E+04    0.10389E+04   -0.19298E+03  4329   0.389E+01    0.723E+01
RMM:   7    -0.163079320905E+04   -0.16795E+03   -0.26244E+02  4828   0.137E+01    0.491E+01
RMM:   8    -0.168970342624E+04   -0.58910E+02   -0.42946E+01  4675   0.756E+00    0.363E+01
RMM:   9    -0.181951447767E+04   -0.12981E+03   -0.65233E+01  4544   0.824E+00    0.247E+01
RMM:  10    -0.195936152921E+04   -0.13985E+03   -0.55035E+01  4613   0.690E+00    0.175E+01
RMM:  11    -0.204862633258E+04   -0.89265E+02   -0.40767E+01  4470   0.498E+00    0.146E+01
RMM:  12    -0.213741457228E+04   -0.88788E+02   -0.45533E+01  4582   0.533E+00    0.106E+01
RMM:  13    -0.224189355586E+04   -0.10448E+03   -0.85857E+01  4365   0.668E+00    0.104E+01
RMM:  14    -0.227003671455E+04   -0.28143E+02   -0.23023E+01  4405   0.403E+00    0.715E+00
RMM:  15    -0.228513901902E+04   -0.15102E+02   -0.13903E+01  4468   0.251E+00    0.398E+00
RMM:  16    -0.229249290162E+04   -0.73539E+01   -0.63093E+00  4465   0.196E+00    0.188E+00
RMM:  17    -0.229474652574E+04   -0.22536E+01   -0.21298E+00  4853   0.966E-01    0.134E+00
RMM:  18    -0.229535262332E+04   -0.60610E+00   -0.64338E-01  4673   0.442E-01    0.596E-01
RMM:  19    -0.229549764404E+04   -0.14502E+00   -0.13187E-01  4946   0.253E-01    0.345E-01
RMM:  20    -0.229557189666E+04   -0.74253E-01   -0.31285E-02  4575   0.120E-01    0.212E-01
RMM:  21    -0.229561108628E+04   -0.39190E-01   -0.12006E-02  4449   0.879E-02    0.172E-01
RMM:  22    -0.229563181085E+04   -0.20725E-01   -0.59560E-03  4434   0.608E-02    0.121E-01
RMM:  23    -0.229564331123E+04   -0.11500E-01   -0.28642E-03  4444   0.448E-02    0.673E-02
RMM:  24    -0.229565023496E+04   -0.69237E-02   -0.14526E-03  4300   0.289E-02    0.427E-02
RMM:  25    -0.229565793544E+04   -0.77005E-02   -0.20208E-03  4332   0.307E-02    0.317E-02
RMM:  26    -0.229565991837E+04   -0.19829E-02   -0.65468E-04  4116   0.222E-02    0.224E-02
RMM:  27    -0.229566052878E+04   -0.61041E-03   -0.20896E-04  3910   0.951E-03    0.158E-02
RMM:  28    -0.229566098042E+04   -0.45164E-03   -0.92444E-05  3505   0.821E-03    0.106E-02
RMM:  29    -0.229566111444E+04   -0.13402E-03   -0.27556E-05  3071   0.464E-03    0.755E-03
RMM:  30    -0.229566122107E+04   -0.10662E-03   -0.20574E-05  2949   0.398E-03    0.602E-03
RMM:  31    -0.229566127380E+04   -0.52736E-04   -0.14711E-05  2864   0.350E-03    0.559E-03
RMM:  32    -0.229566128215E+04   -0.83442E-05   -0.64198E-06  2540   0.296E-03
   1 F= -.23155408E+04 E0= -.23155408E+04  d E =-.231554E+04  mag=     1.9999
