       N       E                     dE             d eps       ncg     rms          rms(c)
DAV:   1     0.130061792504E+05    0.13006E+05   -0.84542E+05  4560   0.143E+03
DAV:   2    -0.110749200675E+04   -0.14114E+05   -0.13500E+05  5040   0.328E+02
DAV:   3    -0.249744233958E+04   -0.13900E+04   -0.13764E+04  5480   0.111E+02
DAV:   4    -0.253458408874E+04   -0.37142E+02   -0.36977E+02  6240   0.249E+01
DAV:   5    -0.253536625231E+04   -0.78216E+00   -0.78066E+00  5760   0.294E+00    0.170E+02
RMM:   6    -0.149871726064E+04    0.10366E+04   -0.19471E+03  4512   0.380E+01    0.724E+01
RMM:   7    -0.166261168602E+04   -0.16389E+03   -0.28807E+02  5118   0.143E+01    0.504E+01
RMM:   8    -0.172791357294E+04   -0.65302E+02   -0.61748E+01  5328   0.785E+00    0.468E+01
RMM:   9    -0.178385338052E+04   -0.55940E+02   -0.58558E+01  5250   0.691E+00    0.344E+01
RMM:  10    -0.193715398641E+04   -0.15330E+03   -0.67381E+01  5289   0.790E+00    0.267E+01
RMM:  11    -0.199308907596E+04   -0.55935E+02   -0.22841E+01  5327   0.423E+00    0.218E+01
RMM:  12    -0.206822417732E+04   -0.75135E+02   -0.27398E+01  4987   0.415E+00    0.164E+01
RMM:  13    -0.213102922306E+04   -0.62805E+02   -0.25575E+01  5254   0.402E+00    0.132E+01
RMM:  14    -0.224313805044E+04   -0.11211E+03   -0.86089E+01  4510   0.670E+00    0.968E+00
RMM:  15    -0.229944951146E+04   -0.56311E+02   -0.48269E+01  4835   0.503E+00    0.593E+00
RMM:  16    -0.232087641857E+04   -0.21427E+02   -0.22547E+01  4824   0.348E+00    0.367E+00
RMM:  17    -0.232594364656E+04   -0.50672E+01   -0.60256E+00  5308   0.164E+00    0.284E+00
RMM:  18    -0.232861575265E+04   -0.26721E+01   -0.21682E+00  4895   0.931E-01    0.170E+00
RMM:  19    -0.232999158674E+04   -0.13758E+01   -0.11104E+00  4739   0.628E-01    0.106E+00
RMM:  20    -0.233048893499E+04   -0.49735E+00   -0.46712E-01  4694   0.396E-01    0.540E-01
RMM:  21    -0.233057741725E+04   -0.88482E-01   -0.14293E-01  5252   0.243E-01    0.302E-01
RMM:  22    -0.233060047010E+04   -0.23053E-01   -0.22875E-02  5011   0.100E-01    0.172E-01
RMM:  23    -0.233062534028E+04   -0.24870E-01   -0.96907E-03  4499   0.766E-02    0.136E-01
RMM:  24    -0.233063507434E+04   -0.97341E-02   -0.32684E-03  4718   0.499E-02    0.661E-02
RMM:  25    -0.233064265535E+04   -0.75810E-02   -0.20428E-03  4541   0.335E-02    0.496E-02
RMM:  26    -0.233064771068E+04   -0.50553E-02   -0.14546E-03  4569   0.303E-02    0.270E-02
RMM:  27    -0.233065012361E+04   -0.24129E-02   -0.87524E-04  4426   0.224E-02    0.184E-02
RMM:  28    -0.233065080117E+04   -0.67756E-03   -0.25876E-04  4196   0.139E-02    0.102E-02
RMM:  29    -0.233065109877E+04   -0.29759E-03   -0.84383E-05  3741   0.746E-03    0.627E-03
RMM:  30    -0.233065120381E+04   -0.10505E-03   -0.22944E-05  3132   0.525E-03    0.356E-03
RMM:  31    -0.233065127641E+04   -0.72594E-04   -0.15136E-05  2989   0.363E-03    0.234E-03
RMM:  32    -0.233065130832E+04   -0.31907E-04   -0.85843E-06  2887   0.330E-03    0.132E-03
RMM:  33    -0.233065132231E+04   -0.13995E-04   -0.49071E-06  2526   0.235E-03    0.823E-04
RMM:  34    -0.233065132661E+04   -0.43002E-05   -0.25913E-06  2443   0.189E-03
   1 F= -.23521258E+04 E0= -.23521258E+04  d E =-.160668E-03  mag=     3.9987
       N       E                     dE             d eps       ncg     rms          rms(c)
DAV:   1    -0.233064353871E+04    0.77836E-02   -0.20361E+00  4520   0.734E-01    0.272E-01
RMM:   2    -0.233064389188E+04   -0.35317E-03   -0.11106E-02  4428   0.561E-02    0.213E-01
RMM:   3    -0.233064405514E+04   -0.16327E-03   -0.23708E-03  4324   0.281E-02    0.254E-01
RMM:   4    -0.233064346614E+04    0.58901E-03   -0.12872E-03  4465   0.158E-02    0.146E-01
RMM:   5    -0.233064329089E+04    0.17525E-03   -0.38204E-04  3406   0.106E-02    0.589E-02
RMM:   6    -0.233064325287E+04    0.38021E-04   -0.39076E-05  2853   0.427E-03    0.174E-02
RMM:   7    -0.233064325608E+04   -0.32085E-05   -0.20947E-05  2657   0.267E-03
   2 F= -.23521179E+04 E0= -.23521178E+04  d E =-.131327E-03  mag=     3.9989
       N       E                     dE             d eps       ncg     rms          rms(c)
DAV:   1    -0.233064476462E+04   -0.15118E-02   -0.81029E+00  4480   0.146E+00    0.545E-01
RMM:   2    -0.233064550801E+04   -0.74339E-03   -0.40782E-02  4615   0.114E-01    0.409E-01
RMM:   3    -0.233064638038E+04   -0.87237E-03   -0.93152E-03  4947   0.555E-02    0.501E-01
RMM:   4    -0.233064381274E+04    0.25676E-02   -0.46117E-03  4882   0.298E-02    0.255E-01
RMM:   5    -0.233064333747E+04    0.47527E-03   -0.13055E-03  4213   0.195E-02    0.125E-01
RMM:   6    -0.233064317485E+04    0.16263E-03   -0.14756E-04  3129   0.701E-03    0.313E-02
RMM:   7    -0.233064318845E+04   -0.13606E-04   -0.73180E-05  3133   0.475E-03    0.390E-02
RMM:   8    -0.233064317153E+04    0.16921E-04   -0.30328E-05  2811   0.380E-03    0.893E-03
RMM:   9    -0.233064317325E+04   -0.17157E-05   -0.56663E-06  2643   0.200E-03
   3 F= -.23521176E+04 E0= -.23521175E+04  d E =-.191776E-03  mag=     3.9985
       N       E                     dE             d eps       ncg     rms          rms(c)
DAV:   1    -0.233063169963E+04    0.11472E-01   -0.43108E+00  4480   0.107E+00    0.453E-01
RMM:   2    -0.233063129408E+04    0.40556E-03   -0.24689E-02  4315   0.891E-02    0.350E-01
RMM:   3    -0.233063160049E+04   -0.30641E-03   -0.66270E-03  4663   0.464E-02    0.380E-01
RMM:   4    -0.233062962239E+04    0.19781E-02   -0.38460E-03  4760   0.268E-02    0.736E-02
RMM:   5    -0.233062971488E+04   -0.92492E-04   -0.53006E-04  3450   0.158E-02    0.129E-01
RMM:   6    -0.233062954049E+04    0.17440E-03   -0.15117E-04  3092   0.592E-03    0.232E-02
RMM:   7    -0.233062953298E+04    0.75054E-05   -0.58861E-05  3066   0.367E-03
   4 F= -.23521038E+04 E0= -.23521037E+04  d E =-.174083E-03  mag=     3.9985
       N       E                     dE             d eps       ncg     rms          rms(c)
DAV:   1    -0.233063326154E+04   -0.37211E-02   -0.85095E+00  4480   0.152E+00    0.635E-01
RMM:   2    -0.233063182500E+04    0.14365E-02   -0.60502E-02  4576   0.140E-01    0.480E-01
RMM:   3    -0.233063255812E+04   -0.73313E-03   -0.13351E-02  5221   0.689E-02    0.567E-01
RMM:   4    -0.233062887021E+04    0.36879E-02   -0.86847E-03  5308   0.404E-02    0.291E-01
RMM:   5    -0.233062824845E+04    0.62175E-03   -0.17410E-03  4000   0.230E-02    0.148E-01
RMM:   6    -0.233062799947E+04    0.24898E-03   -0.27748E-04  3839   0.886E-03    0.356E-02
RMM:   7    -0.233062801741E+04   -0.17942E-04   -0.13418E-04  3271   0.591E-03    0.479E-02
RMM:   8    -0.233062798527E+04    0.32138E-04   -0.40838E-05  2935   0.431E-03    0.122E-02
RMM:   9    -0.233062798474E+04    0.53730E-06   -0.90638E-06  2705   0.249E-03
   5 F= -.23521028E+04 E0= -.23521027E+04  d E =-.147490E-03  mag=     3.9987
       N       E                     dE             d eps       ncg     rms          rms(c)
DAV:   1    -0.233063818954E+04   -0.10204E-01   -0.41883E+00  4560   0.107E+00    0.383E-01
RMM:   2    -0.233063820477E+04   -0.15239E-04   -0.25121E-02  4254   0.863E-02    0.285E-01
RMM:   3    -0.233063844130E+04   -0.23653E-03   -0.50601E-03  4471   0.444E-02    0.324E-01
RMM:   4    -0.233063711174E+04    0.13296E-02   -0.26976E-03  5124   0.232E-02    0.129E-01
RMM:   5    -0.233063713231E+04   -0.20578E-04   -0.64449E-04  3466   0.120E-02    0.140E-01
RMM:   6    -0.233063694440E+04    0.18791E-03   -0.15263E-04  3182   0.659E-03    0.233E-02
RMM:   7    -0.233063694895E+04   -0.45481E-05   -0.48983E-05  2899   0.415E-03
   6 F= -.23521115E+04 E0= -.23521114E+04  d E =-.159352E-03  mag=     3.9987
       N       E                     dE             d eps       ncg     rms          rms(c)
DAV:   1    -0.233064061012E+04   -0.36657E-02   -0.81219E+00  4480   0.155E+00    0.545E-01
RMM:   2    -0.233063979802E+04    0.81211E-03   -0.51392E-02  4535   0.128E-01    0.312E-01
RMM:   3    -0.233063958360E+04    0.21442E-03   -0.10514E-02  5042   0.603E-02    0.348E-01
RMM:   4    -0.233063814312E+04    0.14405E-02   -0.34387E-03  5444   0.273E-02    0.117E-01
RMM:   5    -0.233063799170E+04    0.15141E-03   -0.32001E-04  3707   0.924E-03    0.718E-02
RMM:   6    -0.233063797955E+04    0.12157E-04   -0.15256E-04  3067   0.606E-03    0.654E-02
RMM:   7    -0.233063794559E+04    0.33957E-04   -0.63253E-05  3130   0.482E-03    0.252E-02
RMM:   8    -0.233063794135E+04    0.42381E-05   -0.21720E-05  2781   0.357E-03
   7 F= -.23521125E+04 E0= -.23521124E+04  d E =-.165393E-03  mag=     3.9987
       N       E                     dE             d eps       ncg     rms          rms(c)
DAV:   1    -0.233063532112E+04    0.26245E-02   -0.43809E+00  4560   0.112E+00    0.431E-01
RMM:   2    -0.233063389537E+04    0.14258E-02   -0.28079E-02  4056   0.908E-02    0.252E-01
RMM:   3    -0.233063292653E+04    0.96884E-03   -0.91192E-03  5261   0.512E-02    0.169E-01
RMM:   4    -0.233063259599E+04    0.33054E-03   -0.12589E-03  4710   0.178E-02    0.832E-02
RMM:   5    -0.233063249333E+04    0.10265E-03   -0.16983E-04  3554   0.733E-03    0.483E-02
RMM:   6    -0.233063247849E+04    0.14838E-04   -0.61036E-05  2836   0.427E-03    0.351E-02
RMM:   7    -0.233063247072E+04    0.77740E-05   -0.43054E-05  2982   0.369E-03
   8 F= -.23521067E+04 E0= -.23521066E+04  d E =-.204152E-03  mag=     3.9984
       N       E                     dE             d eps       ncg     rms          rms(c)
DAV:   1    -0.233064095720E+04   -0.84787E-02   -0.86003E+00  4560   0.153E+00    0.587E-01
RMM:   2    -0.233063712053E+04    0.38367E-02   -0.39622E-02  3988   0.106E-01    0.349E-01
RMM:   3    -0.233063699311E+04    0.12742E-03   -0.12272E-02  4536   0.643E-02    0.457E-01
RMM:   4    -0.233063502368E+04    0.19694E-02   -0.52340E-03  5184   0.311E-02    0.172E-01
RMM:   5    -0.233063489539E+04    0.12829E-03   -0.69088E-04  3827   0.124E-02    0.129E-01
RMM:   6    -0.233063466872E+04    0.22667E-03   -0.20046E-04  3331   0.746E-03    0.305E-02
RMM:   7    -0.233063465573E+04    0.12991E-04   -0.75628E-05  3071   0.427E-03    0.161E-02
RMM:   8    -0.233063465930E+04   -0.35709E-05   -0.15769E-05  2724   0.351E-03
   9 F= -.23521095E+04 E0= -.23521094E+04  d E =-.125699E-03  mag=     3.9988
       N       E                     dE             d eps       ncg     rms          rms(c)
DAV:   1    -0.233064295842E+04   -0.83027E-02   -0.43595E+00  4560   0.112E+00    0.478E-01
RMM:   2    -0.233064020798E+04    0.27504E-02   -0.26889E-02  3931   0.858E-02    0.279E-01
RMM:   3    -0.233064029861E+04   -0.90630E-04   -0.76209E-03  4801   0.526E-02    0.397E-01
RMM:   4    -0.233063875603E+04    0.15426E-02   -0.38103E-03  5129   0.257E-02    0.113E-01
RMM:   5    -0.233063884277E+04   -0.86734E-04   -0.62249E-04  3808   0.119E-02    0.140E-01
RMM:   6    -0.233063860149E+04    0.24128E-03   -0.20282E-04  3317   0.744E-03    0.229E-02
RMM:   7    -0.233063860203E+04   -0.54493E-06   -0.35866E-05  2843   0.318E-03
  10 F= -.23521134E+04 E0= -.23521133E+04  d E =-.143559E-03  mag=     3.9988
       N       E                     dE             d eps       ncg     rms          rms(c)
DAV:   1    -0.233064674298E+04   -0.81415E-02   -0.86625E+00  4480   0.143E+00    0.576E-01
RMM:   2    -0.233064213007E+04    0.46129E-02   -0.45206E-02  4061   0.112E-01    0.336E-01
RMM:   3    -0.233064264006E+04   -0.50999E-03   -0.12176E-02  4862   0.682E-02    0.508E-01
RMM:   4    -0.233063973962E+04    0.29004E-02   -0.62487E-03  5348   0.338E-02    0.106E-01
RMM:   5    -0.233064000014E+04   -0.26053E-03   -0.10549E-03  4042   0.157E-02    0.186E-01
RMM:   6    -0.233063961701E+04    0.38314E-03   -0.33506E-04  3515   0.877E-03    0.337E-02
RMM:   7    -0.233063962260E+04   -0.55917E-05   -0.59335E-05  2974   0.405E-03
  11 F= -.23521139E+04 E0= -.23521138E+04  d E =-.181844E-03  mag=     3.9986
       N       E                     dE             d eps       ncg     rms          rms(c)
DAV:   1    -0.233063182413E+04    0.77929E-02   -0.43013E+00  4560   0.987E-01    0.386E-01
RMM:   2    -0.233063058457E+04    0.12396E-02   -0.19450E-02  3989   0.711E-02    0.299E-01
RMM:   3    -0.233063150738E+04   -0.92281E-03   -0.48917E-03  4673   0.416E-02    0.475E-01
RMM:   4    -0.233062910121E+04    0.24062E-02   -0.42464E-03  4517   0.260E-02    0.715E-02
RMM:   5    -0.233062908700E+04    0.14211E-04   -0.49882E-04  3461   0.164E-02    0.751E-02
RMM:   6    -0.233062900822E+04    0.78782E-04   -0.11204E-04  3194   0.508E-03    0.201E-02
RMM:   7    -0.233062900606E+04    0.21541E-05   -0.26465E-05  2730   0.303E-03
  12 F= -.23521035E+04 E0= -.23521034E+04  d E =-.213232E-03  mag=     3.9984
       N       E                     dE             d eps       ncg     rms          rms(c)
DAV:   1    -0.233063683140E+04   -0.78232E-02   -0.85814E+00  4480   0.149E+00    0.641E-01
RMM:   2    -0.233063388499E+04    0.29464E-02   -0.55037E-02  4359   0.128E-01    0.551E-01
RMM:   3    -0.233063436936E+04   -0.48438E-03   -0.13109E-02  5219   0.703E-02    0.673E-01
RMM:   4    -0.233062974202E+04    0.46273E-02   -0.11022E-02  4704   0.424E-02    0.302E-01
RMM:   5    -0.233062878043E+04    0.96159E-03   -0.22980E-03  4160   0.326E-02    0.967E-02
RMM:   6    -0.233062863792E+04    0.14251E-03   -0.25336E-04  3802   0.735E-03    0.314E-02
RMM:   7    -0.233062864990E+04   -0.11977E-04   -0.58701E-05  2922   0.509E-03    0.332E-02
RMM:   8    -0.233062863760E+04    0.12304E-04   -0.21433E-05  2702   0.296E-03    0.141E-02
RMM:   9    -0.233062863711E+04    0.48989E-06   -0.77753E-06  2703   0.225E-03
  13 F= -.23521032E+04 E0= -.23521031E+04  d E =-.120548E-03  mag=     3.9989
       N       E                     dE             d eps       ncg     rms          rms(c)
DAV:   1    -0.233065015808E+04   -0.21520E-01   -0.24837E+00  4640   0.823E-01    0.388E-01
RMM:   2    -0.233064871900E+04    0.14391E-02   -0.17324E-02  4025   0.705E-02    0.276E-01
RMM:   3    -0.233065024366E+04   -0.15247E-02   -0.49948E-03  4685   0.414E-02    0.492E-01
RMM:   4    -0.233064768127E+04    0.25624E-02   -0.29117E-03  4633   0.229E-02    0.834E-02
RMM:   5    -0.233064773891E+04   -0.57642E-04   -0.61866E-04  3687   0.157E-02    0.104E-01
RMM:   6    -0.233064759821E+04    0.14071E-03   -0.18552E-04  3255   0.703E-03    0.201E-02
RMM:   7    -0.233064759571E+04    0.24987E-05   -0.19806E-05  2736   0.277E-03
  14 F= -.23521218E+04 E0= -.23521217E+04  d E =-.160221E-03  mag=     3.9987
       N       E                     dE             d eps       ncg     rms          rms(c)
DAV:   1    -0.233064863315E+04   -0.10349E-02   -0.12281E+00  4720   0.485E-01    0.424E-01
RMM:   2    -0.233064754162E+04    0.10915E-02   -0.97443E-03  4591   0.480E-02    0.269E-01
RMM:   3    -0.233064902154E+04   -0.14799E-02   -0.43779E-03  4984   0.363E-02    0.395E-01
RMM:   4    -0.233064713247E+04    0.18891E-02   -0.20066E-03  5062   0.217E-02    0.141E-01
RMM:   5    -0.233064716512E+04   -0.32652E-04   -0.66952E-04  3545   0.105E-02    0.148E-01
RMM:   6    -0.233064695771E+04    0.20741E-03   -0.16090E-04  2994   0.653E-03    0.197E-02
RMM:   7    -0.233064696047E+04   -0.27559E-05   -0.28832E-05  2817   0.330E-03
  15 F= -.23521218E+04 E0= -.23521217E+04  d E =-.161502E-03  mag=     3.9987
       N       E                     dE             d eps       ncg     rms          rms(c)
DAV:   1    -0.233064340056E+04    0.35572E-02   -0.68238E-01  4960   0.376E-01    0.423E-01
RMM:   2    -0.233064083970E+04    0.25609E-02   -0.11338E-02  4477   0.482E-02    0.234E-01
RMM:   3    -0.233064118799E+04   -0.34829E-03   -0.29421E-03  4608   0.331E-02    0.275E-01
RMM:   4    -0.233064039841E+04    0.78958E-03   -0.16386E-03  4866   0.194E-02    0.137E-01
RMM:   5    -0.233064040433E+04   -0.59232E-05   -0.51706E-04  3528   0.974E-03    0.151E-01
RMM:   6    -0.233064018428E+04    0.22005E-03   -0.19212E-04  2940   0.700E-03    0.236E-02
RMM:   7    -0.233064018255E+04    0.17348E-05   -0.21351E-05  2738   0.299E-03
  16 F= -.23521143E+04 E0= -.23521142E+04  d E =-.160272E-03  mag=     3.9987
       N       E                     dE             d eps       ncg     rms          rms(c)
DAV:   1    -0.233064559757E+04   -0.54133E-02   -0.13211E+00  4960   0.501E-01    0.569E-01
RMM:   2    -0.233064098261E+04    0.46150E-02   -0.19675E-02  4418   0.623E-02    0.299E-01
RMM:   3    -0.233064019822E+04    0.78439E-03   -0.33599E-03  4333   0.395E-02    0.174E-01
RMM:   4    -0.233064045740E+04   -0.25917E-03   -0.21626E-03  4977   0.219E-02    0.194E-01
RMM:   5    -0.233063993215E+04    0.52525E-03   -0.49559E-04  4044   0.128E-02    0.293E-02
RMM:   6    -0.233063992457E+04    0.75746E-05   -0.53823E-05  3207   0.411E-03
  17 F= -.23521149E+04 E0= -.23521148E+04  d E =-.161171E-03  mag=     3.9987
       N       E                     dE             d eps       ncg     rms          rms(c)
DAV:   1    -0.233065127195E+04   -0.11340E-01   -0.64318E-01  4960   0.358E-01    0.359E-01
RMM:   2    -0.233064981884E+04    0.14531E-02   -0.82254E-03  4294   0.397E-02    0.201E-01
RMM:   3    -0.233065008509E+04   -0.26625E-03   -0.21332E-03  4322   0.281E-02    0.269E-01
RMM:   4    -0.233064948141E+04    0.60368E-03   -0.11742E-03  4347   0.144E-02    0.110E-01
RMM:   5    -0.233064952341E+04   -0.42002E-04   -0.34235E-04  3527   0.949E-03    0.109E-01
RMM:   6    -0.233064936809E+04    0.15532E-03   -0.12977E-04  3151   0.686E-03    0.188E-02
RMM:   7    -0.233064936682E+04    0.12747E-05   -0.12868E-05  2640   0.253E-03
  18 F= -.23521237E+04 E0= -.23521236E+04  d E =-.167735E-03  mag=     3.9987
       N       E                     dE             d eps       ncg     rms          rms(c)
DAV:   1    -0.233064879550E+04    0.57259E-03   -0.12362E+00  4480   0.483E-01    0.361E-01
RMM:   2    -0.233064867895E+04    0.11656E-03   -0.67006E-03  4085   0.401E-02    0.221E-01
RMM:   3    -0.233065000722E+04   -0.13283E-02   -0.32134E-03  4904   0.315E-02    0.335E-01
RMM:   4    -0.233064852209E+04    0.14851E-02   -0.12036E-03  4597   0.178E-02    0.883E-02
RMM:   5    -0.233064846811E+04    0.53983E-04   -0.22273E-04  3096   0.671E-03    0.519E-02
RMM:   6    -0.233064844054E+04    0.27573E-04   -0.46458E-05  2960   0.416E-03    0.103E-02
RMM:   7    -0.233064844131E+04   -0.77093E-06   -0.87175E-06  2678   0.249E-03
  19 F= -.23521232E+04 E0= -.23521231E+04  d E =-.152692E-03  mag=     3.9987
       N       E                     dE             d eps       ncg     rms          rms(c)
DAV:   1    -0.233064957605E+04   -0.11355E-02   -0.57390E-01  4480   0.388E-01    0.236E-01
RMM:   2    -0.233064980977E+04   -0.23371E-03   -0.42513E-03  4472   0.392E-02    0.189E-01
RMM:   3    -0.233064987733E+04   -0.67568E-04   -0.12556E-03  4251   0.197E-02    0.196E-01
RMM:   4    -0.233064960196E+04    0.27538E-03   -0.62832E-04  4121   0.122E-02    0.141E-01
RMM:   5    -0.233064943433E+04    0.16763E-03   -0.23855E-04  3093   0.748E-03    0.448E-02
RMM:   6    -0.233064941407E+04    0.20253E-04   -0.25554E-05  2763   0.366E-03    0.138E-02
RMM:   7    -0.233064941349E+04    0.58417E-06   -0.85005E-06  2516   0.216E-03
  20 F= -.23521240E+04 E0= -.23521239E+04  d E =-.155772E-03  mag=     3.9987
       N       E                     dE             d eps       ncg     rms          rms(c)
DAV:   1    -0.233065017662E+04   -0.76254E-03   -0.10829E+00  4480   0.545E-01    0.302E-01
RMM:   2    -0.233065140231E+04   -0.12257E-02   -0.90195E-03  4723   0.561E-02    0.344E-01
RMM:   3    -0.233065013800E+04    0.12643E-02   -0.23108E-03  4779   0.265E-02    0.194E-01
RMM:   4    -0.233065028448E+04   -0.14648E-03   -0.10632E-03  4371   0.138E-02    0.236E-01
RMM:   5    -0.233064979209E+04    0.49239E-03   -0.53288E-04  3579   0.108E-02    0.576E-02
RMM:   6    -0.233064976715E+04    0.24948E-04   -0.61234E-05  3022   0.490E-03    0.230E-02
RMM:   7    -0.233064976453E+04    0.26173E-05   -0.20599E-05  2810   0.324E-03
  21 F= -.23521242E+04 E0= -.23521241E+04  d E =-.166328E-03  mag=     3.9987
       N       E                     dE             d eps       ncg     rms          rms(c)
DAV:   1    -0.233064778267E+04    0.19845E-02   -0.55066E-01  4480   0.374E-01    0.179E-01
RMM:   2    -0.233064800902E+04   -0.22634E-03   -0.25802E-03  4089   0.292E-02    0.166E-01
RMM:   3    -0.233064805060E+04   -0.41581E-04   -0.82609E-04  3691   0.162E-02    0.179E-01
RMM:   4    -0.233064779839E+04    0.25221E-03   -0.34230E-04  3530   0.901E-03    0.629E-02
RMM:   5    -0.233064776994E+04    0.28443E-04   -0.11440E-04  3010   0.644E-03    0.341E-02
RMM:   6    -0.233064775589E+04    0.14051E-04   -0.16168E-05  2679   0.313E-03    0.742E-03
RMM:   7    -0.233064775630E+04   -0.40646E-06   -0.52691E-06  2537   0.183E-03
  22 F= -.23521220E+04 E0= -.23521220E+04  d E =-.136010E-03  mag=     3.9988
       N       E                     dE             d eps       ncg     rms          rms(c)
DAV:   1    -0.233064804871E+04   -0.29282E-03   -0.11029E+00  4520   0.543E-01    0.319E-01
RMM:   2    -0.233065168614E+04   -0.36374E-02   -0.12950E-02  5028   0.676E-02    0.557E-01
RMM:   3    -0.233064785735E+04    0.38288E-02   -0.31516E-03  5067   0.309E-02    0.197E-01
RMM:   4    -0.233064807572E+04   -0.21837E-03   -0.13124E-03  4201   0.153E-02    0.226E-01
RMM:   5    -0.233064755453E+04    0.52118E-03   -0.60242E-04  4356   0.120E-02    0.442E-02
RMM:   6    -0.233064753909E+04    0.15449E-04   -0.58679E-05  3071   0.447E-03    0.248E-02
RMM:   7    -0.233064753630E+04    0.27839E-05   -0.24463E-05  2777   0.313E-03
  23 F= -.23521223E+04 E0= -.23521222E+04  d E =-.188469E-03  mag=     3.9986
       N       E                     dE             d eps       ncg     rms          rms(c)
DAV:   1    -0.233065035961E+04   -0.28205E-02   -0.55893E-01  4480   0.392E-01    0.227E-01
RMM:   2    -0.233065103360E+04   -0.67399E-03   -0.57114E-03  4612   0.424E-02    0.306E-01
RMM:   3    -0.233065008631E+04    0.94730E-03   -0.14250E-03  4056   0.222E-02    0.156E-01
RMM:   4    -0.233065019518E+04   -0.10887E-03   -0.88179E-04  4226   0.128E-02    0.174E-01
RMM:   5    -0.233064986090E+04    0.33428E-03   -0.36894E-04  3772   0.925E-03    0.324E-02
RMM:   6    -0.233064985008E+04    0.10816E-04   -0.29637E-05  2861   0.377E-03    0.183E-02
RMM:   7    -0.233064984955E+04    0.53208E-06   -0.16469E-05  2665   0.263E-03
  24 F= -.23521248E+04 E0= -.23521247E+04  d E =-.182537E-03  mag=     3.9985
       N       E                     dE             d eps       ncg     rms          rms(c)
DAV:   1    -0.233065290699E+04   -0.30569E-02   -0.10757E+00  4480   0.546E-01    0.328E-01
RMM:   2    -0.233065248099E+04    0.42600E-03   -0.89488E-03  4794   0.482E-02    0.188E-01
RMM:   3    -0.233065291661E+04   -0.43562E-03   -0.20992E-03  4257   0.256E-02    0.291E-01
RMM:   4    -0.233065211332E+04    0.80330E-03   -0.10634E-03  4479   0.136E-02    0.989E-02
RMM:   5    -0.233065211781E+04   -0.44961E-05   -0.23716E-04  3400   0.741E-03    0.837E-02
RMM:   6    -0.233065202700E+04    0.90815E-04   -0.89471E-05  2966   0.560E-03    0.171E-02
RMM:   7    -0.233065202534E+04    0.16572E-05   -0.18186E-05  2867   0.265E-03
  25 F= -.23521261E+04 E0= -.23521261E+04  d E =-.140334E-03  mag=     3.9988
       N       E                     dE             d eps       ncg     rms          rms(c)
DAV:   1    -0.233064871487E+04    0.33121E-02   -0.58175E-01  4480   0.401E-01    0.257E-01
RMM:   2    -0.233064847132E+04    0.24355E-03   -0.52419E-03  4779   0.390E-02    0.149E-01
RMM:   3    -0.233064886630E+04   -0.39498E-03   -0.11906E-03  4321   0.181E-02    0.241E-01
RMM:   4    -0.233064834427E+04    0.52204E-03   -0.61769E-04  3815   0.109E-02    0.654E-02
RMM:   5    -0.233064831360E+04    0.30669E-04   -0.64181E-05  2994   0.538E-03    0.148E-02
RMM:   6    -0.233064831714E+04   -0.35374E-05   -0.20357E-05  2793   0.314E-03
  26 F= -.23521225E+04 E0= -.23521224E+04  d E =-.167044E-03  mag=     3.9987
       N       E                     dE             d eps       ncg     rms          rms(c)
DAV:   1    -0.233064894487E+04   -0.63127E-03   -0.12355E+00  4680   0.504E-01    0.391E-01
RMM:   2    -0.233064800468E+04    0.94018E-03   -0.99439E-03  4100   0.439E-02    0.228E-01
RMM:   3    -0.233064886638E+04   -0.86169E-03   -0.27693E-03  4692   0.313E-02    0.317E-01
RMM:   4    -0.233064777300E+04    0.10934E-02   -0.14264E-03  4697   0.175E-02    0.118E-01
RMM:   5    -0.233064781552E+04   -0.42524E-04   -0.43763E-04  3496   0.918E-03    0.120E-01
RMM:   6    -0.233064766179E+04    0.15373E-03   -0.16399E-04  3019   0.646E-03    0.222E-02
RMM:   7    -0.233064765925E+04    0.25365E-05   -0.18664E-05  2615   0.288E-03
  27 F= -.23521225E+04 E0= -.23521225E+04  d E =-.155709E-03  mag=     3.9987
       N       E                     dE             d eps       ncg     rms          rms(c)
DAV:   1    -0.233065030675E+04   -0.26450E-02   -0.62714E-01  4480   0.361E-01    0.269E-01
RMM:   2    -0.233064985199E+04    0.45476E-03   -0.41388E-03  3773   0.294E-02    0.155E-01
RMM:   3    -0.233065003739E+04   -0.18540E-03   -0.10807E-03  4057   0.202E-02    0.162E-01
RMM:   4    -0.233064978221E+04    0.25518E-03   -0.56107E-04  3980   0.117E-02    0.857E-02
RMM:   5    -0.233064976455E+04    0.17652E-04   -0.16127E-04  2952   0.599E-03    0.740E-02
RMM:   6    -0.233064970839E+04    0.56162E-04   -0.62244E-05  2695   0.456E-03    0.131E-02
RMM:   7    -0.233064970720E+04    0.11951E-05   -0.64257E-06  2400   0.199E-03
  28 F= -.23521242E+04 E0= -.23521241E+04  d E =-.155388E-03  mag=     3.9987
       N       E                     dE             d eps       ncg     rms          rms(c)
DAV:   1    -0.233064970662E+04    0.17674E-05   -0.12214E+00  4440   0.498E-01    0.335E-01
RMM:   2    -0.233064983381E+04   -0.12719E-03   -0.60611E-03  3865   0.369E-02    0.201E-01
RMM:   3    -0.233065035786E+04   -0.52404E-03   -0.16699E-03  4217   0.235E-02    0.247E-01
RMM:   4    -0.233064974961E+04    0.60825E-03   -0.58472E-04  3771   0.114E-02    0.339E-02
RMM:   5    -0.233064973596E+04    0.13643E-04   -0.54809E-05  2994   0.431E-03    0.140E-02
RMM:   6    -0.233064973613E+04   -0.16516E-06   -0.11489E-05  2504   0.262E-03
  29 F= -.23521243E+04 E0= -.23521242E+04  d E =-.165485E-03  mag=     3.9987
       N       E                     dE             d eps       ncg     rms          rms(c)
DAV:   1    -0.233064154232E+04    0.81936E-02   -0.65369E-01  4640   0.376E-01    0.378E-01
RMM:   2    -0.233063964760E+04    0.18947E-02   -0.86330E-03  3910   0.415E-02    0.202E-01
RMM:   3    -0.233063935814E+04    0.28946E-03   -0.17176E-03  3881   0.277E-02    0.111E-01
RMM:   4    -0.233063963116E+04   -0.27301E-03   -0.84505E-04  4181   0.128E-02    0.189E-01
RMM:   5    -0.233063926620E+04    0.36496E-03   -0.25883E-04  3191   0.902E-03    0.311E-02
RMM:   6    -0.233063927346E+04   -0.72624E-05   -0.64269E-05  2928   0.436E-03
  30 F= -.23521136E+04 E0= -.23521135E+04  d E =-.157857E-03  mag=     3.9987
       N       E                     dE             d eps       ncg     rms          rms(c)
DAV:   1    -0.233064569758E+04   -0.64314E-02   -0.13224E+00  4840   0.524E-01    0.588E-01
RMM:   2    -0.233064028435E+04    0.54132E-02   -0.23737E-02  3983   0.698E-02    0.308E-01
RMM:   3    -0.233063959522E+04    0.68912E-03   -0.50313E-03  4046   0.468E-02    0.214E-01
RMM:   4    -0.233063980992E+04   -0.21470E-03   -0.24250E-03  4866   0.223E-02    0.248E-01
RMM:   5    -0.233063919056E+04    0.61936E-03   -0.63612E-04  3901   0.130E-02    0.108E-01
RMM:   6    -0.233063909489E+04    0.95668E-04   -0.25314E-04  3414   0.806E-03    0.554E-02
RMM:   7    -0.233063905687E+04    0.38022E-04   -0.43268E-05  2987   0.445E-03    0.143E-02
RMM:   8    -0.233063905749E+04   -0.61396E-06   -0.12415E-05  2450   0.273E-03
  31 F= -.23521138E+04 E0= -.23521138E+04  d E =-.161375E-03  mag=     3.9987
       N       E                     dE             d eps       ncg     rms          rms(c)
DAV:   1    -0.233064185820E+04   -0.28013E-02   -0.63487E-01  4760   0.426E-01    0.362E-01
RMM:   2    -0.233064102784E+04    0.83036E-03   -0.67929E-03  3761   0.437E-02    0.214E-01
RMM:   3    -0.233064057652E+04    0.45132E-03   -0.21725E-03  4011   0.275E-02    0.837E-02
RMM:   4    -0.233064051758E+04    0.58943E-04   -0.30408E-04  3724   0.105E-02    0.529E-02
RMM:   5    -0.233064048125E+04    0.36324E-04   -0.38803E-05  2686   0.395E-03    0.261E-02
RMM:   6    -0.233064047085E+04    0.10400E-04   -0.14697E-05  2420   0.259E-03    0.116E-02
RMM:   7    -0.233064046798E+04    0.28681E-05   -0.26256E-05  2516   0.233E-03
  32 F= -.23521154E+04 E0= -.23521153E+04  d E =-.166579E-03  mag=     3.9987
       N       E                     dE             d eps       ncg     rms          rms(c)
DAV:   1    -0.233064538537E+04   -0.49145E-02   -0.13126E+00  5000   0.587E-01    0.572E-01
RMM:   2    -0.233064063128E+04    0.47541E-02   -0.19556E-02  4082   0.679E-02    0.304E-01
RMM:   3    -0.233064070106E+04   -0.69783E-04   -0.45234E-03  4188   0.449E-02    0.309E-01
RMM:   4    -0.233064012846E+04    0.57261E-03   -0.22175E-03  4980   0.214E-02    0.202E-01
RMM:   5    -0.233063976101E+04    0.36745E-03   -0.45479E-04  3774   0.108E-02    0.780E-02
RMM:   6    -0.233063971954E+04    0.41473E-04   -0.21543E-04  3325   0.837E-03    0.515E-02
RMM:   7    -0.233063968468E+04    0.34858E-04   -0.35442E-05  2831   0.442E-03    0.108E-02
RMM:   8    -0.233063968495E+04   -0.27125E-06   -0.94319E-06  2542   0.232E-03
  33 F= -.23521138E+04 E0= -.23521138E+04  d E =-.155099E-03  mag=     3.9987
       N       E                     dE             d eps       ncg     rms          rms(c)
DAV:   1    -0.233065110265E+04   -0.11418E-01   -0.66507E-01  5040   0.415E-01    0.448E-01
RMM:   2    -0.233064758359E+04    0.35191E-02   -0.12993E-02  4128   0.533E-02    0.232E-01
RMM:   3    -0.233064738742E+04    0.19617E-03   -0.26054E-03  4028   0.348E-02    0.198E-01
RMM:   4    -0.233064737492E+04    0.12496E-04   -0.14403E-03  4783   0.180E-02    0.197E-01
RMM:   5    -0.233064701972E+04    0.35521E-03   -0.38701E-04  3480   0.971E-03    0.843E-02
RMM:   6    -0.233064695988E+04    0.59831E-04   -0.18166E-04  3170   0.737E-03    0.436E-02
RMM:   7    -0.233064693757E+04    0.22316E-04   -0.29556E-05  2754   0.383E-03    0.814E-03
RMM:   8    -0.233064693675E+04    0.81593E-06   -0.54644E-06  2375   0.212E-03
  34 F= -.23521218E+04 E0= -.23521217E+04  d E =-.167219E-03  mag=     3.9987
       N       E                     dE             d eps       ncg     rms          rms(c)
DAV:   1    -0.233064947274E+04   -0.25352E-02   -0.12407E+00  4800   0.567E-01    0.437E-01
RMM:   2    -0.233064755594E+04    0.19168E-02   -0.12236E-02  4354   0.522E-02    0.240E-01
RMM:   3    -0.233064760167E+04   -0.45729E-04   -0.25056E-03  4207   0.343E-02    0.198E-01
RMM:   4    -0.233064750275E+04    0.98915E-04   -0.15134E-03  4866   0.188E-02    0.164E-01
RMM:   5    -0.233064729718E+04    0.20557E-03   -0.38253E-04  3650   0.102E-02    0.110E-01
RMM:   6    -0.233064719406E+04    0.10313E-03   -0.15909E-04  2981   0.629E-03    0.386E-02
RMM:   7    -0.233064718229E+04    0.11768E-04   -0.21060E-05  2775   0.330E-03    0.873E-03
RMM:   8    -0.233064718303E+04   -0.74421E-06   -0.57992E-06  2511   0.229E-03
  35 F= -.23521214E+04 E0= -.23521213E+04  d E =-.155259E-03  mag=     3.9987
       N       E                     dE             d eps       ncg     rms          rms(c)
DAV:   1    -0.233064999929E+04   -0.28170E-02   -0.61674E-01  4760   0.394E-01    0.286E-01
RMM:   2    -0.233064947525E+04    0.52404E-03   -0.51334E-03  4257   0.343E-02    0.166E-01
RMM:   3    -0.233064974625E+04   -0.27100E-03   -0.13981E-03  4174   0.239E-02    0.189E-01
RMM:   4    -0.233064936170E+04    0.38454E-03   -0.76081E-04  4337   0.134E-02    0.785E-02
RMM:   5    -0.233064936201E+04   -0.30549E-06   -0.15697E-04  3104   0.664E-03    0.805E-02
RMM:   6    -0.233064930582E+04    0.56194E-04   -0.67777E-05  2709   0.449E-03    0.247E-02
RMM:   7    -0.233064930253E+04    0.32852E-05   -0.10287E-05  2558   0.237E-03
  36 F= -.23521240E+04 E0= -.23521240E+04  d E =-.164266E-03  mag=     3.9987
       N       E                     dE             d eps       ncg     rms          rms(c)
DAV:   1    -0.233064949277E+04   -0.18695E-03   -0.12416E+00  4680   0.555E-01    0.331E-01
RMM:   2    -0.233064967534E+04   -0.18258E-03   -0.60232E-03  3829   0.403E-02    0.202E-01
RMM:   3    -0.233065047930E+04   -0.80396E-03   -0.22513E-03  4363   0.303E-02    0.262E-01
RMM:   4    -0.233064958691E+04    0.89239E-03   -0.90707E-04  4466   0.152E-02    0.649E-02
RMM:   5    -0.233064956230E+04    0.24617E-04   -0.14931E-04  2947   0.560E-03    0.445E-02
RMM:   6    -0.233064954117E+04    0.21130E-04   -0.23849E-05  2660   0.315E-03    0.952E-03
RMM:   7    -0.233064954091E+04    0.26029E-06   -0.93476E-06  2552   0.202E-03
  37 F= -.23521238E+04 E0= -.23521238E+04  d E =-.157732E-03  mag=     3.9987
