       N       E                     dE             d eps       ncg     rms          rms(c)
DAV:   1     0.124239176436E+05    0.12424E+05   -0.84005E+05  4640   0.142E+03
DAV:   2    -0.126098713757E+04   -0.13685E+05   -0.13140E+05  5040   0.321E+02
DAV:   3    -0.250196308285E+04   -0.12410E+04   -0.12305E+04  5440   0.104E+02
DAV:   4    -0.253005459313E+04   -0.28092E+02   -0.27925E+02  5680   0.195E+01
DAV:   5    -0.253092055184E+04   -0.86596E+00   -0.86447E+00  5840   0.285E+00    0.171E+02
RMM:   6    -0.149032470998E+04    0.10406E+04   -0.19308E+03  4500   0.379E+01    0.748E+01
RMM:   7    -0.169853065230E+04   -0.20821E+03   -0.35925E+02  5147   0.154E+01    0.643E+01
RMM:   8    -0.168877847082E+04    0.97522E+01   -0.10001E+02  5214   0.886E+00    0.400E+01
RMM:   9    -0.179427087417E+04   -0.10549E+03   -0.51460E+01  4741   0.690E+00    0.326E+01
RMM:  10    -0.192027844762E+04   -0.12601E+03   -0.57503E+01  5296   0.711E+00    0.289E+01
RMM:  11    -0.200010348947E+04   -0.79825E+02   -0.36435E+01  5454   0.518E+00    0.186E+01
RMM:  12    -0.208007074592E+04   -0.79967E+02   -0.33450E+01  5010   0.469E+00    0.162E+01
RMM:  13    -0.217235578753E+04   -0.92285E+02   -0.49773E+01  4611   0.532E+00    0.142E+01
RMM:  14    -0.225096027118E+04   -0.78604E+02   -0.55299E+01  4688   0.545E+00    0.810E+00
RMM:  15    -0.230724839810E+04   -0.56288E+02   -0.51106E+01  4705   0.513E+00    0.542E+00
RMM:  16    -0.231930603030E+04   -0.12058E+02   -0.13945E+01  4821   0.323E+00    0.370E+00
RMM:  17    -0.232487395786E+04   -0.55679E+01   -0.65930E+00  4806   0.140E+00    0.284E+00
RMM:  18    -0.232719581690E+04   -0.23219E+01   -0.27446E+00  4739   0.112E+00    0.146E+00
RMM:  19    -0.232760428544E+04   -0.40847E+00   -0.62360E-01  5192   0.456E-01    0.838E-01
RMM:  20    -0.232790282497E+04   -0.29854E+00   -0.19099E-01  4774   0.262E-01    0.431E-01
RMM:  21    -0.232794835779E+04   -0.45533E-01   -0.34898E-02  4897   0.155E-01    0.232E-01
RMM:  22    -0.232796660001E+04   -0.18242E-01   -0.10660E-02  4638   0.801E-02    0.151E-01
RMM:  23    -0.232798284617E+04   -0.16246E-01   -0.64192E-03  4493   0.663E-02    0.742E-02
RMM:  24    -0.232798978243E+04   -0.69363E-02   -0.23827E-03  4610   0.451E-02    0.671E-02
RMM:  25    -0.232799555224E+04   -0.57698E-02   -0.19429E-03  4503   0.334E-02    0.333E-02
RMM:  26    -0.232799846420E+04   -0.29120E-02   -0.10710E-03  4354   0.274E-02    0.343E-02
RMM:  27    -0.232799947693E+04   -0.10127E-02   -0.39804E-04  4353   0.158E-02    0.128E-02
RMM:  28    -0.232799998066E+04   -0.50373E-03   -0.13939E-04  3778   0.101E-02    0.109E-02
RMM:  29    -0.232800026416E+04   -0.28350E-03   -0.69341E-05  3680   0.751E-03    0.500E-03
RMM:  30    -0.232800037076E+04   -0.10661E-03   -0.27310E-05  3265   0.528E-03    0.268E-03
RMM:  31    -0.232800042858E+04   -0.57813E-04   -0.15149E-05  3023   0.379E-03    0.165E-03
RMM:  32    -0.232800044335E+04   -0.14772E-04   -0.57321E-06  2867   0.299E-03    0.105E-03
RMM:  33    -0.232800044912E+04   -0.57712E-05   -0.30943E-06  2466   0.192E-03
   1 F= -.23489656E+04 E0= -.23489656E+04  d E =-.853808E-15  mag=     5.0000
       N       E                     dE             d eps       ncg     rms          rms(c)
DAV:   1    -0.232798865593E+04    0.11787E-01   -0.20831E+00  4480   0.617E-01    0.323E-01
RMM:   2    -0.232798830258E+04    0.35334E-03   -0.12328E-02  4077   0.451E-02    0.235E-01
RMM:   3    -0.232798816376E+04    0.13882E-03   -0.24300E-03  4510   0.233E-02    0.254E-01
RMM:   4    -0.232798760257E+04    0.56119E-03   -0.10633E-03  4100   0.124E-02    0.117E-01
RMM:   5    -0.232798765731E+04   -0.54740E-04   -0.56186E-04  3689   0.934E-03    0.121E-01
RMM:   6    -0.232798750524E+04    0.15207E-03   -0.14352E-04  2891   0.598E-03    0.203E-02
RMM:   7    -0.232798749974E+04    0.55062E-05   -0.28502E-05  2699   0.277E-03
   2 F= -.23489530E+04 E0= -.23489530E+04  d E =-.202734E-17  mag=     5.0000
       N       E                     dE             d eps       ncg     rms          rms(c)
DAV:   1    -0.232798742806E+04    0.77180E-04   -0.82603E+00  4480   0.125E+00    0.622E-01
RMM:   2    -0.232798545401E+04    0.19740E-02   -0.38222E-02  4168   0.852E-02    0.437E-01
RMM:   3    -0.232798546177E+04   -0.77516E-05   -0.80334E-03  5157   0.411E-02    0.511E-01
RMM:   4    -0.232798318048E+04    0.22813E-02   -0.40139E-03  4937   0.234E-02    0.222E-01
RMM:   5    -0.232798337751E+04   -0.19703E-03   -0.20737E-03  4610   0.167E-02    0.227E-01
RMM:   6    -0.232798284513E+04    0.53238E-03   -0.46725E-04  3250   0.956E-03    0.368E-02
RMM:   7    -0.232798282554E+04    0.19594E-04   -0.95208E-05  3092   0.458E-03    0.201E-02
RMM:   8    -0.232798281883E+04    0.67130E-05   -0.23891E-05  2987   0.301E-03
   3 F= -.23489475E+04 E0= -.23489475E+04  d E =-.717665E-15  mag=     5.0000
       N       E                     dE             d eps       ncg     rms          rms(c)
DAV:   1    -0.232799203835E+04   -0.92128E-02   -0.39438E+00  4480   0.882E-01    0.413E-01
RMM:   2    -0.232799321584E+04   -0.11775E-02   -0.23602E-02  4334   0.677E-02    0.435E-01
RMM:   3    -0.232799162591E+04    0.15899E-02   -0.43027E-03  4945   0.299E-02    0.289E-01
RMM:   4    -0.232799122509E+04    0.40082E-03   -0.17015E-03  4358   0.161E-02    0.194E-01
RMM:   5    -0.232799107299E+04    0.15210E-03   -0.10458E-03  4048   0.131E-02    0.135E-01
RMM:   6    -0.232799090152E+04    0.17147E-03   -0.17794E-04  3188   0.653E-03    0.238E-02
RMM:   7    -0.232799089515E+04    0.63778E-05   -0.44332E-05  2946   0.363E-03
   4 F= -.23489563E+04 E0= -.23489563E+04  d E =-.203331E-14  mag=     5.0000
       N       E                     dE             d eps       ncg     rms          rms(c)
DAV:   1    -0.232799055610E+04    0.34543E-03   -0.78358E+00  4480   0.125E+00    0.557E-01
RMM:   2    -0.232799187583E+04   -0.13197E-02   -0.37553E-02  4119   0.829E-02    0.517E-01
RMM:   3    -0.232799044024E+04    0.14356E-02   -0.75016E-03  5087   0.393E-02    0.418E-01
RMM:   4    -0.232798950732E+04    0.93292E-03   -0.39203E-03  4488   0.241E-02    0.270E-01
RMM:   5    -0.232798893796E+04    0.56936E-03   -0.13584E-03  3795   0.184E-02    0.108E-01
RMM:   6    -0.232798885390E+04    0.84061E-04   -0.15493E-04  3164   0.671E-03    0.288E-02
RMM:   7    -0.232798884923E+04    0.46759E-05   -0.85260E-05  3140   0.422E-03
   5 F= -.23489536E+04 E0= -.23489536E+04  d E =-.168026E-14  mag=     5.0000
       N       E                     dE             d eps       ncg     rms          rms(c)
DAV:   1    -0.232798669296E+04    0.21609E-02   -0.38422E+00  4480   0.784E-01    0.371E-01
RMM:   2    -0.232798685697E+04   -0.16402E-03   -0.11981E-02  4075   0.443E-02    0.252E-01
RMM:   3    -0.232798745227E+04   -0.59529E-03   -0.35570E-03  5218   0.241E-02    0.382E-01
RMM:   4    -0.232798622029E+04    0.12320E-02   -0.14020E-03  4140   0.151E-02    0.111E-01
RMM:   5    -0.232798624081E+04   -0.20528E-04   -0.54976E-04  3250   0.991E-03    0.981E-02
RMM:   6    -0.232798616290E+04    0.77911E-04   -0.10760E-04  2939   0.555E-03    0.204E-02
RMM:   7    -0.232798616166E+04    0.12468E-05   -0.21948E-05  2721   0.277E-03
   6 F= -.23489523E+04 E0= -.23489523E+04  d E =-.543064E-15  mag=     5.0000
       N       E                     dE             d eps       ncg     rms          rms(c)
DAV:   1    -0.232798778325E+04   -0.16203E-02   -0.82553E+00  4480   0.126E+00    0.587E-01
RMM:   2    -0.232798652241E+04    0.12608E-02   -0.42495E-02  3993   0.869E-02    0.336E-01
RMM:   3    -0.232798523772E+04    0.12847E-02   -0.77175E-03  5055   0.444E-02    0.275E-01
RMM:   4    -0.232798483768E+04    0.40004E-03   -0.30347E-03  5026   0.206E-02    0.159E-01
RMM:   5    -0.232798453006E+04    0.30762E-03   -0.34161E-04  3474   0.102E-02    0.395E-02
RMM:   6    -0.232798451917E+04    0.10900E-04   -0.21336E-04  3663   0.641E-03    0.386E-02
RMM:   7    -0.232798451168E+04    0.74868E-05   -0.38023E-05  2818   0.456E-03
   7 F= -.23489487E+04 E0= -.23489487E+04  d E =-.860078E-13  mag=     5.0000
       N       E                     dE             d eps       ncg     rms          rms(c)
DAV:   1    -0.232798514571E+04   -0.62655E-03   -0.43129E+00  4640   0.988E-01    0.429E-01
RMM:   2    -0.232798396892E+04    0.11768E-02   -0.21328E-02  3847   0.654E-02    0.251E-01
RMM:   3    -0.232798317736E+04    0.79156E-03   -0.60237E-03  4745   0.347E-02    0.172E-01
RMM:   4    -0.232798299582E+04    0.18154E-03   -0.13887E-03  4280   0.160E-02    0.964E-02
RMM:   5    -0.232798288212E+04    0.11370E-03   -0.14383E-04  3192   0.677E-03    0.416E-02
RMM:   6    -0.232798287108E+04    0.11039E-04   -0.61107E-05  2820   0.388E-03    0.363E-02
RMM:   7    -0.232798285901E+04    0.12075E-04   -0.42933E-05  2794   0.345E-03    0.950E-03
RMM:   8    -0.232798285919E+04   -0.18254E-06   -0.50163E-06  2489   0.254E-03
   8 F= -.23489480E+04 E0= -.23489480E+04  d E =-.212515E-13  mag=     5.0000
       N       E                     dE             d eps       ncg     rms          rms(c)
DAV:   1    -0.232798076174E+04    0.20973E-02   -0.87063E+00  4480   0.135E+00    0.641E-01
RMM:   2    -0.232797560173E+04    0.51600E-02   -0.31908E-02  3893   0.821E-02    0.362E-01
RMM:   3    -0.232797360606E+04    0.19957E-02   -0.15299E-02  5027   0.480E-02    0.136E-01
RMM:   4    -0.232797335500E+04    0.25105E-03   -0.11332E-03  4133   0.190E-02    0.953E-02
RMM:   5    -0.232797323373E+04    0.12127E-03   -0.16333E-04  3219   0.610E-03    0.475E-02
RMM:   6    -0.232797320914E+04    0.24596E-04   -0.81640E-05  2880   0.483E-03    0.389E-02
RMM:   7    -0.232797319651E+04    0.12623E-04   -0.88321E-05  3137   0.425E-03    0.129E-02
RMM:   8    -0.232797319391E+04    0.26012E-05   -0.76857E-06  2647   0.344E-03
   9 F= -.23489384E+04 E0= -.23489384E+04  d E =-.324364E-13  mag=     5.0000
       N       E                     dE             d eps       ncg     rms          rms(c)
DAV:   1    -0.232798099117E+04   -0.77947E-02   -0.43251E+00  4480   0.101E+00    0.453E-01
RMM:   2    -0.232797838295E+04    0.26082E-02   -0.17587E-02  3795   0.590E-02    0.258E-01
RMM:   3    -0.232797779358E+04    0.58937E-03   -0.61238E-03  4840   0.346E-02    0.219E-01
RMM:   4    -0.232797732873E+04    0.46486E-03   -0.16469E-03  4431   0.180E-02    0.120E-01
RMM:   5    -0.232797723370E+04    0.95024E-04   -0.22681E-04  3169   0.663E-03    0.566E-02
RMM:   6    -0.232797720007E+04    0.33635E-04   -0.54163E-05  2618   0.402E-03    0.288E-02
RMM:   7    -0.232797718663E+04    0.13436E-04   -0.54602E-05  2784   0.300E-03    0.116E-02
RMM:   8    -0.232797718603E+04    0.60492E-06   -0.71317E-06  2582   0.267E-03
  10 F= -.23489429E+04 E0= -.23489429E+04  d E =-.287429E-13  mag=     5.0000
       N       E                     dE             d eps       ncg     rms          rms(c)
DAV:   1    -0.232799101846E+04   -0.13832E-01   -0.86090E+00  4480   0.144E+00    0.661E-01
RMM:   2    -0.232798436243E+04    0.66560E-02   -0.36177E-02  3928   0.896E-02    0.371E-01
RMM:   3    -0.232798310563E+04    0.12568E-02   -0.12701E-02  4881   0.506E-02    0.297E-01
RMM:   4    -0.232798226856E+04    0.83707E-03   -0.38778E-03  4963   0.269E-02    0.194E-01
RMM:   5    -0.232798195887E+04    0.30969E-03   -0.50155E-04  3663   0.932E-03    0.766E-02
RMM:   6    -0.232798190686E+04    0.52007E-04   -0.11977E-04  2825   0.520E-03    0.507E-02
RMM:   7    -0.232798187584E+04    0.31018E-04   -0.90076E-05  3045   0.401E-03    0.175E-02
RMM:   8    -0.232798187422E+04    0.16184E-05   -0.12197E-05  2720   0.328E-03
  11 F= -.23489465E+04 E0= -.23489465E+04  d E =-.308392E-13  mag=     5.0000
       N       E                     dE             d eps       ncg     rms          rms(c)
DAV:   1    -0.232797944642E+04    0.24294E-02   -0.43160E+00  4480   0.101E+00    0.470E-01
RMM:   2    -0.232797594584E+04    0.35006E-02   -0.14251E-02  3793   0.549E-02    0.261E-01
RMM:   3    -0.232797538889E+04    0.55695E-03   -0.88838E-03  4710   0.331E-02    0.218E-01
RMM:   4    -0.232797476032E+04    0.62857E-03   -0.10703E-03  4001   0.195E-02    0.484E-02
RMM:   5    -0.232797473673E+04    0.23590E-04   -0.17285E-04  3066   0.510E-03    0.555E-02
RMM:   6    -0.232797469972E+04    0.37001E-04   -0.63766E-05  2797   0.402E-03    0.214E-02
RMM:   7    -0.232797469730E+04    0.24282E-05   -0.34871E-05  2906   0.307E-03
  12 F= -.23489398E+04 E0= -.23489398E+04  d E =-.658195E-13  mag=     5.0000
       N       E                     dE             d eps       ncg     rms          rms(c)
DAV:   1    -0.232799649938E+04   -0.21800E-01   -0.84987E+00  4480   0.139E+00    0.650E-01
RMM:   2    -0.232798978199E+04    0.67174E-02   -0.37203E-02  3938   0.877E-02    0.360E-01
RMM:   3    -0.232798743031E+04    0.23517E-02   -0.10797E-02  4737   0.434E-02    0.138E-01
RMM:   4    -0.232798741918E+04    0.11134E-04   -0.18948E-03  4472   0.215E-02    0.152E-01
RMM:   5    -0.232798725176E+04    0.16742E-03   -0.41941E-04  3291   0.875E-03    0.619E-02
RMM:   6    -0.232798720209E+04    0.49668E-04   -0.90032E-05  2972   0.499E-03    0.203E-02
RMM:   7    -0.232798720464E+04   -0.25531E-05   -0.29594E-05  2745   0.350E-03
  13 F= -.23489525E+04 E0= -.23489525E+04  d E =-.140796E-13  mag=     5.0000
       N       E                     dE             d eps       ncg     rms          rms(c)
DAV:   1    -0.232799999564E+04   -0.12794E-01   -0.22543E+00  4480   0.742E-01    0.322E-01
RMM:   2    -0.232799893033E+04    0.10653E-02   -0.10224E-02  3709   0.454E-02    0.185E-01
RMM:   3    -0.232799862140E+04    0.30893E-03   -0.23412E-03  4452   0.187E-02    0.120E-01
RMM:   4    -0.232799863321E+04   -0.11808E-04   -0.75930E-04  3942   0.127E-02    0.123E-01
RMM:   5    -0.232799849856E+04    0.13465E-03   -0.16503E-04  2955   0.588E-03    0.370E-02
RMM:   6    -0.232799849096E+04    0.75943E-05   -0.48554E-05  2658   0.382E-03
  14 F= -.23489634E+04 E0= -.23489634E+04  d E =-.257338E-13  mag=     5.0000
       N       E                     dE             d eps       ncg     rms          rms(c)
DAV:   1    -0.232799654024E+04    0.19583E-02   -0.12322E+00  4800   0.468E-01    0.370E-01
RMM:   2    -0.232799582472E+04    0.71551E-03   -0.67317E-03  3691   0.310E-02    0.210E-01
RMM:   3    -0.232799572139E+04    0.10333E-03   -0.24577E-03  4345   0.183E-02    0.614E-02
RMM:   4    -0.232799572530E+04   -0.39034E-05   -0.27017E-04  3282   0.866E-03    0.987E-02
RMM:   5    -0.232799563343E+04    0.91869E-04   -0.10881E-04  2977   0.472E-03    0.190E-02
RMM:   6    -0.232799563304E+04    0.38657E-06   -0.40332E-05  2798   0.328E-03
  15 F= -.23489611E+04 E0= -.23489611E+04  d E =-.379696E-13  mag=     5.0000
       N       E                     dE             d eps       ncg     rms          rms(c)
DAV:   1    -0.232800037890E+04   -0.47455E-02   -0.63277E-01  4720   0.333E-01    0.319E-01
RMM:   2    -0.232799924513E+04    0.11338E-02   -0.51168E-03  3555   0.259E-02    0.172E-01
RMM:   3    -0.232799917167E+04    0.73461E-04   -0.22446E-03  4309   0.180E-02    0.109E-01
RMM:   4    -0.232799906152E+04    0.11015E-03   -0.31596E-04  3361   0.871E-03    0.678E-02
RMM:   5    -0.232799903169E+04    0.29831E-04   -0.17431E-04  3201   0.563E-03    0.483E-02
RMM:   6    -0.232799900980E+04    0.21890E-04   -0.55881E-05  2733   0.432E-03    0.184E-02
RMM:   7    -0.232799900701E+04    0.27876E-05   -0.53518E-06  2266   0.217E-03
  16 F= -.23489642E+04 E0= -.23489642E+04  d E =-.266388E-13  mag=     5.0000
       N       E                     dE             d eps       ncg     rms          rms(c)
DAV:   1    -0.232799471425E+04    0.42955E-02   -0.12393E+00  4560   0.467E-01    0.410E-01
RMM:   2    -0.232799313658E+04    0.15777E-02   -0.76767E-03  3608   0.334E-02    0.224E-01
RMM:   3    -0.232799301845E+04    0.11812E-03   -0.31998E-03  4342   0.222E-02    0.679E-02
RMM:   4    -0.232799300844E+04    0.10010E-04   -0.32500E-04  3653   0.859E-03    0.925E-02
RMM:   5    -0.232799291812E+04    0.90327E-04   -0.14542E-04  3045   0.550E-03    0.299E-02
RMM:   6    -0.232799291787E+04    0.24984E-06   -0.36090E-05  2644   0.368E-03
  17 F= -.23489580E+04 E0= -.23489580E+04  d E =-.529957E-13  mag=     5.0000
       N       E                     dE             d eps       ncg     rms          rms(c)
DAV:   1    -0.232799542279E+04   -0.25047E-02   -0.66166E-01  4880   0.354E-01    0.410E-01
RMM:   2    -0.232799291595E+04    0.25068E-02   -0.10285E-02  3584   0.372E-02    0.211E-01
RMM:   3    -0.232799254747E+04    0.36848E-03   -0.43014E-03  4367   0.238E-02    0.752E-02
RMM:   4    -0.232799250638E+04    0.41094E-04   -0.31687E-04  3453   0.886E-03    0.114E-01
RMM:   5    -0.232799239322E+04    0.11315E-03   -0.23266E-04  3262   0.666E-03    0.296E-02
RMM:   6    -0.232799238696E+04    0.62678E-05   -0.24933E-05  2629   0.352E-03
  18 F= -.23489574E+04 E0= -.23489574E+04  d E =-.413818E-13  mag=     5.0000
       N       E                     dE             d eps       ncg     rms          rms(c)
DAV:   1    -0.232799490494E+04   -0.25117E-02   -0.13032E+00  4720   0.477E-01    0.535E-01
RMM:   2    -0.232799083594E+04    0.40690E-02   -0.16862E-02  3704   0.504E-02    0.277E-01
RMM:   3    -0.232799030996E+04    0.52598E-03   -0.68702E-03  4624   0.316E-02    0.116E-01
RMM:   4    -0.232799027452E+04    0.35435E-04   -0.65625E-04  4016   0.115E-02    0.162E-01
RMM:   5    -0.232799002916E+04    0.24536E-03   -0.48071E-04  3636   0.924E-03    0.324E-02
RMM:   6    -0.232799002015E+04    0.90097E-05   -0.44873E-05  2777   0.460E-03
  19 F= -.23489553E+04 E0= -.23489553E+04  d E =-.259170E-13  mag=     5.0000
       N       E                     dE             d eps       ncg     rms          rms(c)
DAV:   1    -0.232798859996E+04    0.14292E-02   -0.62841E-01  4960   0.345E-01    0.376E-01
RMM:   2    -0.232798673835E+04    0.18616E-02   -0.10663E-02  3895   0.391E-02    0.195E-01
RMM:   3    -0.232798634196E+04    0.39639E-03   -0.18382E-03  4480   0.203E-02    0.116E-01
RMM:   4    -0.232798640550E+04   -0.63544E-04   -0.76472E-04  4079   0.118E-02    0.133E-01
RMM:   5    -0.232798620540E+04    0.20010E-03   -0.17826E-04  2939   0.689E-03    0.321E-02
RMM:   6    -0.232798621903E+04   -0.13637E-04   -0.87486E-05  2855   0.405E-03    0.511E-02
RMM:   7    -0.232798619617E+04    0.22865E-04   -0.30207E-05  2524   0.340E-03    0.109E-02
RMM:   8    -0.232798619509E+04    0.10755E-05   -0.36429E-06  2165   0.168E-03
  20 F= -.23489517E+04 E0= -.23489517E+04  d E =-.172776E-13  mag=     5.0000
       N       E                     dE             d eps       ncg     rms          rms(c)
DAV:   1    -0.232800103443E+04   -0.14838E-01   -0.12369E+00  4800   0.436E-01    0.551E-01
RMM:   2    -0.232799699465E+04    0.40398E-02   -0.19320E-02  4153   0.456E-02    0.295E-01
RMM:   3    -0.232799591375E+04    0.10809E-02   -0.25472E-03  4266   0.274E-02    0.162E-01
RMM:   4    -0.232799596042E+04   -0.46676E-04   -0.11620E-03  4333   0.137E-02    0.149E-01
RMM:   5    -0.232799570887E+04    0.25155E-03   -0.43026E-04  3249   0.970E-03    0.398E-02
RMM:   6    -0.232799570663E+04    0.22416E-05   -0.81756E-05  2837   0.410E-03
  21 F= -.23489605E+04 E0= -.23489605E+04  d E =-.567836E-13  mag=     5.0000
       N       E                     dE             d eps       ncg     rms          rms(c)
DAV:   1    -0.232800003918E+04   -0.43303E-02   -0.60636E-01  4480   0.276E-01    0.269E-01
RMM:   2    -0.232799974935E+04    0.28983E-03   -0.34925E-03  3618   0.211E-02    0.162E-01
RMM:   3    -0.232799996591E+04   -0.21656E-03   -0.99102E-04  4062   0.136E-02    0.229E-01
RMM:   4    -0.232799962101E+04    0.34490E-03   -0.72402E-04  3557   0.101E-02    0.809E-02
RMM:   5    -0.232799956447E+04    0.56537E-04   -0.93425E-05  2935   0.521E-03    0.214E-02
RMM:   6    -0.232799956440E+04    0.71173E-07   -0.23091E-05  2559   0.288E-03
  22 F= -.23489646E+04 E0= -.23489646E+04  d E =-.298482E-13  mag=     5.0000
       N       E                     dE             d eps       ncg     rms          rms(c)
DAV:   1    -0.232799832994E+04    0.12345E-02   -0.11790E+00  4720   0.387E-01    0.400E-01
RMM:   2    -0.232799695095E+04    0.13790E-02   -0.73697E-03  4174   0.309E-02    0.233E-01
RMM:   3    -0.232799671089E+04    0.24006E-03   -0.14945E-03  3843   0.185E-02    0.172E-01
RMM:   4    -0.232799684794E+04   -0.13705E-03   -0.12284E-03  3931   0.127E-02    0.192E-01
RMM:   5    -0.232799650786E+04    0.34008E-03   -0.34595E-04  3220   0.867E-03    0.622E-02
RMM:   6    -0.232799647727E+04    0.30594E-04   -0.76484E-05  2836   0.444E-03    0.258E-02
RMM:   7    -0.232799647212E+04    0.51472E-05   -0.11285E-05  2607   0.245E-03
  23 F= -.23489618E+04 E0= -.23489618E+04  d E =-.375887E-13  mag=     5.0000
       N       E                     dE             d eps       ncg     rms          rms(c)
DAV:   1    -0.232799539717E+04    0.10801E-02   -0.59212E-01  4480   0.283E-01    0.236E-01
RMM:   2    -0.232799532242E+04    0.74752E-04   -0.16597E-03  3527   0.162E-02    0.142E-01
RMM:   3    -0.232799565866E+04   -0.33624E-03   -0.86382E-04  3701   0.109E-02    0.217E-01
RMM:   4    -0.232799525532E+04    0.40335E-03   -0.36811E-04  3053   0.802E-03    0.240E-02
RMM:   5    -0.232799525956E+04   -0.42492E-05   -0.45721E-05  2734   0.326E-03
  24 F= -.23489610E+04 E0= -.23489610E+04  d E =-.791579E-13  mag=     5.0000
       N       E                     dE             d eps       ncg     rms          rms(c)
DAV:   1    -0.232800295353E+04   -0.76982E-02   -0.12048E+00  4640   0.398E-01    0.398E-01
RMM:   2    -0.232800163802E+04    0.13155E-02   -0.77662E-03  4355   0.319E-02    0.230E-01
RMM:   3    -0.232800153348E+04    0.10454E-03   -0.15567E-03  3783   0.191E-02    0.207E-01
RMM:   4    -0.232800155463E+04   -0.21151E-04   -0.12541E-03  4129   0.131E-02    0.217E-01
RMM:   5    -0.232800121802E+04    0.33661E-03   -0.33432E-04  3315   0.856E-03    0.513E-02
RMM:   6    -0.232800119143E+04    0.26590E-04   -0.77313E-05  2762   0.463E-03    0.271E-02
RMM:   7    -0.232800118478E+04    0.66550E-05   -0.15239E-05  2521   0.244E-03
  25 F= -.23489658E+04 E0= -.23489658E+04  d E =-.147954E-13  mag=     5.0000
       N       E                     dE             d eps       ncg     rms          rms(c)
DAV:   1    -0.232798491854E+04    0.16273E-01   -0.62655E-01  4960   0.309E-01    0.345E-01
RMM:   2    -0.232798340711E+04    0.15114E-02   -0.72005E-03  3865   0.332E-02    0.191E-01
RMM:   3    -0.232798328704E+04    0.12008E-03   -0.23484E-03  4625   0.219E-02    0.175E-01
RMM:   4    -0.232798315948E+04    0.12756E-03   -0.88557E-04  4211   0.119E-02    0.148E-01
RMM:   5    -0.232798298041E+04    0.17907E-03   -0.15015E-04  2953   0.596E-03    0.369E-02
RMM:   6    -0.232798298019E+04    0.22860E-06   -0.98229E-05  2962   0.453E-03
  26 F= -.23489484E+04 E0= -.23489484E+04  d E =-.446403E-13  mag=     5.0000
       N       E                     dE             d eps       ncg     rms          rms(c)
DAV:   1    -0.232799973324E+04   -0.16753E-01   -0.13187E+00  4960   0.459E-01    0.584E-01
RMM:   2    -0.232799475798E+04    0.49753E-02   -0.22014E-02  4024   0.491E-02    0.304E-01
RMM:   3    -0.232799387270E+04    0.88528E-03   -0.76781E-03  4755   0.308E-02    0.128E-01
RMM:   4    -0.232799385530E+04    0.17400E-04   -0.83403E-04  3652   0.146E-02    0.166E-01
RMM:   5    -0.232799360228E+04    0.25302E-03   -0.65058E-04  3865   0.102E-02    0.496E-02
RMM:   6    -0.232799358511E+04    0.17168E-04   -0.93426E-05  2892   0.563E-03    0.354E-02
RMM:   7    -0.232799356872E+04    0.16391E-04   -0.13923E-05  2481   0.255E-03    0.909E-03
RMM:   8    -0.232799356758E+04    0.11370E-05   -0.17807E-05  2436   0.180E-03
  27 F= -.23489585E+04 E0= -.23489585E+04  d E =-.383291E-13  mag=     5.0000
       N       E                     dE             d eps       ncg     rms          rms(c)
DAV:   1    -0.232799964353E+04   -0.60748E-02   -0.66307E-01  4960   0.304E-01    0.406E-01
RMM:   2    -0.232799721477E+04    0.24288E-02   -0.97841E-03  3774   0.353E-02    0.211E-01
RMM:   3    -0.232799683922E+04    0.37555E-03   -0.38264E-03  4339   0.229E-02    0.799E-02
RMM:   4    -0.232799683960E+04   -0.37385E-06   -0.41927E-04  3588   0.105E-02    0.118E-01
RMM:   5    -0.232799670603E+04    0.13357E-03   -0.24925E-04  3404   0.664E-03    0.356E-02
RMM:   6    -0.232799669942E+04    0.66064E-05   -0.53744E-05  2658   0.439E-03
  28 F= -.23489622E+04 E0= -.23489622E+04  d E =-.381001E-13  mag=     5.0000
       N       E                     dE             d eps       ncg     rms          rms(c)
DAV:   1    -0.232799907117E+04   -0.23651E-02   -0.12556E+00  4480   0.430E-01    0.354E-01
RMM:   2    -0.232799866138E+04    0.40980E-03   -0.54025E-03  3648   0.261E-02    0.205E-01
RMM:   3    -0.232799859055E+04    0.70825E-04   -0.20100E-03  4174   0.158E-02    0.642E-02
RMM:   4    -0.232799856069E+04    0.29856E-04   -0.23705E-04  3300   0.974E-03    0.762E-02
RMM:   5    -0.232799850349E+04    0.57208E-04   -0.78374E-05  2899   0.401E-03    0.178E-02
RMM:   6    -0.232799850329E+04    0.19652E-06   -0.33725E-05  2646   0.328E-03
  29 F= -.23489633E+04 E0= -.23489633E+04  d E =-.351071E-13  mag=     5.0000
       N       E                     dE             d eps       ncg     rms          rms(c)
DAV:   1    -0.232800071917E+04   -0.22157E-02   -0.62786E-01  4480   0.289E-01    0.234E-01
RMM:   2    -0.232800072804E+04   -0.88695E-05   -0.21162E-03  3551   0.170E-02    0.139E-01
RMM:   3    -0.232800072130E+04    0.67382E-05   -0.58340E-04  3674   0.920E-03    0.441E-02
RMM:   4    -0.232800069904E+04    0.22257E-04   -0.62412E-05  2683   0.610E-03    0.151E-02
RMM:   5    -0.232800069577E+04    0.32747E-05   -0.88661E-06  2408   0.177E-03
  30 F= -.23489660E+04 E0= -.23489660E+04  d E =-.463875E-13  mag=     5.0000
       N       E                     dE             d eps       ncg     rms          rms(c)
DAV:   1    -0.232799557786E+04    0.51212E-02   -0.12456E+00  4480   0.405E-01    0.348E-01
RMM:   2    -0.232799542877E+04    0.14909E-03   -0.65142E-03  3672   0.271E-02    0.203E-01
RMM:   3    -0.232799540359E+04    0.25178E-04   -0.19646E-03  4607   0.181E-02    0.168E-01
RMM:   4    -0.232799517051E+04    0.23308E-03   -0.36236E-04  3379   0.950E-03    0.425E-02
RMM:   5    -0.232799514259E+04    0.27921E-04   -0.73761E-05  3028   0.430E-03    0.181E-02
RMM:   6    -0.232799514309E+04   -0.49546E-06   -0.30831E-05  2627   0.326E-03
  31 F= -.23489602E+04 E0= -.23489602E+04  d E =-.251346E-13  mag=     5.0000
       N       E                     dE             d eps       ncg     rms          rms(c)
DAV:   1    -0.232799569465E+04   -0.55205E-03   -0.63547E-01  4640   0.364E-01    0.286E-01
RMM:   2    -0.232799494448E+04    0.75017E-03   -0.53094E-03  3720   0.279E-02    0.153E-01
RMM:   3    -0.232799484093E+04    0.10355E-03   -0.18781E-03  4409   0.162E-02    0.607E-02
RMM:   4    -0.232799483636E+04    0.45683E-05   -0.20258E-04  3036   0.830E-03    0.796E-02
RMM:   5    -0.232799477836E+04    0.58000E-04   -0.95352E-05  3030   0.446E-03    0.239E-02
RMM:   6    -0.232799478080E+04   -0.24404E-05   -0.39031E-05  2711   0.365E-03
  32 F= -.23489596E+04 E0= -.23489596E+04  d E =-.292057E-13  mag=     5.0000
       N       E                     dE             d eps       ncg     rms          rms(c)
DAV:   1    -0.232799736293E+04   -0.25846E-02   -0.12571E+00  4800   0.476E-01    0.438E-01
RMM:   2    -0.232799548428E+04    0.18787E-02   -0.10329E-02  3797   0.392E-02    0.239E-01
RMM:   3    -0.232799531142E+04    0.17285E-03   -0.36893E-03  4810   0.245E-02    0.138E-01
RMM:   4    -0.232799512741E+04    0.18401E-03   -0.56582E-04  3693   0.112E-02    0.771E-02
RMM:   5    -0.232799505620E+04    0.71208E-04   -0.24697E-04  3444   0.631E-03    0.396E-02
RMM:   6    -0.232799506126E+04   -0.50641E-05   -0.78170E-05  2836   0.512E-03
  33 F= -.23489605E+04 E0= -.23489605E+04  d E =-.393341E-13  mag=     5.0000
       N       E                     dE             d eps       ncg     rms          rms(c)
DAV:   1    -0.232798995641E+04    0.50998E-02   -0.60857E-01  4560   0.331E-01    0.228E-01
RMM:   2    -0.232798988159E+04    0.74820E-04   -0.21760E-03  3511   0.200E-02    0.133E-01
RMM:   3    -0.232798988188E+04   -0.29590E-06   -0.66986E-04  3764   0.987E-03    0.548E-02
RMM:   4    -0.232798986795E+04    0.13932E-04   -0.99819E-05  2668   0.691E-03    0.417E-02
RMM:   5    -0.232798984896E+04    0.18988E-04   -0.27662E-05  2639   0.276E-03    0.736E-03
RMM:   6    -0.232798984972E+04   -0.75817E-06   -0.65661E-06  2185   0.197E-03
  34 F= -.23489553E+04 E0= -.23489553E+04  d E =-.322451E-13  mag=     5.0000
       N       E                     dE             d eps       ncg     rms          rms(c)
DAV:   1    -0.232799586433E+04   -0.60154E-02   -0.12975E+00  4960   0.500E-01    0.539E-01
RMM:   2    -0.232799189922E+04    0.39651E-02   -0.15496E-02  3757   0.501E-02    0.284E-01
RMM:   3    -0.232799156444E+04    0.33478E-03   -0.76619E-03  4715   0.355E-02    0.159E-01
RMM:   4    -0.232799123732E+04    0.32712E-03   -0.78460E-04  4124   0.133E-02    0.102E-01
RMM:   5    -0.232799113627E+04    0.10105E-03   -0.46653E-04  3630   0.829E-03    0.757E-02
RMM:   6    -0.232799111125E+04    0.25015E-04   -0.21876E-04  3160   0.710E-03    0.482E-02
RMM:   7    -0.232799108567E+04    0.25580E-04   -0.22079E-05  2591   0.360E-03    0.105E-02
RMM:   8    -0.232799108322E+04    0.24494E-05   -0.18992E-05  2360   0.185E-03
  35 F= -.23489560E+04 E0= -.23489560E+04  d E =-.401528E-13  mag=     5.0000
       N       E                     dE             d eps       ncg     rms          rms(c)
DAV:   1    -0.232799949202E+04   -0.84063E-02   -0.64441E-01  4880   0.345E-01    0.353E-01
RMM:   2    -0.232799794273E+04    0.15493E-02   -0.67574E-03  3722   0.321E-02    0.187E-01
RMM:   3    -0.232799780756E+04    0.13517E-03   -0.27483E-03  4466   0.208E-02    0.989E-02
RMM:   4    -0.232799773807E+04    0.69494E-04   -0.32188E-04  3495   0.872E-03    0.867E-02
RMM:   5    -0.232799767889E+04    0.59179E-04   -0.23048E-04  3371   0.636E-03    0.446E-02
RMM:   6    -0.232799765965E+04    0.19242E-04   -0.52053E-05  2621   0.457E-03    0.199E-02
RMM:   7    -0.232799765464E+04    0.50024E-05   -0.65003E-06  2277   0.206E-03
  36 F= -.23489632E+04 E0= -.23489632E+04  d E =-.413905E-13  mag=     5.0000
       N       E                     dE             d eps       ncg     rms          rms(c)
DAV:   1    -0.232799891793E+04   -0.12583E-02   -0.12445E+00  4480   0.472E-01    0.331E-01
RMM:   2    -0.232799887177E+04    0.46151E-04   -0.36971E-03  3632   0.272E-02    0.197E-01
RMM:   3    -0.232799885039E+04    0.21381E-04   -0.11886E-03  4045   0.153E-02    0.310E-02
RMM:   4    -0.232799885088E+04   -0.48183E-06   -0.98735E-05  3053   0.728E-03
  37 F= -.23489636E+04 E0= -.23489636E+04  d E =-.276548E-13  mag=     5.0000
       N       E                     dE             d eps       ncg     rms          rms(c)
DAV:   1    -0.232800155751E+04   -0.27071E-02   -0.57781E-01  4480   0.350E-01    0.208E-01
RMM:   2    -0.232800165123E+04   -0.93720E-04   -0.29643E-03  3833   0.242E-02    0.158E-01
RMM:   3    -0.232800172000E+04   -0.68768E-04   -0.96894E-04  3913   0.137E-02    0.176E-01
RMM:   4    -0.232800149943E+04    0.22056E-03   -0.38111E-04  3483   0.888E-03    0.787E-02
RMM:   5    -0.232800145149E+04    0.47939E-04   -0.10985E-04  2778   0.574E-03    0.349E-02
RMM:   6    -0.232800144125E+04    0.10243E-04   -0.22298E-05  2634   0.260E-03    0.991E-03
RMM:   7    -0.232800144030E+04    0.94825E-06   -0.48773E-06  2452   0.178E-03
  38 F= -.23489657E+04 E0= -.23489657E+04  d E =-.742314E-13  mag=     5.0000
       N       E                     dE             d eps       ncg     rms          rms(c)
DAV:   1    -0.232800116797E+04    0.27328E-03   -0.10558E+00  4480   0.387E-01    0.263E-01
RMM:   2    -0.232800173492E+04   -0.56696E-03   -0.65658E-03  4728   0.313E-02    0.295E-01
RMM:   3    -0.232800086542E+04    0.86951E-03   -0.15082E-03  4217   0.167E-02    0.162E-01
RMM:   4    -0.232800093153E+04   -0.66110E-04   -0.63184E-04  3725   0.926E-03    0.159E-01
RMM:   5    -0.232800071337E+04    0.21816E-03   -0.31191E-04  2960   0.736E-03    0.522E-02
RMM:   6    -0.232800068934E+04    0.24023E-04   -0.57815E-05  2836   0.359E-03    0.146E-02
RMM:   7    -0.232800068869E+04    0.64861E-06   -0.94080E-06  2630   0.222E-03
  39 F= -.23489665E+04 E0= -.23489665E+04  d E =-.169355E-13  mag=     5.0000
       N       E                     dE             d eps       ncg     rms          rms(c)
DAV:   1    -0.232799937705E+04    0.13123E-02   -0.52534E-01  4320   0.286E-01    0.194E-01
RMM:   2    -0.232799954086E+04   -0.16381E-03   -0.31943E-03  4194   0.216E-02    0.195E-01
RMM:   3    -0.232799919049E+04    0.35036E-03   -0.80760E-04  3902   0.117E-02    0.125E-01
RMM:   4    -0.232799913920E+04    0.51299E-04   -0.30300E-04  3262   0.690E-03    0.960E-02
RMM:   5    -0.232799907382E+04    0.65376E-04   -0.15170E-04  2736   0.558E-03    0.506E-02
RMM:   6    -0.232799905381E+04    0.20013E-04   -0.30135E-05  2665   0.294E-03    0.102E-02
RMM:   7    -0.232799905355E+04    0.25894E-06   -0.57807E-06  2504   0.182E-03
  40 F= -.23489633E+04 E0= -.23489633E+04  d E =-.974285E-13  mag=     5.0000
       N       E                     dE             d eps       ncg     rms          rms(c)
DAV:   1    -0.232800104077E+04   -0.19870E-02   -0.10582E+00  4480   0.379E-01    0.234E-01
RMM:   2    -0.232800107056E+04   -0.29790E-04   -0.39499E-03  3802   0.242E-02    0.153E-01
RMM:   3    -0.232800123945E+04   -0.16889E-03   -0.12061E-03  4066   0.150E-02    0.190E-01
RMM:   4    -0.232800083730E+04    0.40215E-03   -0.53164E-04  3366   0.975E-03    0.393E-02
RMM:   5    -0.232800084192E+04   -0.46245E-05   -0.91192E-05  2899   0.411E-03
  41 F= -.23489668E+04 E0= -.23489668E+04  d E =-.118361E-13  mag=     5.0000
       N       E                     dE             d eps       ncg     rms          rms(c)
DAV:   1    -0.232799687674E+04    0.39606E-02   -0.54683E-01  4320   0.292E-01    0.204E-01
RMM:   2    -0.232799756037E+04   -0.68363E-03   -0.46894E-03  4113   0.274E-02    0.279E-01
RMM:   3    -0.232799674009E+04    0.82028E-03   -0.95246E-04  3902   0.130E-02    0.102E-01
RMM:   4    -0.232799681550E+04   -0.75403E-04   -0.43728E-04  3529   0.798E-03    0.132E-01
RMM:   5    -0.232799666889E+04    0.14660E-03   -0.21617E-04  2915   0.619E-03    0.383E-02
RMM:   6    -0.232799666012E+04    0.87766E-05   -0.24692E-05  2686   0.296E-03
  42 F= -.23489617E+04 E0= -.23489617E+04  d E =-.516448E-13  mag=     5.0000
       N       E                     dE             d eps       ncg     rms          rms(c)
DAV:   1    -0.232799444184E+04    0.22271E-02   -0.11034E+00  4480   0.396E-01    0.323E-01
RMM:   2    -0.232799583346E+04   -0.13916E-02   -0.11033E-02  4555   0.427E-02    0.468E-01
RMM:   3    -0.232799360412E+04    0.22293E-02   -0.25896E-03  4664   0.211E-02    0.158E-01
RMM:   4    -0.232799385254E+04   -0.24841E-03   -0.13437E-03  4325   0.129E-02    0.236E-01
RMM:   5    -0.232799334775E+04    0.50479E-03   -0.52304E-04  3457   0.861E-03    0.379E-02
RMM:   6    -0.232799333929E+04    0.84594E-05   -0.52473E-05  2799   0.371E-03
  43 F= -.23489586E+04 E0= -.23489586E+04  d E =-.251541E-13  mag=     5.0000
