       N       E                     dE             d eps       ncg     rms          rms(c)
DAV:   1     0.128855701352E+05    0.12886E+05   -0.83443E+05  4480   0.144E+03
DAV:   2    -0.104417115709E+04   -0.13930E+05   -0.13326E+05  5112   0.330E+02
DAV:   3    -0.247148149526E+04   -0.14273E+04   -0.14120E+04  5392   0.112E+02
DAV:   4    -0.251799831758E+04   -0.46517E+02   -0.46274E+02  6760   0.304E+01
DAV:   5    -0.251877136730E+04   -0.77305E+00   -0.77188E+00  6056   0.337E+00    0.170E+02
RMM:   6    -0.149036768046E+04    0.10284E+04   -0.19347E+03  4420   0.387E+01    0.741E+01
RMM:   7    -0.167701906672E+04   -0.18665E+03   -0.30751E+02  5071   0.147E+01    0.611E+01
RMM:   8    -0.169497787822E+04   -0.17959E+02   -0.87021E+01  5215   0.834E+00    0.436E+01
RMM:   9    -0.176385958254E+04   -0.68882E+02   -0.64743E+01  4926   0.734E+00    0.335E+01
RMM:  10    -0.189670766522E+04   -0.13285E+03   -0.64326E+01  5201   0.784E+00    0.269E+01
RMM:  11    -0.197344731871E+04   -0.76740E+02   -0.30771E+01  5235   0.495E+00    0.233E+01
RMM:  12    -0.204355031941E+04   -0.70103E+02   -0.27736E+01  4817   0.427E+00    0.163E+01
RMM:  13    -0.211686932405E+04   -0.73319E+02   -0.31682E+01  4863   0.433E+00    0.130E+01
RMM:  14    -0.222564126111E+04   -0.10877E+03   -0.79719E+01  4426   0.654E+00    0.795E+00
RMM:  15    -0.228763910608E+04   -0.61998E+02   -0.56939E+01  4601   0.542E+00    0.749E+00
RMM:  16    -0.229672745085E+04   -0.90883E+01   -0.10491E+01  4804   0.303E+00    0.588E+00
RMM:  17    -0.230296208868E+04   -0.62346E+01   -0.59856E+00  4606   0.149E+00    0.340E+00
RMM:  18    -0.230756903823E+04   -0.46069E+01   -0.31211E+00  4525   0.144E+00    0.165E+00
RMM:  19    -0.230904556068E+04   -0.14765E+01   -0.10631E+00  5122   0.621E-01    0.127E+00
RMM:  20    -0.230939446915E+04   -0.34891E+00   -0.24014E-01  4956   0.272E-01    0.852E-01
RMM:  21    -0.230956861878E+04   -0.17415E+00   -0.93657E-02  4696   0.196E-01    0.478E-01
RMM:  22    -0.230963525476E+04   -0.66636E-01   -0.32633E-02  4805   0.126E-01    0.332E-01
RMM:  23    -0.230966144444E+04   -0.26190E-01   -0.11364E-02  4808   0.744E-02    0.264E-01
RMM:  24    -0.230967788937E+04   -0.16445E-01   -0.35832E-03  4622   0.483E-02    0.288E-01
RMM:  25    -0.230967643207E+04    0.14573E-02   -0.38924E-04  4395   0.176E-02    0.282E-01
RMM:  26    -0.230968291790E+04   -0.64858E-02   -0.14960E-03  4555   0.262E-02    0.260E-01
RMM:  27    -0.230969373759E+04   -0.10820E-01   -0.34494E-03  4408   0.364E-02    0.251E-01
RMM:  28    -0.230969713613E+04   -0.33985E-02   -0.21540E-03  4103   0.262E-02    0.243E-01
RMM:  29    -0.230969752156E+04   -0.38543E-03   -0.40213E-04  3861   0.123E-02    0.222E-01
RMM:  30    -0.230970242535E+04   -0.49038E-02   -0.18798E-03  4245   0.239E-02    0.158E-01
RMM:  31    -0.230971473826E+04   -0.12313E-01   -0.52235E-03  4411   0.469E-02    0.105E-01
RMM:  32    -0.230971835315E+04   -0.36149E-02   -0.20224E-03  4422   0.347E-02    0.148E-01
RMM:  33    -0.230971868474E+04   -0.33159E-03   -0.28236E-04  4192   0.145E-02    0.853E-02
RMM:  34    -0.230971972764E+04   -0.10429E-02   -0.23802E-04  3680   0.101E-02    0.618E-02
RMM:  35    -0.230972036420E+04   -0.63656E-03   -0.25697E-04  3681   0.100E-02    0.227E-02
RMM:  36    -0.230972069396E+04   -0.32976E-03   -0.86092E-05  3448   0.735E-03    0.131E-02
RMM:  37    -0.230972084891E+04   -0.15495E-03   -0.34833E-05  3265   0.500E-03    0.526E-03
RMM:  38    -0.230972090845E+04   -0.59546E-04   -0.12230E-05  2891   0.394E-03    0.254E-03
RMM:  39    -0.230972094032E+04   -0.31869E-04   -0.84184E-06  2813   0.302E-03    0.202E-03
RMM:  40    -0.230972095197E+04   -0.11646E-04   -0.41591E-06  2444   0.255E-03    0.186E-03
RMM:  41    -0.230972095597E+04   -0.40035E-05   -0.24154E-06  2363   0.178E-03
   1 F= -.23306028E+04 E0= -.23306022E+04  d E =-.233060E+04  mag=     3.0000
       N       E                     dE             d eps       ncg     rms          rms(c)
DAV:   1    -0.230969368651E+04    0.27265E-01   -0.59719E+00  4920   0.167E+00    0.825E-01
RMM:   2    -0.230981444754E+04   -0.12076E+00   -0.12559E+00  6441   0.528E-01    0.939E-01
RMM:   3    -0.230981377505E+04    0.67248E-03   -0.98552E-02  6141   0.159E-01    0.554E-01
RMM:   4    -0.230981142055E+04    0.23545E-02   -0.11498E-02  5603   0.393E-02    0.233E-01
RMM:   5    -0.230981117612E+04    0.24444E-03   -0.20058E-03  5053   0.189E-02    0.226E-01
RMM:   6    -0.230981122743E+04   -0.51311E-04   -0.13843E-03  4648   0.177E-02    0.308E-01
RMM:   7    -0.230981062174E+04    0.60569E-03   -0.71277E-04  5095   0.145E-02    0.861E-02
RMM:   8    -0.230981063091E+04   -0.91685E-05   -0.95979E-05  2944   0.712E-03
   2 F= -.23306868E+04 E0= -.23306852E+04  d E =-.839630E-01  mag=     3.0000
       N       E                     dE             d eps       ncg     rms          rms(c)
DAV:   1    -0.230977845111E+04    0.32171E-01   -0.27240E+00  4688   0.112E+00    0.575E-01
RMM:   2    -0.230983298567E+04   -0.54535E-01   -0.56849E-01  6441   0.352E-01    0.642E-01
RMM:   3    -0.230983343733E+04   -0.45166E-03   -0.44188E-02  6045   0.103E-01    0.496E-01
RMM:   4    -0.230983271617E+04    0.72116E-03   -0.56908E-03  5135   0.268E-02    0.315E-01
RMM:   5    -0.230983281693E+04   -0.10076E-03   -0.12769E-03  4061   0.152E-02    0.370E-01
RMM:   6    -0.230983286221E+04   -0.45280E-04   -0.22240E-04  3182   0.668E-03    0.350E-01
RMM:   7    -0.230983254670E+04    0.31551E-03   -0.88830E-05  2988   0.556E-03    0.316E-01
RMM:   8    -0.230983130833E+04    0.12384E-02   -0.20386E-03  4680   0.199E-02    0.137E-01
RMM:   9    -0.230983098731E+04    0.32102E-03   -0.74066E-04  3846   0.130E-02    0.685E-02
RMM:  10    -0.230983096677E+04    0.20535E-04   -0.29188E-04  3656   0.941E-03    0.800E-02
RMM:  11    -0.230983094637E+04    0.20402E-04   -0.69628E-05  2965   0.625E-03    0.441E-02
RMM:  12    -0.230983093159E+04    0.14777E-04   -0.86231E-05  3148   0.579E-03    0.237E-02
RMM:  13    -0.230983092796E+04    0.36381E-05   -0.15668E-05  2854   0.459E-03
   3 F= -.23307030E+04 E0= -.23307003E+04  d E =-.100179E+00  mag=     3.0000
       N       E                     dE             d eps       ncg     rms          rms(c)
DAV:   1    -0.230982764042E+04    0.32912E-02   -0.25517E+00  4608   0.118E+00    0.607E-01
RMM:   2    -0.230989932479E+04   -0.71684E-01   -0.66892E-01  6587   0.378E-01    0.121E+00
RMM:   3    -0.230989297153E+04    0.63533E-02   -0.55690E-02  6063   0.113E-01    0.555E-01
RMM:   4    -0.230989339820E+04   -0.42667E-03   -0.93689E-03  5027   0.337E-02    0.430E-01
RMM:   5    -0.230989209683E+04    0.13014E-02   -0.20414E-03  4707   0.191E-02    0.267E-01
RMM:   6    -0.230989178083E+04    0.31600E-03   -0.58398E-04  4838   0.117E-02    0.154E-01
RMM:   7    -0.230989159751E+04    0.18331E-03   -0.39768E-04  3420   0.133E-02    0.582E-02
RMM:   8    -0.230989158862E+04    0.88912E-05   -0.61125E-05  3002   0.526E-03
   4 F= -.23307602E+04 E0= -.23307562E+04  d E =-.571717E-01  mag=     3.0000
       N       E                     dE             d eps       ncg     rms          rms(c)
DAV:   1    -0.230947060277E+04    0.42099E+00   -0.23039E+01  4496   0.356E+00    0.185E+00
RMM:   2    -0.231012400214E+04   -0.65340E+00   -0.60851E+00  6593   0.115E+00    0.370E+00
RMM:   3    -0.231008956765E+04    0.34434E-01   -0.57087E-01  6145   0.364E-01    0.319E+00
RMM:   4    -0.231007337460E+04    0.16193E-01   -0.85409E-02  5969   0.103E-01    0.114E+00
RMM:   5    -0.231007213392E+04    0.12407E-02   -0.17361E-02  5738   0.585E-02    0.198E+00
RMM:   6    -0.231006830896E+04    0.38250E-02   -0.53020E-03  5232   0.300E-02    0.150E+00
RMM:   7    -0.231006964133E+04   -0.13324E-02   -0.12268E-03  4205   0.180E-02    0.157E+00
RMM:   8    -0.231006196562E+04    0.76757E-02   -0.40074E-03  4897   0.296E-02    0.707E-01
RMM:   9    -0.231005953443E+04    0.24312E-02   -0.44336E-03  4806   0.344E-02    0.237E-01
RMM:  10    -0.231006049884E+04   -0.96441E-03   -0.93554E-04  4167   0.146E-02    0.562E-01
RMM:  11    -0.231005981874E+04    0.68010E-03   -0.21390E-04  3012   0.850E-03    0.348E-01
RMM:  12    -0.231005934857E+04    0.47017E-03   -0.68018E-04  3613   0.111E-02    0.292E-01
RMM:  13    -0.231005904353E+04    0.30504E-03   -0.88411E-04  3848   0.128E-02    0.332E-01
RMM:  14    -0.231005866874E+04    0.37479E-03   -0.84045E-04  3583   0.119E-02    0.317E-01
RMM:  15    -0.231005844662E+04    0.22212E-03   -0.34761E-04  3193   0.858E-03    0.323E-01
RMM:  16    -0.231005929390E+04   -0.84728E-03   -0.24920E-03  4029   0.205E-02    0.326E-01
RMM:  17    -0.231005987566E+04   -0.58177E-03   -0.23015E-03  4161   0.206E-02    0.346E-01
RMM:  18    -0.231005758953E+04    0.22861E-02   -0.19114E-02  4619   0.548E-02    0.377E-01
RMM:  19    -0.231005515049E+04    0.24390E-02   -0.78399E-03  4435   0.402E-02    0.753E-01
RMM:  20    -0.231005875330E+04   -0.36028E-02   -0.13061E-02  4513   0.456E-02    0.320E-01
RMM:  21    -0.231005830057E+04    0.45273E-03   -0.37306E-04  3345   0.136E-02    0.263E-01
RMM:  22    -0.231005882839E+04   -0.52782E-03   -0.14211E-03  4100   0.147E-02    0.235E-01
RMM:  23    -0.231005927834E+04   -0.44996E-03   -0.13868E-03  3917   0.155E-02    0.238E-01
RMM:  24    -0.231005981258E+04   -0.53424E-03   -0.14995E-03  4106   0.154E-02    0.284E-01
RMM:  25    -0.231006006559E+04   -0.25301E-03   -0.45229E-04  3289   0.954E-03    0.305E-01
RMM:  26    -0.231005994278E+04    0.12281E-03   -0.47437E-05  2813   0.417E-03    0.279E-01
RMM:  27    -0.231005999146E+04   -0.48678E-04   -0.14169E-05  2530   0.210E-03    0.292E-01
RMM:  28    -0.231005963404E+04    0.35742E-03   -0.28994E-04  3010   0.720E-03    0.236E-01
RMM:  29    -0.231005889277E+04    0.74127E-03   -0.23905E-03  4158   0.192E-02    0.196E-01
RMM:  30    -0.231005822020E+04    0.67258E-03   -0.24146E-03  4012   0.206E-02    0.244E-01
RMM:  31    -0.231005719467E+04    0.10255E-02   -0.40300E-03  4514   0.246E-02    0.393E-01
RMM:  32    -0.231005644757E+04    0.74710E-03   -0.15355E-03  3973   0.167E-02    0.505E-01
RMM:  33    -0.231005626390E+04    0.18367E-03   -0.30537E-04  3164   0.703E-03    0.532E-01
RMM:  34    -0.231005626167E+04    0.22331E-05   -0.19941E-05  2757   0.343E-03
   5 F= -.23309175E+04 E0= -.23309128E+04  d E =-.214542E+00  mag=     3.0000
       N       E                     dE             d eps       ncg     rms          rms(c)
DAV:   1    -0.230772247958E+04    0.23338E+01   -0.93419E+01  4448   0.721E+00    0.409E+00
RMM:   2    -0.231059815277E+04   -0.28757E+01   -0.25092E+01  6601   0.224E+00    0.730E+00
RMM:   3    -0.231042219982E+04    0.17595E+00   -0.30143E+00  5766   0.104E+00    0.534E+00
RMM:   4    -0.231030558475E+04    0.11662E+00   -0.31297E-01  6233   0.213E-01    0.280E+00
RMM:   5    -0.231030579302E+04   -0.20827E-03   -0.74258E-02  5974   0.124E-01    0.363E+00
RMM:   6    -0.231030408234E+04    0.17107E-02   -0.12735E-02  5149   0.405E-02    0.321E+00
RMM:   7    -0.231029794137E+04    0.61410E-02   -0.52465E-02  5211   0.983E-02    0.153E+00
RMM:   8    -0.231029537720E+04    0.25642E-02   -0.18674E-02  5055   0.617E-02    0.961E-01
RMM:   9    -0.231030006052E+04   -0.46833E-02   -0.56434E-03  4561   0.314E-02    0.739E-01
RMM:  10    -0.231030197112E+04   -0.19106E-02   -0.11882E-02  4723   0.451E-02    0.627E-01
RMM:  11    -0.231030058104E+04    0.13901E-02   -0.25978E-03  5019   0.250E-02    0.152E-01
RMM:  12    -0.231030076135E+04   -0.18032E-03   -0.54330E-04  3760   0.109E-02    0.893E-02
RMM:  13    -0.231030091172E+04   -0.15037E-03   -0.17597E-04  3001   0.686E-03    0.500E-02
RMM:  14    -0.231030097476E+04   -0.63041E-04   -0.98690E-05  3031   0.583E-03    0.320E-02
RMM:  15    -0.231030098606E+04   -0.11300E-04   -0.33095E-05  2892   0.436E-03    0.752E-03
RMM:  16    -0.231030099147E+04   -0.54063E-05   -0.61263E-06  2783   0.246E-03
   6 F= -.23311554E+04 E0= -.23311554E+04  d E =-.452446E+00  mag=     3.0000
       N       E                     dE             d eps       ncg     rms          rms(c)
DAV:   1    -0.231017809157E+04    0.12289E+00   -0.88377E+00  4584   0.215E+00    0.109E+00
RMM:   2    -0.231039770108E+04   -0.21961E+00   -0.18594E+00  6498   0.630E-01    0.284E+00
RMM:   3    -0.231035760141E+04    0.40100E-01   -0.18664E-01  6141   0.219E-01    0.718E-01
RMM:   4    -0.231035782105E+04   -0.21965E-03   -0.28588E-02  5893   0.645E-02    0.456E-01
RMM:   5    -0.231035508052E+04    0.27405E-02   -0.43432E-03  5639   0.316E-02    0.287E-01
RMM:   6    -0.231035423280E+04    0.84772E-03   -0.19381E-03  5150   0.230E-02    0.147E-01
RMM:   7    -0.231035404573E+04    0.18707E-03   -0.50678E-04  4348   0.175E-02    0.393E-02
RMM:   8    -0.231035404380E+04    0.19291E-05   -0.90369E-05  3246   0.600E-03
   7 F= -.23312076E+04 E0= -.23312076E+04  d E =-.521622E-01  mag=     3.0000
       N       E                     dE             d eps       ncg     rms          rms(c)
DAV:   1    -0.231032917060E+04    0.24875E-01   -0.15168E+00  4640   0.887E-01    0.458E-01
RMM:   2    -0.231036782344E+04   -0.38653E-01   -0.33100E-01  6490   0.268E-01    0.113E+00
RMM:   3    -0.231036032175E+04    0.75017E-02   -0.26537E-02  5957   0.851E-02    0.327E-01
RMM:   4    -0.231036011926E+04    0.20248E-03   -0.50507E-03  5067   0.274E-02    0.189E-01
RMM:   5    -0.231035965419E+04    0.46508E-03   -0.72535E-04  4356   0.136E-02    0.117E-01
RMM:   6    -0.231035950181E+04    0.15238E-03   -0.38228E-04  4602   0.113E-02    0.598E-02
RMM:   7    -0.231035947052E+04    0.31289E-04   -0.95492E-05  3036   0.827E-03    0.175E-02
RMM:   8    -0.231035946685E+04    0.36719E-05   -0.22047E-05  2905   0.437E-03
   8 F= -.23312127E+04 E0= -.23312127E+04  d E =-.572222E-01  mag=     3.0000
       N       E                     dE             d eps       ncg     rms          rms(c)
DAV:   1    -0.231036778199E+04   -0.83115E-02   -0.13615E+00  4544   0.102E+00    0.387E-01
RMM:   2    -0.231039694153E+04   -0.29160E-01   -0.30287E-01  6403   0.277E-01    0.356E-01
RMM:   3    -0.231039827403E+04   -0.13325E-02   -0.25432E-02  5663   0.889E-02    0.356E-01
RMM:   4    -0.231039782091E+04    0.45312E-03   -0.29701E-03  4626   0.226E-02    0.241E-01
RMM:   5    -0.231039743676E+04    0.38416E-03   -0.58588E-04  3874   0.119E-02    0.110E-01
RMM:   6    -0.231039724760E+04    0.18916E-03   -0.52604E-04  4689   0.133E-02    0.518E-02
RMM:   7    -0.231039723010E+04    0.17501E-04   -0.80760E-05  3168   0.697E-03    0.198E-02
RMM:   8    -0.231039723232E+04   -0.22265E-05   -0.16832E-05  2877   0.423E-03
   9 F= -.23312510E+04 E0= -.23312510E+04  d E =-.383527E-01  mag=     3.0000
       N       E                     dE             d eps       ncg     rms          rms(c)
DAV:   1    -0.231025872854E+04    0.13850E+00   -0.79696E+00  4496   0.247E+00    0.926E-01
RMM:   2    -0.231042558680E+04   -0.16686E+00   -0.17460E+00  6274   0.675E-01    0.800E-01
RMM:   3    -0.231043779588E+04   -0.12209E-01   -0.17701E-01  5681   0.275E-01    0.859E-01
RMM:   4    -0.231043435685E+04    0.34390E-02   -0.17195E-02  5636   0.581E-02    0.490E-01
RMM:   5    -0.231043283337E+04    0.15235E-02   -0.36202E-03  5421   0.282E-02    0.264E-01
RMM:   6    -0.231043172229E+04    0.11111E-02   -0.23636E-03  5475   0.269E-02    0.112E-01
RMM:   7    -0.231043165029E+04    0.71993E-04   -0.48803E-04  4657   0.144E-02    0.386E-02
RMM:   8    -0.231043166679E+04   -0.16495E-04   -0.60345E-05  3137   0.632E-03    0.192E-02
RMM:   9    -0.231043167679E+04   -0.10001E-04   -0.22119E-05  2947   0.446E-03    0.116E-02
RMM:  10    -0.231043168075E+04   -0.39558E-05   -0.72667E-06  2855   0.293E-03
  10 F= -.23312869E+04 E0= -.23312869E+04  d E =-.742193E-01  mag=     3.0000
       N       E                     dE             d eps       ncg     rms          rms(c)
DAV:   1    -0.231041049094E+04    0.21186E-01   -0.16186E+00  4544   0.115E+00    0.450E-01
RMM:   2    -0.231044627420E+04   -0.35783E-01   -0.38335E-01  6399   0.309E-01    0.256E-01
RMM:   3    -0.231044907649E+04   -0.28023E-02   -0.34968E-02  5799   0.106E-01    0.389E-01
RMM:   4    -0.231044830713E+04    0.76937E-03   -0.35319E-03  4471   0.229E-02    0.140E-01
RMM:   5    -0.231044813439E+04    0.17274E-03   -0.56078E-04  4663   0.126E-02    0.106E-01
RMM:   6    -0.231044802418E+04    0.11020E-03   -0.40614E-04  4332   0.120E-02    0.545E-02
RMM:   7    -0.231044798932E+04    0.34867E-04   -0.83704E-05  3191   0.713E-03    0.299E-02
RMM:   8    -0.231044798290E+04    0.64132E-05   -0.19335E-05  2889   0.468E-03
  11 F= -.23313040E+04 E0= -.23313040E+04  d E =-.170889E-01  mag=     3.0000
       N       E                     dE             d eps       ncg     rms          rms(c)
DAV:   1    -0.231042262109E+04    0.25368E-01   -0.12351E+00  4544   0.997E-01    0.397E-01
RMM:   2    -0.231045013558E+04   -0.27514E-01   -0.29567E-01  6392   0.269E-01    0.220E-01
RMM:   3    -0.231045227074E+04   -0.21352E-02   -0.27523E-02  5741   0.908E-02    0.316E-01
RMM:   4    -0.231045181290E+04    0.45784E-03   -0.27070E-03  4087   0.196E-02    0.127E-01
RMM:   5    -0.231045166388E+04    0.14902E-03   -0.41901E-04  4367   0.111E-02    0.929E-02
RMM:   6    -0.231045158097E+04    0.82915E-04   -0.31090E-04  4106   0.107E-02    0.477E-02
RMM:   7    -0.231045155323E+04    0.27732E-04   -0.66927E-05  3075   0.658E-03    0.266E-02
RMM:   8    -0.231045154706E+04    0.61764E-05   -0.16263E-05  2873   0.437E-03
  12 F= -.23313082E+04 E0= -.23313082E+04  d E =-.213585E-01  mag=     3.0000
       N       E                     dE             d eps       ncg     rms          rms(c)
DAV:   1    -0.231043724417E+04    0.14309E-01   -0.15518E+00  4512   0.112E+00    0.425E-01
RMM:   2    -0.231046570942E+04   -0.28465E-01   -0.30073E-01  6350   0.309E-01    0.278E-01
RMM:   3    -0.231046781803E+04   -0.21086E-02   -0.29590E-02  5852   0.988E-02    0.322E-01
RMM:   4    -0.231046755475E+04    0.26327E-03   -0.31364E-03  5007   0.243E-02    0.248E-01
RMM:   5    -0.231046714387E+04    0.41088E-03   -0.62134E-04  4418   0.122E-02    0.982E-02
RMM:   6    -0.231046705398E+04    0.89890E-04   -0.46832E-04  4520   0.134E-02    0.552E-02
RMM:   7    -0.231046702046E+04    0.33516E-04   -0.62713E-05  3012   0.676E-03    0.188E-02
RMM:   8    -0.231046701751E+04    0.29494E-05   -0.14843E-05  2895   0.390E-03
  13 F= -.23313240E+04 E0= -.23313240E+04  d E =-.157456E-01  mag=     3.0000
       N       E                     dE             d eps       ncg     rms          rms(c)
DAV:   1    -0.231033327048E+04    0.13375E+00   -0.76689E+00  4464   0.249E+00    0.953E-01
RMM:   2    -0.231047394257E+04   -0.14067E+00   -0.14865E+00  6357   0.688E-01    0.615E-01
RMM:   3    -0.231048449713E+04   -0.10555E-01   -0.14897E-01  6037   0.221E-01    0.677E-01
RMM:   4    -0.231048385203E+04    0.64509E-03   -0.15388E-02  6012   0.533E-02    0.580E-01
RMM:   5    -0.231048161251E+04    0.22395E-02   -0.33110E-03  5348   0.263E-02    0.228E-01
RMM:   6    -0.231048113321E+04    0.47930E-03   -0.23527E-03  5580   0.279E-02    0.128E-01
RMM:   7    -0.231048093042E+04    0.20279E-03   -0.34028E-04  4271   0.126E-02    0.412E-02
RMM:   8    -0.231048091220E+04    0.18218E-04   -0.73568E-05  3050   0.673E-03    0.220E-02
RMM:   9    -0.231048090704E+04    0.51542E-05   -0.26878E-05  2956   0.463E-03
  14 F= -.23313385E+04 E0= -.23313385E+04  d E =-.302787E-01  mag=     3.0000
       N       E                     dE             d eps       ncg     rms          rms(c)
DAV:   1    -0.231047373275E+04    0.71794E-02   -0.10066E+00  4512   0.870E-01    0.336E-01
RMM:   2    -0.231049193692E+04   -0.18204E-01   -0.19037E-01  6339   0.237E-01    0.198E-01
RMM:   3    -0.231049309549E+04   -0.11586E-02   -0.16628E-02  5626   0.726E-02    0.272E-01
RMM:   4    -0.231049270143E+04    0.39405E-03   -0.16604E-03  3785   0.158E-02    0.104E-01
RMM:   5    -0.231049263040E+04    0.71039E-04   -0.36202E-04  4030   0.110E-02    0.101E-01
RMM:   6    -0.231049253073E+04    0.99663E-04   -0.36826E-04  4430   0.118E-02    0.451E-02
RMM:   7    -0.231049251377E+04    0.16960E-04   -0.38406E-05  2956   0.579E-03    0.284E-02
RMM:   8    -0.231049250756E+04    0.62080E-05   -0.10748E-05  2883   0.335E-03
  15 F= -.23313505E+04 E0= -.23313504E+04  d E =-.119759E-01  mag=     3.0000
       N       E                     dE             d eps       ncg     rms          rms(c)
DAV:   1    -0.231033959059E+04    0.15292E+00   -0.90515E+00  4464   0.261E+00    0.101E+00
RMM:   2    -0.231050477470E+04   -0.16518E+00   -0.17195E+00  6324   0.713E-01    0.660E-01
RMM:   3    -0.231051602114E+04   -0.11246E-01   -0.15875E-01  5826   0.228E-01    0.812E-01
RMM:   4    -0.231051199174E+04    0.40294E-02   -0.15823E-02  5947   0.506E-02    0.355E-01
RMM:   5    -0.231051154124E+04    0.45050E-03   -0.41089E-03  5575   0.326E-02    0.357E-01
RMM:   6    -0.231051025122E+04    0.12900E-02   -0.30579E-03  5805   0.311E-02    0.133E-01
RMM:   7    -0.231051007706E+04    0.17415E-03   -0.43707E-04  4562   0.137E-02    0.741E-02
RMM:   8    -0.231051002261E+04    0.54452E-04   -0.91963E-05  3295   0.740E-03    0.238E-02
RMM:   9    -0.231051001585E+04    0.67619E-05   -0.36622E-05  3027   0.517E-03
  16 F= -.23313691E+04 E0= -.23313679E+04  d E =-.305996E-01  mag=     3.0000
       N       E                     dE             d eps       ncg     rms          rms(c)
DAV:   1    -0.231049333270E+04    0.16690E-01   -0.15130E+00  4504   0.988E-01    0.444E-01
RMM:   2    -0.231052619682E+04   -0.32864E-01   -0.32982E-01  6472   0.283E-01    0.456E-01
RMM:   3    -0.231052770219E+04   -0.15054E-02   -0.30697E-02  5724   0.848E-02    0.419E-01
RMM:   4    -0.231052663982E+04    0.10624E-02   -0.32874E-03  4519   0.230E-02    0.190E-01
RMM:   5    -0.231052649392E+04    0.14590E-03   -0.10368E-03  4220   0.160E-02    0.174E-01
RMM:   6    -0.231052616853E+04    0.32539E-03   -0.53625E-04  4200   0.132E-02    0.446E-02
RMM:   7    -0.231052616261E+04    0.59146E-05   -0.82556E-05  3130   0.593E-03
  17 F= -.23313857E+04 E0= -.23313835E+04  d E =-.166181E-01  mag=     3.0000
       N       E                     dE             d eps       ncg     rms          rms(c)
DAV:   1    -0.231028320751E+04    0.24296E+00   -0.13686E+01  4464   0.296E+00    0.138E+00
RMM:   2    -0.231057810608E+04   -0.29490E+00   -0.29200E+00  6454   0.831E-01    0.206E+00
RMM:   3    -0.231058764068E+04   -0.95346E-02   -0.28456E-01  6039   0.260E-01    0.101E+00
RMM:   4    -0.231059677123E+04   -0.91305E-02   -0.31678E-02  5738   0.710E-02    0.205E+00
RMM:   5    -0.231058982128E+04    0.69500E-02   -0.13729E-02  5310   0.495E-02    0.163E+00
RMM:   6    -0.231058985286E+04   -0.31587E-04   -0.31591E-03  4556   0.264E-02    0.156E+00
RMM:   7    -0.231059397006E+04   -0.41172E-02   -0.25070E-03  4749   0.223E-02    0.174E+00
RMM:   8    -0.231058147325E+04    0.12497E-01   -0.21693E-02  4540   0.651E-02    0.691E-01
RMM:   9    -0.231057512883E+04    0.63444E-02   -0.28554E-02  4803   0.744E-02    0.593E-01
RMM:  10    -0.231056744177E+04    0.76871E-02   -0.22102E-02  4942   0.618E-02    0.935E-01
RMM:  11    -0.231057486298E+04   -0.74212E-02   -0.55317E-03  4491   0.344E-02    0.604E-01
RMM:  12    -0.231057644541E+04   -0.15824E-02   -0.68731E-03  4539   0.384E-02    0.312E-01
RMM:  13    -0.231057795686E+04   -0.15115E-02   -0.91935E-03  4690   0.423E-02    0.255E-01
RMM:  14    -0.231057769943E+04    0.25742E-03   -0.50822E-04  3487   0.145E-02    0.242E-01
RMM:  15    -0.231057773167E+04   -0.32241E-04   -0.13957E-03  4052   0.157E-02    0.104E-01
RMM:  16    -0.231057762026E+04    0.11141E-03   -0.24879E-04  3032   0.942E-03    0.931E-02
RMM:  17    -0.231057785416E+04   -0.23390E-03   -0.27246E-04  3235   0.761E-03    0.123E-01
RMM:  18    -0.231057818718E+04   -0.33302E-03   -0.60394E-04  3643   0.109E-02    0.148E-01
RMM:  19    -0.231057849511E+04   -0.30793E-03   -0.49765E-04  3378   0.101E-02    0.170E-01
RMM:  20    -0.231057832014E+04    0.17497E-03   -0.63642E-05  2869   0.526E-03    0.146E-01
RMM:  21    -0.231057821256E+04    0.10758E-03   -0.54919E-05  2720   0.364E-03    0.147E-01
RMM:  22    -0.231057805526E+04    0.15730E-03   -0.12847E-04  2993   0.507E-03    0.137E-01
RMM:  23    -0.231057736966E+04    0.68560E-03   -0.35003E-03  4438   0.247E-02    0.126E-01
RMM:  24    -0.231057712094E+04    0.24872E-03   -0.93614E-04  3573   0.148E-02    0.156E-01
RMM:  25    -0.231057701951E+04    0.10143E-03   -0.30084E-04  3204   0.728E-03    0.164E-01
RMM:  26    -0.231057708365E+04   -0.64140E-04   -0.25407E-05  2712   0.394E-03    0.164E-01
RMM:  27    -0.231057723043E+04   -0.14678E-03   -0.14118E-04  2910   0.532E-03    0.154E-01
RMM:  28    -0.231057743293E+04   -0.20250E-03   -0.35992E-04  3279   0.807E-03    0.146E-01
RMM:  29    -0.231057895979E+04   -0.15269E-02   -0.94050E-03  4619   0.400E-02    0.248E-01
RMM:  30    -0.231057821797E+04    0.74181E-03   -0.10334E-03  3848   0.180E-02    0.143E-01
RMM:  31    -0.231057771280E+04    0.50517E-03   -0.13226E-03  4030   0.155E-02    0.143E-01
RMM:  32    -0.231057745197E+04    0.26083E-03   -0.70155E-04  3499   0.125E-02    0.147E-01
RMM:  33    -0.231057701571E+04    0.43626E-03   -0.18485E-03  4278   0.180E-02    0.175E-01
RMM:  34    -0.231057644281E+04    0.57290E-03   -0.17687E-03  4130   0.186E-02    0.238E-01
RMM:  35    -0.231057647389E+04   -0.31074E-04   -0.17843E-04  2951   0.645E-03    0.240E-01
RMM:  36    -0.231057648249E+04   -0.85991E-05   -0.17849E-05  2686   0.240E-03
  18 F= -.23314374E+04 E0= -.23314289E+04  d E =-.683296E-01  mag=     3.0000
       N       E                     dE             d eps       ncg     rms          rms(c)
DAV:   1    -0.230947002136E+04    0.11065E+01   -0.54749E+01  4448   0.592E+00    0.328E+00
RMM:   2    -0.231073819029E+04   -0.12682E+01   -0.12434E+01  6488   0.169E+00    0.253E+00
RMM:   3    -0.231082324582E+04   -0.85056E-01   -0.12161E+00  5827   0.520E-01    0.242E+00
RMM:   4    -0.231080453943E+04    0.18706E-01   -0.13572E-01  6197   0.153E-01    0.202E+00
RMM:   5    -0.231077054967E+04    0.33990E-01   -0.56874E-02  5349   0.101E-01    0.746E-01
RMM:   6    -0.231077761532E+04   -0.70656E-02   -0.25410E-02  5338   0.859E-02    0.901E-01
RMM:   7    -0.231077061974E+04    0.69956E-02   -0.70034E-03  5406   0.437E-02    0.456E-01
RMM:   8    -0.231076953489E+04    0.10848E-02   -0.26808E-03  4772   0.243E-02    0.185E-01
RMM:   9    -0.231076966804E+04   -0.13315E-03   -0.14189E-03  4695   0.154E-02    0.110E-01
RMM:  10    -0.231076962006E+04    0.47980E-04   -0.25372E-04  3427   0.946E-03    0.695E-02
RMM:  11    -0.231076961319E+04    0.68689E-05   -0.70882E-05  2960   0.553E-03
  19 F= -.23316333E+04 E0= -.23316333E+04  d E =-.264177E+00  mag=     3.0000
       N       E                     dE             d eps       ncg     rms          rms(c)
DAV:   1    -0.230524123582E+04    0.55284E+01   -0.21903E+02  4432   0.120E+01    0.522E+00
RMM:   2    -0.231089925184E+04   -0.56580E+01   -0.58519E+01  6542   0.366E+00    0.446E+00
RMM:   3    -0.231099607801E+04   -0.96826E-01   -0.47690E+00  5959   0.114E+00    0.316E+00
RMM:   4    -0.231085358819E+04    0.14249E+00   -0.31794E-01  6234   0.244E-01    0.176E+00
RMM:   5    -0.231082804221E+04    0.25546E-01   -0.57407E-02  5474   0.102E-01    0.112E+00
RMM:   6    -0.231082886033E+04   -0.81812E-03   -0.79854E-02  5635   0.125E-01    0.142E+00
RMM:   7    -0.231081006975E+04    0.18791E-01   -0.27051E-02  5703   0.808E-02    0.367E-01
RMM:   8    -0.231081014479E+04   -0.75040E-04   -0.48761E-03  5343   0.412E-02    0.286E-01
RMM:   9    -0.231080966065E+04    0.48414E-03   -0.13984E-03  4743   0.213E-02    0.122E-01
RMM:  10    -0.231080987888E+04   -0.21824E-03   -0.57510E-04  4483   0.131E-02    0.415E-02
RMM:  11    -0.231081005968E+04   -0.18080E-03   -0.10497E-04  3383   0.745E-03    0.204E-02
RMM:  12    -0.231081018435E+04   -0.12466E-03   -0.31993E-05  3077   0.509E-03    0.121E-02
RMM:  13    -0.231081025226E+04   -0.67913E-04   -0.20294E-05  2942   0.458E-03    0.569E-03
RMM:  14    -0.231081027385E+04   -0.21593E-04   -0.94445E-06  2846   0.379E-03    0.436E-03
RMM:  15    -0.231081028713E+04   -0.13277E-04   -0.63242E-06  2817   0.288E-03    0.248E-03
RMM:  16    -0.231081029393E+04   -0.68056E-05   -0.41162E-06  2728   0.254E-03
  20 F= -.23316798E+04 E0= -.23316798E+04  d E =-.310716E+00  mag=     3.0006
       N       E                     dE             d eps       ncg     rms          rms(c)
DAV:   1    -0.230949136216E+04    0.13189E+01   -0.55535E+01  4448   0.618E+00    0.272E+00
RMM:   2    -0.231101035052E+04   -0.15190E+01   -0.14731E+01  6514   0.189E+00    0.391E+00
RMM:   3    -0.231088480651E+04    0.12554E+00   -0.13347E+00  5695   0.583E-01    0.143E+00
RMM:   4    -0.231086526277E+04    0.19544E-01   -0.12994E-01  5726   0.129E-01    0.761E-01
RMM:   5    -0.231086197999E+04    0.32828E-02   -0.20506E-02  5618   0.622E-02    0.763E-01
RMM:   6    -0.231085720286E+04    0.47771E-02   -0.19027E-02  5666   0.620E-02    0.618E-01
RMM:   7    -0.231085403087E+04    0.31720E-02   -0.66924E-03  5705   0.433E-02    0.178E-01
RMM:   8    -0.231085401719E+04    0.13683E-04   -0.91530E-04  4436   0.177E-02    0.773E-02
RMM:   9    -0.231085423460E+04   -0.21741E-03   -0.39302E-04  3777   0.126E-02    0.360E-02
RMM:  10    -0.231085431293E+04   -0.78334E-04   -0.87966E-05  3168   0.634E-03    0.174E-02
RMM:  11    -0.231085435280E+04   -0.39865E-04   -0.19092E-05  2915   0.436E-03    0.845E-03
RMM:  12    -0.231085438107E+04   -0.28269E-04   -0.12345E-05  2891   0.336E-03    0.359E-03
RMM:  13    -0.231085439139E+04   -0.10320E-04   -0.45246E-06  2816   0.286E-03    0.242E-03
RMM:  14    -0.231085439643E+04   -0.50410E-05   -0.30755E-06  2674   0.199E-03
  21 F= -.23317208E+04 E0= -.23317208E+04  d E =-.351712E+00  mag=     3.0000
       N       E                     dE             d eps       ncg     rms          rms(c)
DAV:   1    -0.231075777967E+04    0.96612E-01   -0.46790E+00  4448   0.173E+00    0.751E-01
RMM:   2    -0.231086339495E+04   -0.10562E+00   -0.10381E+00  6512   0.508E-01    0.920E-01
RMM:   3    -0.231086119516E+04    0.21998E-02   -0.93601E-02  6041   0.153E-01    0.412E-01
RMM:   4    -0.231085941239E+04    0.17828E-02   -0.91283E-03  5250   0.340E-02    0.223E-01
RMM:   5    -0.231085935075E+04    0.61639E-04   -0.19748E-03  5157   0.211E-02    0.255E-01
RMM:   6    -0.231085866731E+04    0.68344E-03   -0.14968E-03  4934   0.196E-02    0.864E-02
RMM:   7    -0.231085862429E+04    0.43018E-04   -0.21149E-04  3322   0.870E-03    0.335E-02
RMM:   8    -0.231085861576E+04    0.85275E-05   -0.42840E-05  2985   0.522E-03
  22 F= -.23317259E+04 E0= -.23317259E+04  d E =-.356783E+00  mag=     3.0000
       N       E                     dE             d eps       ncg     rms          rms(c)
DAV:   1    -0.231085912021E+04   -0.49592E-03   -0.15371E-01  4592   0.315E-01    0.142E-01
RMM:   2    -0.231086282355E+04   -0.37033E-02   -0.36346E-02  6398   0.970E-02    0.175E-01
RMM:   3    -0.231086273843E+04    0.85123E-04   -0.36082E-03  3911   0.297E-02    0.760E-02
RMM:   4    -0.231086268477E+04    0.53657E-04   -0.33784E-04  3136   0.736E-03    0.406E-02
RMM:   5    -0.231086268762E+04   -0.28429E-05   -0.68539E-05  2900   0.425E-03
  23 F= -.23317301E+04 E0= -.23317301E+04  d E =-.422535E-02  mag=     3.0000
       N       E                     dE             d eps       ncg     rms          rms(c)
DAV:   1    -0.231084133205E+04    0.21353E-01   -0.13725E+00  4480   0.944E-01    0.421E-01
RMM:   2    -0.231087401631E+04   -0.32684E-01   -0.32608E-01  6521   0.289E-01    0.471E-01
RMM:   3    -0.231087372083E+04    0.29548E-03   -0.29526E-02  5690   0.862E-02    0.228E-01
RMM:   4    -0.231087312060E+04    0.60023E-03   -0.25713E-03  4310   0.190E-02    0.112E-01
RMM:   5    -0.231087291633E+04    0.20427E-03   -0.57818E-04  4245   0.119E-02    0.453E-02
RMM:   6    -0.231087293872E+04   -0.22391E-04   -0.13553E-04  3186   0.784E-03    0.432E-02
RMM:   7    -0.231087292411E+04    0.14603E-04   -0.40516E-05  2884   0.466E-03    0.200E-02
RMM:   8    -0.231087292375E+04    0.36480E-06   -0.11202E-05  2803   0.276E-03
  24 F= -.23317408E+04 E0= -.23317408E+04  d E =-.149300E-01  mag=     3.0000
       N       E                     dE             d eps       ncg     rms          rms(c)
DAV:   1    -0.231075565978E+04    0.11726E+00   -0.55053E+00  4440   0.190E+00    0.834E-01
RMM:   2    -0.231088709412E+04   -0.13143E+00   -0.13260E+00  6526   0.577E-01    0.879E-01
RMM:   3    -0.231088699379E+04    0.10033E-03   -0.11580E-01  6075   0.170E-01    0.459E-01
RMM:   4    -0.231088435305E+04    0.26407E-02   -0.10143E-02  5370   0.378E-02    0.218E-01
RMM:   5    -0.231088357251E+04    0.78053E-03   -0.21424E-03  5098   0.217E-02    0.102E-01
RMM:   6    -0.231088367223E+04   -0.99718E-04   -0.69952E-04  3982   0.157E-02    0.113E-01
RMM:   7    -0.231088355418E+04    0.11805E-03   -0.20418E-04  3172   0.798E-03    0.391E-02
RMM:   8    -0.231088354875E+04    0.54363E-05   -0.45024E-05  2975   0.455E-03
  25 F= -.23317524E+04 E0= -.23317524E+04  d E =-.265311E-01  mag=     3.0000
       N       E                     dE             d eps       ncg     rms          rms(c)
DAV:   1    -0.231089767461E+04   -0.14120E-01   -0.37687E-02  4848   0.186E-01    0.789E-02
RMM:   2    -0.231089855287E+04   -0.87826E-03   -0.94207E-03  6349   0.575E-02    0.512E-02
RMM:   3    -0.231089860099E+04   -0.48123E-04   -0.79711E-04  3493   0.174E-02    0.468E-02
RMM:   4    -0.231089857159E+04    0.29405E-04   -0.82139E-05  3023   0.572E-03    0.193E-02
RMM:   5    -0.231089856950E+04    0.20888E-05   -0.16292E-05  2862   0.346E-03
  26 F= -.23317675E+04 E0= -.23317675E+04  d E =-.150630E-01  mag=     3.0000
       N       E                     dE             d eps       ncg     rms          rms(c)
DAV:   1    -0.231093361761E+04   -0.35046E-01   -0.33749E-01  4496   0.555E-01    0.234E-01
RMM:   2    -0.231094150294E+04   -0.78853E-02   -0.84814E-02  6359   0.172E-01    0.154E-01
RMM:   3    -0.231094186023E+04   -0.35728E-03   -0.65203E-03  5321   0.482E-02    0.149E-01
RMM:   4    -0.231094155808E+04    0.30215E-03   -0.73954E-04  4091   0.140E-02    0.584E-02
RMM:   5    -0.231094154425E+04    0.13831E-04   -0.13456E-04  3324   0.740E-03    0.649E-02
RMM:   6    -0.231094150031E+04    0.43936E-04   -0.11236E-04  3187   0.771E-03    0.226E-02
RMM:   7    -0.231094149428E+04    0.60312E-05   -0.21057E-05  2914   0.524E-03
  27 F= -.23318105E+04 E0= -.23318105E+04  d E =-.581190E-01  mag=     3.0000
       N       E                     dE             d eps       ncg     rms          rms(c)
DAV:   1    -0.231098649623E+04   -0.44996E-01   -0.13525E+00  4464   0.111E+00    0.469E-01
RMM:   2    -0.231101828048E+04   -0.31784E-01   -0.33997E-01  6333   0.342E-01    0.337E-01
RMM:   3    -0.231101957654E+04   -0.12961E-02   -0.26861E-02  5960   0.983E-02    0.326E-01
RMM:   4    -0.231101828164E+04    0.12949E-02   -0.30185E-03  5439   0.274E-02    0.125E-01
RMM:   5    -0.231101822316E+04    0.58478E-04   -0.54010E-04  4461   0.123E-02    0.129E-01
RMM:   6    -0.231101801329E+04    0.20987E-03   -0.46828E-04  4668   0.144E-02    0.330E-02
RMM:   7    -0.231101799907E+04    0.14216E-04   -0.80960E-05  3360   0.770E-03    0.139E-02
RMM:   8    -0.231101799304E+04    0.60358E-05   -0.13338E-05  2884   0.423E-03
  28 F= -.23318873E+04 E0= -.23318873E+04  d E =-.134900E+00  mag=     3.0000
       N       E                     dE             d eps       ncg     rms          rms(c)
DAV:   1    -0.231100744813E+04    0.10551E-01   -0.54112E+00  4464   0.223E+00    0.940E-01
RMM:   2    -0.231113655972E+04   -0.12911E+00   -0.13742E+00  6329   0.686E-01    0.722E-01
RMM:   3    -0.231113954172E+04   -0.29820E-02   -0.10402E-01  6083   0.190E-01    0.655E-01
RMM:   4    -0.231113460025E+04    0.49415E-02   -0.11899E-02  5794   0.533E-02    0.253E-01
RMM:   5    -0.231113437799E+04    0.22226E-03   -0.21315E-03  5336   0.243E-02    0.265E-01
RMM:   6    -0.231113349715E+04    0.88084E-03   -0.18830E-03  5368   0.280E-02    0.604E-02
RMM:   7    -0.231113345288E+04    0.44270E-04   -0.32400E-04  4572   0.130E-02    0.273E-02
RMM:   8    -0.231113343056E+04    0.22323E-04   -0.49608E-05  3088   0.602E-03    0.168E-02
RMM:   9    -0.231113342139E+04    0.91657E-05   -0.24001E-05  2962   0.444E-03
  29 F= -.23320034E+04 E0= -.23320034E+04  d E =-.250976E+00  mag=     3.0000
       N       E                     dE             d eps       ncg     rms          rms(c)
DAV:   1    -0.231071068858E+04    0.42274E+00   -0.21649E+01  4464   0.448E+00    0.190E+00
RMM:   2    -0.231123921479E+04   -0.52853E+00   -0.55575E+00  6352   0.138E+00    0.172E+00
RMM:   3    -0.231123914237E+04    0.72419E-04   -0.42178E-01  6076   0.388E-01    0.134E+00
RMM:   4    -0.231122068105E+04    0.18461E-01   -0.47062E-02  5624   0.103E-01    0.524E-01
RMM:   5    -0.231121986298E+04    0.81807E-03   -0.96915E-03  5663   0.525E-02    0.547E-01
RMM:   6    -0.231121615940E+04    0.37036E-02   -0.76207E-03  5435   0.542E-02    0.130E-01
RMM:   7    -0.231121597082E+04    0.18859E-03   -0.14925E-03  5167   0.273E-02    0.710E-02
RMM:   8    -0.231121586290E+04    0.10791E-03   -0.27329E-04  4243   0.120E-02    0.389E-02
RMM:   9    -0.231121580699E+04    0.55914E-04   -0.10387E-04  3782   0.776E-03    0.199E-02
RMM:  10    -0.231121578877E+04    0.18220E-04   -0.29873E-05  3116   0.569E-03    0.121E-02
RMM:  11    -0.231121578136E+04    0.74030E-05   -0.23325E-05  3080   0.517E-03
  30 F= -.23320874E+04 E0= -.23320874E+04  d E =-.334972E+00  mag=     3.0000
       N       E                     dE             d eps       ncg     rms          rms(c)
DAV:   1    -0.231125211994E+04   -0.36331E-01   -0.17525E+00  4640   0.122E+00    0.485E-01
RMM:   2    -0.231127380851E+04   -0.21689E-01   -0.23663E-01  6241   0.328E-01    0.311E-01
RMM:   3    -0.231127485785E+04   -0.10493E-02   -0.20017E-02  5925   0.977E-02    0.346E-01
RMM:   4    -0.231127333277E+04    0.15251E-02   -0.26182E-03  5682   0.294E-02    0.133E-01
RMM:   5    -0.231127334451E+04   -0.11746E-04   -0.81282E-04  4997   0.156E-02    0.169E-01
RMM:   6    -0.231127302205E+04    0.32246E-03   -0.56551E-04  4791   0.160E-02    0.354E-02
RMM:   7    -0.231127300494E+04    0.17112E-04   -0.95169E-05  3579   0.879E-03    0.216E-02
RMM:   8    -0.231127299440E+04    0.10542E-04   -0.19669E-05  2937   0.435E-03    0.118E-02
RMM:   9    -0.231127298760E+04    0.67948E-05   -0.11045E-05  2896   0.316E-03
  31 F= -.23321448E+04 E0= -.23321448E+04  d E =-.574179E-01  mag=     3.0000
       N       E                     dE             d eps       ncg     rms          rms(c)
DAV:   1    -0.231119996012E+04    0.73034E-01   -0.11095E+01  4472   0.308E+00    0.122E+00
RMM:   2    -0.231133816940E+04   -0.13821E+00   -0.15025E+00  6251   0.826E-01    0.822E-01
RMM:   3    -0.231134422686E+04   -0.60575E-02   -0.12534E-01  6018   0.239E-01    0.901E-01
RMM:   4    -0.231133399004E+04    0.10237E-01   -0.16578E-02  6011   0.740E-02    0.330E-01
RMM:   5    -0.231133431957E+04   -0.32952E-03   -0.55503E-03  5493   0.394E-02    0.463E-01
RMM:   6    -0.231133199306E+04    0.23265E-02   -0.36649E-03  5401   0.375E-02    0.831E-02
RMM:   7    -0.231133186742E+04    0.12564E-03   -0.63263E-04  5045   0.192E-02    0.501E-02
RMM:   8    -0.231133180475E+04    0.62669E-04   -0.11365E-04  3538   0.812E-03    0.303E-02
RMM:   9    -0.231133175544E+04    0.49317E-04   -0.74908E-05  3705   0.668E-03    0.145E-02
RMM:  10    -0.231133173957E+04    0.15867E-04   -0.30244E-05  3169   0.586E-03    0.119E-02
RMM:  11    -0.231133173517E+04    0.43997E-05   -0.21344E-05  2998   0.505E-03
  32 F= -.23322042E+04 E0= -.23322042E+04  d E =-.116786E+00  mag=     3.0000
       N       E                     dE             d eps       ncg     rms          rms(c)
DAV:   1    -0.231134340599E+04   -0.11666E-01   -0.73143E-01  4760   0.774E-01    0.309E-01
RMM:   2    -0.231135762594E+04   -0.14220E-01   -0.14690E-01  6332   0.207E-01    0.300E-01
RMM:   3    -0.231135809980E+04   -0.47386E-03   -0.13773E-02  5832   0.670E-02    0.216E-01
RMM:   4    -0.231135776547E+04    0.33434E-03   -0.14865E-03  4726   0.165E-02    0.107E-01
RMM:   5    -0.231135772273E+04    0.42736E-04   -0.30451E-04  3622   0.108E-02    0.906E-02
RMM:   6    -0.231135764568E+04    0.77049E-04   -0.24701E-04  4073   0.113E-02    0.520E-02
RMM:   7    -0.231135761534E+04    0.30342E-04   -0.77118E-05  3197   0.769E-03    0.236E-02
RMM:   8    -0.231135760815E+04    0.71847E-05   -0.15792E-05  2899   0.477E-03
  33 F= -.23322305E+04 E0= -.23322305E+04  d E =-.262724E-01  mag=     3.0000
       N       E                     dE             d eps       ncg     rms          rms(c)
DAV:   1    -0.231126067004E+04    0.96945E-01   -0.65732E+00  4464   0.233E+00    0.941E-01
RMM:   2    -0.231139288091E+04   -0.13221E+00   -0.13463E+00  6277   0.633E-01    0.104E+00
RMM:   3    -0.231139326518E+04   -0.38427E-03   -0.12833E-01  6061   0.199E-01    0.620E-01
RMM:   4    -0.231139047529E+04    0.27899E-02   -0.13084E-02  5281   0.492E-02    0.296E-01
RMM:   5    -0.231139027968E+04    0.19561E-03   -0.30042E-03  5442   0.323E-02    0.275E-01
RMM:   6    -0.231138945278E+04    0.82690E-03   -0.19655E-03  5345   0.284E-02    0.141E-01
RMM:   7    -0.231138928120E+04    0.17158E-03   -0.57301E-04  4941   0.184E-02    0.743E-02
RMM:   8    -0.231138920163E+04    0.79569E-04   -0.12586E-04  3484   0.805E-03    0.234E-02
RMM:   9    -0.231138919225E+04    0.93807E-05   -0.33347E-05  3027   0.523E-03
  34 F= -.23322633E+04 E0= -.23322633E+04  d E =-.590712E-01  mag=     3.0000
       N       E                     dE             d eps       ncg     rms          rms(c)
DAV:   1    -0.231135342841E+04    0.35773E-01   -0.21572E+00  4472   0.136E+00    0.578E-01
RMM:   2    -0.231141359458E+04   -0.60166E-01   -0.58676E-01  6382   0.388E-01    0.808E-01
RMM:   3    -0.231141096813E+04    0.26265E-02   -0.55663E-02  6001   0.127E-01    0.333E-01
RMM:   4    -0.231141031720E+04    0.65093E-03   -0.52498E-03  5113   0.267E-02    0.165E-01
RMM:   5    -0.231141023019E+04    0.87008E-04   -0.82348E-04  4534   0.163E-02    0.164E-01
RMM:   6    -0.231140986741E+04    0.36278E-03   -0.56239E-04  4771   0.145E-02    0.700E-02
RMM:   7    -0.231140983622E+04    0.31196E-04   -0.25382E-04  3884   0.105E-02    0.263E-02
RMM:   8    -0.231140982420E+04    0.12013E-04   -0.29597E-05  2911   0.539E-03    0.125E-02
RMM:   9    -0.231140982172E+04    0.24829E-05   -0.75864E-06  2881   0.314E-03
  35 F= -.23322845E+04 E0= -.23322845E+04  d E =-.212285E-01  mag=     3.0000
       N       E                     dE             d eps       ncg     rms          rms(c)
DAV:   1    -0.231132547297E+04    0.84351E-01   -0.35837E+00  4464   0.175E+00    0.746E-01
RMM:   2    -0.231142615257E+04   -0.10068E+00   -0.97700E-01  6335   0.490E-01    0.107E+00
RMM:   3    -0.231142085534E+04    0.52972E-02   -0.92572E-02  5982   0.167E-01    0.420E-01
RMM:   4    -0.231141979728E+04    0.10581E-02   -0.85672E-03  5288   0.341E-02    0.201E-01
RMM:   5    -0.231141963848E+04    0.15880E-03   -0.13066E-03  5080   0.207E-02    0.202E-01
RMM:   6    -0.231141912634E+04    0.51214E-03   -0.94431E-04  5000   0.182E-02    0.103E-01
RMM:   7    -0.231141904963E+04    0.76716E-04   -0.46360E-04  4377   0.126E-02    0.399E-02
RMM:   8    -0.231141901933E+04    0.30293E-04   -0.48775E-05  2940   0.626E-03    0.160E-02
RMM:   9    -0.231141901492E+04    0.44095E-05   -0.12078E-05  2913   0.350E-03
  36 F= -.23322944E+04 E0= -.23322944E+04  d E =-.311416E-01  mag=     3.0000
       N       E                     dE             d eps       ncg     rms          rms(c)
DAV:   1    -0.231136570247E+04    0.53317E-01   -0.29378E+00  4472   0.160E+00    0.649E-01
RMM:   2    -0.231143472675E+04   -0.69024E-01   -0.72135E-01  6208   0.418E-01    0.498E-01
RMM:   3    -0.231143965348E+04   -0.49267E-02   -0.70163E-02  5872   0.144E-01    0.478E-01
RMM:   4    -0.231143802486E+04    0.16286E-02   -0.70472E-03  5573   0.344E-02    0.176E-01
RMM:   5    -0.231143774862E+04    0.27624E-03   -0.86895E-04  4678   0.161E-02    0.112E-01
RMM:   6    -0.231143777749E+04   -0.28870E-04   -0.62300E-04  4869   0.154E-02    0.131E-01
RMM:   7    -0.231143758697E+04    0.19052E-03   -0.33491E-04  4396   0.129E-02    0.387E-02
RMM:   8    -0.231143756970E+04    0.17270E-04   -0.49643E-05  2993   0.607E-03    0.170E-02
RMM:   9    -0.231143756561E+04    0.40895E-05   -0.13240E-05  2896   0.383E-03
  37 F= -.23323136E+04 E0= -.23323136E+04  d E =-.191958E-01  mag=     3.0000
       N       E                     dE             d eps       ncg     rms          rms(c)
DAV:   1    -0.231132516550E+04    0.11240E+00   -0.49235E+00  4464   0.207E+00    0.842E-01
RMM:   2    -0.231144140612E+04   -0.11624E+00   -0.12115E+00  6215   0.544E-01    0.673E-01
RMM:   3    -0.231144913248E+04   -0.77264E-02   -0.11937E-01  5896   0.190E-01    0.613E-01
RMM:   4    -0.231144645956E+04    0.26729E-02   -0.11711E-02  5771   0.449E-02    0.226E-01
RMM:   5    -0.231144596472E+04    0.49483E-03   -0.13326E-03  5021   0.202E-02    0.137E-01
RMM:   6    -0.231144593353E+04    0.31195E-04   -0.10431E-03  5176   0.202E-02    0.142E-01
RMM:   7    -0.231144572189E+04    0.21164E-03   -0.42337E-04  4532   0.153E-02    0.545E-02
RMM:   8    -0.231144568567E+04    0.36222E-04   -0.72756E-05  3085   0.622E-03    0.210E-02
RMM:   9    -0.231144567831E+04    0.73594E-05   -0.19700E-05  2924   0.423E-03
  38 F= -.23323224E+04 E0= -.23323224E+04  d E =-.279997E-01  mag=     3.0000
       N       E                     dE             d eps       ncg     rms          rms(c)
DAV:   1    -0.231140696147E+04    0.38724E-01   -0.21824E+00  4512   0.132E+00    0.548E-01
RMM:   2    -0.231145742600E+04   -0.50465E-01   -0.53259E-01  6357   0.356E-01    0.299E-01
RMM:   3    -0.231146116751E+04   -0.37415E-02   -0.52451E-02  5739   0.118E-01    0.282E-01
RMM:   4    -0.231146097720E+04    0.19031E-03   -0.53888E-03  4949   0.261E-02    0.167E-01
RMM:   5    -0.231146072841E+04    0.24879E-03   -0.48541E-04  4069   0.119E-02    0.957E-02
RMM:   6    -0.231146070465E+04    0.23758E-04   -0.43438E-04  4379   0.132E-02    0.849E-02
RMM:   7    -0.231146064310E+04    0.61558E-04   -0.19387E-04  3643   0.979E-03    0.427E-02
RMM:   8    -0.231146062229E+04    0.20805E-04   -0.32480E-05  2913   0.530E-03    0.154E-02
RMM:   9    -0.231146062004E+04    0.22470E-05   -0.12056E-05  2888   0.320E-03
  39 F= -.23323379E+04 E0= -.23323379E+04  d E =-.154999E-01  mag=     3.0000
       N       E                     dE             d eps       ncg     rms          rms(c)
DAV:   1    -0.231113313243E+04    0.32749E+00   -0.13856E+01  4464   0.333E+00    0.139E+00
RMM:   2    -0.231146177070E+04   -0.32864E+00   -0.34340E+00  6358   0.917E-01    0.949E-01
RMM:   3    -0.231148130900E+04   -0.19538E-01   -0.33982E-01  5889   0.309E-01    0.875E-01
RMM:   4    -0.231147739418E+04    0.39148E-02   -0.34709E-02  6078   0.723E-02    0.410E-01
RMM:   5    -0.231147586873E+04    0.15254E-02   -0.32067E-03  5413   0.279E-02    0.232E-01
RMM:   6    -0.231147534155E+04    0.52718E-03   -0.28765E-03  5101   0.315E-02    0.114E-01
RMM:   7    -0.231147530338E+04    0.38167E-04   -0.61847E-04  4832   0.186E-02    0.955E-02
RMM:   8    -0.231147520002E+04    0.10337E-03   -0.18004E-04  3427   0.867E-03    0.358E-02
RMM:   9    -0.231147518257E+04    0.17444E-04   -0.59956E-05  3158   0.516E-03    0.260E-02
RMM:  10    -0.231147517457E+04    0.80058E-05   -0.20319E-05  2860   0.416E-03
  40 F= -.23323536E+04 E0= -.23323536E+04  d E =-.312373E-01  mag=     3.0000
       N       E                     dE             d eps       ncg     rms          rms(c)
DAV:   1    -0.231138858666E+04    0.86596E-01   -0.38784E+00  4464   0.171E+00    0.733E-01
RMM:   2    -0.231148507678E+04   -0.96490E-01   -0.10170E+00  6367   0.488E-01    0.404E-01
RMM:   3    -0.231149257977E+04   -0.75030E-02   -0.10045E-01  5944   0.163E-01    0.392E-01
RMM:   4    -0.231149194824E+04    0.63153E-03   -0.10680E-02  5679   0.398E-02    0.199E-01
RMM:   5    -0.231149157549E+04    0.37275E-03   -0.84042E-04  4527   0.150E-02    0.137E-01
RMM:   6    -0.231149164208E+04   -0.66591E-04   -0.77982E-04  4374   0.170E-02    0.165E-01
RMM:   7    -0.231149139276E+04    0.24932E-03   -0.44949E-04  4336   0.120E-02    0.430E-02
RMM:   8    -0.231149136722E+04    0.25541E-04   -0.53397E-05  2929   0.678E-03    0.194E-02
RMM:   9    -0.231149136322E+04    0.39991E-05   -0.20158E-05  2911   0.385E-03
  41 F= -.23323707E+04 E0= -.23323707E+04  d E =-.170507E-01  mag=     3.0000
       N       E                     dE             d eps       ncg     rms          rms(c)
DAV:   1    -0.231111297870E+04    0.37839E+00   -0.14550E+01  4464   0.331E+00    0.143E+00
RMM:   2    -0.231148259677E+04   -0.36962E+00   -0.38834E+00  6331   0.950E-01    0.869E-01
RMM:   3    -0.231150879783E+04   -0.26201E-01   -0.38303E-01  5967   0.321E-01    0.874E-01
RMM:   4    -0.231150480173E+04    0.39961E-02   -0.39996E-02  6118   0.771E-02    0.407E-01
RMM:   5    -0.231150340040E+04    0.14013E-02   -0.34624E-03  5366   0.282E-02    0.274E-01
RMM:   6    -0.231150351189E+04   -0.11149E-03   -0.28336E-03  5352   0.304E-02    0.296E-01
RMM:   7    -0.231150257737E+04    0.93452E-03   -0.17968E-03  5274   0.233E-02    0.810E-02
RMM:   8    -0.231150249156E+04    0.85812E-04   -0.20270E-04  3468   0.107E-02    0.386E-02
RMM:   9    -0.231150247419E+04    0.17363E-04   -0.79613E-05  3141   0.612E-03    0.254E-02
RMM:  10    -0.231150246779E+04    0.64029E-05   -0.30046E-05  2880   0.518E-03
  42 F= -.23323833E+04 E0= -.23323833E+04  d E =-.296602E-01  mag=     3.0000
       N       E                     dE             d eps       ncg     rms          rms(c)
DAV:   1    -0.231146773749E+04    0.34737E-01   -0.16417E+00  4592   0.105E+00    0.459E-01
RMM:   2    -0.231151078041E+04   -0.43043E-01   -0.45506E-01  6459   0.309E-01    0.243E-01
RMM:   3    -0.231151465522E+04   -0.38748E-02   -0.45996E-02  5643   0.105E-01    0.243E-01
RMM:   4    -0.231151441640E+04    0.23882E-03   -0.47172E-03  3977   0.251E-02    0.130E-01
RMM:   5    -0.231151428748E+04    0.12892E-03   -0.29974E-04  3336   0.909E-03    0.876E-02
RMM:   6    -0.231151428967E+04   -0.21936E-05   -0.24830E-04  3224   0.885E-03    0.926E-02
RMM:   7    -0.231151420908E+04    0.80591E-04   -0.14861E-04  3239   0.812E-03    0.196E-02
RMM:   8    -0.231151420700E+04    0.20847E-05   -0.17808E-05  2893   0.466E-03
  43 F= -.23323955E+04 E0= -.23323955E+04  d E =-.121949E-01  mag=     3.0000
       N       E                     dE             d eps       ncg     rms          rms(c)
DAV:   1    -0.231111796137E+04    0.39625E+00   -0.14734E+01  4464   0.317E+00    0.139E+00
RMM:   2    -0.231151404063E+04   -0.39608E+00   -0.41959E+00  6495   0.943E-01    0.728E-01
RMM:   3    -0.231154759664E+04   -0.33556E-01   -0.43010E-01  5924   0.327E-01    0.706E-01
RMM:   4    -0.231154590026E+04    0.16964E-02   -0.42386E-02  5951   0.759E-02    0.382E-01
RMM:   5    -0.231154435675E+04    0.15435E-02   -0.25468E-03  4925   0.235E-02    0.231E-01
RMM:   6    -0.231154458750E+04   -0.23075E-03   -0.28664E-03  5254   0.286E-02    0.295E-01
RMM:   7    -0.231154380225E+04    0.78525E-03   -0.10153E-03  4501   0.156E-02    0.679E-02
RMM:   8    -0.231154376815E+04    0.34102E-04   -0.13273E-04  3062   0.692E-03    0.336E-02
RMM:   9    -0.231154376445E+04    0.37034E-05   -0.79573E-05  3052   0.565E-03
  44 F= -.23324263E+04 E0= -.23324263E+04  d E =-.430166E-01  mag=     3.0000
       N       E                     dE             d eps       ncg     rms          rms(c)
DAV:   1    -0.230981050525E+04    0.17333E+01   -0.59033E+01  4464   0.637E+00    0.282E+00
RMM:   2    -0.231147399725E+04   -0.16635E+01   -0.17531E+01  6519   0.192E+00    0.181E+00
RMM:   3    -0.231160083660E+04   -0.12684E+00   -0.17686E+00  5935   0.694E-01    0.198E+00
RMM:   4    -0.231158013766E+04    0.20699E-01   -0.17256E-01  6295   0.155E-01    0.830E-01
RMM:   5    -0.231157564732E+04    0.44903E-02   -0.15617E-02  5531   0.491E-02    0.620E-01
RMM:   6    -0.231157405377E+04    0.15935E-02   -0.79751E-03  5689   0.432E-02    0.491E-01
RMM:   7    -0.231157128636E+04    0.27674E-02   -0.68105E-03  5184   0.409E-02    0.174E-01
RMM:   8    -0.231157115941E+04    0.12694E-03   -0.96988E-04  4709   0.197E-02    0.817E-02
RMM:   9    -0.231157115069E+04    0.87252E-05   -0.32392E-04  3349   0.112E-02    0.378E-02
RMM:  10    -0.231157116776E+04   -0.17069E-04   -0.85243E-05  3155   0.577E-03    0.214E-02
RMM:  11    -0.231157118125E+04   -0.13489E-04   -0.15013E-05  2880   0.361E-03    0.767E-03
RMM:  12    -0.231157119376E+04   -0.12515E-04   -0.55317E-06  2851   0.239E-03    0.564E-03
RMM:  13    -0.231157120153E+04   -0.77663E-05   -0.28608E-06  2713   0.205E-03
  45 F= -.23324559E+04 E0= -.23324559E+04  d E =-.726174E-01  mag=     3.0000
       N       E                     dE             d eps       ncg     rms          rms(c)
DAV:   1    -0.231146693495E+04    0.10426E+00   -0.47737E+00  4504   0.176E+00    0.754E-01
RMM:   2    -0.231158668306E+04   -0.11975E+00   -0.12700E+00  6519   0.521E-01    0.385E-01
RMM:   3    -0.231159698435E+04   -0.10301E-01   -0.12847E-01  5968   0.177E-01    0.331E-01
RMM:   4    -0.231159701269E+04   -0.28338E-04   -0.13113E-02  5306   0.396E-02    0.225E-01
RMM:   5    -0.231159654287E+04    0.46982E-03   -0.70045E-04  3643   0.131E-02    0.136E-01
RMM:   6    -0.231159666329E+04   -0.12043E-03   -0.76087E-04  4146   0.146E-02    0.191E-01
RMM:   7    -0.231159633428E+04    0.32901E-03   -0.51704E-04  4088   0.131E-02    0.423E-02
RMM:   8    -0.231159631962E+04    0.14662E-04   -0.57763E-05  2983   0.604E-03    0.194E-02
RMM:   9    -0.231159631995E+04   -0.33082E-06   -0.20737E-05  2966   0.356E-03
  46 F= -.23324812E+04 E0= -.23324812E+04  d E =-.252961E-01  mag=     3.0000
       N       E                     dE             d eps       ncg     rms          rms(c)
DAV:   1    -0.231043785034E+04    0.11585E+01   -0.42846E+01  4464   0.529E+00    0.230E+00
RMM:   2    -0.231156537719E+04   -0.11275E+01   -0.11963E+01  6546   0.161E+00    0.124E+00
RMM:   3    -0.231165489803E+04   -0.89521E-01   -0.11995E+00  6023   0.545E-01    0.119E+00
RMM:   4    -0.231165201299E+04    0.28850E-02   -0.11731E-01  6383   0.121E-01    0.703E-01
RMM:   5    -0.231164827182E+04    0.37412E-02   -0.85676E-03  5476   0.383E-02    0.536E-01
RMM:   6    -0.231164727619E+04    0.99563E-03   -0.49667E-03  5204   0.348E-02    0.430E-01
RMM:   7    -0.231164528141E+04    0.19948E-02   -0.55462E-03  4955   0.378E-02    0.142E-01
RMM:   8    -0.231164515007E+04    0.13133E-03   -0.59633E-04  4574   0.181E-02    0.659E-02
RMM:   9    -0.231164516377E+04   -0.13697E-04   -0.23121E-04  3768   0.815E-03    0.424E-02
RMM:  10    -0.231164516399E+04   -0.22196E-06   -0.69659E-05  2940   0.641E-03
  47 F= -.23325306E+04 E0= -.23325306E+04  d E =-.746602E-01  mag=     3.0000
       N       E                     dE             d eps       ncg     rms          rms(c)
DAV:   1    -0.230642585963E+04    0.52193E+01   -0.17220E+02  4456   0.107E+01    0.471E+00
RMM:   2    -0.231140744880E+04   -0.49816E+01   -0.52248E+01  6555   0.320E+00    0.357E+00
RMM:   3    -0.231171860272E+04   -0.31115E+00   -0.54902E+00  5829   0.135E+00    0.387E+00
RMM:   4    -0.231163167335E+04    0.86929E-01   -0.42037E-01  6374   0.243E-01    0.156E+00
RMM:   5    -0.231162022570E+04    0.11448E-01   -0.57347E-02  5903   0.911E-02    0.135E+00
RMM:   6    -0.231160771875E+04    0.12507E-01   -0.18099E-02  5828   0.639E-02    0.807E-01
RMM:   7    -0.231159988010E+04    0.78387E-02   -0.26192E-02  5057   0.805E-02    0.412E-01
RMM:   8    -0.231159911513E+04    0.76497E-03   -0.37813E-03  5250   0.402E-02    0.210E-01
RMM:   9    -0.231159933357E+04   -0.21845E-03   -0.10051E-03  4683   0.183E-02    0.118E-01
RMM:  10    -0.231159945331E+04   -0.11974E-03   -0.49402E-04  3728   0.155E-02    0.434E-02
RMM:  11    -0.231159959777E+04   -0.14446E-03   -0.91785E-05  3425   0.578E-03    0.207E-02
RMM:  12    -0.231159968097E+04   -0.83201E-04   -0.15507E-05  2888   0.424E-03    0.172E-02
RMM:  13    -0.231159975169E+04   -0.70723E-04   -0.18160E-05  2924   0.376E-03    0.806E-03
RMM:  14    -0.231159977698E+04   -0.25291E-04   -0.63492E-06  2827   0.342E-03    0.579E-03
RMM:  15    -0.231159979703E+04   -0.20046E-04   -0.54923E-06  2794   0.233E-03    0.345E-03
RMM:  16    -0.231159981118E+04   -0.14151E-04   -0.42038E-06  2729   0.250E-03    0.211E-03
RMM:  17    -0.231159981447E+04   -0.32914E-05   -0.23116E-06  2536   0.191E-03
  48 F= -.23324866E+04 E0= -.23324866E+04  d E =-.306986E-01  mag=     3.0000
       N       E                     dE             d eps       ncg     rms          rms(c)
DAV:   1    -0.230900790407E+04    0.25919E+01   -0.93837E+01  4464   0.774E+00    0.336E+00
RMM:   2    -0.231148560476E+04   -0.24777E+01   -0.25828E+01  6555   0.229E+00    0.272E+00
RMM:   3    -0.231169787745E+04   -0.21227E+00   -0.29000E+00  5817   0.102E+00    0.262E+00
RMM:   4    -0.231166449329E+04    0.33384E-01   -0.26426E-01  6233   0.197E-01    0.109E+00
RMM:   5    -0.231165821696E+04    0.62763E-02   -0.21773E-02  5800   0.646E-02    0.695E-01
RMM:   6    -0.231165666445E+04    0.15525E-02   -0.12591E-02  5976   0.581E-02    0.575E-01
RMM:   7    -0.231165362958E+04    0.30349E-02   -0.89530E-03  5511   0.492E-02    0.306E-01
RMM:   8    -0.231165307007E+04    0.55951E-03   -0.15355E-03  5009   0.251E-02    0.105E-01
RMM:   9    -0.231165303841E+04    0.31657E-04   -0.38847E-04  3664   0.125E-02    0.605E-02
RMM:  10    -0.231165306786E+04   -0.29455E-04   -0.16883E-04  3433   0.756E-03    0.473E-02
RMM:  11    -0.231165308202E+04   -0.14160E-04   -0.52453E-05  2920   0.577E-03    0.121E-02
RMM:  12    -0.231165311568E+04   -0.33653E-04   -0.13984E-05  2883   0.352E-03    0.966E-03
RMM:  13    -0.231165314199E+04   -0.26317E-04   -0.72804E-06  2841   0.305E-03    0.502E-03
RMM:  14    -0.231165315659E+04   -0.14595E-04   -0.44878E-06  2819   0.254E-03    0.469E-03
RMM:  15    -0.231165316460E+04   -0.80108E-05   -0.29995E-06  2656   0.210E-03
  49 F= -.23325389E+04 E0= -.23325389E+04  d E =-.829610E-01  mag=     3.0000
       N       E                     dE             d eps       ncg     rms          rms(c)
DAV:   1    -0.231152852405E+04    0.12463E+00   -0.59524E+00  4472   0.205E+00    0.841E-01
RMM:   2    -0.231167855016E+04   -0.15003E+00   -0.15963E+00  6413   0.624E-01    0.518E-01
RMM:   3    -0.231169177973E+04   -0.13230E-01   -0.16119E-01  6045   0.224E-01    0.586E-01
RMM:   4    -0.231169020461E+04    0.15751E-02   -0.15894E-02  5710   0.451E-02    0.293E-01
RMM:   5    -0.231168955303E+04    0.65158E-03   -0.13940E-03  4819   0.177E-02    0.166E-01
RMM:   6    -0.231168950697E+04    0.46060E-04   -0.10638E-03  4974   0.196E-02    0.154E-01
RMM:   7    -0.231168918600E+04    0.32097E-03   -0.62594E-04  4800   0.149E-02    0.512E-02
RMM:   8    -0.231168915139E+04    0.34608E-04   -0.73877E-05  2993   0.722E-03    0.218E-02
RMM:   9    -0.231168914615E+04    0.52419E-05   -0.30035E-05  2962   0.437E-03
  50 F= -.23325749E+04 E0= -.23325749E+04  d E =-.360215E-01  mag=     3.0000
       N       E                     dE             d eps       ncg     rms          rms(c)
DAV:   1    -0.231051414757E+04    0.11750E+01   -0.43702E+01  4464   0.556E+00    0.233E+00
RMM:   2    -0.231166287016E+04   -0.11487E+01   -0.12157E+01  6485   0.175E+00    0.175E+00
RMM:   3    -0.231175692382E+04   -0.94054E-01   -0.13118E+00  6076   0.636E-01    0.179E+00
RMM:   4    -0.231173716362E+04    0.19760E-01   -0.12140E-01  6005   0.129E-01    0.775E-01
RMM:   5    -0.231173277636E+04    0.43873E-02   -0.12745E-02  5995   0.509E-02    0.477E-01
RMM:   6    -0.231173194683E+04    0.82953E-03   -0.68977E-03  5713   0.464E-02    0.408E-01
RMM:   7    -0.231172967152E+04    0.22753E-02   -0.51858E-03  5482   0.401E-02    0.138E-01
RMM:   8    -0.231172943008E+04    0.24144E-03   -0.56283E-04  4686   0.177E-02    0.581E-02
RMM:   9    -0.231172939300E+04    0.37079E-04   -0.24726E-04  3984   0.936E-03    0.305E-02
RMM:  10    -0.231172939812E+04   -0.51170E-05   -0.57306E-05  2950   0.698E-03
  51 F= -.23326154E+04 E0= -.23326154E+04  d E =-.765027E-01  mag=     3.0000
       N       E                     dE             d eps       ncg     rms          rms(c)
DAV:   1    -0.231146444840E+04    0.26494E+00   -0.10278E+01  4464   0.262E+00    0.112E+00
RMM:   2    -0.231174743625E+04   -0.28299E+00   -0.30242E+00  6488   0.828E-01    0.687E-01
RMM:   3    -0.231177355710E+04   -0.26121E-01   -0.33798E-01  6036   0.321E-01    0.663E-01
RMM:   4    -0.231177227070E+04    0.12864E-02   -0.29683E-02  5693   0.576E-02    0.384E-01
RMM:   5    -0.231177108452E+04    0.11862E-02   -0.25144E-03  4868   0.222E-02    0.225E-01
RMM:   6    -0.231177094145E+04    0.14308E-03   -0.15312E-03  5240   0.216E-02    0.202E-01
RMM:   7    -0.231177039112E+04    0.55033E-03   -0.11482E-03  5118   0.183E-02    0.794E-02
RMM:   8    -0.231177032587E+04    0.65241E-04   -0.15134E-04  3194   0.867E-03    0.335E-02
RMM:   9    -0.231177031091E+04    0.14969E-04   -0.55376E-05  2926   0.637E-03    0.175E-02
RMM:  10    -0.231177030671E+04    0.41912E-05   -0.23040E-05  2969   0.357E-03
  52 F= -.23326567E+04 E0= -.23326567E+04  d E =-.413353E-01  mag=     3.0000
       N       E                     dE             d eps       ncg     rms          rms(c)
DAV:   1    -0.231074769346E+04    0.10226E+01   -0.34514E+01  4448   0.477E+00    0.209E+00
RMM:   2    -0.231173047905E+04   -0.98279E+00   -0.10474E+01  6537   0.156E+00    0.148E+00
RMM:   3    -0.231181797839E+04   -0.87499E-01   -0.12331E+00  6074   0.611E-01    0.137E+00
RMM:   4    -0.231180827644E+04    0.97020E-02   -0.10315E-01  5994   0.112E-01    0.659E-01
RMM:   5    -0.231180474127E+04    0.35352E-02   -0.91682E-03  5724   0.408E-02    0.423E-01
RMM:   6    -0.231180406607E+04    0.67520E-03   -0.49648E-03  5748   0.366E-02    0.366E-01
RMM:   7    -0.231180220310E+04    0.18630E-02   -0.41590E-03  5565   0.333E-02    0.152E-01
RMM:   8    -0.231180196394E+04    0.23916E-03   -0.64208E-04  4653   0.159E-02    0.761E-02
RMM:   9    -0.231180188236E+04    0.81580E-04   -0.15997E-04  3080   0.886E-03    0.354E-02
RMM:  10    -0.231180185308E+04    0.29287E-04   -0.92962E-05  3292   0.572E-03    0.181E-02
RMM:  11    -0.231180184507E+04    0.80048E-05   -0.17276E-05  2892   0.484E-03
  53 F= -.23326891E+04 E0= -.23326891E+04  d E =-.737259E-01  mag=     3.0000
       N       E                     dE             d eps       ncg     rms          rms(c)
DAV:   1    -0.231167766232E+04    0.12419E+00   -0.57498E+00  4592   0.206E+00    0.834E-01
RMM:   2    -0.231182050007E+04   -0.14284E+00   -0.15187E+00  6420   0.584E-01    0.550E-01
RMM:   3    -0.231183528666E+04   -0.14787E-01   -0.18167E-01  5857   0.236E-01    0.582E-01
RMM:   4    -0.231183365942E+04    0.16272E-02   -0.15701E-02  5913   0.480E-02    0.291E-01
RMM:   5    -0.231183311379E+04    0.54563E-03   -0.18206E-03  5147   0.193E-02    0.214E-01
RMM:   6    -0.231183271298E+04    0.40082E-03   -0.97802E-04  4630   0.181E-02    0.135E-01
RMM:   7    -0.231183248821E+04    0.22477E-03   -0.67405E-04  4950   0.154E-02    0.452E-02
RMM:   8    -0.231183246314E+04    0.25066E-04   -0.64372E-05  2952   0.837E-03    0.207E-02
RMM:   9    -0.231183245862E+04    0.45202E-05   -0.28152E-05  2962   0.405E-03
  54 F= -.23327192E+04 E0= -.23327192E+04  d E =-.300837E-01  mag=     3.0000
       N       E                     dE             d eps       ncg     rms          rms(c)
DAV:   1    -0.231167562010E+04    0.15684E+00   -0.63919E+00  4472   0.216E+00    0.868E-01
RMM:   2    -0.231183035396E+04   -0.15473E+00   -0.16435E+00  6388   0.609E-01    0.560E-01
RMM:   3    -0.231184636792E+04   -0.16014E-01   -0.19535E-01  5874   0.245E-01    0.595E-01
RMM:   4    -0.231184466281E+04    0.17051E-02   -0.16878E-02  6005   0.499E-02    0.298E-01
RMM:   5    -0.231184408373E+04    0.57908E-03   -0.19246E-03  5180   0.199E-02    0.219E-01
RMM:   6    -0.231184368416E+04    0.39957E-03   -0.10647E-03  4692   0.187E-02    0.141E-01
RMM:   7    -0.231184343777E+04    0.24639E-03   -0.69376E-04  4969   0.157E-02    0.454E-02
RMM:   8    -0.231184341152E+04    0.26253E-04   -0.66913E-05  2953   0.866E-03    0.214E-02
RMM:   9    -0.231184340659E+04    0.49278E-05   -0.31916E-05  2971   0.421E-03
  55 F= -.23327296E+04 E0= -.23327296E+04  d E =-.404868E-01  mag=     3.0000
       N       E                     dE             d eps       ncg     rms          rms(c)
DAV:   1    -0.231170919503E+04    0.13422E+00   -0.66584E+00  4472   0.221E+00    0.824E-01
RMM:   2    -0.231185721977E+04   -0.14802E+00   -0.15782E+00  6322   0.565E-01    0.554E-01
RMM:   3    -0.231187282298E+04   -0.15603E-01   -0.19222E-01  5691   0.264E-01    0.523E-01
RMM:   4    -0.231187181842E+04    0.10046E-02   -0.15316E-02  5758   0.459E-02    0.269E-01
RMM:   5    -0.231187136029E+04    0.45814E-03   -0.15153E-03  4254   0.177E-02    0.190E-01
RMM:   6    -0.231187103849E+04    0.32180E-03   -0.76358E-04  4823   0.149E-02    0.126E-01
RMM:   7    -0.231187097011E+04    0.68374E-04   -0.54902E-04  4641   0.141E-02    0.854E-02
RMM:   8    -0.231187087921E+04    0.90904E-04   -0.16264E-04  3204   0.883E-03    0.370E-02
RMM:   9    -0.231187085938E+04    0.19824E-04   -0.35619E-05  2893   0.555E-03    0.195E-02
RMM:  10    -0.231187085564E+04    0.37452E-05   -0.16926E-05  2872   0.299E-03
  56 F= -.23327557E+04 E0= -.23327557E+04  d E =-.261538E-01  mag=     3.0000
       N       E                     dE             d eps       ncg     rms          rms(c)
DAV:   1    -0.231164466784E+04    0.22619E+00   -0.99596E+00  4464   0.271E+00    0.100E+00
RMM:   2    -0.231186301030E+04   -0.21834E+00   -0.23274E+00  6346   0.694E-01    0.664E-01
RMM:   3    -0.231188645324E+04   -0.23443E-01   -0.29021E-01  5747   0.323E-01    0.623E-01
RMM:   4    -0.231188514615E+04    0.13071E-02   -0.22999E-02  5960   0.558E-02    0.328E-01
RMM:   5    -0.231188445841E+04    0.68773E-03   -0.22634E-03  4621   0.211E-02    0.231E-01
RMM:   6    -0.231188395722E+04    0.50120E-03   -0.11035E-03  5059   0.174E-02    0.146E-01
RMM:   7    -0.231188387056E+04    0.86659E-04   -0.74999E-04  4912   0.164E-02    0.101E-01
RMM:   8    -0.231188374980E+04    0.12076E-03   -0.22988E-04  3351   0.103E-02    0.462E-02
RMM:   9    -0.231188371767E+04    0.32134E-04   -0.52587E-05  2918   0.626E-03    0.240E-02
RMM:  10    -0.231188371182E+04    0.58500E-05   -0.24609E-05  2888   0.356E-03
  57 F= -.23327671E+04 E0= -.23327671E+04  d E =-.374748E-01  mag=     3.0000
       N       E                     dE             d eps       ncg     rms          rms(c)
DAV:   1    -0.231181534584E+04    0.68372E-01   -0.39248E+00  4528   0.170E+00    0.604E-01
RMM:   2    -0.231189957898E+04   -0.84233E-01   -0.90106E-01  6336   0.417E-01    0.396E-01
RMM:   3    -0.231190842606E+04   -0.88471E-02   -0.10386E-01  5737   0.182E-01    0.396E-01
RMM:   4    -0.231190788395E+04    0.54211E-03   -0.87519E-03  5302   0.326E-02    0.190E-01
RMM:   5    -0.231190759719E+04    0.28675E-03   -0.71261E-04  3766   0.137E-02    0.132E-01
RMM:   6    -0.231190743731E+04    0.15989E-03   -0.47630E-04  4744   0.121E-02    0.845E-02
RMM:   7    -0.231190737621E+04    0.61094E-04   -0.26172E-04  3715   0.114E-02    0.440E-02
RMM:   8    -0.231190735991E+04    0.16299E-04   -0.54876E-05  2997   0.568E-03    0.277E-02
RMM:   9    -0.231190734905E+04    0.10862E-04   -0.18744E-05  2875   0.395E-03    0.148E-02
RMM:  10    -0.231190734650E+04    0.25517E-05   -0.94790E-06  2846   0.247E-03
  58 F= -.23327895E+04 E0= -.23327895E+04  d E =-.223978E-01  mag=     3.0000
       N       E                     dE             d eps       ncg     rms          rms(c)
DAV:   1    -0.231109513631E+04    0.81221E+00   -0.35140E+01  4464   0.512E+00    0.186E+00
RMM:   2    -0.231189248619E+04   -0.79735E+00   -0.84718E+00  6447   0.131E+00    0.143E+00
RMM:   3    -0.231197008213E+04   -0.77596E-01   -0.10107E+00  5878   0.545E-01    0.141E+00
RMM:   4    -0.231195920684E+04    0.10875E-01   -0.80461E-02  6212   0.104E-01    0.562E-01
RMM:   5    -0.231195680499E+04    0.24018E-02   -0.73932E-03  5358   0.377E-02    0.414E-01
RMM:   6    -0.231195557205E+04    0.12329E-02   -0.43351E-03  5353   0.335E-02    0.288E-01
RMM:   7    -0.231195481078E+04    0.76127E-03   -0.29363E-03  5721   0.298E-02    0.182E-01
RMM:   8    -0.231195456177E+04    0.24900E-03   -0.78122E-04  4567   0.163E-02    0.971E-02
RMM:   9    -0.231195441326E+04    0.14851E-03   -0.17907E-04  3037   0.907E-03    0.483E-02
RMM:  10    -0.231195438634E+04    0.26919E-04   -0.12200E-04  3016   0.647E-03    0.165E-02
RMM:  11    -0.231195438719E+04   -0.85031E-06   -0.25595E-05  2917   0.400E-03
  59 F= -.23328328E+04 E0= -.23328328E+04  d E =-.657818E-01  mag=     3.0000
       N       E                     dE             d eps       ncg     rms          rms(c)
DAV:   1    -0.230824682138E+04    0.37076E+01   -0.14019E+02  4456   0.103E+01    0.396E+00
RMM:   2    -0.231186401411E+04   -0.36172E+01   -0.37580E+01  6484   0.276E+00    0.400E+00
RMM:   3    -0.231199654440E+04   -0.13253E+00   -0.40087E+00  5875   0.117E+00    0.281E+00
RMM:   4    -0.231195217550E+04    0.44369E-01   -0.30111E-01  6113   0.214E-01    0.119E+00
RMM:   5    -0.231194523449E+04    0.69410E-02   -0.36491E-02  5972   0.924E-02    0.101E+00
RMM:   6    -0.231193353641E+04    0.11698E-01   -0.18269E-02  5350   0.718E-02    0.546E-01
RMM:   7    -0.231193117791E+04    0.23585E-02   -0.13983E-02  5505   0.621E-02    0.337E-01
RMM:   8    -0.231192996450E+04    0.12134E-02   -0.19504E-03  5219   0.341E-02    0.122E-01
RMM:   9    -0.231192983364E+04    0.13087E-03   -0.56693E-04  4323   0.118E-02    0.814E-02
RMM:  10    -0.231192978293E+04    0.50702E-04   -0.26042E-04  3222   0.116E-02    0.320E-02
RMM:  11    -0.231192978262E+04    0.31074E-06   -0.30517E-05  2891   0.491E-03
  60 F= -.23328010E+04 E0= -.23328010E+04  d E =-.339045E-01  mag=     3.0000
       N       E                     dE             d eps       ncg     rms          rms(c)
DAV:   1    -0.231018108011E+04    0.17487E+01   -0.70259E+01  4464   0.729E+00    0.280E+00
RMM:   2    -0.231190236482E+04   -0.17213E+01   -0.18173E+01  6466   0.198E+00    0.206E+00
RMM:   3    -0.231197737428E+04   -0.75009E-01   -0.19763E+00  6019   0.779E-01    0.124E+00
RMM:   4    -0.231197799705E+04   -0.62277E-03   -0.16872E-01  6249   0.143E-01    0.991E-01
RMM:   5    -0.231197052457E+04    0.74725E-02   -0.14827E-02  5912   0.535E-02    0.657E-01
RMM:   6    -0.231196845989E+04    0.20647E-02   -0.10487E-02  5522   0.490E-02    0.539E-01
RMM:   7    -0.231196498697E+04    0.34729E-02   -0.82530E-03  5272   0.478E-02    0.195E-01
RMM:   8    -0.231196457688E+04    0.41009E-03   -0.14958E-03  5051   0.252E-02    0.102E-01
RMM:   9    -0.231196441096E+04    0.16591E-03   -0.31978E-04  3439   0.113E-02    0.468E-02
RMM:  10    -0.231196439215E+04    0.18812E-04   -0.20038E-04  3415   0.732E-03    0.294E-02
RMM:  11    -0.231196438339E+04    0.87656E-05   -0.30211E-05  2894   0.536E-03
  61 F= -.23328407E+04 E0= -.23328407E+04  d E =-.736640E-01  mag=     3.0000
       N       E                     dE             d eps       ncg     rms          rms(c)
DAV:   1    -0.231172330386E+04    0.24109E+00   -0.11514E+01  4464   0.294E+00    0.108E+00
RMM:   2    -0.231197799350E+04   -0.25469E+00   -0.27195E+00  6326   0.740E-01    0.639E-01
RMM:   3    -0.231200110531E+04   -0.23112E-01   -0.30319E-01  5788   0.300E-01    0.522E-01
RMM:   4    -0.231199987485E+04    0.12305E-02   -0.24631E-02  5794   0.591E-02    0.296E-01
RMM:   5    -0.231199897789E+04    0.89695E-03   -0.22839E-03  5246   0.248E-02    0.208E-01
RMM:   6    -0.231199863270E+04    0.34520E-03   -0.15485E-03  5081   0.200E-02    0.145E-01
RMM:   7    -0.231199844673E+04    0.18597E-03   -0.64870E-04  4324   0.165E-02    0.914E-02
RMM:   8    -0.231199837816E+04    0.68563E-04   -0.18544E-04  3343   0.797E-03    0.609E-02
RMM:   9    -0.231199832803E+04    0.50137E-04   -0.68133E-05  2925   0.653E-03    0.234E-02
RMM:  10    -0.231199832068E+04    0.73525E-05   -0.36447E-05  2898   0.397E-03
  62 F= -.23328726E+04 E0= -.23328726E+04  d E =-.318885E-01  mag=     3.0000
       N       E                     dE             d eps       ncg     rms          rms(c)
DAV:   1    -0.231174480396E+04    0.25352E+00   -0.11202E+01  4464   0.289E+00    0.106E+00
RMM:   2    -0.231199186765E+04   -0.24706E+00   -0.26331E+00  6355   0.728E-01    0.640E-01
RMM:   3    -0.231201381495E+04   -0.21947E-01   -0.28963E-01  5857   0.287E-01    0.512E-01
RMM:   4    -0.231201250793E+04    0.13070E-02   -0.23784E-02  5793   0.581E-02    0.291E-01
RMM:   5    -0.231201165129E+04    0.85665E-03   -0.22425E-03  5351   0.246E-02    0.207E-01
RMM:   6    -0.231201129266E+04    0.35862E-03   -0.17180E-03  5364   0.216E-02    0.137E-01
RMM:   7    -0.231201117182E+04    0.12084E-03   -0.64353E-04  4819   0.151E-02    0.118E-01
RMM:   8    -0.231201103936E+04    0.13246E-03   -0.15342E-04  3109   0.703E-03    0.433E-02
RMM:   9    -0.231201100365E+04    0.35710E-04   -0.59490E-05  2905   0.619E-03    0.207E-02
RMM:  10    -0.231201099732E+04    0.63289E-05   -0.37726E-05  2911   0.399E-03
  63 F= -.23328832E+04 E0= -.23328832E+04  d E =-.425229E-01  mag=     3.0000
       N       E                     dE             d eps       ncg     rms          rms(c)
DAV:   1    -0.231195449355E+04    0.56510E-01   -0.33531E+00  4512   0.162E+00    0.615E-01
RMM:   2    -0.231202760253E+04   -0.73109E-01   -0.77052E-01  6261   0.408E-01    0.385E-01
RMM:   3    -0.231203335362E+04   -0.57511E-02   -0.82469E-02  5936   0.161E-01    0.282E-01
RMM:   4    -0.231203289144E+04    0.46218E-03   -0.72600E-03  5636   0.334E-02    0.202E-01
RMM:   5    -0.231203263517E+04    0.25627E-03   -0.75315E-04  4414   0.148E-02    0.165E-01
RMM:   6    -0.231203234555E+04    0.28962E-03   -0.82174E-04  4811   0.170E-02    0.815E-02
RMM:   7    -0.231203227064E+04    0.74906E-04   -0.25517E-04  4461   0.111E-02    0.236E-02
RMM:   8    -0.231203225727E+04    0.13377E-04   -0.28653E-05  2900   0.586E-03    0.160E-02
RMM:   9    -0.231203225196E+04    0.53091E-05   -0.23784E-05  2867   0.435E-03
  64 F= -.23329031E+04 E0= -.23329031E+04  d E =-.198866E-01  mag=     3.0000
       N       E                     dE             d eps       ncg     rms          rms(c)
DAV:   1    -0.231192175865E+04    0.11050E+00   -0.52615E+00  4464   0.203E+00    0.772E-01
RMM:   2    -0.231203715747E+04   -0.11540E+00   -0.12165E+00  6244   0.512E-01    0.487E-01
RMM:   3    -0.231204608316E+04   -0.89257E-02   -0.13008E-01  5951   0.202E-01    0.355E-01
RMM:   4    -0.231204528997E+04    0.79319E-03   -0.11431E-02  5863   0.422E-02    0.249E-01
RMM:   5    -0.231204490393E+04    0.38605E-03   -0.11786E-03  4832   0.181E-02    0.209E-01
RMM:   6    -0.231204444454E+04    0.45938E-03   -0.12464E-03  5106   0.204E-02    0.106E-01
RMM:   7    -0.231204431230E+04    0.13225E-03   -0.41674E-04  4769   0.134E-02    0.314E-02
RMM:   8    -0.231204428614E+04    0.26162E-04   -0.45281E-05  2976   0.698E-03    0.201E-02
RMM:   9    -0.231204427625E+04    0.98875E-05   -0.39313E-05  2892   0.525E-03
  65 F= -.23329135E+04 E0= -.23329135E+04  d E =-.302079E-01  mag=     3.0000
       N       E                     dE             d eps       ncg     rms          rms(c)
DAV:   1    -0.231196940374E+04    0.74882E-01   -0.45960E+00  4472   0.185E+00    0.704E-01
RMM:   2    -0.231206506608E+04   -0.95662E-01   -0.10049E+00  6414   0.461E-01    0.445E-01
RMM:   3    -0.231207165396E+04   -0.65879E-02   -0.10478E-01  6042   0.168E-01    0.280E-01
RMM:   4    -0.231207144330E+04    0.21066E-03   -0.96761E-03  5627   0.355E-02    0.242E-01
RMM:   5    -0.231207102192E+04    0.42137E-03   -0.89400E-04  4135   0.160E-02    0.178E-01
RMM:   6    -0.231207073050E+04    0.29142E-03   -0.11143E-03  4825   0.189E-02    0.108E-01
RMM:   7    -0.231207061233E+04    0.11817E-03   -0.42671E-04  4515   0.130E-02    0.316E-02
RMM:   8    -0.231207059164E+04    0.20689E-04   -0.40618E-05  2943   0.582E-03    0.192E-02
RMM:   9    -0.231207058470E+04    0.69415E-05   -0.24715E-05  2890   0.401E-03
  66 F= -.23329381E+04 E0= -.23329381E+04  d E =-.246336E-01  mag=     3.0000
       N       E                     dE             d eps       ncg     rms          rms(c)
DAV:   1    -0.231182633484E+04    0.24426E+00   -0.11977E+01  4464   0.299E+00    0.114E+00
RMM:   2    -0.231207615385E+04   -0.24982E+00   -0.26229E+00  6407   0.755E-01    0.716E-01
RMM:   3    -0.231209355042E+04   -0.17397E-01   -0.28055E-01  6076   0.275E-01    0.448E-01
RMM:   4    -0.231209308228E+04    0.46815E-03   -0.25314E-02  6016   0.578E-02    0.384E-01
RMM:   5    -0.231209201528E+04    0.10670E-02   -0.23428E-03  4921   0.249E-02    0.285E-01
RMM:   6    -0.231209132558E+04    0.68970E-03   -0.27219E-03  5344   0.282E-02    0.188E-01
RMM:   7    -0.231209095713E+04    0.36846E-03   -0.11931E-03  5186   0.205E-02    0.534E-02
RMM:   8    -0.231209089793E+04    0.59201E-04   -0.10832E-04  3191   0.857E-03    0.309E-02
RMM:   9    -0.231209087885E+04    0.19073E-04   -0.76672E-05  3001   0.617E-03    0.118E-02
RMM:  10    -0.231209087694E+04    0.19161E-05   -0.18564E-05  2881   0.431E-03
  67 F= -.23329558E+04 E0= -.23329558E+04  d E =-.423031E-01  mag=     3.0000
       N       E                     dE             d eps       ncg     rms          rms(c)
DAV:   1    -0.231205185105E+04    0.39028E-01   -0.27711E+00  4488   0.140E+00    0.542E-01
RMM:   2    -0.231210866481E+04   -0.56814E-01   -0.58624E-01  6452   0.362E-01    0.469E-01
RMM:   3    -0.231211119141E+04   -0.25266E-02   -0.57293E-02  6039   0.124E-01    0.336E-01
RMM:   4    -0.231211036034E+04    0.83107E-03   -0.59493E-03  5182   0.275E-02    0.197E-01
RMM:   5    -0.231211009216E+04    0.26818E-03   -0.68686E-04  3838   0.129E-02    0.141E-01
RMM:   6    -0.231210982738E+04    0.26478E-03   -0.78248E-04  4353   0.176E-02    0.525E-02
RMM:   7    -0.231210982233E+04    0.50529E-05   -0.18269E-04  3652   0.938E-03    0.209E-02
RMM:   8    -0.231210981580E+04    0.65317E-05   -0.19147E-05  2922   0.467E-03
  68 F= -.23329737E+04 E0= -.23329737E+04  d E =-.179764E-01  mag=     3.0000
       N       E                     dE             d eps       ncg     rms          rms(c)
DAV:   1    -0.231181598727E+04    0.29384E+00   -0.14909E+01  4464   0.326E+00    0.126E+00
RMM:   2    -0.231212441023E+04   -0.30842E+00   -0.31869E+00  6448   0.852E-01    0.108E+00
RMM:   3    -0.231213979487E+04   -0.15385E-01   -0.32938E-01  6182   0.294E-01    0.782E-01
RMM:   4    -0.231213534775E+04    0.44471E-02   -0.32407E-02  5975   0.633E-02    0.471E-01
RMM:   5    -0.231213374945E+04    0.15983E-02   -0.37849E-03  5361   0.280E-02    0.325E-01
RMM:   6    -0.231213236813E+04    0.13813E-02   -0.40356E-03  4913   0.380E-02    0.128E-01
RMM:   7    -0.231213231268E+04    0.55452E-04   -0.10840E-03  5105   0.200E-02    0.477E-02
RMM:   8    -0.231213226724E+04    0.45436E-04   -0.10186E-04  3202   0.775E-03    0.361E-02
RMM:   9    -0.231213224874E+04    0.18505E-04   -0.86691E-05  2913   0.639E-03    0.158E-02
RMM:  10    -0.231213224608E+04    0.26537E-05   -0.18386E-05  2906   0.376E-03
[...]
RMM:   3    -0.231226688773E+04   -0.69854E-04   -0.30067E-03  4849   0.379E-02    0.985E-02
RMM:   4    -0.231226679167E+04    0.96056E-04   -0.33362E-04  3258   0.101E-02    0.579E-02
RMM:   5    -0.231226676795E+04    0.23724E-04   -0.94896E-05  3025   0.708E-03    0.390E-02
RMM:   6    -0.231226675716E+04    0.10786E-04   -0.64790E-05  3024   0.687E-03    0.271E-02
RMM:   7    -0.231226674768E+04    0.94805E-05   -0.21251E-05  2896   0.507E-03
 118 F= -.23331067E+04 E0= -.23331067E+04  d E =-.524674E-03  mag=     3.0000
       N       E                     dE             d eps       ncg     rms          rms(c)
DAV:   1    -0.231226621764E+04    0.53952E-03   -0.45729E-02  4496   0.217E-01    0.648E-02
RMM:   2    -0.231226676993E+04   -0.55229E-03   -0.58376E-03  6305   0.502E-02    0.449E-02
RMM:   3    -0.231226678720E+04   -0.17273E-04   -0.46910E-04  3297   0.155E-02    0.411E-02
RMM:   4    -0.231226677185E+04    0.15358E-04   -0.54108E-05  2947   0.517E-03    0.227E-02
RMM:   5    -0.231226676787E+04    0.39772E-05   -0.15515E-05  2900   0.308E-03
 119 F= -.23331067E+04 E0= -.23331067E+04  d E =-.541660E-03  mag=     3.0000
       N       E                     dE             d eps       ncg     rms          rms(c)
DAV:   1    -0.231226405603E+04    0.27158E-02   -0.27854E-01  4472   0.550E-01    0.168E-01
RMM:   2    -0.231226729887E+04   -0.32428E-02   -0.34383E-02  6099   0.124E-01    0.107E-01
RMM:   3    -0.231226740021E+04   -0.10134E-03   -0.28072E-03  4927   0.393E-02    0.991E-02
RMM:   4    -0.231226728942E+04    0.11080E-03   -0.31384E-04  3499   0.104E-02    0.552E-02
RMM:   5    -0.231226727542E+04    0.13992E-04   -0.10847E-04  3031   0.760E-03    0.446E-02
RMM:   6    -0.231226725538E+04    0.20043E-04   -0.67470E-05  3116   0.716E-03    0.232E-02
RMM:   7    -0.231226724941E+04    0.59677E-05   -0.18244E-05  2885   0.522E-03
 120 F= -.23331072E+04 E0= -.23331072E+04  d E =-.533261E-03  mag=     3.0000
       N       E                     dE             d eps       ncg     rms          rms(c)
DAV:   1    -0.231226721205E+04    0.43329E-04   -0.21986E-03  5192   0.491E-02    0.158E-02
RMM:   2    -0.231226723781E+04   -0.25759E-04   -0.27934E-04  4463   0.119E-02    0.911E-03
RMM:   3    -0.231226724000E+04   -0.21923E-05   -0.28609E-05  2836   0.539E-03
 121 F= -.23331072E+04 E0= -.23331072E+04  d E =-.528491E-03  mag=     3.0000
       N       E                     dE             d eps       ncg     rms          rms(c)
DAV:   1    -0.231226550648E+04    0.17313E-02   -0.21764E-01  4480   0.470E-01    0.140E-01
RMM:   2    -0.231226786801E+04   -0.23615E-02   -0.24937E-02  6104   0.101E-01    0.100E-01
RMM:   3    -0.231226797141E+04   -0.10340E-03   -0.23078E-03  4545   0.337E-02    0.976E-02
RMM:   4    -0.231226787805E+04    0.93367E-04   -0.24465E-04  3087   0.914E-03    0.460E-02
RMM:   5    -0.231226786092E+04    0.17123E-04   -0.74041E-05  3044   0.663E-03    0.335E-02
RMM:   6    -0.231226785078E+04    0.10146E-04   -0.59580E-05  3055   0.695E-03    0.221E-02
RMM:   7    -0.231226784443E+04    0.63478E-05   -0.17053E-05  2913   0.481E-03
 122 F= -.23331077E+04 E0= -.23331077E+04  d E =-.512084E-03  mag=     3.0000
       N       E                     dE             d eps       ncg     rms          rms(c)
DAV:   1    -0.231226756917E+04    0.28161E-03   -0.30042E-02  4576   0.175E-01    0.528E-02
RMM:   2    -0.231226789815E+04   -0.32898E-03   -0.34892E-03  6211   0.385E-02    0.378E-02
RMM:   3    -0.231226791449E+04   -0.16342E-04   -0.32991E-04  3136   0.132E-02    0.384E-02
RMM:   4    -0.231226790029E+04    0.14204E-04   -0.34938E-05  2900   0.442E-03    0.167E-02
RMM:   5    -0.231226789790E+04    0.23855E-05   -0.11091E-05  2882   0.268E-03
 123 F= -.23331078E+04 E0= -.23331078E+04  d E =-.531238E-03  mag=     3.0000
       N       E                     dE             d eps       ncg     rms          rms(c)
DAV:   1    -0.231226570049E+04    0.21998E-02   -0.24461E-01  4480   0.503E-01    0.153E-01
RMM:   2    -0.231226845223E+04   -0.27517E-02   -0.29426E-02  6066   0.108E-01    0.948E-02
RMM:   3    -0.231226862052E+04   -0.16829E-03   -0.28653E-03  4772   0.369E-02    0.102E-01
RMM:   4    -0.231226852062E+04    0.99897E-04   -0.28830E-04  3127   0.958E-03    0.481E-02
RMM:   5    -0.231226849949E+04    0.21129E-04   -0.90246E-05  3110   0.699E-03    0.340E-02
RMM:   6    -0.231226848949E+04    0.10002E-04   -0.61917E-05  3031   0.710E-03    0.232E-02
RMM:   7    -0.231226848245E+04    0.70362E-05   -0.18402E-05  2915   0.496E-03
 124 F= -.23331082E+04 E0= -.23331082E+04  d E =-.456095E-03  mag=     3.0000
       N       E                     dE             d eps       ncg     rms          rms(c)
DAV:   1    -0.231226841749E+04    0.72001E-04   -0.63464E-03  5024   0.812E-02    0.256E-02
RMM:   2    -0.231226848971E+04   -0.72218E-04   -0.78741E-04  5616   0.186E-02    0.146E-02
RMM:   3    -0.231226849560E+04   -0.58976E-05   -0.83015E-05  2891   0.712E-03
 125 F= -.23331082E+04 E0= -.23331082E+04  d E =-.448424E-03  mag=     3.0000
       N       E                     dE             d eps       ncg     rms          rms(c)
DAV:   1    -0.231226593459E+04    0.25551E-02   -0.23074E-01  4480   0.484E-01    0.147E-01
RMM:   2    -0.231226888393E+04   -0.29493E-02   -0.31281E-02  6171   0.110E-01    0.935E-02
RMM:   3    -0.231226900659E+04   -0.12266E-03   -0.27846E-03  4652   0.347E-02    0.866E-02
RMM:   4    -0.231226895191E+04    0.54680E-04   -0.30012E-04  3107   0.917E-03    0.535E-02
RMM:   5    -0.231226892397E+04    0.27936E-04   -0.73642E-05  3002   0.645E-03    0.315E-02
RMM:   6    -0.231226892064E+04    0.33366E-05   -0.64838E-05  3027   0.702E-03
 126 F= -.23331086E+04 E0= -.23331086E+04  d E =-.391299E-03  mag=     3.0000
       N       E                     dE             d eps       ncg     rms          rms(c)
DAV:   1    -0.231226872109E+04    0.20289E-03   -0.14072E-02  4688   0.120E-01    0.383E-02
RMM:   2    -0.231226890410E+04   -0.18301E-03   -0.19956E-03  6091   0.289E-02    0.216E-02
RMM:   3    -0.231226891234E+04   -0.82444E-05   -0.17671E-04  2971   0.918E-03    0.167E-02
RMM:   4    -0.231226891220E+04    0.14422E-06   -0.19296E-05  2914   0.307E-03
 127 F= -.23331086E+04 E0= -.23331086E+04  d E =-.374372E-03  mag=     3.0000
       N       E                     dE             d eps       ncg     rms          rms(c)
DAV:   1    -0.231226624030E+04    0.26720E-02   -0.25107E-01  4480   0.511E-01    0.165E-01
RMM:   2    -0.231226933445E+04   -0.30941E-02   -0.32693E-02  6132   0.119E-01    0.113E-01
RMM:   3    -0.231226940370E+04   -0.69249E-04   -0.27263E-03  4864   0.369E-02    0.107E-01
RMM:   4    -0.231226929907E+04    0.10464E-03   -0.32715E-04  3233   0.102E-02    0.574E-02
RMM:   5    -0.231226926955E+04    0.29513E-04   -0.93197E-05  3060   0.711E-03    0.354E-02
RMM:   6    -0.231226926483E+04    0.47276E-05   -0.72002E-05  3082   0.741E-03
 128 F= -.23331090E+04 E0= -.23331090E+04  d E =-.398394E-03  mag=     3.0000
       N       E                     dE             d eps       ncg     rms          rms(c)
DAV:   1    -0.231226920513E+04    0.64425E-04   -0.26532E-03  5288   0.536E-02    0.191E-02
RMM:   2    -0.231226923892E+04   -0.33792E-04   -0.38429E-04  4861   0.135E-02    0.107E-02
RMM:   3    -0.231226924026E+04   -0.13357E-05   -0.35566E-05  2881   0.559E-03
 129 F= -.23331090E+04 E0= -.23331090E+04  d E =-.378629E-03  mag=     3.0000
       N       E                     dE             d eps       ncg     rms          rms(c)
DAV:   1    -0.231226682011E+04    0.24188E-02   -0.21408E-01  4464   0.464E-01    0.149E-01
RMM:   2    -0.231226964699E+04   -0.28269E-02   -0.29866E-02  6198   0.112E-01    0.105E-01
RMM:   3    -0.231226966361E+04   -0.16615E-04   -0.23184E-03  4538   0.330E-02    0.875E-02
RMM:   4    -0.231226960229E+04    0.61313E-04   -0.28845E-04  3191   0.938E-03    0.561E-02
RMM:   5    -0.231226957631E+04    0.25981E-04   -0.77038E-05  3003   0.648E-03    0.348E-02
RMM:   6    -0.231226957256E+04    0.37499E-05   -0.59017E-05  2974   0.654E-03
 130 F= -.23331094E+04 E0= -.23331094E+04  d E =-.393933E-03  mag=     3.0000
       N       E                     dE             d eps       ncg     rms          rms(c)
DAV:   1    -0.231226936952E+04    0.20679E-03   -0.12729E-02  4656   0.114E-01    0.378E-02
RMM:   2    -0.231226953970E+04   -0.17017E-03   -0.18460E-03  6067   0.287E-02    0.234E-02
RMM:   3    -0.231226954183E+04   -0.21325E-05   -0.14200E-04  2967   0.877E-03    0.161E-02
RMM:   4    -0.231226954066E+04    0.11724E-05   -0.17144E-05  2918   0.324E-03
 131 F= -.23331093E+04 E0= -.23331093E+04  d E =-.377249E-03  mag=     3.0000
       N       E                     dE             d eps       ncg     rms          rms(c)
DAV:   1    -0.231226749122E+04    0.20506E-02   -0.20192E-01  4456   0.460E-01    0.146E-01
RMM:   2    -0.231226990678E+04   -0.24156E-02   -0.25866E-02  6140   0.108E-01    0.854E-02
RMM:   3    -0.231226996862E+04   -0.61835E-04   -0.20287E-03  4584   0.328E-02    0.780E-02
RMM:   4    -0.231226992041E+04    0.48205E-04   -0.24362E-04  3166   0.914E-03    0.542E-02
RMM:   5    -0.231226989791E+04    0.22501E-04   -0.74830E-05  2994   0.652E-03    0.353E-02
RMM:   6    -0.231226989103E+04    0.68816E-05   -0.56219E-05  2957   0.660E-03
 132 F= -.23331097E+04 E0= -.23331097E+04  d E =-.358111E-03  mag=     3.0000
       N       E                     dE             d eps       ncg     rms          rms(c)
DAV:   1    -0.231226984218E+04    0.55727E-04   -0.24727E-03  5216   0.519E-02    0.183E-02
RMM:   2    -0.231226987315E+04   -0.30965E-04   -0.35174E-04  4715   0.134E-02    0.103E-02
RMM:   3    -0.231226987437E+04   -0.12281E-05   -0.31430E-05  2873   0.557E-03
 133 F= -.23331097E+04 E0= -.23331097E+04  d E =-.342338E-03  mag=     3.0000
       N       E                     dE             d eps       ncg     rms          rms(c)
DAV:   1    -0.231226837615E+04    0.14970E-02   -0.18531E-01  4472   0.431E-01    0.133E-01
RMM:   2    -0.231227026371E+04   -0.18876E-02   -0.20487E-02  6115   0.983E-02    0.735E-02
RMM:   3    -0.231227030703E+04   -0.43324E-04   -0.15878E-03  4408   0.296E-02    0.522E-02
RMM:   4    -0.231227029492E+04    0.12116E-04   -0.20006E-04  3201   0.872E-03    0.424E-02
RMM:   5    -0.231227027664E+04    0.18273E-04   -0.59543E-05  2945   0.680E-03    0.272E-02
RMM:   6    -0.231227027629E+04    0.35379E-06   -0.38285E-05  2904   0.565E-03
 134 F= -.23331100E+04 E0= -.23331100E+04  d E =-.348846E-03  mag=     3.0000
       N       E                     dE             d eps       ncg     rms          rms(c)
DAV:   1    -0.231227024064E+04    0.36006E-04   -0.27050E-03  5080   0.528E-02    0.181E-02
RMM:   2    -0.231227026928E+04   -0.28640E-04   -0.32344E-04  4586   0.131E-02    0.106E-02
RMM:   3    -0.231227027071E+04   -0.14292E-05   -0.28994E-05  2863   0.548E-03
 135 F= -.23331100E+04 E0= -.23331100E+04  d E =-.336753E-03  mag=     3.0000
       N       E                     dE             d eps       ncg     rms          rms(c)
DAV:   1    -0.231226875982E+04    0.15095E-02   -0.18434E-01  4472   0.431E-01    0.141E-01
RMM:   2    -0.231227057219E+04   -0.18124E-02   -0.19796E-02  6064   0.986E-02    0.783E-02
RMM:   3    -0.231227062135E+04   -0.49165E-04   -0.15554E-03  4488   0.307E-02    0.713E-02
RMM:   4    -0.231227059326E+04    0.28087E-04   -0.21080E-04  3170   0.871E-03    0.519E-02
RMM:   5    -0.231227057529E+04    0.17978E-04   -0.63536E-05  3014   0.634E-03    0.373E-02
RMM:   6    -0.231227056550E+04    0.97913E-05   -0.48023E-05  2926   0.645E-03
 136 F= -.23331103E+04 E0= -.23331103E+04  d E =-.321027E-03  mag=     3.0000
       N       E                     dE             d eps       ncg     rms          rms(c)
DAV:   1    -0.231227056066E+04    0.14627E-04   -0.53777E-04  5240   0.240E-02    0.844E-03
RMM:   2    -0.231227056455E+04   -0.38919E-05   -0.49810E-05  3157   0.580E-03
 137 F= -.23331103E+04 E0= -.23331103E+04  d E =-.318781E-03  mag=     3.0000
       N       E                     dE             d eps       ncg     rms          rms(c)
DAV:   1    -0.231226932343E+04    0.12372E-02   -0.11786E-01  4480   0.338E-01    0.112E-01
RMM:   2    -0.231227075637E+04   -0.14329E-02   -0.15476E-02  6272   0.835E-02    0.673E-02
RMM:   3    -0.231227079217E+04   -0.35792E-04   -0.11670E-03  4033   0.256E-02    0.611E-02
RMM:   4    -0.231227076773E+04    0.24440E-04   -0.14903E-04  3029   0.758E-03    0.393E-02
RMM:   5    -0.231227075922E+04    0.85059E-05   -0.44161E-05  2960   0.521E-03
 138 F= -.23331106E+04 E0= -.23331106E+04  d E =-.256409E-03  mag=     3.0000
       N       E                     dE             d eps       ncg     rms          rms(c)
DAV:   1    -0.231227074321E+04    0.24516E-04   -0.27577E-04  5504   0.189E-02    0.184E-02
RMM:   2    -0.231227076147E+04   -0.18261E-04   -0.80057E-05  3285   0.574E-03    0.355E-02
RMM:   3    -0.231227074250E+04    0.18976E-04   -0.18562E-05  2688   0.398E-03    0.928E-03
RMM:   4    -0.231227074169E+04    0.80607E-06   -0.28074E-06  2021   0.123E-03
 139 F= -.23331106E+04 E0= -.23331106E+04  d E =-.241901E-03  mag=     3.0000
       N       E                     dE             d eps       ncg     rms          rms(c)
DAV:   1    -0.231226970027E+04    0.10422E-02   -0.11283E-01  4456   0.332E-01    0.120E-01
RMM:   2    -0.231227101794E+04   -0.13177E-02   -0.14160E-02  6121   0.810E-02    0.697E-02
RMM:   3    -0.231227102745E+04   -0.95065E-05   -0.10507E-03  4046   0.246E-02    0.557E-02
RMM:   4    -0.231227099613E+04    0.31322E-04   -0.14025E-04  3099   0.782E-03    0.378E-02
RMM:   5    -0.231227098642E+04    0.97103E-05   -0.42843E-05  2928   0.536E-03
 140 F= -.23331108E+04 E0= -.23331108E+04  d E =-.239596E-03  mag=     3.0000
       N       E                     dE             d eps       ncg     rms          rms(c)
DAV:   1    -0.231227098240E+04    0.13730E-04   -0.34510E-05  4016   0.955E-03    0.224E-02
RMM:   2    -0.231227101285E+04   -0.30449E-04   -0.64999E-05  2937   0.500E-03    0.565E-02
RMM:   3    -0.231227097773E+04    0.35112E-04   -0.23698E-05  2663   0.328E-03    0.843E-03
RMM:   4    -0.231227097659E+04    0.11424E-05   -0.26111E-06  2055   0.142E-03
 141 F= -.23331108E+04 E0= -.23331108E+04  d E =-.229776E-03  mag=     3.0000
       N       E                     dE             d eps       ncg     rms          rms(c)
DAV:   1    -0.231227003400E+04    0.94374E-03   -0.10482E-01  4472   0.308E-01    0.107E-01
RMM:   2    -0.231227137285E+04   -0.13389E-02   -0.14238E-02  6228   0.767E-02    0.686E-02
RMM:   3    -0.231227137773E+04   -0.48803E-05   -0.10539E-03  3745   0.221E-02    0.515E-02
RMM:   4    -0.231227135930E+04    0.18434E-04   -0.14091E-04  3070   0.718E-03    0.387E-02
RMM:   5    -0.231227134720E+04    0.12097E-04   -0.36745E-05  2925   0.470E-03    0.268E-02
RMM:   6    -0.231227134580E+04    0.14000E-05   -0.29128E-05  2889   0.452E-03
 142 F= -.23331111E+04 E0= -.23331111E+04  d E =-.266651E-03  mag=     3.0000
       N       E                     dE             d eps       ncg     rms          rms(c)
DAV:   1    -0.231227114437E+04    0.20283E-03   -0.19087E-02  4480   0.132E-01    0.467E-02
RMM:   2    -0.231227139128E+04   -0.24691E-03   -0.26541E-03  6178   0.334E-02    0.296E-02
RMM:   3    -0.231227139240E+04   -0.11245E-05   -0.19480E-04  3006   0.103E-02    0.201E-02
RMM:   4    -0.231227139026E+04    0.21450E-05   -0.26360E-05  2941   0.367E-03
 143 F= -.23331111E+04 E0= -.23331111E+04  d E =-.266920E-03  mag=     3.0000
       N       E                     dE             d eps       ncg     rms          rms(c)
DAV:   1    -0.231227086897E+04    0.52344E-03   -0.62279E-02  4480   0.239E-01    0.826E-02
RMM:   2    -0.231227167762E+04   -0.80865E-03   -0.85002E-03  6239   0.582E-02    0.573E-02
RMM:   3    -0.231227171142E+04   -0.33806E-04   -0.75335E-04  3404   0.182E-02    0.600E-02
RMM:   4    -0.231227168013E+04    0.31290E-04   -0.87263E-05  2951   0.589E-03    0.282E-02
RMM:   5    -0.231227167364E+04    0.64915E-05   -0.24844E-05  2946   0.361E-03
 144 F= -.23331113E+04 E0= -.23331113E+04  d E =-.233127E-03  mag=     3.0000
       N       E                     dE             d eps       ncg     rms          rms(c)
DAV:   1    -0.231227039856E+04    0.12816E-02   -0.10972E-01  4472   0.318E-01    0.109E-01
RMM:   2    -0.231227182733E+04   -0.14288E-02   -0.15138E-02  6307   0.781E-02    0.732E-02
RMM:   3    -0.231227185084E+04   -0.23515E-04   -0.12402E-03  3756   0.235E-02    0.551E-02
RMM:   4    -0.231227182047E+04    0.30373E-04   -0.14327E-04  3053   0.742E-03    0.304E-02
RMM:   5    -0.231227181028E+04    0.10192E-04   -0.30363E-05  2949   0.448E-03    0.186E-02
RMM:   6    -0.231227180759E+04    0.26943E-05   -0.20761E-05  2888   0.438E-03
 145 F= -.23331114E+04 E0= -.23331114E+04  d E =-.299833E-03  mag=     3.0000
       N       E                     dE             d eps       ncg     rms          rms(c)
DAV:   1    -0.231227119097E+04    0.61931E-03   -0.79700E-02  4472   0.267E-01    0.905E-02
RMM:   2    -0.231227210940E+04   -0.91843E-03   -0.98490E-03  6288   0.643E-02    0.550E-02
RMM:   3    -0.231227211921E+04   -0.98032E-05   -0.75342E-04  3564   0.192E-02    0.381E-02
RMM:   4    -0.231227211192E+04    0.72900E-05   -0.96365E-05  3006   0.628E-03
 146 F= -.23331117E+04 E0= -.23331117E+04  d E =-.277819E-03  mag=     3.0000
       N       E                     dE             d eps       ncg     rms          rms(c)
DAV:   1    -0.231227178411E+04    0.33510E-03   -0.32434E-02  4496   0.171E-01    0.620E-02
RMM:   2    -0.231227216089E+04   -0.37679E-03   -0.39559E-03  6233   0.402E-02    0.536E-02
RMM:   3    -0.231227217667E+04   -0.15776E-04   -0.39787E-04  3139   0.136E-02    0.505E-02
RMM:   4    -0.231227215537E+04    0.21296E-04   -0.46564E-05  2928   0.467E-03    0.217E-02
RMM:   5    -0.231227215355E+04    0.18282E-05   -0.19899E-05  2932   0.355E-03
 147 F= -.23331117E+04 E0= -.23331117E+04  d E =-.302252E-03  mag=     3.0000
       N       E                     dE             d eps       ncg     rms          rms(c)
DAV:   1    -0.231227184785E+04    0.30753E-03   -0.56151E-02  4456   0.228E-01    0.803E-02
RMM:   2    -0.231227243668E+04   -0.58884E-03   -0.63274E-03  6179   0.554E-02    0.505E-02
RMM:   3    -0.231227245444E+04   -0.17756E-04   -0.56010E-04  3449   0.175E-02    0.454E-02
RMM:   4    -0.231227243129E+04    0.23149E-04   -0.65819E-05  2961   0.616E-03    0.254E-02
RMM:   5    -0.231227242952E+04    0.17730E-05   -0.25066E-05  2906   0.389E-03
 148 F= -.23331119E+04 E0= -.23331119E+04  d E =-.249949E-03  mag=     3.0000
       N       E                     dE             d eps       ncg     rms          rms(c)
DAV:   1    -0.231227223540E+04    0.19589E-03   -0.22207E-02  4464   0.143E-01    0.512E-02
RMM:   2    -0.231227247232E+04   -0.23693E-03   -0.25224E-03  6207   0.348E-02    0.401E-02
RMM:   3    -0.231227247911E+04   -0.67874E-05   -0.23294E-04  3031   0.110E-02    0.380E-02
RMM:   4    -0.231227246721E+04    0.11904E-04   -0.28898E-05  2921   0.403E-03    0.187E-02
RMM:   5    -0.231227246591E+04    0.12935E-05   -0.11657E-05  2866   0.271E-03
 149 F= -.23331120E+04 E0= -.23331120E+04  d E =-.269654E-03  mag=     3.0000
       N       E                     dE             d eps       ncg     rms          rms(c)
DAV:   1    -0.231227204834E+04    0.41887E-03   -0.54163E-02  4456   0.224E-01    0.780E-02
RMM:   2    -0.231227269799E+04   -0.64965E-03   -0.70172E-03  6263   0.569E-02    0.488E-02
RMM:   3    -0.231227270910E+04   -0.11110E-04   -0.53937E-04  3322   0.165E-02    0.397E-02
RMM:   4    -0.231227269317E+04    0.15928E-04   -0.65993E-05  2968   0.584E-03    0.223E-02
RMM:   5    -0.231227268875E+04    0.44272E-05   -0.20734E-05  2926   0.392E-03
 150 F= -.23331121E+04 E0= -.23331121E+04  d E =-.194875E-03  mag=     3.0000
