       N       E                     dE             d eps       ncg     rms          rms(c)
DAV:   1     0.128662892749E+05    0.12866E+05   -0.83636E+05  4512   0.144E+03
DAV:   2    -0.106085032048E+04   -0.13927E+05   -0.13315E+05  5152   0.330E+02
DAV:   3    -0.247911410562E+04   -0.14183E+04   -0.14036E+04  5408   0.112E+02
DAV:   4    -0.252366268672E+04   -0.44549E+02   -0.44320E+02  6744   0.295E+01
DAV:   5    -0.252444179763E+04   -0.77911E+00   -0.77784E+00  6008   0.336E+00    0.171E+02
RMM:   6    -0.148816278632E+04    0.10363E+04   -0.19642E+03  4431   0.387E+01    0.731E+01
RMM:   7    -0.166485532703E+04   -0.17669E+03   -0.30117E+02  5085   0.146E+01    0.545E+01
RMM:   8    -0.171372645455E+04   -0.48871E+02   -0.72136E+01  5143   0.818E+00    0.467E+01
RMM:   9    -0.176501655265E+04   -0.51290E+02   -0.70529E+01  4933   0.745E+00    0.354E+01
RMM:  10    -0.191984815299E+04   -0.15483E+03   -0.73298E+01  4915   0.845E+00    0.207E+01
RMM:  11    -0.203617425235E+04   -0.11633E+03   -0.54487E+01  4833   0.627E+00    0.190E+01
RMM:  12    -0.211304822212E+04   -0.76874E+02   -0.39346E+01  4828   0.480E+00    0.123E+01
RMM:  13    -0.223775976295E+04   -0.12471E+03   -0.10443E+02  4596   0.736E+00    0.127E+01
RMM:  14    -0.226255786848E+04   -0.24798E+02   -0.17199E+01  4670   0.369E+00    0.102E+01
RMM:  15    -0.229842195657E+04   -0.35864E+02   -0.29026E+01  4489   0.362E+00    0.782E+00
RMM:  16    -0.231151509515E+04   -0.13093E+02   -0.12361E+01  4648   0.268E+00    0.417E+00
RMM:  17    -0.231554941350E+04   -0.40343E+01   -0.42063E+00  4983   0.150E+00    0.460E+00
RMM:  18    -0.231582806896E+04   -0.27866E+00   -0.42582E-01  5854   0.409E-01    0.396E+00
RMM:  19    -0.231622744956E+04   -0.39938E+00   -0.14295E-01  4598   0.246E-01    0.307E+00
RMM:  20    -0.231693828107E+04   -0.71083E+00   -0.41598E-01  4488   0.368E-01    0.146E+00
RMM:  21    -0.231711949514E+04   -0.18121E+00   -0.21111E-01  4671   0.292E-01    0.559E-01
RMM:  22    -0.231718426357E+04   -0.64768E-01   -0.76920E-02  5195   0.161E-01    0.356E-01
RMM:  23    -0.231724601968E+04   -0.61756E-01   -0.23425E-02  4642   0.951E-02    0.210E-01
RMM:  24    -0.231728324722E+04   -0.37228E-01   -0.87248E-03  4500   0.664E-02    0.174E-01
RMM:  25    -0.231730876886E+04   -0.25522E-01   -0.64340E-03  4459   0.535E-02    0.111E-01
RMM:  26    -0.231732287077E+04   -0.14102E-01   -0.35510E-03  4556   0.450E-02    0.637E-02
RMM:  27    -0.231733236694E+04   -0.94962E-02   -0.27220E-03  4547   0.344E-02    0.535E-02
RMM:  28    -0.231733502314E+04   -0.26562E-02   -0.75160E-04  4219   0.255E-02    0.272E-02
RMM:  29    -0.231733605997E+04   -0.10368E-02   -0.31375E-04  4028   0.112E-02    0.193E-02
RMM:  30    -0.231733650364E+04   -0.44367E-03   -0.11020E-04  3669   0.103E-02    0.166E-02
RMM:  31    -0.231733662289E+04   -0.11925E-03   -0.52106E-05  3364   0.520E-03    0.150E-02
RMM:  32    -0.231733666445E+04   -0.41564E-04   -0.41630E-05  3122   0.574E-03    0.124E-02
RMM:  33    -0.231733666094E+04    0.35187E-05   -0.40644E-05  2972   0.493E-03
   1 F= -.23382943E+04 E0= -.23382943E+04  d E =-.233829E+04  mag=     4.9997
       N       E                     dE             d eps       ncg     rms          rms(c)
DAV:   1    -0.231747588092E+04   -0.13922E+00   -0.18895E+01  5008   0.280E+00    0.128E+00
RMM:   2    -0.231773505155E+04   -0.25917E+00   -0.27912E+00  6321   0.804E-01    0.757E-01
RMM:   3    -0.231775075787E+04   -0.15706E-01   -0.26493E-01  5761   0.306E-01    0.719E-01
RMM:   4    -0.231774908459E+04    0.16733E-02   -0.26481E-02  5885   0.559E-02    0.464E-01
RMM:   5    -0.231774732464E+04    0.17599E-02   -0.71109E-03  5324   0.381E-02    0.345E-01
RMM:   6    -0.231774651129E+04    0.81335E-03   -0.39537E-03  5695   0.307E-02    0.200E-01
RMM:   7    -0.231774611495E+04    0.39634E-03   -0.62305E-04  4174   0.147E-02    0.618E-02
RMM:   8    -0.231774610295E+04    0.11997E-04   -0.12300E-04  3400   0.674E-03    0.342E-02
RMM:   9    -0.231774611108E+04   -0.81239E-05   -0.53643E-05  2987   0.615E-03
   2 F= -.23387005E+04 E0= -.23387005E+04  d E =-.406190E+00  mag=     4.9999
       N       E                     dE             d eps       ncg     rms          rms(c)
DAV:   1    -0.231773210222E+04    0.14001E-01   -0.52611E+00  4688   0.151E+00    0.677E-01
RMM:   2    -0.231780331510E+04   -0.71213E-01   -0.77442E-01  6194   0.427E-01    0.389E-01
RMM:   3    -0.231780863710E+04   -0.53220E-02   -0.80748E-02  5612   0.189E-01    0.334E-01
RMM:   4    -0.231780865785E+04   -0.20744E-04   -0.79749E-03  5227   0.314E-02    0.262E-01
RMM:   5    -0.231780805193E+04    0.60591E-03   -0.20081E-03  5203   0.218E-02    0.173E-01
RMM:   6    -0.231780791566E+04    0.13627E-03   -0.78375E-04  4311   0.151E-02    0.937E-02
RMM:   7    -0.231780782937E+04    0.86290E-04   -0.18711E-04  3437   0.857E-03    0.439E-02
RMM:   8    -0.231780782247E+04    0.68936E-05   -0.33228E-05  2983   0.494E-03
   3 F= -.23387605E+04 E0= -.23387605E+04  d E =-.466169E+00  mag=     5.0000
       N       E                     dE             d eps       ncg     rms          rms(c)
DAV:   1    -0.231792414591E+04   -0.11632E+00   -0.79113E+00  4632   0.214E+00    0.953E-01
RMM:   2    -0.231807036004E+04   -0.14621E+00   -0.15472E+00  6470   0.572E-01    0.814E-01
RMM:   3    -0.231807606253E+04   -0.57025E-02   -0.15744E-01  5989   0.232E-01    0.475E-01
RMM:   4    -0.231807472677E+04    0.13358E-02   -0.16083E-02  5635   0.449E-02    0.309E-01
RMM:   5    -0.231807448100E+04    0.24578E-03   -0.21531E-03  4803   0.207E-02    0.294E-01
RMM:   6    -0.231807357561E+04    0.90538E-03   -0.16925E-03  5238   0.205E-02    0.982E-02
RMM:   7    -0.231807354912E+04    0.26495E-04   -0.47117E-04  4227   0.138E-02    0.325E-02
RMM:   8    -0.231807354806E+04    0.10569E-05   -0.46544E-05  2940   0.495E-03
   4 F= -.23390250E+04 E0= -.23390250E+04  d E =-.264461E+00  mag=     5.0000
       N       E                     dE             d eps       ncg     rms          rms(c)
DAV:   1    -0.231736081944E+04    0.71273E+00   -0.51021E+01  4484   0.545E+00    0.248E+00
RMM:   2    -0.231828580851E+04   -0.92499E+00   -0.10151E+01  6597   0.142E+00    0.183E+00
RMM:   3    -0.231839045129E+04   -0.10464E+00   -0.13881E+00  5914   0.580E-01    0.170E+00
RMM:   4    -0.231836082243E+04    0.29629E-01   -0.10852E-01  6134   0.128E-01    0.620E-01
RMM:   5    -0.231835696230E+04    0.38601E-02   -0.12557E-02  5469   0.493E-02    0.385E-01
RMM:   6    -0.231835605486E+04    0.90744E-03   -0.90862E-03  5383   0.453E-02    0.252E-01
RMM:   7    -0.231835607809E+04   -0.23230E-04   -0.19468E-03  4836   0.257E-02    0.245E-01
RMM:   8    -0.231835563495E+04    0.44314E-03   -0.49429E-04  3727   0.112E-02    0.590E-02
RMM:   9    -0.231835560214E+04    0.32811E-04   -0.35301E-04  3461   0.979E-03    0.227E-02
RMM:  10    -0.231835561873E+04   -0.16587E-04   -0.84774E-05  3019   0.495E-03    0.132E-02
RMM:  11    -0.231835563049E+04   -0.11760E-04   -0.14461E-05  2883   0.377E-03    0.108E-02
RMM:  12    -0.231835563635E+04   -0.58625E-05   -0.67320E-06  2815   0.264E-03
   5 F= -.23393043E+04 E0= -.23393043E+04  d E =-.543765E+00  mag=     5.0000
       N       E                     dE             d eps       ncg     rms          rms(c)
DAV:   1    -0.231834764793E+04    0.79826E-02   -0.56821E+00  4560   0.180E+00    0.911E-01
RMM:   2    -0.231845071892E+04   -0.10307E+00   -0.10498E+00  6369   0.467E-01    0.819E-01
RMM:   3    -0.231845416122E+04   -0.34423E-02   -0.96786E-02  6063   0.156E-01    0.623E-01
RMM:   4    -0.231845275393E+04    0.14073E-02   -0.12009E-02  5596   0.401E-02    0.369E-01
RMM:   5    -0.231845192392E+04    0.83001E-03   -0.23189E-03  4975   0.230E-02    0.221E-01
RMM:   6    -0.231845137233E+04    0.55159E-03   -0.10162E-03  5044   0.199E-02    0.865E-02
RMM:   7    -0.231845133853E+04    0.33797E-04   -0.31662E-04  4254   0.135E-02    0.444E-02
RMM:   8    -0.231845131851E+04    0.20016E-04   -0.63078E-05  3103   0.650E-03    0.187E-02
RMM:   9    -0.231845131112E+04    0.73916E-05   -0.22842E-05  2897   0.486E-03
   6 F= -.23393964E+04 E0= -.23393964E+04  d E =-.920815E-01  mag=     5.0000
       N       E                     dE             d eps       ncg     rms          rms(c)
DAV:   1    -0.231821337198E+04    0.23795E+00   -0.16353E+01  4516   0.307E+00    0.154E+00
RMM:   2    -0.231851211888E+04   -0.29875E+00   -0.30493E+00  6387   0.807E-01    0.140E+00
RMM:   3    -0.231852379836E+04   -0.11679E-01   -0.28014E-01  6099   0.265E-01    0.118E+00
RMM:   4    -0.231851889030E+04    0.49081E-02   -0.35673E-02  5830   0.689E-02    0.642E-01
RMM:   5    -0.231851606212E+04    0.28282E-02   -0.70106E-03  5691   0.397E-02    0.365E-01
RMM:   6    -0.231851450947E+04    0.15526E-02   -0.29329E-03  5200   0.330E-02    0.151E-01
RMM:   7    -0.231851439145E+04    0.11803E-03   -0.10010E-03  4743   0.226E-02    0.714E-02
RMM:   8    -0.231851433288E+04    0.58566E-04   -0.18530E-04  3788   0.103E-02    0.323E-02
RMM:   9    -0.231851431181E+04    0.21068E-04   -0.73833E-05  3114   0.727E-03    0.152E-02
RMM:  10    -0.231851430631E+04    0.55006E-05   -0.19548E-05  2903   0.419E-03
   7 F= -.23394542E+04 E0= -.23394542E+04  d E =-.149878E+00  mag=     5.0000
       N       E                     dE             d eps       ncg     rms          rms(c)
DAV:   1    -0.231850348709E+04    0.10825E-01   -0.32521E+00  4624   0.128E+00    0.717E-01
RMM:   2    -0.231857956219E+04   -0.76075E-01   -0.75977E-01  6586   0.372E-01    0.725E-01
RMM:   3    -0.231858268742E+04   -0.31252E-02   -0.70923E-02  6069   0.120E-01    0.584E-01
RMM:   4    -0.231858133942E+04    0.13480E-02   -0.86822E-03  5080   0.300E-02    0.259E-01
RMM:   5    -0.231858079511E+04    0.54431E-03   -0.12275E-03  4021   0.150E-02    0.150E-01
RMM:   6    -0.231858049203E+04    0.30308E-03   -0.55764E-04  4346   0.126E-02    0.697E-02
RMM:   7    -0.231858046765E+04    0.24384E-04   -0.25051E-04  3583   0.945E-03    0.248E-02
RMM:   8    -0.231858046475E+04    0.28961E-05   -0.28893E-05  2919   0.516E-03
   8 F= -.23395180E+04 E0= -.23395180E+04  d E =-.638664E-01  mag=     5.0000
       N       E                     dE             d eps       ncg     rms          rms(c)
DAV:   1    -0.231805643783E+04    0.52403E+00   -0.29288E+01  4472   0.387E+00    0.213E+00
RMM:   2    -0.231876094817E+04   -0.70451E+00   -0.71349E+00  6606   0.113E+00    0.185E+00
RMM:   3    -0.231879087300E+04   -0.29925E-01   -0.64563E-01  6229   0.371E-01    0.181E+00
RMM:   4    -0.231877808034E+04    0.12793E-01   -0.74396E-02  5921   0.887E-02    0.820E-01
RMM:   5    -0.231877294103E+04    0.51393E-02   -0.12203E-02  5693   0.454E-02    0.472E-01
RMM:   6    -0.231877005271E+04    0.28883E-02   -0.52494E-03  5438   0.339E-02    0.222E-01
RMM:   7    -0.231876979927E+04    0.25343E-03   -0.26705E-03  4971   0.255E-02    0.992E-02
RMM:   8    -0.231876972380E+04    0.75472E-04   -0.37820E-04  3534   0.125E-02    0.512E-02
RMM:   9    -0.231876970073E+04    0.23067E-04   -0.12310E-04  3029   0.705E-03    0.212E-02
RMM:  10    -0.231876970024E+04    0.49479E-06   -0.26566E-05  2925   0.384E-03
   9 F= -.23397026E+04 E0= -.23397026E+04  d E =-.248415E+00  mag=     5.0000
       N       E                     dE             d eps       ncg     rms          rms(c)
DAV:   1    -0.231601881136E+04    0.27509E+01   -0.11791E+02  4456   0.785E+00    0.417E+00
RMM:   2    -0.231912038980E+04   -0.31016E+01   -0.30501E+01  6622   0.235E+00    0.673E+00
RMM:   3    -0.231913471990E+04   -0.14330E-01   -0.30426E+00  5897   0.904E-01    0.329E+00
RMM:   4    -0.231912738569E+04    0.73342E-02   -0.29555E-01  6030   0.201E-01    0.318E+00
RMM:   5    -0.231908558667E+04    0.41799E-01   -0.96318E-02  5916   0.121E-01    0.155E+00
RMM:   6    -0.231907266677E+04    0.12920E-01   -0.19483E-02  5233   0.597E-02    0.683E-01
RMM:   7    -0.231906825993E+04    0.44068E-02   -0.13071E-02  5607   0.538E-02    0.393E-01
RMM:   8    -0.231906752528E+04    0.73465E-03   -0.43870E-03  5321   0.366E-02    0.198E-01
RMM:   9    -0.231906770276E+04   -0.17748E-03   -0.87192E-04  4745   0.142E-02    0.193E-01
RMM:  10    -0.231906759380E+04    0.10896E-03   -0.27188E-04  3524   0.104E-02    0.861E-02
RMM:  11    -0.231906758788E+04    0.59279E-05   -0.12012E-04  3017   0.628E-03    0.370E-02
RMM:  12    -0.231906760199E+04   -0.14110E-04   -0.61222E-05  2933   0.527E-03    0.330E-02
RMM:  13    -0.231906760468E+04   -0.26931E-05   -0.18776E-05  2878   0.405E-03
  10 F= -.23399943E+04 E0= -.23399942E+04  d E =-.540101E+00  mag=     5.0000
       N       E                     dE             d eps       ncg     rms          rms(c)
DAV:   1    -0.230548539064E+04    0.13582E+02   -0.49848E+02  4448   0.166E+01    0.103E+01
RMM:   2    -0.232828748175E+04   -0.22802E+02   -0.16572E+02  6596   0.549E+00    0.219E+01
RMM:   3    -0.231866427353E+04    0.96232E+01   -0.12278E+01  5336   0.225E+00    0.753E+00
RMM:   4    -0.231899504845E+04   -0.33077E+00   -0.21564E+00  5534   0.628E-01    0.965E+00
RMM:   5    -0.231831192663E+04    0.68312E+00   -0.61213E-01  5166   0.394E-01    0.388E+00
RMM:   6    -0.231857616003E+04   -0.26423E+00   -0.27644E-01  4876   0.235E-01    0.451E+00
RMM:   7    -0.231865661190E+04   -0.80452E-01   -0.35153E-02  4805   0.105E-01    0.417E+00
RMM:   8    -0.231883059522E+04   -0.17398E+00   -0.14132E-01  4736   0.168E-01    0.258E+00
RMM:   9    -0.231883200634E+04   -0.14111E-02   -0.17856E-01  5042   0.205E-01    0.959E-01
RMM:  10    -0.231882499844E+04    0.70079E-02   -0.40252E-02  5214   0.123E-01    0.783E-01
RMM:  11    -0.231882450159E+04    0.49684E-03   -0.89177E-03  5051   0.522E-02    0.517E-01
RMM:  12    -0.231882899867E+04   -0.44971E-02   -0.51981E-03  4618   0.400E-02    0.174E-01
RMM:  13    -0.231882910200E+04   -0.10333E-03   -0.18858E-03  4451   0.246E-02    0.238E-01
RMM:  14    -0.231882938240E+04   -0.28040E-03   -0.50716E-04  4209   0.134E-02    0.101E-01
RMM:  15    -0.231882947263E+04   -0.90225E-04   -0.22351E-04  3746   0.971E-03    0.260E-02
RMM:  16    -0.231882958395E+04   -0.11132E-03   -0.47674E-05  3146   0.632E-03    0.180E-02
RMM:  17    -0.231882968820E+04   -0.10425E-03   -0.27249E-05  3063   0.487E-03    0.161E-02
RMM:  18    -0.231882977619E+04   -0.87988E-04   -0.20737E-05  2962   0.470E-03    0.108E-02
RMM:  19    -0.231882982818E+04   -0.51985E-04   -0.12743E-05  2851   0.414E-03    0.511E-03
RMM:  20    -0.231882985242E+04   -0.24244E-04   -0.68990E-06  2817   0.332E-03    0.241E-03
RMM:  21    -0.231882986097E+04   -0.85495E-05   -0.38121E-06  2543   0.244E-03
  11 F= -.23397438E+04 E0= -.23397438E+04  d E =-.289661E+00  mag=     4.9985
       N       E                     dE             d eps       ncg     rms          rms(c)
DAV:   1    -0.231047107225E+04    0.83588E+01   -0.29335E+02  4480   0.136E+01    0.732E+00
RMM:   2    -0.232023509197E+04   -0.97640E+01   -0.92616E+01  6644   0.443E+00    0.798E+00
RMM:   3    -0.231917694482E+04    0.10581E+01   -0.85530E+00  6211   0.133E+00    0.499E+00
RMM:   4    -0.231914776752E+04    0.29177E-01   -0.65771E-01  6154   0.275E-01    0.277E+00
RMM:   5    -0.231917499400E+04   -0.27226E-01   -0.90104E-02  5749   0.132E-01    0.249E+00
RMM:   6    -0.231915461528E+04    0.20379E-01   -0.53435E-02  5686   0.106E-01    0.157E+00
RMM:   7    -0.231914097359E+04    0.13642E-01   -0.52474E-02  5116   0.106E-01    0.734E-01
RMM:   8    -0.231914117853E+04   -0.20494E-03   -0.20838E-02  5132   0.819E-02    0.711E-01
RMM:   9    -0.231913945725E+04    0.17213E-02   -0.42558E-03  5430   0.342E-02    0.171E-01
RMM:  10    -0.231913970476E+04   -0.24751E-03   -0.93834E-04  4331   0.172E-02    0.787E-02
RMM:  11    -0.231913990233E+04   -0.19757E-03   -0.19902E-04  3876   0.924E-03    0.551E-02
RMM:  12    -0.231914001241E+04   -0.11008E-03   -0.54792E-05  3139   0.617E-03    0.200E-02
RMM:  13    -0.231914010650E+04   -0.94087E-04   -0.28776E-05  3046   0.474E-03    0.137E-02
RMM:  14    -0.231914014411E+04   -0.37607E-04   -0.11515E-05  2858   0.409E-03    0.830E-03
RMM:  15    -0.231914017631E+04   -0.32203E-04   -0.10811E-05  2853   0.340E-03    0.549E-03
RMM:  16    -0.231914019530E+04   -0.18990E-04   -0.67904E-06  2827   0.322E-03    0.390E-03
RMM:  17    -0.231914020211E+04   -0.68117E-05   -0.39607E-06  2703   0.247E-03
  12 F= -.23400642E+04 E0= -.23400641E+04  d E =-.610031E+00  mag=     4.9990
       N       E                     dE             d eps       ncg     rms          rms(c)
DAV:   1    -0.231874633891E+04    0.39386E+00   -0.24151E+01  4472   0.379E+00    0.201E+00
RMM:   2    -0.231935757301E+04   -0.61123E+00   -0.59377E+00  6530   0.112E+00    0.227E+00
RMM:   3    -0.231937003774E+04   -0.12465E-01   -0.53559E-01  6068   0.369E-01    0.143E+00
RMM:   4    -0.231936381565E+04    0.62221E-02   -0.57270E-02  5788   0.926E-02    0.965E-01
RMM:   5    -0.231936490270E+04   -0.10871E-02   -0.17961E-02  5519   0.572E-02    0.974E-01
RMM:   6    -0.231936034886E+04    0.45538E-02   -0.16564E-02  5835   0.546E-02    0.568E-01
RMM:   7    -0.231936004358E+04    0.30528E-03   -0.58407E-03  5100   0.377E-02    0.355E-01
RMM:   8    -0.231936009579E+04   -0.52207E-04   -0.28491E-03  5010   0.267E-02    0.226E-01
RMM:   9    -0.231936004959E+04    0.46202E-04   -0.10409E-03  4457   0.175E-02    0.114E-01
RMM:  10    -0.231936004435E+04    0.52339E-05   -0.44930E-04  3746   0.107E-02    0.636E-02
RMM:  11    -0.231936005781E+04   -0.13453E-04   -0.19528E-04  3239   0.781E-03    0.321E-02
RMM:  12    -0.231936007234E+04   -0.14530E-04   -0.58882E-05  2929   0.547E-03    0.177E-02
RMM:  13    -0.231936008225E+04   -0.99175E-05   -0.30422E-05  2878   0.440E-03
  13 F= -.23402813E+04 E0= -.23402813E+04  d E =-.217119E+00  mag=     5.0000
       N       E                     dE             d eps       ncg     rms          rms(c)
DAV:   1    -0.231772182492E+04    0.16382E+01   -0.69963E+01  4456   0.636E+00    0.315E+00
RMM:   2    -0.231958601987E+04   -0.18642E+01   -0.17847E+01  6559   0.201E+00    0.405E+00
RMM:   3    -0.231954183852E+04    0.44181E-01   -0.19171E+00  5739   0.740E-01    0.181E+00
RMM:   4    -0.231952143450E+04    0.20404E-01   -0.17447E-01  5822   0.158E-01    0.111E+00
RMM:   5    -0.231951751927E+04    0.39152E-02   -0.30341E-02  5899   0.745E-02    0.975E-01
RMM:   6    -0.231950801292E+04    0.95064E-02   -0.23258E-02  5498   0.659E-02    0.494E-01
RMM:   7    -0.231950629170E+04    0.17212E-02   -0.49472E-03  5255   0.431E-02    0.146E-01
RMM:   8    -0.231950620306E+04    0.88645E-04   -0.10272E-03  4855   0.206E-02    0.102E-01
RMM:   9    -0.231950618329E+04    0.19771E-04   -0.38438E-04  4276   0.124E-02    0.386E-02
RMM:  10    -0.231950621317E+04   -0.29884E-04   -0.65414E-05  3038   0.658E-03    0.240E-02
RMM:  11    -0.231950624403E+04   -0.30855E-04   -0.29805E-05  2979   0.487E-03    0.122E-02
RMM:  12    -0.231950627149E+04   -0.27466E-04   -0.14728E-05  2891   0.429E-03    0.714E-03
RMM:  13    -0.231950628967E+04   -0.18172E-04   -0.93643E-06  2851   0.360E-03    0.472E-03
RMM:  14    -0.231950630499E+04   -0.15323E-04   -0.78154E-06  2832   0.315E-03    0.288E-03
RMM:  15    -0.231950631035E+04   -0.53660E-05   -0.36637E-06  2778   0.273E-03
  14 F= -.23404229E+04 E0= -.23404229E+04  d E =-.358756E+00  mag=     5.0000
       N       E                     dE             d eps       ncg     rms          rms(c)
DAV:   1    -0.231946305866E+04    0.43246E-01   -0.19426E+00  4576   0.105E+00    0.517E-01
RMM:   2    -0.231951152935E+04   -0.48471E-01   -0.46341E-01  6524   0.316E-01    0.707E-01
RMM:   3    -0.231951058163E+04    0.94772E-03   -0.49394E-02  5825   0.110E-01    0.299E-01
RMM:   4    -0.231951015425E+04    0.42738E-03   -0.44964E-03  4837   0.246E-02    0.147E-01
RMM:   5    -0.231951009454E+04    0.59714E-04   -0.83071E-04  4674   0.133E-02    0.176E-01
RMM:   6    -0.231950983299E+04    0.26155E-03   -0.48997E-04  3653   0.120E-02    0.583E-02
RMM:   7    -0.231950980863E+04    0.24355E-04   -0.13567E-04  3455   0.773E-03    0.172E-02
RMM:   8    -0.231950980492E+04    0.37094E-05   -0.15744E-05  2889   0.498E-03
  15 F= -.23404272E+04 E0= -.23404272E+04  d E =-.363001E+00  mag=     5.0000
       N       E                     dE             d eps       ncg     rms          rms(c)
DAV:   1    -0.231945178919E+04    0.58019E-01   -0.75737E+00  4496   0.227E+00    0.103E+00
RMM:   2    -0.231962386784E+04   -0.17208E+00   -0.17965E+00  6388   0.621E-01    0.740E-01
RMM:   3    -0.231963921230E+04   -0.15344E-01   -0.18992E-01  5965   0.232E-01    0.745E-01
RMM:   4    -0.231963527666E+04    0.39356E-02   -0.17982E-02  6019   0.531E-02    0.311E-01
RMM:   5    -0.231963410588E+04    0.11708E-02   -0.27174E-03  5441   0.251E-02    0.179E-01
RMM:   6    -0.231963401671E+04    0.89168E-04   -0.16789E-03  5241   0.211E-02    0.172E-01
RMM:   7    -0.231963376213E+04    0.25458E-03   -0.57162E-04  4678   0.132E-02    0.855E-02
RMM:   8    -0.231963369305E+04    0.69074E-04   -0.10310E-04  3074   0.695E-03    0.265E-02
RMM:   9    -0.231963368303E+04    0.10018E-04   -0.35341E-05  2888   0.509E-03    0.131E-02
RMM:  10    -0.231963368104E+04    0.19964E-05   -0.13989E-05  2884   0.359E-03
  16 F= -.23405512E+04 E0= -.23405512E+04  d E =-.124023E+00  mag=     5.0000
       N       E                     dE             d eps       ncg     rms          rms(c)
DAV:   1    -0.231917789557E+04    0.45579E+00   -0.21951E+01  4472   0.385E+00    0.178E+00
RMM:   2    -0.231968626843E+04   -0.50837E+00   -0.53236E+00  6428   0.107E+00    0.124E+00
RMM:   3    -0.231972983822E+04   -0.43570E-01   -0.54208E-01  6059   0.377E-01    0.126E+00
RMM:   4    -0.231971749422E+04    0.12344E-01   -0.50366E-02  6275   0.892E-02    0.538E-01
RMM:   5    -0.231971409088E+04    0.34033E-02   -0.83885E-03  5663   0.426E-02    0.322E-01
RMM:   6    -0.231971403496E+04    0.55920E-04   -0.58055E-03  5604   0.361E-02    0.344E-01
RMM:   7    -0.231971295886E+04    0.10761E-02   -0.21276E-03  5458   0.235E-02    0.141E-01
RMM:   8    -0.231971275469E+04    0.20418E-03   -0.39013E-04  4150   0.108E-02    0.529E-02
RMM:   9    -0.231971271225E+04    0.42436E-04   -0.17101E-04  3208   0.943E-03    0.283E-02
RMM:  10    -0.231971270461E+04    0.76454E-05   -0.55046E-05  3052   0.542E-03
  17 F= -.23406307E+04 E0= -.23406307E+04  d E =-.203537E+00  mag=     5.0000
       N       E                     dE             d eps       ncg     rms          rms(c)
DAV:   1    -0.231961716379E+04    0.95548E-01   -0.11217E+01  4472   0.270E+00    0.114E+00
RMM:   2    -0.231982539523E+04   -0.20823E+00   -0.22043E+00  6357   0.676E-01    0.679E-01
RMM:   3    -0.231984087607E+04   -0.15481E-01   -0.20660E-01  5978   0.236E-01    0.608E-01
RMM:   4    -0.231983930698E+04    0.15691E-02   -0.22059E-02  5812   0.562E-02    0.356E-01
RMM:   5    -0.231983777300E+04    0.15340E-02   -0.32734E-03  5051   0.277E-02    0.195E-01
RMM:   6    -0.231983758756E+04    0.18544E-03   -0.20466E-03  5576   0.247E-02    0.154E-01
RMM:   7    -0.231983744612E+04    0.14144E-03   -0.62497E-04  4529   0.146E-02    0.107E-01
RMM:   8    -0.231983734925E+04    0.96868E-04   -0.13155E-04  3377   0.718E-03    0.261E-02
RMM:   9    -0.231983734906E+04    0.18813E-06   -0.41673E-05  2899   0.546E-03
  18 F= -.23407578E+04 E0= -.23407578E+04  d E =-.127102E+00  mag=     5.0000
       N       E                     dE             d eps       ncg     rms          rms(c)
DAV:   1    -0.231950264819E+04    0.33470E+00   -0.19229E+01  4472   0.357E+00    0.152E+00
RMM:   2    -0.231987207224E+04   -0.36942E+00   -0.39058E+00  6342   0.918E-01    0.940E-01
RMM:   3    -0.231989833719E+04   -0.26265E-01   -0.37205E-01  5974   0.313E-01    0.827E-01
RMM:   4    -0.231989554393E+04    0.27933E-02   -0.37427E-02  5910   0.753E-02    0.492E-01
RMM:   5    -0.231989267110E+04    0.28728E-02   -0.64015E-03  5150   0.373E-02    0.251E-01
RMM:   6    -0.231989205519E+04    0.61592E-03   -0.33112E-03  5372   0.310E-02    0.123E-01
RMM:   7    -0.231989210139E+04   -0.46205E-04   -0.71779E-04  4990   0.188E-02    0.125E-01
RMM:   8    -0.231989195004E+04    0.15135E-03   -0.22988E-04  3750   0.878E-03    0.442E-02
RMM:   9    -0.231989195111E+04   -0.10752E-05   -0.77067E-05  3044   0.643E-03
  19 F= -.23408158E+04 E0= -.23408157E+04  d E =-.185077E+00  mag=     4.9992
       N       E                     dE             d eps       ncg     rms          rms(c)
DAV:   1    -0.231984929465E+04    0.42655E-01   -0.12515E+01  4464   0.298E+00    0.120E+00
RMM:   2    -0.232000235738E+04   -0.15306E+00   -0.16264E+00  6212   0.715E-01    0.753E-01
RMM:   3    -0.232001082251E+04   -0.84651E-02   -0.13816E-01  5988   0.228E-01    0.746E-01
RMM:   4    -0.232000480464E+04    0.60179E-02   -0.15641E-02  6057   0.601E-02    0.306E-01
RMM:   5    -0.232000355168E+04    0.12530E-02   -0.44355E-03  5210   0.406E-02    0.144E-01
RMM:   6    -0.232000363533E+04   -0.83652E-04   -0.13800E-03  5034   0.262E-02    0.159E-01
RMM:   7    -0.232000341953E+04    0.21580E-03   -0.44604E-04  4187   0.120E-02    0.503E-02
RMM:   8    -0.232000337723E+04    0.42304E-04   -0.73884E-05  3151   0.642E-03    0.203E-02
RMM:   9    -0.232000336873E+04    0.84926E-05   -0.34069E-05  3127   0.510E-03
  20 F= -.23409300E+04 E0= -.23409299E+04  d E =-.114233E+00  mag=     4.9981
       N       E                     dE             d eps       ncg     rms          rms(c)
DAV:   1    -0.231988842011E+04    0.11496E+00   -0.12141E+01  4456   0.295E+00    0.119E+00
RMM:   2    -0.232003878831E+04   -0.15037E+00   -0.15955E+00  6201   0.724E-01    0.771E-01
RMM:   3    -0.232004713849E+04   -0.83502E-02   -0.13884E-01  5985   0.231E-01    0.717E-01
RMM:   4    -0.232004141355E+04    0.57249E-02   -0.14411E-02  5966   0.587E-02    0.304E-01
RMM:   5    -0.232004027474E+04    0.11388E-02   -0.45522E-03  5250   0.408E-02    0.183E-01
RMM:   6    -0.232004037736E+04   -0.10263E-03   -0.18571E-03  5040   0.284E-02    0.208E-01
RMM:   7    -0.232003995613E+04    0.42124E-03   -0.55666E-04  4540   0.135E-02    0.411E-02
RMM:   8    -0.232003991488E+04    0.41247E-04   -0.94964E-05  3295   0.704E-03    0.230E-02
RMM:   9    -0.232003990146E+04    0.13418E-04   -0.39956E-05  3232   0.561E-03    0.111E-02
RMM:  10    -0.232003989880E+04    0.26577E-05   -0.14101E-05  2888   0.470E-03
  21 F= -.23409693E+04 E0= -.23409691E+04  d E =-.153519E+00  mag=     4.9958
       N       E                     dE             d eps       ncg     rms          rms(c)
DAV:   1    -0.231996003784E+04    0.79864E-01   -0.91909E+00  4476   0.258E+00    0.113E+00
RMM:   2    -0.232014348363E+04   -0.18345E+00   -0.18526E+00  6449   0.707E-01    0.110E+00
RMM:   3    -0.232014694258E+04   -0.34590E-02   -0.17062E-01  6193   0.225E-01    0.663E-01
RMM:   4    -0.232014198461E+04    0.49580E-02   -0.15676E-02  5635   0.519E-02    0.266E-01
RMM:   5    -0.232014131963E+04    0.66497E-03   -0.28406E-03  5427   0.304E-02    0.224E-01
RMM:   6    -0.232014115195E+04    0.16769E-03   -0.19319E-03  5270   0.229E-02    0.195E-01
RMM:   7    -0.232014083358E+04    0.31836E-03   -0.48913E-04  4402   0.136E-02    0.322E-02
RMM:   8    -0.232014081147E+04    0.22116E-04   -0.57450E-05  3044   0.641E-03    0.201E-02
RMM:   9    -0.232014080225E+04    0.92201E-05   -0.26697E-05  2909   0.448E-03
  22 F= -.23410724E+04 E0= -.23410722E+04  d E =-.103054E+00  mag=     4.9971
       N       E                     dE             d eps       ncg     rms          rms(c)
DAV:   1    -0.231918481173E+04    0.95600E+00   -0.52651E+01  4456   0.613E+00    0.266E+00
RMM:   2    -0.232023291395E+04   -0.10481E+01   -0.10760E+01  6466   0.161E+00    0.250E+00
RMM:   3    -0.232028269010E+04   -0.49776E-01   -0.10672E+00  6114   0.559E-01    0.179E+00
RMM:   4    -0.232024457406E+04    0.38116E-01   -0.90265E-02  5946   0.131E-01    0.678E-01
RMM:   5    -0.232024107746E+04    0.34966E-02   -0.11769E-02  5415   0.619E-02    0.410E-01
RMM:   6    -0.232023980739E+04    0.12701E-02   -0.92149E-03  5239   0.509E-02    0.264E-01
RMM:   7    -0.232023987454E+04   -0.67156E-04   -0.29722E-03  5202   0.370E-02    0.286E-01
RMM:   8    -0.232023913927E+04    0.73527E-03   -0.72436E-04  4668   0.149E-02    0.703E-02
RMM:   9    -0.232023907044E+04    0.68828E-04   -0.21357E-04  3539   0.102E-02    0.282E-02
RMM:  10    -0.232023905693E+04    0.13516E-04   -0.78108E-05  3310   0.626E-03    0.137E-02
RMM:  11    -0.232023905524E+04    0.16834E-05   -0.18986E-05  2902   0.512E-03
  23 F= -.23411761E+04 E0= -.23411760E+04  d E =-.206760E+00  mag=     4.9962
       N       E                     dE             d eps       ncg     rms          rms(c)
DAV:   1    -0.231998039083E+04    0.25867E+00   -0.14484E+01  4456   0.327E+00    0.147E+00
RMM:   2    -0.232030940348E+04   -0.32901E+00   -0.33094E+00  6430   0.900E-01    0.158E+00
RMM:   3    -0.232031394122E+04   -0.45377E-02   -0.32118E-01  6088   0.318E-01    0.888E-01
RMM:   4    -0.232030550488E+04    0.84363E-02   -0.28354E-02  5693   0.720E-02    0.395E-01
RMM:   5    -0.232030515955E+04    0.34533E-03   -0.62594E-03  5601   0.400E-02    0.464E-01
RMM:   6    -0.232030280093E+04    0.23586E-02   -0.43926E-03  5710   0.347E-02    0.167E-01
RMM:   7    -0.232030261763E+04    0.18330E-03   -0.93320E-04  4899   0.197E-02    0.513E-02
RMM:   8    -0.232030254908E+04    0.68547E-04   -0.11961E-04  3761   0.890E-03    0.312E-02
RMM:   9    -0.232030251279E+04    0.36291E-04   -0.85769E-05  3421   0.762E-03    0.126E-02
RMM:  10    -0.232030250592E+04    0.68758E-05   -0.21681E-05  2964   0.479E-03
  24 F= -.23412416E+04 E0= -.23412416E+04  d E =-.655491E-01  mag=     4.9992
       N       E                     dE             d eps       ncg     rms          rms(c)
DAV:   1    -0.232027392174E+04    0.28591E-01   -0.14652E+00  4576   0.103E+00    0.468E-01
RMM:   2    -0.232030723630E+04   -0.33315E-01   -0.33050E-01  6410   0.291E-01    0.531E-01
RMM:   3    -0.232030679430E+04    0.44199E-03   -0.29876E-02  5947   0.999E-02    0.258E-01
RMM:   4    -0.232030620635E+04    0.58795E-03   -0.31928E-03  4971   0.230E-02    0.135E-01
RMM:   5    -0.232030615673E+04    0.49621E-04   -0.59488E-04  3999   0.134E-02    0.151E-01
RMM:   6    -0.232030588882E+04    0.26791E-03   -0.50019E-04  4631   0.128E-02    0.465E-02
RMM:   7    -0.232030587108E+04    0.17744E-04   -0.10928E-04  3358   0.878E-03    0.172E-02
RMM:   8    -0.232030586242E+04    0.86556E-05   -0.18330E-05  2913   0.425E-03
  25 F= -.23412457E+04 E0= -.23412457E+04  d E =-.696049E-01  mag=     4.9998
       N       E                     dE             d eps       ncg     rms          rms(c)
DAV:   1    -0.232024826497E+04    0.57606E-01   -0.41936E+00  4496   0.182E+00    0.761E-01
RMM:   2    -0.232034036056E+04   -0.92096E-01   -0.92031E-01  6428   0.502E-01    0.854E-01
RMM:   3    -0.232034084108E+04   -0.48051E-03   -0.88341E-02  5979   0.168E-01    0.433E-01
RMM:   4    -0.232033960261E+04    0.12385E-02   -0.92519E-03  5550   0.409E-02    0.270E-01
RMM:   5    -0.232033941971E+04    0.18289E-03   -0.18118E-03  4991   0.213E-02    0.272E-01
RMM:   6    -0.232033871171E+04    0.70800E-03   -0.14945E-03  5112   0.217E-02    0.820E-02
RMM:   7    -0.232033870724E+04    0.44680E-05   -0.32590E-04  4143   0.130E-02    0.395E-02
RMM:   8    -0.232033868886E+04    0.18379E-04   -0.54380E-05  3060   0.548E-03    0.242E-02
RMM:   9    -0.232033868420E+04    0.46646E-05   -0.28174E-05  2924   0.450E-03
  26 F= -.23412794E+04 E0= -.23412794E+04  d E =-.337398E-01  mag=     4.9999
       N       E                     dE             d eps       ncg     rms          rms(c)
DAV:   1    -0.232020370559E+04    0.13498E+00   -0.69911E+00  4472   0.235E+00    0.979E-01
RMM:   2    -0.232035800521E+04   -0.15430E+00   -0.15470E+00  6415   0.656E-01    0.110E+00
RMM:   3    -0.232035894088E+04   -0.93566E-03   -0.14758E-01  5979   0.217E-01    0.549E-01
RMM:   4    -0.232035690458E+04    0.20363E-02   -0.15371E-02  5647   0.531E-02    0.343E-01
RMM:   5    -0.232035671554E+04    0.18905E-03   -0.30598E-03  5317   0.278E-02    0.375E-01
RMM:   6    -0.232035543119E+04    0.12844E-02   -0.24485E-03  5221   0.274E-02    0.106E-01
RMM:   7    -0.232035541547E+04    0.15719E-04   -0.52956E-04  4459   0.162E-02    0.502E-02
RMM:   8    -0.232035538557E+04    0.29893E-04   -0.87693E-05  3413   0.675E-03    0.321E-02
RMM:   9    -0.232035537507E+04    0.10502E-04   -0.47934E-05  3014   0.569E-03    0.101E-02
RMM:  10    -0.232035537733E+04   -0.22578E-05   -0.91564E-06  2887   0.371E-03
  27 F= -.23412973E+04 E0= -.23412973E+04  d E =-.516484E-01  mag=     5.0000
       N       E                     dE             d eps       ncg     rms          rms(c)
DAV:   1    -0.232029219569E+04    0.63179E-01   -0.38059E+00  4468   0.171E+00    0.698E-01
RMM:   2    -0.232038286910E+04   -0.90673E-01   -0.94123E-01  6492   0.483E-01    0.597E-01
RMM:   3    -0.232039020158E+04   -0.73325E-02   -0.97597E-02  5954   0.164E-01    0.493E-01
RMM:   4    -0.232038848950E+04    0.17121E-02   -0.91610E-03  5690   0.387E-02    0.240E-01
RMM:   5    -0.232038835646E+04    0.13305E-03   -0.15030E-03  4854   0.173E-02    0.250E-01
RMM:   6    -0.232038783401E+04    0.52245E-03   -0.90349E-04  4829   0.166E-02    0.821E-02
RMM:   7    -0.232038782205E+04    0.11958E-04   -0.32589E-04  4266   0.110E-02    0.362E-02
RMM:   8    -0.232038781392E+04    0.81275E-05   -0.44177E-05  2959   0.660E-03
  28 F= -.23413309E+04 E0= -.23413309E+04  d E =-.336160E-01  mag=     5.0000
       N       E                     dE             d eps       ncg     rms          rms(c)
DAV:   1    -0.231955306477E+04    0.83476E+00   -0.34101E+01  4456   0.517E+00    0.211E+00
RMM:   2    -0.232039060952E+04   -0.83754E+00   -0.87651E+00  6521   0.152E+00    0.167E+00
RMM:   3    -0.232045443727E+04   -0.63828E-01   -0.88170E-01  5931   0.486E-01    0.133E+00
RMM:   4    -0.232044078611E+04    0.13651E-01   -0.80440E-02  6248   0.116E-01    0.651E-01
RMM:   5    -0.232043863182E+04    0.21543E-02   -0.11045E-02  5705   0.500E-02    0.629E-01
RMM:   6    -0.232043584232E+04    0.27895E-02   -0.69819E-03  5627   0.429E-02    0.335E-01
RMM:   7    -0.232043504979E+04    0.79253E-03   -0.27160E-03  5344   0.288E-02    0.118E-01
RMM:   8    -0.232043495030E+04    0.99491E-04   -0.38103E-04  4491   0.163E-02    0.563E-02
RMM:   9    -0.232043490070E+04    0.49601E-04   -0.15450E-04  3602   0.855E-03    0.261E-02
RMM:  10    -0.232043489515E+04    0.55564E-05   -0.51686E-05  3138   0.599E-03
  29 F= -.23413816E+04 E0= -.23413816E+04  d E =-.842748E-01  mag=     5.0000
       N       E                     dE             d eps       ncg     rms          rms(c)
DAV:   1    -0.232035661695E+04    0.78284E-01   -0.41557E+00  4464   0.180E+00    0.740E-01
RMM:   2    -0.232045923895E+04   -0.10262E+00   -0.10737E+00  6504   0.522E-01    0.564E-01
RMM:   3    -0.232046815858E+04   -0.89196E-02   -0.11016E-01  6003   0.172E-01    0.500E-01
RMM:   4    -0.232046636986E+04    0.17887E-02   -0.10471E-02  5818   0.410E-02    0.225E-01
RMM:   5    -0.232046621458E+04    0.15527E-03   -0.12926E-03  4859   0.165E-02    0.231E-01
RMM:   6    -0.232046575871E+04    0.45587E-03   -0.70478E-04  4659   0.156E-02    0.871E-02
RMM:   7    -0.232046569789E+04    0.60820E-04   -0.29918E-04  4507   0.112E-02    0.303E-02
RMM:   8    -0.232046568777E+04    0.10125E-04   -0.38514E-05  2992   0.700E-03    0.142E-02
RMM:   9    -0.232046568313E+04    0.46432E-05   -0.15574E-05  2886   0.379E-03
  30 F= -.23414138E+04 E0= -.23414138E+04  d E =-.322104E-01  mag=     5.0000
       N       E                     dE             d eps       ncg     rms          rms(c)
DAV:   1    -0.232003611596E+04    0.42957E+00   -0.17224E+01  4440   0.367E+00    0.151E+00
RMM:   2    -0.232046374654E+04   -0.42763E+00   -0.44958E+00  6506   0.108E+00    0.108E+00
RMM:   3    -0.232050186545E+04   -0.38119E-01   -0.46817E-01  6014   0.349E-01    0.956E-01
RMM:   4    -0.232049491728E+04    0.69482E-02   -0.43101E-02  6273   0.835E-02    0.419E-01
RMM:   5    -0.232049401309E+04    0.90419E-03   -0.47915E-03  5422   0.328E-02    0.407E-01
RMM:   6    -0.232049280854E+04    0.12045E-02   -0.28040E-03  5381   0.290E-02    0.236E-01
RMM:   7    -0.232049231421E+04    0.49434E-03   -0.13113E-03  5166   0.209E-02    0.677E-02
RMM:   8    -0.232049225287E+04    0.61337E-04   -0.18692E-04  4056   0.127E-02    0.314E-02
RMM:   9    -0.232049222421E+04    0.28660E-04   -0.67395E-05  3281   0.620E-03    0.153E-02
RMM:  10    -0.232049221589E+04    0.83233E-05   -0.23460E-05  2981   0.468E-03
  31 F= -.23414432E+04 E0= -.23414432E+04  d E =-.615788E-01  mag=     5.0000
       N       E                     dE             d eps       ncg     rms          rms(c)
DAV:   1    -0.232041429110E+04    0.77933E-01   -0.44371E+00  4472   0.177E+00    0.741E-01
RMM:   2    -0.232051773454E+04   -0.10344E+00   -0.10767E+00  6525   0.510E-01    0.580E-01
RMM:   3    -0.232052654889E+04   -0.88143E-02   -0.11313E-01  6102   0.171E-01    0.489E-01
RMM:   4    -0.232052499078E+04    0.15581E-02   -0.10723E-02  5690   0.407E-02    0.213E-01
RMM:   5    -0.232052485295E+04    0.13783E-03   -0.12035E-03  4334   0.154E-02    0.205E-01
RMM:   6    -0.232052449253E+04    0.36042E-03   -0.57597E-04  4291   0.144E-02    0.924E-02
RMM:   7    -0.232052442585E+04    0.66676E-04   -0.29530E-04  4270   0.106E-02    0.350E-02
RMM:   8    -0.232052441419E+04    0.11662E-04   -0.40068E-05  2983   0.733E-03    0.131E-02
RMM:   9    -0.232052441209E+04    0.20953E-05   -0.12429E-05  2880   0.355E-03
  32 F= -.23414761E+04 E0= -.23414761E+04  d E =-.328801E-01  mag=     5.0000
       N       E                     dE             d eps       ncg     rms          rms(c)
DAV:   1    -0.231955648858E+04    0.96793E+00   -0.39781E+01  4472   0.531E+00    0.223E+00
RMM:   2    -0.232050728208E+04   -0.95079E+00   -0.99945E+00  6554   0.155E+00    0.154E+00
RMM:   3    -0.232059888623E+04   -0.91604E-01   -0.10375E+00  6098   0.502E-01    0.153E+00
RMM:   4    -0.232058060237E+04    0.18284E-01   -0.91550E-02  6252   0.121E-01    0.615E-01
RMM:   5    -0.232057899496E+04    0.16074E-02   -0.10746E-02  5352   0.442E-02    0.561E-01
RMM:   6    -0.232057666697E+04    0.23280E-02   -0.55309E-03  5464   0.398E-02    0.350E-01
RMM:   7    -0.232057567237E+04    0.99459E-03   -0.30590E-03  4940   0.288E-02    0.127E-01
RMM:   8    -0.232057550343E+04    0.16895E-03   -0.58265E-04  4464   0.205E-02    0.510E-02
RMM:   9    -0.232057546288E+04    0.40548E-04   -0.16819E-04  3680   0.892E-03    0.294E-02
RMM:  10    -0.232057545106E+04    0.11822E-04   -0.47623E-05  3052   0.605E-03    0.118E-02
RMM:  11    -0.232057544867E+04    0.23891E-05   -0.13454E-05  2893   0.362E-03
  33 F= -.23415288E+04 E0= -.23415288E+04  d E =-.856133E-01  mag=     5.0000
       N       E                     dE             d eps       ncg     rms          rms(c)
DAV:   1    -0.232042245493E+04    0.15300E+00   -0.86892E+00  4472   0.250E+00    0.105E+00
RMM:   2    -0.232060223985E+04   -0.17978E+00   -0.19064E+00  6357   0.669E-01    0.595E-01
RMM:   3    -0.232062065259E+04   -0.18413E-01   -0.21575E-01  5952   0.237E-01    0.589E-01
RMM:   4    -0.232061892952E+04    0.17231E-02   -0.19012E-02  6081   0.553E-02    0.287E-01
RMM:   5    -0.232061822886E+04    0.70065E-03   -0.23336E-03  4932   0.241E-02    0.221E-01
RMM:   6    -0.232061801874E+04    0.21012E-03   -0.13534E-03  5044   0.209E-02    0.205E-01
RMM:   7    -0.232061765087E+04    0.36787E-03   -0.74136E-04  4789   0.159E-02    0.536E-02
RMM:   8    -0.232061761342E+04    0.37452E-04   -0.11120E-04  3469   0.958E-03    0.201E-02
RMM:   9    -0.232061760309E+04    0.10329E-04   -0.34491E-05  2976   0.559E-03    0.109E-02
RMM:  10    -0.232061760038E+04    0.27065E-05   -0.12510E-05  2898   0.401E-03
  34 F= -.23415708E+04 E0= -.23415708E+04  d E =-.419977E-01  mag=     5.0000
       N       E                     dE             d eps       ncg     rms          rms(c)
DAV:   1    -0.232049167326E+04    0.12593E+00   -0.61608E+00  4472   0.210E+00    0.880E-01
RMM:   2    -0.232061843858E+04   -0.12677E+00   -0.13445E+00  6368   0.556E-01    0.492E-01
RMM:   3    -0.232063121733E+04   -0.12779E-01   -0.15012E-01  5907   0.196E-01    0.478E-01
RMM:   4    -0.232063009719E+04    0.11201E-02   -0.13476E-02  5895   0.462E-02    0.239E-01
RMM:   5    -0.232062958810E+04    0.50909E-03   -0.15611E-03  4807   0.202E-02    0.185E-01
RMM:   6    -0.232062943805E+04    0.15004E-03   -0.95654E-04  4818   0.178E-02    0.173E-01
RMM:   7    -0.232062917869E+04    0.25936E-03   -0.51620E-04  4632   0.135E-02    0.412E-02
RMM:   8    -0.232062915455E+04    0.24141E-04   -0.70833E-05  3173   0.828E-03    0.160E-02
RMM:   9    -0.232062914682E+04    0.77358E-05   -0.24127E-05  2923   0.486E-03
  35 F= -.23415821E+04 E0= -.23415821E+04  d E =-.533257E-01  mag=     5.0000
       N       E                     dE             d eps       ncg     rms          rms(c)
DAV:   1    -0.232049598453E+04    0.13317E+00   -0.67310E+00  4472   0.211E+00    0.907E-01
RMM:   2    -0.232064417177E+04   -0.14819E+00   -0.15671E+00  6427   0.562E-01    0.442E-01
RMM:   3    -0.232065903926E+04   -0.14867E-01   -0.17593E-01  5786   0.201E-01    0.320E-01
RMM:   4    -0.232065955370E+04   -0.51443E-03   -0.15011E-02  5528   0.429E-02    0.237E-01
RMM:   5    -0.232065897217E+04    0.58153E-03   -0.12240E-03  4622   0.184E-02    0.157E-01
RMM:   6    -0.232065879350E+04    0.17867E-03   -0.87760E-04  5193   0.162E-02    0.138E-01
RMM:   7    -0.232065867730E+04    0.11620E-03   -0.38522E-04  3634   0.112E-02    0.722E-02
RMM:   8    -0.232065863198E+04    0.45319E-04   -0.86221E-05  3134   0.694E-03    0.185E-02
RMM:   9    -0.232065862424E+04    0.77462E-05   -0.23986E-05  2923   0.510E-03
  36 F= -.23416111E+04 E0= -.23416111E+04  d E =-.289352E-01  mag=     5.0000
       N       E                     dE             d eps       ncg     rms          rms(c)
DAV:   1    -0.232036619827E+04    0.29243E+00   -0.12741E+01  4472   0.290E+00    0.125E+00
RMM:   2    -0.232064857581E+04   -0.28238E+00   -0.29868E+00  6402   0.773E-01    0.623E-01
RMM:   3    -0.232067703212E+04   -0.28456E-01   -0.34087E-01  5775   0.284E-01    0.469E-01
RMM:   4    -0.232067787110E+04   -0.83899E-03   -0.28376E-02  5842   0.593E-02    0.339E-01
RMM:   5    -0.232067678111E+04    0.10900E-02   -0.24751E-03  5025   0.243E-02    0.237E-01
RMM:   6    -0.232067640528E+04    0.37582E-03   -0.16335E-03  5382   0.211E-02    0.209E-01
RMM:   7    -0.232067610233E+04    0.30295E-03   -0.90329E-04  4569   0.161E-02    0.922E-02
RMM:   8    -0.232067601295E+04    0.89380E-04   -0.20353E-04  3863   0.947E-03    0.291E-02
RMM:   9    -0.232067599273E+04    0.20220E-04   -0.53279E-05  3035   0.683E-03    0.133E-02
RMM:  10    -0.232067598800E+04    0.47303E-05   -0.21197E-05  2933   0.417E-03
  37 F= -.23416276E+04 E0= -.23416276E+04  d E =-.454525E-01  mag=     5.0000
       N       E                     dE             d eps       ncg     rms          rms(c)
DAV:   1    -0.232058908455E+04    0.86908E-01   -0.43287E+00  4512   0.173E+00    0.746E-01
RMM:   2    -0.232069304027E+04   -0.10396E+00   -0.10908E+00  6443   0.472E-01    0.387E-01
RMM:   3    -0.232070343561E+04   -0.10395E-01   -0.11680E-01  5953   0.171E-01    0.355E-01
RMM:   4    -0.232070318575E+04    0.24986E-03   -0.10341E-02  5282   0.341E-02    0.210E-01
RMM:   5    -0.232070279308E+04    0.39268E-03   -0.79088E-04  4265   0.160E-02    0.116E-01
RMM:   6    -0.232070265619E+04    0.13689E-03   -0.53941E-04  4726   0.138E-02    0.723E-02
RMM:   7    -0.232070264060E+04    0.15586E-04   -0.24681E-04  3416   0.120E-02    0.582E-02
RMM:   8    -0.232070260046E+04    0.40143E-04   -0.55825E-05  2987   0.611E-03    0.143E-02
RMM:   9    -0.232070259535E+04    0.51131E-05   -0.17606E-05  2894   0.431E-03
  38 F= -.23416535E+04 E0= -.23416535E+04  d E =-.259058E-01  mag=     5.0000
       N       E                     dE             d eps       ncg     rms          rms(c)
DAV:   1    -0.232042888076E+04    0.27372E+00   -0.11006E+01  4472   0.276E+00    0.119E+00
RMM:   2    -0.232069400486E+04   -0.26512E+00   -0.27858E+00  6443   0.757E-01    0.596E-01
RMM:   3    -0.232072100976E+04   -0.27005E-01   -0.31165E-01  5958   0.281E-01    0.513E-01
RMM:   4    -0.232072083558E+04    0.17418E-03   -0.26066E-02  5797   0.533E-02    0.356E-01
RMM:   5    -0.232071980485E+04    0.10307E-02   -0.20928E-03  4904   0.244E-02    0.200E-01
RMM:   6    -0.232071934376E+04    0.46109E-03   -0.13693E-03  4903   0.205E-02    0.108E-01
RMM:   7    -0.232071933470E+04    0.90585E-05   -0.69401E-04  4310   0.194E-02    0.995E-02
RMM:   8    -0.232071921926E+04    0.11544E-03   -0.17968E-04  3762   0.882E-03    0.289E-02
RMM:   9    -0.232071919826E+04    0.21000E-04   -0.47763E-05  2956   0.632E-03    0.123E-02
RMM:  10    -0.232071919634E+04    0.19148E-05   -0.19011E-05  2945   0.371E-03
  39 F= -.23416689E+04 E0= -.23416689E+04  d E =-.413719E-01  mag=     5.0000
       N       E                     dE             d eps       ncg     rms          rms(c)
DAV:   1    -0.232063335986E+04    0.85838E-01   -0.38178E+00  4592   0.160E+00    0.726E-01
RMM:   2    -0.232073176166E+04   -0.98402E-01   -0.10269E+00  6479   0.452E-01    0.411E-01
RMM:   3    -0.232074185293E+04   -0.10091E-01   -0.11131E-01  5935   0.174E-01    0.420E-01
RMM:   4    -0.232074100659E+04    0.84634E-03   -0.99659E-03  5055   0.333E-02    0.180E-01
RMM:   5    -0.232074071215E+04    0.29444E-03   -0.66203E-04  3743   0.142E-02    0.108E-01
RMM:   6    -0.232074062965E+04    0.82502E-04   -0.45661E-04  4705   0.120E-02    0.830E-02
RMM:   7    -0.232074058967E+04    0.39974E-04   -0.23472E-04  3197   0.109E-02    0.505E-02
RMM:   8    -0.232074056197E+04    0.27705E-04   -0.50858E-05  2999   0.567E-03    0.139E-02
RMM:   9    -0.232074055911E+04    0.28528E-05   -0.14359E-05  2883   0.407E-03
  40 F= -.23416894E+04 E0= -.23416894E+04  d E =-.204759E-01  mag=     5.0000
       N       E                     dE             d eps       ncg     rms          rms(c)
DAV:   1    -0.231977528841E+04    0.96527E+00   -0.34242E+01  4480   0.481E+00    0.219E+00
RMM:   2    -0.232068207979E+04   -0.90679E+00   -0.95103E+00  6525   0.140E+00    0.113E+00
RMM:   3    -0.232077843404E+04   -0.96354E-01   -0.10756E+00  6008   0.527E-01    0.113E+00
RMM:   4    -0.232077286545E+04    0.55686E-02   -0.87732E-02  5969   0.966E-02    0.597E-01
RMM:   5    -0.232076999772E+04    0.28677E-02   -0.66913E-03  5090   0.400E-02    0.363E-01
RMM:   6    -0.232076876480E+04    0.12329E-02   -0.43665E-03  5254   0.321E-02    0.248E-01
RMM:   7    -0.232076858808E+04    0.17673E-03   -0.27105E-03  4728   0.323E-02    0.189E-01
RMM:   8    -0.232076818623E+04    0.40185E-03   -0.71626E-04  4974   0.157E-02    0.588E-02
RMM:   9    -0.232076812552E+04    0.60707E-04   -0.16172E-04  3186   0.972E-03    0.224E-02
RMM:  10    -0.232076812571E+04   -0.18672E-06   -0.49612E-05  2975   0.499E-03
  41 F= -.23417144E+04 E0= -.23417144E+04  d E =-.454961E-01  mag=     5.0000
       N       E                     dE             d eps       ncg     rms          rms(c)
DAV:   1    -0.232060044220E+04    0.16768E+00   -0.70752E+00  4504   0.218E+00    0.100E+00
RMM:   2    -0.232077926308E+04   -0.17882E+00   -0.18544E+00  6438   0.620E-01    0.642E-01
RMM:   3    -0.232079663604E+04   -0.17373E-01   -0.19492E-01  6057   0.226E-01    0.668E-01
RMM:   4    -0.232079359902E+04    0.30370E-02   -0.17934E-02  5703   0.475E-02    0.243E-01
RMM:   5    -0.232079301276E+04    0.58626E-03   -0.14524E-03  4697   0.213E-02    0.144E-01
RMM:   6    -0.232079277553E+04    0.23722E-03   -0.10776E-03  5088   0.187E-02    0.678E-02
RMM:   7    -0.232079273611E+04    0.39422E-04   -0.23179E-04  3958   0.135E-02    0.244E-02
RMM:   8    -0.232079272628E+04    0.98352E-05   -0.52602E-05  3017   0.557E-03
  42 F= -.23417376E+04 E0= -.23417376E+04  d E =-.231945E-01  mag=     5.0000
       N       E                     dE             d eps       ncg     rms          rms(c)
DAV:   1    -0.232065326037E+04    0.13948E+00   -0.54614E+00  4544   0.191E+00    0.879E-01
RMM:   2    -0.232079073446E+04   -0.13747E+00   -0.14245E+00  6426   0.542E-01    0.563E-01
RMM:   3    -0.232080378629E+04   -0.13052E-01   -0.14711E-01  6045   0.194E-01    0.584E-01
RMM:   4    -0.232080153101E+04    0.22553E-02   -0.13747E-02  5612   0.416E-02    0.211E-01
RMM:   5    -0.232080108508E+04    0.44593E-03   -0.10971E-03  4515   0.188E-02    0.124E-01
RMM:   6    -0.232080092177E+04    0.16331E-03   -0.79630E-04  4997   0.164E-02    0.669E-02
RMM:   7    -0.232080090473E+04    0.17040E-04   -0.22854E-04  3571   0.127E-02    0.524E-02
RMM:   8    -0.232080087578E+04    0.28947E-04   -0.57005E-05  2992   0.573E-03    0.194E-02
RMM:   9    -0.232080086776E+04    0.80239E-05   -0.23346E-05  2897   0.441E-03
  43 F= -.23417446E+04 E0= -.23417446E+04  d E =-.301503E-01  mag=     5.0000
       N       E                     dE             d eps       ncg     rms          rms(c)
DAV:   1    -0.232070070882E+04    0.10017E+00   -0.50909E+00  4500   0.196E+00    0.829E-01
RMM:   2    -0.232081418786E+04   -0.11348E+00   -0.11652E+00  6331   0.507E-01    0.591E-01
RMM:   3    -0.232082404335E+04   -0.98555E-02   -0.11634E-01  5983   0.183E-01    0.582E-01
RMM:   4    -0.232082136041E+04    0.26829E-02   -0.11197E-02  5648   0.404E-02    0.192E-01
RMM:   5    -0.232082097726E+04    0.38315E-03   -0.10841E-03  4652   0.188E-02    0.124E-01
RMM:   6    -0.232082096036E+04    0.16903E-04   -0.94124E-04  5063   0.183E-02    0.121E-01
RMM:   7    -0.232082080380E+04    0.15655E-03   -0.27203E-04  4217   0.118E-02    0.397E-02
RMM:   8    -0.232082078826E+04    0.15546E-04   -0.54814E-05  3009   0.567E-03    0.158E-02
RMM:   9    -0.232082078555E+04    0.27094E-05   -0.19428E-05  2878   0.457E-03
  44 F= -.23417633E+04 E0= -.23417633E+04  d E =-.186855E-01  mag=     5.0000
       N       E                     dE             d eps       ncg     rms          rms(c)
DAV:   1    -0.232075487898E+04    0.65909E-01   -0.30489E+00  4528   0.152E+00    0.642E-01
RMM:   2    -0.232082269010E+04   -0.67811E-01   -0.69457E-01  6322   0.388E-01    0.471E-01
RMM:   3    -0.232082838397E+04   -0.56939E-02   -0.68844E-02  5952   0.141E-01    0.448E-01
RMM:   4    -0.232082680266E+04    0.15813E-02   -0.66592E-03  5421   0.314E-02    0.146E-01
RMM:   5    -0.232082657390E+04    0.22876E-03   -0.64080E-04  4268   0.148E-02    0.925E-02
RMM:   6    -0.232082657108E+04    0.28216E-05   -0.55682E-04  4744   0.146E-02    0.934E-02
RMM:   7    -0.232082647626E+04    0.94818E-04   -0.15273E-04  3542   0.949E-03    0.288E-02
RMM:   8    -0.232082646850E+04    0.77675E-05   -0.32488E-05  2966   0.492E-03
  45 F= -.23417680E+04 E0= -.23417680E+04  d E =-.234419E-01  mag=     5.0000
       N       E                     dE             d eps       ncg     rms          rms(c)
DAV:   1    -0.232073064483E+04    0.95831E-01   -0.48869E+00  4484   0.193E+00    0.792E-01
RMM:   2    -0.232083923907E+04   -0.10859E+00   -0.11135E+00  6319   0.480E-01    0.552E-01
RMM:   3    -0.232084909669E+04   -0.98576E-02   -0.11266E-01  5910   0.184E-01    0.546E-01
RMM:   4    -0.232084679935E+04    0.22973E-02   -0.10805E-02  5492   0.384E-02    0.188E-01
RMM:   5    -0.232084648203E+04    0.31732E-03   -0.86523E-04  4406   0.164E-02    0.131E-01
RMM:   6    -0.232084644350E+04    0.38532E-04   -0.84398E-04  4727   0.169E-02    0.121E-01
RMM:   7    -0.232084628559E+04    0.15791E-03   -0.27201E-04  4371   0.113E-02    0.360E-02
RMM:   8    -0.232084627322E+04    0.12370E-04   -0.49901E-05  2983   0.623E-03    0.156E-02
RMM:   9    -0.232084627048E+04    0.27359E-05   -0.18759E-05  2882   0.434E-03
  46 F= -.23417868E+04 E0= -.23417868E+04  d E =-.187461E-01  mag=     5.0000
       N       E                     dE             d eps       ncg     rms          rms(c)
DAV:   1    -0.232030687273E+04    0.53940E+00   -0.23080E+01  4472   0.420E+00    0.172E+00
RMM:   2    -0.232082313918E+04   -0.51627E+00   -0.53273E+00  6333   0.106E+00    0.105E+00
RMM:   3    -0.232087424131E+04   -0.51102E-01   -0.55320E-01  5913   0.410E-01    0.115E+00
RMM:   4    -0.232086399174E+04    0.10250E-01   -0.50839E-02  5932   0.820E-02    0.438E-01
RMM:   5    -0.232086239558E+04    0.15962E-02   -0.43459E-03  5283   0.340E-02    0.298E-01
RMM:   6    -0.232086200165E+04    0.39393E-03   -0.40722E-03  5463   0.347E-02    0.257E-01
RMM:   7    -0.232086131683E+04    0.68482E-03   -0.14969E-03  5381   0.229E-02    0.103E-01
RMM:   8    -0.232086120434E+04    0.11249E-03   -0.32608E-04  4245   0.120E-02    0.401E-02
RMM:   9    -0.232086118052E+04    0.23823E-04   -0.10913E-04  3188   0.793E-03    0.208E-02
RMM:  10    -0.232086118060E+04   -0.79337E-07   -0.31394E-05  2925   0.487E-03
  47 F= -.23417996E+04 E0= -.23417996E+04  d E =-.315195E-01  mag=     5.0000
       N       E                     dE             d eps       ncg     rms          rms(c)
DAV:   1    -0.232081300189E+04    0.48179E-01   -0.26202E+00  4528   0.140E+00    0.566E-01
RMM:   2    -0.232086907074E+04   -0.56069E-01   -0.57489E-01  6348   0.339E-01    0.378E-01
RMM:   3    -0.232087416383E+04   -0.50931E-02   -0.57416E-02  5838   0.134E-01    0.376E-01
RMM:   4    -0.232087313642E+04    0.10274E-02   -0.56019E-03  4869   0.275E-02    0.132E-01
RMM:   5    -0.232087297431E+04    0.16211E-03   -0.38128E-04  3794   0.112E-02    0.871E-02
RMM:   6    -0.232087297795E+04   -0.36408E-05   -0.43029E-04  4127   0.126E-02    0.860E-02
RMM:   7    -0.232087289637E+04    0.81581E-04   -0.12233E-04  3478   0.801E-03    0.224E-02
RMM:   8    -0.232087289277E+04    0.35965E-05   -0.21340E-05  2916   0.477E-03
  48 F= -.23418105E+04 E0= -.23418105E+04  d E =-.109813E-01  mag=     5.0000
       N       E                     dE             d eps       ncg     rms          rms(c)
DAV:   1    -0.232034194194E+04    0.53095E+00   -0.23559E+01  4472   0.420E+00    0.170E+00
RMM:   2    -0.232084983968E+04   -0.50790E+00   -0.52446E+00  6351   0.104E+00    0.969E-01
RMM:   3    -0.232090026350E+04   -0.50424E-01   -0.54685E-01  5881   0.405E-01    0.104E+00
RMM:   4    -0.232089245812E+04    0.78054E-02   -0.50399E-02  5939   0.792E-02    0.444E-01
RMM:   5    -0.232089087080E+04    0.15873E-02   -0.37455E-03  5199   0.314E-02    0.290E-01
RMM:   6    -0.232089050989E+04    0.36091E-03   -0.39190E-03  5430   0.336E-02    0.247E-01
RMM:   7    -0.232088989994E+04    0.60996E-03   -0.14124E-03  5401   0.214E-02    0.104E-01
RMM:   8    -0.232088978940E+04    0.11054E-03   -0.29872E-04  3984   0.110E-02    0.385E-02
RMM:   9    -0.232088976819E+04    0.21205E-04   -0.97854E-05  3068   0.756E-03    0.202E-02
RMM:  10    -0.232088976858E+04   -0.38931E-06   -0.28209E-05  2906   0.456E-03
  49 F= -.23418254E+04 E0= -.23418254E+04  d E =-.258168E-01  mag=     5.0000
       N       E                     dE             d eps       ncg     rms          rms(c)
DAV:   1    -0.232088801971E+04    0.17485E-02   -0.79734E-01  4608   0.862E-01    0.312E-01
RMM:   2    -0.232090050736E+04   -0.12488E-01   -0.13235E-01  6099   0.192E-01    0.147E-01
RMM:   3    -0.232090138215E+04   -0.87479E-03   -0.12008E-02  5520   0.710E-02    0.113E-01
RMM:   4    -0.232090141242E+04   -0.30264E-04   -0.12689E-03  4367   0.162E-02    0.107E-01
RMM:   5    -0.232090129877E+04    0.11364E-03   -0.22674E-04  4009   0.109E-02    0.407E-02
RMM:   6    -0.232090128667E+04    0.12101E-04   -0.81038E-05  3703   0.806E-03    0.166E-02
RMM:   7    -0.232090128780E+04   -0.11244E-05   -0.21466E-05  2895   0.563E-03
  50 F= -.23418365E+04 E0= -.23418365E+04  d E =-.111477E-01  mag=     5.0000
       N       E                     dE             d eps       ncg     rms          rms(c)
DAV:   1    -0.232086695726E+04    0.34329E-01   -0.25488E+00  4480   0.154E+00    0.557E-01
RMM:   2    -0.232090696439E+04   -0.40007E-01   -0.42411E-01  6029   0.342E-01    0.260E-01
RMM:   3    -0.232090973305E+04   -0.27687E-02   -0.38935E-02  5564   0.131E-01    0.185E-01
RMM:   4    -0.232090990694E+04   -0.17389E-03   -0.40873E-03  5321   0.289E-02    0.198E-01
RMM:   5    -0.232090953185E+04    0.37509E-03   -0.71425E-04  4760   0.182E-02    0.790E-02
RMM:   6    -0.232090947606E+04    0.55787E-04   -0.27871E-04  4746   0.121E-02    0.307E-02
RMM:   7    -0.232090947729E+04   -0.12226E-05   -0.65483E-05  3029   0.832E-03
  51 F= -.23418441E+04 E0= -.23418441E+04  d E =-.186817E-01  mag=     5.0000
       N       E                     dE             d eps       ncg     rms          rms(c)
DAV:   1    -0.232090172118E+04    0.77549E-02   -0.11610E+00  4464   0.107E+00    0.368E-01
RMM:   2    -0.232091911707E+04   -0.17396E-01   -0.18492E-01  6125   0.232E-01    0.161E-01
RMM:   3    -0.232092047574E+04   -0.13587E-02   -0.18070E-02  5487   0.837E-02    0.134E-01
RMM:   4    -0.232092054338E+04   -0.67635E-04   -0.16499E-03  4370   0.179E-02    0.113E-01
RMM:   5    -0.232092040401E+04    0.13937E-03   -0.24984E-04  4171   0.111E-02    0.536E-02
RMM:   6    -0.232092038907E+04    0.14941E-04   -0.12872E-04  4119   0.898E-03    0.387E-02
RMM:   7    -0.232092037732E+04    0.11752E-04   -0.41202E-05  2918   0.659E-03    0.164E-02
RMM:   8    -0.232092037435E+04    0.29707E-05   -0.70127E-06  2854   0.296E-03
  52 F= -.23418544E+04 E0= -.23418544E+04  d E =-.103233E-01  mag=     5.0000
       N       E                     dE             d eps       ncg     rms          rms(c)
DAV:   1    -0.232085990109E+04    0.60476E-01   -0.43359E+00  4440   0.208E+00    0.710E-01
RMM:   2    -0.232092448032E+04   -0.64579E-01   -0.68607E-01  6128   0.451E-01    0.306E-01
RMM:   3    -0.232092960393E+04   -0.51236E-02   -0.68032E-02  5608   0.162E-01    0.214E-01
RMM:   4    -0.232092997076E+04   -0.36683E-03   -0.60413E-03  5456   0.342E-02    0.208E-01
RMM:   5    -0.232092954617E+04    0.42459E-03   -0.95074E-04  5008   0.197E-02    0.118E-01
RMM:   6    -0.232092942823E+04    0.11794E-03   -0.43965E-04  4683   0.146E-02    0.704E-02
RMM:   7    -0.232092939510E+04    0.33133E-04   -0.14521E-04  3188   0.106E-02    0.371E-02
RMM:   8    -0.232092937803E+04    0.17067E-04   -0.23999E-05  2902   0.434E-03    0.116E-02
RMM:   9    -0.232092937446E+04    0.35699E-05   -0.99982E-06  2885   0.307E-03
  53 F= -.23418623E+04 E0= -.23418623E+04  d E =-.182211E-01  mag=     5.0000
       N       E                     dE             d eps       ncg     rms          rms(c)
DAV:   1    -0.232091640486E+04    0.12973E-01   -0.18447E+00  4468   0.133E+00    0.440E-01
RMM:   2    -0.232093930828E+04   -0.22903E-01   -0.24518E-01  6068   0.289E-01    0.205E-01
RMM:   3    -0.232094063809E+04   -0.13298E-02   -0.22039E-02  5529   0.997E-02    0.130E-01
RMM:   4    -0.232094072057E+04   -0.82474E-04   -0.23571E-03  4994   0.254E-02    0.142E-01
RMM:   5    -0.232094056478E+04    0.15579E-03   -0.50400E-04  4628   0.160E-02    0.859E-02
RMM:   6    -0.232094049692E+04    0.67856E-04   -0.14346E-04  4202   0.904E-03    0.179E-02
RMM:   7    -0.232094049157E+04    0.53589E-05   -0.26617E-05  2936   0.643E-03
  54 F= -.23418726E+04 E0= -.23418726E+04  d E =-.103060E-01  mag=     5.0000
       N       E                     dE             d eps       ncg     rms          rms(c)
DAV:   1    -0.232093602460E+04    0.44723E-02   -0.46624E-01  4640   0.671E-01    0.222E-01
RMM:   2    -0.232094181923E+04   -0.57946E-02   -0.62139E-02  6021   0.146E-01    0.103E-01
RMM:   3    -0.232094216790E+04   -0.34866E-03   -0.56877E-03  5264   0.499E-02    0.742E-02
RMM:   4    -0.232094219462E+04   -0.26728E-04   -0.62416E-04  3917   0.133E-02    0.722E-02
RMM:   5    -0.232094212626E+04    0.68362E-04   -0.13347E-04  3740   0.918E-03    0.292E-02
RMM:   6    -0.232094211556E+04    0.10698E-04   -0.40515E-05  3166   0.655E-03    0.890E-03
RMM:   7    -0.232094211367E+04    0.18937E-05   -0.98337E-06  2871   0.452E-03
  55 F= -.23418738E+04 E0= -.23418738E+04  d E =-.115232E-01  mag=     5.0000
       N       E                     dE             d eps       ncg     rms          rms(c)
DAV:   1    -0.232093147261E+04    0.10643E-01   -0.21836E+00  4472   0.140E+00    0.428E-01
RMM:   2    -0.232095189312E+04   -0.20421E-01   -0.21693E-01  6059   0.273E-01    0.253E-01
RMM:   3    -0.232095330231E+04   -0.14092E-02   -0.19032E-02  5553   0.921E-02    0.283E-01
RMM:   4    -0.232095268804E+04    0.61428E-03   -0.23090E-03  5105   0.243E-02    0.122E-01
RMM:   5    -0.232095251539E+04    0.17265E-03   -0.54971E-04  4578   0.158E-02    0.469E-02
RMM:   6    -0.232095251758E+04   -0.21921E-05   -0.14117E-04  4032   0.107E-02    0.337E-02
RMM:   7    -0.232095250690E+04    0.10684E-04   -0.41109E-05  2988   0.548E-03    0.177E-02
RMM:   8    -0.232095250349E+04    0.34060E-05   -0.70834E-06  2857   0.344E-03
  56 F= -.23418838E+04 E0= -.23418838E+04  d E =-.100476E-01  mag=     5.0000
       N       E                     dE             d eps       ncg     rms          rms(c)
DAV:   1    -0.232094253347E+04    0.99734E-02   -0.13084E+00  4496   0.108E+00    0.331E-01
RMM:   2    -0.232095474429E+04   -0.12211E-01   -0.12991E-01  6095   0.212E-01    0.191E-01
RMM:   3    -0.232095556019E+04   -0.81590E-03   -0.11287E-02  5507   0.694E-02    0.211E-01
RMM:   4    -0.232095523800E+04    0.32219E-03   -0.13735E-03  4514   0.188E-02    0.962E-02
RMM:   5    -0.232095513195E+04    0.10605E-03   -0.34829E-04  4313   0.128E-02    0.396E-02
RMM:   6    -0.232095513901E+04   -0.70635E-05   -0.10091E-04  3517   0.929E-03    0.380E-02
RMM:   7    -0.232095512236E+04    0.16655E-04   -0.36435E-05  2941   0.548E-03    0.124E-02
RMM:   8    -0.232095512088E+04    0.14819E-05   -0.63614E-06  2864   0.318E-03
  57 F= -.23418862E+04 E0= -.23418862E+04  d E =-.124073E-01  mag=     5.0000
       N       E                     dE             d eps       ncg     rms          rms(c)
DAV:   1    -0.232094349448E+04    0.11628E-01   -0.20450E+00  4484   0.138E+00    0.415E-01
RMM:   2    -0.232096439201E+04   -0.20898E-01   -0.21720E-01  6087   0.274E-01    0.298E-01
RMM:   3    -0.232096553242E+04   -0.11404E-02   -0.18602E-02  5602   0.872E-02    0.285E-01
RMM:   4    -0.232096485726E+04    0.67516E-03   -0.21863E-03  5064   0.241E-02    0.119E-01
RMM:   5    -0.232096478606E+04    0.71197E-04   -0.63560E-04  4756   0.163E-02    0.100E-01
RMM:   6    -0.232096469200E+04    0.94063E-04   -0.31852E-04  4543   0.125E-02    0.575E-02
RMM:   7    -0.232096465487E+04    0.37128E-04   -0.61323E-05  3155   0.703E-03    0.106E-02
RMM:   8    -0.232096465391E+04    0.96064E-06   -0.11179E-05  2881   0.395E-03
  58 F= -.23418956E+04 E0= -.23418956E+04  d E =-.938392E-02  mag=     5.0000
       N       E                     dE             d eps       ncg     rms          rms(c)
DAV:   1    -0.232094788138E+04    0.16773E-01   -0.19228E+00  4496   0.133E+00    0.402E-01
RMM:   2    -0.232096755815E+04   -0.19677E-01   -0.20451E-01  6086   0.266E-01    0.290E-01
RMM:   3    -0.232096859431E+04   -0.10362E-02   -0.17101E-02  5591   0.850E-02    0.279E-01
RMM:   4    -0.232096794277E+04    0.65154E-03   -0.20478E-03  5082   0.235E-02    0.116E-01
RMM:   5    -0.232096787462E+04    0.68153E-04   -0.60284E-04  4733   0.159E-02    0.983E-02
RMM:   6    -0.232096778064E+04    0.93986E-04   -0.30145E-04  4480   0.122E-02    0.559E-02
RMM:   7    -0.232096774515E+04    0.35482E-04   -0.59687E-05  3142   0.692E-03    0.104E-02
RMM:   8    -0.232096774403E+04    0.11188E-05   -0.11157E-05  2882   0.400E-03
  59 F= -.23418985E+04 E0= -.23418985E+04  d E =-.123356E-01  mag=     5.0000
       N       E                     dE             d eps       ncg     rms          rms(c)
DAV:   1    -0.232094602931E+04    0.21716E-01   -0.24584E+00  4456   0.153E+00    0.502E-01
RMM:   2    -0.232097528902E+04   -0.29260E-01   -0.30422E-01  6128   0.317E-01    0.354E-01
RMM:   3    -0.232097698532E+04   -0.16963E-02   -0.25863E-02  5588   0.105E-01    0.326E-01
RMM:   4    -0.232097607669E+04    0.90864E-03   -0.29317E-03  5244   0.275E-02    0.134E-01
RMM:   5    -0.232097600674E+04    0.69945E-04   -0.75056E-04  4840   0.177E-02    0.117E-01
RMM:   6    -0.232097587662E+04    0.13012E-03   -0.39499E-04  4752   0.133E-02    0.669E-02
RMM:   7    -0.232097583305E+04    0.43571E-04   -0.84346E-05  3249   0.798E-03    0.117E-02
RMM:   8    -0.232097583245E+04    0.59984E-06   -0.13959E-05  2906   0.443E-03
  60 F= -.23419065E+04 E0= -.23419065E+04  d E =-.792391E-02  mag=     5.0000
       N       E                     dE             d eps       ncg     rms          rms(c)
DAV:   1    -0.232097039438E+04    0.54387E-02   -0.52340E-01  4528   0.706E-01    0.232E-01
RMM:   2    -0.232097664829E+04   -0.62539E-02   -0.64948E-02  6130   0.147E-01    0.165E-01
RMM:   3    -0.232097699711E+04   -0.34882E-03   -0.56054E-03  5173   0.498E-02    0.149E-01
RMM:   4    -0.232097681163E+04    0.18548E-03   -0.62880E-04  3991   0.130E-02    0.637E-02
RMM:   5    -0.232097679833E+04    0.13307E-04   -0.16553E-04  3465   0.912E-03    0.583E-02
RMM:   6    -0.232097676246E+04    0.35869E-04   -0.97037E-05  3344   0.783E-03    0.289E-02
RMM:   7    -0.232097675465E+04    0.78046E-05   -0.21657E-05  2917   0.553E-03
  61 F= -.23419073E+04 E0= -.23419073E+04  d E =-.876700E-02  mag=     5.0000
       N       E                     dE             d eps       ncg     rms          rms(c)
DAV:   1    -0.232095277261E+04    0.23990E-01   -0.21954E+00  4472   0.144E+00    0.456E-01
RMM:   2    -0.232098375525E+04   -0.30983E-01   -0.31935E-01  6074   0.306E-01    0.341E-01
RMM:   3    -0.232098536005E+04   -0.16048E-02   -0.26684E-02  5469   0.110E-01    0.291E-01
RMM:   4    -0.232098475390E+04    0.60615E-03   -0.29862E-03  5182   0.264E-02    0.125E-01
RMM:   5    -0.232098463361E+04    0.12029E-03   -0.65555E-04  4717   0.168E-02    0.874E-02
RMM:   6    -0.232098461086E+04    0.22756E-04   -0.31831E-04  4526   0.120E-02    0.772E-02
RMM:   7    -0.232098454956E+04    0.61295E-04   -0.91642E-05  3130   0.776E-03    0.138E-02
RMM:   8    -0.232098454971E+04   -0.14350E-06   -0.16594E-05  2912   0.422E-03
  62 F= -.23419148E+04 E0= -.23419148E+04  d E =-.753711E-02  mag=     5.0000
       N       E                     dE             d eps       ncg     rms          rms(c)
DAV:   1    -0.232096169919E+04    0.22850E-01   -0.17234E+00  4472   0.127E+00    0.403E-01
RMM:   2    -0.232098596854E+04   -0.24269E-01   -0.25025E-01  6148   0.271E-01    0.298E-01
RMM:   3    -0.232098723943E+04   -0.12709E-02   -0.20902E-02  5479   0.940E-02    0.254E-01
RMM:   4    -0.232098678091E+04    0.45852E-03   -0.23458E-03  5039   0.232E-02    0.111E-01
RMM:   5    -0.232098668648E+04    0.94428E-04   -0.51783E-04  4589   0.151E-02    0.794E-02
RMM:   6    -0.232098666303E+04    0.23455E-04   -0.25534E-04  4286   0.109E-02    0.677E-02
RMM:   7    -0.232098661642E+04    0.46610E-04   -0.71994E-05  3051   0.723E-03    0.131E-02
RMM:   8    -0.232098661644E+04   -0.28886E-07   -0.14124E-05  2902   0.406E-03
  63 F= -.23419167E+04 E0= -.23419167E+04  d E =-.937058E-02  mag=     5.0000
       N       E                     dE             d eps       ncg     rms          rms(c)
DAV:   1    -0.232096747959E+04    0.19137E-01   -0.17419E+00  4472   0.129E+00    0.391E-01
RMM:   2    -0.232099240152E+04   -0.24922E-01   -0.25554E-01  6102   0.272E-01    0.298E-01
RMM:   3    -0.232099393693E+04   -0.15354E-02   -0.23018E-02  5437   0.103E-01    0.258E-01
RMM:   4    -0.232099349152E+04    0.44541E-03   -0.23696E-03  4931   0.225E-02    0.105E-01
RMM:   5    -0.232099336815E+04    0.12337E-03   -0.39258E-04  4375   0.132E-02    0.560E-02
RMM:   6    -0.232099339786E+04   -0.29712E-04   -0.20689E-04  4103   0.104E-02    0.683E-02
RMM:   7    -0.232099334552E+04    0.52348E-04   -0.74675E-05  2999   0.710E-03    0.139E-02
RMM:   8    -0.232099334484E+04    0.67517E-06   -0.12127E-05  2901   0.349E-03
  64 F= -.23419231E+04 E0= -.23419231E+04  d E =-.642829E-02  mag=     5.0000
       N       E                     dE             d eps       ncg     rms          rms(c)
DAV:   1    -0.232093619366E+04    0.57152E-01   -0.41001E+00  4472   0.197E+00    0.602E-01
RMM:   2    -0.232099533612E+04   -0.59142E-01   -0.60571E-01  6089   0.418E-01    0.475E-01
RMM:   3    -0.232099882026E+04   -0.34841E-02   -0.54957E-02  5501   0.157E-01    0.399E-01
RMM:   4    -0.232099775516E+04    0.10651E-02   -0.55545E-03  5322   0.344E-02    0.160E-01
RMM:   5    -0.232099744444E+04    0.31073E-03   -0.90655E-04  4897   0.194E-02    0.768E-02
RMM:   6    -0.232099746499E+04   -0.20553E-04   -0.39597E-04  4778   0.143E-02    0.741E-02
RMM:   7    -0.232099740883E+04    0.56160E-04   -0.11830E-04  3147   0.859E-03    0.241E-02
RMM:   8    -0.232099740416E+04    0.46671E-05   -0.16887E-05  2906   0.384E-03
  65 F= -.23419267E+04 E0= -.23419267E+04  d E =-.100336E-01  mag=     5.0000
       N       E                     dE             d eps       ncg     rms          rms(c)
DAV:   1    -0.232096728940E+04    0.30119E-01   -0.29700E+00  4472   0.170E+00    0.528E-01
RMM:   2    -0.232100367908E+04   -0.36390E-01   -0.37462E-01  6000   0.349E-01    0.388E-01
RMM:   3    -0.232100600539E+04   -0.23263E-02   -0.33086E-02  5593   0.126E-01    0.375E-01
RMM:   4    -0.232100486927E+04    0.11361E-02   -0.36127E-03  5257   0.304E-02    0.135E-01
RMM:   5    -0.232100463690E+04    0.23237E-03   -0.71107E-04  4846   0.187E-02    0.589E-02
RMM:   6    -0.232100461309E+04    0.23809E-04   -0.25301E-04  4534   0.132E-02    0.216E-02
RMM:   7    -0.232100460959E+04    0.35021E-05   -0.26181E-05  3018   0.629E-03
  66 F= -.23419335E+04 E0= -.23419335E+04  d E =-.673929E-02  mag=     5.0000
       N       E                     dE             d eps       ncg     rms          rms(c)
DAV:   1    -0.232099839939E+04    0.62137E-02   -0.53696E-01  4560   0.726E-01    0.227E-01
RMM:   2    -0.232100517044E+04   -0.67711E-02   -0.69479E-02  6008   0.150E-01    0.172E-01
RMM:   3    -0.232100560408E+04   -0.43363E-03   -0.62134E-03  5351   0.525E-02    0.163E-01
RMM:   4    -0.232100537965E+04    0.22442E-03   -0.63819E-04  3844   0.132E-02    0.578E-02
RMM:   5    -0.232100533641E+04    0.43243E-04   -0.13498E-04  3786   0.892E-03    0.265E-02
RMM:   6    -0.232100533622E+04    0.19481E-06   -0.56310E-05  3183   0.726E-03
  67 F= -.23419340E+04 E0= -.23419340E+04  d E =-.726784E-02  mag=     5.0000
       N       E                     dE             d eps       ncg     rms          rms(c)
DAV:   1    -0.232097262295E+04    0.32713E-01   -0.28235E+00  4456   0.160E+00    0.499E-01
RMM:   2    -0.232101039011E+04   -0.37767E-01   -0.39016E-01  6021   0.325E-01    0.353E-01
RMM:   3    -0.232101344547E+04   -0.30554E-02   -0.37749E-02  5671   0.115E-01    0.357E-01
RMM:   4    -0.232101243132E+04    0.10141E-02   -0.35080E-03  5142   0.270E-02    0.135E-01
RMM:   5    -0.232101221778E+04    0.21355E-03   -0.56155E-04  4485   0.152E-02    0.708E-02
RMM:   6    -0.232101224181E+04   -0.24034E-04   -0.39398E-04  4431   0.141E-02    0.728E-02
RMM:   7    -0.232101217842E+04    0.63394E-04   -0.80904E-05  3092   0.756E-03    0.153E-02
RMM:   8    -0.232101217600E+04    0.24128E-05   -0.12677E-05  2921   0.357E-03
  68 F= -.23419402E+04 E0= -.23419402E+04  d E =-.626624E-02  mag=     5.0000
       N       E                     dE             d eps       ncg     rms          rms(c)
DAV:   1    -0.232092654490E+04    0.85634E-01   -0.62570E+00  4456   0.237E+00    0.740E-01
RMM:   2    -0.232100976900E+04   -0.83224E-01   -0.85966E-01  5982   0.482E-01    0.525E-01
RMM:   3    -0.232101671245E+04   -0.69434E-02   -0.84041E-02  5681   0.176E-01    0.540E-01
RMM:   4    -0.232101433937E+04    0.23731E-02   -0.77437E-03  5556   0.402E-02    0.201E-01
RMM:   5    -0.232101386966E+04    0.46971E-03   -0.12512E-03  4857   0.223E-02    0.108E-01
RMM:   6    -0.232101389525E+04   -0.25594E-04   -0.89664E-04  4982   0.197E-02    0.106E-01
RMM:   7    -0.232101376346E+04    0.13179E-03   -0.19897E-04  3700   0.107E-02    0.256E-02
RMM:   8    -0.232101375497E+04    0.84851E-05   -0.28395E-05  2975   0.408E-03
  69 F= -.23419410E+04 E0= -.23419410E+04  d E =-.701541E-02  mag=     5.0000
       N       E                     dE             d eps       ncg     rms          rms(c)
DAV:   1    -0.232099883744E+04    0.14926E-01   -0.11163E+00  4468   0.100E+00    0.316E-01
RMM:   2    -0.232101387308E+04   -0.15036E-01   -0.15382E-01  6023   0.205E-01    0.262E-01
RMM:   3    -0.232101484722E+04   -0.97414E-03   -0.14967E-02  5590   0.712E-02    0.225E-01
RMM:   4    -0.232101445129E+04    0.39593E-03   -0.13743E-03  4278   0.174E-02    0.832E-02
RMM:   5    -0.232101436138E+04    0.89913E-04   -0.23843E-04  3954   0.105E-02    0.409E-02
RMM:   6    -0.232101435661E+04    0.47634E-05   -0.11802E-04  3647   0.895E-03    0.260E-02
RMM:   7    -0.232101435364E+04    0.29775E-05   -0.23881E-05  2898   0.556E-03
  70 F= -.23419419E+04 E0= -.23419419E+04  d E =-.796148E-02  mag=     5.0000
       N       E                     dE             d eps       ncg     rms          rms(c)
DAV:   1    -0.232098574444E+04    0.28612E-01   -0.21451E+00  4468   0.136E+00    0.442E-01
RMM:   2    -0.232101880404E+04   -0.33060E-01   -0.34270E-01  5998   0.287E-01    0.291E-01
RMM:   3    -0.232102172113E+04   -0.29171E-02   -0.34363E-02  5610   0.107E-01    0.296E-01
RMM:   4    -0.232102109226E+04    0.62887E-03   -0.30572E-03  4832   0.233E-02    0.123E-01
RMM:   5    -0.232102092731E+04    0.16495E-03   -0.37891E-04  4239   0.123E-02    0.719E-02
RMM:   6    -0.232102094553E+04   -0.18213E-04   -0.35961E-04  4238   0.125E-02    0.767E-02
RMM:   7    -0.232102087519E+04    0.70343E-04   -0.76836E-05  3086   0.742E-03    0.135E-02
RMM:   8    -0.232102087297E+04    0.22192E-05   -0.11952E-05  2902   0.375E-03
  71 F= -.23419481E+04 E0= -.23419481E+04  d E =-.616255E-02  mag=     5.0000
       N       E                     dE             d eps       ncg     rms          rms(c)
DAV:   1    -0.232089395211E+04    0.12692E+00   -0.80264E+00  4456   0.263E+00    0.855E-01
RMM:   2    -0.232101727285E+04   -0.12332E+00   -0.12815E+00  5995   0.554E-01    0.540E-01
RMM:   3    -0.232102891515E+04   -0.11642E-01   -0.13187E-01  5657   0.210E-01    0.575E-01
RMM:   4    -0.232102656718E+04    0.23480E-02   -0.11533E-02  5773   0.446E-02    0.243E-01
RMM:   5    -0.232102597613E+04    0.59104E-03   -0.13873E-03  4946   0.221E-02    0.141E-01
RMM:   6    -0.232102600115E+04   -0.25016E-04   -0.13364E-03  5171   0.221E-02    0.138E-01
RMM:   7    -0.232102577705E+04    0.22410E-03   -0.30682E-04  4265   0.124E-02    0.325E-02
RMM:   8    -0.232102576383E+04    0.13220E-04   -0.41583E-05  2975   0.453E-03    0.156E-02
RMM:   9    -0.232102576014E+04    0.36949E-05   -0.17345E-05  2883   0.377E-03
  72 F= -.23419523E+04 E0= -.23419523E+04  d E =-.104079E-01  mag=     5.0000
       N       E                     dE             d eps       ncg     rms          rms(c)
DAV:   1    -0.232100016515E+04    0.25599E-01   -0.17876E+00  4468   0.124E+00    0.406E-01
RMM:   2    -0.232102921773E+04   -0.29053E-01   -0.30093E-01  6077   0.267E-01    0.270E-01
RMM:   3    -0.232103188855E+04   -0.26708E-02   -0.30483E-02  5608   0.103E-01    0.276E-01
RMM:   4    -0.232103135932E+04    0.52922E-03   -0.27365E-03  4462   0.216E-02    0.112E-01
RMM:   5    -0.232103124734E+04    0.11199E-03   -0.29399E-04  3984   0.107E-02    0.723E-02
RMM:   6    -0.232103125637E+04   -0.90385E-05   -0.30952E-04  3904   0.113E-02    0.715E-02
RMM:   7    -0.232103119831E+04    0.58068E-04   -0.69875E-05  3100   0.705E-03    0.123E-02
RMM:   8    -0.232103119731E+04    0.99148E-06   -0.10647E-05  2891   0.403E-03
  73 F= -.23419576E+04 E0= -.23419576E+04  d E =-.528129E-02  mag=     5.0000
       N       E                     dE             d eps       ncg     rms          rms(c)
DAV:   1    -0.232075804069E+04    0.27316E+00   -0.16068E+01  4456   0.373E+00    0.121E+00
RMM:   2    -0.232101892356E+04   -0.26088E+00   -0.27151E+00  6044   0.801E-01    0.743E-01
RMM:   3    -0.232104496496E+04   -0.26041E-01   -0.28772E-01  5644   0.310E-01    0.791E-01
RMM:   4    -0.232104082806E+04    0.41369E-02   -0.24376E-02  5972   0.624E-02    0.356E-01
RMM:   5    -0.232103974707E+04    0.10810E-02   -0.25738E-03  5102   0.285E-02    0.217E-01
RMM:   6    -0.232103972600E+04    0.21074E-04   -0.28034E-03  5254   0.302E-02    0.199E-01
RMM:   7    -0.232103928432E+04    0.44168E-03   -0.73143E-04  5095   0.180E-02    0.597E-02
RMM:   8    -0.232103924672E+04    0.37598E-04   -0.10272E-04  3178   0.629E-03    0.250E-02
RMM:   9    -0.232103923828E+04    0.84467E-05   -0.41724E-05  2915   0.538E-03
  74 F= -.23419653E+04 E0= -.23419653E+04  d E =-.129273E-01  mag=     5.0000
       N       E                     dE             d eps       ncg     rms          rms(c)
DAV:   1    -0.232099307917E+04    0.46168E-01   -0.28668E+00  4468   0.156E+00    0.530E-01
RMM:   2    -0.232104383498E+04   -0.50756E-01   -0.52493E-01  6133   0.355E-01    0.371E-01
RMM:   3    -0.232104840590E+04   -0.45709E-02   -0.53507E-02  5664   0.139E-01    0.359E-01
RMM:   4    -0.232104753573E+04    0.87017E-03   -0.48309E-03  5176   0.286E-02    0.147E-01
RMM:   5    -0.232104736640E+04    0.16932E-03   -0.52954E-04  4376   0.136E-02    0.102E-01
RMM:   6    -0.232104733660E+04    0.29808E-04   -0.50929E-04  4352   0.136E-02    0.860E-02
RMM:   7    -0.232104725661E+04    0.79985E-04   -0.12799E-04  3698   0.864E-03    0.209E-02
RMM:   8    -0.232104725272E+04    0.38917E-05   -0.18339E-05  2917   0.494E-03
  75 F= -.23419731E+04 E0= -.23419731E+04  d E =-.782070E-02  mag=     5.0000
       N       E                     dE             d eps       ncg     rms          rms(c)
DAV:   1    -0.232096299398E+04    0.84263E-01   -0.46994E+00  4456   0.200E+00    0.678E-01
RMM:   2    -0.232104642338E+04   -0.83429E-01   -0.86365E-01  6127   0.454E-01    0.470E-01
RMM:   3    -0.232105389330E+04   -0.74699E-02   -0.88002E-02  5698   0.176E-01    0.453E-01
RMM:   4    -0.232105252538E+04    0.13679E-02   -0.78866E-03  5457   0.363E-02    0.190E-01
RMM:   5    -0.232105223356E+04    0.29182E-03   -0.87563E-04  4723   0.172E-02    0.128E-01
RMM:   6    -0.232105219112E+04    0.42431E-04   -0.81929E-04  4764   0.168E-02    0.112E-01
RMM:   7    -0.232105205501E+04    0.13612E-03   -0.21985E-04  4203   0.106E-02    0.294E-02
RMM:   8    -0.232105204635E+04    0.86528E-05   -0.32464E-05  2960   0.530E-03
  76 F= -.23419777E+04 E0= -.23419777E+04  d E =-.123778E-01  mag=     5.0000
       N       E                     dE             d eps       ncg     rms          rms(c)
DAV:   1    -0.232100412302E+04    0.47932E-01   -0.27169E+00  4468   0.154E+00    0.547E-01
RMM:   2    -0.232105648122E+04   -0.52358E-01   -0.54163E-01  6129   0.360E-01    0.397E-01
RMM:   3    -0.232106083675E+04   -0.43555E-02   -0.54377E-02  5682   0.138E-01    0.366E-01
RMM:   4    -0.232105991836E+04    0.91839E-03   -0.49826E-03  5234   0.287E-02    0.143E-01
RMM:   5    -0.232105973734E+04    0.18101E-03   -0.52721E-04  4369   0.137E-02    0.958E-02
RMM:   6    -0.232105971269E+04    0.24646E-04   -0.47473E-04  4421   0.132E-02    0.856E-02
RMM:   7    -0.232105963599E+04    0.76709E-04   -0.13598E-04  3768   0.896E-03    0.260E-02
RMM:   8    -0.232105962985E+04    0.61317E-05   -0.23246E-05  2916   0.500E-03
  77 F= -.23419848E+04 E0= -.23419848E+04  d E =-.714145E-02  mag=     5.0000
[...]
DAV:   1    -0.232111351580E+04    0.12842E-01   -0.59943E-01  4472   0.613E-01    0.299E-01
RMM:   2    -0.232112795327E+04   -0.14437E-01   -0.14393E-01  6217   0.162E-01    0.287E-01
RMM:   3    -0.232112866973E+04   -0.71646E-03   -0.12902E-02  5354   0.556E-02    0.200E-01
RMM:   4    -0.232112833237E+04    0.33736E-03   -0.13591E-03  3400   0.145E-02    0.600E-02
RMM:   5    -0.232112829041E+04    0.41960E-04   -0.11005E-04  3068   0.679E-03    0.393E-02
RMM:   6    -0.232112829130E+04   -0.88518E-06   -0.95247E-05  3357   0.725E-03
 125 F= -.23420480E+04 E0= -.23420480E+04  d E =-.170233E-02  mag=     5.0000
       N       E                     dE             d eps       ncg     rms          rms(c)
DAV:   1    -0.232110311242E+04    0.25178E-01   -0.10595E+00  4472   0.814E-01    0.398E-01
RMM:   2    -0.232112857972E+04   -0.25467E-01   -0.25389E-01  6200   0.214E-01    0.385E-01
RMM:   3    -0.232112989634E+04   -0.13166E-02   -0.23388E-02  5664   0.752E-02    0.268E-01
RMM:   4    -0.232112929622E+04    0.60012E-03   -0.24205E-03  4187   0.190E-02    0.805E-02
RMM:   5    -0.232112922790E+04    0.68322E-04   -0.19866E-04  3399   0.838E-03    0.567E-02
RMM:   6    -0.232112923025E+04   -0.23492E-05   -0.15629E-04  3455   0.854E-03    0.593E-02
RMM:   7    -0.232112918574E+04    0.44507E-04   -0.76448E-05  3060   0.726E-03    0.946E-03
RMM:   8    -0.232112918570E+04    0.43074E-07   -0.13929E-05  2892   0.444E-03
 126 F= -.23420486E+04 E0= -.23420486E+04  d E =-.227595E-02  mag=     5.0000
       N       E                     dE             d eps       ncg     rms          rms(c)
DAV:   1    -0.232110932391E+04    0.19862E-01   -0.84265E-01  4456   0.694E-01    0.354E-01
RMM:   2    -0.232113046468E+04   -0.21141E-01   -0.20945E-01  6292   0.187E-01    0.362E-01
RMM:   3    -0.232113144780E+04   -0.98312E-03   -0.19245E-02  5450   0.638E-02    0.234E-01
RMM:   4    -0.232113098896E+04    0.45884E-03   -0.18592E-03  3526   0.161E-02    0.711E-02
RMM:   5    -0.232113093595E+04    0.53010E-04   -0.13016E-04  3088   0.697E-03    0.492E-02
RMM:   6    -0.232113094193E+04   -0.59817E-05   -0.12431E-04  3199   0.757E-03    0.502E-02
RMM:   7    -0.232113091172E+04    0.30204E-04   -0.49989E-05  2922   0.624E-03    0.839E-03
RMM:   8    -0.232113091246E+04   -0.73534E-06   -0.86777E-06  2843   0.300E-03
 127 F= -.23420501E+04 E0= -.23420501E+04  d E =-.147103E-02  mag=     5.0000
       N       E                     dE             d eps       ncg     rms          rms(c)
DAV:   1    -0.232111636319E+04    0.14549E-01   -0.59029E-01  4456   0.581E-01    0.297E-01
RMM:   2    -0.232113119903E+04   -0.14836E-01   -0.14698E-01  6245   0.157E-01    0.305E-01
RMM:   3    -0.232113188770E+04   -0.68867E-03   -0.13613E-02  5163   0.530E-02    0.196E-01
RMM:   4    -0.232113156705E+04    0.32065E-03   -0.13073E-03  3278   0.136E-02    0.599E-02
RMM:   5    -0.232113152958E+04    0.37471E-04   -0.93861E-05  3025   0.605E-03    0.419E-02
RMM:   6    -0.232113153459E+04   -0.50068E-05   -0.86987E-05  3031   0.642E-03
 128 F= -.23420505E+04 E0= -.23420505E+04  d E =-.187101E-02  mag=     5.0000
       N       E                     dE             d eps       ncg     rms          rms(c)
DAV:   1    -0.232112523311E+04    0.62965E-02   -0.34721E-01  4468   0.501E-01    0.232E-01
RMM:   2    -0.232113284480E+04   -0.76117E-02   -0.76164E-02  6115   0.127E-01    0.219E-01
RMM:   3    -0.232113326051E+04   -0.41571E-03   -0.73611E-03  5162   0.461E-02    0.161E-01
RMM:   4    -0.232113302811E+04    0.23240E-03   -0.68342E-04  3306   0.119E-02    0.480E-02
RMM:   5    -0.232113300382E+04    0.24290E-04   -0.88037E-05  3086   0.675E-03    0.349E-02
RMM:   6    -0.232113300192E+04    0.18992E-05   -0.62071E-05  2960   0.667E-03
 129 F= -.23420518E+04 E0= -.23420518E+04  d E =-.130687E-02  mag=     5.0000
       N       E                     dE             d eps       ncg     rms          rms(c)
DAV:   1    -0.232112993285E+04    0.30710E-02   -0.14880E-01  4528   0.328E-01    0.153E-01
RMM:   2    -0.232113321036E+04   -0.32775E-02   -0.32848E-02  6246   0.844E-02    0.142E-01
RMM:   3    -0.232113339443E+04   -0.18406E-03   -0.31759E-03  4100   0.305E-02    0.106E-01
RMM:   4    -0.232113329383E+04    0.10060E-03   -0.29611E-04  2995   0.852E-03    0.322E-02
RMM:   5    -0.232113328246E+04    0.11370E-04   -0.40686E-05  2949   0.487E-03    0.233E-02
RMM:   6    -0.232113328108E+04    0.13778E-05   -0.28615E-05  2903   0.490E-03
 130 F= -.23420520E+04 E0= -.23420520E+04  d E =-.147895E-02  mag=     5.0000
       N       E                     dE             d eps       ncg     rms          rms(c)
DAV:   1    -0.232112600510E+04    0.72774E-02   -0.39348E-01  4472   0.516E-01    0.235E-01
RMM:   2    -0.232113436369E+04   -0.83586E-02   -0.83804E-02  6208   0.130E-01    0.220E-01
RMM:   3    -0.232113481573E+04   -0.45204E-03   -0.78039E-03  5057   0.461E-02    0.164E-01
RMM:   4    -0.232113457828E+04    0.23745E-03   -0.80506E-04  3240   0.123E-02    0.483E-02
RMM:   5    -0.232113455223E+04    0.26057E-04   -0.85175E-05  3074   0.652E-03    0.306E-02
RMM:   6    -0.232113455525E+04   -0.30255E-05   -0.61484E-05  3010   0.659E-03
 131 F= -.23420531E+04 E0= -.23420531E+04  d E =-.112926E-02  mag=     5.0000
       N       E                     dE             d eps       ncg     rms          rms(c)
DAV:   1    -0.232113072785E+04    0.38244E-02   -0.18599E-01  4496   0.354E-01    0.162E-01
RMM:   2    -0.232113469058E+04   -0.39627E-02   -0.39793E-02  6282   0.905E-02    0.151E-01
RMM:   3    -0.232113491133E+04   -0.22075E-03   -0.37570E-03  4153   0.318E-02    0.113E-01
RMM:   4    -0.232113480068E+04    0.11065E-03   -0.37901E-04  3006   0.900E-03    0.342E-02
RMM:   5    -0.232113478872E+04    0.11958E-04   -0.44642E-05  2945   0.481E-03    0.238E-02
RMM:   6    -0.232113478891E+04   -0.19025E-06   -0.31129E-05  2905   0.487E-03
 132 F= -.23420532E+04 E0= -.23420532E+04  d E =-.126075E-02  mag=     5.0000
       N       E                     dE             d eps       ncg     rms          rms(c)
DAV:   1    -0.232112480416E+04    0.99846E-02   -0.52165E-01  4472   0.623E-01    0.269E-01
RMM:   2    -0.232113570174E+04   -0.10898E-01   -0.11053E-01  6184   0.155E-01    0.222E-01
RMM:   3    -0.232113644842E+04   -0.74668E-03   -0.10152E-02  5363   0.541E-02    0.189E-01
RMM:   4    -0.232113614285E+04    0.30557E-03   -0.10879E-03  3407   0.141E-02    0.563E-02
RMM:   5    -0.232113611374E+04    0.29114E-04   -0.11305E-04  3138   0.741E-03    0.394E-02
RMM:   6    -0.232113611192E+04    0.18195E-05   -0.76535E-05  3018   0.703E-03
 133 F= -.23420543E+04 E0= -.23420543E+04  d E =-.107426E-02  mag=     5.0000
       N       E                     dE             d eps       ncg     rms          rms(c)
DAV:   1    -0.232113412983E+04    0.19839E-02   -0.97513E-02  4624   0.269E-01    0.117E-01
RMM:   2    -0.232113617837E+04   -0.20485E-02   -0.20851E-02  6306   0.686E-02    0.933E-02
RMM:   3    -0.232113632865E+04   -0.15029E-03   -0.19407E-03  3514   0.237E-02    0.824E-02
RMM:   4    -0.232113627276E+04    0.55895E-04   -0.20578E-04  2963   0.718E-03    0.259E-02
RMM:   5    -0.232113626784E+04    0.49177E-05   -0.25113E-05  2927   0.362E-03
 134 F= -.23420543E+04 E0= -.23420543E+04  d E =-.111981E-02  mag=     5.0000
       N       E                     dE             d eps       ncg     rms          rms(c)
DAV:   1    -0.232112664812E+04    0.96246E-02   -0.49336E-01  4472   0.595E-01    0.260E-01
RMM:   2    -0.232113744850E+04   -0.10800E-01   -0.11009E-01  6182   0.151E-01    0.211E-01
RMM:   3    -0.232113816293E+04   -0.71442E-03   -0.98785E-03  5137   0.527E-02    0.175E-01
RMM:   4    -0.232113792201E+04    0.24092E-03   -0.10794E-03  3370   0.137E-02    0.586E-02
RMM:   5    -0.232113789890E+04    0.23112E-04   -0.11651E-04  3100   0.739E-03    0.436E-02
RMM:   6    -0.232113788982E+04    0.90766E-05   -0.73103E-05  3006   0.668E-03
 135 F= -.23420556E+04 E0= -.23420556E+04  d E =-.121534E-02  mag=     5.0000
       N       E                     dE             d eps       ncg     rms          rms(c)
DAV:   1    -0.232113351916E+04    0.43797E-02   -0.20887E-01  4496   0.387E-01    0.172E-01
RMM:   2    -0.232113809165E+04   -0.45725E-02   -0.46740E-02  6295   0.999E-02    0.135E-01
RMM:   3    -0.232113843234E+04   -0.34070E-03   -0.43770E-03  4279   0.348E-02    0.118E-01
RMM:   4    -0.232113832282E+04    0.10952E-03   -0.46324E-04  3030   0.950E-03    0.390E-02
RMM:   5    -0.232113831381E+04    0.90169E-05   -0.52380E-05  2957   0.492E-03
 136 F= -.23420557E+04 E0= -.23420557E+04  d E =-.136970E-02  mag=     5.0000
       N       E                     dE             d eps       ncg     rms          rms(c)
DAV:   1    -0.232112736813E+04    0.10955E-01   -0.54294E-01  4472   0.622E-01    0.273E-01
RMM:   2    -0.232113928317E+04   -0.11915E-01   -0.12186E-01  6227   0.159E-01    0.215E-01
RMM:   3    -0.232114011104E+04   -0.82787E-03   -0.11262E-02  5248   0.579E-02    0.180E-01
RMM:   4    -0.232113985706E+04    0.25398E-03   -0.12031E-03  3431   0.144E-02    0.634E-02
RMM:   5    -0.232113982926E+04    0.27803E-04   -0.13683E-04  3185   0.795E-03    0.465E-02
RMM:   6    -0.232113981856E+04    0.10699E-04   -0.83452E-05  3060   0.714E-03    0.407E-02
RMM:   7    -0.232113980130E+04    0.17259E-04   -0.39829E-05  2907   0.622E-03    0.645E-03
RMM:   8    -0.232113980204E+04   -0.73809E-06   -0.95381E-06  2869   0.412E-03
 137 F= -.23420568E+04 E0= -.23420568E+04  d E =-.104246E-02  mag=     5.0000
       N       E                     dE             d eps       ncg     rms          rms(c)
DAV:   1    -0.232113893957E+04    0.86173E-03   -0.44728E-02  4656   0.178E-01    0.798E-02
RMM:   2    -0.232113992749E+04   -0.98792E-03   -0.10099E-02  6208   0.467E-02    0.634E-02
RMM:   3    -0.232113999773E+04   -0.70239E-04   -0.94086E-04  3099   0.167E-02    0.543E-02
RMM:   4    -0.232113997462E+04    0.23105E-04   -0.10236E-04  2952   0.507E-03    0.182E-02
RMM:   5    -0.232113997241E+04    0.22182E-05   -0.11808E-05  2823   0.240E-03
 138 F= -.23420568E+04 E0= -.23420568E+04  d E =-.108341E-02  mag=     5.0000
       N       E                     dE             d eps       ncg     rms          rms(c)
DAV:   1    -0.232112945048E+04    0.10524E-01   -0.51771E-01  4472   0.600E-01    0.271E-01
RMM:   2    -0.232114085738E+04   -0.11407E-01   -0.11630E-01  6136   0.155E-01    0.219E-01
RMM:   3    -0.232114161560E+04   -0.75822E-03   -0.10590E-02  5305   0.543E-02    0.184E-01
RMM:   4    -0.232114134175E+04    0.27385E-03   -0.11506E-03  3463   0.141E-02    0.616E-02
RMM:   5    -0.232114131463E+04    0.27111E-04   -0.12937E-04  3139   0.785E-03    0.473E-02
RMM:   6    -0.232114129885E+04    0.15785E-04   -0.82180E-05  3078   0.711E-03    0.370E-02
RMM:   7    -0.232114128338E+04    0.15471E-04   -0.37826E-05  2920   0.618E-03    0.632E-03
RMM:   8    -0.232114128366E+04   -0.28349E-06   -0.93867E-06  2865   0.421E-03
 139 F= -.23420578E+04 E0= -.23420578E+04  d E =-.967905E-03  mag=     5.0000
       N       E                     dE             d eps       ncg     rms          rms(c)
DAV:   1    -0.232114072585E+04    0.55753E-03   -0.28970E-02  4704   0.142E-01    0.648E-02
RMM:   2    -0.232114136765E+04   -0.64180E-03   -0.65413E-03  6134   0.377E-02    0.532E-02
RMM:   3    -0.232114141117E+04   -0.43525E-04   -0.61233E-04  3021   0.135E-02    0.448E-02
RMM:   4    -0.232114139515E+04    0.16022E-04   -0.66884E-05  2923   0.421E-03    0.149E-02
RMM:   5    -0.232114139356E+04    0.15849E-05   -0.81569E-06  2788   0.202E-03
 140 F= -.23420578E+04 E0= -.23420578E+04  d E =-.995507E-03  mag=     5.0000
       N       E                     dE             d eps       ncg     rms          rms(c)
DAV:   1    -0.232113049497E+04    0.10900E-01   -0.54476E-01  4472   0.595E-01    0.273E-01
RMM:   2    -0.232114241182E+04   -0.11917E-01   -0.12093E-01  6187   0.156E-01    0.236E-01
RMM:   3    -0.232114313187E+04   -0.72005E-03   -0.10920E-02  5227   0.529E-02    0.185E-01
RMM:   4    -0.232114285286E+04    0.27902E-03   -0.11919E-03  3392   0.140E-02    0.615E-02
RMM:   5    -0.232114282559E+04    0.27269E-04   -0.12216E-04  3104   0.736E-03    0.481E-02
RMM:   6    -0.232114281134E+04    0.14253E-04   -0.82981E-05  3039   0.693E-03    0.374E-02
RMM:   7    -0.232114279603E+04    0.15307E-04   -0.39087E-05  2909   0.603E-03    0.626E-03
RMM:   8    -0.232114279644E+04   -0.41236E-06   -0.86800E-06  2877   0.404E-03
 141 F= -.23420589E+04 E0= -.23420589E+04  d E =-.108153E-02  mag=     5.0000
       N       E                     dE             d eps       ncg     rms          rms(c)
DAV:   1    -0.232114178320E+04    0.10128E-02   -0.51144E-02  4592   0.182E-01    0.844E-02
RMM:   2    -0.232114290851E+04   -0.11253E-02   -0.11420E-02  6154   0.487E-02    0.735E-02
RMM:   3    -0.232114297685E+04   -0.68338E-04   -0.10387E-03  3136   0.165E-02    0.582E-02
RMM:   4    -0.232114294936E+04    0.27494E-04   -0.11404E-04  2941   0.521E-03    0.191E-02
RMM:   5    -0.232114294690E+04    0.24548E-05   -0.13221E-05  2819   0.245E-03
 142 F= -.23420589E+04 E0= -.23420589E+04  d E =-.113213E-02  mag=     5.0000
       N       E                     dE             d eps       ncg     rms          rms(c)
DAV:   1    -0.232113295482E+04    0.99945E-02   -0.50899E-01  4472   0.580E-01    0.262E-01
RMM:   2    -0.232114401803E+04   -0.11063E-01   -0.11229E-01  6204   0.151E-01    0.229E-01
RMM:   3    -0.232114465576E+04   -0.63773E-03   -0.99573E-03  5178   0.500E-02    0.175E-01
RMM:   4    -0.232114440586E+04    0.24989E-03   -0.10986E-03  3330   0.134E-02    0.596E-02
RMM:   5    -0.232114438214E+04    0.23727E-04   -0.11139E-04  3071   0.708E-03    0.473E-02
RMM:   6    -0.232114436718E+04    0.14959E-04   -0.77176E-05  3028   0.670E-03    0.354E-02
RMM:   7    -0.232114435438E+04    0.12798E-04   -0.37674E-05  2925   0.587E-03    0.614E-03
RMM:   8    -0.232114435508E+04   -0.70060E-06   -0.80947E-06  2861   0.392E-03
 143 F= -.23420600E+04 E0= -.23420600E+04  d E =-.108136E-02  mag=     5.0000
       N       E                     dE             d eps       ncg     rms          rms(c)
DAV:   1    -0.232113922196E+04    0.51324E-02   -0.24697E-01  4472   0.404E-01    0.185E-01
RMM:   2    -0.232114460788E+04   -0.53859E-02   -0.54628E-02  6180   0.106E-01    0.163E-01
RMM:   3    -0.232114491609E+04   -0.30820E-03   -0.48672E-03  4261   0.340E-02    0.125E-01
RMM:   4    -0.232114478691E+04    0.12917E-03   -0.53569E-04  3042   0.990E-03    0.409E-02
RMM:   5    -0.232114477598E+04    0.10933E-04   -0.56936E-05  2957   0.506E-03    0.335E-02
RMM:   6    -0.232114476708E+04    0.88987E-05   -0.36986E-05  2910   0.492E-03
 144 F= -.23420602E+04 E0= -.23420602E+04  d E =-.126212E-02  mag=     5.0000
       N       E                     dE             d eps       ncg     rms          rms(c)
DAV:   1    -0.232113596906E+04    0.88069E-02   -0.44028E-01  4472   0.537E-01    0.246E-01
RMM:   2    -0.232114576761E+04   -0.97986E-02   -0.99639E-02  6183   0.141E-01    0.211E-01
RMM:   3    -0.232114637385E+04   -0.60624E-03   -0.89742E-03  5119   0.490E-02    0.165E-01
RMM:   4    -0.232114615892E+04    0.21493E-03   -0.97604E-04  3186   0.124E-02    0.559E-02
RMM:   5    -0.232114614107E+04    0.17852E-04   -0.96925E-05  3016   0.607E-03    0.463E-02
RMM:   6    -0.232114612097E+04    0.20102E-04   -0.59526E-05  2961   0.587E-03    0.289E-02
RMM:   7    -0.232114611297E+04    0.80021E-05   -0.34093E-05  2954   0.525E-03
 145 F= -.23420612E+04 E0= -.23420612E+04  d E =-.101094E-02  mag=     5.0000
       N       E                     dE             d eps       ncg     rms          rms(c)
DAV:   1    -0.232113161922E+04    0.14502E-01   -0.66148E-01  4472   0.657E-01    0.302E-01
RMM:   2    -0.232114637672E+04   -0.14757E-01   -0.14968E-01  6305   0.173E-01    0.268E-01
RMM:   3    -0.232114722004E+04   -0.84333E-03   -0.13353E-02  5358   0.597E-02    0.202E-01
RMM:   4    -0.232114689506E+04    0.32498E-03   -0.14608E-03  3396   0.150E-02    0.668E-02
RMM:   5    -0.232114686749E+04    0.27578E-04   -0.14095E-04  3108   0.735E-03    0.556E-02
RMM:   6    -0.232114683934E+04    0.28146E-04   -0.87588E-05  3031   0.693E-03    0.366E-02
RMM:   7    -0.232114682520E+04    0.14138E-04   -0.50527E-05  3036   0.627E-03    0.686E-03
RMM:   8    -0.232114682589E+04   -0.69122E-06   -0.95091E-06  2873   0.434E-03
 146 F= -.23420615E+04 E0= -.23420615E+04  d E =-.130630E-02  mag=     5.0000
       N       E                     dE             d eps       ncg     rms          rms(c)
DAV:   1    -0.232114042092E+04    0.64043E-02   -0.31462E-01  4496   0.427E-01    0.205E-01
RMM:   2    -0.232114773817E+04   -0.73173E-02   -0.74333E-02  6334   0.117E-01    0.178E-01
RMM:   3    -0.232114817832E+04   -0.44015E-03   -0.65469E-03  4332   0.381E-02    0.136E-01
RMM:   4    -0.232114804162E+04    0.13671E-03   -0.72292E-04  3078   0.104E-02    0.472E-02
RMM:   5    -0.232114802872E+04    0.12898E-04   -0.64660E-05  2928   0.465E-03    0.383E-02
RMM:   6    -0.232114801530E+04    0.13415E-04   -0.38052E-05  2908   0.443E-03    0.252E-02
RMM:   7    -0.232114800978E+04    0.55193E-05   -0.23536E-05  2901   0.396E-03
 147 F= -.23420624E+04 E0= -.23420624E+04  d E =-.864127E-03  mag=     5.0000
       N       E                     dE             d eps       ncg     rms          rms(c)
DAV:   1    -0.232108156927E+04    0.66446E-01   -0.28288E+00  4472   0.128E+00    0.618E-01
RMM:   2    -0.232114725994E+04   -0.65691E-01   -0.66630E-01  6348   0.349E-01    0.544E-01
RMM:   3    -0.232115128272E+04   -0.40228E-02   -0.60800E-02  5811   0.118E-01    0.399E-01
RMM:   4    -0.232115009301E+04    0.11897E-02   -0.63839E-03  4830   0.289E-02    0.136E-01
RMM:   5    -0.232114997846E+04    0.11454E-03   -0.52535E-04  3921   0.114E-02    0.107E-01
RMM:   6    -0.232114990287E+04    0.75589E-04   -0.33013E-04  3804   0.106E-02    0.825E-02
RMM:   7    -0.232114983256E+04    0.70310E-04   -0.20331E-04  3814   0.931E-03    0.134E-02
RMM:   8    -0.232114983536E+04   -0.27957E-05   -0.25220E-05  2909   0.520E-03
 148 F= -.23420632E+04 E0= -.23420632E+04  d E =-.170854E-02  mag=     5.0000
       N       E                     dE             d eps       ncg     rms          rms(c)
DAV:   1    -0.232114281164E+04    0.70209E-02   -0.34225E-01  4496   0.430E-01    0.212E-01
RMM:   2    -0.232115082801E+04   -0.80164E-02   -0.81806E-02  6372   0.121E-01    0.175E-01
RMM:   3    -0.232115134727E+04   -0.51925E-03   -0.72281E-03  4345   0.398E-02    0.139E-01
RMM:   4    -0.232115121079E+04    0.13648E-03   -0.79911E-04  3077   0.106E-02    0.495E-02
RMM:   5    -0.232115119660E+04    0.14188E-04   -0.68054E-05  2941   0.460E-03    0.391E-02
RMM:   6    -0.232115118377E+04    0.12831E-04   -0.40808E-05  2922   0.438E-03    0.271E-02
RMM:   7    -0.232115117785E+04    0.59223E-05   -0.25120E-05  2908   0.390E-03
 149 F= -.23420642E+04 E0= -.23420642E+04  d E =-.983776E-03  mag=     5.0000
       N       E                     dE             d eps       ncg     rms          rms(c)
DAV:   1    -0.232107855789E+04    0.72626E-01   -0.30751E+00  4472   0.129E+00    0.640E-01
RMM:   2    -0.232115075791E+04   -0.72200E-01   -0.73409E-01  6376   0.360E-01    0.556E-01
RMM:   3    -0.232115522444E+04   -0.44665E-02   -0.66239E-02  5809   0.120E-01    0.411E-01
RMM:   4    -0.232115399779E+04    0.12267E-02   -0.70368E-03  4743   0.296E-02    0.142E-01
RMM:   5    -0.232115387134E+04    0.12645E-03   -0.53956E-04  3831   0.112E-02    0.109E-01
RMM:   6    -0.232115380150E+04    0.69840E-04   -0.34946E-04  3692   0.107E-02    0.886E-02
RMM:   7    -0.232115371862E+04    0.82877E-04   -0.22123E-04  3823   0.940E-03    0.142E-02
RMM:   8    -0.232115372151E+04   -0.28850E-05   -0.28355E-05  2919   0.523E-03
 150 F= -.23420656E+04 E0= -.23420656E+04  d E =-.242968E-02  mag=     5.0000
