       N       E                     dE             d eps       ncg     rms          rms(c)
DAV:   1     0.124242715642E+05    0.12424E+05   -0.81884E+05  4408   0.143E+03
DAV:   2    -0.109402286877E+04   -0.13518E+05   -0.12977E+05  5312   0.328E+02
DAV:   3    -0.246893178770E+04   -0.13749E+04   -0.13639E+04  5272   0.108E+02
DAV:   4    -0.250655939731E+04   -0.37628E+02   -0.37454E+02  6280   0.249E+01
DAV:   5    -0.250731205202E+04   -0.75265E+00   -0.75165E+00  5448   0.291E+00    0.170E+02
RMM:   6    -0.146196330278E+04    0.10453E+04   -0.19290E+03  4335   0.389E+01    0.721E+01
RMM:   7    -0.163083335374E+04   -0.16887E+03   -0.26164E+02  4810   0.137E+01    0.470E+01
RMM:   8    -0.169068350142E+04   -0.59850E+02   -0.27907E+01  4800   0.664E+00    0.337E+01
RMM:   9    -0.185821960684E+04   -0.16754E+03   -0.78269E+01  4547   0.899E+00    0.203E+01
RMM:  10    -0.200787634093E+04   -0.14966E+03   -0.70232E+01  4532   0.734E+00    0.149E+01
RMM:  11    -0.218230193790E+04   -0.17443E+03   -0.14478E+02  4328   0.857E+00    0.993E+00
RMM:  12    -0.226886656356E+04   -0.86565E+02   -0.80856E+01  4438   0.645E+00    0.583E+00
RMM:  13    -0.229415912189E+04   -0.25293E+02   -0.29091E+01  4871   0.458E+00    0.295E+00
RMM:  14    -0.230188448068E+04   -0.77254E+01   -0.91296E+00  4708   0.200E+00    0.197E+00
RMM:  15    -0.230307395242E+04   -0.11895E+01   -0.89517E-01  5136   0.765E-01    0.165E+00
RMM:  16    -0.230347609500E+04   -0.40214E+00   -0.16808E-01  5009   0.299E-01    0.134E+00
RMM:  17    -0.230378080977E+04   -0.30471E+00   -0.13758E-01  4397   0.289E-01    0.703E-01
RMM:  18    -0.230391805999E+04   -0.13725E+00   -0.63391E-02  4395   0.245E-01    0.611E-01
RMM:  19    -0.230396328627E+04   -0.45226E-01   -0.18648E-02  4786   0.133E-01    0.493E-01
RMM:  20    -0.230397310047E+04   -0.98142E-02   -0.87151E-03  4409   0.742E-02    0.264E-01
RMM:  21    -0.230398782019E+04   -0.14720E-01   -0.66818E-03  4348   0.714E-02    0.131E-01
RMM:  22    -0.230400203888E+04   -0.14219E-01   -0.41673E-03  4335   0.567E-02    0.858E-02
RMM:  23    -0.230401110548E+04   -0.90666E-02   -0.28118E-03  4360   0.514E-02    0.531E-02
RMM:  24    -0.230401737500E+04   -0.62695E-02   -0.24063E-03  4364   0.447E-02    0.301E-02
RMM:  25    -0.230402070705E+04   -0.33320E-02   -0.13244E-03  4399   0.352E-02    0.205E-02
RMM:  26    -0.230402189833E+04   -0.11913E-02   -0.56897E-04  4047   0.212E-02    0.951E-03
RMM:  27    -0.230402218484E+04   -0.28651E-03   -0.13864E-04  3642   0.130E-02    0.683E-03
RMM:  28    -0.230402236731E+04   -0.18247E-03   -0.68170E-05  3502   0.784E-03    0.386E-03
RMM:  29    -0.230402244612E+04   -0.78810E-04   -0.40228E-05  3286   0.678E-03    0.239E-03
RMM:  30    -0.230402246281E+04   -0.16689E-04   -0.94953E-06  2833   0.364E-03    0.186E-03
RMM:  31    -0.230402247889E+04   -0.16074E-04   -0.59096E-06  2552   0.260E-03    0.114E-03
RMM:  32    -0.230402248445E+04   -0.55612E-05   -0.36352E-06  2379   0.217E-03
   1 F= -.23239989E+04 E0= -.23239989E+04  d E =-.232400E+04  mag=     2.0000
       N       E                     dE             d eps       ncg     rms          rms(c)
DAV:   1    -0.230400881653E+04    0.13662E-01   -0.26612E+00  5094   0.760E-01    0.630E-01
RMM:   2    -0.230407435821E+04   -0.65542E-01   -0.65503E-01  5936   0.197E-01    0.378E-01
RMM:   3    -0.230407802994E+04   -0.36717E-02   -0.42475E-02  4845   0.909E-02    0.262E-01
RMM:   4    -0.230407779687E+04    0.23308E-03   -0.64476E-03  3999   0.178E-02    0.185E-01
RMM:   5    -0.230407741142E+04    0.38544E-03   -0.13347E-03  4297   0.136E-02    0.703E-02
RMM:   6    -0.230407744515E+04   -0.33731E-04   -0.16354E-04  3085   0.899E-03    0.565E-02
RMM:   7    -0.230407743311E+04    0.12043E-04   -0.47935E-05  2825   0.446E-03    0.392E-02
RMM:   8    -0.230407741629E+04    0.16825E-04   -0.26993E-05  2792   0.373E-03    0.157E-02
RMM:   9    -0.230407741362E+04    0.26675E-05   -0.10739E-05  2752   0.278E-03
   2 F= -.23240539E+04 E0= -.23240539E+04  d E =-.550406E-01  mag=     2.0000
       N       E                     dE             d eps       ncg     rms          rms(c)
DAV:   1    -0.230400403759E+04    0.73379E-01   -0.40137E+00  4640   0.921E-01    0.766E-01
RMM:   2    -0.230409734191E+04   -0.93304E-01   -0.93200E-01  5959   0.239E-01    0.465E-01
RMM:   3    -0.230410295842E+04   -0.56165E-02   -0.64693E-02  5036   0.105E-01    0.316E-01
RMM:   4    -0.230410260915E+04    0.34927E-03   -0.94964E-03  4423   0.219E-02    0.217E-01
RMM:   5    -0.230410213967E+04    0.46948E-03   -0.18325E-03  4457   0.161E-02    0.793E-02
RMM:   6    -0.230410217070E+04   -0.31032E-04   -0.22014E-04  3311   0.950E-03    0.601E-02
RMM:   7    -0.230410216615E+04    0.45546E-05   -0.59586E-05  2846   0.499E-03
   3 F= -.23240789E+04 E0= -.23240789E+04  d E =-.799963E-01  mag=     2.0000
       N       E                     dE             d eps       ncg     rms          rms(c)
DAV:   1    -0.230410156676E+04    0.60394E-03   -0.84661E-01  4624   0.970E-01    0.437E-01
RMM:   2    -0.230410515751E+04   -0.35907E-02   -0.49678E-02  5144   0.170E-01    0.172E-01
RMM:   3    -0.230410453618E+04    0.62134E-03   -0.40441E-03  4555   0.758E-02    0.101E-01
RMM:   4    -0.230410426189E+04    0.27428E-03   -0.15150E-03  4585   0.291E-02    0.470E-02
RMM:   5    -0.230410421699E+04    0.44901E-04   -0.16973E-04  4310   0.199E-02    0.247E-02
RMM:   6    -0.230410418778E+04    0.29207E-04   -0.56406E-05  3494   0.522E-03    0.169E-02
RMM:   7    -0.230410417135E+04    0.16436E-04   -0.14887E-05  2809   0.506E-03    0.101E-02
RMM:   8    -0.230410416320E+04    0.81521E-05   -0.13005E-05  2801   0.339E-03
   4 F= -.23240810E+04 E0= -.23240810E+04  d E =-.208324E-02  mag=     2.0000
       N       E                     dE             d eps       ncg     rms          rms(c)
DAV:   1    -0.230410555936E+04   -0.13880E-02   -0.13612E-01  4640   0.388E-01    0.177E-01
RMM:   2    -0.230410612757E+04   -0.56820E-03   -0.78799E-03  5500   0.699E-02    0.690E-02
RMM:   3    -0.230410604148E+04    0.86083E-04   -0.73302E-04  4518   0.313E-02    0.407E-02
RMM:   4    -0.230410600159E+04    0.39893E-04   -0.19405E-04  4141   0.112E-02    0.186E-02
RMM:   5    -0.230410599218E+04    0.94062E-05   -0.37613E-05  3215   0.795E-03
   5 F= -.23240828E+04 E0= -.23240828E+04  d E =-.387814E-02  mag=     2.0000
       N       E                     dE             d eps       ncg     rms          rms(c)
DAV:   1    -0.230410518898E+04    0.81261E-03   -0.17285E-01  4492   0.333E-01    0.173E-01
RMM:   2    -0.230410817281E+04   -0.29838E-02   -0.31893E-02  5790   0.715E-02    0.847E-02
RMM:   3    -0.230410842358E+04   -0.25077E-03   -0.32568E-03  4164   0.328E-02    0.527E-02
RMM:   4    -0.230410842767E+04   -0.40943E-05   -0.39994E-04  3140   0.790E-03    0.322E-02
RMM:   5    -0.230410841563E+04    0.12047E-04   -0.42928E-05  2912   0.578E-03    0.108E-02
RMM:   6    -0.230410841446E+04    0.11668E-05   -0.10181E-05  2800   0.431E-03
   6 F= -.23240851E+04 E0= -.23240851E+04  d E =-.239309E-02  mag=     2.0000
       N       E                     dE             d eps       ncg     rms          rms(c)
DAV:   1    -0.230410324110E+04    0.51745E-02   -0.32817E-01  4464   0.461E-01    0.240E-01
RMM:   2    -0.230410912596E+04   -0.58849E-02   -0.62518E-02  5727   0.990E-02    0.118E-01
RMM:   3    -0.230410962505E+04   -0.49909E-03   -0.65129E-03  4688   0.455E-02    0.711E-02
RMM:   4    -0.230410964382E+04   -0.18772E-04   -0.78180E-04  3908   0.110E-02    0.428E-02
RMM:   5    -0.230410962647E+04    0.17347E-04   -0.70772E-05  3003   0.752E-03    0.145E-02
RMM:   6    -0.230410962588E+04    0.58877E-06   -0.16504E-05  2819   0.457E-03
   7 F= -.23240863E+04 E0= -.23240863E+04  d E =-.355683E-02  mag=     2.0000
       N       E                     dE             d eps       ncg     rms          rms(c)
DAV:   1    -0.230410974715E+04   -0.12068E-03   -0.73493E-02  4576   0.212E-01    0.105E-01
RMM:   2    -0.230411094194E+04   -0.11948E-02   -0.12762E-02  6038   0.438E-02    0.524E-02
RMM:   3    -0.230411105164E+04   -0.10970E-03   -0.13732E-03  3144   0.171E-02    0.326E-02
RMM:   4    -0.230411105622E+04   -0.45791E-05   -0.16246E-04  2832   0.467E-03    0.204E-02
RMM:   5    -0.230411105281E+04    0.34062E-05   -0.16764E-05  2809   0.323E-03
   8 F= -.23240878E+04 E0= -.23240878E+04  d E =-.145489E-02  mag=     2.0000
       N       E                     dE             d eps       ncg     rms          rms(c)
DAV:   1    -0.230410162366E+04    0.94326E-02   -0.65975E-01  4400   0.637E-01    0.314E-01
RMM:   2    -0.230411250738E+04   -0.10884E-01   -0.11570E-01  5833   0.128E-01    0.160E-01
RMM:   3    -0.230411341903E+04   -0.91164E-03   -0.11667E-02  4968   0.532E-02    0.932E-02
RMM:   4    -0.230411345910E+04   -0.40069E-04   -0.13220E-03  3997   0.125E-02    0.562E-02
RMM:   5    -0.230411343671E+04    0.22389E-04   -0.12704E-04  3385   0.870E-03    0.204E-02
RMM:   6    -0.230411343536E+04    0.13445E-05   -0.24115E-05  2841   0.515E-03
   9 F= -.23240902E+04 E0= -.23240902E+04  d E =-.391577E-02  mag=     2.0000
       N       E                     dE             d eps       ncg     rms          rms(c)
DAV:   1    -0.230411174376E+04    0.16929E-02   -0.10389E-01  4480   0.252E-01    0.125E-01
RMM:   2    -0.230411344348E+04   -0.16997E-02   -0.18145E-02  6085   0.520E-02    0.624E-02
RMM:   3    -0.230411359513E+04   -0.15165E-03   -0.19025E-03  3316   0.199E-02    0.384E-02
RMM:   4    -0.230411360078E+04   -0.56497E-05   -0.22694E-04  2849   0.545E-03    0.240E-02
RMM:   5    -0.230411359554E+04    0.52408E-05   -0.24683E-05  2829   0.383E-03
  10 F= -.23240904E+04 E0= -.23240904E+04  d E =-.410474E-02  mag=     2.0000
       N       E                     dE             d eps       ncg     rms          rms(c)
DAV:   1    -0.230411376795E+04   -0.16717E-03   -0.11360E-01  4400   0.290E-01    0.123E-01
RMM:   2    -0.230411502125E+04   -0.12533E-02   -0.13703E-02  5806   0.556E-02    0.617E-02
RMM:   3    -0.230411508864E+04   -0.67391E-04   -0.11123E-03  3888   0.212E-02    0.390E-02
RMM:   4    -0.230411508494E+04    0.36983E-05   -0.17083E-04  3073   0.646E-03    0.215E-02
RMM:   5    -0.230411508265E+04    0.22956E-05   -0.21929E-05  2854   0.476E-03
  11 F= -.23240920E+04 E0= -.23240920E+04  d E =-.153824E-02  mag=     2.0000
       N       E                     dE             d eps       ncg     rms          rms(c)
DAV:   1    -0.230411220664E+04    0.28783E-02   -0.31299E-01  4400   0.482E-01    0.204E-01
RMM:   2    -0.230411572361E+04   -0.35170E-02   -0.38371E-02  5717   0.915E-02    0.102E-01
RMM:   3    -0.230411591063E+04   -0.18702E-03   -0.31182E-03  4783   0.359E-02    0.643E-02
RMM:   4    -0.230411589825E+04    0.12385E-04   -0.47784E-04  3973   0.108E-02    0.351E-02
RMM:   5    -0.230411588957E+04    0.86771E-05   -0.58820E-05  3223   0.782E-03
  12 F= -.23240928E+04 E0= -.23240928E+04  d E =-.242967E-02  mag=     2.0000
       N       E                     dE             d eps       ncg     rms          rms(c)
DAV:   1    -0.230411564729E+04    0.25096E-03   -0.14029E-01  4400   0.304E-01    0.130E-01
RMM:   2    -0.230411724776E+04   -0.16005E-02   -0.17239E-02  5798   0.599E-02    0.695E-02
RMM:   3    -0.230411737014E+04   -0.12238E-03   -0.17280E-03  3998   0.248E-02    0.467E-02
RMM:   4    -0.230411737169E+04   -0.15478E-05   -0.22580E-04  2987   0.666E-03    0.269E-02
RMM:   5    -0.230411736859E+04    0.30984E-05   -0.27542E-05  2890   0.485E-03
  13 F= -.23240943E+04 E0= -.23240943E+04  d E =-.149109E-02  mag=     2.0000
       N       E                     dE             d eps       ncg     rms          rms(c)
DAV:   1    -0.230411559793E+04    0.17738E-02   -0.18441E-01  4400   0.349E-01    0.150E-01
RMM:   2    -0.230411774269E+04   -0.21448E-02   -0.23104E-02  5865   0.694E-02    0.797E-02
RMM:   3    -0.230411790718E+04   -0.16450E-03   -0.23397E-03  4251   0.289E-02    0.541E-02
RMM:   4    -0.230411790765E+04   -0.47080E-06   -0.30810E-04  3101   0.777E-03    0.313E-02
RMM:   5    -0.230411790084E+04    0.68114E-05   -0.38843E-05  2972   0.570E-03
  14 F= -.23240949E+04 E0= -.23240949E+04  d E =-.203750E-02  mag=     2.0000
       N       E                     dE             d eps       ncg     rms          rms(c)
DAV:   1    -0.230411720426E+04    0.70339E-03   -0.13025E-01  4400   0.320E-01    0.145E-01
RMM:   2    -0.230411887657E+04   -0.16723E-02   -0.18170E-02  5835   0.641E-02    0.728E-02
RMM:   3    -0.230411899322E+04   -0.11665E-03   -0.17712E-03  4249   0.264E-02    0.486E-02
RMM:   4    -0.230411898722E+04    0.60037E-05   -0.23323E-04  3182   0.731E-03    0.277E-02
RMM:   5    -0.230411898265E+04    0.45747E-05   -0.34139E-05  2904   0.577E-03
  15 F= -.23240959E+04 E0= -.23240959E+04  d E =-.106744E-02  mag=     2.0000
       N       E                     dE             d eps       ncg     rms          rms(c)
DAV:   1    -0.230411860223E+04    0.38499E-03   -0.37164E-02  4600   0.171E-01    0.777E-02
RMM:   2    -0.230411907618E+04   -0.47394E-03   -0.51626E-03  5842   0.352E-02    0.400E-02
RMM:   3    -0.230411910968E+04   -0.33505E-04   -0.51676E-04  3295   0.142E-02    0.274E-02
RMM:   4    -0.230411910682E+04    0.28663E-05   -0.67685E-05  2817   0.423E-03
  16 F= -.23240961E+04 E0= -.23240961E+04  d E =-.118333E-02  mag=     2.0000
       N       E                     dE             d eps       ncg     rms          rms(c)
DAV:   1    -0.230411769612E+04    0.14136E-02   -0.15687E-01  4400   0.344E-01    0.155E-01
RMM:   2    -0.230412006546E+04   -0.23693E-02   -0.25004E-02  5732   0.649E-02    0.771E-02
RMM:   3    -0.230412019162E+04   -0.12616E-03   -0.18221E-03  4037   0.266E-02    0.502E-02
RMM:   4    -0.230412018559E+04    0.60286E-05   -0.26748E-04  3055   0.699E-03    0.300E-02
RMM:   5    -0.230412018050E+04    0.50903E-05   -0.36365E-05  2893   0.541E-03
  17 F= -.23240972E+04 E0= -.23240972E+04  d E =-.110255E-02  mag=     2.0000
       N       E                     dE             d eps       ncg     rms          rms(c)
DAV:   1    -0.230411510907E+04    0.50765E-02   -0.34323E-01  4400   0.508E-01    0.229E-01
RMM:   2    -0.230412034061E+04   -0.52315E-02   -0.55029E-02  5783   0.966E-02    0.114E-01
RMM:   3    -0.230412062836E+04   -0.28776E-03   -0.40272E-03  4750   0.383E-02    0.744E-02
RMM:   4    -0.230412061461E+04    0.13755E-04   -0.58666E-04  3533   0.993E-03    0.448E-02
RMM:   5    -0.230412060191E+04    0.12702E-04   -0.81435E-05  3334   0.768E-03    0.171E-02
RMM:   6    -0.230412060181E+04    0.96799E-07   -0.14393E-05  2798   0.495E-03
  18 F= -.23240976E+04 E0= -.23240976E+04  d E =-.156305E-02  mag=     2.0000
       N       E                     dE             d eps       ncg     rms          rms(c)
DAV:   1    -0.230412017388E+04    0.42803E-03   -0.75536E-02  4464   0.234E-01    0.102E-01
RMM:   2    -0.230412129951E+04   -0.11256E-02   -0.11865E-02  5884   0.443E-02    0.523E-02
RMM:   3    -0.230412135046E+04   -0.50946E-04   -0.75407E-04  3283   0.157E-02    0.355E-02
RMM:   4    -0.230412134651E+04    0.39505E-05   -0.11603E-04  2820   0.473E-03    0.215E-02
RMM:   5    -0.230412134410E+04    0.24095E-05   -0.23741E-05  2820   0.363E-03
  19 F= -.23240984E+04 E0= -.23240984E+04  d E =-.781684E-03  mag=     2.0000
       N       E                     dE             d eps       ncg     rms          rms(c)
DAV:   1    -0.230411320127E+04    0.81452E-02   -0.57468E-01  4416   0.646E-01    0.281E-01
RMM:   2    -0.230412173312E+04   -0.85318E-02   -0.89942E-02  5702   0.120E-01    0.143E-01
RMM:   3    -0.230412209081E+04   -0.35769E-03   -0.55080E-03  4831   0.439E-02    0.919E-02
RMM:   4    -0.230412207610E+04    0.14704E-04   -0.88240E-04  3998   0.121E-02    0.543E-02
RMM:   5    -0.230412205787E+04    0.18235E-04   -0.12603E-04  3510   0.880E-03    0.189E-02
RMM:   6    -0.230412205608E+04    0.17857E-05   -0.18019E-05  2804   0.510E-03
  20 F= -.23240992E+04 E0= -.23240992E+04  d E =-.159763E-02  mag=     2.0000
       N       E                     dE             d eps       ncg     rms          rms(c)
DAV:   1    -0.230412227732E+04   -0.21946E-03   -0.76466E-02  4448   0.256E-01    0.103E-01
RMM:   2    -0.230412293556E+04   -0.65823E-03   -0.73044E-03  5789   0.479E-02    0.490E-02
RMM:   3    -0.230412294332E+04   -0.77653E-05   -0.43140E-04  3554   0.167E-02    0.319E-02
RMM:   4    -0.230412293632E+04    0.70039E-05   -0.10017E-04  3016   0.615E-03    0.164E-02
RMM:   5    -0.230412293498E+04    0.13409E-05   -0.15504E-05  2819   0.449E-03
  21 F= -.23241001E+04 E0= -.23241001E+04  d E =-.877350E-03  mag=     2.0000
       N       E                     dE             d eps       ncg     rms          rms(c)
DAV:   1    -0.230412230963E+04    0.62669E-03   -0.11093E-01  4400   0.308E-01    0.124E-01
RMM:   2    -0.230412326301E+04   -0.95338E-03   -0.10585E-02  5669   0.576E-02    0.587E-02
RMM:   3    -0.230412327786E+04   -0.14846E-04   -0.65883E-04  4039   0.221E-02    0.387E-02
RMM:   4    -0.230412326621E+04    0.11648E-04   -0.14769E-04  3307   0.733E-03    0.199E-02
RMM:   5    -0.230412326239E+04    0.38171E-05   -0.24221E-05  2856   0.555E-03
  22 F= -.23241004E+04 E0= -.23241004E+04  d E =-.120211E-02  mag=     2.0000
       N       E                     dE             d eps       ncg     rms          rms(c)
DAV:   1    -0.230412362521E+04   -0.35900E-03   -0.77045E-02  4432   0.248E-01    0.910E-02
RMM:   2    -0.230412416173E+04   -0.53653E-03   -0.58287E-03  5755   0.449E-02    0.445E-02
RMM:   3    -0.230412417598E+04   -0.14247E-04   -0.45397E-04  3520   0.168E-02    0.302E-02
RMM:   4    -0.230412417194E+04    0.40401E-05   -0.87666E-05  2879   0.547E-03
  23 F= -.23241013E+04 E0= -.23241013E+04  d E =-.891891E-03  mag=     2.0000
       N       E                     dE             d eps       ncg     rms          rms(c)
DAV:   1    -0.230412285830E+04    0.13177E-02   -0.27816E-01  4400   0.471E-01    0.174E-01
RMM:   2    -0.230412479871E+04   -0.19404E-02   -0.21196E-02  5713   0.842E-02    0.855E-02
RMM:   3    -0.230412483942E+04   -0.40713E-04   -0.15708E-03  4671   0.301E-02    0.561E-02
RMM:   4    -0.230412482119E+04    0.18229E-04   -0.32293E-04  3971   0.107E-02    0.281E-02
RMM:   5    -0.230412481524E+04    0.59540E-05   -0.51156E-05  3002   0.712E-03
  24 F= -.23241019E+04 E0= -.23241019E+04  d E =-.150128E-02  mag=     2.0000
       N       E                     dE             d eps       ncg     rms          rms(c)
DAV:   1    -0.230412509085E+04   -0.26966E-03   -0.47590E-02  4640   0.189E-01    0.713E-02
RMM:   2    -0.230412553493E+04   -0.44408E-03   -0.46344E-03  5831   0.356E-02    0.362E-02
RMM:   3    -0.230412556129E+04   -0.26359E-04   -0.43274E-04  3067   0.134E-02    0.250E-02
RMM:   4    -0.230412555972E+04    0.15660E-05   -0.60152E-05  2827   0.397E-03
  25 F= -.23241027E+04 E0= -.23241027E+04  d E =-.734660E-03  mag=     2.0000
       N       E                     dE             d eps       ncg     rms          rms(c)
DAV:   1    -0.230412287159E+04    0.26897E-02   -0.42691E-01  4400   0.566E-01    0.213E-01
RMM:   2    -0.230412689735E+04   -0.40258E-02   -0.42272E-02  5745   0.102E-01    0.108E-01
RMM:   3    -0.230412710790E+04   -0.21055E-03   -0.36667E-03  4716   0.375E-02    0.677E-02
RMM:   4    -0.230412709897E+04    0.89305E-05   -0.54060E-04  3996   0.109E-02    0.352E-02
RMM:   5    -0.230412709388E+04    0.50902E-05   -0.57598E-05  2971   0.740E-03
  26 F= -.23241042E+04 E0= -.23241042E+04  d E =-.223848E-02  mag=     2.0000
       N       E                     dE             d eps       ncg     rms          rms(c)
DAV:   1    -0.230411007806E+04    0.17021E-01   -0.17138E+00  4380   0.113E+00    0.425E-01
RMM:   2    -0.230412631188E+04   -0.16234E-01   -0.16989E-01  5689   0.204E-01    0.218E-01
RMM:   3    -0.230412711468E+04   -0.80280E-03   -0.14558E-02  5086   0.725E-02    0.134E-01
RMM:   4    -0.230412705592E+04    0.58760E-04   -0.20334E-03  4531   0.211E-02    0.664E-02
RMM:   5    -0.230412705167E+04    0.42497E-05   -0.20553E-04  3975   0.141E-02    0.346E-02
RMM:   6    -0.230412704790E+04    0.37714E-05   -0.36542E-05  2866   0.462E-03
  27 F= -.23241041E+04 E0= -.23241041E+04  d E =-.212824E-02  mag=     2.0000
       N       E                     dE             d eps       ncg     rms          rms(c)
DAV:   1    -0.230412331174E+04    0.37399E-02   -0.43680E-01  4400   0.571E-01    0.213E-01
RMM:   2    -0.230412738521E+04   -0.40735E-02   -0.42909E-02  5805   0.103E-01    0.105E-01
RMM:   3    -0.230412760623E+04   -0.22102E-03   -0.36893E-03  4855   0.376E-02    0.699E-02
RMM:   4    -0.230412760064E+04    0.55847E-05   -0.52863E-04  3738   0.102E-02    0.394E-02
RMM:   5    -0.230412758543E+04    0.15212E-04   -0.76236E-05  3113   0.730E-03    0.169E-02
RMM:   6    -0.230412758397E+04    0.14610E-05   -0.14720E-05  2802   0.460E-03
  28 F= -.23241046E+04 E0= -.23241046E+04  d E =-.269735E-02  mag=     2.0000
       N       E                     dE             d eps       ncg     rms          rms(c)
DAV:   1    -0.230412731431E+04    0.27112E-03   -0.92158E-02  4432   0.249E-01    0.105E-01
RMM:   2    -0.230412848157E+04   -0.11673E-02   -0.12086E-02  5928   0.483E-02    0.519E-02
RMM:   3    -0.230412855470E+04   -0.73134E-04   -0.10800E-03  3346   0.186E-02    0.324E-02
RMM:   4    -0.230412855407E+04    0.63176E-06   -0.13863E-04  2865   0.500E-03    0.184E-02
RMM:   5    -0.230412855118E+04    0.28887E-05   -0.16620E-05  2808   0.356E-03
  29 F= -.23241055E+04 E0= -.23241055E+04  d E =-.918824E-03  mag=     2.0000
       N       E                     dE             d eps       ncg     rms          rms(c)
DAV:   1    -0.230411934966E+04    0.92044E-02   -0.82622E-01  4400   0.745E-01    0.318E-01
RMM:   2    -0.230412985182E+04   -0.10502E-01   -0.10874E-01  5845   0.144E-01    0.160E-01
RMM:   3    -0.230413052954E+04   -0.67772E-03   -0.99411E-03  5021   0.524E-02    0.958E-02
RMM:   4    -0.230413052697E+04    0.25720E-05   -0.12133E-03  4161   0.135E-02    0.516E-02
RMM:   5    -0.230413051310E+04    0.13874E-04   -0.12852E-04  3320   0.953E-03    0.213E-02
RMM:   6    -0.230413051211E+04    0.99004E-06   -0.22196E-05  2818   0.466E-03
  30 F= -.23241074E+04 E0= -.23241074E+04  d E =-.272959E-02  mag=     2.0000
       N       E                     dE             d eps       ncg     rms          rms(c)
DAV:   1    -0.230408531994E+04    0.45193E-01   -0.33095E+00  4392   0.149E+00    0.636E-01
RMM:   2    -0.230412729650E+04   -0.41977E-01   -0.43438E-01  5800   0.285E-01    0.324E-01
RMM:   3    -0.230413018683E+04   -0.28903E-02   -0.42502E-02  5057   0.114E-01    0.190E-01
RMM:   4    -0.230413018286E+04    0.39673E-05   -0.48110E-03  4536   0.263E-02    0.101E-01
RMM:   5    -0.230413012229E+04    0.60575E-04   -0.50339E-04  4336   0.187E-02    0.457E-02
RMM:   6    -0.230413012188E+04    0.40089E-06   -0.83977E-05  3197   0.653E-03
  31 F= -.23241066E+04 E0= -.23241066E+04  d E =-.201750E-02  mag=     2.0000
       N       E                     dE             d eps       ncg     rms          rms(c)
DAV:   1    -0.230411505838E+04    0.15064E-01   -0.11951E+00  4396   0.896E-01    0.381E-01
RMM:   2    -0.230413010806E+04   -0.15050E-01   -0.15666E-01  5952   0.176E-01    0.188E-01
RMM:   3    -0.230413108594E+04   -0.97788E-03   -0.13868E-02  5175   0.611E-02    0.124E-01
RMM:   4    -0.230413109783E+04   -0.11892E-04   -0.18410E-03  4211   0.157E-02    0.737E-02
RMM:   5    -0.230413104041E+04    0.57419E-04   -0.22587E-04  3937   0.105E-02    0.314E-02
RMM:   6    -0.230413103624E+04    0.41757E-05   -0.40247E-05  2838   0.623E-03
  32 F= -.23241078E+04 E0= -.23241078E+04  d E =-.312861E-02  mag=     2.0000
       N       E                     dE             d eps       ncg     rms          rms(c)
DAV:   1    -0.230412698998E+04    0.40504E-02   -0.37853E-01  4368   0.475E-01    0.220E-01
RMM:   2    -0.230413236401E+04   -0.53740E-02   -0.55460E-02  5942   0.962E-02    0.111E-01
RMM:   3    -0.230413272214E+04   -0.35813E-03   -0.50681E-03  4488   0.388E-02    0.667E-02
RMM:   4    -0.230413272412E+04   -0.19798E-05   -0.61374E-04  3516   0.925E-03    0.375E-02
RMM:   5    -0.230413271082E+04    0.13306E-04   -0.66282E-05  2931   0.656E-03    0.121E-02
RMM:   6    -0.230413271056E+04    0.25070E-06   -0.12267E-05  2808   0.411E-03
  33 F= -.23241093E+04 E0= -.23241093E+04  d E =-.151666E-02  mag=     2.0000
       N       E                     dE             d eps       ncg     rms          rms(c)
DAV:   1    -0.230411416308E+04    0.18548E-01   -0.12771E+00  4364   0.874E-01    0.409E-01
RMM:   2    -0.230413257313E+04   -0.18410E-01   -0.19017E-01  5876   0.178E-01    0.208E-01
RMM:   3    -0.230413385036E+04   -0.12772E-02   -0.17871E-02  5095   0.684E-02    0.122E-01
RMM:   4    -0.230413386826E+04   -0.17899E-04   -0.20664E-03  4270   0.162E-02    0.671E-02
RMM:   5    -0.230413383679E+04    0.31462E-04   -0.21018E-04  3674   0.110E-02    0.252E-02
RMM:   6    -0.230413383608E+04    0.71018E-06   -0.33314E-05  2843   0.511E-03
  34 F= -.23241101E+04 E0= -.23241101E+04  d E =-.233979E-02  mag=     2.0000
       N       E                     dE             d eps       ncg     rms          rms(c)
DAV:   1    -0.230413017729E+04    0.36595E-02   -0.33839E-01  4368   0.454E-01    0.208E-01
RMM:   2    -0.230413476136E+04   -0.45841E-02   -0.47531E-02  5992   0.930E-02    0.104E-01
RMM:   3    -0.230413503298E+04   -0.27162E-03   -0.39760E-03  4543   0.340E-02    0.650E-02
RMM:   4    -0.230413503523E+04   -0.22520E-05   -0.54343E-04  3455   0.912E-03    0.358E-02
RMM:   5    -0.230413502747E+04    0.77626E-05   -0.61482E-05  2932   0.626E-03
  35 F= -.23241112E+04 E0= -.23241112E+04  d E =-.108168E-02  mag=     2.0000
       N       E                     dE             d eps       ncg     rms          rms(c)
DAV:   1    -0.230412862281E+04    0.64124E-02   -0.48300E-01  4368   0.542E-01    0.248E-01
RMM:   2    -0.230413510675E+04   -0.64839E-02   -0.67178E-02  5886   0.110E-01    0.125E-01
RMM:   3    -0.230413551262E+04   -0.40587E-03   -0.58604E-03  4732   0.435E-02    0.764E-02
RMM:   4    -0.230413551624E+04   -0.36134E-05   -0.76077E-04  3831   0.108E-02    0.418E-02
RMM:   5    -0.230413550454E+04    0.11699E-04   -0.82136E-05  3024   0.752E-03    0.148E-02
RMM:   6    -0.230413550524E+04   -0.69990E-06   -0.14627E-05  2802   0.424E-03
  36 F= -.23241115E+04 E0= -.23241115E+04  d E =-.142453E-02  mag=     2.0000
       N       E                     dE             d eps       ncg     rms          rms(c)
DAV:   1    -0.230413392030E+04    0.15842E-02   -0.26333E-01  4400   0.446E-01    0.180E-01
RMM:   2    -0.230413662146E+04   -0.27012E-02   -0.28320E-02  5736   0.846E-02    0.872E-02
RMM:   3    -0.230413674066E+04   -0.11920E-03   -0.23430E-03  4606   0.338E-02    0.552E-02
RMM:   4    -0.230413672937E+04    0.11287E-04   -0.35991E-04  3859   0.952E-03    0.287E-02
RMM:   5    -0.230413672379E+04    0.55842E-05   -0.42186E-05  2903   0.686E-03
  37 F= -.23241127E+04 E0= -.23241127E+04  d E =-.114925E-02  mag=     2.0000
       N       E                     dE             d eps       ncg     rms          rms(c)
DAV:   1    -0.230413557066E+04    0.11587E-02   -0.12841E-01  4448   0.312E-01    0.127E-01
RMM:   2    -0.230413689411E+04   -0.13235E-02   -0.13844E-02  5792   0.603E-02    0.617E-02
RMM:   3    -0.230413695148E+04   -0.57361E-04   -0.11375E-03  4028   0.236E-02    0.399E-02
RMM:   4    -0.230413694418E+04    0.73005E-05   -0.17899E-04  3151   0.681E-03    0.208E-02
RMM:   5    -0.230413693997E+04    0.42099E-05   -0.24692E-05  2830   0.497E-03
  38 F= -.23241128E+04 E0= -.23241128E+04  d E =-.131657E-02  mag=     2.0000
       N       E                     dE             d eps       ncg     rms          rms(c)
DAV:   1    -0.230413622903E+04    0.71514E-03   -0.21704E-01  4368   0.422E-01    0.156E-01
RMM:   2    -0.230413810403E+04   -0.18750E-02   -0.19744E-02  5767   0.767E-02    0.767E-02
RMM:   3    -0.230413816740E+04   -0.63367E-04   -0.14689E-03  4443   0.296E-02    0.488E-02
RMM:   4    -0.230413815478E+04    0.12618E-04   -0.24693E-04  3693   0.861E-03    0.251E-02
RMM:   5    -0.230413815167E+04    0.31087E-05   -0.30824E-05  2856   0.644E-03
  39 F= -.23241139E+04 E0= -.23241139E+04  d E =-.107153E-02  mag=     2.0000
       N       E                     dE             d eps       ncg     rms          rms(c)
DAV:   1    -0.230413729928E+04    0.85550E-03   -0.12956E-01  4464   0.326E-01    0.121E-01
RMM:   2    -0.230413841647E+04   -0.11172E-02   -0.11766E-02  5746   0.597E-02    0.598E-02
RMM:   3    -0.230413845783E+04   -0.41361E-04   -0.96034E-04  4011   0.236E-02    0.391E-02
RMM:   4    -0.230413844936E+04    0.84765E-05   -0.16401E-04  3158   0.684E-03    0.202E-02
RMM:   5    -0.230413844492E+04    0.44393E-05   -0.24561E-05  2830   0.508E-03
  40 F= -.23241141E+04 E0= -.23241141E+04  d E =-.125616E-02  mag=     2.0000
       N       E                     dE             d eps       ncg     rms          rms(c)
DAV:   1    -0.230413705730E+04    0.13921E-02   -0.31714E-01  4368   0.522E-01    0.187E-01
RMM:   2    -0.230413954495E+04   -0.24877E-02   -0.26496E-02  5681   0.925E-02    0.911E-02
RMM:   3    -0.230413960321E+04   -0.58253E-04   -0.18527E-03  4664   0.354E-02    0.572E-02
RMM:   4    -0.230413958223E+04    0.20973E-04   -0.34283E-04  4029   0.109E-02    0.278E-02
RMM:   5    -0.230413957864E+04    0.35960E-05   -0.40635E-05  2915   0.772E-03
  41 F= -.23241151E+04 E0= -.23241151E+04  d E =-.986091E-03  mag=     2.0000
       N       E                     dE             d eps       ncg     rms          rms(c)
DAV:   1    -0.230413933412E+04    0.24812E-03   -0.40301E-02  4712   0.186E-01    0.671E-02
RMM:   2    -0.230413965951E+04   -0.32539E-03   -0.34397E-03  5726   0.349E-02    0.327E-02
RMM:   3    -0.230413966930E+04   -0.97882E-05   -0.25814E-04  3245   0.137E-02    0.214E-02
RMM:   4    -0.230413966700E+04    0.22959E-05   -0.47797E-05  2827   0.418E-03
  42 F= -.23241151E+04 E0= -.23241151E+04  d E =-.102123E-02  mag=     2.0000
       N       E                     dE             d eps       ncg     rms          rms(c)
DAV:   1    -0.230413783189E+04    0.18374E-02   -0.32855E-01  4368   0.516E-01    0.188E-01
RMM:   2    -0.230414061544E+04   -0.27835E-02   -0.29630E-02  5615   0.908E-02    0.941E-02
RMM:   3    -0.230414070071E+04   -0.85270E-04   -0.21789E-03  4536   0.350E-02    0.576E-02
RMM:   4    -0.230414068079E+04    0.19919E-04   -0.37241E-04  4000   0.104E-02    0.279E-02
RMM:   5    -0.230414067466E+04    0.61299E-05   -0.38909E-05  2910   0.754E-03
  43 F= -.23241160E+04 E0= -.23241160E+04  d E =-.912377E-03  mag=     2.0000
       N       E                     dE             d eps       ncg     rms          rms(c)
DAV:   1    -0.230414034782E+04    0.33297E-03   -0.44646E-02  4584   0.190E-01    0.697E-02
RMM:   2    -0.230414073358E+04   -0.38576E-03   -0.40818E-03  5684   0.352E-02    0.345E-02
RMM:   3    -0.230414074242E+04   -0.88347E-05   -0.26348E-04  3232   0.139E-02    0.218E-02
RMM:   4    -0.230414073913E+04    0.32839E-05   -0.52799E-05  2831   0.427E-03
  44 F= -.23241161E+04 E0= -.23241161E+04  d E =-.941209E-03  mag=     2.0000
       N       E                     dE             d eps       ncg     rms          rms(c)
DAV:   1    -0.230413792114E+04    0.28213E-02   -0.38193E-01  4364   0.544E-01    0.210E-01
RMM:   2    -0.230414147495E+04   -0.35538E-02   -0.37824E-02  5632   0.988E-02    0.106E-01
RMM:   3    -0.230414158016E+04   -0.10520E-03   -0.26822E-03  4647   0.387E-02    0.651E-02
RMM:   4    -0.230414155517E+04    0.24987E-04   -0.48619E-04  4076   0.116E-02    0.316E-02
RMM:   5    -0.230414154683E+04    0.83378E-05   -0.54567E-05  3020   0.834E-03
  45 F= -.23241168E+04 E0= -.23241168E+04  d E =-.707683E-03  mag=     2.0000
       N       E                     dE             d eps       ncg     rms          rms(c)
DAV:   1    -0.230414154517E+04    0.10004E-04   -0.32244E-05  3688   0.737E-03    0.565E-03
RMM:   2    -0.230414154527E+04   -0.10469E-06   -0.85072E-06  2778   0.296E-03
  46 F= -.23241168E+04 E0= -.23241168E+04  d E =-.705176E-03  mag=     2.0000
       N       E                     dE             d eps       ncg     rms          rms(c)
DAV:   1    -0.230414002844E+04    0.15167E-02   -0.24820E-01  4368   0.444E-01    0.172E-01
RMM:   2    -0.230414228944E+04   -0.22610E-02   -0.24058E-02  5677   0.815E-02    0.846E-02
RMM:   3    -0.230414233835E+04   -0.48910E-04   -0.15697E-03  4525   0.272E-02    0.540E-02
RMM:   4    -0.230414232115E+04    0.17197E-04   -0.31896E-04  3951   0.985E-03    0.276E-02
RMM:   5    -0.230414231525E+04    0.58981E-05   -0.40963E-05  2919   0.682E-03
  47 F= -.23241174E+04 E0= -.23241174E+04  d E =-.666481E-03  mag=     2.0000
       N       E                     dE             d eps       ncg     rms          rms(c)
DAV:   1    -0.230414223549E+04    0.85657E-04   -0.10855E-02  4968   0.932E-02    0.366E-02
RMM:   2    -0.230414233627E+04   -0.10078E-03   -0.10609E-03  5568   0.191E-02    0.182E-02
RMM:   3    -0.230414234041E+04   -0.41415E-05   -0.87376E-05  2820   0.735E-03
  48 F= -.23241174E+04 E0= -.23241174E+04  d E =-.669732E-03  mag=     2.0000
       N       E                     dE             d eps       ncg     rms          rms(c)
DAV:   1    -0.230414128819E+04    0.10481E-02   -0.22673E-01  4368   0.433E-01    0.158E-01
RMM:   2    -0.230414319643E+04   -0.19082E-02   -0.20353E-02  5594   0.767E-02    0.775E-02
RMM:   3    -0.230414323131E+04   -0.34878E-04   -0.12752E-03  4325   0.264E-02    0.498E-02
RMM:   4    -0.230414321462E+04    0.16687E-04   -0.25506E-04  3892   0.877E-03    0.256E-02
RMM:   5    -0.230414321072E+04    0.39016E-05   -0.32842E-05  2865   0.654E-03
  49 F= -.23241182E+04 E0= -.23241182E+04  d E =-.761325E-03  mag=     2.0000
       N       E                     dE             d eps       ncg     rms          rms(c)
DAV:   1    -0.230414238275E+04    0.83188E-03   -0.11466E-01  4368   0.308E-01    0.112E-01
RMM:   2    -0.230414334607E+04   -0.96333E-03   -0.10254E-02  5683   0.563E-02    0.537E-02
RMM:   3    -0.230414337962E+04   -0.33553E-04   -0.77389E-04  3982   0.221E-02    0.362E-02
RMM:   4    -0.230414337164E+04    0.79797E-05   -0.12877E-04  2973   0.603E-03    0.198E-02
RMM:   5    -0.230414336718E+04    0.44678E-05   -0.21860E-05  2838   0.454E-03
  50 F= -.23241183E+04 E0= -.23241183E+04  d E =-.839635E-03  mag=     2.0000
       N       E                     dE             d eps       ncg     rms          rms(c)
DAV:   1    -0.230414297559E+04    0.39605E-03   -0.11719E-01  4368   0.296E-01    0.105E-01
RMM:   2    -0.230414397251E+04   -0.99691E-03   -0.10570E-02  5995   0.543E-02    0.539E-02
RMM:   3    -0.230414401773E+04   -0.45221E-04   -0.81194E-04  3649   0.190E-02    0.368E-02
RMM:   4    -0.230414401261E+04    0.51129E-05   -0.12425E-04  2876   0.556E-03    0.206E-02
RMM:   5    -0.230414400987E+04    0.27447E-05   -0.23430E-05  2840   0.433E-03
  51 F= -.23241189E+04 E0= -.23241189E+04  d E =-.586700E-03  mag=     2.0000
       N       E                     dE             d eps       ncg     rms          rms(c)
DAV:   1    -0.230414136905E+04    0.26436E-02   -0.34927E-01  4360   0.512E-01    0.181E-01
RMM:   2    -0.230414436727E+04   -0.29982E-02   -0.31764E-02  5902   0.927E-02    0.932E-02
RMM:   3    -0.230414449629E+04   -0.12902E-03   -0.23560E-03  4698   0.321E-02    0.629E-02
RMM:   4    -0.230414447971E+04    0.16584E-04   -0.36555E-04  3597   0.927E-03    0.347E-02
RMM:   5    -0.230414447065E+04    0.90598E-05   -0.61945E-05  3098   0.708E-03
  52 F= -.23241192E+04 E0= -.23241192E+04  d E =-.950052E-03  mag=     2.0000
       N       E                     dE             d eps       ncg     rms          rms(c)
DAV:   1    -0.230414418398E+04    0.29573E-03   -0.12555E-01  4400   0.313E-01    0.120E-01
RMM:   2    -0.230414512587E+04   -0.94189E-03   -0.10284E-02  5840   0.587E-02    0.562E-02
RMM:   3    -0.230414515888E+04   -0.33015E-04   -0.85797E-04  4157   0.242E-02    0.370E-02
RMM:   4    -0.230414514954E+04    0.93479E-05   -0.13487E-04  3201   0.674E-03    0.197E-02
RMM:   5    -0.230414514594E+04    0.35944E-05   -0.25092E-05  2850   0.542E-03
  53 F= -.23241198E+04 E0= -.23241198E+04  d E =-.616862E-03  mag=     2.0000
       N       E                     dE             d eps       ncg     rms          rms(c)
DAV:   1    -0.230414492243E+04    0.22711E-03   -0.42954E-02  4576   0.183E-01    0.699E-02
RMM:   2    -0.230414524615E+04   -0.32372E-03   -0.35165E-03  5876   0.351E-02    0.330E-02
RMM:   3    -0.230414525720E+04   -0.11055E-04   -0.29406E-04  3350   0.139E-02    0.217E-02
RMM:   4    -0.230414525355E+04    0.36560E-05   -0.46052E-05  2824   0.423E-03
  54 F= -.23241199E+04 E0= -.23241199E+04  d E =-.690029E-03  mag=     2.0000
       N       E                     dE             d eps       ncg     rms          rms(c)
DAV:   1    -0.230414503324E+04    0.22396E-03   -0.82911E-02  4368   0.252E-01    0.945E-02
RMM:   2    -0.230414570598E+04   -0.67274E-03   -0.72473E-03  5861   0.469E-02    0.461E-02
RMM:   3    -0.230414573636E+04   -0.30381E-04   -0.62482E-04  3643   0.192E-02    0.299E-02
RMM:   4    -0.230414573085E+04    0.55092E-05   -0.92194E-05  2869   0.554E-03
  55 F= -.23241203E+04 E0= -.23241203E+04  d E =-.428691E-03  mag=     2.0000
       N       E                     dE             d eps       ncg     rms          rms(c)
DAV:   1    -0.230414530027E+04    0.43609E-03   -0.66157E-02  4400   0.225E-01    0.848E-02
RMM:   2    -0.230414583644E+04   -0.53617E-03   -0.58001E-03  5919   0.419E-02    0.420E-02
RMM:   3    -0.230414585865E+04   -0.22215E-04   -0.49039E-04  3494   0.166E-02    0.276E-02
RMM:   4    -0.230414585307E+04    0.55846E-05   -0.76477E-05  2845   0.516E-03
  56 F= -.23241204E+04 E0= -.23241204E+04  d E =-.507115E-03  mag=     2.0000
       N       E                     dE             d eps       ncg     rms          rms(c)
DAV:   1    -0.230414531924E+04    0.53941E-03   -0.10551E-01  4368   0.293E-01    0.104E-01
RMM:   2    -0.230414627951E+04   -0.96027E-03   -0.10149E-02  5914   0.540E-02    0.521E-02
RMM:   3    -0.230414633633E+04   -0.56817E-04   -0.95397E-04  3785   0.215E-02    0.343E-02
RMM:   4    -0.230414633163E+04    0.47026E-05   -0.12855E-04  2883   0.594E-03    0.195E-02
RMM:   5    -0.230414632752E+04    0.41082E-05   -0.21189E-05  2824   0.460E-03
  57 F= -.23241208E+04 E0= -.23241208E+04  d E =-.418382E-03  mag=     2.0000
       N       E                     dE             d eps       ncg     rms          rms(c)
DAV:   1    -0.230414583297E+04    0.49866E-03   -0.61574E-02  4400   0.224E-01    0.793E-02
RMM:   2    -0.230414640461E+04   -0.57165E-03   -0.60146E-03  6057   0.427E-02    0.396E-02
RMM:   3    -0.230414643928E+04   -0.34669E-04   -0.56951E-04  3317   0.155E-02    0.262E-02
RMM:   4    -0.230414643650E+04    0.27826E-05   -0.72811E-05  2837   0.455E-03
  58 F= -.23241209E+04 E0= -.23241209E+04  d E =-.484370E-03  mag=     2.0000
       N       E                     dE             d eps       ncg     rms          rms(c)
DAV:   1    -0.230414572936E+04    0.70992E-03   -0.12595E-01  4368   0.336E-01    0.115E-01
RMM:   2    -0.230414689587E+04   -0.11665E-02   -0.12295E-02  5738   0.604E-02    0.571E-02
RMM:   3    -0.230414696007E+04   -0.64202E-04   -0.11409E-03  4081   0.266E-02    0.366E-02
RMM:   4    -0.230414695436E+04    0.57177E-05   -0.15669E-04  3152   0.675E-03    0.206E-02
RMM:   5    -0.230414694949E+04    0.48649E-05   -0.24241E-05  2828   0.523E-03
  59 F= -.23241214E+04 E0= -.23241214E+04  d E =-.466364E-03  mag=     2.0000
       N       E                     dE             d eps       ncg     rms          rms(c)
DAV:   1    -0.230414652773E+04    0.42663E-03   -0.50170E-02  4400   0.212E-01    0.728E-02
RMM:   2    -0.230414700042E+04   -0.47269E-03   -0.49734E-03  5934   0.399E-02    0.359E-02
RMM:   3    -0.230414702472E+04   -0.24309E-04   -0.44131E-04  3401   0.157E-02    0.229E-02
RMM:   4    -0.230414702212E+04    0.26008E-05   -0.60286E-05  2837   0.440E-03
  60 F= -.23241214E+04 E0= -.23241214E+04  d E =-.509332E-03  mag=     2.0000
       N       E                     dE             d eps       ncg     rms          rms(c)
DAV:   1    -0.230414584547E+04    0.11793E-02   -0.15298E-01  4364   0.367E-01    0.124E-01
RMM:   2    -0.230414735440E+04   -0.15089E-02   -0.15796E-02  5767   0.664E-02    0.628E-02
RMM:   3    -0.230414744695E+04   -0.92547E-04   -0.14936E-03  4180   0.286E-02    0.397E-02
RMM:   4    -0.230414744325E+04    0.36986E-05   -0.19569E-04  3223   0.720E-03    0.225E-02
RMM:   5    -0.230414743827E+04    0.49751E-05   -0.27375E-05  2838   0.550E-03
  61 F= -.23241218E+04 E0= -.23241218E+04  d E =-.417653E-03  mag=     2.0000
       N       E                     dE             d eps       ncg     rms          rms(c)
DAV:   1    -0.230414703775E+04    0.40550E-03   -0.40340E-02  4528   0.189E-01    0.641E-02
RMM:   2    -0.230414744255E+04   -0.40480E-03   -0.42305E-03  5947   0.359E-02    0.324E-02
RMM:   3    -0.230414746799E+04   -0.25437E-04   -0.39599E-04  3244   0.143E-02    0.203E-02
RMM:   4    -0.230414746711E+04    0.88046E-06   -0.50341E-05  2835   0.396E-03
  62 F= -.23241219E+04 E0= -.23241219E+04  d E =-.447120E-03  mag=     2.0000
       N       E                     dE             d eps       ncg     rms          rms(c)
DAV:   1    -0.230414604827E+04    0.14197E-02   -0.17701E-01  4360   0.389E-01    0.140E-01
RMM:   2    -0.230414777405E+04   -0.17258E-02   -0.18252E-02  5730   0.713E-02    0.676E-02
RMM:   3    -0.230414787801E+04   -0.10396E-03   -0.17612E-03  4355   0.306E-02    0.419E-02
RMM:   4    -0.230414787329E+04    0.47164E-05   -0.23005E-04  3576   0.785E-03    0.229E-02
RMM:   5    -0.230414786793E+04    0.53591E-05   -0.28321E-05  2846   0.623E-03
  63 F= -.23241223E+04 E0= -.23241223E+04  d E =-.424028E-03  mag=     2.0000
       N       E                     dE             d eps       ncg     rms          rms(c)
DAV:   1    -0.230414777172E+04    0.10158E-03   -0.82836E-03  4960   0.845E-02    0.309E-02
RMM:   2    -0.230414785593E+04   -0.84216E-04   -0.88654E-04  5507   0.172E-02    0.153E-02
RMM:   3    -0.230414786193E+04   -0.59959E-05   -0.90092E-05  2813   0.717E-03
  64 F= -.23241223E+04 E0= -.23241223E+04  d E =-.423027E-03  mag=     2.0000
       N       E                     dE             d eps       ncg     rms          rms(c)
DAV:   1    -0.230414692839E+04    0.92754E-03   -0.13298E-01  4364   0.332E-01    0.120E-01
RMM:   2    -0.230414819827E+04   -0.12699E-02   -0.13475E-02  5659   0.612E-02    0.598E-02
RMM:   3    -0.230414825414E+04   -0.55870E-04   -0.11247E-03  4014   0.226E-02    0.367E-02
RMM:   4    -0.230414824892E+04    0.52208E-05   -0.16423E-04  3405   0.698E-03    0.194E-02
RMM:   5    -0.230414824561E+04    0.33064E-05   -0.19447E-05  2825   0.535E-03
  65 F= -.23241227E+04 E0= -.23241227E+04  d E =-.393636E-03  mag=     2.0000
       N       E                     dE             d eps       ncg     rms          rms(c)
DAV:   1    -0.230414809567E+04    0.15325E-03   -0.14904E-02  4656   0.111E-01    0.409E-02
RMM:   2    -0.230414823999E+04   -0.14432E-03   -0.15319E-03  5662   0.220E-02    0.204E-02
RMM:   3    -0.230414824951E+04   -0.95251E-05   -0.15726E-04  2889   0.956E-03    0.126E-02
RMM:   4    -0.230414824916E+04    0.35776E-06   -0.19620E-05  2807   0.268E-03
  66 F= -.23241227E+04 E0= -.23241227E+04  d E =-.400387E-03  mag=     2.0000
       N       E                     dE             d eps       ncg     rms          rms(c)
DAV:   1    -0.230414723764E+04    0.10119E-02   -0.14111E-01  4360   0.349E-01    0.126E-01
RMM:   2    -0.230414857237E+04   -0.13347E-02   -0.14146E-02  5714   0.634E-02    0.596E-02
RMM:   3    -0.230414863897E+04   -0.66593E-04   -0.12649E-03  4138   0.240E-02    0.363E-02
RMM:   4    -0.230414863549E+04    0.34734E-05   -0.17312E-04  3358   0.699E-03    0.195E-02
RMM:   5    -0.230414863216E+04    0.33324E-05   -0.20864E-05  2818   0.543E-03
  67 F= -.23241231E+04 E0= -.23241231E+04  d E =-.389245E-03  mag=     2.0000
       N       E                     dE             d eps       ncg     rms          rms(c)
DAV:   1    -0.230414847452E+04    0.16097E-03   -0.16032E-02  4704   0.118E-01    0.431E-02
RMM:   2    -0.230414862709E+04   -0.15257E-03   -0.16145E-03  5668   0.230E-02    0.207E-02
RMM:   3    -0.230414863677E+04   -0.96744E-05   -0.16064E-04  2886   0.100E-02    0.126E-02
RMM:   4    -0.230414863639E+04    0.37298E-06   -0.20486E-05  2809   0.279E-03
  68 F= -.23241231E+04 E0= -.23241231E+04  d E =-.395414E-03  mag=     2.0000
       N       E                     dE             d eps       ncg     rms          rms(c)
DAV:   1    -0.230414766152E+04    0.97525E-03   -0.12948E-01  4360   0.338E-01    0.122E-01
RMM:   2    -0.230414892744E+04   -0.12659E-02   -0.13375E-02  5697   0.620E-02    0.583E-02
RMM:   3    -0.230414898683E+04   -0.59383E-04   -0.11622E-03  4105   0.236E-02    0.353E-02
RMM:   4    -0.230414898189E+04    0.49386E-05   -0.16215E-04  3390   0.696E-03    0.188E-02
RMM:   5    -0.230414897882E+04    0.30687E-05   -0.19140E-05  2815   0.538E-03
  69 F= -.23241234E+04 E0= -.23241234E+04  d E =-.372808E-03  mag=     2.0000
       N       E                     dE             d eps       ncg     rms          rms(c)
DAV:   1    -0.230414887102E+04    0.11087E-03   -0.98496E-03  4816   0.936E-02    0.342E-02
RMM:   2    -0.230414896770E+04   -0.96677E-04   -0.10211E-03  5561   0.186E-02    0.167E-02
RMM:   3    -0.230414897351E+04   -0.58130E-05   -0.97159E-05  2845   0.807E-03
  70 F= -.23241235E+04 E0= -.23241235E+04  d E =-.375838E-03  mag=     2.0000
       N       E                     dE             d eps       ncg     rms          rms(c)
DAV:   1    -0.230414831558E+04    0.65211E-03   -0.91645E-02  4364   0.282E-01    0.104E-01
RMM:   2    -0.230414925005E+04   -0.93447E-03   -0.98706E-03  5665   0.524E-02    0.509E-02
RMM:   3    -0.230414927647E+04   -0.26417E-04   -0.67792E-04  3714   0.180E-02    0.314E-02
RMM:   4    -0.230414927080E+04    0.56690E-05   -0.11873E-04  3209   0.635E-03    0.163E-02
RMM:   5    -0.230414926842E+04    0.23844E-05   -0.14312E-05  2816   0.486E-03
  71 F= -.23241238E+04 E0= -.23241238E+04  d E =-.318507E-03  mag=     2.0000
       N       E                     dE             d eps       ncg     rms          rms(c)
DAV:   1    -0.230414918757E+04    0.83232E-04   -0.73813E-03  4800   0.803E-02    0.301E-02
RMM:   2    -0.230414926243E+04   -0.74859E-04   -0.79194E-04  5477   0.165E-02    0.150E-02
RMM:   3    -0.230414926735E+04   -0.49237E-05   -0.82945E-05  2816   0.711E-03
  72 F= -.23241238E+04 E0= -.23241238E+04  d E =-.324104E-03  mag=     2.0000
       N       E                     dE             d eps       ncg     rms          rms(c)
DAV:   1    -0.230414852233E+04    0.74010E-03   -0.10734E-01  4364   0.306E-01    0.114E-01
RMM:   2    -0.230414954370E+04   -0.10214E-02   -0.10892E-02  5699   0.566E-02    0.546E-02
RMM:   3    -0.230414957742E+04   -0.33721E-04   -0.87064E-04  3895   0.193E-02    0.336E-02
RMM:   4    -0.230414957127E+04    0.61469E-05   -0.14251E-04  3416   0.690E-03    0.173E-02
RMM:   5    -0.230414956821E+04    0.30603E-05   -0.16903E-05  2815   0.536E-03
  73 F= -.23241241E+04 E0= -.23241241E+04  d E =-.295721E-03  mag=     2.0000
       N       E                     dE             d eps       ncg     rms          rms(c)
DAV:   1    -0.230414954746E+04    0.23808E-04   -0.17665E-03  5216   0.397E-02    0.154E-02
RMM:   2    -0.230414956492E+04   -0.17455E-04   -0.18669E-04  3782   0.840E-03    0.782E-03
RMM:   3    -0.230414956630E+04   -0.13815E-05   -0.21356E-05  2630   0.475E-03
  74 F= -.23241241E+04 E0= -.23241241E+04  d E =-.293061E-03  mag=     2.0000
       N       E                     dE             d eps       ncg     rms          rms(c)
DAV:   1    -0.230414875113E+04    0.81378E-03   -0.10882E-01  4364   0.298E-01    0.112E-01
RMM:   2    -0.230414983019E+04   -0.10791E-02   -0.11437E-02  5695   0.552E-02    0.535E-02
RMM:   3    -0.230414987737E+04   -0.47187E-04   -0.95028E-04  3765   0.188E-02    0.335E-02
RMM:   4    -0.230414987337E+04    0.40016E-05   -0.12222E-04  2962   0.614E-03    0.188E-02
RMM:   5    -0.230414986898E+04    0.43952E-05   -0.20635E-05  2835   0.470E-03
  75 F= -.23241243E+04 E0= -.23241243E+04  d E =-.279978E-03  mag=     2.0000
       N       E                     dE             d eps       ncg     rms          rms(c)
DAV:   1    -0.230414976464E+04    0.10873E-03   -0.10580E-02  4640   0.932E-02    0.356E-02
RMM:   2    -0.230414987142E+04   -0.10677E-03   -0.11334E-03  5576   0.193E-02    0.174E-02
RMM:   3    -0.230414987870E+04   -0.72868E-05   -0.11841E-04  2827   0.757E-03    0.110E-02
RMM:   4    -0.230414987839E+04    0.31493E-06   -0.14532E-05  2790   0.234E-03
  76 F= -.23241244E+04 E0= -.23241244E+04  d E =-.282044E-03  mag=     2.0000
       N       E                     dE             d eps       ncg     rms          rms(c)
DAV:   1    -0.230414927926E+04    0.59945E-03   -0.78506E-02  4360   0.244E-01    0.916E-02
RMM:   2    -0.230415013487E+04   -0.85561E-03   -0.90051E-03  5806   0.463E-02    0.460E-02
RMM:   3    -0.230415017466E+04   -0.39786E-04   -0.69841E-04  3485   0.170E-02    0.289E-02
RMM:   4    -0.230415017277E+04    0.18907E-05   -0.91692E-05  2838   0.513E-03
  77 F= -.23241246E+04 E0= -.23241246E+04  d E =-.281064E-03  mag=     2.0000
       N       E                     dE             d eps       ncg     rms          rms(c)
DAV:   1    -0.230414974092E+04    0.43374E-03   -0.41301E-02  4368   0.177E-01    0.675E-02
RMM:   2    -0.230415018591E+04   -0.44498E-03   -0.46945E-03  5752   0.334E-02    0.348E-02
RMM:   3    -0.230415021228E+04   -0.26373E-04   -0.43296E-04  3243   0.147E-02    0.219E-02
RMM:   4    -0.230415021070E+04    0.15830E-05   -0.55781E-05  2823   0.406E-03
  78 F= -.23241247E+04 E0= -.23241247E+04  d E =-.308706E-03  mag=     2.0000
       N       E                     dE             d eps       ncg     rms          rms(c)
DAV:   1    -0.230414948761E+04    0.72467E-03   -0.86207E-02  4360   0.261E-01    0.982E-02
RMM:   2    -0.230415045210E+04   -0.96449E-03   -0.10102E-02  5936   0.497E-02    0.479E-02
RMM:   3    -0.230415049974E+04   -0.47641E-04   -0.79949E-04  3479   0.177E-02    0.295E-02
RMM:   4    -0.230415049650E+04    0.32404E-05   -0.10939E-04  2859   0.541E-03    0.166E-02
RMM:   5    -0.230415049311E+04    0.33939E-05   -0.17143E-05  2827   0.418E-03
  79 F= -.23241249E+04 E0= -.23241249E+04  d E =-.285443E-03  mag=     2.0000
       N       E                     dE             d eps       ncg     rms          rms(c)
DAV:   1    -0.230414989859E+04    0.59791E-03   -0.52961E-02  4368   0.205E-01    0.773E-02
RMM:   2    -0.230415049691E+04   -0.59832E-03   -0.62706E-03  6059   0.408E-02    0.380E-02
RMM:   3    -0.230415053123E+04   -0.34321E-04   -0.55222E-04  3187   0.138E-02    0.236E-02
RMM:   4    -0.230415052956E+04    0.16677E-05   -0.68334E-05  2831   0.424E-03
  80 F= -.23241250E+04 E0= -.23241250E+04  d E =-.323556E-03  mag=     2.0000
       N       E                     dE             d eps       ncg     rms          rms(c)
DAV:   1    -0.230414960866E+04    0.92257E-03   -0.10149E-01  4360   0.286E-01    0.109E-01
RMM:   2    -0.230415080487E+04   -0.11962E-02   -0.12493E-02  5772   0.546E-02    0.531E-02
RMM:   3    -0.230415086089E+04   -0.56023E-04   -0.94713E-04  3854   0.231E-02    0.324E-02
RMM:   4    -0.230415085717E+04    0.37240E-05   -0.13785E-04  2969   0.595E-03    0.177E-02
RMM:   5    -0.230415085396E+04    0.32045E-05   -0.17202E-05  2823   0.448E-03
  81 F= -.23241253E+04 E0= -.23241253E+04  d E =-.298471E-03  mag=     2.0000
       N       E                     dE             d eps       ncg     rms          rms(c)
DAV:   1    -0.230415060643E+04    0.25074E-03   -0.22347E-02  4496   0.134E-01    0.516E-02
RMM:   2    -0.230415086655E+04   -0.26012E-03   -0.27217E-03  5900   0.275E-02    0.253E-02
RMM:   3    -0.230415088302E+04   -0.16468E-04   -0.25743E-04  2914   0.109E-02    0.154E-02
RMM:   4    -0.230415088270E+04    0.31423E-06   -0.31429E-05  2813   0.304E-03
  82 F= -.23241253E+04 E0= -.23241253E+04  d E =-.314663E-03  mag=     2.0000
       N       E                     dE             d eps       ncg     rms          rms(c)
DAV:   1    -0.230414995944E+04    0.92357E-03   -0.10452E-01  4360   0.289E-01    0.113E-01
RMM:   2    -0.230415116676E+04   -0.12073E-02   -0.12678E-02  5783   0.557E-02    0.545E-02
RMM:   3    -0.230415122072E+04   -0.53957E-04   -0.95420E-04  3886   0.221E-02    0.331E-02
RMM:   4    -0.230415121608E+04    0.46345E-05   -0.14087E-04  3028   0.619E-03    0.180E-02
RMM:   5    -0.230415121234E+04    0.37432E-05   -0.17236E-05  2825   0.466E-03
  83 F= -.23241256E+04 E0= -.23241256E+04  d E =-.295653E-03  mag=     2.0000
       N       E                     dE             d eps       ncg     rms          rms(c)
DAV:   1    -0.230415109796E+04    0.11813E-03   -0.10380E-02  4768   0.913E-02    0.362E-02
RMM:   2    -0.230415121764E+04   -0.11968E-03   -0.12602E-03  5629   0.193E-02    0.178E-02
RMM:   3    -0.230415122553E+04   -0.78906E-05   -0.12251E-04  2856   0.790E-03    0.110E-02
RMM:   4    -0.230415122528E+04    0.24587E-06   -0.14984E-05  2794   0.229E-03
  84 F= -.23241256E+04 E0= -.23241256E+04  d E =-.297607E-03  mag=     2.0000
       N       E                     dE             d eps       ncg     rms          rms(c)
DAV:   1    -0.230415020485E+04    0.10207E-02   -0.11601E-01  4360   0.305E-01    0.117E-01
RMM:   2    -0.230415142546E+04   -0.12206E-02   -0.12874E-02  5772   0.576E-02    0.559E-02
RMM:   3    -0.230415148130E+04   -0.55839E-04   -0.10084E-03  3907   0.222E-02    0.344E-02
RMM:   4    -0.230415147659E+04    0.47100E-05   -0.14279E-04  2989   0.626E-03    0.192E-02
RMM:   5    -0.230415147199E+04    0.45918E-05   -0.20854E-05  2832   0.479E-03
  85 F= -.23241258E+04 E0= -.23241258E+04  d E =-.247028E-03  mag=     2.0000
       N       E                     dE             d eps       ncg     rms          rms(c)
DAV:   1    -0.230415141264E+04    0.63948E-04   -0.49617E-03  4928   0.633E-02    0.250E-02
RMM:   2    -0.230415146596E+04   -0.53319E-04   -0.56348E-04  5088   0.135E-02    0.124E-02
RMM:   3    -0.230415147010E+04   -0.41473E-05   -0.62626E-05  2799   0.613E-03
  86 F= -.23241258E+04 E0= -.23241258E+04  d E =-.245045E-03  mag=     2.0000
       N       E                     dE             d eps       ncg     rms          rms(c)
DAV:   1    -0.230415049081E+04    0.97515E-03   -0.11213E-01  4360   0.290E-01    0.113E-01
RMM:   2    -0.230415165344E+04   -0.11626E-02   -0.12329E-02  5758   0.557E-02    0.575E-02
RMM:   3    -0.230415170435E+04   -0.50910E-04   -0.10020E-03  3807   0.195E-02    0.360E-02
RMM:   4    -0.230415169740E+04    0.69502E-05   -0.14369E-04  3104   0.641E-03    0.196E-02
RMM:   5    -0.230415169231E+04    0.50908E-05   -0.22516E-05  2837   0.499E-03
  87 F= -.23241261E+04 E0= -.23241261E+04  d E =-.243419E-03  mag=     2.0000
       N       E                     dE             d eps       ncg     rms          rms(c)
DAV:   1    -0.230415168298E+04    0.14419E-04   -0.46620E-04  5048   0.192E-02    0.844E-03
RMM:   2    -0.230415168819E+04   -0.52069E-05   -0.57847E-05  2868   0.440E-03
  88 F= -.23241261E+04 E0= -.23241261E+04  d E =-.240673E-03  mag=     2.0000
       N       E                     dE             d eps       ncg     rms          rms(c)
DAV:   1    -0.230415081481E+04    0.86816E-03   -0.98770E-02  4364   0.274E-01    0.109E-01
RMM:   2    -0.230415185156E+04   -0.10367E-02   -0.10950E-02  5762   0.526E-02    0.549E-02
RMM:   3    -0.230415191799E+04   -0.66429E-04   -0.10966E-03  3941   0.227E-02    0.353E-02
RMM:   4    -0.230415191285E+04    0.51449E-05   -0.13167E-04  2880   0.602E-03    0.200E-02
RMM:   5    -0.230415190775E+04    0.50917E-05   -0.27505E-05  2870   0.467E-03
  89 F= -.23241263E+04 E0= -.23241263E+04  d E =-.246331E-03  mag=     2.0000
       N       E                     dE             d eps       ncg     rms          rms(c)
DAV:   1    -0.230415187469E+04    0.38159E-04   -0.22081E-03  5064   0.413E-02    0.171E-02
RMM:   2    -0.230415189919E+04   -0.24499E-04   -0.26184E-04  3944   0.917E-03    0.891E-03
RMM:   3    -0.230415190142E+04   -0.22353E-05   -0.31132E-05  2706   0.490E-03
  90 F= -.23241263E+04 E0= -.23241263E+04  d E =-.243979E-03  mag=     2.0000
       N       E                     dE             d eps       ncg     rms          rms(c)
DAV:   1    -0.230415113491E+04    0.76428E-03   -0.92356E-02  4360   0.275E-01    0.106E-01
RMM:   2    -0.230415210040E+04   -0.96550E-03   -0.10224E-02  5675   0.517E-02    0.523E-02
RMM:   3    -0.230415214850E+04   -0.48101E-04   -0.89358E-04  3768   0.203E-02    0.331E-02
RMM:   4    -0.230415214365E+04    0.48512E-05   -0.12345E-04  2968   0.605E-03    0.185E-02
RMM:   5    -0.230415213929E+04    0.43652E-05   -0.21482E-05  2844   0.465E-03
  91 F= -.23241266E+04 E0= -.23241266E+04  d E =-.242869E-03  mag=     2.0000
       N       E                     dE             d eps       ncg     rms          rms(c)
DAV:   1    -0.230415209098E+04    0.52674E-04   -0.38452E-03  5088   0.565E-02    0.223E-02
RMM:   2    -0.230415213297E+04   -0.41991E-04   -0.44548E-04  4707   0.121E-02    0.113E-02
RMM:   3    -0.230415213628E+04   -0.33119E-05   -0.48492E-05  2782   0.567E-03
  92 F= -.23241266E+04 E0= -.23241266E+04  d E =-.240800E-03  mag=     2.0000
       N       E                     dE             d eps       ncg     rms          rms(c)
DAV:   1    -0.230415151860E+04    0.61437E-03   -0.79781E-02  4360   0.258E-01    0.946E-02
RMM:   2    -0.230415232932E+04   -0.81072E-03   -0.85332E-03  5702   0.477E-02    0.473E-02
RMM:   3    -0.230415235996E+04   -0.30643E-04   -0.63204E-04  3569   0.177E-02    0.296E-02
RMM:   4    -0.230415235526E+04    0.47064E-05   -0.97549E-05  2888   0.560E-03
  93 F= -.23241268E+04 E0= -.23241268E+04  d E =-.217430E-03  mag=     2.0000
       N       E                     dE             d eps       ncg     rms          rms(c)
DAV:   1    -0.230415227057E+04    0.89390E-04   -0.78684E-03  4808   0.815E-02    0.309E-02
RMM:   2    -0.230415235041E+04   -0.79838E-04   -0.84200E-04  5442   0.163E-02    0.164E-02
RMM:   3    -0.230415235576E+04   -0.53551E-05   -0.88476E-05  2824   0.654E-03
  94 F= -.23241268E+04 E0= -.23241268E+04  d E =-.217319E-03  mag=     2.0000
       N       E                     dE             d eps       ncg     rms          rms(c)
DAV:   1    -0.230415182679E+04    0.52362E-03   -0.77288E-02  4360   0.259E-01    0.976E-02
RMM:   2    -0.230415251187E+04   -0.68508E-03   -0.73227E-03  5678   0.476E-02    0.465E-02
RMM:   3    -0.230415252514E+04   -0.13275E-04   -0.50592E-04  3638   0.173E-02    0.284E-02
RMM:   4    -0.230415251821E+04    0.69321E-05   -0.91000E-05  3152   0.600E-03
  95 F= -.23241270E+04 E0= -.23241270E+04  d E =-.180989E-03  mag=     2.0000
       N       E                     dE             d eps       ncg     rms          rms(c)
DAV:   1    -0.230415251451E+04    0.10630E-04   -0.68444E-05  4608   0.953E-03    0.643E-03
RMM:   2    -0.230415251521E+04   -0.69643E-06   -0.10496E-05  2744   0.258E-03
  96 F= -.23241270E+04 E0= -.23241270E+04  d E =-.178595E-03  mag=     2.0000
       N       E                     dE             d eps       ncg     rms          rms(c)
DAV:   1    -0.230415218728E+04    0.32723E-03   -0.54337E-02  4364   0.215E-01    0.805E-02
RMM:   2    -0.230415265316E+04   -0.46588E-03   -0.50030E-03  5690   0.400E-02    0.389E-02
RMM:   3    -0.230415266490E+04   -0.11734E-04   -0.39336E-04  3419   0.152E-02    0.242E-02
RMM:   4    -0.230415266049E+04    0.44042E-05   -0.60755E-05  2856   0.505E-03
  97 F= -.23241271E+04 E0= -.23241271E+04  d E =-.157240E-03  mag=     2.0000
       N       E                     dE             d eps       ncg     rms          rms(c)
DAV:   1    -0.230415265512E+04    0.97825E-05   -0.15387E-04  5040   0.126E-02    0.674E-03
RMM:   2    -0.230415265638E+04   -0.12670E-05   -0.19111E-05  2680   0.318E-03
  98 F= -.23241271E+04 E0= -.23241271E+04  d E =-.153819E-03  mag=     2.0000
       N       E                     dE             d eps       ncg     rms          rms(c)
DAV:   1    -0.230415245135E+04    0.20376E-03   -0.39484E-02  4364   0.186E-01    0.725E-02
RMM:   2    -0.230415276967E+04   -0.31832E-03   -0.34753E-03  5764   0.349E-02    0.330E-02
RMM:   3    -0.230415277746E+04   -0.77906E-05   -0.28508E-04  3304   0.137E-02    0.201E-02
RMM:   4    -0.230415277417E+04    0.32925E-05   -0.43928E-05  2835   0.448E-03
  99 F= -.23241272E+04 E0= -.23241272E+04  d E =-.130550E-03  mag=     2.0000
       N       E                     dE             d eps       ncg     rms          rms(c)
DAV:   1    -0.230415276650E+04    0.10954E-04   -0.39170E-04  5064   0.191E-02    0.830E-03
RMM:   2    -0.230415276980E+04   -0.32909E-05   -0.37948E-05  2768   0.431E-03
 100 F= -.23241272E+04 E0= -.23241272E+04  d E =-.127513E-03  mag=     2.0000
       N       E                     dE             d eps       ncg     rms          rms(c)
DAV:   1    -0.230415253717E+04    0.22934E-03   -0.35610E-02  4368   0.172E-01    0.650E-02
RMM:   2    -0.230415286827E+04   -0.33110E-03   -0.35421E-03  5936   0.339E-02    0.328E-02
RMM:   3    -0.230415288439E+04   -0.16124E-04   -0.34013E-04  3180   0.126E-02    0.207E-02
RMM:   4    -0.230415288133E+04    0.30629E-05   -0.43145E-05  2819   0.409E-03
 101 F= -.23241274E+04 E0= -.23241274E+04  d E =-.116483E-03  mag=     2.0000
       N       E                     dE             d eps       ncg     rms          rms(c)
DAV:   1    -0.230415286804E+04    0.16349E-04   -0.81359E-04  4984   0.265E-02    0.108E-02
RMM:   2    -0.230415287583E+04   -0.77856E-05   -0.88857E-05  3067   0.605E-03
 102 F= -.23241274E+04 E0= -.23241274E+04  d E =-.111721E-03  mag=     2.0000
       N       E                     dE             d eps       ncg     rms          rms(c)
DAV:   1    -0.230415269578E+04    0.17226E-03   -0.28743E-02  4368   0.153E-01    0.581E-02
RMM:   2    -0.230415298604E+04   -0.29026E-03   -0.30537E-03  6003   0.308E-02    0.298E-02
RMM:   3    -0.230415300051E+04   -0.14462E-04   -0.27332E-04  2959   0.106E-02    0.188E-02
RMM:   4    -0.230415299883E+04    0.16745E-05   -0.36484E-05  2816   0.356E-03
 103 F= -.23241275E+04 E0= -.23241275E+04  d E =-.117435E-03  mag=     2.0000
       N       E                     dE             d eps       ncg     rms          rms(c)
DAV:   1    -0.230415288056E+04    0.11994E-03   -0.12161E-02  4384   0.993E-02    0.379E-02
RMM:   2    -0.230415300328E+04   -0.12272E-03   -0.12968E-03  5613   0.191E-02    0.193E-02
RMM:   3    -0.230415300872E+04   -0.54347E-05   -0.10731E-04  2870   0.804E-03    0.123E-02
RMM:   4    -0.230415300830E+04    0.41943E-06   -0.16092E-05  2801   0.252E-03
 104 F= -.23241275E+04 E0= -.23241275E+04  d E =-.123059E-03  mag=     2.0000
       N       E                     dE             d eps       ncg     rms          rms(c)
DAV:   1    -0.230415281900E+04    0.18972E-03   -0.28955E-02  4360   0.151E-01    0.572E-02
RMM:   2    -0.230415312483E+04   -0.30583E-03   -0.32103E-03  5866   0.285E-02    0.285E-02
RMM:   3    -0.230415313875E+04   -0.13919E-04   -0.25575E-04  2944   0.108E-02    0.178E-02
RMM:   4    -0.230415313764E+04    0.11065E-05   -0.34569E-05  2819   0.355E-03
 105 F= -.23241276E+04 E0= -.23241276E+04  d E =-.112508E-03  mag=     2.0000
       N       E                     dE             d eps       ncg     rms          rms(c)
DAV:   1    -0.230415305395E+04    0.84796E-04   -0.94568E-03  4480   0.865E-02    0.332E-02
RMM:   2    -0.230415315233E+04   -0.98379E-04   -0.10336E-03  5499   0.167E-02    0.172E-02
RMM:   3    -0.230415315792E+04   -0.55912E-05   -0.95472E-05  2844   0.716E-03
 106 F= -.23241276E+04 E0= -.23241276E+04  d E =-.122933E-03  mag=     2.0000
       N       E                     dE             d eps       ncg     rms          rms(c)
DAV:   1    -0.230415305907E+04    0.93265E-04   -0.24821E-02  4360   0.144E-01    0.585E-02
RMM:   2    -0.230415329857E+04   -0.23950E-03   -0.25653E-03  5704   0.272E-02    0.283E-02
RMM:   3    -0.230415330178E+04   -0.32168E-05   -0.16573E-04  2950   0.930E-03    0.173E-02
RMM:   4    -0.230415329984E+04    0.19422E-05   -0.34486E-05  2818   0.386E-03
 107 F= -.23241277E+04 E0= -.23241277E+04  d E =-.118057E-03  mag=     2.0000
       N       E                     dE             d eps       ncg     rms          rms(c)
DAV:   1    -0.230415328176E+04    0.20025E-04   -0.28982E-03  4944   0.493E-02    0.204E-02
RMM:   2    -0.230415330840E+04   -0.26640E-04   -0.28728E-04  4262   0.102E-02    0.100E-02
RMM:   3    -0.230415331023E+04   -0.18344E-05   -0.32943E-05  2773   0.542E-03
 108 F= -.23241277E+04 E0= -.23241277E+04  d E =-.120116E-03  mag=     2.0000
       N       E                     dE             d eps       ncg     rms          rms(c)
DAV:   1    -0.230415321281E+04    0.95592E-04   -0.20472E-02  4364   0.129E-01    0.525E-02
RMM:   2    -0.230415340206E+04   -0.18925E-03   -0.20357E-03  5679   0.243E-02    0.248E-02
RMM:   3    -0.230415340728E+04   -0.52200E-05   -0.15596E-04  2896   0.938E-03    0.155E-02
RMM:   4    -0.230415340613E+04    0.11416E-05   -0.27282E-05  2811   0.342E-03
 109 F= -.23241278E+04 E0= -.23241278E+04  d E =-.898575E-04  mag=     2.0000
       N       E                     dE             d eps       ncg     rms          rms(c)
DAV:   1    -0.230415337411E+04    0.33164E-04   -0.37602E-03  4792   0.554E-02    0.228E-02
RMM:   2    -0.230415340920E+04   -0.35085E-04   -0.37787E-04  4608   0.111E-02    0.111E-02
RMM:   3    -0.230415341100E+04   -0.18036E-05   -0.36527E-05  2792   0.536E-03
 110 F= -.23241278E+04 E0= -.23241278E+04  d E =-.920243E-04  mag=     2.0000
       N       E                     dE             d eps       ncg     rms          rms(c)
DAV:   1    -0.230415332659E+04    0.82603E-04   -0.20980E-02  4364   0.132E-01    0.534E-02
RMM:   2    -0.230415351186E+04   -0.18527E-03   -0.19978E-03  5711   0.248E-02    0.244E-02
RMM:   3    -0.230415351475E+04   -0.28895E-05   -0.13484E-04  2905   0.861E-03    0.148E-02
RMM:   4    -0.230415351340E+04    0.13510E-05   -0.25986E-05  2810   0.343E-03
 111 F= -.23241279E+04 E0= -.23241279E+04  d E =-.952762E-04  mag=     2.0000
       N       E                     dE             d eps       ncg     rms          rms(c)
DAV:   1    -0.230415348619E+04    0.28565E-04   -0.36676E-03  4800   0.553E-02    0.225E-02
RMM:   2    -0.230415351763E+04   -0.31440E-04   -0.33926E-04  4553   0.110E-02    0.106E-02
RMM:   3    -0.230415351921E+04   -0.15885E-05   -0.33404E-05  2784   0.547E-03
 112 F= -.23241279E+04 E0= -.23241279E+04  d E =-.980083E-04  mag=     2.0000
       N       E                     dE             d eps       ncg     rms          rms(c)
DAV:   1    -0.230415341844E+04    0.99187E-04   -0.22244E-02  4364   0.132E-01    0.537E-02
RMM:   2    -0.230415363907E+04   -0.22063E-03   -0.23620E-03  5715   0.255E-02    0.264E-02
RMM:   3    -0.230415364452E+04   -0.54501E-05   -0.16910E-04  2915   0.902E-03    0.164E-02
RMM:   4    -0.230415364271E+04    0.18091E-05   -0.27580E-05  2809   0.357E-03
 113 F= -.23241280E+04 E0= -.23241280E+04  d E =-.906936E-04  mag=     2.0000
       N       E                     dE             d eps       ncg     rms          rms(c)
DAV:   1    -0.230415363777E+04    0.67472E-05   -0.11490E-03  5040   0.304E-02    0.128E-02
RMM:   2    -0.230415364901E+04   -0.11245E-04   -0.12273E-04  3248   0.663E-03    0.680E-03
RMM:   3    -0.230415364969E+04   -0.67733E-06   -0.14144E-05  2516   0.403E-03
 114 F= -.23241280E+04 E0= -.23241280E+04  d E =-.899688E-04  mag=     2.0000
       N       E                     dE             d eps       ncg     rms          rms(c)
DAV:   1    -0.230415357579E+04    0.73224E-04   -0.20831E-02  4364   0.131E-01    0.536E-02
RMM:   2    -0.230415379116E+04   -0.21537E-03   -0.23019E-03  5600   0.251E-02    0.255E-02
RMM:   3    -0.230415379836E+04   -0.71965E-05   -0.18140E-04  3003   0.113E-02    0.158E-02
RMM:   4    -0.230415379696E+04    0.13969E-05   -0.27659E-05  2810   0.348E-03
 115 F= -.23241281E+04 E0= -.23241281E+04  d E =-.977933E-04  mag=     2.0000
       N       E                     dE             d eps       ncg     rms          rms(c)
DAV:   1    -0.230415379325E+04    0.51036E-05   -0.17766E-03  4968   0.385E-02    0.162E-02
RMM:   2    -0.230415381153E+04   -0.18275E-04   -0.19725E-04  3708   0.816E-03    0.830E-03
RMM:   3    -0.230415381262E+04   -0.10960E-05   -0.20854E-05  2699   0.451E-03
 116 F= -.23241281E+04 E0= -.23241281E+04  d E =-.986183E-04  mag=     2.0000
       N       E                     dE             d eps       ncg     rms          rms(c)
DAV:   1    -0.230415369905E+04    0.11248E-03   -0.19577E-02  4368   0.125E-01    0.506E-02
RMM:   2    -0.230415391898E+04   -0.21993E-03   -0.23287E-03  5618   0.242E-02    0.257E-02
RMM:   3    -0.230415392845E+04   -0.94720E-05   -0.19203E-04  2960   0.108E-02    0.163E-02
RMM:   4    -0.230415392699E+04    0.14538E-05   -0.29874E-05  2806   0.335E-03
 117 F= -.23241282E+04 E0= -.23241282E+04  d E =-.895922E-04  mag=     2.0000
       N       E                     dE             d eps       ncg     rms          rms(c)
DAV:   1    -0.230415391667E+04    0.11776E-04   -0.13567E-03  4976   0.332E-02    0.141E-02
RMM:   2    -0.230415393213E+04   -0.15457E-04   -0.16582E-04  3412   0.722E-03    0.766E-03
RMM:   3    -0.230415393330E+04   -0.11704E-05   -0.19286E-05  2556   0.420E-03
 118 F= -.23241282E+04 E0= -.23241282E+04  d E =-.891357E-04  mag=     2.0000
       N       E                     dE             d eps       ncg     rms          rms(c)
DAV:   1    -0.230415385137E+04    0.80757E-04   -0.16129E-02  4368   0.115E-01    0.452E-02
RMM:   2    -0.230415401733E+04   -0.16595E-03   -0.17619E-03  5587   0.218E-02    0.230E-02
RMM:   3    -0.230415402340E+04   -0.60709E-05   -0.13976E-04  2901   0.983E-03    0.144E-02
RMM:   4    -0.230415402209E+04    0.13074E-05   -0.22956E-05  2804   0.312E-03
 119 F= -.23241283E+04 E0= -.23241283E+04  d E =-.831078E-04  mag=     2.0000
       N       E                     dE             d eps       ncg     rms          rms(c)
DAV:   1    -0.230415400583E+04    0.17563E-04   -0.20836E-03  4832   0.414E-02    0.168E-02
RMM:   2    -0.230415402680E+04   -0.20961E-04   -0.22464E-04  3831   0.855E-03    0.890E-03
RMM:   3    -0.230415402839E+04   -0.15983E-05   -0.26573E-05  2740   0.461E-03
 120 F= -.23241283E+04 E0= -.23241283E+04  d E =-.872819E-04  mag=     2.0000
       N       E                     dE             d eps       ncg     rms          rms(c)
DAV:   1    -0.230415399518E+04    0.31613E-04   -0.13947E-02  4368   0.111E-01    0.435E-02
RMM:   2    -0.230415410412E+04   -0.10894E-03   -0.11909E-03  5572   0.205E-02    0.207E-02
RMM:   3    -0.230415410514E+04   -0.10204E-05   -0.88916E-05  2860   0.867E-03
 121 F= -.23241283E+04 E0= -.23241283E+04  d E =-.712369E-04  mag=     2.0000
       N       E                     dE             d eps       ncg     rms          rms(c)
DAV:   1    -0.230415409764E+04    0.64864E-05   -0.92725E-04  5224   0.287E-02    0.133E-02
RMM:   2    -0.230415410523E+04   -0.75938E-05   -0.90631E-05  3012   0.602E-03
 122 F= -.23241283E+04 E0= -.23241283E+04  d E =-.698195E-04  mag=     2.0000
       N       E                     dE             d eps       ncg     rms          rms(c)
DAV:   1    -0.230415410622E+04   -0.85857E-05   -0.12329E-02  4368   0.103E-01    0.402E-02
RMM:   2    -0.230415418859E+04   -0.82366E-04   -0.90955E-04  5559   0.202E-02    0.199E-02
RMM:   3    -0.230415418935E+04   -0.76000E-06   -0.74391E-05  2843   0.814E-03
 123 F= -.23241284E+04 E0= -.23241284E+04  d E =-.692037E-04  mag=     2.0000
       N       E                     dE             d eps       ncg     rms          rms(c)
DAV:   1    -0.230415418749E+04    0.11006E-05   -0.83267E-04  5184   0.269E-02    0.125E-02
RMM:   2    -0.230415419307E+04   -0.55835E-05   -0.68166E-05  2899   0.547E-03
 124 F= -.23241284E+04 E0= -.23241284E+04  d E =-.688939E-04  mag=     2.0000
       N       E                     dE             d eps       ncg     rms          rms(c)
DAV:   1    -0.230415418546E+04    0.20270E-05   -0.13417E-02  4368   0.111E-01    0.429E-02
RMM:   2    -0.230415426011E+04   -0.74643E-04   -0.84575E-04  5559   0.214E-02    0.199E-02
RMM:   3    -0.230415425936E+04    0.74619E-06   -0.72725E-05  2870   0.861E-03
 125 F= -.23241285E+04 E0= -.23241285E+04  d E =-.688636E-04  mag=     2.0000
       N       E                     dE             d eps       ncg     rms          rms(c)
DAV:   1    -0.230415425509E+04    0.50168E-05   -0.36118E-04  5080   0.185E-02    0.941E-03
RMM:   2    -0.230415425711E+04   -0.20217E-05   -0.28798E-05  2643   0.406E-03
 126 F= -.23241285E+04 E0= -.23241285E+04  d E =-.670596E-04  mag=     2.0000
       N       E                     dE             d eps       ncg     rms          rms(c)
DAV:   1    -0.230415425175E+04    0.33387E-05   -0.12119E-02  4368   0.106E-01    0.405E-02
RMM:   2    -0.230415432260E+04   -0.70853E-04   -0.78895E-04  5493   0.199E-02    0.189E-02
RMM:   3    -0.230415432213E+04    0.47493E-06   -0.63484E-05  2841   0.849E-03
 127 F= -.23241285E+04 E0= -.23241285E+04  d E =-.647265E-04  mag=     2.0000
       N       E                     dE             d eps       ncg     rms          rms(c)
DAV:   1    -0.230415431754E+04    0.50660E-05   -0.60352E-04  5288   0.239E-02    0.109E-02
RMM:   2    -0.230415432116E+04   -0.36245E-05   -0.44619E-05  2760   0.479E-03
 128 F= -.23241285E+04 E0= -.23241285E+04  d E =-.636824E-04  mag=     2.0000
       N       E                     dE             d eps       ncg     rms          rms(c)
DAV:   1    -0.230415431763E+04   -0.94748E-07   -0.12168E-02  4364   0.106E-01    0.398E-02
RMM:   2    -0.230415439905E+04   -0.81420E-04   -0.89457E-04  5563   0.206E-02    0.194E-02
RMM:   3    -0.230415439978E+04   -0.72645E-06   -0.76888E-05  2846   0.831E-03
 129 F= -.23241286E+04 E0= -.23241286E+04  d E =-.620134E-04  mag=     2.0000
       N       E                     dE             d eps       ncg     rms          rms(c)
DAV:   1    -0.230415439863E+04    0.42148E-06   -0.26848E-04  5056   0.160E-02    0.829E-03
RMM:   2    -0.230415440060E+04   -0.19699E-05   -0.25825E-05  2588   0.361E-03
 130 F= -.23241286E+04 E0= -.23241286E+04  d E =-.602107E-04  mag=     2.0000
       N       E                     dE             d eps       ncg     rms          rms(c)
DAV:   1    -0.230415439031E+04    0.83217E-05   -0.13016E-02  4364   0.108E-01    0.401E-02
RMM:   2    -0.230415448606E+04   -0.95750E-04   -0.10407E-03  5607   0.205E-02    0.200E-02
RMM:   3    -0.230415448780E+04   -0.17412E-05   -0.90325E-05  2843   0.859E-03
 131 F= -.23241287E+04 E0= -.23241287E+04  d E =-.623650E-04  mag=     2.0000
       N       E                     dE             d eps       ncg     rms          rms(c)
DAV:   1    -0.230415448770E+04   -0.16383E-05   -0.39788E-04  5064   0.190E-02    0.979E-03
RMM:   2    -0.230415449064E+04   -0.29395E-05   -0.39284E-05  2669   0.419E-03
 132 F= -.23241287E+04 E0= -.23241287E+04  d E =-.606428E-04  mag=     2.0000
       N       E                     dE             d eps       ncg     rms          rms(c)
DAV:   1    -0.230415443440E+04    0.53293E-04   -0.12512E-02  4364   0.106E-01    0.399E-02
RMM:   2    -0.230415452871E+04   -0.94304E-04   -0.10186E-03  5631   0.206E-02    0.197E-02
RMM:   3    -0.230415453127E+04   -0.25609E-05   -0.91057E-05  2838   0.840E-03
 133 F= -.23241287E+04 E0= -.23241287E+04  d E =-.680383E-04  mag=     2.0000
       N       E                     dE             d eps       ncg     rms          rms(c)
DAV:   1    -0.230415452046E+04    0.82525E-05   -0.52643E-04  5176   0.217E-02    0.107E-02
RMM:   2    -0.230415452462E+04   -0.41672E-05   -0.49506E-05  2755   0.458E-03
 134 F= -.23241287E+04 E0= -.23241287E+04  d E =-.672396E-04  mag=     2.0000
       N       E                     dE             d eps       ncg     rms          rms(c)
DAV:   1    -0.230415445932E+04    0.61131E-04   -0.12764E-02  4360   0.107E-01    0.397E-02
RMM:   2    -0.230415455216E+04   -0.92837E-04   -0.10059E-03  5643   0.208E-02    0.198E-02
RMM:   3    -0.230415455370E+04   -0.15407E-05   -0.81729E-05  2838   0.815E-03
 135 F= -.23241288E+04 E0= -.23241288E+04  d E =-.576762E-04  mag=     2.0000
       N       E                     dE             d eps       ncg     rms          rms(c)
DAV:   1    -0.230415454410E+04    0.80625E-05   -0.39101E-04  5072   0.188E-02    0.962E-03
RMM:   2    -0.230415454708E+04   -0.29844E-05   -0.37773E-05  2664   0.418E-03
 136 F= -.23241288E+04 E0= -.23241288E+04  d E =-.562904E-04  mag=     2.0000
       N       E                     dE             d eps       ncg     rms          rms(c)
DAV:   1    -0.230415454196E+04    0.21383E-05   -0.11210E-02  4360   0.103E-01    0.382E-02
RMM:   2    -0.230415460613E+04   -0.64170E-04   -0.71835E-04  5523   0.197E-02    0.182E-02
RMM:   3    -0.230415460559E+04    0.54405E-06   -0.59828E-05  2834   0.817E-03
 137 F= -.23241289E+04 E0= -.23241289E+04  d E =-.609512E-04  mag=     2.0000
       N       E                     dE             d eps       ncg     rms          rms(c)
DAV:   1    -0.230415460342E+04    0.27106E-05   -0.67766E-05  5032   0.840E-03    0.624E-03
RMM:   2    -0.230415460386E+04   -0.43778E-06   -0.71589E-06  2387   0.228E-03
 138 F= -.23241289E+04 E0= -.23241289E+04  d E =-.594265E-04  mag=     2.0000
       N       E                     dE             d eps       ncg     rms          rms(c)
DAV:   1    -0.230415461333E+04   -0.99132E-05   -0.86098E-03  4364   0.912E-02    0.333E-02
RMM:   2    -0.230415465159E+04   -0.38252E-04   -0.44240E-04  5301   0.159E-02    0.151E-02
RMM:   3    -0.230415464996E+04    0.16211E-05   -0.33647E-05  2814   0.796E-03
 139 F= -.23241289E+04 E0= -.23241289E+04  d E =-.439886E-04  mag=     2.0000
       N       E                     dE             d eps       ncg     rms          rms(c)
DAV:   1    -0.230415464696E+04    0.46250E-05   -0.38000E-04  5072   0.193E-02    0.846E-03
RMM:   2    -0.230415464856E+04   -0.16017E-05   -0.22586E-05  2574   0.399E-03
 140 F= -.23241289E+04 E0= -.23241289E+04  d E =-.421127E-04  mag=     2.0000
       N       E                     dE             d eps       ncg     rms          rms(c)
DAV:   1    -0.230415465778E+04   -0.10824E-04   -0.56275E-03  4368   0.718E-02    0.247E-02
RMM:   2    -0.230415468255E+04   -0.24771E-04   -0.28028E-04  4898   0.137E-02    0.124E-02
RMM:   3    -0.230415468224E+04    0.31834E-06   -0.24512E-05  2768   0.595E-03
 141 F= -.23241289E+04 E0= -.23241289E+04  d E =-.406743E-04  mag=     2.0000
       N       E                     dE             d eps       ncg     rms          rms(c)
DAV:   1    -0.230415467588E+04    0.66703E-05   -0.13274E-03  4616   0.348E-02    0.126E-02
RMM:   2    -0.230415468151E+04   -0.56265E-05   -0.66142E-05  3103   0.663E-03
 142 F= -.23241289E+04 E0= -.23241289E+04  d E =-.434216E-04  mag=     2.0000
       N       E                     dE             d eps       ncg     rms          rms(c)
DAV:   1    -0.230415469980E+04   -0.23916E-04   -0.64597E-03  4368   0.783E-02    0.292E-02
RMM:   2    -0.230415472647E+04   -0.26668E-04   -0.31131E-04  4944   0.154E-02    0.139E-02
RMM:   3    -0.230415472549E+04    0.97402E-06   -0.27514E-05  2798   0.644E-03
 143 F= -.23241290E+04 E0= -.23241290E+04  d E =-.516053E-04  mag=     2.0000
       N       E                     dE             d eps       ncg     rms          rms(c)
DAV:   1    -0.230415472031E+04    0.61534E-05   -0.14257E-03  4848   0.368E-02    0.141E-02
RMM:   2    -0.230415472563E+04   -0.53148E-05   -0.66699E-05  3163   0.726E-03
 144 F= -.23241290E+04 E0= -.23241290E+04  d E =-.554076E-04  mag=     2.0000
       N       E                     dE             d eps       ncg     rms          rms(c)
DAV:   1    -0.230415472121E+04   -0.89902E-06   -0.58692E-03  4368   0.759E-02    0.284E-02
RMM:   2    -0.230415474670E+04   -0.25491E-04   -0.29806E-04  4901   0.153E-02    0.136E-02
RMM:   3    -0.230415474597E+04    0.73196E-06   -0.27895E-05  2789   0.652E-03
 145 F= -.23241290E+04 E0= -.23241290E+04  d E =-.396934E-04  mag=     2.0000
       N       E                     dE             d eps       ncg     rms          rms(c)
DAV:   1    -0.230415474080E+04    0.58992E-05   -0.24577E-04  5080   0.157E-02    0.685E-03
RMM:   2    -0.230415474187E+04   -0.10668E-05   -0.14129E-05  2434   0.333E-03
 146 F= -.23241290E+04 E0= -.23241290E+04  d E =-.397558E-04  mag=     2.0000
       N       E                     dE             d eps       ncg     rms          rms(c)
DAV:   1    -0.230415474284E+04   -0.20381E-05   -0.59613E-03  4364   0.771E-02    0.287E-02
RMM:   2    -0.230415477022E+04   -0.27379E-04   -0.31682E-04  4906   0.144E-02    0.129E-02
RMM:   3    -0.230415476956E+04    0.66520E-06   -0.28005E-05  2795   0.687E-03
 147 F= -.23241291E+04 E0= -.23241291E+04  d E =-.385392E-04  mag=     2.0000
       N       E                     dE             d eps       ncg     rms          rms(c)
DAV:   1    -0.230415476481E+04    0.54085E-05   -0.27397E-04  5096   0.167E-02    0.729E-03
RMM:   2    -0.230415476605E+04   -0.12362E-05   -0.17125E-05  2467   0.355E-03
 148 F= -.23241291E+04 E0= -.23241291E+04  d E =-.374916E-04  mag=     2.0000
       N       E                     dE             d eps       ncg     rms          rms(c)
DAV:   1    -0.230415476828E+04   -0.34707E-05   -0.45757E-03  4364   0.664E-02    0.240E-02
RMM:   2    -0.230415479186E+04   -0.23580E-04   -0.26542E-04  4704   0.129E-02    0.116E-02
RMM:   3    -0.230415479209E+04   -0.22267E-06   -0.26358E-05  2773   0.606E-03
 149 F= -.23241291E+04 E0= -.23241291E+04  d E =-.331338E-04  mag=     2.0000
       N       E                     dE             d eps       ncg     rms          rms(c)
DAV:   1    -0.230415478867E+04    0.31968E-05   -0.34803E-04  4984   0.184E-02    0.759E-03
RMM:   2    -0.230415479052E+04   -0.18574E-05   -0.22533E-05  2488   0.381E-03
 150 F= -.23241291E+04 E0= -.23241291E+04  d E =-.336044E-04  mag=     2.0000
