       N       E                     dE             d eps       ncg     rms          rms(c)
DAV:   1     0.127193403086E+05    0.12719E+05   -0.84792E+05  4640   0.143E+03
DAV:   2    -0.122554170254E+04   -0.13945E+05   -0.13370E+05  5200   0.325E+02
DAV:   3    -0.250251061630E+04   -0.12770E+04   -0.12664E+04  5440   0.107E+02
DAV:   4    -0.253330732822E+04   -0.30797E+02   -0.30624E+02  5680   0.212E+01
DAV:   5    -0.253430079315E+04   -0.99346E+00   -0.99156E+00  5840   0.313E+00    0.170E+02
RMM:   6    -0.149936231725E+04    0.10349E+04   -0.19393E+03  4516   0.380E+01    0.732E+01
RMM:   7    -0.167893136061E+04   -0.17957E+03   -0.30702E+02  5274   0.152E+01    0.564E+01
RMM:   8    -0.171036467091E+04   -0.31433E+02   -0.82660E+01  5401   0.827E+00    0.424E+01
RMM:   9    -0.178852370183E+04   -0.78159E+02   -0.54236E+01  5064   0.729E+00    0.324E+01
RMM:  10    -0.192123589313E+04   -0.13271E+03   -0.62081E+01  5470   0.756E+00    0.265E+01
RMM:  11    -0.200293020644E+04   -0.81694E+02   -0.32974E+01  5491   0.489E+00    0.177E+01
RMM:  12    -0.209635290610E+04   -0.93423E+02   -0.41704E+01  4822   0.503E+00    0.150E+01
RMM:  13    -0.217927613280E+04   -0.82923E+02   -0.44930E+01  4859   0.519E+00    0.122E+01
RMM:  14    -0.227773244076E+04   -0.98456E+02   -0.82858E+01  4540   0.655E+00    0.730E+00
RMM:  15    -0.231230962885E+04   -0.34577E+02   -0.33170E+01  4634   0.463E+00    0.384E+00
RMM:  16    -0.232426908322E+04   -0.11959E+02   -0.15006E+01  4872   0.256E+00    0.291E+00
RMM:  17    -0.232747291149E+04   -0.32038E+01   -0.33440E+00  5056   0.135E+00    0.191E+00
RMM:  18    -0.232916197491E+04   -0.16891E+01   -0.17056E+00  4666   0.740E-01    0.138E+00
RMM:  19    -0.232966190274E+04   -0.49993E+00   -0.57422E-01  4861   0.509E-01    0.613E-01
RMM:  20    -0.232990818897E+04   -0.24629E+00   -0.29845E-01  4669   0.249E-01    0.429E-01
RMM:  21    -0.232996593777E+04   -0.57749E-01   -0.69459E-02  4856   0.169E-01    0.229E-01
RMM:  22    -0.232999376468E+04   -0.27827E-01   -0.20001E-02  4796   0.840E-02    0.133E-01
RMM:  23    -0.233001238893E+04   -0.18624E-01   -0.69502E-03  4613   0.633E-02    0.861E-02
RMM:  24    -0.233002377180E+04   -0.11383E-01   -0.36531E-03  4627   0.439E-02    0.568E-02
RMM:  25    -0.233002918813E+04   -0.54163E-02   -0.16999E-03  4735   0.329E-02    0.448E-02
RMM:  26    -0.233003240689E+04   -0.32188E-02   -0.10318E-03  4325   0.220E-02    0.189E-02
RMM:  27    -0.233003356716E+04   -0.11603E-02   -0.37873E-04  4180   0.163E-02    0.106E-02
RMM:  28    -0.233003400805E+04   -0.44089E-03   -0.13552E-04  3934   0.821E-03    0.642E-03
RMM:  29    -0.233003418524E+04   -0.17719E-03   -0.39041E-05  3373   0.613E-03    0.404E-03
RMM:  30    -0.233003428569E+04   -0.10045E-03   -0.23911E-05  3155   0.382E-03    0.232E-03
RMM:  31    -0.233003431547E+04   -0.29785E-04   -0.78840E-06  2895   0.310E-03    0.133E-03
RMM:  32    -0.233003432875E+04   -0.13283E-04   -0.50021E-06  2625   0.218E-03    0.754E-04
RMM:  33    -0.233003433097E+04   -0.22121E-05   -0.20320E-06  2492   0.193E-03
   1 F= -.23514784E+04 E0= -.23514784E+04  d E =-.511445E-05  mag=     3.9999
       N       E                     dE             d eps       ncg     rms          rms(c)
DAV:   1    -0.233005189624E+04   -0.17567E-01   -0.19541E+00  4480   0.629E-01    0.299E-01
RMM:   2    -0.233005240639E+04   -0.51015E-03   -0.11787E-02  4413   0.459E-02    0.283E-01
RMM:   3    -0.233005203439E+04    0.37200E-03   -0.29168E-03  3962   0.272E-02    0.245E-01
RMM:   4    -0.233005154338E+04    0.49100E-03   -0.10910E-03  4433   0.144E-02    0.126E-01
RMM:   5    -0.233005145639E+04    0.86994E-04   -0.44231E-04  3439   0.112E-02    0.881E-02
RMM:   6    -0.233005135064E+04    0.10575E-03   -0.13761E-04  3158   0.719E-03    0.247E-02
RMM:   7    -0.233005134902E+04    0.16170E-05   -0.21620E-05  2811   0.298E-03
   2 F= -.23514948E+04 E0= -.23514948E+04  d E =-.572843E-05  mag=     4.0000
       N       E                     dE             d eps       ncg     rms          rms(c)
DAV:   1    -0.233000516601E+04    0.46185E-01   -0.77848E+00  4480   0.125E+00    0.594E-01
RMM:   2    -0.233000679832E+04   -0.16323E-02   -0.45544E-02  4642   0.909E-02    0.536E-01
RMM:   3    -0.233000574162E+04    0.10567E-02   -0.11571E-02  4403   0.579E-02    0.494E-01
RMM:   4    -0.233000374820E+04    0.19934E-02   -0.43741E-03  5373   0.285E-02    0.250E-01
RMM:   5    -0.233000329687E+04    0.45133E-03   -0.16627E-03  4579   0.209E-02    0.155E-01
RMM:   6    -0.233000297325E+04    0.32361E-03   -0.42756E-04  3677   0.114E-02    0.432E-02
RMM:   7    -0.233000297076E+04    0.24905E-05   -0.69054E-05  3151   0.484E-03
   3 F= -.23514475E+04 E0= -.23514475E+04  d E =-.487104E-05  mag=     4.0000
       N       E                     dE             d eps       ncg     rms          rms(c)
DAV:   1    -0.233001042322E+04   -0.74500E-02   -0.38429E+00  4480   0.832E-01    0.363E-01
RMM:   2    -0.233001137240E+04   -0.94918E-03   -0.13961E-02  4622   0.504E-02    0.353E-01
RMM:   3    -0.233001018159E+04    0.11908E-02   -0.43158E-03  5068   0.296E-02    0.211E-01
RMM:   4    -0.233000963389E+04    0.54770E-03   -0.10099E-03  4560   0.153E-02    0.108E-01
RMM:   5    -0.233000965883E+04   -0.24940E-04   -0.45103E-04  3324   0.941E-03    0.112E-01
RMM:   6    -0.233000953046E+04    0.12837E-03   -0.99676E-05  2940   0.587E-03    0.221E-02
RMM:   7    -0.233000953495E+04   -0.44933E-05   -0.27926E-05  2902   0.311E-03
   4 F= -.23514541E+04 E0= -.23514541E+04  d E =-.452566E-05  mag=     4.0000
       N       E                     dE             d eps       ncg     rms          rms(c)
DAV:   1    -0.233004947787E+04   -0.39947E-01   -0.77797E+00  4480   0.125E+00    0.643E-01
RMM:   2    -0.233005399734E+04   -0.45195E-02   -0.46234E-02  5107   0.102E-01    0.712E-01
RMM:   3    -0.233005017266E+04    0.38247E-02   -0.13143E-02  5492   0.584E-02    0.471E-01
RMM:   4    -0.233004846094E+04    0.17117E-02   -0.49432E-03  5503   0.301E-02    0.328E-01
RMM:   5    -0.233004759038E+04    0.87056E-03   -0.22234E-03  5113   0.210E-02    0.169E-01
RMM:   6    -0.233004724859E+04    0.34178E-03   -0.42744E-04  3549   0.100E-02    0.455E-02
RMM:   7    -0.233004723381E+04    0.14785E-04   -0.70697E-05  3136   0.518E-03    0.228E-02
RMM:   8    -0.233004723843E+04   -0.46230E-05   -0.20819E-05  2981   0.350E-03
   5 F= -.23514907E+04 E0= -.23514907E+04  d E =-.537814E-05  mag=     4.0000
       N       E                     dE             d eps       ncg     rms          rms(c)
DAV:   1    -0.232995910408E+04    0.88130E-01   -0.42074E+00  4640   0.990E-01    0.521E-01
RMM:   2    -0.232996601898E+04   -0.69149E-02   -0.49219E-02  5293   0.100E-01    0.754E-01
RMM:   3    -0.232995883223E+04    0.71868E-02   -0.99381E-03  5379   0.522E-02    0.313E-01
RMM:   4    -0.232995859197E+04    0.24026E-03   -0.36730E-03  5145   0.257E-02    0.308E-01
RMM:   5    -0.232995781994E+04    0.77203E-03   -0.20419E-03  4986   0.183E-02    0.142E-01
RMM:   6    -0.232995753147E+04    0.28847E-03   -0.31018E-04  3349   0.892E-03    0.294E-02
RMM:   7    -0.232995751837E+04    0.13105E-04   -0.88304E-05  3301   0.455E-03    0.141E-02
RMM:   8    -0.232995752056E+04   -0.21895E-05   -0.15909E-05  2770   0.312E-03
   6 F= -.23514011E+04 E0= -.23514011E+04  d E =-.423160E-05  mag=     4.0000
       N       E                     dE             d eps       ncg     rms          rms(c)
DAV:   1    -0.233008329892E+04   -0.12578E+00   -0.79547E+00  4480   0.134E+00    0.734E-01
RMM:   2    -0.233009164507E+04   -0.83462E-02   -0.78400E-02  5273   0.135E-01    0.916E-01
RMM:   3    -0.233008088987E+04    0.10755E-01   -0.17265E-02  5803   0.675E-02    0.448E-01
RMM:   4    -0.233008044249E+04    0.44739E-03   -0.65576E-03  5573   0.342E-02    0.440E-01
RMM:   5    -0.233007874014E+04    0.17023E-02   -0.33647E-03  5079   0.244E-02    0.194E-01
RMM:   6    -0.233007823666E+04    0.50348E-03   -0.61462E-04  3718   0.113E-02    0.421E-02
RMM:   7    -0.233007821483E+04    0.21827E-04   -0.15301E-04  3431   0.629E-03    0.193E-02
RMM:   8    -0.233007821876E+04   -0.39315E-05   -0.31797E-05  2973   0.397E-03
   7 F= -.23515225E+04 E0= -.23515225E+04  d E =-.616493E-05  mag=     4.0000
       N       E                     dE             d eps       ncg     rms          rms(c)
DAV:   1    -0.233001391007E+04    0.64305E-01   -0.44313E+00  4640   0.106E+00    0.514E-01
RMM:   2    -0.233001444995E+04   -0.53987E-03   -0.36282E-02  4680   0.868E-02    0.507E-01
RMM:   3    -0.233001244050E+04    0.20094E-02   -0.76220E-03  5502   0.450E-02    0.401E-01
RMM:   4    -0.233001087794E+04    0.15626E-02   -0.38686E-03  4893   0.266E-02    0.256E-01
RMM:   5    -0.233001043719E+04    0.44076E-03   -0.20507E-03  4562   0.217E-02    0.157E-01
RMM:   6    -0.233001010077E+04    0.33642E-03   -0.37654E-04  3582   0.934E-03    0.275E-02
RMM:   7    -0.233001008563E+04    0.15144E-04   -0.77934E-05  3112   0.458E-03    0.191E-02
RMM:   8    -0.233001008822E+04   -0.25869E-05   -0.23938E-05  2655   0.322E-03
   8 F= -.23514539E+04 E0= -.23514539E+04  d E =-.558444E-05  mag=     4.0000
       N       E                     dE             d eps       ncg     rms          rms(c)
DAV:   1    -0.233002672348E+04   -0.16638E-01   -0.85249E+00  4480   0.147E+00    0.646E-01
RMM:   2    -0.233002136368E+04    0.53598E-02   -0.31268E-02  3898   0.842E-02    0.389E-01
RMM:   3    -0.233002289883E+04   -0.15351E-02   -0.12062E-02  5216   0.475E-02    0.567E-01
RMM:   4    -0.233001934577E+04    0.35531E-02   -0.60774E-03  5179   0.320E-02    0.207E-01
RMM:   5    -0.233001893139E+04    0.41438E-03   -0.10635E-03  4174   0.159E-02    0.111E-01
RMM:   6    -0.233001876573E+04    0.16565E-03   -0.24459E-04  3260   0.862E-03    0.383E-02
RMM:   7    -0.233001873763E+04    0.28102E-04   -0.67143E-05  3016   0.416E-03    0.222E-02
RMM:   8    -0.233001874135E+04   -0.37232E-05   -0.32942E-05  2785   0.379E-03
   9 F= -.23514631E+04 E0= -.23514631E+04  d E =-.481220E-05  mag=     4.0000
       N       E                     dE             d eps       ncg     rms          rms(c)
DAV:   1    -0.233002305151E+04   -0.43139E-02   -0.42510E+00  4320   0.102E+00    0.447E-01
RMM:   2    -0.233002094680E+04    0.21047E-02   -0.16395E-02  3822   0.601E-02    0.276E-01
RMM:   3    -0.233002191355E+04   -0.96675E-03   -0.73799E-03  5391   0.367E-02    0.411E-01
RMM:   4    -0.233001972445E+04    0.21891E-02   -0.30556E-03  4792   0.238E-02    0.751E-02
RMM:   5    -0.233001970778E+04    0.16666E-04   -0.38727E-04  3315   0.973E-03    0.748E-02
RMM:   6    -0.233001962565E+04    0.82134E-04   -0.82045E-05  2916   0.517E-03    0.201E-02
RMM:   7    -0.233001961808E+04    0.75710E-05   -0.47635E-05  2915   0.321E-03
  10 F= -.23514634E+04 E0= -.23514634E+04  d E =-.547505E-05  mag=     4.0000
       N       E                     dE             d eps       ncg     rms          rms(c)
DAV:   1    -0.233001879266E+04    0.83299E-03   -0.84828E+00  4320   0.146E+00    0.653E-01
RMM:   2    -0.233001375059E+04    0.50421E-02   -0.37082E-02  3977   0.881E-02    0.399E-01
RMM:   3    -0.233001476894E+04   -0.10183E-02   -0.14067E-02  5700   0.516E-02    0.498E-01
RMM:   4    -0.233001128563E+04    0.34833E-02   -0.65003E-03  5676   0.364E-02    0.165E-01
RMM:   5    -0.233001100247E+04    0.28316E-03   -0.84641E-04  3916   0.125E-02    0.125E-01
RMM:   6    -0.233001082469E+04    0.17778E-03   -0.21015E-04  2959   0.647E-03    0.375E-02
RMM:   7    -0.233001079616E+04    0.28533E-04   -0.98490E-05  3067   0.425E-03    0.231E-02
RMM:   8    -0.233001079842E+04   -0.22595E-05   -0.34584E-05  2831   0.423E-03
  11 F= -.23514551E+04 E0= -.23514551E+04  d E =-.472891E-05  mag=     4.0000
       N       E                     dE             d eps       ncg     rms          rms(c)
DAV:   1    -0.233000043474E+04    0.10361E-01   -0.42340E+00  4320   0.102E+00    0.483E-01
RMM:   2    -0.232999720784E+04    0.32269E-02   -0.24463E-02  4095   0.707E-02    0.318E-01
RMM:   3    -0.232999660321E+04    0.60463E-03   -0.48342E-03  4937   0.394E-02    0.295E-01
RMM:   4    -0.232999614374E+04    0.45948E-03   -0.38735E-03  5224   0.283E-02    0.246E-01
RMM:   5    -0.232999537156E+04    0.77218E-03   -0.10622E-03  4253   0.167E-02    0.115E-01
RMM:   6    -0.232999522225E+04    0.14931E-03   -0.25000E-04  3104   0.757E-03    0.320E-02
RMM:   7    -0.232999520483E+04    0.17419E-04   -0.38244E-05  2767   0.345E-03    0.134E-02
RMM:   8    -0.232999520432E+04    0.50940E-06   -0.13471E-05  2668   0.266E-03
  12 F= -.23514392E+04 E0= -.23514392E+04  d E =-.551196E-05  mag=     4.0000
       N       E                     dE             d eps       ncg     rms          rms(c)
DAV:   1    -0.233004767179E+04   -0.52467E-01   -0.83181E+00  4480   0.143E+00    0.643E-01
RMM:   2    -0.233004234674E+04    0.53250E-02   -0.50709E-02  4040   0.101E-01    0.411E-01
RMM:   3    -0.233004068983E+04    0.16569E-02   -0.78652E-03  5147   0.492E-02    0.371E-01
RMM:   4    -0.233004057827E+04    0.11156E-03   -0.66573E-03  5484   0.359E-02    0.380E-01
RMM:   5    -0.233003881238E+04    0.17659E-02   -0.19406E-03  4714   0.227E-02    0.116E-01
RMM:   6    -0.233003866596E+04    0.14641E-03   -0.42321E-04  3320   0.989E-03    0.512E-02
RMM:   7    -0.233003862713E+04    0.38835E-04   -0.57343E-05  2899   0.446E-03    0.178E-02
RMM:   8    -0.233003862845E+04   -0.13189E-05   -0.17032E-05  2779   0.301E-03
  13 F= -.23514827E+04 E0= -.23514827E+04  d E =-.482682E-05  mag=     4.0000
       N       E                     dE             d eps       ncg     rms          rms(c)
DAV:   1    -0.233002992303E+04    0.87041E-02   -0.24425E+00  4320   0.749E-01    0.361E-01
RMM:   2    -0.233002871230E+04    0.12107E-02   -0.14959E-02  3792   0.550E-02    0.229E-01
RMM:   3    -0.233002848978E+04    0.22252E-03   -0.25235E-03  4814   0.264E-02    0.229E-01
RMM:   4    -0.233002823718E+04    0.25260E-03   -0.19630E-03  4653   0.200E-02    0.188E-01
RMM:   5    -0.233002784104E+04    0.39613E-03   -0.53984E-04  3760   0.125E-02    0.677E-02
RMM:   6    -0.233002778788E+04    0.53168E-04   -0.11757E-04  2900   0.605E-03    0.284E-02
RMM:   7    -0.233002777644E+04    0.11437E-04   -0.20594E-05  2585   0.275E-03    0.135E-02
RMM:   8    -0.233002777689E+04   -0.45360E-06   -0.96201E-06  2392   0.213E-03
  14 F= -.23514716E+04 E0= -.23514716E+04  d E =-.506233E-05  mag=     4.0000
       N       E                     dE             d eps       ncg     rms          rms(c)
DAV:   1    -0.233003649093E+04   -0.87145E-02   -0.11968E+00  4400   0.493E-01    0.297E-01
RMM:   2    -0.233003669242E+04   -0.20149E-03   -0.42434E-03  3551   0.282E-02    0.179E-01
RMM:   3    -0.233003703353E+04   -0.34110E-03   -0.13739E-03  4460   0.173E-02    0.140E-01
RMM:   4    -0.233003672820E+04    0.30533E-03   -0.35701E-04  3494   0.102E-02    0.314E-02
RMM:   5    -0.233003671930E+04    0.88938E-05   -0.56468E-05  2783   0.367E-03
  15 F= -.23514810E+04 E0= -.23514810E+04  d E =-.499188E-05  mag=     4.0000
       N       E                     dE             d eps       ncg     rms          rms(c)
DAV:   1    -0.233000104633E+04    0.35682E-01   -0.60825E-01  4800   0.357E-01    0.310E-01
RMM:   2    -0.232999992616E+04    0.11202E-02   -0.63502E-03  3602   0.322E-02    0.167E-01
RMM:   3    -0.232999977469E+04    0.15147E-03   -0.22270E-03  4611   0.201E-02    0.858E-02
RMM:   4    -0.232999970521E+04    0.69487E-04   -0.30599E-04  3421   0.902E-03    0.623E-02
RMM:   5    -0.232999965372E+04    0.51489E-04   -0.11466E-04  3001   0.544E-03    0.316E-02
RMM:   6    -0.232999964342E+04    0.10294E-04   -0.87097E-05  2888   0.412E-03    0.136E-02
RMM:   7    -0.232999963954E+04    0.38792E-05   -0.72747E-06  2303   0.299E-03
  16 F= -.23514439E+04 E0= -.23514439E+04  d E =-.493826E-05  mag=     4.0000
       N       E                     dE             d eps       ncg     rms          rms(c)
DAV:   1    -0.233005598509E+04   -0.56342E-01   -0.12458E+00  4720   0.509E-01    0.519E-01
RMM:   2    -0.233005211894E+04    0.38661E-02   -0.17661E-02  3925   0.537E-02    0.278E-01
RMM:   3    -0.233005271283E+04   -0.59388E-03   -0.74114E-03  5235   0.429E-02    0.322E-01
RMM:   4    -0.233005140471E+04    0.13081E-02   -0.18366E-03  4926   0.211E-02    0.122E-01
RMM:   5    -0.233005127718E+04    0.12753E-03   -0.43956E-04  3697   0.938E-03    0.933E-02
RMM:   6    -0.233005121540E+04    0.61780E-04   -0.37392E-04  3622   0.861E-03    0.554E-02
RMM:   7    -0.233005117725E+04    0.38148E-04   -0.70645E-05  2884   0.522E-03    0.139E-02
RMM:   8    -0.233005117149E+04    0.57693E-05   -0.21152E-05  2527   0.269E-03
  17 F= -.23514950E+04 E0= -.23514950E+04  d E =-.525626E-05  mag=     4.0000
       N       E                     dE             d eps       ncg     rms          rms(c)
DAV:   1    -0.233003966546E+04    0.11512E-01   -0.60882E-01  4160   0.354E-01    0.243E-01
RMM:   2    -0.233003945111E+04    0.21435E-03   -0.27219E-03  3591   0.218E-02    0.145E-01
RMM:   3    -0.233003989475E+04   -0.44364E-03   -0.13048E-03  4666   0.161E-02    0.187E-01
RMM:   4    -0.233003940178E+04    0.49297E-03   -0.47847E-04  3637   0.116E-02    0.488E-02
RMM:   5    -0.233003939519E+04    0.65943E-05   -0.10659E-04  2917   0.504E-03    0.479E-02
RMM:   6    -0.233003937050E+04    0.24691E-04   -0.43864E-05  2610   0.355E-03    0.127E-02
RMM:   7    -0.233003936861E+04    0.18851E-05   -0.81005E-06  2397   0.238E-03
  18 F= -.23514834E+04 E0= -.23514834E+04  d E =-.503112E-05  mag=     4.0000
       N       E                     dE             d eps       ncg     rms          rms(c)
DAV:   1    -0.233002174655E+04    0.17624E-01   -0.12202E+00  4560   0.497E-01    0.383E-01
RMM:   2    -0.233002068619E+04    0.10604E-02   -0.76703E-03  3647   0.379E-02    0.216E-01
RMM:   3    -0.233002096034E+04   -0.27415E-03   -0.34515E-03  4826   0.259E-02    0.191E-01
RMM:   4    -0.233002047134E+04    0.48900E-03   -0.83986E-04  4161   0.138E-02    0.662E-02
RMM:   5    -0.233002043126E+04    0.40076E-04   -0.22100E-04  3380   0.688E-03    0.592E-02
RMM:   6    -0.233002041286E+04    0.18399E-04   -0.13131E-04  2894   0.541E-03    0.434E-02
RMM:   7    -0.233002039299E+04    0.19873E-04   -0.23762E-05  2555   0.372E-03    0.117E-02
RMM:   8    -0.233002039141E+04    0.15773E-05   -0.54725E-06  2208   0.199E-03
  19 F= -.23514644E+04 E0= -.23514644E+04  d E =-.514144E-05  mag=     4.0000
       N       E                     dE             d eps       ncg     rms          rms(c)
DAV:   1    -0.233003001232E+04   -0.96193E-02   -0.61263E-01  4640   0.371E-01    0.292E-01
RMM:   2    -0.233002904608E+04    0.96623E-03   -0.58684E-03  3678   0.309E-02    0.153E-01
RMM:   3    -0.233002904242E+04    0.36582E-05   -0.21347E-03  4359   0.223E-02    0.100E-01
RMM:   4    -0.233002898436E+04    0.58060E-04   -0.39112E-04  3629   0.875E-03    0.786E-02
RMM:   5    -0.233002892791E+04    0.56459E-04   -0.14113E-04  3234   0.580E-03    0.385E-02
RMM:   6    -0.233002893371E+04   -0.58041E-05   -0.10936E-04  3193   0.537E-03    0.384E-02
RMM:   7    -0.233002891228E+04    0.21429E-04   -0.18664E-05  2510   0.356E-03    0.846E-03
RMM:   8    -0.233002891055E+04    0.17349E-05   -0.64485E-06  2103   0.156E-03
  20 F= -.23514724E+04 E0= -.23514724E+04  d E =-.513849E-05  mag=     4.0000
       N       E                     dE             d eps       ncg     rms          rms(c)
DAV:   1    -0.233003099689E+04   -0.20846E-02   -0.12088E+00  4800   0.453E-01    0.408E-01
RMM:   2    -0.233002932894E+04    0.16680E-02   -0.86059E-03  3915   0.376E-02    0.222E-01
RMM:   3    -0.233002932654E+04    0.23982E-05   -0.31154E-03  4606   0.274E-02    0.147E-01
RMM:   4    -0.233002920003E+04    0.12650E-03   -0.70600E-04  3978   0.123E-02    0.106E-01
RMM:   5    -0.233002906773E+04    0.13231E-03   -0.23695E-04  3572   0.738E-03    0.339E-02
RMM:   6    -0.233002906183E+04    0.58907E-05   -0.91031E-05  3161   0.524E-03
  21 F= -.23514737E+04 E0= -.23514737E+04  d E =-.508470E-05  mag=     4.0000
       N       E                     dE             d eps       ncg     rms          rms(c)
DAV:   1    -0.233004673340E+04   -0.17666E-01   -0.61663E-01  4880   0.331E-01    0.355E-01
RMM:   2    -0.233004507129E+04    0.16621E-02   -0.79816E-03  4064   0.327E-02    0.189E-01
RMM:   3    -0.233004506356E+04    0.77377E-05   -0.27806E-03  4685   0.227E-02    0.152E-01
RMM:   4    -0.233004478310E+04    0.28046E-03   -0.55810E-04  3909   0.116E-02    0.752E-02
RMM:   5    -0.233004475556E+04    0.27536E-04   -0.23219E-04  3376   0.698E-03    0.690E-02
RMM:   6    -0.233004470897E+04    0.46593E-04   -0.11313E-04  2970   0.548E-03    0.292E-02
RMM:   7    -0.233004469653E+04    0.12438E-04   -0.12113E-05  2428   0.291E-03    0.859E-03
RMM:   8    -0.233004469575E+04    0.77834E-06   -0.43886E-06  2192   0.164E-03
  22 F= -.23514886E+04 E0= -.23514885E+04  d E =-.503341E-05  mag=     4.0000
       N       E                     dE             d eps       ncg     rms          rms(c)
DAV:   1    -0.233001561021E+04    0.29086E-01   -0.12160E+00  4800   0.440E-01    0.429E-01
RMM:   2    -0.233001360683E+04    0.20034E-02   -0.99952E-03  3872   0.385E-02    0.231E-01
RMM:   3    -0.233001359434E+04    0.12490E-04   -0.38101E-03  4547   0.290E-02    0.141E-01
RMM:   4    -0.233001336476E+04    0.22958E-03   -0.79951E-04  4330   0.137E-02    0.830E-02
RMM:   5    -0.233001329919E+04    0.65566E-04   -0.34106E-04  3762   0.802E-03    0.681E-02
RMM:   6    -0.233001325901E+04    0.40188E-04   -0.98959E-05  2826   0.582E-03    0.324E-02
RMM:   7    -0.233001324522E+04    0.13789E-04   -0.13195E-05  2509   0.284E-03    0.930E-03
RMM:   8    -0.233001324440E+04    0.82061E-06   -0.61524E-06  2310   0.176E-03
  23 F= -.23514575E+04 E0= -.23514575E+04  d E =-.520465E-05  mag=     4.0000
       N       E                     dE             d eps       ncg     rms          rms(c)
DAV:   1    -0.233004976449E+04   -0.36519E-01   -0.61989E-01  4880   0.334E-01    0.361E-01
RMM:   2    -0.233004803262E+04    0.17319E-02   -0.80602E-03  3964   0.350E-02    0.192E-01
RMM:   3    -0.233004806677E+04   -0.34153E-04   -0.31611E-03  4581   0.258E-02    0.158E-01
RMM:   4    -0.233004771330E+04    0.35347E-03   -0.68628E-04  4046   0.126E-02    0.600E-02
RMM:   5    -0.233004768480E+04    0.28499E-04   -0.31958E-04  3618   0.733E-03    0.541E-02
RMM:   6    -0.233004765502E+04    0.29783E-04   -0.71395E-05  2764   0.557E-03    0.276E-02
RMM:   7    -0.233004764366E+04    0.11355E-04   -0.96184E-06  2456   0.239E-03    0.886E-03
RMM:   8    -0.233004764273E+04    0.93675E-06   -0.44178E-06  2241   0.149E-03
  24 F= -.23514916E+04 E0= -.23514916E+04  d E =-.534610E-05  mag=     4.0000
       N       E                     dE             d eps       ncg     rms          rms(c)
DAV:   1    -0.233001339803E+04    0.34246E-01   -0.12042E+00  4720   0.450E-01    0.417E-01
RMM:   2    -0.233001184686E+04    0.15512E-02   -0.10026E-02  3912   0.397E-02    0.230E-01
RMM:   3    -0.233001208748E+04   -0.24062E-03   -0.37804E-03  4688   0.316E-02    0.219E-01
RMM:   4    -0.233001150534E+04    0.58215E-03   -0.11411E-03  4225   0.151E-02    0.713E-02
RMM:   5    -0.233001153284E+04   -0.27499E-04   -0.36037E-04  3775   0.879E-03    0.936E-02
RMM:   6    -0.233001142353E+04    0.10931E-03   -0.17246E-04  3502   0.690E-03    0.226E-02
RMM:   7    -0.233001141326E+04    0.10269E-04   -0.12796E-05  2636   0.305E-03    0.909E-03
RMM:   8    -0.233001141275E+04    0.51201E-06   -0.70966E-06  2345   0.177E-03
  25 F= -.23514555E+04 E0= -.23514555E+04  d E =-.490499E-05  mag=     4.0000
       N       E                     dE             d eps       ncg     rms          rms(c)
DAV:   1    -0.233002830463E+04   -0.16891E-01   -0.61260E-01  4800   0.373E-01    0.322E-01
RMM:   2    -0.233002776171E+04    0.54292E-03   -0.52558E-03  3590   0.337E-02    0.192E-01
RMM:   3    -0.233002787772E+04   -0.11601E-03   -0.19146E-03  4352   0.202E-02    0.194E-01
RMM:   4    -0.233002742241E+04    0.45531E-03   -0.52948E-04  3540   0.106E-02    0.446E-02
RMM:   5    -0.233002740305E+04    0.19364E-04   -0.90838E-05  2951   0.474E-03    0.378E-02
RMM:   6    -0.233002738161E+04    0.21442E-04   -0.47528E-05  2690   0.379E-03    0.149E-02
RMM:   7    -0.233002737832E+04    0.32876E-05   -0.12721E-05  2413   0.253E-03
  26 F= -.23514715E+04 E0= -.23514715E+04  d E =-.506257E-05  mag=     4.0000
       N       E                     dE             d eps       ncg     rms          rms(c)
DAV:   1    -0.233002417860E+04    0.32030E-02   -0.13125E+00  4720   0.540E-01    0.571E-01
RMM:   2    -0.233001939174E+04    0.47869E-02   -0.18642E-02  3969   0.562E-02    0.298E-01
RMM:   3    -0.233001911131E+04    0.28044E-03   -0.75662E-03  4728   0.379E-02    0.216E-01
RMM:   4    -0.233001870595E+04    0.40535E-03   -0.11793E-03  4434   0.159E-02    0.133E-01
RMM:   5    -0.233001849554E+04    0.21041E-03   -0.52253E-04  3949   0.997E-03    0.560E-02
RMM:   6    -0.233001849462E+04    0.92258E-06   -0.22508E-04  3525   0.753E-03    0.547E-02
RMM:   7    -0.233001844902E+04    0.45595E-04   -0.34932E-05  2634   0.422E-03    0.134E-02
RMM:   8    -0.233001844441E+04    0.46136E-05   -0.27040E-05  2526   0.219E-03
  27 F= -.23514624E+04 E0= -.23514624E+04  d E =-.517245E-05  mag=     4.0000
       N       E                     dE             d eps       ncg     rms          rms(c)
DAV:   1    -0.233003338759E+04   -0.14939E-01   -0.62643E-01  4400   0.356E-01    0.270E-01
RMM:   2    -0.233003305611E+04    0.33149E-03   -0.30446E-03  3580   0.226E-02    0.155E-01
RMM:   3    -0.233003305348E+04    0.26244E-05   -0.10760E-03  4097   0.137E-02    0.652E-02
RMM:   4    -0.233003304107E+04    0.12417E-04   -0.18142E-04  3113   0.752E-03    0.635E-02
RMM:   5    -0.233003299298E+04    0.48086E-04   -0.80915E-05  2891   0.456E-03    0.260E-02
RMM:   6    -0.233003298676E+04    0.62144E-05   -0.26519E-05  2488   0.326E-03
  28 F= -.23514768E+04 E0= -.23514768E+04  d E =-.508374E-05  mag=     4.0000
       N       E                     dE             d eps       ncg     rms          rms(c)
DAV:   1    -0.233002884628E+04    0.41467E-02   -0.12361E+00  4560   0.505E-01    0.402E-01
RMM:   2    -0.233002762734E+04    0.12189E-02   -0.78925E-03  3705   0.373E-02    0.225E-01
RMM:   3    -0.233002755000E+04    0.77332E-04   -0.29353E-03  4571   0.226E-02    0.116E-01
RMM:   4    -0.233002748074E+04    0.69262E-04   -0.43555E-04  3491   0.952E-03    0.989E-02
RMM:   5    -0.233002736501E+04    0.11573E-03   -0.20772E-04  3423   0.680E-03    0.330E-02
RMM:   6    -0.233002736051E+04    0.44997E-05   -0.78010E-05  2972   0.488E-03
  29 F= -.23514716E+04 E0= -.23514716E+04  d E =-.522213E-05  mag=     4.0000
       N       E                     dE             d eps       ncg     rms          rms(c)
DAV:   1    -0.233004245844E+04   -0.15093E-01   -0.62170E-01  4480   0.363E-01    0.249E-01
RMM:   2    -0.233004226090E+04    0.19754E-03   -0.26854E-03  3481   0.214E-02    0.147E-01
RMM:   3    -0.233004251954E+04   -0.25863E-03   -0.11500E-03  4453   0.144E-02    0.149E-01
RMM:   4    -0.233004218641E+04    0.33313E-03   -0.35948E-04  3215   0.101E-02    0.309E-02
RMM:   5    -0.233004217882E+04    0.75816E-05   -0.69561E-05  2955   0.418E-03
  30 F= -.23514865E+04 E0= -.23514865E+04  d E =-.543997E-05  mag=     4.0000
       N       E                     dE             d eps       ncg     rms          rms(c)
DAV:   1    -0.233002274491E+04    0.19441E-01   -0.12328E+00  4400   0.503E-01    0.325E-01
RMM:   2    -0.233002285235E+04   -0.10743E-03   -0.43707E-03  3613   0.299E-02    0.204E-01
RMM:   3    -0.233002440384E+04   -0.15515E-02   -0.25291E-03  4823   0.208E-02    0.368E-01
RMM:   4    -0.233002276143E+04    0.16424E-02   -0.11504E-03  4153   0.153E-02    0.410E-02
RMM:   5    -0.233002273867E+04    0.22763E-04   -0.13775E-04  2947   0.570E-03    0.274E-02
RMM:   6    -0.233002272741E+04    0.11262E-04   -0.17297E-05  2481   0.279E-03    0.917E-03
RMM:   7    -0.233002272664E+04    0.76665E-06   -0.72200E-06  2495   0.182E-03
  31 F= -.23514665E+04 E0= -.23514665E+04  d E =-.515981E-05  mag=     4.0000
       N       E                     dE             d eps       ncg     rms          rms(c)
DAV:   1    -0.233004047677E+04   -0.17749E-01   -0.58450E-01  4480   0.356E-01    0.199E-01
RMM:   2    -0.233004062139E+04   -0.14462E-03   -0.26497E-03  3611   0.232E-02    0.127E-01
RMM:   3    -0.233004094199E+04   -0.32060E-03   -0.90681E-04  4408   0.144E-02    0.180E-01
RMM:   4    -0.233004053873E+04    0.40326E-03   -0.60916E-04  3604   0.119E-02    0.486E-02
RMM:   5    -0.233004052878E+04    0.99469E-05   -0.96720E-05  2846   0.483E-03
  32 F= -.23514848E+04 E0= -.23514848E+04  d E =-.486247E-05  mag=     4.0000
       N       E                     dE             d eps       ncg     rms          rms(c)
DAV:   1    -0.233002743607E+04    0.13103E-01   -0.10974E+00  4480   0.431E-01    0.227E-01
RMM:   2    -0.233002747570E+04   -0.39629E-04   -0.27731E-03  3842   0.227E-02    0.153E-01
RMM:   3    -0.233002773664E+04   -0.26093E-03   -0.10871E-03  4642   0.138E-02    0.198E-01
RMM:   4    -0.233002728114E+04    0.45550E-03   -0.73669E-04  3563   0.126E-02    0.704E-02
RMM:   5    -0.233002728010E+04    0.10400E-05   -0.18946E-04  2972   0.599E-03    0.700E-02
RMM:   6    -0.233002723194E+04    0.48164E-04   -0.42890E-05  2722   0.401E-03    0.136E-02
RMM:   7    -0.233002723228E+04   -0.34359E-06   -0.11177E-05  2538   0.211E-03
  33 F= -.23514710E+04 E0= -.23514710E+04  d E =-.513768E-05  mag=     4.0000
       N       E                     dE             d eps       ncg     rms          rms(c)
DAV:   1    -0.233002238536E+04    0.48466E-02   -0.55331E-01  4480   0.305E-01    0.166E-01
RMM:   2    -0.233002274410E+04   -0.35874E-03   -0.20923E-03  3943   0.191E-02    0.191E-01
RMM:   3    -0.233002240542E+04    0.33869E-03   -0.67748E-04  3433   0.112E-02    0.113E-01
RMM:   4    -0.233002235620E+04    0.49216E-04   -0.28112E-04  3162   0.717E-03    0.919E-02
RMM:   5    -0.233002228590E+04    0.70300E-04   -0.15006E-04  2862   0.593E-03    0.354E-02
RMM:   6    -0.233002227498E+04    0.10915E-04   -0.14940E-05  2618   0.273E-03    0.773E-03
RMM:   7    -0.233002227597E+04   -0.98236E-06   -0.56622E-06  2326   0.181E-03
  34 F= -.23514655E+04 E0= -.23514655E+04  d E =-.419785E-05  mag=     4.0000
       N       E                     dE             d eps       ncg     rms          rms(c)
DAV:   1    -0.233004369865E+04   -0.21424E-01   -0.10893E+00  4480   0.435E-01    0.285E-01
RMM:   2    -0.233004567669E+04   -0.19780E-02   -0.87972E-03  5008   0.408E-02    0.429E-01
RMM:   3    -0.233004319762E+04    0.24791E-02   -0.23042E-03  4811   0.223E-02    0.159E-01
RMM:   4    -0.233004331450E+04   -0.11688E-03   -0.88255E-04  3856   0.115E-02    0.194E-01
RMM:   5    -0.233004294121E+04    0.37329E-03   -0.46311E-04  3311   0.947E-03    0.428E-02
RMM:   6    -0.233004293553E+04    0.56807E-05   -0.51118E-05  2907   0.418E-03
  35 F= -.23514877E+04 E0= -.23514877E+04  d E =-.635700E-05  mag=     4.0000
       N       E                     dE             d eps       ncg     rms          rms(c)
DAV:   1    -0.233003325781E+04    0.96834E-02   -0.57317E-01  4480   0.317E-01    0.279E-01
RMM:   2    -0.233003570961E+04   -0.24518E-02   -0.86326E-03  5142   0.377E-02    0.479E-01
RMM:   3    -0.233003240099E+04    0.33086E-02   -0.24676E-03  4927   0.228E-02    0.137E-01
RMM:   4    -0.233003254281E+04   -0.14182E-03   -0.10197E-03  3860   0.121E-02    0.187E-01
RMM:   5    -0.233003221827E+04    0.32454E-03   -0.49790E-04  3433   0.962E-03    0.597E-02
RMM:   6    -0.233003217956E+04    0.38713E-04   -0.69603E-05  3009   0.465E-03    0.234E-02
RMM:   7    -0.233003217753E+04    0.20307E-05   -0.24176E-05  2669   0.310E-03
  36 F= -.23514768E+04 E0= -.23514768E+04  d E =-.637162E-05  mag=     4.0000
       N       E                     dE             d eps       ncg     rms          rms(c)
DAV:   1    -0.233003567709E+04   -0.34975E-02   -0.11057E+00  4480   0.450E-01    0.451E-01
RMM:   2    -0.233003828434E+04   -0.26072E-02   -0.17171E-02  5537   0.527E-02    0.630E-01
RMM:   3    -0.233003318436E+04    0.51000E-02   -0.62853E-03  5561   0.355E-02    0.264E-01
RMM:   4    -0.233003308829E+04    0.96071E-04   -0.27502E-03  4882   0.204E-02    0.286E-01
RMM:   5    -0.233003235935E+04    0.72894E-03   -0.13989E-03  4391   0.147E-02    0.129E-01
RMM:   6    -0.233003215818E+04    0.20117E-03   -0.22985E-04  3297   0.774E-03    0.343E-02
RMM:   7    -0.233003216396E+04   -0.57740E-05   -0.63100E-05  2906   0.476E-03
  37 F= -.23514755E+04 E0= -.23514755E+04  d E =-.397923E-05  mag=     4.0000
