       N       E                     dE             d eps       ncg     rms          rms(c)
DAV:   1     0.127083686698E+05    0.12708E+05   -0.82742E+05  4424   0.144E+03
DAV:   2    -0.106780429318E+04   -0.13776E+05   -0.13204E+05  5304   0.330E+02
DAV:   3    -0.247042782964E+04   -0.14026E+04   -0.13897E+04  5336   0.110E+02
DAV:   4    -0.251499247293E+04   -0.44565E+02   -0.44340E+02  6632   0.293E+01
DAV:   5    -0.251584979229E+04   -0.85732E+00   -0.85586E+00  5560   0.326E+00    0.170E+02
RMM:   6    -0.147465478484E+04    0.10412E+04   -0.19425E+03  4381   0.387E+01    0.727E+01
RMM:   7    -0.164871728904E+04   -0.17406E+03   -0.27537E+02  4967   0.137E+01    0.481E+01
RMM:   8    -0.170813736074E+04   -0.59420E+02   -0.43962E+01  5142   0.729E+00    0.395E+01
RMM:   9    -0.180915547039E+04   -0.10102E+03   -0.64376E+01  4939   0.745E+00    0.365E+01
RMM:  10    -0.193205464928E+04   -0.12290E+03   -0.59666E+01  5202   0.732E+00    0.210E+01
RMM:  11    -0.204414005792E+04   -0.11209E+03   -0.51081E+01  4829   0.567E+00    0.190E+01
RMM:  12    -0.214007708313E+04   -0.95937E+02   -0.53545E+01  4595   0.562E+00    0.154E+01
RMM:  13    -0.225298824221E+04   -0.11291E+03   -0.97236E+01  4399   0.695E+00    0.101E+01
RMM:  14    -0.229574673905E+04   -0.42758E+02   -0.46268E+01  4663   0.528E+00    0.500E+00
RMM:  15    -0.229989508604E+04   -0.41483E+01   -0.81290E+00  5169   0.221E+00    0.438E+00
RMM:  16    -0.230278007264E+04   -0.28850E+01   -0.26828E+00  4610   0.105E+00    0.321E+00
RMM:  17    -0.230600454445E+04   -0.32245E+01   -0.26117E+00  4445   0.110E+00    0.156E+00
RMM:  18    -0.230713125623E+04   -0.11267E+01   -0.49951E-01  4896   0.571E-01    0.964E-01
RMM:  19    -0.230731722378E+04   -0.18597E+00   -0.14115E-01  4934   0.222E-01    0.781E-01
RMM:  20    -0.230739685565E+04   -0.79632E-01   -0.40494E-02  4509   0.167E-01    0.459E-01
RMM:  21    -0.230743670680E+04   -0.39851E-01   -0.23758E-02  4401   0.137E-01    0.178E-01
RMM:  22    -0.230745020740E+04   -0.13501E-01   -0.71304E-03  4593   0.867E-02    0.117E-01
RMM:  23    -0.230745964210E+04   -0.94347E-02   -0.28965E-03  4507   0.453E-02    0.894E-02
RMM:  24    -0.230746948481E+04   -0.98427E-02   -0.32475E-03  4406   0.438E-02    0.780E-02
RMM:  25    -0.230747392332E+04   -0.44385E-02   -0.14990E-03  4605   0.346E-02    0.397E-02
RMM:  26    -0.230747670864E+04   -0.27853E-02   -0.10955E-03  4410   0.242E-02    0.234E-02
RMM:  27    -0.230747734990E+04   -0.64126E-03   -0.27435E-04  3979   0.183E-02    0.140E-02
RMM:  28    -0.230747769517E+04   -0.34528E-03   -0.13706E-04  3708   0.926E-03    0.862E-03
RMM:  29    -0.230747783298E+04   -0.13781E-03   -0.49880E-05  3409   0.822E-03    0.440E-03
RMM:  30    -0.230747789178E+04   -0.58792E-04   -0.19070E-05  3024   0.420E-03    0.277E-03
RMM:  31    -0.230747792161E+04   -0.29838E-04   -0.10349E-05  2843   0.359E-03    0.145E-03
RMM:  32    -0.230747793243E+04   -0.10819E-04   -0.47296E-06  2695   0.251E-03    0.932E-04
RMM:  33    -0.230747793529E+04   -0.28605E-05   -0.21628E-06  2302   0.169E-03
   1 F= -.23279246E+04 E0= -.23279237E+04  d E =-.232792E+04  mag=     5.9816
       N       E                     dE             d eps       ncg     rms          rms(c)
DAV:   1    -0.230750019278E+04   -0.22260E-01   -0.12935E+01  4864   0.257E+00    0.127E+00
RMM:   2    -0.230756634944E+04   -0.66157E-01   -0.10134E+00  5925   0.499E-01    0.831E-01
RMM:   3    -0.230757044386E+04   -0.40944E-02   -0.10547E-01  5202   0.182E-01    0.133E+00
RMM:   4    -0.230756428963E+04    0.61542E-02   -0.18864E-02  5380   0.500E-02    0.817E-01
RMM:   5    -0.230755453673E+04    0.97529E-02   -0.16401E-02  4765   0.584E-02    0.106E+00
RMM:   6    -0.230754149799E+04    0.13039E-01   -0.19472E-02  4869   0.612E-02    0.103E+00
RMM:   7    -0.230754194235E+04   -0.44436E-03   -0.14825E-03  4562   0.234E-02    0.103E+00
RMM:   8    -0.230754496197E+04   -0.30196E-02   -0.75183E-04  4014   0.110E-02    0.130E+00
RMM:   9    -0.230754477583E+04    0.18614E-03   -0.96339E-03  4510   0.420E-02    0.181E-01
RMM:  10    -0.230755439193E+04   -0.96161E-02   -0.47489E-03  4351   0.352E-02    0.154E-01
RMM:  11    -0.230755853861E+04   -0.41467E-02   -0.17296E-03  4360   0.228E-02    0.741E-02
RMM:  12    -0.230756103729E+04   -0.24987E-02   -0.62703E-04  4426   0.170E-02    0.596E-02
RMM:  13    -0.230756290413E+04   -0.18668E-02   -0.42262E-04  4089   0.128E-02    0.646E-02
RMM:  14    -0.230756403809E+04   -0.11340E-02   -0.38760E-04  4129   0.121E-02    0.635E-02
RMM:  15    -0.230756477702E+04   -0.73893E-03   -0.53475E-04  4240   0.116E-02    0.695E-02
RMM:  16    -0.230756521030E+04   -0.43328E-03   -0.55141E-04  3993   0.112E-02    0.795E-02
RMM:  17    -0.230756527777E+04   -0.67467E-04   -0.93030E-05  2978   0.583E-03    0.845E-02
RMM:  18    -0.230756505389E+04    0.22387E-03   -0.18332E-04  3065   0.598E-03    0.713E-02
RMM:  19    -0.230756473744E+04    0.31645E-03   -0.93653E-04  4117   0.112E-02    0.565E-02
RMM:  20    -0.230756439256E+04    0.34488E-03   -0.21005E-03  4487   0.170E-02    0.498E-02
RMM:  21    -0.230756424554E+04    0.14702E-03   -0.98859E-04  4061   0.128E-02    0.481E-02
RMM:  22    -0.230756420791E+04    0.37637E-04   -0.22240E-04  3189   0.669E-03    0.420E-02
RMM:  23    -0.230756415662E+04    0.51281E-04   -0.16829E-04  3284   0.638E-03    0.324E-02
RMM:  24    -0.230756403580E+04    0.12083E-03   -0.90710E-04  4287   0.119E-02    0.313E-02
RMM:  25    -0.230756390848E+04    0.12732E-03   -0.11438E-03  4272   0.139E-02    0.382E-02
RMM:  26    -0.230756389708E+04    0.11397E-04   -0.15868E-04  3018   0.635E-03    0.364E-02
RMM:  27    -0.230756389457E+04    0.25124E-05   -0.15675E-05  2841   0.334E-03
   2 F= -.23280104E+04 E0= -.23280003E+04  d E =-.858391E-01  mag=     5.6166
       N       E                     dE             d eps       ncg     rms          rms(c)
DAV:   1    -0.230756793442E+04   -0.40373E-02   -0.70226E-01  4624   0.595E-01    0.397E-01
RMM:   2    -0.230757352026E+04   -0.55858E-02   -0.66227E-02  5985   0.130E-01    0.472E-01
RMM:   3    -0.230757260108E+04    0.91918E-03   -0.68867E-03  5444   0.419E-02    0.399E-01
RMM:   4    -0.230757176311E+04    0.83797E-03   -0.19610E-03  4533   0.174E-02    0.227E-01
RMM:   5    -0.230757073039E+04    0.10327E-02   -0.21067E-03  4631   0.214E-02    0.872E-02
RMM:   6    -0.230757063925E+04    0.91142E-04   -0.39701E-04  4174   0.138E-02    0.680E-02
RMM:   7    -0.230757095085E+04   -0.31159E-03   -0.18633E-04  3551   0.829E-03    0.295E-02
RMM:   8    -0.230757126548E+04   -0.31464E-03   -0.94112E-05  3301   0.652E-03    0.279E-02
RMM:   9    -0.230757134089E+04   -0.75409E-04   -0.27266E-05  2896   0.479E-03    0.183E-02
RMM:  10    -0.230757155144E+04   -0.21055E-03   -0.44813E-05  3154   0.479E-03    0.124E-02
RMM:  11    -0.230757164852E+04   -0.97080E-04   -0.18506E-05  2886   0.438E-03    0.732E-03
RMM:  12    -0.230757170069E+04   -0.52174E-04   -0.12649E-05  2842   0.340E-03    0.410E-03
RMM:  13    -0.230757172522E+04   -0.24531E-04   -0.57191E-06  2708   0.313E-03    0.215E-03
RMM:  14    -0.230757173551E+04   -0.10283E-04   -0.33617E-06  2501   0.207E-03    0.136E-03
RMM:  15    -0.230757173894E+04   -0.34319E-05   -0.17790E-06  2447   0.178E-03
   3 F= -.23280183E+04 E0= -.23280124E+04  d E =-.937038E-01  mag=     5.8165
       N       E                     dE             d eps       ncg     rms          rms(c)
DAV:   1    -0.230763267885E+04   -0.60943E-01   -0.30659E+00  4480   0.132E+00    0.530E-01
RMM:   2    -0.230765971430E+04   -0.27035E-01   -0.28768E-01  6003   0.256E-01    0.324E-01
RMM:   3    -0.230766159409E+04   -0.18798E-02   -0.26257E-02  5195   0.878E-02    0.271E-01
RMM:   4    -0.230766135571E+04    0.23838E-03   -0.39611E-03  4902   0.244E-02    0.232E-01
RMM:   5    -0.230766084018E+04    0.51553E-03   -0.10055E-03  4444   0.166E-02    0.840E-02
RMM:   6    -0.230766075723E+04    0.82950E-04   -0.31176E-04  4108   0.110E-02    0.330E-02
RMM:   7    -0.230766080953E+04   -0.52303E-04   -0.48914E-05  3028   0.710E-03    0.181E-02
RMM:   8    -0.230766086283E+04   -0.53304E-04   -0.19052E-05  2885   0.417E-03    0.118E-02
RMM:   9    -0.230766090143E+04   -0.38597E-04   -0.89813E-06  2824   0.326E-03    0.813E-03
RMM:  10    -0.230766091971E+04   -0.18278E-04   -0.48597E-06  2780   0.274E-03    0.546E-03
RMM:  11    -0.230766093664E+04   -0.16928E-04   -0.43838E-06  2734   0.218E-03    0.373E-03
RMM:  12    -0.230766094531E+04   -0.86721E-05   -0.28670E-06  2622   0.206E-03
   4 F= -.23281069E+04 E0= -.23281036E+04  d E =-.886806E-01  mag=     5.9070
       N       E                     dE             d eps       ncg     rms          rms(c)
DAV:   1    -0.230755122868E+04    0.10971E+00   -0.27574E+01  4424   0.399E+00    0.146E+00
RMM:   2    -0.230779456465E+04   -0.24334E+00   -0.26235E+00  6032   0.775E-01    0.847E-01
RMM:   3    -0.230781767438E+04   -0.23110E-01   -0.27253E-01  5343   0.283E-01    0.776E-01
RMM:   4    -0.230781511710E+04    0.25573E-02   -0.33000E-02  5713   0.663E-02    0.538E-01
RMM:   5    -0.230781250493E+04    0.26122E-02   -0.56333E-03  5032   0.387E-02    0.257E-01
RMM:   6    -0.230781165438E+04    0.85055E-03   -0.37920E-03  4943   0.335E-02    0.673E-02
RMM:   7    -0.230781166380E+04   -0.94254E-05   -0.35931E-04  4431   0.213E-02    0.407E-02
RMM:   8    -0.230781169218E+04   -0.28375E-04   -0.10728E-04  3602   0.609E-03    0.212E-02
RMM:   9    -0.230781173433E+04   -0.42146E-04   -0.36528E-05  3009   0.529E-03    0.139E-02
RMM:  10    -0.230781176150E+04   -0.27170E-04   -0.16323E-05  2857   0.424E-03    0.733E-03
RMM:  11    -0.230781177679E+04   -0.15290E-04   -0.89326E-06  2815   0.370E-03    0.491E-03
RMM:  12    -0.230781178761E+04   -0.10826E-04   -0.74173E-06  2805   0.304E-03    0.307E-03
RMM:  13    -0.230781179320E+04   -0.55909E-05   -0.45281E-06  2781   0.278E-03
   5 F= -.23282561E+04 E0= -.23282555E+04  d E =-.237849E+00  mag=     5.9853
       N       E                     dE             d eps       ncg     rms          rms(c)
DAV:   1    -0.230778740274E+04    0.24385E-01   -0.41463E+00  4560   0.158E+00    0.551E-01
RMM:   2    -0.230782431523E+04   -0.36912E-01   -0.39356E-01  5996   0.305E-01    0.371E-01
RMM:   3    -0.230782713498E+04   -0.28197E-02   -0.33880E-02  5402   0.108E-01    0.340E-01
RMM:   4    -0.230782649211E+04    0.64287E-03   -0.47255E-03  5055   0.261E-02    0.171E-01
RMM:   5    -0.230782610429E+04    0.38782E-03   -0.87884E-04  4672   0.181E-02    0.776E-02
RMM:   6    -0.230782606443E+04    0.39858E-04   -0.36936E-04  4282   0.130E-02    0.402E-02
RMM:   7    -0.230782605560E+04    0.88271E-05   -0.49206E-05  3010   0.664E-03
   6 F= -.23282697E+04 E0= -.23282692E+04  d E =-.251424E+00  mag=     5.9899
       N       E                     dE             d eps       ncg     rms          rms(c)
DAV:   1    -0.230787684793E+04   -0.50784E-01   -0.10129E+01  4512   0.273E+00    0.956E-01
RMM:   2    -0.230795839540E+04   -0.81547E-01   -0.86102E-01  5883   0.514E-01    0.688E-01
RMM:   3    -0.230796507707E+04   -0.66817E-02   -0.78380E-02  5355   0.179E-01    0.794E-01
RMM:   4    -0.230796073469E+04    0.43424E-02   -0.11489E-02  5630   0.485E-02    0.245E-01
RMM:   5    -0.230795994367E+04    0.79102E-03   -0.23924E-03  4953   0.293E-02    0.119E-01
RMM:   6    -0.230795977684E+04    0.16683E-03   -0.10652E-03  4922   0.223E-02    0.485E-02
RMM:   7    -0.230795977513E+04    0.17062E-05   -0.13074E-04  4164   0.127E-02    0.211E-02
RMM:   8    -0.230795977181E+04    0.33260E-05   -0.34279E-05  2966   0.461E-03
   7 F= -.23284008E+04 E0= -.23283991E+04  d E =-.131140E+00  mag=     5.9686
       N       E                     dE             d eps       ncg     rms          rms(c)
DAV:   1    -0.230760955404E+04    0.35022E+00   -0.56696E+01  4400   0.644E+00    0.228E+00
RMM:   2    -0.230807617309E+04   -0.46662E+00   -0.49917E+00  5907   0.118E+00    0.206E+00
RMM:   3    -0.230813066793E+04   -0.54495E-01   -0.50121E-01  5164   0.426E-01    0.373E+00
RMM:   4    -0.230809734275E+04    0.33325E-01   -0.87690E-02  5733   0.120E-01    0.321E+00
RMM:   5    -0.230810572273E+04   -0.83800E-02   -0.31097E-02  4863   0.803E-02    0.147E+00
RMM:   6    -0.230810164150E+04    0.40812E-02   -0.26947E-02  4713   0.648E-02    0.119E+00
RMM:   7    -0.230808747965E+04    0.14162E-01   -0.26383E-02  5173   0.708E-02    0.135E+00
RMM:   8    -0.230788743428E+04    0.20005E+00   -0.36211E-01  4754   0.251E-01    0.283E+00
RMM:   9    -0.230780560572E+04    0.81829E-01   -0.45600E-02  4635   0.928E-02    0.305E+00
RMM:  10    -0.230805868225E+04   -0.25308E+00   -0.22974E-01  4519   0.158E-01    0.225E+00
RMM:  11    -0.230809686939E+04   -0.38187E-01   -0.13701E-01  4764   0.160E-01    0.115E+00
RMM:  12    -0.230809760754E+04   -0.73815E-03   -0.30966E-02  4732   0.768E-02    0.116E+00
RMM:  13    -0.230809743047E+04    0.17707E-03   -0.23939E-03  4558   0.181E-02    0.112E+00
RMM:  14    -0.230809863100E+04   -0.12005E-02   -0.29347E-03  4703   0.219E-02    0.126E+00
RMM:  15    -0.230809868077E+04   -0.49768E-04   -0.32304E-04  3572   0.976E-03    0.128E+00
RMM:  16    -0.230809900423E+04   -0.32346E-03   -0.20572E-04  3254   0.642E-03    0.130E+00
RMM:  17    -0.230809901363E+04   -0.94007E-05   -0.40643E-05  2812   0.353E-03
   8 F= -.23285323E+04 E0= -.23285171E+04  d E =-.262579E+00  mag=     5.5636
       N       E                     dE             d eps       ncg     rms          rms(c)
DAV:   1    -0.230822939613E+04   -0.13039E+00   -0.13648E+01  4432   0.261E+00    0.364E+00
RMM:   2    -0.230846188344E+04   -0.23249E+00   -0.18070E+00  5365   0.663E-01    0.916E+00
RMM:   3    -0.230816563588E+04    0.29625E+00   -0.38510E-01  5391   0.258E-01    0.301E+00
RMM:   4    -0.230815242301E+04    0.13213E-01   -0.98547E-02  4605   0.147E-01    0.232E+00
RMM:   5    -0.230824078641E+04   -0.88363E-01   -0.45961E-02  4906   0.103E-01    0.489E+00
RMM:   6    -0.230825471483E+04   -0.13928E-01   -0.66342E-03  4598   0.473E-02    0.485E+00
RMM:   7    -0.230828661962E+04   -0.31905E-01   -0.45731E-02  4777   0.858E-02    0.365E+00
RMM:   8    -0.230832976774E+04   -0.43148E-01   -0.65674E-02  4720   0.998E-02    0.230E+00
RMM:   9    -0.230836692649E+04   -0.37159E-01   -0.46160E-02  4623   0.872E-02    0.145E+00
RMM:  10    -0.230840357237E+04   -0.36646E-01   -0.53077E-02  4562   0.101E-01    0.608E-01
RMM:  11    -0.230840619982E+04   -0.26274E-02   -0.85003E-03  4467   0.550E-02    0.314E-01
RMM:  12    -0.230841107614E+04   -0.48763E-02   -0.48823E-03  4547   0.266E-02    0.138E-01
RMM:  13    -0.230841433065E+04   -0.32545E-02   -0.88820E-04  4152   0.204E-02    0.971E-02
RMM:  14    -0.230841745494E+04   -0.31243E-02   -0.67120E-04  4059   0.147E-02    0.830E-02
RMM:  15    -0.230841917431E+04   -0.17194E-02   -0.26108E-04  3768   0.119E-02    0.506E-02
RMM:  16    -0.230842031368E+04   -0.11394E-02   -0.20155E-04  3689   0.905E-03    0.410E-02
RMM:  17    -0.230842087159E+04   -0.55791E-03   -0.13759E-04  3619   0.908E-03    0.155E-02
RMM:  18    -0.230842102958E+04   -0.15799E-03   -0.58117E-05  3355   0.571E-03    0.930E-03
RMM:  19    -0.230842105456E+04   -0.24979E-04   -0.14937E-05  2853   0.457E-03    0.495E-03
RMM:  20    -0.230842105947E+04   -0.49128E-05   -0.54826E-06  2757   0.261E-03
   9 F= -.23288494E+04 E0= -.23288482E+04  d E =-.317140E+00  mag=     4.0002
       N       E                     dE             d eps       ncg     rms          rms(c)
DAV:   1    -0.230812123948E+04    0.29982E+00   -0.68846E+01  4400   0.592E+00    0.526E+00
RMM:   2    -0.231022771915E+04   -0.21065E+01   -0.85609E+00  5991   0.133E+00    0.149E+01
RMM:   3    -0.230873256940E+04    0.14951E+01   -0.13688E+00  5809   0.482E-01    0.433E+00
RMM:   4    -0.230868823157E+04    0.44338E-01   -0.16918E-01  5064   0.139E-01    0.309E+00
RMM:   5    -0.230862637308E+04    0.61858E-01   -0.11025E-01  5313   0.138E-01    0.136E+00
RMM:   6    -0.230861708098E+04    0.92921E-02   -0.33436E-02  5355   0.806E-02    0.799E-01
RMM:   7    -0.230862387906E+04   -0.67981E-02   -0.12303E-02  4943   0.470E-02    0.630E-01
RMM:   8    -0.230862304901E+04    0.83005E-03   -0.47186E-03  4909   0.341E-02    0.242E-01
RMM:   9    -0.230862327994E+04   -0.23092E-03   -0.23155E-03  4675   0.190E-02    0.878E-02
RMM:  10    -0.230862342720E+04   -0.14726E-03   -0.33155E-04  3970   0.119E-02    0.664E-02
RMM:  11    -0.230862346181E+04   -0.34607E-04   -0.93579E-05  3080   0.617E-03    0.314E-02
RMM:  12    -0.230862348034E+04   -0.18531E-04   -0.53667E-05  2962   0.495E-03    0.168E-02
RMM:  13    -0.230862349467E+04   -0.14330E-04   -0.17302E-05  2845   0.399E-03    0.882E-03
RMM:  14    -0.230862350259E+04   -0.79156E-05   -0.82532E-06  2825   0.330E-03
  10 F= -.23290457E+04 E0= -.23290453E+04  d E =-.513474E+00  mag=     4.0000
       N       E                     dE             d eps       ncg     rms          rms(c)
DAV:   1    -0.230879581021E+04   -0.17232E+00   -0.24390E+01  4424   0.311E+00    0.113E+00
RMM:   2    -0.230892307438E+04   -0.12726E+00   -0.12987E+00  5551   0.571E-01    0.861E-01
RMM:   3    -0.230893578040E+04   -0.12706E-01   -0.16538E-01  5468   0.210E-01    0.103E+00
RMM:   4    -0.230892790725E+04    0.78732E-02   -0.16684E-02  5598   0.490E-02    0.383E-01
RMM:   5    -0.230892613527E+04    0.17720E-02   -0.89142E-03  4900   0.373E-02    0.180E-01
RMM:   6    -0.230892599785E+04    0.13742E-03   -0.15451E-03  4609   0.264E-02    0.980E-02
RMM:   7    -0.230892601983E+04   -0.21983E-04   -0.32925E-04  3979   0.102E-02    0.333E-02
RMM:   8    -0.230892602802E+04   -0.81918E-05   -0.53105E-05  2956   0.670E-03
  11 F= -.23293461E+04 E0= -.23293461E+04  d E =-.300353E+00  mag=     4.0000
       N       E                     dE             d eps       ncg     rms          rms(c)
DAV:   1    -0.230882188695E+04    0.10413E+00   -0.51745E+01  4400   0.447E+00    0.165E+00
RMM:   2    -0.230911372930E+04   -0.29184E+00   -0.29279E+00  5573   0.886E-01    0.146E+00
RMM:   3    -0.230913943588E+04   -0.25707E-01   -0.36191E-01  5564   0.310E-01    0.164E+00
RMM:   4    -0.230911964688E+04    0.19789E-01   -0.37337E-02  5660   0.738E-02    0.597E-01
RMM:   5    -0.230911526139E+04    0.43855E-02   -0.24501E-02  4876   0.622E-02    0.268E-01
RMM:   6    -0.230911497015E+04    0.29124E-03   -0.29096E-03  4745   0.400E-02    0.126E-01
RMM:   7    -0.230911506022E+04   -0.90072E-04   -0.70704E-04  4189   0.128E-02    0.587E-02
RMM:   8    -0.230911506815E+04   -0.79267E-05   -0.96166E-05  3273   0.945E-03
  12 F= -.23295326E+04 E0= -.23295326E+04  d E =-.486908E+00  mag=     4.0000
       N       E                     dE             d eps       ncg     rms          rms(c)
DAV:   1    -0.230923167351E+04   -0.11661E+00   -0.17269E+01  4432   0.302E+00    0.143E+00
RMM:   2    -0.230946133166E+04   -0.22966E+00   -0.18916E+00  5758   0.610E-01    0.327E+00
RMM:   3    -0.230940343893E+04    0.57893E-01   -0.17350E-01  5356   0.219E-01    0.662E-01
RMM:   4    -0.230939881356E+04    0.46254E-02   -0.23655E-02  4839   0.610E-02    0.382E-01
RMM:   5    -0.230939804188E+04    0.77168E-03   -0.64504E-03  5493   0.486E-02    0.473E-01
RMM:   6    -0.230939638507E+04    0.16568E-02   -0.35687E-03  5491   0.335E-02    0.809E-02
RMM:   7    -0.230939640701E+04   -0.21939E-04   -0.66570E-04  4303   0.130E-02    0.474E-02
RMM:   8    -0.230939644725E+04   -0.40236E-04   -0.10378E-04  3717   0.852E-03    0.270E-02
RMM:   9    -0.230939647376E+04   -0.26518E-04   -0.49952E-05  3254   0.580E-03    0.135E-02
RMM:  10    -0.230939648882E+04   -0.15051E-04   -0.22580E-05  2930   0.503E-03    0.904E-03
RMM:  11    -0.230939649774E+04   -0.89235E-05   -0.15513E-05  2842   0.445E-03
  13 F= -.23298135E+04 E0= -.23298135E+04  d E =-.280827E+00  mag=     4.0000
       N       E                     dE             d eps       ncg     rms          rms(c)
DAV:   1    -0.230930793876E+04    0.88550E-01   -0.20589E+01  4416   0.330E+00    0.156E+00
RMM:   2    -0.230959608136E+04   -0.28814E+00   -0.22514E+00  5787   0.681E-01    0.398E+00
RMM:   3    -0.230951593953E+04    0.80142E-01   -0.22585E-01  5416   0.238E-01    0.702E-01
RMM:   4    -0.230951062506E+04    0.53145E-02   -0.30583E-02  4832   0.671E-02    0.415E-01
RMM:   5    -0.230951011633E+04    0.50872E-03   -0.78674E-03  5466   0.537E-02    0.621E-01
RMM:   6    -0.230950742884E+04    0.26875E-02   -0.53077E-03  5545   0.389E-02    0.956E-02
RMM:   7    -0.230950740694E+04    0.21891E-04   -0.79773E-04  4424   0.142E-02    0.633E-02
RMM:   8    -0.230950742674E+04   -0.19797E-04   -0.11788E-04  3816   0.880E-03    0.315E-02
RMM:   9    -0.230950744659E+04   -0.19849E-04   -0.63504E-05  3303   0.613E-03    0.250E-02
RMM:  10    -0.230950745451E+04   -0.79239E-05   -0.39493E-05  3114   0.581E-03
  14 F= -.23299240E+04 E0= -.23299240E+04  d E =-.391313E+00  mag=     4.0000
       N       E                     dE             d eps       ncg     rms          rms(c)
DAV:   1    -0.230939884531E+04    0.10860E+00   -0.21157E+01  4480   0.384E+00    0.192E+00
RMM:   2    -0.230994792767E+04   -0.54908E+00   -0.43195E+00  6051   0.917E-01    0.505E+00
RMM:   3    -0.230981522284E+04    0.13270E+00   -0.39024E-01  5725   0.285E-01    0.762E-01
RMM:   4    -0.230981191620E+04    0.33066E-02   -0.44954E-02  4977   0.763E-02    0.435E-01
RMM:   5    -0.230981098886E+04    0.92734E-03   -0.62325E-03  5461   0.514E-02    0.607E-01
RMM:   6    -0.230980828243E+04    0.27064E-02   -0.71897E-03  5423   0.451E-02    0.125E-01
RMM:   7    -0.230980833289E+04   -0.50460E-04   -0.94852E-04  4427   0.179E-02    0.111E-01
RMM:   8    -0.230980824449E+04    0.88405E-04   -0.20103E-04  3797   0.912E-03    0.283E-02
RMM:   9    -0.230980825428E+04   -0.97918E-05   -0.66476E-05  3328   0.595E-03
  15 F= -.23302266E+04 E0= -.23302266E+04  d E =-.302688E+00  mag=     4.0000
       N       E                     dE             d eps       ncg     rms          rms(c)
DAV:   1    -0.230906791242E+04    0.74033E+00   -0.46682E+01  4456   0.566E+00    0.288E+00
RMM:   2    -0.231026068135E+04   -0.11928E+01   -0.94864E+00  6101   0.132E+00    0.724E+00
RMM:   3    -0.231000466245E+04    0.25602E+00   -0.98641E-01  5744   0.436E-01    0.149E+00
RMM:   4    -0.230999138264E+04    0.13280E-01   -0.98948E-02  4970   0.113E-01    0.630E-01
RMM:   5    -0.230998849990E+04    0.28827E-02   -0.12739E-02  5414   0.722E-02    0.822E-01
RMM:   6    -0.230998298500E+04    0.55149E-02   -0.15328E-02  5317   0.673E-02    0.259E-01
RMM:   7    -0.230998306829E+04   -0.83290E-04   -0.18261E-03  5031   0.314E-02    0.186E-01
RMM:   8    -0.230998288210E+04    0.18620E-03   -0.36852E-04  4373   0.114E-02    0.629E-02
RMM:   9    -0.230998285657E+04    0.25523E-04   -0.21169E-04  4089   0.983E-03    0.354E-02
RMM:  10    -0.230998287172E+04   -0.15145E-04   -0.11052E-04  3969   0.833E-03    0.193E-02
RMM:  11    -0.230998289047E+04   -0.18749E-04   -0.29425E-05  2978   0.595E-03    0.139E-02
RMM:  12    -0.230998292042E+04   -0.29950E-04   -0.30287E-05  3123   0.479E-03    0.817E-03
RMM:  13    -0.230998294337E+04   -0.22948E-04   -0.16966E-05  2885   0.465E-03    0.626E-03
RMM:  14    -0.230998295723E+04   -0.13859E-04   -0.12233E-05  2813   0.402E-03    0.325E-03
RMM:  15    -0.230998296543E+04   -0.82075E-05   -0.74001E-06  2800   0.360E-03
  16 F= -.23304037E+04 E0= -.23304037E+04  d E =-.479743E+00  mag=     4.0000
       N       E                     dE             d eps       ncg     rms          rms(c)
DAV:   1    -0.230966842757E+04    0.31453E+00   -0.24579E+01  4416   0.363E+00    0.232E+00
RMM:   2    -0.231054741392E+04   -0.87899E+00   -0.61495E+00  6230   0.999E-01    0.709E+00
RMM:   3    -0.231022824470E+04    0.31917E+00   -0.57214E-01  5846   0.313E-01    0.808E-01
RMM:   4    -0.231022912092E+04   -0.87622E-03   -0.78826E-02  5284   0.830E-02    0.478E-01
RMM:   5    -0.231022804664E+04    0.10743E-02   -0.67796E-03  5284   0.424E-02    0.708E-01
RMM:   6    -0.231022411583E+04    0.39308E-02   -0.96313E-03  5383   0.485E-02    0.121E-01
RMM:   7    -0.231022427679E+04   -0.16096E-03   -0.14664E-03  4801   0.214E-02    0.144E-01
RMM:   8    -0.231022412993E+04    0.14686E-03   -0.18546E-04  3584   0.851E-03    0.451E-02
RMM:   9    -0.231022408767E+04    0.42265E-04   -0.13374E-04  3673   0.735E-03    0.168E-02
RMM:  10    -0.231022407793E+04    0.97400E-05   -0.30879E-05  2941   0.582E-03
  17 F= -.23306470E+04 E0= -.23306470E+04  d E =-.243270E+00  mag=     4.0000
       N       E                     dE             d eps       ncg     rms          rms(c)
DAV:   1    -0.230927460313E+04    0.94948E+00   -0.44848E+01  4416   0.502E+00    0.311E+00
RMM:   2    -0.231083053519E+04   -0.15559E+01   -0.11447E+01  6246   0.137E+00    0.869E+00
RMM:   3    -0.231035526692E+04    0.47527E+00   -0.12745E+00  5777   0.458E-01    0.108E+00
RMM:   4    -0.231035596076E+04   -0.69384E-03   -0.15961E-01  5388   0.113E-01    0.688E-01
RMM:   5    -0.231035378786E+04    0.21729E-02   -0.13016E-02  5339   0.565E-02    0.101E+00
RMM:   6    -0.231034579431E+04    0.79935E-02   -0.18491E-02  5479   0.659E-02    0.191E-01
RMM:   7    -0.231034617768E+04   -0.38337E-03   -0.32065E-03  5068   0.296E-02    0.247E-01
RMM:   8    -0.231034585596E+04    0.32172E-03   -0.42230E-04  4311   0.122E-02    0.778E-02
RMM:   9    -0.231034580778E+04    0.48182E-04   -0.22730E-04  3939   0.966E-03    0.360E-02
RMM:  10    -0.231034578813E+04    0.19650E-04   -0.83319E-05  3653   0.772E-03    0.137E-02
RMM:  11    -0.231034579175E+04   -0.36216E-05   -0.34750E-05  3093   0.556E-03
  18 F= -.23307721E+04 E0= -.23307721E+04  d E =-.368419E+00  mag=     4.0000
       N       E                     dE             d eps       ncg     rms          rms(c)
DAV:   1    -0.230962267325E+04    0.72311E+00   -0.35468E+01  4408   0.405E+00    0.284E+00
RMM:   2    -0.231099186966E+04   -0.13692E+01   -0.10216E+01  6412   0.119E+00    0.799E+00
RMM:   3    -0.231052307672E+04    0.46879E+00   -0.98660E-01  5910   0.381E-01    0.113E+00
RMM:   4    -0.231052639221E+04   -0.33155E-02   -0.15882E-01  5457   0.982E-02    0.663E-01
RMM:   5    -0.231052493349E+04    0.14587E-02   -0.11959E-02  5351   0.456E-02    0.904E-01
RMM:   6    -0.231051881140E+04    0.61221E-02   -0.14046E-02  5479   0.495E-02    0.156E-01
RMM:   7    -0.231051921851E+04   -0.40712E-03   -0.31157E-03  4763   0.212E-02    0.180E-01
RMM:   8    -0.231051909915E+04    0.11936E-03   -0.29707E-04  3332   0.936E-03    0.583E-02
RMM:   9    -0.231051915415E+04   -0.55004E-04   -0.12482E-04  3130   0.635E-03    0.283E-02
RMM:  10    -0.231051917622E+04   -0.22066E-04   -0.29871E-05  2878   0.464E-03    0.110E-02
RMM:  11    -0.231051919751E+04   -0.21291E-04   -0.13866E-05  2853   0.345E-03    0.705E-03
RMM:  12    -0.231051920990E+04   -0.12394E-04   -0.59579E-06  2810   0.288E-03    0.368E-03
RMM:  13    -0.231051922141E+04   -0.11503E-04   -0.59717E-06  2772   0.238E-03    0.269E-03
RMM:  14    -0.231051922601E+04   -0.46013E-05   -0.29845E-06  2651   0.232E-03
  19 F= -.23309513E+04 E0= -.23309513E+04  d E =-.179223E+00  mag=     4.0000
       N       E                     dE             d eps       ncg     rms          rms(c)
DAV:   1    -0.231044597694E+04    0.73244E-01   -0.33909E+00  4608   0.125E+00    0.903E-01
RMM:   2    -0.231057794726E+04   -0.13197E+00   -0.94408E-01  6322   0.360E-01    0.279E+00
RMM:   3    -0.231052829690E+04    0.49650E-01   -0.81876E-02  5707   0.112E-01    0.313E-01
RMM:   4    -0.231052897038E+04   -0.67348E-03   -0.14354E-02  4932   0.301E-02    0.190E-01
RMM:   5    -0.231052880553E+04    0.16485E-03   -0.10193E-03  4387   0.139E-02    0.252E-01
RMM:   6    -0.231052833597E+04    0.46956E-03   -0.12999E-03  4550   0.166E-02    0.362E-02
RMM:   7    -0.231052835473E+04   -0.18759E-04   -0.21900E-04  2973   0.709E-03    0.321E-02
RMM:   8    -0.231052834624E+04    0.84942E-05   -0.20377E-05  2852   0.381E-03
  20 F= -.23309620E+04 E0= -.23309620E+04  d E =-.189870E+00  mag=     4.0000
       N       E                     dE             d eps       ncg     rms          rms(c)
DAV:   1    -0.231038820971E+04    0.14015E+00   -0.97554E+00  4416   0.256E+00    0.139E+00
RMM:   2    -0.231066271401E+04   -0.27450E+00   -0.23983E+00  5996   0.642E-01    0.304E+00
RMM:   3    -0.231060763909E+04    0.55075E-01   -0.25116E-01  5732   0.222E-01    0.572E-01
RMM:   4    -0.231060699236E+04    0.64673E-03   -0.29408E-02  4871   0.547E-02    0.341E-01
RMM:   5    -0.231060579575E+04    0.11966E-02   -0.47316E-03  5550   0.391E-02    0.432E-01
RMM:   6    -0.231060386636E+04    0.19294E-02   -0.50038E-03  5242   0.365E-02    0.916E-02
RMM:   7    -0.231060372736E+04    0.13901E-03   -0.53197E-04  4500   0.182E-02    0.439E-02
RMM:   8    -0.231060362034E+04    0.10702E-03   -0.15254E-04  3973   0.832E-03    0.219E-02
RMM:   9    -0.231060356509E+04    0.55254E-04   -0.12394E-04  3820   0.778E-03    0.142E-02
RMM:  10    -0.231060355696E+04    0.81303E-05   -0.23306E-05  2969   0.569E-03
  21 F= -.23310380E+04 E0= -.23310380E+04  d E =-.759965E-01  mag=     4.0000
       N       E                     dE             d eps       ncg     rms          rms(c)
DAV:   1    -0.231059094464E+04    0.12620E-01   -0.73068E-01  4872   0.706E-01    0.368E-01
RMM:   2    -0.231061016905E+04   -0.19224E-01   -0.17514E-01  5989   0.173E-01    0.757E-01
RMM:   3    -0.231060736715E+04    0.28019E-02   -0.17241E-02  5473   0.659E-02    0.183E-01
RMM:   4    -0.231060722810E+04    0.13905E-03   -0.20169E-03  4391   0.156E-02    0.883E-02
RMM:   5    -0.231060711374E+04    0.11436E-03   -0.35227E-04  4400   0.120E-02    0.107E-01
RMM:   6    -0.231060699764E+04    0.11610E-03   -0.36008E-04  4402   0.116E-02    0.289E-02
RMM:   7    -0.231060698370E+04    0.13942E-04   -0.35910E-05  2966   0.700E-03    0.991E-03
RMM:   8    -0.231060697575E+04    0.79477E-05   -0.13502E-05  2846   0.326E-03
  22 F= -.23310416E+04 E0= -.23310416E+04  d E =-.795703E-01  mag=     4.0000
       N       E                     dE             d eps       ncg     rms          rms(c)
DAV:   1    -0.231055533138E+04    0.51652E-01   -0.41839E+00  4432   0.170E+00    0.743E-01
RMM:   2    -0.231064379382E+04   -0.88462E-01   -0.92748E-01  5848   0.379E-01    0.667E-01
RMM:   3    -0.231065112394E+04   -0.73301E-02   -0.10071E-01  5485   0.154E-01    0.570E-01
RMM:   4    -0.231064959135E+04    0.15326E-02   -0.10049E-02  5355   0.345E-02    0.200E-01
RMM:   5    -0.231064910800E+04    0.48335E-03   -0.10705E-03  4564   0.166E-02    0.126E-01
RMM:   6    -0.231064893488E+04    0.17312E-03   -0.10192E-03  4891   0.170E-02    0.132E-01
RMM:   7    -0.231064879564E+04    0.13925E-03   -0.25039E-04  4258   0.129E-02    0.238E-02
RMM:   8    -0.231064878307E+04    0.12563E-04   -0.41354E-05  3094   0.466E-03    0.121E-02
RMM:   9    -0.231064877567E+04    0.74055E-05   -0.23633E-05  2859   0.462E-03
  23 F= -.23310836E+04 E0= -.23310836E+04  d E =-.420040E-01  mag=     4.0000
       N       E                     dE             d eps       ncg     rms          rms(c)
DAV:   1    -0.231055810711E+04    0.90676E-01   -0.47898E+00  4416   0.182E+00    0.795E-01
RMM:   2    -0.231065850023E+04   -0.10039E+00   -0.10573E+00  5869   0.404E-01    0.691E-01
RMM:   3    -0.231066741666E+04   -0.89164E-02   -0.12125E-01  5552   0.165E-01    0.595E-01
RMM:   4    -0.231066579426E+04    0.16224E-02   -0.11452E-02  5402   0.370E-02    0.215E-01
RMM:   5    -0.231066523905E+04    0.55521E-03   -0.12121E-03  4624   0.177E-02    0.135E-01
RMM:   6    -0.231066502101E+04    0.21804E-03   -0.11479E-03  4907   0.180E-02    0.139E-01
RMM:   7    -0.231066485824E+04    0.16278E-03   -0.28807E-04  4413   0.137E-02    0.240E-02
RMM:   8    -0.231066484169E+04    0.16542E-04   -0.51604E-05  3183   0.505E-03    0.146E-02
RMM:   9    -0.231066483140E+04    0.10293E-04   -0.29449E-05  2897   0.505E-03    0.561E-03
RMM:  10    -0.231066483062E+04    0.77717E-06   -0.10120E-05  2833   0.368E-03
  24 F= -.23310998E+04 E0= -.23310998E+04  d E =-.582685E-01  mag=     4.0000
       N       E                     dE             d eps       ncg     rms          rms(c)
DAV:   1    -0.231060502955E+04    0.59802E-01   -0.49376E+00  4424   0.199E+00    0.776E-01
RMM:   2    -0.231069084919E+04   -0.85820E-01   -0.91611E-01  5874   0.413E-01    0.354E-01
RMM:   3    -0.231069873582E+04   -0.78866E-02   -0.10063E-01  5197   0.151E-01    0.198E-01
RMM:   4    -0.231069910181E+04   -0.36599E-03   -0.95055E-03  4825   0.337E-02    0.150E-01
RMM:   5    -0.231069926374E+04   -0.16193E-03   -0.11914E-03  4656   0.201E-02    0.278E-01
RMM:   6    -0.231069866540E+04    0.59833E-03   -0.68472E-04  4681   0.155E-02    0.516E-02
RMM:   7    -0.231069862383E+04    0.41573E-04   -0.23368E-04  4016   0.107E-02    0.205E-02
RMM:   8    -0.231069860886E+04    0.14969E-04   -0.31429E-05  3142   0.534E-03    0.119E-02
RMM:   9    -0.231069859620E+04    0.12667E-04   -0.25090E-05  2963   0.481E-03    0.605E-03
RMM:  10    -0.231069859399E+04    0.22034E-05   -0.95123E-06  2826   0.397E-03
  25 F= -.23311339E+04 E0= -.23311339E+04  d E =-.341143E-01  mag=     4.0000
       N       E                     dE             d eps       ncg     rms          rms(c)
DAV:   1    -0.231067081720E+04    0.27779E-01   -0.17738E+00  4464   0.118E+00    0.462E-01
RMM:   2    -0.231070175111E+04   -0.30934E-01   -0.33001E-01  5921   0.246E-01    0.204E-01
RMM:   3    -0.231070421458E+04   -0.24635E-02   -0.30844E-02  5138   0.857E-02    0.174E-01
RMM:   4    -0.231070444334E+04   -0.22876E-03   -0.35264E-03  4273   0.198E-02    0.177E-01
RMM:   5    -0.231070414944E+04    0.29390E-03   -0.39598E-04  4162   0.118E-02    0.684E-02
RMM:   6    -0.231070405803E+04    0.91404E-04   -0.28371E-04  4364   0.115E-02    0.242E-02
RMM:   7    -0.231070404468E+04    0.13355E-04   -0.44014E-05  3202   0.809E-03    0.103E-02
RMM:   8    -0.231070403912E+04    0.55591E-05   -0.15651E-05  2878   0.380E-03
  26 F= -.23311396E+04 E0= -.23311396E+04  d E =-.397792E-01  mag=     4.0000
       N       E                     dE             d eps       ncg     rms          rms(c)
DAV:   1    -0.231066658695E+04    0.37458E-01   -0.35796E+00  4408   0.158E+00    0.598E-01
RMM:   2    -0.231072620642E+04   -0.59619E-01   -0.63528E-01  6026   0.330E-01    0.301E-01
RMM:   3    -0.231073206595E+04   -0.58595E-02   -0.64110E-02  5361   0.112E-01    0.373E-01
RMM:   4    -0.231073189179E+04    0.17416E-03   -0.66802E-03  4525   0.247E-02    0.172E-01
RMM:   5    -0.231073157712E+04    0.31467E-03   -0.56965E-04  4131   0.125E-02    0.107E-01
RMM:   6    -0.231073142801E+04    0.14911E-03   -0.59051E-04  4582   0.140E-02    0.304E-02
RMM:   7    -0.231073142230E+04    0.57133E-05   -0.52592E-05  3101   0.882E-03
  27 F= -.23311663E+04 E0= -.23311663E+04  d E =-.266674E-01  mag=     4.0000
       N       E                     dE             d eps       ncg     rms          rms(c)
DAV:   1    -0.231064826398E+04    0.83164E-01   -0.51381E+00  4432   0.190E+00    0.714E-01
RMM:   2    -0.231073366703E+04   -0.85403E-01   -0.91174E-01  5955   0.396E-01    0.358E-01
RMM:   3    -0.231074192414E+04   -0.82571E-02   -0.92075E-02  5371   0.136E-01    0.414E-01
RMM:   4    -0.231074187689E+04    0.47252E-04   -0.95289E-03  5023   0.292E-02    0.221E-01
RMM:   5    -0.231074139532E+04    0.48156E-03   -0.85648E-04  4383   0.148E-02    0.135E-01
RMM:   6    -0.231074114910E+04    0.24623E-03   -0.91395E-04  4779   0.166E-02    0.353E-02
RMM:   7    -0.231074114030E+04    0.87922E-05   -0.84561E-05  3438   0.104E-02
  28 F= -.23311752E+04 E0= -.23311752E+04  d E =-.355919E-01  mag=     4.0000
       N       E                     dE             d eps       ncg     rms          rms(c)
DAV:   1    -0.231072170517E+04    0.19444E-01   -0.23284E+00  4480   0.132E+00    0.472E-01
RMM:   2    -0.231075040458E+04   -0.28699E-01   -0.30760E-01  5827   0.263E-01    0.291E-01
RMM:   3    -0.231075367462E+04   -0.32700E-02   -0.32200E-02  5407   0.909E-02    0.413E-01
RMM:   4    -0.231075269686E+04    0.97776E-03   -0.38016E-03  5067   0.237E-02    0.145E-01
RMM:   5    -0.231075247775E+04    0.21911E-03   -0.54902E-04  4359   0.141E-02    0.643E-02
RMM:   6    -0.231075242831E+04    0.49438E-04   -0.28535E-04  4403   0.127E-02    0.208E-02
RMM:   7    -0.231075242041E+04    0.78990E-05   -0.31176E-05  3009   0.713E-03
  29 F= -.23311862E+04 E0= -.23311862E+04  d E =-.110504E-01  mag=     4.0000
       N       E                     dE             d eps       ncg     rms          rms(c)
DAV:   1    -0.231075173153E+04    0.69678E-03   -0.69642E-02  5128   0.229E-01    0.818E-02
RMM:   2    -0.231075260083E+04   -0.86930E-03   -0.92996E-03  5804   0.470E-02    0.552E-02
RMM:   3    -0.231075269744E+04   -0.96605E-04   -0.96822E-04  3233   0.164E-02    0.743E-02
RMM:   4    -0.231075266492E+04    0.32523E-04   -0.11625E-04  2906   0.539E-03    0.250E-02
RMM:   5    -0.231075265732E+04    0.75903E-05   -0.19550E-05  2875   0.340E-03
  30 F= -.23311864E+04 E0= -.23311864E+04  d E =-.112503E-01  mag=     4.0000
       N       E                     dE             d eps       ncg     rms          rms(c)
DAV:   1    -0.231075433375E+04   -0.16688E-02   -0.68619E-01  4448   0.826E-01    0.284E-01
RMM:   2    -0.231076150794E+04   -0.71742E-02   -0.67727E-02  5582   0.153E-01    0.436E-01
RMM:   3    -0.231076071531E+04    0.79263E-03   -0.63964E-03  5165   0.538E-02    0.199E-01
RMM:   4    -0.231076037801E+04    0.33730E-03   -0.79078E-04  4466   0.151E-02    0.620E-02
RMM:   5    -0.231076028778E+04    0.90228E-04   -0.27004E-04  4683   0.130E-02    0.557E-02
RMM:   6    -0.231076025014E+04    0.37647E-04   -0.11197E-04  4249   0.870E-03    0.135E-02
RMM:   7    -0.231076024313E+04    0.70022E-05   -0.15175E-05  2890   0.507E-03
  31 F= -.23311937E+04 E0= -.23311937E+04  d E =-.726386E-02  mag=     4.0000
       N       E                     dE             d eps       ncg     rms          rms(c)
DAV:   1    -0.231075815740E+04    0.20927E-02   -0.49180E-01  4480   0.700E-01    0.240E-01
RMM:   2    -0.231076329516E+04   -0.51378E-02   -0.48634E-02  5624   0.130E-01    0.370E-01
RMM:   3    -0.231076270049E+04    0.59467E-03   -0.45919E-03  5066   0.455E-02    0.165E-01
RMM:   4    -0.231076245457E+04    0.24591E-03   -0.57271E-04  4332   0.130E-02    0.531E-02
RMM:   5    -0.231076237612E+04    0.78457E-04   -0.19692E-04  4435   0.114E-02    0.489E-02
RMM:   6    -0.231076234132E+04    0.34802E-04   -0.90838E-05  3961   0.819E-03    0.125E-02
RMM:   7    -0.231076233410E+04    0.72109E-05   -0.13888E-05  2867   0.514E-03
  32 F= -.23311955E+04 E0= -.23311955E+04  d E =-.906844E-02  mag=     4.0000
       N       E                     dE             d eps       ncg     rms          rms(c)
DAV:   1    -0.231076436333E+04   -0.20220E-02   -0.44794E-01  4576   0.667E-01    0.208E-01
RMM:   2    -0.231076930889E+04   -0.49456E-02   -0.42419E-02  5732   0.121E-01    0.428E-01
RMM:   3    -0.231076824478E+04    0.10641E-02   -0.38533E-03  5053   0.402E-02    0.102E-01
RMM:   4    -0.231076816641E+04    0.78368E-04   -0.42857E-04  3837   0.101E-02    0.477E-02
RMM:   5    -0.231076814099E+04    0.25423E-04   -0.11913E-04  3804   0.858E-03    0.580E-02
RMM:   6    -0.231076811574E+04    0.25249E-04   -0.81138E-05  3196   0.777E-03    0.108E-02
RMM:   7    -0.231076811489E+04    0.85153E-06   -0.12002E-05  2841   0.474E-03
  33 F= -.23312010E+04 E0= -.23312010E+04  d E =-.543498E-02  mag=     4.0000
       N       E                     dE             d eps       ncg     rms          rms(c)
DAV:   1    -0.231074315063E+04    0.24965E-01   -0.38351E+00  4400   0.195E+00    0.611E-01
RMM:   2    -0.231078602792E+04   -0.42877E-01   -0.36809E-01  5620   0.354E-01    0.125E+00
RMM:   3    -0.231077641438E+04    0.96135E-02   -0.32824E-02  5219   0.114E-01    0.286E-01
RMM:   4    -0.231077580503E+04    0.60935E-03   -0.37687E-03  4621   0.284E-02    0.142E-01
RMM:   5    -0.231077555731E+04    0.24772E-03   -0.10910E-03  5319   0.238E-02    0.172E-01
RMM:   6    -0.231077529809E+04    0.25922E-03   -0.69582E-04  4996   0.172E-02    0.337E-02
RMM:   7    -0.231077527933E+04    0.18759E-04   -0.71419E-05  3160   0.692E-03    0.149E-02
RMM:   8    -0.231077526558E+04    0.13751E-04   -0.24939E-05  2930   0.422E-03    0.818E-03
RMM:   9    -0.231077525953E+04    0.60521E-05   -0.11141E-05  2841   0.371E-03
  34 F= -.23312070E+04 E0= -.23312070E+04  d E =-.114931E-01  mag=     4.0000
       N       E                     dE             d eps       ncg     rms          rms(c)
DAV:   1    -0.231077238506E+04    0.28805E-02   -0.77719E-01  4512   0.886E-01    0.268E-01
RMM:   2    -0.231078253541E+04   -0.10150E-01   -0.92535E-02  5835   0.170E-01    0.503E-01
RMM:   3    -0.231078131378E+04    0.12216E-02   -0.76556E-03  5260   0.512E-02    0.149E-01
RMM:   4    -0.231078118180E+04    0.13198E-03   -0.84963E-04  4117   0.131E-02    0.624E-02
RMM:   5    -0.231078111538E+04    0.66424E-04   -0.12149E-04  3858   0.914E-03    0.480E-02
RMM:   6    -0.231078109399E+04    0.21388E-04   -0.12237E-04  3790   0.926E-03    0.870E-03
RMM:   7    -0.231078109399E+04    0.46566E-09   -0.13527E-05  2851   0.545E-03
  35 F= -.23312127E+04 E0= -.23312127E+04  d E =-.571467E-02  mag=     4.0000
       N       E                     dE             d eps       ncg     rms          rms(c)
DAV:   1    -0.231071121765E+04    0.69876E-01   -0.69195E+00  4400   0.264E+00    0.802E-01
RMM:   2    -0.231080113907E+04   -0.89921E-01   -0.81922E-01  5728   0.500E-01    0.149E+00
RMM:   3    -0.231079025463E+04    0.10884E-01   -0.67108E-02  5332   0.158E-01    0.443E-01
RMM:   4    -0.231078930265E+04    0.95198E-03   -0.83357E-03  4832   0.383E-02    0.185E-01
RMM:   5    -0.231078878140E+04    0.52126E-03   -0.11390E-03  5043   0.256E-02    0.169E-01
RMM:   6    -0.231078854205E+04    0.23935E-03   -0.12168E-03  4914   0.240E-02    0.451E-02
RMM:   7    -0.231078852420E+04    0.17848E-04   -0.96432E-05  3452   0.109E-02    0.178E-02
RMM:   8    -0.231078851873E+04    0.54729E-05   -0.17808E-05  2885   0.363E-03
  36 F= -.23312197E+04 E0= -.23312197E+04  d E =-.126730E-01  mag=     4.0000
       N       E                     dE             d eps       ncg     rms          rms(c)
DAV:   1    -0.231078289206E+04    0.56321E-02   -0.97250E-01  4640   0.963E-01    0.303E-01
RMM:   2    -0.231079671250E+04   -0.13820E-01   -0.13113E-01  5888   0.196E-01    0.512E-01
RMM:   3    -0.231079581162E+04    0.90087E-03   -0.10931E-02  5324   0.601E-02    0.202E-01
RMM:   4    -0.231079556973E+04    0.24189E-03   -0.13328E-03  4254   0.151E-02    0.731E-02
RMM:   5    -0.231079547388E+04    0.95857E-04   -0.15803E-04  3806   0.923E-03    0.479E-02
RMM:   6    -0.231079544569E+04    0.28183E-04   -0.15495E-04  3934   0.984E-03    0.106E-02
RMM:   7    -0.231079544684E+04   -0.11467E-05   -0.17912E-05  2863   0.584E-03
  37 F= -.23312263E+04 E0= -.23312263E+04  d E =-.659588E-02  mag=     4.0000
       N       E                     dE             d eps       ncg     rms          rms(c)
DAV:   1    -0.231069368684E+04    0.10176E+00   -0.87444E+00  4400   0.289E+00    0.901E-01
RMM:   2    -0.231081595152E+04   -0.12226E+00   -0.11646E+00  5817   0.575E-01    0.149E+00
RMM:   3    -0.231080908037E+04    0.68712E-02   -0.95865E-02  5421   0.183E-01    0.615E-01
RMM:   4    -0.231080697202E+04    0.21083E-02   -0.12104E-02  5129   0.438E-02    0.213E-01
RMM:   5    -0.231080620039E+04    0.77164E-03   -0.13071E-03  4970   0.250E-02    0.152E-01
RMM:   6    -0.231080593453E+04    0.26586E-03   -0.13516E-03  4922   0.250E-02    0.307E-02
RMM:   7    -0.231080593804E+04   -0.35122E-05   -0.13206E-04  3699   0.122E-02    0.188E-02
RMM:   8    -0.231080593721E+04    0.82688E-06   -0.21761E-05  2874   0.398E-03
  38 F= -.23312357E+04 E0= -.23312357E+04  d E =-.159783E-01  mag=     4.0000
       N       E                     dE             d eps       ncg     rms          rms(c)
DAV:   1    -0.231079717712E+04    0.87609E-02   -0.12105E+00  4512   0.106E+00    0.344E-01
RMM:   2    -0.231081394139E+04   -0.16764E-01   -0.16733E-01  5858   0.218E-01    0.467E-01
RMM:   3    -0.231081390313E+04    0.38265E-04   -0.14193E-02  5388   0.679E-02    0.281E-01
RMM:   4    -0.231081341808E+04    0.48505E-03   -0.17517E-03  4672   0.178E-02    0.844E-02
RMM:   5    -0.231081329938E+04    0.11870E-03   -0.24804E-04  4095   0.112E-02    0.466E-02
RMM:   6    -0.231081326354E+04    0.35831E-04   -0.14107E-04  4126   0.102E-02    0.171E-02
RMM:   7    -0.231081326165E+04    0.18974E-05   -0.23151E-05  2903   0.667E-03
  39 F= -.23312429E+04 E0= -.23312429E+04  d E =-.719144E-02  mag=     4.0000
       N       E                     dE             d eps       ncg     rms          rms(c)
DAV:   1    -0.231071140689E+04    0.10186E+00   -0.80460E+00  4432   0.274E+00    0.883E-01
RMM:   2    -0.231082121750E+04   -0.10981E+00   -0.11042E+00  5843   0.556E-01    0.115E+00
RMM:   3    -0.231082177396E+04   -0.55646E-03   -0.92933E-02  5462   0.174E-01    0.729E-01
RMM:   4    -0.231081841940E+04    0.33546E-02   -0.11568E-02  5275   0.452E-02    0.214E-01
RMM:   5    -0.231081768580E+04    0.73361E-03   -0.14799E-03  4939   0.257E-02    0.123E-01
RMM:   6    -0.231081738559E+04    0.30020E-03   -0.97284E-04  4883   0.232E-02    0.528E-02
RMM:   7    -0.231081734474E+04    0.40857E-04   -0.15188E-04  4332   0.131E-02    0.217E-02
RMM:   8    -0.231081732661E+04    0.18129E-04   -0.39717E-05  3182   0.496E-03    0.118E-02
RMM:   9    -0.231081731675E+04    0.98535E-05   -0.21825E-05  2932   0.461E-03
  40 F= -.23312465E+04 E0= -.23312465E+04  d E =-.108327E-01  mag=     4.0000
       N       E                     dE             d eps       ncg     rms          rms(c)
DAV:   1    -0.231080706564E+04    0.10261E-01   -0.84695E-01  4608   0.889E-01    0.287E-01
RMM:   2    -0.231081863192E+04   -0.11566E-01   -0.11666E-01  5961   0.185E-01    0.371E-01
RMM:   3    -0.231081883552E+04   -0.20360E-03   -0.10894E-02  5436   0.576E-02    0.252E-01
RMM:   4    -0.231081843196E+04    0.40357E-03   -0.13315E-03  4189   0.153E-02    0.715E-02
RMM:   5    -0.231081834710E+04    0.84861E-04   -0.19123E-04  3924   0.101E-02    0.387E-02
RMM:   6    -0.231081832793E+04    0.19162E-04   -0.10162E-04  3809   0.879E-03    0.169E-02
RMM:   7    -0.231081832596E+04    0.19719E-05   -0.19420E-05  2876   0.580E-03
  41 F= -.23312476E+04 E0= -.23312476E+04  d E =-.119872E-01  mag=     4.0000
       N       E                     dE             d eps       ncg     rms          rms(c)
DAV:   1    -0.231080544818E+04    0.12880E-01   -0.15734E+00  4448   0.123E+00    0.360E-01
RMM:   2    -0.231082473358E+04   -0.19285E-01   -0.19827E-01  5827   0.239E-01    0.370E-01
RMM:   3    -0.231082567970E+04   -0.94613E-03   -0.16450E-02  5362   0.735E-02    0.335E-01
RMM:   4    -0.231082499389E+04    0.68581E-03   -0.21382E-03  4741   0.191E-02    0.961E-02
RMM:   5    -0.231082484596E+04    0.14793E-03   -0.28772E-04  4158   0.116E-02    0.518E-02
RMM:   6    -0.231082480610E+04    0.39860E-04   -0.19710E-04  4287   0.109E-02    0.301E-02
RMM:   7    -0.231082479921E+04    0.68948E-05   -0.27980E-05  2904   0.745E-03
  42 F= -.23312539E+04 E0= -.23312539E+04  d E =-.626947E-02  mag=     4.0000
       N       E                     dE             d eps       ncg     rms          rms(c)
DAV:   1    -0.231069180302E+04    0.13300E+00   -0.11364E+01  4432   0.331E+00    0.974E-01
RMM:   2    -0.231083236022E+04   -0.14056E+00   -0.14371E+00  5827   0.635E-01    0.105E+00
RMM:   3    -0.231083741630E+04   -0.50561E-02   -0.11964E-01  5436   0.197E-01    0.843E-01
RMM:   4    -0.231083312054E+04    0.42958E-02   -0.14800E-02  5360   0.506E-02    0.256E-01
RMM:   5    -0.231083217329E+04    0.94725E-03   -0.18076E-03  4926   0.274E-02    0.146E-01
RMM:   6    -0.231083185589E+04    0.31740E-03   -0.14904E-03  4936   0.263E-02    0.932E-02
RMM:   7    -0.231083179231E+04    0.63580E-04   -0.20446E-04  4488   0.157E-02    0.260E-02
RMM:   8    -0.231083178279E+04    0.95254E-05   -0.41842E-05  3133   0.493E-03
  43 F= -.23312603E+04 E0= -.23312603E+04  d E =-.126651E-01  mag=     4.0000
       N       E                     dE             d eps       ncg     rms          rms(c)
DAV:   1    -0.231081572548E+04    0.16067E-01   -0.20707E+00  4480   0.142E+00    0.379E-01
RMM:   2    -0.231083866323E+04   -0.22938E-01   -0.23879E-01  5827   0.262E-01    0.275E-01
RMM:   3    -0.231084029080E+04   -0.16276E-02   -0.20493E-02  5334   0.829E-02    0.312E-01
RMM:   4    -0.231083976408E+04    0.52672E-03   -0.24943E-03  4769   0.199E-02    0.118E-01
RMM:   5    -0.231083956934E+04    0.19474E-03   -0.37231E-04  4204   0.124E-02    0.664E-02
RMM:   6    -0.231083952678E+04    0.42560E-04   -0.29350E-04  4397   0.118E-02    0.428E-02
RMM:   7    -0.231083951602E+04    0.10760E-04   -0.40540E-05  2953   0.768E-03    0.107E-02
RMM:   8    -0.231083951741E+04   -0.13890E-05   -0.97926E-06  2847   0.308E-03
  44 F= -.23312676E+04 E0= -.23312676E+04  d E =-.725068E-02  mag=     4.0000
       N       E                     dE             d eps       ncg     rms          rms(c)
DAV:   1    -0.231064001180E+04    0.19950E+00   -0.18310E+01  4432   0.423E+00    0.113E+00
RMM:   2    -0.231084474389E+04   -0.20473E+00   -0.21170E+00  5728   0.773E-01    0.949E-01
RMM:   3    -0.231085662291E+04   -0.11879E-01   -0.18097E-01  5287   0.256E-01    0.914E-01
RMM:   4    -0.231085229629E+04    0.43266E-02   -0.20918E-02  5590   0.597E-02    0.357E-01
RMM:   5    -0.231085077290E+04    0.15234E-02   -0.28529E-03  4872   0.322E-02    0.218E-01
RMM:   6    -0.231085017900E+04    0.59390E-03   -0.28791E-03  4945   0.325E-02    0.150E-01
RMM:   7    -0.231085004214E+04    0.13686E-03   -0.44208E-04  4725   0.213E-02    0.334E-02
RMM:   8    -0.231085003779E+04    0.43528E-05   -0.67414E-05  3209   0.567E-03
  45 F= -.23312766E+04 E0= -.23312766E+04  d E =-.163041E-01  mag=     4.0000
       N       E                     dE             d eps       ncg     rms          rms(c)
DAV:   1    -0.231082592490E+04    0.24117E-01   -0.33507E+00  4512   0.185E+00    0.483E-01
RMM:   2    -0.231085800544E+04   -0.32081E-01   -0.33825E-01  5720   0.333E-01    0.236E-01
RMM:   3    -0.231085994355E+04   -0.19381E-02   -0.28924E-02  5046   0.107E-01    0.210E-01
RMM:   4    -0.231086007572E+04   -0.13217E-03   -0.33348E-03  5180   0.242E-02    0.208E-01
RMM:   5    -0.231085964086E+04    0.43486E-03   -0.59630E-04  4620   0.160E-02    0.699E-02
RMM:   6    -0.231085958503E+04    0.55832E-04   -0.30667E-04  4563   0.135E-02    0.184E-02
RMM:   7    -0.231085958260E+04    0.24276E-05   -0.37579E-05  2997   0.774E-03
  46 F= -.23312857E+04 E0= -.23312857E+04  d E =-.906890E-02  mag=     4.0000
       N       E                     dE             d eps       ncg     rms          rms(c)
DAV:   1    -0.231082240020E+04    0.37185E-01   -0.39800E+00  4464   0.201E+00    0.527E-01
RMM:   2    -0.231086040485E+04   -0.38005E-01   -0.40110E-01  5681   0.363E-01    0.256E-01
RMM:   3    -0.231086258414E+04   -0.21793E-02   -0.33747E-02  5028   0.115E-01    0.213E-01
RMM:   4    -0.231086280823E+04   -0.22409E-03   -0.39994E-03  5243   0.267E-02    0.239E-01
RMM:   5    -0.231086225735E+04    0.55087E-03   -0.73653E-04  4708   0.174E-02    0.772E-02
RMM:   6    -0.231086217924E+04    0.78113E-04   -0.36393E-04  4651   0.142E-02    0.206E-02
RMM:   7    -0.231086217206E+04    0.71846E-05   -0.43831E-05  3055   0.850E-03
  47 F= -.23312878E+04 E0= -.23312878E+04  d E =-.111373E-01  mag=     4.0000
       N       E                     dE             d eps       ncg     rms          rms(c)
DAV:   1    -0.231084581353E+04    0.16366E-01   -0.26330E+00  4512   0.160E+00    0.389E-01
RMM:   2    -0.231086822500E+04   -0.22411E-01   -0.23510E-01  5682   0.285E-01    0.219E-01
RMM:   3    -0.231086978803E+04   -0.15630E-02   -0.20574E-02  5038   0.857E-02    0.275E-01
RMM:   4    -0.231086953251E+04    0.25552E-03   -0.23619E-03  4755   0.199E-02    0.134E-01
RMM:   5    -0.231086928128E+04    0.25122E-03   -0.49905E-04  4432   0.145E-02    0.579E-02
RMM:   6    -0.231086925716E+04    0.24120E-04   -0.20951E-04  4162   0.122E-02    0.178E-02
RMM:   7    -0.231086925867E+04   -0.15057E-05   -0.26362E-05  2935   0.594E-03
  48 F= -.23312942E+04 E0= -.23312942E+04  d E =-.647460E-02  mag=     4.0000
       N       E                     dE             d eps       ncg     rms          rms(c)
DAV:   1    -0.231077817366E+04    0.91084E-01   -0.10918E+01  4464   0.325E+00    0.790E-01
RMM:   2    -0.231087107189E+04   -0.92898E-01   -0.97530E-01  5647   0.577E-01    0.424E-01
RMM:   3    -0.231087681228E+04   -0.57404E-02   -0.83873E-02  4995   0.179E-01    0.431E-01
RMM:   4    -0.231087670702E+04    0.10526E-03   -0.97395E-03  5708   0.403E-02    0.323E-01
RMM:   5    -0.231087551143E+04    0.11956E-02   -0.18805E-03  4709   0.258E-02    0.118E-01
RMM:   6    -0.231087537530E+04    0.13613E-03   -0.92550E-04  4871   0.221E-02    0.290E-02
RMM:   7    -0.231087537667E+04   -0.13760E-05   -0.76841E-05  3445   0.100E-02
  49 F= -.23312990E+04 E0= -.23312990E+04  d E =-.112931E-01  mag=     4.0000
       N       E                     dE             d eps       ncg     rms          rms(c)
DAV:   1    -0.231087489860E+04    0.47670E-03   -0.10284E+00  4512   0.101E+00    0.304E-01
RMM:   2    -0.231088169065E+04   -0.67920E-02   -0.74370E-02  5661   0.189E-01    0.179E-01
RMM:   3    -0.231088221737E+04   -0.52673E-03   -0.64447E-03  5147   0.578E-02    0.276E-01
RMM:   4    -0.231088170438E+04    0.51299E-03   -0.96321E-04  4751   0.168E-02    0.837E-02
RMM:   5    -0.231088157077E+04    0.13361E-03   -0.39051E-04  4665   0.146E-02    0.312E-02
RMM:   6    -0.231088155449E+04    0.16283E-04   -0.88789E-05  3989   0.959E-03    0.123E-02
RMM:   7    -0.231088154876E+04    0.57341E-05   -0.17071E-05  2939   0.405E-03
  50 F= -.23313049E+04 E0= -.23313049E+04  d E =-.582694E-02  mag=     4.0000
       N       E                     dE             d eps       ncg     rms          rms(c)
DAV:   1    -0.231088050602E+04    0.10485E-02   -0.29343E-01  4544   0.541E-01    0.162E-01
RMM:   2    -0.231088242339E+04   -0.19174E-02   -0.21152E-02  5719   0.102E-01    0.933E-02
RMM:   3    -0.231088256597E+04   -0.14257E-03   -0.18660E-03  4838   0.342E-02    0.143E-01
RMM:   4    -0.231088242566E+04    0.14031E-03   -0.26851E-04  3339   0.958E-03    0.457E-02
RMM:   5    -0.231088237741E+04    0.48245E-04   -0.11996E-04  4028   0.876E-03    0.173E-02
RMM:   6    -0.231088236994E+04    0.74779E-05   -0.28327E-05  2922   0.702E-03
  51 F= -.23313055E+04 E0= -.23313055E+04  d E =-.646241E-02  mag=     4.0000
       N       E                     dE             d eps       ncg     rms          rms(c)
DAV:   1    -0.231087932465E+04    0.30528E-02   -0.80292E-01  4416   0.897E-01    0.248E-01
RMM:   2    -0.231088677411E+04   -0.74495E-02   -0.77918E-02  5731   0.168E-01    0.233E-01
RMM:   3    -0.231088725514E+04   -0.48103E-03   -0.70945E-03  5140   0.569E-02    0.252E-01
RMM:   4    -0.231088684515E+04    0.40999E-03   -0.92956E-04  4373   0.146E-02    0.635E-02
RMM:   5    -0.231088677629E+04    0.68858E-04   -0.18440E-04  4010   0.103E-02    0.312E-02
RMM:   6    -0.231088676626E+04    0.10034E-04   -0.73958E-05  3658   0.810E-03    0.140E-02
RMM:   7    -0.231088676507E+04    0.11910E-05   -0.14490E-05  2867   0.565E-03
  52 F= -.23313098E+04 E0= -.23313098E+04  d E =-.429719E-02  mag=     4.0000
       N       E                     dE             d eps       ncg     rms          rms(c)
DAV:   1    -0.231087723495E+04    0.95313E-02   -0.12338E+00  4416   0.111E+00    0.308E-01
RMM:   2    -0.231088869686E+04   -0.11462E-01   -0.11989E-01  5723   0.209E-01    0.291E-01
RMM:   3    -0.231088941153E+04   -0.71468E-03   -0.10828E-02  5266   0.680E-02    0.310E-01
RMM:   4    -0.231088878539E+04    0.62614E-03   -0.14272E-03  4845   0.179E-02    0.788E-02
RMM:   5    -0.231088867240E+04    0.11299E-03   -0.27931E-04  4184   0.123E-02    0.389E-02
RMM:   6    -0.231088865079E+04    0.21613E-04   -0.11579E-04  4018   0.975E-03    0.182E-02
RMM:   7    -0.231088864665E+04    0.41458E-05   -0.21614E-05  2895   0.619E-03
  53 F= -.23313116E+04 E0= -.23313116E+04  d E =-.604978E-02  mag=     4.0000
       N       E                     dE             d eps       ncg     rms          rms(c)
DAV:   1    -0.231087665145E+04    0.11999E-01   -0.13350E+00  4448   0.119E+00    0.343E-01
RMM:   2    -0.231089289349E+04   -0.16242E-01   -0.16775E-01  5692   0.227E-01    0.304E-01
RMM:   3    -0.231089389808E+04   -0.10046E-02   -0.13466E-02  5255   0.705E-02    0.342E-01
RMM:   4    -0.231089312055E+04    0.77753E-03   -0.17955E-03  4842   0.190E-02    0.895E-02
RMM:   5    -0.231089296256E+04    0.15799E-03   -0.35181E-04  4254   0.125E-02    0.460E-02
RMM:   6    -0.231089292696E+04    0.35604E-04   -0.17874E-04  4162   0.108E-02    0.173E-02
RMM:   7    -0.231089292485E+04    0.21082E-05   -0.24749E-05  2899   0.706E-03
  54 F= -.23313156E+04 E0= -.23313156E+04  d E =-.404775E-02  mag=     4.0000
       N       E                     dE             d eps       ncg     rms          rms(c)
DAV:   1    -0.231087474339E+04    0.18184E-01   -0.15191E+00  4440   0.127E+00    0.366E-01
RMM:   2    -0.231089326505E+04   -0.18522E-01   -0.19121E-01  5684   0.242E-01    0.329E-01
RMM:   3    -0.231089438859E+04   -0.11235E-02   -0.15273E-02  5256   0.754E-02    0.368E-01
RMM:   4    -0.231089348658E+04    0.90201E-03   -0.20441E-03  4965   0.203E-02    0.955E-02
RMM:   5    -0.231089330395E+04    0.18263E-03   -0.40313E-04  4329   0.133E-02    0.489E-02
RMM:   6    -0.231089326138E+04    0.42568E-04   -0.20050E-04  4246   0.114E-02    0.182E-02
RMM:   7    -0.231089325880E+04    0.25816E-05   -0.26942E-05  2923   0.726E-03
  55 F= -.23313157E+04 E0= -.23313157E+04  d E =-.412608E-02  mag=     4.0000
       N       E                     dE             d eps       ncg     rms          rms(c)
DAV:   1    -0.231088996104E+04    0.33003E-02   -0.30138E-01  4592   0.565E-01    0.163E-01
RMM:   2    -0.231089357588E+04   -0.36148E-02   -0.37490E-02  5777   0.108E-01    0.137E-01
RMM:   3    -0.231089385774E+04   -0.28186E-03   -0.33832E-03  4742   0.376E-02    0.167E-01
RMM:   4    -0.231089367710E+04    0.18063E-03   -0.40894E-04  3151   0.952E-03    0.439E-02
RMM:   5    -0.231089364327E+04    0.33835E-04   -0.90617E-05  3078   0.671E-03    0.235E-02
RMM:   6    -0.231089363568E+04    0.75868E-05   -0.48289E-05  3073   0.625E-03
  56 F= -.23313162E+04 E0= -.23313162E+04  d E =-.461796E-02  mag=     4.0000
       N       E                     dE             d eps       ncg     rms          rms(c)
DAV:   1    -0.231087690268E+04    0.16741E-01   -0.15159E+00  4416   0.128E+00    0.381E-01
RMM:   2    -0.231089664082E+04   -0.19738E-01   -0.20620E-01  5715   0.243E-01    0.292E-01
RMM:   3    -0.231089812365E+04   -0.14828E-02   -0.17703E-02  5210   0.913E-02    0.361E-01
RMM:   4    -0.231089729163E+04    0.83202E-03   -0.21268E-03  5083   0.208E-02    0.998E-02
RMM:   5    -0.231089709747E+04    0.19416E-03   -0.45549E-04  4413   0.136E-02    0.563E-02
RMM:   6    -0.231089703430E+04    0.63174E-04   -0.25460E-04  4466   0.117E-02    0.296E-02
RMM:   7    -0.231089702252E+04    0.11779E-04   -0.33457E-05  2972   0.789E-03    0.916E-03
RMM:   8    -0.231089701907E+04    0.34447E-05   -0.13277E-05  2859   0.353E-03
  57 F= -.23313194E+04 E0= -.23313194E+04  d E =-.324657E-02  mag=     4.0000
       N       E                     dE             d eps       ncg     rms          rms(c)
DAV:   1    -0.231089675361E+04    0.26891E-03   -0.23268E-02  5160   0.159E-01    0.471E-02
RMM:   2    -0.231089705799E+04   -0.30438E-03   -0.31935E-03  5859   0.321E-02    0.354E-02
RMM:   3    -0.231089708155E+04   -0.23559E-04   -0.28362E-04  2976   0.116E-02    0.449E-02
RMM:   4    -0.231089706866E+04    0.12891E-04   -0.34506E-05  2862   0.362E-03    0.133E-02
RMM:   5    -0.231089706500E+04    0.36532E-05   -0.80823E-06  2842   0.227E-03
  58 F= -.23313195E+04 E0= -.23313195E+04  d E =-.327501E-02  mag=     4.0000
       N       E                     dE             d eps       ncg     rms          rms(c)
DAV:   1    -0.231089493473E+04    0.21339E-02   -0.55219E-01  4448   0.794E-01    0.214E-01
RMM:   2    -0.231089939845E+04   -0.44637E-02   -0.47695E-02  5437   0.141E-01    0.123E-01
RMM:   3    -0.231089972215E+04   -0.32370E-03   -0.41892E-03  4938   0.480E-02    0.170E-01
RMM:   4    -0.231089955254E+04    0.16961E-03   -0.51820E-04  3987   0.117E-02    0.617E-02
RMM:   5    -0.231089949813E+04    0.54408E-04   -0.15392E-04  4083   0.999E-03    0.332E-02
RMM:   6    -0.231089948828E+04    0.98562E-05   -0.63930E-05  3524   0.752E-03
  59 F= -.23313217E+04 E0= -.23313217E+04  d E =-.229078E-02  mag=     4.0000
       N       E                     dE             d eps       ncg     rms          rms(c)
DAV:   1    -0.231089816841E+04    0.13297E-02   -0.20289E-01  4480   0.481E-01    0.130E-01
RMM:   2    -0.231089981309E+04   -0.16447E-02   -0.17665E-02  5824   0.878E-02    0.703E-02
RMM:   3    -0.231089993274E+04   -0.11965E-03   -0.15712E-03  4713   0.316E-02    0.965E-02
RMM:   4    -0.231089987970E+04    0.53042E-04   -0.18719E-04  2937   0.772E-03    0.386E-02
RMM:   5    -0.231089985751E+04    0.22190E-04   -0.60788E-05  3124   0.637E-03    0.187E-02
RMM:   6    -0.231089985328E+04    0.42278E-05   -0.23141E-05  2881   0.553E-03
  60 F= -.23313220E+04 E0= -.23313220E+04  d E =-.257477E-02  mag=     4.0000
       N       E                     dE             d eps       ncg     rms          rms(c)
DAV:   1    -0.231090017577E+04   -0.31826E-03   -0.33139E-01  4416   0.598E-01    0.129E-01
RMM:   2    -0.231090189837E+04   -0.17226E-02   -0.18267E-02  5510   0.101E-01    0.875E-02
RMM:   3    -0.231090200770E+04   -0.10933E-03   -0.15226E-03  4719   0.390E-02    0.120E-01
RMM:   4    -0.231090191586E+04    0.91845E-04   -0.19386E-04  3143   0.868E-03    0.411E-02
RMM:   5    -0.231090189013E+04    0.25724E-04   -0.87395E-05  3548   0.773E-03    0.170E-02
RMM:   6    -0.231090188997E+04    0.16646E-06   -0.22497E-05  2886   0.614E-03
  61 F= -.23313238E+04 E0= -.23313238E+04  d E =-.179712E-02  mag=     4.0000
       N       E                     dE             d eps       ncg     rms          rms(c)
DAV:   1    -0.231089613665E+04    0.57535E-02   -0.14681E+00  4432   0.126E+00    0.273E-01
RMM:   2    -0.231090385853E+04   -0.77219E-02   -0.81542E-02  5330   0.211E-01    0.194E-01
RMM:   3    -0.231090426741E+04   -0.40888E-03   -0.64743E-03  4973   0.682E-02    0.254E-01
RMM:   4    -0.231090384436E+04    0.42305E-03   -0.86275E-04  5016   0.166E-02    0.860E-02
RMM:   5    -0.231090372428E+04    0.12008E-03   -0.37264E-04  4572   0.144E-02    0.364E-02
RMM:   6    -0.231090371916E+04    0.51150E-05   -0.92996E-05  3885   0.101E-02
  62 F= -.23313251E+04 E0= -.23313251E+04  d E =-.311427E-02  mag=     4.0000
       N       E                     dE             d eps       ncg     rms          rms(c)
DAV:   1    -0.231090319476E+04    0.52952E-03   -0.43460E-01  4416   0.699E-01    0.157E-01
RMM:   2    -0.231090586136E+04   -0.26666E-02   -0.28129E-02  5609   0.121E-01    0.103E-01
RMM:   3    -0.231090606022E+04   -0.19886E-03   -0.24657E-03  4895   0.447E-02    0.149E-01
RMM:   4    -0.231090592067E+04    0.13955E-03   -0.30989E-04  3342   0.101E-02    0.463E-02
RMM:   5    -0.231090588494E+04    0.35731E-04   -0.96814E-05  3895   0.853E-03    0.201E-02
RMM:   6    -0.231090588257E+04    0.23681E-05   -0.28962E-05  2910   0.663E-03
  63 F= -.23313271E+04 E0= -.23313271E+04  d E =-.195998E-02  mag=     4.0000
       N       E                     dE             d eps       ncg     rms          rms(c)
DAV:   1    -0.231089807389E+04    0.78110E-02   -0.15594E+00  4400   0.132E+00    0.296E-01
RMM:   2    -0.231090761128E+04   -0.95374E-02   -0.10069E-01  5418   0.227E-01    0.194E-01
RMM:   3    -0.231090825207E+04   -0.64079E-03   -0.85707E-03  4988   0.808E-02    0.276E-01
RMM:   4    -0.231090777506E+04    0.47701E-03   -0.11103E-03  5139   0.182E-02    0.881E-02
RMM:   5    -0.231090763568E+04    0.13938E-03   -0.34466E-04  4652   0.147E-02    0.387E-02
RMM:   6    -0.231090762031E+04    0.15362E-04   -0.11044E-04  4160   0.103E-02    0.175E-02
RMM:   7    -0.231090761616E+04    0.41567E-05   -0.16204E-05  2871   0.470E-03
  64 F= -.23313284E+04 E0= -.23313284E+04  d E =-.330550E-02  mag=     4.0000
       N       E                     dE             d eps       ncg     rms          rms(c)
DAV:   1    -0.231090375173E+04    0.38686E-02   -0.73188E-01  4440   0.912E-01    0.222E-01
RMM:   2    -0.231090990496E+04   -0.61532E-02   -0.65027E-02  5584   0.164E-01    0.121E-01
RMM:   3    -0.231091025224E+04   -0.34728E-03   -0.49058E-03  4964   0.544E-02    0.161E-01
RMM:   4    -0.231091012114E+04    0.13110E-03   -0.62906E-04  3871   0.125E-02    0.685E-02
RMM:   5    -0.231091004519E+04    0.75948E-04   -0.17009E-04  4156   0.102E-02    0.325E-02
RMM:   6    -0.231091003330E+04    0.11885E-04   -0.61462E-05  3419   0.779E-03    0.130E-02
RMM:   7    -0.231091003208E+04    0.12285E-05   -0.12383E-05  2838   0.547E-03
  65 F= -.23313307E+04 E0= -.23313307E+04  d E =-.223499E-02  mag=     4.0000
       N       E                     dE             d eps       ncg     rms          rms(c)
DAV:   1    -0.231090444887E+04    0.55844E-02   -0.74715E-01  4440   0.921E-01    0.225E-01
RMM:   2    -0.231091071363E+04   -0.62648E-02   -0.66282E-02  5588   0.166E-01    0.121E-01
RMM:   3    -0.231091106129E+04   -0.34766E-03   -0.50064E-03  4928   0.561E-02    0.159E-01
RMM:   4    -0.231091093770E+04    0.12358E-03   -0.64015E-04  3915   0.126E-02    0.701E-02
RMM:   5    -0.231091085690E+04    0.80808E-04   -0.17404E-04  4165   0.103E-02    0.332E-02
RMM:   6    -0.231091084248E+04    0.14412E-04   -0.64692E-05  3473   0.785E-03    0.135E-02
RMM:   7    -0.231091084041E+04    0.20761E-05   -0.12936E-05  2842   0.552E-03
  66 F= -.23313313E+04 E0= -.23313313E+04  d E =-.285791E-02  mag=     4.0000
       N       E                     dE             d eps       ncg     rms          rms(c)
DAV:   1    -0.231090620003E+04    0.46425E-02   -0.73741E-01  4432   0.915E-01    0.224E-01
RMM:   2    -0.231091256312E+04   -0.63631E-02   -0.67168E-02  5512   0.163E-01    0.124E-01
RMM:   3    -0.231091289258E+04   -0.32946E-03   -0.50051E-03  4951   0.543E-02    0.156E-01
RMM:   4    -0.231091276073E+04    0.13185E-03   -0.61692E-04  3854   0.121E-02    0.732E-02
RMM:   5    -0.231091267415E+04    0.86586E-04   -0.17477E-04  4144   0.103E-02    0.298E-02
RMM:   6    -0.231091266323E+04    0.10923E-04   -0.69265E-05  3436   0.796E-03    0.931E-03
RMM:   7    -0.231091266265E+04    0.57933E-06   -0.12666E-05  2838   0.553E-03
  67 F= -.23313331E+04 E0= -.23313331E+04  d E =-.180918E-02  mag=     4.0000
       N       E                     dE             d eps       ncg     rms          rms(c)
DAV:   1    -0.231090917206E+04    0.34912E-02   -0.43705E-01  4480   0.704E-01    0.173E-01
RMM:   2    -0.231091294723E+04   -0.37752E-02   -0.39853E-02  5491   0.125E-01    0.983E-02
RMM:   3    -0.231091315861E+04   -0.21138E-03   -0.30562E-03  4818   0.435E-02    0.129E-01
RMM:   4    -0.231091306361E+04    0.95003E-04   -0.36977E-04  3262   0.970E-03    0.557E-02
RMM:   5    -0.231091301075E+04    0.52861E-04   -0.11046E-04  3570   0.820E-03    0.239E-02
RMM:   6    -0.231091300198E+04    0.87680E-05   -0.44995E-05  3083   0.682E-03
  68 F= -.23313334E+04 E0= -.23313334E+04  d E =-.213934E-02  mag=     4.0000
       N       E                     dE             d eps       ncg     rms          rms(c)
DAV:   1    -0.231090912200E+04    0.38887E-02   -0.61944E-01  4416   0.839E-01    0.204E-01
RMM:   2    -0.231091476206E+04   -0.56401E-02   -0.58116E-02  5399   0.148E-01    0.199E-01
RMM:   3    -0.231091509538E+04   -0.33332E-03   -0.50388E-03  4904   0.552E-02    0.205E-01
RMM:   4    -0.231091482107E+04    0.27431E-03   -0.60860E-04  4004   0.123E-02    0.577E-02
RMM:   5    -0.231091476737E+04    0.53696E-04   -0.13629E-04  3813   0.917E-03    0.280E-02
RMM:   6    -0.231091476117E+04    0.62029E-05   -0.63164E-05  3471   0.757E-03
  69 F= -.23313354E+04 E0= -.23313354E+04  d E =-.190534E-02  mag=     4.0000
       N       E                     dE             d eps       ncg     rms          rms(c)
DAV:   1    -0.231089132441E+04    0.23443E-01   -0.27130E+00  4432   0.176E+00    0.425E-01
RMM:   2    -0.231091593762E+04   -0.24613E-01   -0.25436E-01  5425   0.306E-01    0.397E-01
RMM:   3    -0.231091740953E+04   -0.14719E-02   -0.20167E-02  5015   0.111E-01    0.436E-01
RMM:   4    -0.231091615088E+04    0.12587E-02   -0.26067E-03  5499   0.255E-02    0.119E-01
RMM:   5    -0.231091591927E+04    0.23161E-03   -0.57952E-04  4835   0.168E-02    0.566E-02
RMM:   6    -0.231091588501E+04    0.34260E-04   -0.22170E-04  4445   0.130E-02    0.147E-02
RMM:   7    -0.231091588586E+04   -0.84746E-06   -0.22894E-05  2928   0.623E-03
  70 F= -.23313368E+04 E0= -.23313368E+04  d E =-.333833E-02  mag=     4.0000
       N       E                     dE             d eps       ncg     rms          rms(c)
DAV:   1    -0.231091263130E+04    0.32537E-02   -0.64263E-01  4448   0.853E-01    0.206E-01
RMM:   2    -0.231091800451E+04   -0.53732E-02   -0.53752E-02  5427   0.149E-01    0.256E-01
RMM:   3    -0.231091803595E+04   -0.31438E-04   -0.46063E-03  4945   0.494E-02    0.182E-01
RMM:   4    -0.231091781420E+04    0.22175E-03   -0.56921E-04  4362   0.122E-02    0.559E-02
RMM:   5    -0.231091775773E+04    0.56466E-04   -0.12979E-04  4012   0.936E-03    0.264E-02
RMM:   6    -0.231091775399E+04    0.37361E-05   -0.57001E-05  3402   0.774E-03
  71 F= -.23313387E+04 E0= -.23313387E+04  d E =-.191006E-02  mag=     4.0000
       N       E                     dE             d eps       ncg     rms          rms(c)
DAV:   1    -0.231089323972E+04    0.24518E-01   -0.32398E+00  4432   0.192E+00    0.460E-01
RMM:   2    -0.231091994662E+04   -0.26707E-01   -0.26940E-01  5376   0.332E-01    0.539E-01
RMM:   3    -0.231092041516E+04   -0.46854E-03   -0.22439E-02  5010   0.118E-01    0.420E-01
RMM:   4    -0.231091922770E+04    0.11875E-02   -0.28376E-03  5503   0.273E-02    0.125E-01
RMM:   5    -0.231091894011E+04    0.28759E-03   -0.62770E-04  4923   0.186E-02    0.579E-02
RMM:   6    -0.231091890852E+04    0.31586E-04   -0.25747E-04  4622   0.141E-02    0.200E-02
RMM:   7    -0.231091890577E+04    0.27506E-05   -0.27393E-05  3017   0.587E-03
  72 F= -.23313399E+04 E0= -.23313399E+04  d E =-.315761E-02  mag=     4.0000
       N       E                     dE             d eps       ncg     rms          rms(c)
DAV:   1    -0.231091404503E+04    0.48635E-02   -0.10477E+00  4440   0.109E+00    0.245E-01
RMM:   2    -0.231092141045E+04   -0.73654E-02   -0.72776E-02  5334   0.186E-01    0.312E-01
RMM:   3    -0.231092131955E+04    0.90902E-04   -0.59497E-03  4935   0.608E-02    0.212E-01
RMM:   4    -0.231092100773E+04    0.31182E-03   -0.76570E-04  4956   0.149E-02    0.697E-02
RMM:   5    -0.231092091971E+04    0.88013E-04   -0.19851E-04  4273   0.118E-02    0.313E-02
RMM:   6    -0.231092091779E+04    0.19193E-05   -0.74253E-05  3672   0.921E-03
  73 F= -.23313420E+04 E0= -.23313420E+04  d E =-.206192E-02  mag=     4.0000
       N       E                     dE             d eps       ncg     rms          rms(c)
DAV:   1    -0.231087897330E+04    0.41946E-01   -0.65324E+00  4432   0.273E+00    0.608E-01
RMM:   2    -0.231092435506E+04   -0.45382E-01   -0.45238E-01  5284   0.462E-01    0.733E-01
RMM:   3    -0.231092440029E+04   -0.45233E-04   -0.36085E-02  4938   0.161E-01    0.546E-01
RMM:   4    -0.231092231324E+04    0.20870E-02   -0.47354E-03  5591   0.376E-02    0.173E-01
RMM:   5    -0.231092176123E+04    0.55201E-03   -0.12559E-03  4795   0.269E-02    0.764E-02
RMM:   6    -0.231092172792E+04    0.33318E-04   -0.42813E-04  4898   0.198E-02    0.233E-02
RMM:   7    -0.231092172891E+04   -0.99494E-06   -0.43998E-05  3194   0.632E-03
  74 F= -.23313429E+04 E0= -.23313429E+04  d E =-.300211E-02  mag=     4.0000
       N       E                     dE             d eps       ncg     rms          rms(c)
DAV:   1    -0.231091878742E+04    0.29405E-02   -0.50646E-01  4496   0.761E-01    0.169E-01
RMM:   2    -0.231092233591E+04   -0.35485E-02   -0.35149E-02  5370   0.131E-01    0.216E-01
RMM:   3    -0.231092228076E+04    0.55155E-04   -0.29163E-03  4886   0.472E-02    0.143E-01
RMM:   4    -0.231092214136E+04    0.13940E-03   -0.36470E-04  3817   0.108E-02    0.487E-02
RMM:   5    -0.231092209764E+04    0.43719E-04   -0.10170E-04  3962   0.891E-03    0.211E-02
RMM:   6    -0.231092209668E+04    0.95915E-06   -0.35196E-05  2924   0.711E-03
  75 F= -.23313433E+04 E0= -.23313433E+04  d E =-.333333E-02  mag=     4.0000
       N       E                     dE             d eps       ncg     rms          rms(c)
DAV:   1    -0.231091677372E+04    0.53239E-02   -0.14077E+00  4432   0.127E+00    0.277E-01
RMM:   2    -0.231092551985E+04   -0.87461E-02   -0.88265E-02  5323   0.213E-01    0.301E-01
RMM:   3    -0.231092569894E+04   -0.17909E-03   -0.74644E-03  4985   0.785E-02    0.264E-01
RMM:   4    -0.231092520347E+04    0.49547E-03   -0.93216E-04  5166   0.177E-02    0.805E-02
RMM:   5    -0.231092508020E+04    0.12327E-03   -0.27903E-04  4538   0.138E-02    0.335E-02
RMM:   6    -0.231092507423E+04    0.59702E-05   -0.86791E-05  4002   0.999E-03
  76 F= -.23313465E+04 E0= -.23313465E+04  d E =-.319430E-02  mag=     4.0000
       N       E                     dE             d eps       ncg     rms          rms(c)
DAV:   1    -0.231085127036E+04    0.73810E-01   -0.12637E+01  4432   0.382E+00    0.832E-01
RMM:   2    -0.231092977699E+04   -0.78507E-01   -0.79691E-01  5223   0.631E-01    0.847E-01
RMM:   3    -0.231093206750E+04   -0.22905E-02   -0.62860E-02  4979   0.213E-01    0.820E-01
RMM:   4    -0.231092727615E+04    0.47914E-02   -0.81476E-03  5606   0.515E-02    0.242E-01
RMM:   5    -0.231092627302E+04    0.10031E-02   -0.23040E-03  4801   0.367E-02    0.106E-01
RMM:   6    -0.231092618448E+04    0.88533E-04   -0.85456E-04  4966   0.267E-02    0.293E-02
RMM:   7    -0.231092618244E+04    0.20429E-05   -0.76379E-05  3720   0.847E-03
  77 F= -.23313482E+04 E0= -.23313482E+04  d E =-.496371E-02  mag=     4.0000
       N       E                     dE             d eps       ncg     rms          rms(c)
DAV:   1    -0.231091928983E+04    0.68947E-02   -0.13214E+00  4432   0.123E+00    0.269E-01
RMM:   2    -0.231092759925E+04   -0.83094E-02   -0.83677E-02  5348   0.208E-01    0.302E-01
RMM:   3    -0.231092768756E+04   -0.88306E-04   -0.69446E-03  5042   0.724E-02    0.253E-01
RMM:   4    -0.231092724108E+04    0.44648E-03   -0.84412E-04  5076   0.170E-02    0.786E-02
RMM:   5    -0.231092713362E+04    0.10745E-03   -0.27546E-04  4481   0.135E-02    0.323E-02
RMM:   6    -0.231092713285E+04    0.77112E-06   -0.82576E-05  3829   0.962E-03
  78 F= -.23313490E+04 E0= -.23313490E+04  d E =-.569852E-02  mag=     4.0000
       N       E                     dE             d eps       ncg     rms          rms(c)
DAV:   1    -0.231092341983E+04    0.37138E-02   -0.11634E+00  4432   0.115E+00    0.236E-01
RMM:   2    -0.231093023274E+04   -0.68129E-02   -0.69174E-02  5308   0.191E-01    0.250E-01
RMM:   3    -0.231093039171E+04   -0.15897E-03   -0.57173E-03  5009   0.691E-02    0.228E-01
RMM:   4    -0.231093002475E+04    0.36696E-03   -0.71406E-04  4940   0.155E-02    0.749E-02
RMM:   5    -0.231092992120E+04    0.10354E-03   -0.23291E-04  4363   0.126E-02    0.296E-02
RMM:   6    -0.231092991806E+04    0.31386E-05   -0.68433E-05  3524   0.940E-03
  79 F= -.23313519E+04 E0= -.23313519E+04  d E =-.289541E-02  mag=     4.0000
       N       E                     dE             d eps       ncg     rms          rms(c)
DAV:   1    -0.231087454362E+04    0.55378E-01   -0.10440E+01  4432   0.345E+00    0.713E-01
RMM:   2    -0.231093560381E+04   -0.61060E-01   -0.62157E-01  5256   0.569E-01    0.719E-01
RMM:   3    -0.231093760142E+04   -0.19976E-02   -0.52484E-02  5001   0.190E-01    0.699E-01
RMM:   4    -0.231093418032E+04    0.34211E-02   -0.66544E-03  5699   0.453E-02    0.224E-01
RMM:   5    -0.231093333945E+04    0.84088E-03   -0.19354E-03  4716   0.333E-02    0.900E-02
RMM:   6    -0.231093330282E+04    0.36630E-04   -0.59159E-04  4799   0.237E-02    0.286E-02
RMM:   7    -0.231093330307E+04   -0.25402E-06   -0.67955E-05  3432   0.760E-03
  80 F= -.23313556E+04 E0= -.23313556E+04  d E =-.662049E-02  mag=     4.0000
       N       E                     dE             d eps       ncg     rms          rms(c)
DAV:   1    -0.231092985449E+04    0.34483E-02   -0.13165E+00  4472   0.122E+00    0.271E-01
RMM:   2    -0.231093684054E+04   -0.69861E-02   -0.71634E-02  5218   0.203E-01    0.257E-01
RMM:   3    -0.231093707767E+04   -0.23714E-03   -0.60663E-03  4952   0.726E-02    0.269E-01
RMM:   4    -0.231093656137E+04    0.51631E-03   -0.85433E-04  5101   0.173E-02    0.805E-02
RMM:   5    -0.231093645360E+04    0.10777E-03   -0.32059E-04  4619   0.145E-02    0.295E-02
RMM:   6    -0.231093645358E+04    0.21959E-07   -0.75413E-05  3782   0.952E-03
  81 F= -.23313587E+04 E0= -.23313587E+04  d E =-.314159E-02  mag=     4.0000
       N       E                     dE             d eps       ncg     rms          rms(c)
DAV:   1    -0.231092190257E+04    0.14551E-01   -0.31550E+00  4432   0.189E+00    0.417E-01
RMM:   2    -0.231093849842E+04   -0.16596E-01   -0.17067E-01  5216   0.314E-01    0.392E-01
RMM:   3    -0.231093908895E+04   -0.59053E-03   -0.14460E-02  4969   0.111E-01    0.414E-01
RMM:   4    -0.231093785616E+04    0.12328E-02   -0.19996E-03  5498   0.266E-02    0.125E-01
RMM:   5    -0.231093758469E+04    0.27146E-03   -0.75885E-04  4852   0.213E-02    0.447E-02
RMM:   6    -0.231093757554E+04    0.91497E-05   -0.16680E-04  4318   0.133E-02    0.170E-02
RMM:   7    -0.231093757256E+04    0.29833E-05   -0.22618E-05  3011   0.466E-03
  82 F= -.23313598E+04 E0= -.23313598E+04  d E =-.424838E-02  mag=     4.0000
       N       E                     dE             d eps       ncg     rms          rms(c)
DAV:   1    -0.231093698335E+04    0.59219E-03   -0.14988E-01  4656   0.411E-01    0.895E-02
RMM:   2    -0.231093775589E+04   -0.77254E-03   -0.80151E-03  5393   0.690E-02    0.805E-02
RMM:   3    -0.231093779066E+04   -0.34771E-04   -0.70477E-04  4352   0.273E-02    0.891E-02
RMM:   4    -0.231093773397E+04    0.56691E-04   -0.90158E-05  2933   0.648E-03    0.274E-02
RMM:   5    -0.231093772232E+04    0.11657E-04   -0.38006E-05  2970   0.558E-03    0.956E-03
RMM:   6    -0.231093772299E+04   -0.67116E-06   -0.10080E-05  2845   0.448E-03
  83 F= -.23313600E+04 E0= -.23313600E+04  d E =-.440133E-02  mag=     4.0000
       N       E                     dE             d eps       ncg     rms          rms(c)
DAV:   1    -0.231093030010E+04    0.74222E-02   -0.17544E+00  4432   0.141E+00    0.308E-01
RMM:   2    -0.231094086945E+04   -0.10569E-01   -0.10969E-01  5267   0.235E-01    0.280E-01
RMM:   3    -0.231094133196E+04   -0.46251E-03   -0.91455E-03  4979   0.823E-02    0.294E-01
RMM:   4    -0.231094074636E+04    0.58559E-03   -0.12276E-03  5262   0.195E-02    0.984E-02
RMM:   5    -0.231094059350E+04    0.15286E-03   -0.39186E-04  4668   0.157E-02    0.399E-02
RMM:   6    -0.231094058723E+04    0.62776E-05   -0.11873E-04  4139   0.107E-02    0.180E-02
[...]
RMM:   3    -0.231098411162E+04   -0.15789E-07   -0.30633E-05  2868   0.849E-03
 267 F= -.23314439E+04 E0= -.23314439E+04  d E =-.446568E-03  mag=     4.0000
       N       E                     dE             d eps       ncg     rms          rms(c)
DAV:   1    -0.231098370225E+04    0.40935E-03   -0.36030E-01  4400   0.662E-01    0.128E-01
RMM:   2    -0.231098461841E+04   -0.91616E-03   -0.97414E-03  4527   0.953E-02    0.921E-02
RMM:   3    -0.231098461672E+04    0.16828E-05   -0.56445E-04  4536   0.305E-02    0.133E-01
RMM:   4    -0.231098448431E+04    0.13242E-03   -0.14312E-04  3843   0.881E-03    0.359E-02
RMM:   5    -0.231098445609E+04    0.28214E-04   -0.86710E-05  4139   0.936E-03    0.901E-03
RMM:   6    -0.231098445604E+04    0.56170E-07   -0.10113E-05  2819   0.677E-03
 268 F= -.23314443E+04 E0= -.23314443E+04  d E =-.410508E-03  mag=     4.0000
       N       E                     dE             d eps       ncg     rms          rms(c)
DAV:   1    -0.231098442243E+04    0.33666E-04   -0.74192E-03  5016   0.956E-02    0.195E-02
RMM:   2    -0.231098444175E+04   -0.19319E-04   -0.20979E-04  4607   0.151E-02    0.133E-02
RMM:   3    -0.231098444266E+04   -0.91617E-06   -0.16771E-05  2843   0.784E-03
 269 F= -.23314443E+04 E0= -.23314443E+04  d E =-.406730E-03  mag=     4.0000
       N       E                     dE             d eps       ncg     rms          rms(c)
DAV:   1    -0.231098403919E+04    0.40256E-03   -0.35450E-01  4432   0.657E-01    0.128E-01
RMM:   2    -0.231098492518E+04   -0.88599E-03   -0.94552E-03  4559   0.949E-02    0.980E-02
RMM:   3    -0.231098492332E+04    0.18565E-05   -0.55767E-04  4535   0.296E-02    0.137E-01
RMM:   4    -0.231098478272E+04    0.14061E-03   -0.14047E-04  3825   0.898E-03    0.352E-02
RMM:   5    -0.231098475401E+04    0.28703E-04   -0.92286E-05  4175   0.980E-03    0.104E-02
RMM:   6    -0.231098475423E+04   -0.21308E-06   -0.10983E-05  2816   0.690E-03
 270 F= -.23314447E+04 E0= -.23314447E+04  d E =-.395477E-03  mag=     4.0000
       N       E                     dE             d eps       ncg     rms          rms(c)
DAV:   1    -0.231098468864E+04    0.65377E-04   -0.16867E-02  4712   0.144E-01    0.291E-02
RMM:   2    -0.231098473317E+04   -0.44534E-04   -0.46676E-04  4753   0.219E-02    0.234E-02
RMM:   3    -0.231098473412E+04   -0.95069E-06   -0.36436E-05  2920   0.105E-02
 271 F= -.23314447E+04 E0= -.23314447E+04  d E =-.393838E-03  mag=     4.0000
       N       E                     dE             d eps       ncg     rms          rms(c)
DAV:   1    -0.231098450859E+04    0.22458E-03   -0.26243E-01  4432   0.566E-01    0.104E-01
RMM:   2    -0.231098519103E+04   -0.68244E-03   -0.71418E-03  4638   0.818E-02    0.925E-02
RMM:   3    -0.231098516966E+04    0.21371E-04   -0.41941E-04  4499   0.257E-02    0.111E-01
RMM:   4    -0.231098507598E+04    0.93681E-04   -0.85459E-05  3326   0.761E-03    0.299E-02
RMM:   5    -0.231098505701E+04    0.18966E-04   -0.70472E-05  4086   0.853E-03    0.128E-02
RMM:   6    -0.231098505668E+04    0.33254E-06   -0.96503E-06  2818   0.664E-03
 272 F= -.23314451E+04 E0= -.23314451E+04  d E =-.358305E-03  mag=     4.0000
       N       E                     dE             d eps       ncg     rms          rms(c)
DAV:   1    -0.231098492968E+04    0.12733E-03   -0.52361E-02  4496   0.253E-01    0.472E-02
RMM:   2    -0.231098506963E+04   -0.13995E-03   -0.14428E-03  4652   0.370E-02    0.420E-02
RMM:   3    -0.231098506727E+04    0.23601E-05   -0.95533E-05  3663   0.151E-02
 273 F= -.23314451E+04 E0= -.23314451E+04  d E =-.384970E-03  mag=     4.0000
       N       E                     dE             d eps       ncg     rms          rms(c)
DAV:   1    -0.231098477292E+04    0.29671E-03   -0.28760E-01  4432   0.593E-01    0.121E-01
RMM:   2    -0.231098554018E+04   -0.76726E-03   -0.81648E-03  4670   0.871E-02    0.102E-01
RMM:   3    -0.231098552680E+04    0.13379E-04   -0.51786E-04  4599   0.280E-02    0.131E-01
RMM:   4    -0.231098539696E+04    0.12985E-03   -0.12196E-04  3788   0.862E-03    0.326E-02
RMM:   5    -0.231098537456E+04    0.22394E-04   -0.82316E-05  4116   0.922E-03    0.142E-02
RMM:   6    -0.231098537389E+04    0.66946E-06   -0.10868E-05  2823   0.657E-03
 274 F= -.23314455E+04 E0= -.23314455E+04  d E =-.367084E-03  mag=     4.0000
       N       E                     dE             d eps       ncg     rms          rms(c)
DAV:   1    -0.231098533556E+04    0.38997E-04   -0.90360E-03  4968   0.106E-01    0.223E-02
RMM:   2    -0.231098536177E+04   -0.26205E-04   -0.26944E-04  4757   0.169E-02    0.199E-02
RMM:   3    -0.231098536224E+04   -0.47451E-06   -0.23777E-05  2842   0.847E-03
 275 F= -.23314455E+04 E0= -.23314455E+04  d E =-.366248E-03  mag=     4.0000
       N       E                     dE             d eps       ncg     rms          rms(c)
DAV:   1    -0.231098522247E+04    0.13930E-03   -0.17675E-01  4432   0.465E-01    0.977E-02
RMM:   2    -0.231098568414E+04   -0.46167E-03   -0.49300E-03  4651   0.685E-02    0.782E-02
RMM:   3    -0.231098568480E+04   -0.65763E-06   -0.33198E-04  4374   0.231E-02    0.108E-01
RMM:   4    -0.231098559707E+04    0.87735E-04   -0.75407E-05  3099   0.695E-03    0.247E-02
RMM:   5    -0.231098558304E+04    0.14029E-04   -0.52281E-05  3991   0.730E-03    0.114E-02
RMM:   6    -0.231098558239E+04    0.64535E-06   -0.76155E-06  2815   0.572E-03
 276 F= -.23314458E+04 E0= -.23314458E+04  d E =-.306387E-03  mag=     4.0000
       N       E                     dE             d eps       ncg     rms          rms(c)
DAV:   1    -0.231098554324E+04    0.39800E-04   -0.88590E-03  4752   0.104E-01    0.225E-02
RMM:   2    -0.231098556737E+04   -0.24129E-04   -0.25489E-04  4771   0.163E-02    0.183E-02
RMM:   3    -0.231098556813E+04   -0.75994E-06   -0.21873E-05  2843   0.830E-03
 277 F= -.23314458E+04 E0= -.23314458E+04  d E =-.311581E-03  mag=     4.0000
       N       E                     dE             d eps       ncg     rms          rms(c)
DAV:   1    -0.231098546645E+04    0.10092E-03   -0.15400E-01  4432   0.433E-01    0.944E-02
RMM:   2    -0.231098585121E+04   -0.38476E-03   -0.41750E-03  4599   0.635E-02    0.705E-02
RMM:   3    -0.231098585712E+04   -0.59117E-05   -0.26503E-04  4293   0.191E-02    0.105E-01
RMM:   4    -0.231098577543E+04    0.81693E-04   -0.71742E-05  3028   0.666E-03    0.231E-02
RMM:   5    -0.231098576307E+04    0.12358E-04   -0.49786E-05  3956   0.708E-03    0.101E-02
RMM:   6    -0.231098576264E+04    0.43037E-06   -0.66224E-06  2808   0.553E-03
 278 F= -.23314461E+04 E0= -.23314461E+04  d E =-.265940E-03  mag=     4.0000
       N       E                     dE             d eps       ncg     rms          rms(c)
DAV:   1    -0.231098574091E+04    0.22163E-04   -0.40760E-03  5048   0.709E-02    0.159E-02
RMM:   2    -0.231098575153E+04   -0.10629E-04   -0.11340E-04  4469   0.113E-02    0.123E-02
RMM:   3    -0.231098575243E+04   -0.89507E-06   -0.11532E-05  2812   0.637E-03
 279 F= -.23314461E+04 E0= -.23314461E+04  d E =-.267422E-03  mag=     4.0000
       N       E                     dE             d eps       ncg     rms          rms(c)
DAV:   1    -0.231098568770E+04    0.63837E-04   -0.14384E-01  4432   0.418E-01    0.878E-02
RMM:   2    -0.231098603895E+04   -0.35125E-03   -0.38057E-03  4568   0.609E-02    0.670E-02
RMM:   3    -0.231098604109E+04   -0.21449E-05   -0.23141E-04  4165   0.181E-02    0.972E-02
RMM:   4    -0.231098597028E+04    0.70811E-04   -0.63644E-05  2983   0.639E-03    0.222E-02
RMM:   5    -0.231098595826E+04    0.12028E-04   -0.47460E-05  3959   0.687E-03    0.839E-03
RMM:   6    -0.231098595790E+04    0.35904E-06   -0.58515E-06  2798   0.533E-03
 280 F= -.23314463E+04 E0= -.23314463E+04  d E =-.258104E-03  mag=     4.0000
       N       E                     dE             d eps       ncg     rms          rms(c)
DAV:   1    -0.231098593167E+04    0.26585E-04   -0.76098E-03  4808   0.964E-02    0.207E-02
RMM:   2    -0.231098595055E+04   -0.18879E-04   -0.20569E-04  4565   0.147E-02    0.149E-02
RMM:   3    -0.231098595137E+04   -0.82441E-06   -0.16432E-05  2840   0.755E-03
 281 F= -.23314463E+04 E0= -.23314463E+04  d E =-.263750E-03  mag=     4.0000
       N       E                     dE             d eps       ncg     rms          rms(c)
DAV:   1    -0.231098582837E+04    0.12218E-03   -0.14259E-01  4432   0.416E-01    0.848E-02
RMM:   2    -0.231098617600E+04   -0.34763E-03   -0.37823E-03  4575   0.605E-02    0.638E-02
RMM:   3    -0.231098617663E+04   -0.62530E-06   -0.22185E-04  4240   0.183E-02    0.928E-02
RMM:   4    -0.231098611218E+04    0.64446E-04   -0.60696E-05  2966   0.627E-03    0.229E-02
RMM:   5    -0.231098610035E+04    0.11830E-04   -0.45410E-05  3901   0.685E-03    0.868E-03
RMM:   6    -0.231098610005E+04    0.29925E-06   -0.58796E-06  2804   0.531E-03
 282 F= -.23314466E+04 E0= -.23314466E+04  d E =-.233453E-03  mag=     4.0000
       N       E                     dE             d eps       ncg     rms          rms(c)
DAV:   1    -0.231098607619E+04    0.24159E-04   -0.39765E-03  5072   0.698E-02    0.148E-02
RMM:   2    -0.231098608629E+04   -0.10101E-04   -0.10932E-04  4461   0.110E-02    0.114E-02
RMM:   3    -0.231098608696E+04   -0.66993E-06   -0.10399E-05  2799   0.618E-03
 283 F= -.23314466E+04 E0= -.23314466E+04  d E =-.234602E-03  mag=     4.0000
       N       E                     dE             d eps       ncg     rms          rms(c)
DAV:   1    -0.231098592233E+04    0.16396E-03   -0.14516E-01  4432   0.421E-01    0.882E-02
RMM:   2    -0.231098628053E+04   -0.35820E-03   -0.38937E-03  4569   0.612E-02    0.636E-02
RMM:   3    -0.231098628324E+04   -0.27029E-05   -0.23629E-04  4282   0.178E-02    0.974E-02
RMM:   4    -0.231098621185E+04    0.71384E-04   -0.59045E-05  2960   0.623E-03    0.223E-02
RMM:   5    -0.231098620018E+04    0.11673E-04   -0.46345E-05  3954   0.681E-03    0.105E-02
RMM:   6    -0.231098619960E+04    0.57854E-06   -0.65661E-06  2810   0.550E-03
 284 F= -.23314468E+04 E0= -.23314468E+04  d E =-.220461E-03  mag=     4.0000
       N       E                     dE             d eps       ncg     rms          rms(c)
DAV:   1    -0.231098617252E+04    0.27657E-04   -0.39014E-03  5024   0.693E-02    0.150E-02
RMM:   2    -0.231098618251E+04   -0.99888E-05   -0.10789E-04  4479   0.109E-02    0.117E-02
RMM:   3    -0.231098618317E+04   -0.66035E-06   -0.10634E-05  2809   0.617E-03
 285 F= -.23314468E+04 E0= -.23314468E+04  d E =-.221800E-03  mag=     4.0000
       N       E                     dE             d eps       ncg     rms          rms(c)
DAV:   1    -0.231098602129E+04    0.16122E-03   -0.14782E-01  4432   0.424E-01    0.873E-02
RMM:   2    -0.231098638422E+04   -0.36293E-03   -0.39323E-03  4567   0.616E-02    0.625E-02
RMM:   3    -0.231098638594E+04   -0.17131E-05   -0.22701E-04  4299   0.173E-02    0.961E-02
RMM:   4    -0.231098631793E+04    0.68009E-04   -0.61686E-05  2951   0.629E-03    0.228E-02
RMM:   5    -0.231098630655E+04    0.11375E-04   -0.47581E-05  3953   0.692E-03    0.994E-03
RMM:   6    -0.231098630620E+04    0.35211E-06   -0.64148E-06  2803   0.551E-03
 286 F= -.23314470E+04 E0= -.23314470E+04  d E =-.240126E-03  mag=     4.0000
       N       E                     dE             d eps       ncg     rms          rms(c)
DAV:   1    -0.231098627184E+04    0.34712E-04   -0.53407E-03  4840   0.810E-02    0.172E-02
RMM:   2    -0.231098628538E+04   -0.13535E-04   -0.14542E-04  4538   0.125E-02    0.126E-02
RMM:   3    -0.231098628618E+04   -0.80351E-06   -0.12976E-05  2820   0.677E-03
 287 F= -.23314470E+04 E0= -.23314470E+04  d E =-.242477E-03  mag=     4.0000
       N       E                     dE             d eps       ncg     rms          rms(c)
DAV:   1    -0.231098615929E+04    0.12608E-03   -0.11973E-01  4432   0.381E-01    0.740E-02
RMM:   2    -0.231098644704E+04   -0.28775E-03   -0.31067E-03  4553   0.549E-02    0.549E-02
RMM:   3    -0.231098644548E+04    0.15628E-05   -0.16849E-04  3926   0.158E-02    0.805E-02
RMM:   4    -0.231098639726E+04    0.48224E-04   -0.42980E-05  2919   0.574E-03    0.206E-02
RMM:   5    -0.231098638805E+04    0.92097E-05   -0.39396E-05  3668   0.646E-03
 288 F= -.23314472E+04 E0= -.23314472E+04  d E =-.223331E-03  mag=     4.0000
       N       E                     dE             d eps       ncg     rms          rms(c)
DAV:   1    -0.231098628381E+04    0.11345E-03   -0.25844E-02  4496   0.177E-01    0.358E-02
RMM:   2    -0.231098635333E+04   -0.69524E-04   -0.72844E-04  5553   0.300E-02    0.294E-02
RMM:   3    -0.231098635197E+04    0.13641E-05   -0.49635E-05  3258   0.874E-03
 289 F= -.23314473E+04 E0= -.23314473E+04  d E =-.243977E-03  mag=     4.0000
       N       E                     dE             d eps       ncg     rms          rms(c)
DAV:   1    -0.231098628019E+04    0.73137E-04   -0.10795E-01  4432   0.362E-01    0.697E-02
RMM:   2    -0.231098653404E+04   -0.25385E-03   -0.27849E-03  4802   0.529E-02    0.481E-02
RMM:   3    -0.231098653090E+04    0.31357E-05   -0.16495E-04  4346   0.197E-02    0.715E-02
RMM:   4    -0.231098649481E+04    0.36099E-04   -0.40688E-05  2890   0.529E-03    0.215E-02
RMM:   5    -0.231098648620E+04    0.86008E-05   -0.29994E-05  3031   0.588E-03
 290 F= -.23314475E+04 E0= -.23314475E+04  d E =-.240706E-03  mag=     4.0000
       N       E                     dE             d eps       ncg     rms          rms(c)
DAV:   1    -0.231098615813E+04    0.33668E-03   -0.12053E-01  4432   0.383E-01    0.744E-02
RMM:   2    -0.231098645561E+04   -0.29748E-03   -0.31415E-03  5014   0.576E-02    0.567E-02
RMM:   3    -0.231098646242E+04   -0.68102E-05   -0.25875E-04  4591   0.273E-02    0.813E-02
RMM:   4    -0.231098641389E+04    0.48531E-04   -0.44818E-05  2900   0.573E-03    0.198E-02
RMM:   5    -0.231098640566E+04    0.82274E-05   -0.28404E-05  3007   0.584E-03
 291 F= -.23314475E+04 E0= -.23314475E+04  d E =-.273017E-03  mag=     4.0000
       N       E                     dE             d eps       ncg     rms          rms(c)
DAV:   1    -0.231098637231E+04    0.41585E-04   -0.79463E-02  4432   0.310E-01    0.555E-02
RMM:   2    -0.231098656680E+04   -0.19450E-03   -0.20350E-03  5297   0.471E-02    0.429E-02
RMM:   3    -0.231098656365E+04    0.31501E-05   -0.13948E-04  4242   0.178E-02    0.594E-02
RMM:   4    -0.231098653768E+04    0.25976E-04   -0.23977E-05  2856   0.461E-03    0.157E-02
RMM:   5    -0.231098653259E+04    0.50907E-05   -0.18611E-05  2820   0.466E-03
 292 F= -.23314477E+04 E0= -.23314477E+04  d E =-.202898E-03  mag=     4.0000
       N       E                     dE             d eps       ncg     rms          rms(c)
DAV:   1    -0.231098616149E+04    0.37618E-03   -0.18799E-01  4432   0.477E-01    0.842E-02
RMM:   2    -0.231098657961E+04   -0.41811E-03   -0.44361E-03  4599   0.689E-02    0.603E-02
RMM:   3    -0.231098660172E+04   -0.22111E-04   -0.39000E-04  4445   0.395E-02    0.893E-02
RMM:   4    -0.231098654404E+04    0.57682E-04   -0.63165E-05  3024   0.676E-03    0.241E-02
RMM:   5    -0.231098653143E+04    0.12605E-04   -0.43332E-05  3792   0.712E-03    0.753E-03
RMM:   6    -0.231098653158E+04   -0.14716E-06   -0.58904E-06  2795   0.508E-03
 293 F= -.23314479E+04 E0= -.23314479E+04  d E =-.318851E-03  mag=     4.0000
       N       E                     dE             d eps       ncg     rms          rms(c)
DAV:   1    -0.231098664461E+04   -0.11317E-03   -0.87795E-02  4432   0.326E-01    0.695E-02
RMM:   2    -0.231098684390E+04   -0.19930E-03   -0.22167E-03  4510   0.473E-02    0.362E-02
RMM:   3    -0.231098684333E+04    0.56713E-06   -0.12737E-04  4046   0.188E-02    0.613E-02
RMM:   4    -0.231098681746E+04    0.25878E-04   -0.32841E-05  2872   0.483E-03    0.186E-02
RMM:   5    -0.231098681024E+04    0.72205E-05   -0.23662E-05  2875   0.516E-03
 294 F= -.23314482E+04 E0= -.23314482E+04  d E =-.341469E-03  mag=     4.0000
       N       E                     dE             d eps       ncg     rms          rms(c)
DAV:   1    -0.231098665690E+04    0.16056E-03   -0.91308E-02  4432   0.333E-01    0.715E-02
RMM:   2    -0.231098687021E+04   -0.21331E-03   -0.23573E-03  5114   0.504E-02    0.397E-02
RMM:   3    -0.231098687199E+04   -0.17829E-05   -0.17040E-04  4541   0.217E-02    0.692E-02
RMM:   4    -0.231098683802E+04    0.33966E-04   -0.35121E-05  2870   0.502E-03    0.187E-02
RMM:   5    -0.231098682978E+04    0.82426E-05   -0.24869E-05  2947   0.520E-03
 295 F= -.23314483E+04 E0= -.23314483E+04  d E =-.425252E-03  mag=     4.0000
       N       E                     dE             d eps       ncg     rms          rms(c)
DAV:   1    -0.231098681560E+04    0.22428E-04   -0.79570E-02  4440   0.310E-01    0.612E-02
RMM:   2    -0.231098700237E+04   -0.18677E-03   -0.20257E-03  5148   0.468E-02    0.369E-02
RMM:   3    -0.231098700245E+04   -0.84823E-07   -0.14025E-04  4283   0.196E-02    0.605E-02
RMM:   4    -0.231098697669E+04    0.25766E-04   -0.27107E-05  2855   0.464E-03    0.172E-02
RMM:   5    -0.231098697091E+04    0.57738E-05   -0.20660E-05  2825   0.484E-03
 296 F= -.23314485E+04 E0= -.23314485E+04  d E =-.233221E-03  mag=     4.0000
       N       E                     dE             d eps       ncg     rms          rms(c)
DAV:   1    -0.231098682733E+04    0.14936E-03   -0.55958E-02  4472   0.260E-01    0.515E-02
RMM:   2    -0.231098696068E+04   -0.13335E-03   -0.14472E-03  5230   0.395E-02    0.311E-02
RMM:   3    -0.231098695953E+04    0.11419E-05   -0.97643E-05  4004   0.159E-02
 297 F= -.23314486E+04 E0= -.23314486E+04  d E =-.299210E-03  mag=     4.0000
       N       E                     dE             d eps       ncg     rms          rms(c)
DAV:   1    -0.231098690492E+04    0.55752E-04   -0.11168E-01  4432   0.369E-01    0.772E-02
RMM:   2    -0.231098715377E+04   -0.24884E-03   -0.28553E-03  4664   0.537E-02    0.430E-02
RMM:   3    -0.231098714428E+04    0.94921E-05   -0.16837E-04  4385   0.226E-02    0.636E-02
RMM:   4    -0.231098711782E+04    0.26461E-04   -0.41502E-05  2894   0.541E-03    0.255E-02
RMM:   5    -0.231098710750E+04    0.10313E-04   -0.33604E-05  3232   0.623E-03    0.650E-03
RMM:   6    -0.231098710787E+04   -0.37103E-06   -0.50132E-06  2799   0.470E-03
 298 F= -.23314488E+04 E0= -.23314488E+04  d E =-.253925E-03  mag=     4.0000
       N       E                     dE             d eps       ncg     rms          rms(c)
DAV:   1    -0.231098701464E+04    0.92862E-04   -0.30982E-02  4576   0.194E-01    0.409E-02
RMM:   2    -0.231098709057E+04   -0.75934E-04   -0.81545E-04  4574   0.285E-02    0.292E-02
RMM:   3    -0.231098709378E+04   -0.32018E-05   -0.61227E-05  3360   0.131E-02
 299 F= -.23314489E+04 E0= -.23314489E+04  d E =-.295539E-03  mag=     4.0000
       N       E                     dE             d eps       ncg     rms          rms(c)
DAV:   1    -0.231098703987E+04    0.50701E-04   -0.11218E-01  4432   0.371E-01    0.782E-02
RMM:   2    -0.231098731436E+04   -0.27449E-03   -0.30359E-03  4628   0.544E-02    0.587E-02
RMM:   3    -0.231098731625E+04   -0.18869E-05   -0.20535E-04  4220   0.211E-02    0.848E-02
RMM:   4    -0.231098726239E+04    0.53859E-04   -0.51656E-05  2902   0.591E-03    0.212E-02
RMM:   5    -0.231098725184E+04    0.10549E-04   -0.35571E-05  3369   0.623E-03    0.700E-03
RMM:   6    -0.231098725187E+04   -0.24942E-07   -0.52914E-06  2796   0.489E-03
 300 F= -.23314491E+04 E0= -.23314491E+04  d E =-.228712E-03  mag=     4.0000
       N       E                     dE             d eps       ncg     rms          rms(c)
DAV:   1    -0.231098721011E+04    0.41726E-04   -0.11856E-02  4640   0.121E-01    0.259E-02
RMM:   2    -0.231098724122E+04   -0.31107E-04   -0.32980E-04  4714   0.184E-02    0.212E-02
RMM:   3    -0.231098724207E+04   -0.84394E-06   -0.27954E-05  2850   0.977E-03
 301 F= -.23314491E+04 E0= -.23314491E+04  d E =-.241959E-03  mag=     4.0000
