       N       E                     dE             d eps       ncg     rms          rms(c)
DAV:   1     0.120683993462E+05    0.12068E+05   -0.82727E+05  4640   0.140E+03
DAV:   2    -0.128717679066E+04   -0.13356E+05   -0.12850E+05  5120   0.317E+02
DAV:   3    -0.248105275799E+04   -0.11939E+04   -0.11846E+04  5520   0.101E+02
DAV:   4    -0.250590222377E+04   -0.24849E+02   -0.24740E+02  5680   0.175E+01
DAV:   5    -0.250652013356E+04   -0.61791E+00   -0.61684E+00  6000   0.243E+00    0.170E+02
RMM:   6    -0.147414221114E+04    0.10324E+04   -0.18673E+03  4494   0.372E+01    0.720E+01
RMM:   7    -0.163956706238E+04   -0.16542E+03   -0.26354E+02  5005   0.132E+01    0.498E+01
RMM:   8    -0.169526325508E+04   -0.55696E+02   -0.54297E+01  5157   0.731E+00    0.397E+01
RMM:   9    -0.179575302770E+04   -0.10049E+03   -0.63890E+01  4959   0.748E+00    0.323E+01
RMM:  10    -0.192748085077E+04   -0.13173E+03   -0.56895E+01  5237   0.713E+00    0.198E+01
RMM:  11    -0.202961723531E+04   -0.10214E+03   -0.42482E+01  5000   0.506E+00    0.143E+01
RMM:  12    -0.215804937335E+04   -0.12843E+03   -0.84401E+01  4504   0.665E+00    0.105E+01
RMM:  13    -0.226983289849E+04   -0.11178E+03   -0.10983E+02  4505   0.688E+00    0.548E+00
RMM:  14    -0.229074258393E+04   -0.20910E+02   -0.23731E+01  4557   0.431E+00    0.392E+00
RMM:  15    -0.229672293646E+04   -0.59804E+01   -0.86871E+00  4832   0.183E+00    0.243E+00
RMM:  16    -0.229897067221E+04   -0.22477E+01   -0.17916E+00  4740   0.120E+00    0.161E+00
RMM:  17    -0.230005128536E+04   -0.10806E+01   -0.50942E-01  5043   0.498E-01    0.657E-01
RMM:  18    -0.230031955629E+04   -0.26827E+00   -0.11526E-01  4929   0.272E-01    0.581E-01
RMM:  19    -0.230038697554E+04   -0.67419E-01   -0.39569E-02  4732   0.157E-01    0.208E-01
RMM:  20    -0.230041421453E+04   -0.27239E-01   -0.11990E-02  4693   0.104E-01    0.121E-01
RMM:  21    -0.230043166442E+04   -0.17450E-01   -0.74714E-03  4527   0.673E-02    0.877E-02
RMM:  22    -0.230044128755E+04   -0.96231E-02   -0.28580E-03  4583   0.509E-02    0.511E-02
RMM:  23    -0.230045016614E+04   -0.88786E-02   -0.34326E-03  4505   0.410E-02    0.377E-02
RMM:  24    -0.230045251098E+04   -0.23448E-02   -0.97267E-04  4374   0.332E-02    0.373E-02
RMM:  25    -0.230045357776E+04   -0.10668E-02   -0.49418E-04  4250   0.151E-02    0.145E-02
RMM:  26    -0.230045398789E+04   -0.41014E-03   -0.13102E-04  3737   0.141E-02    0.102E-02
RMM:  27    -0.230045420817E+04   -0.22027E-03   -0.70809E-05  3640   0.589E-03    0.584E-03
RMM:  28    -0.230045430261E+04   -0.94439E-04   -0.26367E-05  3262   0.554E-03    0.262E-03
RMM:  29    -0.230045434172E+04   -0.39112E-04   -0.14532E-05  3068   0.364E-03    0.209E-03
RMM:  30    -0.230045435226E+04   -0.10542E-04   -0.66399E-06  2925   0.305E-03    0.133E-03
RMM:  31    -0.230045435416E+04   -0.19014E-05   -0.29904E-06  2475   0.197E-03
   1 F= -.23207803E+04 E0= -.23207803E+04  d E =-.866991E-11  mag=     4.0000
       N       E                     dE             d eps       ncg     rms          rms(c)
DAV:   1    -0.230043940967E+04    0.14943E-01   -0.19693E+00  4480   0.365E-01    0.255E-01
RMM:   2    -0.230044041891E+04   -0.10092E-02   -0.99780E-03  4398   0.291E-02    0.385E-01
RMM:   3    -0.230043923957E+04    0.11793E-02   -0.15212E-03  3861   0.144E-02    0.142E-01
RMM:   4    -0.230043902415E+04    0.21542E-03   -0.48642E-04  3715   0.806E-03    0.650E-02
RMM:   5    -0.230043900492E+04    0.19236E-04   -0.24266E-04  3127   0.689E-03    0.492E-02
RMM:   6    -0.230043898682E+04    0.18094E-04   -0.29788E-05  2899   0.373E-03    0.151E-02
RMM:   7    -0.230043898531E+04    0.15144E-05   -0.88221E-06  2761   0.237E-03
   2 F= -.23207654E+04 E0= -.23207654E+04  d E =-.308765E-09  mag=     4.0000
       N       E                     dE             d eps       ncg     rms          rms(c)
DAV:   1    -0.230045370741E+04   -0.14721E-01   -0.79515E+00  4480   0.719E-01    0.522E-01
RMM:   2    -0.230045706169E+04   -0.33543E-02   -0.36198E-02  4625   0.564E-02    0.780E-01
RMM:   3    -0.230045259473E+04    0.44670E-02   -0.58424E-03  4854   0.294E-02    0.292E-01
RMM:   4    -0.230045170532E+04    0.88942E-03   -0.19079E-03  4634   0.153E-02    0.127E-01
RMM:   5    -0.230045165206E+04    0.53259E-04   -0.88648E-04  3812   0.124E-02    0.981E-02
RMM:   6    -0.230045162658E+04    0.25476E-04   -0.11424E-04  3133   0.591E-03    0.276E-02
RMM:   7    -0.230045163228E+04   -0.57002E-05   -0.27544E-05  2982   0.394E-03
   3 F= -.23207772E+04 E0= -.23207772E+04  d E =-.177664E-10  mag=     4.0000
       N       E                     dE             d eps       ncg     rms          rms(c)
DAV:   1    -0.230045453726E+04   -0.29107E-02   -0.37604E+00  4480   0.500E-01    0.350E-01
RMM:   2    -0.230045512678E+04   -0.58952E-03   -0.13679E-02  4378   0.361E-02    0.414E-01
RMM:   3    -0.230045416425E+04    0.96253E-03   -0.27169E-03  4537   0.189E-02    0.278E-01
RMM:   4    -0.230045350094E+04    0.66331E-03   -0.91513E-04  4000   0.114E-02    0.754E-02
RMM:   5    -0.230045351329E+04   -0.12354E-04   -0.29130E-04  3212   0.783E-03    0.490E-02
RMM:   6    -0.230045349829E+04    0.15002E-04   -0.40803E-05  2918   0.381E-03    0.156E-02
RMM:   7    -0.230045349701E+04    0.12756E-05   -0.96878E-06  2845   0.244E-03
   4 F= -.23207795E+04 E0= -.23207795E+04  d E =-.140287E-10  mag=     4.0000
       N       E                     dE             d eps       ncg     rms          rms(c)
DAV:   1    -0.230045588587E+04   -0.23876E-02   -0.70830E+00  4480   0.652E-01    0.466E-01
RMM:   2    -0.230045448121E+04    0.14047E-02   -0.17067E-02  4185   0.366E-02    0.226E-01
RMM:   3    -0.230045385046E+04    0.63076E-03   -0.25118E-03  4412   0.237E-02    0.127E-01
RMM:   4    -0.230045420588E+04   -0.35542E-03   -0.79590E-04  3724   0.110E-02    0.197E-01
RMM:   5    -0.230045393866E+04    0.26722E-03   -0.23837E-04  3185   0.737E-03    0.376E-02
RMM:   6    -0.230045394724E+04   -0.85816E-05   -0.45733E-05  2887   0.365E-03
   5 F= -.23207799E+04 E0= -.23207799E+04  d E =-.159267E-10  mag=     4.0000
       N       E                     dE             d eps       ncg     rms          rms(c)
DAV:   1    -0.230045001058E+04    0.39281E-02   -0.38113E+00  4640   0.537E-01    0.431E-01
RMM:   2    -0.230045031566E+04   -0.30508E-03   -0.16490E-02  4173   0.413E-02    0.238E-01
RMM:   3    -0.230044995806E+04    0.35760E-03   -0.26202E-03  4806   0.208E-02    0.219E-01
RMM:   4    -0.230045002518E+04   -0.67127E-04   -0.12276E-03  3757   0.127E-02    0.231E-01
RMM:   5    -0.230044967495E+04    0.35023E-03   -0.48103E-04  3803   0.917E-03    0.802E-02
RMM:   6    -0.230044965377E+04    0.21183E-04   -0.56168E-05  2998   0.501E-03    0.142E-02
RMM:   7    -0.230044966022E+04   -0.64492E-05   -0.14217E-05  2861   0.282E-03
   6 F= -.23207774E+04 E0= -.23207774E+04  d E =-.398870E-12  mag=     4.0000
       N       E                     dE             d eps       ncg     rms          rms(c)
DAV:   1    -0.230044072164E+04    0.89321E-02   -0.80343E+00  4480   0.842E-01    0.730E-01
RMM:   2    -0.230044183003E+04   -0.11084E-02   -0.41170E-02  4487   0.664E-02    0.421E-01
RMM:   3    -0.230044072118E+04    0.11089E-02   -0.65095E-03  5154   0.299E-02    0.311E-01
RMM:   4    -0.230044182320E+04   -0.11020E-02   -0.35563E-03  4664   0.212E-02    0.493E-01
RMM:   5    -0.230044029473E+04    0.15285E-02   -0.21803E-03  4938   0.166E-02    0.199E-01
RMM:   6    -0.230044024376E+04    0.50977E-04   -0.25075E-04  3522   0.849E-03    0.337E-02
RMM:   7    -0.230044027524E+04   -0.31481E-04   -0.50760E-05  3019   0.431E-03    0.169E-02
RMM:   8    -0.230044028302E+04   -0.77842E-05   -0.10899E-05  2916   0.306E-03
   7 F= -.23207649E+04 E0= -.23207649E+04  d E =-.458174E-09  mag=     4.0000
       N       E                     dE             d eps       ncg     rms          rms(c)
DAV:   1    -0.230044665100E+04   -0.63758E-02   -0.22298E+00  4480   0.452E-01    0.391E-01
RMM:   2    -0.230044722169E+04   -0.57069E-03   -0.13937E-02  4161   0.391E-02    0.223E-01
RMM:   3    -0.230044682093E+04    0.40076E-03   -0.23086E-03  4597   0.186E-02    0.166E-01
RMM:   4    -0.230044706534E+04   -0.24442E-03   -0.10618E-03  3703   0.120E-02    0.251E-01
RMM:   5    -0.230044666724E+04    0.39810E-03   -0.64735E-04  3925   0.967E-03    0.109E-01
RMM:   6    -0.230044661781E+04    0.49431E-04   -0.69498E-05  3030   0.523E-03    0.173E-02
RMM:   7    -0.230044662437E+04   -0.65641E-05   -0.14550E-05  2840   0.277E-03
   8 F= -.23207726E+04 E0= -.23207726E+04  d E =-.462853E-10  mag=     4.0000
       N       E                     dE             d eps       ncg     rms          rms(c)
DAV:   1    -0.230045688201E+04   -0.10264E-01   -0.10122E+00  4320   0.342E-01    0.258E-01
RMM:   2    -0.230045770476E+04   -0.82275E-03   -0.71045E-03  4048   0.277E-02    0.206E-01
RMM:   3    -0.230045793996E+04   -0.23520E-03   -0.13490E-03  3965   0.142E-02    0.294E-01
RMM:   4    -0.230045736198E+04    0.57798E-03   -0.79146E-04  3694   0.102E-02    0.872E-02
RMM:   5    -0.230045735348E+04    0.84981E-05   -0.11156E-04  3006   0.537E-03    0.425E-02
RMM:   6    -0.230045734795E+04    0.55344E-05   -0.18029E-05  2815   0.317E-03
   9 F= -.23207834E+04 E0= -.23207834E+04  d E =-.201234E-10  mag=     4.0000
       N       E                     dE             d eps       ncg     rms          rms(c)
DAV:   1    -0.230045356387E+04    0.37896E-02   -0.50101E-01  4320   0.231E-01    0.157E-01
RMM:   2    -0.230045391339E+04   -0.34952E-03   -0.24270E-03  3535   0.174E-02    0.133E-01
RMM:   3    -0.230045398531E+04   -0.71921E-04   -0.46374E-04  3315   0.820E-03    0.173E-01
RMM:   4    -0.230045379481E+04    0.19050E-03   -0.27379E-04  3188   0.637E-03    0.516E-02
RMM:   5    -0.230045379221E+04    0.25947E-05   -0.42748E-05  2822   0.347E-03
  10 F= -.23207798E+04 E0= -.23207798E+04  d E =-.153796E-10  mag=     4.0000
       N       E                     dE             d eps       ncg     rms          rms(c)
DAV:   1    -0.230045344049E+04    0.35432E-03   -0.98810E-01  4480   0.323E-01    0.168E-01
RMM:   2    -0.230045385882E+04   -0.41833E-03   -0.16405E-03  3359   0.141E-02    0.103E-01
RMM:   3    -0.230045393915E+04   -0.80331E-04   -0.20989E-04  3004   0.626E-03    0.767E-02
RMM:   4    -0.230045402570E+04   -0.86549E-04   -0.19580E-04  2891   0.536E-03    0.112E-01
RMM:   5    -0.230045394559E+04    0.80109E-04   -0.62022E-05  2752   0.395E-03    0.104E-02
RMM:   6    -0.230045394599E+04   -0.40595E-06   -0.70099E-06  2484   0.164E-03
  11 F= -.23207800E+04 E0= -.23207800E+04  d E =-.135649E-10  mag=     4.0000
       N       E                     dE             d eps       ncg     rms          rms(c)
DAV:   1    -0.230045610571E+04   -0.21601E-02   -0.49887E-01  4320   0.235E-01    0.187E-01
RMM:   2    -0.230045629670E+04   -0.19099E-03   -0.33715E-03  4275   0.193E-02    0.194E-01
RMM:   3    -0.230045622427E+04    0.72431E-04   -0.81813E-04  3291   0.124E-02    0.196E-01
RMM:   4    -0.230045596257E+04    0.26170E-03   -0.30131E-04  3265   0.686E-03    0.577E-02
RMM:   5    -0.230045594641E+04    0.16158E-04   -0.94707E-05  3037   0.433E-03    0.148E-02
RMM:   6    -0.230045594559E+04    0.82229E-06   -0.13798E-05  2716   0.326E-03
  12 F= -.23207811E+04 E0= -.23207811E+04  d E =-.105386E-09  mag=     4.0000
       N       E                     dE             d eps       ncg     rms          rms(c)
DAV:   1    -0.230045249046E+04    0.34559E-02   -0.99048E-01  4560   0.329E-01    0.325E-01
RMM:   2    -0.230045274302E+04   -0.25256E-03   -0.91156E-03  4689   0.323E-02    0.366E-01
RMM:   3    -0.230045223715E+04    0.50586E-03   -0.24852E-03  4328   0.191E-02    0.330E-01
RMM:   4    -0.230045140454E+04    0.83261E-03   -0.88181E-04  3958   0.107E-02    0.952E-02
RMM:   5    -0.230045131547E+04    0.89065E-04   -0.27801E-04  3364   0.665E-03    0.262E-02
RMM:   6    -0.230045131192E+04    0.35557E-05   -0.39039E-05  2914   0.506E-03
  13 F= -.23207785E+04 E0= -.23207785E+04  d E =-.211414E-10  mag=     4.0000
       N       E                     dE             d eps       ncg     rms          rms(c)
DAV:   1    -0.230044973782E+04    0.15777E-02   -0.43386E-01  4640   0.230E-01    0.155E-01
RMM:   2    -0.230044955355E+04    0.18427E-03   -0.27629E-03  3719   0.170E-02    0.975E-02
RMM:   3    -0.230044940706E+04    0.14649E-03   -0.32134E-04  3174   0.767E-03    0.542E-02
RMM:   4    -0.230044948557E+04   -0.78507E-04   -0.21805E-04  3241   0.538E-03    0.113E-01
RMM:   5    -0.230044939135E+04    0.94219E-04   -0.77191E-05  2747   0.425E-03    0.138E-02
RMM:   6    -0.230044939004E+04    0.13066E-05   -0.13708E-05  2459   0.190E-03
  14 F= -.23207751E+04 E0= -.23207751E+04  d E =-.122107E-10  mag=     4.0000
       N       E                     dE             d eps       ncg     rms          rms(c)
DAV:   1    -0.230045885797E+04   -0.94666E-02   -0.11266E+00  4480   0.308E-01    0.332E-01
RMM:   2    -0.230045829616E+04    0.56181E-03   -0.66848E-03  4066   0.254E-02    0.346E-01
RMM:   3    -0.230045802197E+04    0.27418E-03   -0.21060E-03  4387   0.163E-02    0.313E-01
RMM:   4    -0.230045714350E+04    0.87848E-03   -0.12778E-03  4295   0.124E-02    0.850E-02
RMM:   5    -0.230045708643E+04    0.57069E-04   -0.16731E-04  3239   0.609E-03    0.230E-02
RMM:   6    -0.230045707987E+04    0.65593E-05   -0.15618E-05  2787   0.270E-03
  15 F= -.23207834E+04 E0= -.23207834E+04  d E =-.285340E-10  mag=     4.0000
       N       E                     dE             d eps       ncg     rms          rms(c)
DAV:   1    -0.230045506456E+04    0.20219E-02   -0.56582E-01  4480   0.220E-01    0.205E-01
RMM:   2    -0.230045495605E+04    0.10852E-03   -0.21706E-03  3675   0.157E-02    0.208E-01
RMM:   3    -0.230045490860E+04    0.47452E-04   -0.77408E-04  3499   0.945E-03    0.198E-01
RMM:   4    -0.230045457692E+04    0.33168E-03   -0.47716E-04  3525   0.807E-03    0.519E-02
RMM:   5    -0.230045455872E+04    0.18204E-04   -0.68139E-05  3009   0.438E-03    0.148E-02
RMM:   6    -0.230045455642E+04    0.22983E-05   -0.73785E-06  2603   0.209E-03
  16 F= -.23207805E+04 E0= -.23207805E+04  d E =-.132746E-10  mag=     4.0000
       N       E                     dE             d eps       ncg     rms          rms(c)
DAV:   1    -0.230045405348E+04    0.50524E-03   -0.11333E+00  4480   0.305E-01    0.238E-01
RMM:   2    -0.230045392532E+04    0.12815E-03   -0.17568E-03  3577   0.142E-02    0.143E-01
RMM:   3    -0.230045376252E+04    0.16280E-03   -0.48419E-04  3341   0.942E-03    0.605E-02
RMM:   4    -0.230045379562E+04   -0.33096E-04   -0.17558E-04  3024   0.565E-03    0.554E-02
RMM:   5    -0.230045378053E+04    0.15082E-04   -0.47344E-05  2714   0.398E-03    0.334E-02
RMM:   6    -0.230045377097E+04    0.95657E-05   -0.10555E-05  2482   0.190E-03
  17 F= -.23207798E+04 E0= -.23207798E+04  d E =-.136136E-10  mag=     4.0000
       N       E                     dE             d eps       ncg     rms          rms(c)
DAV:   1    -0.230044519581E+04    0.85847E-02   -0.58566E-01  4480   0.223E-01    0.213E-01
RMM:   2    -0.230044573936E+04   -0.54356E-03   -0.32594E-03  3761   0.199E-02    0.310E-01
RMM:   3    -0.230044515435E+04    0.58501E-03   -0.93605E-04  3696   0.108E-02    0.160E-01
RMM:   4    -0.230044495527E+04    0.19908E-03   -0.27687E-04  3343   0.673E-03    0.439E-02
RMM:   5    -0.230044494922E+04    0.60483E-05   -0.78965E-05  3078   0.394E-03
  18 F= -.23207706E+04 E0= -.23207706E+04  d E =-.787078E-10  mag=     4.0000
       N       E                     dE             d eps       ncg     rms          rms(c)
DAV:   1    -0.230045631643E+04   -0.11361E-01   -0.11754E+00  4560   0.320E-01    0.342E-01
RMM:   2    -0.230045835988E+04   -0.20435E-02   -0.10496E-02  4269   0.346E-02    0.588E-01
RMM:   3    -0.230045598167E+04    0.23782E-02   -0.27588E-03  4779   0.185E-02    0.232E-01
RMM:   4    -0.230045552920E+04    0.45247E-03   -0.58535E-04  3749   0.947E-03    0.678E-02
RMM:   5    -0.230045548931E+04    0.39892E-04   -0.19334E-04  3392   0.548E-03    0.389E-02
RMM:   6    -0.230045547556E+04    0.13743E-04   -0.27218E-05  2848   0.383E-03    0.157E-02
RMM:   7    -0.230045547311E+04    0.24539E-05   -0.88000E-06  2737   0.209E-03
  19 F= -.23207819E+04 E0= -.23207819E+04  d E =-.103896E-11  mag=     4.0000
