       N       E                     dE             d eps       ncg     rms          rms(c)
DAV:   1     0.131206948262E+05    0.13121E+05   -0.84427E+05  4536   0.144E+03
DAV:   2    -0.101803352677E+04   -0.14139E+05   -0.13510E+05  4952   0.331E+02
DAV:   3    -0.248928858697E+04   -0.14713E+04   -0.14529E+04  5552   0.115E+02
DAV:   4    -0.253502868395E+04   -0.45740E+02   -0.45500E+02  6736   0.292E+01
DAV:   5    -0.253584352577E+04   -0.81484E+00   -0.81308E+00  6208   0.344E+00    0.170E+02
RMM:   6    -0.150090900250E+04    0.10349E+04   -0.19650E+03  4474   0.384E+01    0.743E+01
RMM:   7    -0.169367519508E+04   -0.19277E+03   -0.32074E+02  5128   0.152E+01    0.664E+01
RMM:   8    -0.169704119797E+04   -0.33660E+01   -0.10698E+02  5177   0.929E+00    0.462E+01
RMM:   9    -0.176736528643E+04   -0.70324E+02   -0.67007E+01  5128   0.743E+00    0.380E+01
RMM:  10    -0.187853639092E+04   -0.11117E+03   -0.57309E+01  5286   0.752E+00    0.342E+01
RMM:  11    -0.195436891348E+04   -0.75833E+02   -0.34755E+01  5354   0.549E+00    0.266E+01
RMM:  12    -0.203023735173E+04   -0.75868E+02   -0.30487E+01  5102   0.464E+00    0.200E+01
RMM:  13    -0.209961194197E+04   -0.69375E+02   -0.28979E+01  4964   0.428E+00    0.136E+01
RMM:  14    -0.221502665911E+04   -0.11541E+03   -0.81958E+01  4595   0.659E+00    0.128E+01
RMM:  15    -0.229507430465E+04   -0.80048E+02   -0.74469E+01  4668   0.602E+00    0.806E+00
RMM:  16    -0.231757155472E+04   -0.22497E+02   -0.23987E+01  4820   0.391E+00    0.430E+00
RMM:  17    -0.232384328307E+04   -0.62717E+01   -0.77029E+00  5137   0.182E+00    0.504E+00
RMM:  18    -0.232477862386E+04   -0.93534E+00   -0.86594E-01  5404   0.750E-01    0.412E+00
RMM:  19    -0.232824065354E+04   -0.34620E+01   -0.17347E+00  4521   0.831E-01    0.198E+00
RMM:  20    -0.232936832025E+04   -0.11277E+01   -0.56745E-01  4579   0.558E-01    0.109E+00
RMM:  21    -0.232975201262E+04   -0.38369E+00   -0.25229E-01  4763   0.311E-01    0.626E-01
RMM:  22    -0.232987180879E+04   -0.11980E+00   -0.75857E-02  5044   0.175E-01    0.371E-01
RMM:  23    -0.232993478149E+04   -0.62973E-01   -0.27693E-02  4569   0.107E-01    0.230E-01
RMM:  24    -0.232996852787E+04   -0.33746E-01   -0.97886E-03  4627   0.741E-02    0.161E-01
RMM:  25    -0.232999698787E+04   -0.28460E-01   -0.66427E-03  4498   0.551E-02    0.119E-01
RMM:  26    -0.233001133536E+04   -0.14347E-01   -0.28467E-03  4604   0.437E-02    0.723E-02
RMM:  27    -0.233002160890E+04   -0.10274E-01   -0.21948E-03  4499   0.312E-02    0.555E-02
RMM:  28    -0.233002791129E+04   -0.63024E-02   -0.13952E-03  4332   0.286E-02    0.294E-02
RMM:  29    -0.233002996821E+04   -0.20569E-02   -0.65152E-04  4449   0.175E-02    0.157E-02
RMM:  30    -0.233003052141E+04   -0.55320E-03   -0.13082E-04  3930   0.931E-03    0.867E-03
RMM:  31    -0.233003078635E+04   -0.26494E-03   -0.55506E-05  3488   0.567E-03    0.449E-03
RMM:  32    -0.233003085760E+04   -0.71246E-04   -0.13808E-05  2954   0.433E-03    0.250E-03
RMM:  33    -0.233003089924E+04   -0.41641E-04   -0.10218E-05  2907   0.303E-03    0.162E-03
RMM:  34    -0.233003091563E+04   -0.16395E-04   -0.48217E-06  2736   0.277E-03    0.105E-03
RMM:  35    -0.233003092112E+04   -0.54877E-05   -0.28436E-06  2462   0.186E-03
   1 F= -.23515368E+04 E0= -.23515368E+04  d E =-.235154E+04  mag=     2.0000
       N       E                     dE             d eps       ncg     rms          rms(c)
DAV:   1    -0.233012001405E+04   -0.89098E-01   -0.13610E+01  5008   0.253E+00    0.117E+00
RMM:   2    -0.233018899985E+04   -0.68986E-01   -0.99049E-01  5981   0.546E-01    0.764E-01
RMM:   3    -0.233019803989E+04   -0.90400E-02   -0.95819E-02  5837   0.192E-01    0.123E+00
RMM:   4    -0.233018319228E+04    0.14848E-01   -0.16114E-02  5651   0.677E-02    0.480E-01
RMM:   5    -0.233018402454E+04   -0.83226E-03   -0.11774E-02  5588   0.512E-02    0.629E-01
RMM:   6    -0.233018071387E+04    0.33107E-02   -0.63463E-03  5628   0.377E-02    0.276E-01
RMM:   7    -0.233017998190E+04    0.73197E-03   -0.16299E-03  5003   0.215E-02    0.140E-01
RMM:   8    -0.233017973021E+04    0.25169E-03   -0.36730E-04  4279   0.961E-03    0.492E-02
RMM:   9    -0.233017970842E+04    0.21785E-04   -0.97074E-05  3448   0.667E-03    0.260E-02
RMM:  10    -0.233017970372E+04    0.47017E-05   -0.54582E-05  3387   0.610E-03
   2 F= -.23516873E+04 E0= -.23516873E+04  d E =-.150485E+00  mag=     2.0000
       N       E                     dE             d eps       ncg     rms          rms(c)
DAV:   1    -0.233018056124E+04   -0.85282E-03   -0.91549E-02  5056   0.206E-01    0.941E-02
RMM:   2    -0.233018100572E+04   -0.44448E-03   -0.61564E-03  6119   0.459E-02    0.637E-02
RMM:   3    -0.233018111388E+04   -0.10816E-03   -0.72403E-04  3555   0.173E-02    0.116E-01
RMM:   4    -0.233018098546E+04    0.12841E-03   -0.11262E-04  2965   0.689E-03    0.337E-02
RMM:   5    -0.233018099713E+04   -0.11665E-04   -0.95762E-05  3117   0.520E-03    0.465E-02
RMM:   6    -0.233018097363E+04    0.23498E-04   -0.38024E-05  2994   0.438E-03    0.149E-02
RMM:   7    -0.233018097227E+04    0.13650E-05   -0.81966E-06  2724   0.215E-03
   3 F= -.23516884E+04 E0= -.23516884E+04  d E =-.151612E+00  mag=     2.0000
       N       E                     dE             d eps       ncg     rms          rms(c)
DAV:   1    -0.233025548540E+04   -0.74512E-01   -0.75355E+00  4624   0.204E+00    0.788E-01
RMM:   2    -0.233035220877E+04   -0.96723E-01   -0.94148E-01  6219   0.498E-01    0.111E+00
RMM:   3    -0.233034757288E+04    0.46359E-02   -0.10027E-01  6074   0.172E-01    0.722E-01
RMM:   4    -0.233034443997E+04    0.31329E-02   -0.11790E-02  5657   0.439E-02    0.445E-01
RMM:   5    -0.233034359544E+04    0.84453E-03   -0.44777E-03  5504   0.284E-02    0.390E-01
RMM:   6    -0.233034366976E+04   -0.74328E-04   -0.37782E-03  5575   0.276E-02    0.349E-01
RMM:   7    -0.233034199893E+04    0.16708E-02   -0.20766E-03  4972   0.221E-02    0.594E-02
RMM:   8    -0.233034196319E+04    0.35743E-04   -0.24144E-04  3202   0.702E-03    0.307E-02
RMM:   9    -0.233034195463E+04    0.85566E-05   -0.40097E-05  2985   0.496E-03
   4 F= -.23518496E+04 E0= -.23518496E+04  d E =-.161158E+00  mag=     2.0000
       N       E                     dE             d eps       ncg     rms          rms(c)
DAV:   1    -0.233030110934E+04    0.40854E-01   -0.92927E+00  4592   0.220E+00    0.879E-01
RMM:   2    -0.233041720092E+04   -0.11609E+00   -0.11603E+00  6232   0.542E-01    0.114E+00
RMM:   3    -0.233041437699E+04    0.28239E-02   -0.12643E-01  6095   0.192E-01    0.848E-01
RMM:   4    -0.233040954904E+04    0.48279E-02   -0.14423E-02  5736   0.489E-02    0.475E-01
RMM:   5    -0.233040867934E+04    0.86970E-03   -0.52498E-03  5566   0.310E-02    0.426E-01
RMM:   6    -0.233040843122E+04    0.24812E-03   -0.43133E-03  5629   0.293E-02    0.353E-01
RMM:   7    -0.233040675438E+04    0.16768E-02   -0.23866E-03  5061   0.239E-02    0.729E-02
RMM:   8    -0.233040669176E+04    0.62621E-04   -0.27731E-04  3305   0.755E-03    0.333E-02
RMM:   9    -0.233040668407E+04    0.76868E-05   -0.46755E-05  2989   0.534E-03
   5 F= -.23519146E+04 E0= -.23519146E+04  d E =-.226185E+00  mag=     2.0000
       N       E                     dE             d eps       ncg     rms          rms(c)
DAV:   1    -0.233050425530E+04   -0.97564E-01   -0.71116E+00  4576   0.186E+00    0.770E-01
RMM:   2    -0.233056594656E+04   -0.61691E-01   -0.67466E-01  6276   0.439E-01    0.713E-01
RMM:   3    -0.233056999556E+04   -0.40490E-02   -0.73557E-02  6088   0.154E-01    0.764E-01
RMM:   4    -0.233056401691E+04    0.59786E-02   -0.88728E-03  5912   0.444E-02    0.390E-01
RMM:   5    -0.233056346252E+04    0.55439E-03   -0.32120E-03  5351   0.252E-02    0.315E-01
RMM:   6    -0.233056321988E+04    0.24264E-03   -0.22271E-03  5348   0.216E-02    0.254E-01
RMM:   7    -0.233056269688E+04    0.52300E-03   -0.15054E-03  4648   0.196E-02    0.124E-01
RMM:   8    -0.233056246980E+04    0.22708E-03   -0.20480E-04  3245   0.794E-03    0.257E-02
RMM:   9    -0.233056246509E+04    0.47084E-05   -0.50203E-05  2989   0.539E-03
   6 F= -.23520718E+04 E0= -.23520718E+04  d E =-.157118E+00  mag=     2.0000
       N       E                     dE             d eps       ncg     rms          rms(c)
DAV:   1    -0.233039697384E+04    0.16550E+00   -0.37040E+01  4528   0.431E+00    0.164E+00
RMM:   2    -0.233073371817E+04   -0.33674E+00   -0.36598E+00  6288   0.103E+00    0.142E+00
RMM:   3    -0.233076440506E+04   -0.30687E-01   -0.41341E-01  6158   0.364E-01    0.162E+00
RMM:   4    -0.233073551894E+04    0.28886E-01   -0.43211E-02  6153   0.994E-02    0.844E-01
RMM:   5    -0.233073241668E+04    0.31023E-02   -0.15321E-02  5827   0.532E-02    0.684E-01
RMM:   6    -0.233073371363E+04   -0.12969E-02   -0.12143E-02  5594   0.484E-02    0.696E-01
RMM:   7    -0.233072858236E+04    0.51313E-02   -0.76218E-03  5669   0.427E-02    0.198E-01
RMM:   8    -0.233072804518E+04    0.53718E-03   -0.57704E-04  4247   0.130E-02    0.567E-02
RMM:   9    -0.233072802183E+04    0.23355E-04   -0.27637E-04  3550   0.103E-02    0.288E-02
RMM:  10    -0.233072805975E+04   -0.37925E-04   -0.11792E-04  3538   0.669E-03    0.127E-02
RMM:  11    -0.233072808492E+04   -0.25171E-04   -0.18531E-05  2936   0.494E-03    0.732E-03
RMM:  12    -0.233072810185E+04   -0.16922E-04   -0.11102E-05  2900   0.334E-03    0.480E-03
RMM:  13    -0.233072811356E+04   -0.11717E-04   -0.67672E-06  2858   0.327E-03    0.314E-03
RMM:  14    -0.233072812020E+04   -0.66335E-05   -0.58340E-06  2842   0.262E-03
   7 F= -.23522409E+04 E0= -.23522409E+04  d E =-.326289E+00  mag=     2.0000
       N       E                     dE             d eps       ncg     rms          rms(c)
DAV:   1    -0.233076808234E+04   -0.39969E-01   -0.11720E+01  4544   0.316E+00    0.125E+00
RMM:   2    -0.233089304516E+04   -0.12496E+00   -0.12555E+00  6059   0.701E-01    0.118E+00
RMM:   3    -0.233089802399E+04   -0.49788E-02   -0.14548E-01  5975   0.267E-01    0.117E+00
RMM:   4    -0.233088159372E+04    0.16430E-01   -0.16476E-02  5710   0.776E-02    0.471E-01
RMM:   5    -0.233088214140E+04   -0.54768E-03   -0.65089E-03  5470   0.464E-02    0.571E-01
RMM:   6    -0.233087921468E+04    0.29267E-02   -0.42252E-03  4991   0.372E-02    0.227E-01
RMM:   7    -0.233087881978E+04    0.39491E-03   -0.19439E-03  4834   0.285E-02    0.138E-01
RMM:   8    -0.233087852611E+04    0.29366E-03   -0.27260E-04  4401   0.102E-02    0.310E-02
RMM:   9    -0.233087849494E+04    0.31170E-04   -0.83584E-05  3217   0.780E-03    0.157E-02
RMM:  10    -0.233087848540E+04    0.95427E-05   -0.30650E-05  3168   0.529E-03
   8 F= -.23523919E+04 E0= -.23523919E+04  d E =-.151019E+00  mag=     2.0000
       N       E                     dE             d eps       ncg     rms          rms(c)
DAV:   1    -0.233085381786E+04    0.24677E-01   -0.59518E+00  4624   0.225E+00    0.890E-01
RMM:   2    -0.233091745835E+04   -0.63640E-01   -0.63012E-01  6067   0.503E-01    0.873E-01
RMM:   3    -0.233091905907E+04   -0.16007E-02   -0.72415E-02  5986   0.189E-01    0.827E-01
RMM:   4    -0.233091138672E+04    0.76723E-02   -0.84191E-03  5604   0.556E-02    0.383E-01
RMM:   5    -0.233091094572E+04    0.44100E-03   -0.32236E-03  5313   0.332E-02    0.360E-01
RMM:   6    -0.233090978803E+04    0.11577E-02   -0.21686E-03  4848   0.274E-02    0.159E-01
RMM:   7    -0.233090955776E+04    0.23027E-03   -0.92126E-04  4488   0.207E-02    0.891E-02
RMM:   8    -0.233090942910E+04    0.12866E-03   -0.12307E-04  3695   0.724E-03    0.216E-02
RMM:   9    -0.233090941274E+04    0.16358E-04   -0.39306E-05  2995   0.597E-03    0.113E-02
RMM:  10    -0.233090940720E+04    0.55349E-05   -0.19567E-05  2953   0.438E-03
   9 F= -.23524234E+04 E0= -.23524234E+04  d E =-.182455E+00  mag=     2.0000
       N       E                     dE             d eps       ncg     rms          rms(c)
DAV:   1    -0.233095487667E+04   -0.45464E-01   -0.56488E+00  4552   0.189E+00    0.723E-01
RMM:   2    -0.233101563459E+04   -0.60758E-01   -0.60247E-01  6073   0.431E-01    0.765E-01
RMM:   3    -0.233101620134E+04   -0.56675E-03   -0.65131E-02  6006   0.164E-01    0.627E-01
RMM:   4    -0.233101239833E+04    0.38030E-02   -0.75592E-03  5564   0.444E-02    0.383E-01
RMM:   5    -0.233101167289E+04    0.72543E-03   -0.25795E-03  5263   0.265E-02    0.300E-01
RMM:   6    -0.233101069136E+04    0.98153E-03   -0.20281E-03  4994   0.252E-02    0.107E-01
RMM:   7    -0.233101069397E+04   -0.26057E-05   -0.70004E-04  4161   0.176E-02    0.100E-01
RMM:   8    -0.233101053179E+04    0.16217E-03   -0.14595E-04  3379   0.707E-03    0.228E-02
RMM:   9    -0.233101052060E+04    0.11193E-04   -0.37956E-05  3034   0.489E-03    0.114E-02
RMM:  10    -0.233101052065E+04   -0.51499E-07   -0.13905E-05  2919   0.401E-03
  10 F= -.23525241E+04 E0= -.23525241E+04  d E =-.100710E+00  mag=     2.0000
       N       E                     dE             d eps       ncg     rms          rms(c)
DAV:   1    -0.233094343264E+04    0.67088E-01   -0.12843E+01  4512   0.284E+00    0.109E+00
RMM:   2    -0.233108441246E+04   -0.14098E+00   -0.13924E+00  6056   0.653E-01    0.118E+00
RMM:   3    -0.233108283366E+04    0.15788E-02   -0.14838E-01  5995   0.245E-01    0.901E-01
RMM:   4    -0.233107517547E+04    0.76582E-02   -0.17595E-02  5671   0.665E-02    0.600E-01
RMM:   5    -0.233107304777E+04    0.21277E-02   -0.57794E-03  5515   0.391E-02    0.439E-01
RMM:   6    -0.233107087776E+04    0.21700E-02   -0.46789E-03  4936   0.375E-02    0.157E-01
RMM:   7    -0.233107087744E+04    0.31384E-06   -0.15659E-03  4488   0.265E-02    0.148E-01
RMM:   8    -0.233107051600E+04    0.36144E-03   -0.32650E-04  4240   0.100E-02    0.338E-02
RMM:   9    -0.233107049346E+04    0.22536E-04   -0.85501E-05  3324   0.676E-03    0.174E-02
RMM:  10    -0.233107049681E+04   -0.33493E-05   -0.30885E-05  3243   0.529E-03
  11 F= -.23525835E+04 E0= -.23525835E+04  d E =-.160125E+00  mag=     2.0000
       N       E                     dE             d eps       ncg     rms          rms(c)
DAV:   1    -0.233108117647E+04   -0.10683E-01   -0.62806E+00  4544   0.190E+00    0.705E-01
RMM:   2    -0.233115087934E+04   -0.69703E-01   -0.74377E-01  6100   0.446E-01    0.466E-01
RMM:   3    -0.233115654995E+04   -0.56706E-02   -0.79006E-02  5930   0.177E-01    0.440E-01
RMM:   4    -0.233115479972E+04    0.17502E-02   -0.78153E-03  5940   0.425E-02    0.340E-01
RMM:   5    -0.233115501461E+04   -0.21489E-03   -0.25724E-03  5257   0.251E-02    0.349E-01
RMM:   6    -0.233115382119E+04    0.11934E-02   -0.18256E-03  5420   0.212E-02    0.146E-01
RMM:   7    -0.233115378367E+04    0.37520E-04   -0.61445E-04  4064   0.133E-02    0.106E-01
RMM:   8    -0.233115362712E+04    0.15655E-03   -0.23025E-04  3112   0.866E-03    0.328E-02
RMM:   9    -0.233115361832E+04    0.87979E-05   -0.30097E-05  2969   0.464E-03
  12 F= -.23526661E+04 E0= -.23526661E+04  d E =-.826342E-01  mag=     2.0000
       N       E                     dE             d eps       ncg     rms          rms(c)
DAV:   1    -0.233108429937E+04    0.69328E-01   -0.90134E+00  4512   0.229E+00    0.847E-01
RMM:   2    -0.233118610116E+04   -0.10180E+00   -0.10831E+00  6068   0.544E-01    0.567E-01
RMM:   3    -0.233119395601E+04   -0.78549E-02   -0.11552E-01  5922   0.214E-01    0.509E-01
RMM:   4    -0.233119122226E+04    0.27338E-02   -0.11394E-02  6080   0.518E-02    0.368E-01
RMM:   5    -0.233119139799E+04   -0.17573E-03   -0.36040E-03  5439   0.306E-02    0.387E-01
RMM:   6    -0.233119015600E+04    0.12420E-02   -0.23481E-03  5541   0.232E-02    0.207E-01
RMM:   7    -0.233118995848E+04    0.19752E-03   -0.84762E-04  4499   0.153E-02    0.122E-01
RMM:   8    -0.233118975283E+04    0.20565E-03   -0.31612E-04  3192   0.993E-03    0.399E-02
RMM:   9    -0.233118973580E+04    0.17033E-04   -0.41160E-05  2985   0.510E-03    0.188E-02
RMM:  10    -0.233118973679E+04   -0.99307E-06   -0.30789E-05  2948   0.399E-03
  13 F= -.23527017E+04 E0= -.23527017E+04  d E =-.118172E+00  mag=     2.0000
       N       E                     dE             d eps       ncg     rms          rms(c)
DAV:   1    -0.233111785283E+04    0.71883E-01   -0.95863E+00  4512   0.254E+00    0.963E-01
RMM:   2    -0.233124901033E+04   -0.13116E+00   -0.13785E+00  6096   0.612E-01    0.762E-01
RMM:   3    -0.233126854899E+04   -0.19539E-01   -0.16684E-01  5998   0.262E-01    0.131E+00
RMM:   4    -0.233125355746E+04    0.14992E-01   -0.16227E-02  6086   0.620E-02    0.356E-01
RMM:   5    -0.233125317654E+04    0.38092E-03   -0.53432E-03  5638   0.345E-02    0.368E-01
RMM:   6    -0.233125204579E+04    0.11308E-02   -0.32479E-03  5350   0.301E-02    0.207E-01
RMM:   7    -0.233125175292E+04    0.29288E-03   -0.15376E-03  4971   0.232E-02    0.144E-01
RMM:   8    -0.233125144550E+04    0.30742E-03   -0.25640E-04  3816   0.928E-03    0.280E-02
RMM:   9    -0.233125142734E+04    0.18152E-04   -0.50249E-05  3068   0.582E-03    0.170E-02
RMM:  10    -0.233125141826E+04    0.90822E-05   -0.29868E-05  3024   0.433E-03
  14 F= -.23527623E+04 E0= -.23527623E+04  d E =-.605954E-01  mag=     2.0000
       N       E                     dE             d eps       ncg     rms          rms(c)
DAV:   1    -0.233125074891E+04    0.67843E-03   -0.93202E-02  5120   0.251E-01    0.941E-02
RMM:   2    -0.233125200991E+04   -0.12610E-02   -0.13312E-02  6256   0.618E-02    0.724E-02
RMM:   3    -0.233125219260E+04   -0.18270E-03   -0.15638E-03  3745   0.253E-02    0.125E-01
RMM:   4    -0.233125205674E+04    0.13587E-03   -0.15455E-04  3012   0.747E-03    0.374E-02
RMM:   5    -0.233125205115E+04    0.55820E-05   -0.53681E-05  3023   0.420E-03
  15 F= -.23527628E+04 E0= -.23527628E+04  d E =-.611275E-01  mag=     2.0000
       N       E                     dE             d eps       ncg     rms          rms(c)
DAV:   1    -0.233125215207E+04   -0.95336E-04   -0.20914E+00  4544   0.139E+00    0.522E-01
RMM:   2    -0.233128588184E+04   -0.33730E-01   -0.35355E-01  6127   0.327E-01    0.381E-01
RMM:   3    -0.233129052554E+04   -0.46437E-02   -0.41171E-02  6015   0.140E-01    0.629E-01
RMM:   4    -0.233128704670E+04    0.34788E-02   -0.43881E-03  5808   0.335E-02    0.231E-01
RMM:   5    -0.233128659015E+04    0.45655E-03   -0.14389E-03  5257   0.196E-02    0.168E-01
RMM:   6    -0.233128632090E+04    0.26925E-03   -0.87625E-04  5065   0.190E-02    0.798E-02
RMM:   7    -0.233128634461E+04   -0.23712E-04   -0.35948E-04  3670   0.142E-02    0.871E-02
RMM:   8    -0.233128623405E+04    0.11056E-03   -0.66343E-05  2955   0.601E-03    0.132E-02
RMM:   9    -0.233128622992E+04    0.41239E-05   -0.14404E-05  2959   0.359E-03
  16 F= -.23527971E+04 E0= -.23527971E+04  d E =-.343084E-01  mag=     2.0000
       N       E                     dE             d eps       ncg     rms          rms(c)
DAV:   1    -0.233125884310E+04    0.27391E-01   -0.24664E+00  4544   0.151E+00    0.569E-01
RMM:   2    -0.233129890104E+04   -0.40058E-01   -0.41815E-01  6138   0.354E-01    0.429E-01
RMM:   3    -0.233130408097E+04   -0.51799E-02   -0.48039E-02  6036   0.150E-01    0.676E-01
RMM:   4    -0.233130008912E+04    0.39918E-02   -0.52445E-03  5939   0.364E-02    0.270E-01
RMM:   5    -0.233129940183E+04    0.68729E-03   -0.17301E-03  5394   0.213E-02    0.177E-01
RMM:   6    -0.233129902887E+04    0.37296E-03   -0.11064E-03  5012   0.215E-02    0.494E-02
RMM:   7    -0.233129907651E+04   -0.47637E-04   -0.22197E-04  4135   0.134E-02    0.702E-02
RMM:   8    -0.233129900451E+04    0.71999E-04   -0.83659E-05  2998   0.563E-03    0.200E-02
RMM:   9    -0.233129899769E+04    0.68174E-05   -0.15183E-05  2954   0.388E-03
  17 F= -.23528100E+04 E0= -.23528100E+04  d E =-.472250E-01  mag=     2.0000
       N       E                     dE             d eps       ncg     rms          rms(c)
DAV:   1    -0.233131030239E+04   -0.11298E-01   -0.92781E-01  4624   0.829E-01    0.328E-01
RMM:   2    -0.233132594650E+04   -0.15644E-01   -0.16380E-01  6281   0.207E-01    0.273E-01
RMM:   3    -0.233132675156E+04   -0.80506E-03   -0.16866E-02  5997   0.790E-02    0.229E-01
RMM:   4    -0.233132635893E+04    0.39263E-03   -0.18381E-03  4964   0.199E-02    0.200E-01
RMM:   5    -0.233132606494E+04    0.29399E-03   -0.49959E-04  3348   0.107E-02    0.121E-01
RMM:   6    -0.233132604627E+04    0.18672E-04   -0.44406E-04  4350   0.120E-02    0.976E-02
RMM:   7    -0.233132593129E+04    0.11497E-03   -0.21931E-04  3261   0.981E-03    0.370E-02
RMM:   8    -0.233132591145E+04    0.19841E-04   -0.22522E-05  2959   0.474E-03    0.987E-03
RMM:   9    -0.233132590910E+04    0.23510E-05   -0.60620E-06  2899   0.298E-03
  18 F= -.23528368E+04 E0= -.23528368E+04  d E =-.267645E-01  mag=     2.0000
       N       E                     dE             d eps       ncg     rms          rms(c)
DAV:   1    -0.233122749729E+04    0.98414E-01   -0.83538E+00  4528   0.249E+00    0.983E-01
RMM:   2    -0.233136744489E+04   -0.13995E+00   -0.14726E+00  6301   0.619E-01    0.817E-01
RMM:   3    -0.233137511879E+04   -0.76739E-02   -0.15531E-01  6206   0.236E-01    0.632E-01
RMM:   4    -0.233137027837E+04    0.48404E-02   -0.14767E-02  6138   0.579E-02    0.393E-01
RMM:   5    -0.233137021496E+04    0.63405E-04   -0.41895E-03  5468   0.285E-02    0.457E-01
RMM:   6    -0.233136942811E+04    0.78686E-03   -0.40449E-03  5573   0.315E-02    0.321E-01
RMM:   7    -0.233136843650E+04    0.99161E-03   -0.18133E-03  5020   0.236E-02    0.131E-01
RMM:   8    -0.233136818398E+04    0.25252E-03   -0.21242E-04  3720   0.953E-03    0.326E-02
RMM:   9    -0.233136815180E+04    0.32183E-04   -0.47599E-05  3038   0.609E-03    0.179E-02
RMM:  10    -0.233136814096E+04    0.10837E-04   -0.35678E-05  2952   0.476E-03    0.948E-03
RMM:  11    -0.233136813928E+04    0.16781E-05   -0.10249E-05  2913   0.395E-03
  19 F= -.23528786E+04 E0= -.23528786E+04  d E =-.685407E-01  mag=     2.0000
       N       E                     dE             d eps       ncg     rms          rms(c)
DAV:   1    -0.233136294446E+04    0.51965E-02   -0.40198E-01  4880   0.545E-01    0.214E-01
RMM:   2    -0.233136967991E+04   -0.67354E-02   -0.70192E-02  6301   0.136E-01    0.184E-01
RMM:   3    -0.233137004805E+04   -0.36814E-03   -0.73949E-03  5587   0.526E-02    0.160E-01
RMM:   4    -0.233136985083E+04    0.19722E-03   -0.80746E-04  3624   0.134E-02    0.136E-01
RMM:   5    -0.233136971515E+04    0.13568E-03   -0.22146E-04  3048   0.814E-03    0.797E-02
RMM:   6    -0.233136971309E+04    0.20549E-05   -0.20338E-04  3588   0.837E-03    0.689E-02
RMM:   7    -0.233136965274E+04    0.60351E-04   -0.10607E-04  3050   0.745E-03    0.233E-02
RMM:   8    -0.233136964442E+04    0.83191E-05   -0.12360E-05  2932   0.390E-03
  20 F= -.23528800E+04 E0= -.23528800E+04  d E =-.699424E-01  mag=     2.0000
       N       E                     dE             d eps       ncg     rms          rms(c)
DAV:   1    -0.233137082340E+04   -0.11707E-02   -0.19616E+00  4544   0.123E+00    0.484E-01
RMM:   2    -0.233140118812E+04   -0.30365E-01   -0.29052E-01  6105   0.295E-01    0.621E-01
RMM:   3    -0.233139997594E+04    0.12122E-02   -0.30924E-02  5979   0.114E-01    0.400E-01
RMM:   4    -0.233139926877E+04    0.70717E-03   -0.38927E-03  5475   0.311E-02    0.310E-01
RMM:   5    -0.233139839838E+04    0.87039E-03   -0.12298E-03  5037   0.191E-02    0.161E-01
RMM:   6    -0.233139819781E+04    0.20057E-03   -0.90610E-04  4829   0.180E-02    0.101E-01
RMM:   7    -0.233139810299E+04    0.94817E-04   -0.36106E-04  3751   0.134E-02    0.519E-02
RMM:   8    -0.233139805534E+04    0.47657E-04   -0.44783E-05  2967   0.509E-03    0.136E-02
RMM:   9    -0.233139804930E+04    0.60320E-05   -0.12743E-05  2942   0.359E-03
  21 F= -.23529079E+04 E0= -.23529079E+04  d E =-.279687E-01  mag=     2.0000
       N       E                     dE             d eps       ncg     rms          rms(c)
DAV:   1    -0.233137750925E+04    0.20546E-01   -0.22498E+00  4544   0.131E+00    0.518E-01
RMM:   2    -0.233141242946E+04   -0.34920E-01   -0.33330E-01  6115   0.315E-01    0.670E-01
RMM:   3    -0.233141088948E+04    0.15400E-02   -0.35430E-02  5978   0.123E-01    0.425E-01
RMM:   4    -0.233141012198E+04    0.76750E-03   -0.44965E-03  5536   0.334E-02    0.334E-01
RMM:   5    -0.233140908914E+04    0.10328E-02   -0.14200E-03  5156   0.205E-02    0.172E-01
RMM:   6    -0.233140884922E+04    0.23992E-03   -0.10393E-03  4844   0.192E-02    0.107E-01
RMM:   7    -0.233140874499E+04    0.10423E-03   -0.41902E-04  3891   0.142E-02    0.563E-02
RMM:   8    -0.233140868722E+04    0.57773E-04   -0.52575E-05  3042   0.538E-03    0.147E-02
RMM:   9    -0.233140867932E+04    0.78939E-05   -0.15673E-05  2951   0.383E-03
  22 F= -.23529181E+04 E0= -.23529181E+04  d E =-.381104E-01  mag=     2.0000
       N       E                     dE             d eps       ncg     rms          rms(c)
DAV:   1    -0.233137607580E+04    0.32611E-01   -0.33683E+00  4528   0.147E+00    0.584E-01
RMM:   2    -0.233143441428E+04   -0.58338E-01   -0.61070E-01  6342   0.365E-01    0.547E-01
RMM:   3    -0.233144060854E+04   -0.61943E-02   -0.73145E-02  6015   0.154E-01    0.635E-01
RMM:   4    -0.233143724232E+04    0.33662E-02   -0.66598E-03  5626   0.365E-02    0.280E-01
RMM:   5    -0.233143694116E+04    0.30116E-03   -0.17335E-03  4864   0.184E-02    0.236E-01
RMM:   6    -0.233143626886E+04    0.67230E-03   -0.13680E-03  5183   0.191E-02    0.779E-02
RMM:   7    -0.233143632961E+04   -0.60743E-04   -0.43913E-04  3712   0.132E-02    0.867E-02
RMM:   8    -0.233143622576E+04    0.10385E-03   -0.13970E-04  3034   0.692E-03    0.198E-02
RMM:   9    -0.233143621925E+04    0.65089E-05   -0.19593E-05  2970   0.396E-03
  23 F= -.23529446E+04 E0= -.23529446E+04  d E =-.264870E-01  mag=     2.0000
       N       E                     dE             d eps       ncg     rms          rms(c)
DAV:   1    -0.233140703572E+04    0.29190E-01   -0.20354E+00  4576   0.115E+00    0.454E-01
RMM:   2    -0.233144235821E+04   -0.35322E-01   -0.36961E-01  6337   0.285E-01    0.423E-01
RMM:   3    -0.233144607902E+04   -0.37208E-02   -0.44196E-02  5978   0.120E-01    0.489E-01
RMM:   4    -0.233144407795E+04    0.20011E-02   -0.40093E-03  5234   0.285E-02    0.219E-01
RMM:   5    -0.233144388376E+04    0.19420E-03   -0.10269E-03  4169   0.146E-02    0.182E-01
RMM:   6    -0.233144348492E+04    0.39883E-03   -0.82914E-04  4991   0.156E-02    0.610E-02
RMM:   7    -0.233144352347E+04   -0.38550E-04   -0.27785E-04  3380   0.109E-02    0.685E-02
RMM:   8    -0.233144345821E+04    0.65259E-04   -0.85820E-05  2990   0.615E-03    0.152E-02
RMM:   9    -0.233144345456E+04    0.36514E-05   -0.13731E-05  2952   0.340E-03
  24 F= -.23529510E+04 E0= -.23529510E+04  d E =-.329209E-01  mag=     2.0000
       N       E                     dE             d eps       ncg     rms          rms(c)
DAV:   1    -0.233139030507E+04    0.53153E-01   -0.33441E+00  4544   0.146E+00    0.588E-01
RMM:   2    -0.233145649792E+04   -0.66193E-01   -0.72773E-01  6343   0.382E-01    0.308E-01
RMM:   3    -0.233146281148E+04   -0.63136E-02   -0.80904E-02  5820   0.160E-01    0.206E-01
RMM:   4    -0.233146342250E+04   -0.61102E-03   -0.68636E-03  5412   0.330E-02    0.252E-01
RMM:   5    -0.233146288989E+04    0.53261E-03   -0.15167E-03  4936   0.209E-02    0.176E-01
RMM:   6    -0.233146288707E+04    0.28155E-05   -0.79100E-04  4347   0.137E-02    0.167E-01
RMM:   7    -0.233146265163E+04    0.23545E-03   -0.25674E-04  3283   0.952E-03    0.558E-02
RMM:   8    -0.233146261910E+04    0.32522E-04   -0.76810E-05  2948   0.599E-03    0.316E-02
RMM:   9    -0.233146260546E+04    0.13645E-04   -0.15128E-05  2910   0.344E-03    0.131E-02
RMM:  10    -0.233146260491E+04    0.54743E-06   -0.12413E-05  2941   0.273E-03
  25 F= -.23529695E+04 E0= -.23529695E+04  d E =-.185295E-01  mag=     2.0000
       N       E                     dE             d eps       ncg     rms          rms(c)
DAV:   1    -0.233145728942E+04    0.53160E-02   -0.30752E-01  4704   0.443E-01    0.179E-01
RMM:   2    -0.233146336718E+04   -0.60778E-02   -0.66740E-02  6409   0.116E-01    0.940E-02
RMM:   3    -0.233146394583E+04   -0.57864E-03   -0.74445E-03  4910   0.488E-02    0.643E-02
RMM:   4    -0.233146399138E+04   -0.45556E-04   -0.62601E-04  3172   0.102E-02    0.725E-02
RMM:   5    -0.233146394466E+04    0.46721E-04   -0.13779E-04  3024   0.760E-03    0.430E-02
RMM:   6    -0.233146395186E+04   -0.72037E-05   -0.84230E-05  3007   0.619E-03
  26 F= -.23529707E+04 E0= -.23529707E+04  d E =-.196924E-01  mag=     2.0000
       N       E                     dE             d eps       ncg     rms          rms(c)
DAV:   1    -0.233138893212E+04    0.75013E-01   -0.41300E+00  4528   0.155E+00    0.646E-01
RMM:   2    -0.233147826133E+04   -0.89329E-01   -0.96186E-01  6325   0.403E-01    0.545E-01
RMM:   3    -0.233149116685E+04   -0.12906E-01   -0.10741E-01  6033   0.169E-01    0.871E-01
RMM:   4    -0.233148486938E+04    0.62975E-02   -0.10117E-02  5624   0.409E-02    0.236E-01
RMM:   5    -0.233148490130E+04   -0.31920E-04   -0.18393E-03  5024   0.186E-02    0.241E-01
RMM:   6    -0.233148407948E+04    0.82182E-03   -0.13264E-03  5284   0.181E-02    0.872E-02
RMM:   7    -0.233148404556E+04    0.33920E-04   -0.36614E-04  4273   0.121E-02    0.455E-02
RMM:   8    -0.233148402833E+04    0.17231E-04   -0.94989E-05  2982   0.644E-03    0.318E-02
RMM:   9    -0.233148400981E+04    0.18522E-04   -0.17936E-05  2913   0.412E-03    0.111E-02
RMM:  10    -0.233148400537E+04    0.44333E-05   -0.13629E-05  2937   0.263E-03
  27 F= -.23529902E+04 E0= -.23529902E+04  d E =-.195427E-01  mag=     2.0000
       N       E                     dE             d eps       ncg     rms          rms(c)
DAV:   1    -0.233141152768E+04    0.72482E-01   -0.34018E+00  4528   0.141E+00    0.583E-01
RMM:   2    -0.233148467269E+04   -0.73145E-01   -0.79142E-01  6336   0.366E-01    0.443E-01
RMM:   3    -0.233149523615E+04   -0.10563E-01   -0.86583E-02  5976   0.152E-01    0.762E-01
RMM:   4    -0.233149047998E+04    0.47562E-02   -0.82722E-03  5469   0.363E-02    0.207E-01
RMM:   5    -0.233149055035E+04   -0.70362E-04   -0.14626E-03  4939   0.168E-02    0.220E-01
RMM:   6    -0.233148987703E+04    0.67331E-03   -0.10688E-03  5229   0.163E-02    0.836E-02
RMM:   7    -0.233148983216E+04    0.44874E-04   -0.30690E-04  4111   0.108E-02    0.401E-02
RMM:   8    -0.233148981852E+04    0.13640E-04   -0.73159E-05  2963   0.616E-03    0.290E-02
RMM:   9    -0.233148980318E+04    0.15340E-04   -0.15122E-05  2911   0.384E-03    0.102E-02
RMM:  10    -0.233148979916E+04    0.40234E-05   -0.11705E-05  2926   0.254E-03
  28 F= -.23529956E+04 E0= -.23529956E+04  d E =-.249037E-01  mag=     2.0000
       N       E                     dE             d eps       ncg     rms          rms(c)
DAV:   1    -0.233146098786E+04    0.28815E-01   -0.18243E+00  4560   0.934E-01    0.406E-01
RMM:   2    -0.233150030437E+04   -0.39317E-01   -0.43146E-01  6509   0.247E-01    0.224E-01
RMM:   3    -0.233150481995E+04   -0.45156E-02   -0.46063E-02  5629   0.105E-01    0.328E-01
RMM:   4    -0.233150427623E+04    0.54372E-03   -0.42146E-03  3645   0.212E-02    0.154E-01
RMM:   5    -0.233150418355E+04    0.92678E-04   -0.53936E-04  3752   0.107E-02    0.134E-01
RMM:   6    -0.233150399767E+04    0.18589E-03   -0.42797E-04  3446   0.103E-02    0.711E-02
RMM:   7    -0.233150396979E+04    0.27876E-04   -0.17142E-04  3259   0.743E-03    0.394E-02
RMM:   8    -0.233150395011E+04    0.19683E-04   -0.43980E-05  2920   0.546E-03    0.169E-02
RMM:   9    -0.233150394464E+04    0.54679E-05   -0.67278E-06  2777   0.237E-03
  29 F= -.23530097E+04 E0= -.23530097E+04  d E =-.140618E-01  mag=     2.0000
       N       E                     dE             d eps       ncg     rms          rms(c)
DAV:   1    -0.233113837603E+04    0.36557E+00   -0.16377E+01  4512   0.280E+00    0.124E+00
RMM:   2    -0.233149795375E+04   -0.35958E+00   -0.39527E+00  6536   0.754E-01    0.651E-01
RMM:   3    -0.233153479237E+04   -0.36839E-01   -0.45066E-01  5970   0.327E-01    0.562E-01
RMM:   4    -0.233153817069E+04   -0.33783E-02   -0.38950E-02  5835   0.622E-02    0.647E-01
RMM:   5    -0.233153465264E+04    0.35180E-02   -0.40952E-03  5103   0.264E-02    0.337E-01
RMM:   6    -0.233153513844E+04   -0.48580E-03   -0.40010E-03  5389   0.265E-02    0.368E-01
RMM:   7    -0.233153340265E+04    0.17358E-02   -0.23492E-03  5341   0.212E-02    0.880E-02
RMM:   8    -0.233153345035E+04   -0.47698E-04   -0.51093E-04  3576   0.122E-02    0.107E-01
RMM:   9    -0.233153330629E+04    0.14406E-03   -0.13396E-04  3009   0.722E-03    0.472E-02
RMM:  10    -0.233153327310E+04    0.33185E-04   -0.75738E-05  2999   0.474E-03    0.162E-02
RMM:  11    -0.233153326936E+04    0.37385E-05   -0.25380E-05  2949   0.379E-03
  30 F= -.23530388E+04 E0= -.23530388E+04  d E =-.432189E-01  mag=     2.0000
       N       E                     dE             d eps       ncg     rms          rms(c)
DAV:   1    -0.232985385444E+04    0.16794E+01   -0.65096E+01  4496   0.566E+00    0.258E+00
RMM:   2    -0.233141516633E+04   -0.15613E+01   -0.17005E+01  6575   0.159E+00    0.166E+00
RMM:   3    -0.233154915534E+04   -0.13399E+00   -0.18232E+00  6050   0.642E-01    0.164E+00
RMM:   4    -0.233155196895E+04   -0.28136E-02   -0.16356E-01  6100   0.132E-01    0.152E+00
RMM:   5    -0.233153405912E+04    0.17910E-01   -0.21307E-02  5864   0.599E-02    0.664E-01
RMM:   6    -0.233153124170E+04    0.28174E-02   -0.21784E-02  5762   0.609E-02    0.507E-01
RMM:   7    -0.233152813726E+04    0.31044E-02   -0.69969E-03  5936   0.391E-02    0.163E-01
RMM:   8    -0.233152854244E+04   -0.40519E-03   -0.15605E-03  5198   0.186E-02    0.225E-01
RMM:   9    -0.233152812025E+04    0.42220E-03   -0.49979E-04  3449   0.127E-02    0.153E-01
RMM:  10    -0.233152787145E+04    0.24880E-03   -0.31600E-04  3237   0.886E-03    0.502E-02
RMM:  11    -0.233152783441E+04    0.37043E-04   -0.15444E-04  3104   0.645E-03    0.131E-02
RMM:  12    -0.233152783471E+04   -0.30141E-06   -0.23826E-05  2972   0.451E-03
  31 F= -.23530334E+04 E0= -.23530334E+04  d E =-.378092E-01  mag=     2.0000
       N       E                     dE             d eps       ncg     rms          rms(c)
DAV:   1    -0.233101207904E+04    0.51576E+00   -0.21974E+01  4512   0.327E+00    0.148E+00
RMM:   2    -0.233151585261E+04   -0.50377E+00   -0.54190E+00  6567   0.925E-01    0.129E+00
RMM:   3    -0.233156234874E+04   -0.46496E-01   -0.60043E-01  6151   0.364E-01    0.147E+00
RMM:   4    -0.233155007537E+04    0.12273E-01   -0.58867E-02  6025   0.871E-02    0.784E-01
RMM:   5    -0.233154517780E+04    0.48976E-02   -0.84034E-03  5588   0.367E-02    0.476E-01
RMM:   6    -0.233154375442E+04    0.14234E-02   -0.59031E-03  5346   0.344E-02    0.385E-01
RMM:   7    -0.233154259348E+04    0.11609E-02   -0.56153E-03  5699   0.320E-02    0.231E-01
RMM:   8    -0.233154192592E+04    0.66756E-03   -0.10862E-03  4988   0.163E-02    0.652E-02
RMM:   9    -0.233154188501E+04    0.40907E-04   -0.12781E-04  3208   0.685E-03    0.541E-02
RMM:  10    -0.233154183833E+04    0.46685E-04   -0.10669E-04  2972   0.652E-03    0.151E-02
RMM:  11    -0.233154183493E+04    0.33943E-05   -0.40330E-05  2995   0.428E-03
  32 F= -.23530473E+04 E0= -.23530473E+04  d E =-.517387E-01  mag=     2.0000
       N       E                     dE             d eps       ncg     rms          rms(c)
DAV:   1    -0.233145360603E+04    0.88232E-01   -0.50806E+00  4512   0.160E+00    0.685E-01
RMM:   2    -0.233156043566E+04   -0.10683E+00   -0.11391E+00  6465   0.415E-01    0.630E-01
RMM:   3    -0.233157246864E+04   -0.12033E-01   -0.12287E-01  6023   0.176E-01    0.766E-01
RMM:   4    -0.233156764339E+04    0.48253E-02   -0.11936E-02  5493   0.411E-02    0.306E-01
RMM:   5    -0.233156728013E+04    0.36325E-03   -0.18141E-03  4661   0.176E-02    0.241E-01
RMM:   6    -0.233156650443E+04    0.77571E-03   -0.11597E-03  4889   0.161E-02    0.104E-01
RMM:   7    -0.233156643081E+04    0.73619E-04   -0.62805E-04  4530   0.129E-02    0.311E-02
RMM:   8    -0.233156642504E+04    0.57671E-05   -0.63108E-05  2955   0.702E-03
  33 F= -.23530718E+04 E0= -.23530718E+04  d E =-.244827E-01  mag=     2.0000
       N       E                     dE             d eps       ncg     rms          rms(c)
DAV:   1    -0.233054436388E+04    0.10221E+01   -0.45626E+01  4512   0.483E+00    0.217E+00
RMM:   2    -0.233159817682E+04   -0.10538E+01   -0.10897E+01  6493   0.130E+00    0.276E+00
RMM:   3    -0.233164752086E+04   -0.49344E-01   -0.12023E+00  6113   0.532E-01    0.210E+00
RMM:   4    -0.233161482342E+04    0.32697E-01   -0.11887E-01  6263   0.130E-01    0.102E+00
RMM:   5    -0.233160743384E+04    0.73896E-02   -0.18323E-02  6035   0.563E-02    0.700E-01
RMM:   6    -0.233160381669E+04    0.36172E-02   -0.10933E-02  5786   0.451E-02    0.533E-01
RMM:   7    -0.233160162527E+04    0.21914E-02   -0.11072E-02  5906   0.453E-02    0.341E-01
RMM:   8    -0.233160039654E+04    0.12287E-02   -0.20528E-03  5261   0.234E-02    0.738E-02
RMM:   9    -0.233160036350E+04    0.33043E-04   -0.19953E-04  3450   0.838E-03    0.751E-02
RMM:  10    -0.233160028421E+04    0.79290E-04   -0.17507E-04  3142   0.769E-03    0.171E-02
RMM:  11    -0.233160028025E+04    0.39590E-05   -0.55450E-05  2992   0.526E-03
  34 F= -.23531054E+04 E0= -.23531054E+04  d E =-.580349E-01  mag=     2.0000
       N       E                     dE             d eps       ncg     rms          rms(c)
DAV:   1    -0.233141123684E+04    0.18905E+00   -0.10183E+01  4512   0.225E+00    0.995E-01
RMM:   2    -0.233164077586E+04   -0.22954E+00   -0.23132E+00  6485   0.602E-01    0.146E+00
RMM:   3    -0.233164568681E+04   -0.49110E-02   -0.25349E-01  6077   0.245E-01    0.925E-01
RMM:   4    -0.233163975456E+04    0.59323E-02   -0.25139E-02  5962   0.577E-02    0.438E-01
RMM:   5    -0.233163844520E+04    0.13094E-02   -0.33958E-03  5364   0.248E-02    0.319E-01
RMM:   6    -0.233163731724E+04    0.11280E-02   -0.23671E-03  5259   0.224E-02    0.192E-01
RMM:   7    -0.233163722302E+04    0.94218E-04   -0.18852E-03  5141   0.204E-02    0.141E-01
RMM:   8    -0.233163696133E+04    0.26169E-03   -0.38027E-04  3640   0.106E-02    0.309E-02
RMM:   9    -0.233163694230E+04    0.19031E-04   -0.39374E-05  3006   0.528E-03    0.230E-02
RMM:  10    -0.233163693096E+04    0.11331E-04   -0.38465E-05  2942   0.385E-03    0.597E-03
RMM:  11    -0.233163693108E+04   -0.11678E-06   -0.81837E-06  2920   0.284E-03
  35 F= -.23531416E+04 E0= -.23531416E+04  d E =-.361844E-01  mag=     2.0000
       N       E                     dE             d eps       ncg     rms          rms(c)
DAV:   1    -0.232983662347E+04    0.18003E+01   -0.78969E+01  4512   0.632E+00    0.309E+00
RMM:   2    -0.233198868501E+04   -0.21521E+01   -0.20252E+01  6558   0.176E+00    0.582E+00
RMM:   3    -0.233172381189E+04    0.26487E+00   -0.21738E+00  5989   0.715E-01    0.195E+00
RMM:   4    -0.233171630320E+04    0.75087E-02   -0.25876E-01  6330   0.182E-01    0.154E+00
RMM:   5    -0.233169120994E+04    0.25093E-01   -0.37528E-02  6213   0.815E-02    0.897E-01
RMM:   6    -0.233169082081E+04    0.38913E-03   -0.21134E-02  5941   0.606E-02    0.928E-01
RMM:   7    -0.233168019438E+04    0.10626E-01   -0.19381E-02  5811   0.602E-02    0.257E-01
RMM:   8    -0.233168022056E+04   -0.26176E-04   -0.23035E-03  5177   0.257E-02    0.159E-01
RMM:   9    -0.233167999855E+04    0.22200E-03   -0.43252E-04  3953   0.130E-02    0.484E-02
RMM:  10    -0.233167995495E+04    0.43608E-04   -0.16140E-04  3452   0.744E-03    0.221E-02
RMM:  11    -0.233167994960E+04    0.53414E-05   -0.44701E-05  2997   0.574E-03
  36 F= -.23531831E+04 E0= -.23531831E+04  d E =-.777169E-01  mag=     2.0000
       N       E                     dE             d eps       ncg     rms          rms(c)
DAV:   1    -0.233141693804E+04    0.26302E+00   -0.13191E+01  4544   0.244E+00    0.108E+00
RMM:   2    -0.233171572440E+04   -0.29879E+00   -0.30624E+00  6585   0.665E-01    0.145E+00
RMM:   3    -0.233172853758E+04   -0.12813E-01   -0.32240E-01  6096   0.263E-01    0.105E+00
RMM:   4    -0.233171990811E+04    0.86295E-02   -0.31448E-02  5870   0.630E-02    0.408E-01
RMM:   5    -0.233171903691E+04    0.87120E-03   -0.40702E-03  5441   0.255E-02    0.360E-01
RMM:   6    -0.233171778301E+04    0.12539E-02   -0.33302E-03  5526   0.250E-02    0.216E-01
RMM:   7    -0.233171774772E+04    0.35293E-04   -0.20128E-03  4923   0.194E-02    0.184E-01
RMM:   8    -0.233171731209E+04    0.43563E-03   -0.55870E-04  3476   0.116E-02    0.419E-02
RMM:   9    -0.233171728160E+04    0.30486E-04   -0.55304E-05  3031   0.536E-03    0.296E-02
RMM:  10    -0.233171726595E+04    0.15648E-04   -0.48438E-05  2962   0.418E-03    0.763E-03
RMM:  11    -0.233171726599E+04   -0.40091E-07   -0.10355E-05  2926   0.306E-03
  37 F= -.23532191E+04 E0= -.23532191E+04  d E =-.359847E-01  mag=     2.0000
       N       E                     dE             d eps       ncg     rms          rms(c)
DAV:   1    -0.232996815585E+04    0.17491E+01   -0.74737E+01  4512   0.583E+00    0.293E+00
RMM:   2    -0.233203605916E+04   -0.20679E+01   -0.19583E+01  6627   0.167E+00    0.555E+00
RMM:   3    -0.233179424549E+04    0.24181E+00   -0.20887E+00  6039   0.681E-01    0.185E+00
RMM:   4    -0.233178811246E+04    0.61330E-02   -0.24263E-01  6239   0.171E-01    0.140E+00
RMM:   5    -0.233176738729E+04    0.20725E-01   -0.32448E-02  6090   0.741E-02    0.906E-01
RMM:   6    -0.233176584770E+04    0.15396E-02   -0.20730E-02  5943   0.578E-02    0.844E-01
RMM:   7    -0.233175686855E+04    0.89791E-02   -0.15581E-02  5877   0.532E-02    0.263E-01
RMM:   8    -0.233175694847E+04   -0.79914E-04   -0.24767E-03  5196   0.221E-02    0.187E-01
RMM:   9    -0.233175666878E+04    0.27969E-03   -0.48169E-04  3855   0.133E-02    0.503E-02
RMM:  10    -0.233175663649E+04    0.32286E-04   -0.14633E-04  3350   0.683E-03    0.263E-02
RMM:  11    -0.233175662969E+04    0.67962E-05   -0.42472E-05  2970   0.554E-03
  38 F= -.23532553E+04 E0= -.23532553E+04  d E =-.722022E-01  mag=     2.0000
       N       E                     dE             d eps       ncg     rms          rms(c)
DAV:   1    -0.233157316059E+04    0.18348E+00   -0.10098E+01  4544   0.234E+00    0.951E-01
RMM:   2    -0.233177845897E+04   -0.20530E+00   -0.21727E+00  6413   0.596E-01    0.868E-01
RMM:   3    -0.233179910999E+04   -0.20651E-01   -0.22684E-01  6086   0.237E-01    0.106E+00
RMM:   4    -0.233178953379E+04    0.95762E-02   -0.23669E-02  6051   0.583E-02    0.346E-01
RMM:   5    -0.233178817398E+04    0.13598E-02   -0.32235E-03  5346   0.267E-02    0.196E-01
RMM:   6    -0.233178867204E+04   -0.49807E-03   -0.19769E-03  5332   0.221E-02    0.263E-01
RMM:   7    -0.233178780558E+04    0.86647E-03   -0.11376E-03  5308   0.174E-02    0.649E-02
RMM:   8    -0.233178777647E+04    0.29111E-04   -0.14506E-04  3092   0.731E-03    0.560E-02
RMM:   9    -0.233178774233E+04    0.34140E-04   -0.56047E-05  2946   0.509E-03    0.303E-02
RMM:  10    -0.233178772699E+04    0.15340E-04   -0.36598E-05  2939   0.374E-03    0.697E-03
RMM:  11    -0.233178772648E+04    0.51326E-06   -0.77198E-06  2928   0.280E-03
  39 F= -.23532851E+04 E0= -.23532851E+04  d E =-.298114E-01  mag=     2.0000
       N       E                     dE             d eps       ncg     rms          rms(c)
DAV:   1    -0.233171463250E+04    0.73094E-01   -0.37304E+00  4592   0.142E+00    0.571E-01
RMM:   2    -0.233178857791E+04   -0.73945E-01   -0.79245E-01  6401   0.358E-01    0.403E-01
RMM:   3    -0.233179705659E+04   -0.84787E-02   -0.81075E-02  6030   0.142E-01    0.590E-01
RMM:   4    -0.233179415800E+04    0.28986E-02   -0.86109E-03  5398   0.340E-02    0.217E-01
RMM:   5    -0.233179404159E+04    0.11641E-03   -0.13896E-03  4911   0.168E-02    0.209E-01
RMM:   6    -0.233179359514E+04    0.44645E-03   -0.76394E-04  4589   0.137E-02    0.110E-01
RMM:   7    -0.233179357228E+04    0.22864E-04   -0.54226E-04  4506   0.125E-02    0.877E-02
RMM:   8    -0.233179346868E+04    0.10360E-03   -0.14156E-04  3063   0.782E-03    0.229E-02
RMM:   9    -0.233179345695E+04    0.11732E-04   -0.17864E-05  2940   0.387E-03    0.153E-02
RMM:  10    -0.233179345262E+04    0.43317E-05   -0.12245E-05  2933   0.279E-03
  40 F= -.23532901E+04 E0= -.23532901E+04  d E =-.347882E-01  mag=     2.0000
       N       E                     dE             d eps       ncg     rms          rms(c)
DAV:   1    -0.233170053474E+04    0.92922E-01   -0.57625E+00  4528   0.176E+00    0.687E-01
RMM:   2    -0.233181067282E+04   -0.11014E+00   -0.11901E+00  6510   0.430E-01    0.386E-01
RMM:   3    -0.233182133303E+04   -0.10660E-01   -0.12310E-01  5911   0.166E-01    0.419E-01
RMM:   4    -0.233182102287E+04    0.31016E-03   -0.12566E-02  5277   0.359E-02    0.287E-01
RMM:   5    -0.233182069420E+04    0.32867E-03   -0.15264E-03  4561   0.180E-02    0.249E-01
RMM:   6    -0.233182008391E+04    0.61028E-03   -0.14936E-03  5219   0.183E-02    0.136E-01
RMM:   7    -0.233181991673E+04    0.16718E-03   -0.65378E-04  4878   0.133E-02    0.659E-02
RMM:   8    -0.233181992154E+04   -0.48011E-05   -0.13333E-04  2992   0.798E-03    0.657E-02
RMM:   9    -0.233181986095E+04    0.60587E-04   -0.40591E-05  2928   0.442E-03    0.236E-02
RMM:  10    -0.233181985248E+04    0.84672E-05   -0.23624E-05  2945   0.325E-03
  41 F= -.23533150E+04 E0= -.23533150E+04  d E =-.249731E-01  mag=     2.0000
       N       E                     dE             d eps       ncg     rms          rms(c)
DAV:   1    -0.233163191786E+04    0.18794E+00   -0.96650E+00  4528   0.227E+00    0.894E-01
RMM:   2    -0.233181737631E+04   -0.18546E+00   -0.20048E+00  6518   0.561E-01    0.491E-01
RMM:   3    -0.233183443019E+04   -0.17054E-01   -0.20899E-01  5933   0.217E-01    0.418E-01
RMM:   4    -0.233183451605E+04   -0.85869E-04   -0.20873E-02  5760   0.475E-02    0.320E-01
RMM:   5    -0.233183383551E+04    0.68054E-03   -0.25037E-03  4933   0.228E-02    0.301E-01
RMM:   6    -0.233183380300E+04    0.32516E-04   -0.23736E-03  5368   0.224E-02    0.293E-01
RMM:   7    -0.233183298442E+04    0.81858E-03   -0.10866E-03  5116   0.161E-02    0.841E-02
RMM:   8    -0.233183301311E+04   -0.28689E-04   -0.24338E-04  3018   0.946E-03    0.958E-02
RMM:   9    -0.233183289707E+04    0.11604E-03   -0.78649E-05  2960   0.569E-03    0.400E-02
RMM:  10    -0.233183287541E+04    0.21660E-04   -0.47956E-05  2960   0.434E-03    0.887E-03
RMM:  11    -0.233183287505E+04    0.36378E-06   -0.12199E-05  2919   0.316E-03
  42 F= -.23533263E+04 E0= -.23533263E+04  d E =-.362457E-01  mag=     2.0000
       N       E                     dE             d eps       ncg     rms          rms(c)
DAV:   1    -0.233175975330E+04    0.73122E-01   -0.46323E+00  4576   0.164E+00    0.633E-01
RMM:   2    -0.233185083682E+04   -0.91084E-01   -0.95821E-01  6400   0.399E-01    0.515E-01
RMM:   3    -0.233185905949E+04   -0.82227E-02   -0.97283E-02  6049   0.157E-01    0.549E-01
RMM:   4    -0.233185641897E+04    0.26405E-02   -0.10437E-02  5748   0.369E-02    0.286E-01
RMM:   5    -0.233185616598E+04    0.25300E-03   -0.14431E-03  4093   0.169E-02    0.262E-01
RMM:   6    -0.233185546273E+04    0.70325E-03   -0.13970E-03  5025   0.180E-02    0.128E-01
RMM:   7    -0.233185546985E+04   -0.71247E-05   -0.77618E-04  4377   0.144E-02    0.104E-01
RMM:   8    -0.233185532323E+04    0.14663E-03   -0.25551E-04  3446   0.884E-03    0.384E-02
RMM:   9    -0.233185530336E+04    0.19871E-04   -0.26941E-05  2938   0.519E-03    0.190E-02
RMM:  10    -0.233185529932E+04    0.40380E-05   -0.20768E-05  2918   0.296E-03
  43 F= -.23533478E+04 E0= -.23533478E+04  d E =-.214791E-01  mag=     2.0000
       N       E                     dE             d eps       ncg     rms          rms(c)
DAV:   1    -0.233172211635E+04    0.13319E+00   -0.70142E+00  4520   0.202E+00    0.780E-01
RMM:   2    -0.233186052249E+04   -0.13841E+00   -0.14565E+00  6426   0.494E-01    0.630E-01
RMM:   3    -0.233187272401E+04   -0.12202E-01   -0.14876E-01  6060   0.192E-01    0.653E-01
RMM:   4    -0.233186887154E+04    0.38525E-02   -0.15745E-02  5992   0.453E-02    0.349E-01
RMM:   5    -0.233186855401E+04    0.31753E-03   -0.21827E-03  4678   0.204E-02    0.331E-01
RMM:   6    -0.233186743533E+04    0.11187E-02   -0.21011E-03  5292   0.216E-02    0.155E-01
RMM:   7    -0.233186745443E+04   -0.19098E-04   -0.11587E-03  4772   0.170E-02    0.128E-01
RMM:   8    -0.233186724237E+04    0.21206E-03   -0.41429E-04  4015   0.106E-02    0.535E-02
RMM:   9    -0.233186720666E+04    0.35705E-04   -0.41767E-05  2955   0.555E-03    0.262E-02
RMM:  10    -0.233186719876E+04    0.79004E-05   -0.33069E-05  2935   0.357E-03
  44 F= -.23533586E+04 E0= -.23533586E+04  d E =-.322860E-01  mag=     2.0000
       N       E                     dE             d eps       ncg     rms          rms(c)
DAV:   1    -0.233182821733E+04    0.38989E-01   -0.28877E+00  4576   0.140E+00    0.531E-01
RMM:   2    -0.233188899424E+04   -0.60777E-01   -0.61510E-01  6305   0.341E-01    0.582E-01
RMM:   3    -0.233189125067E+04   -0.22564E-02   -0.66133E-02  6068   0.142E-01    0.410E-01
RMM:   4    -0.233188954253E+04    0.17081E-02   -0.64500E-03  5520   0.315E-02    0.237E-01
RMM:   5    -0.233188934782E+04    0.19471E-03   -0.91060E-04  3591   0.141E-02    0.213E-01
RMM:   6    -0.233188879909E+04    0.54873E-03   -0.92927E-04  4947   0.162E-02    0.709E-02
RMM:   7    -0.233188880541E+04   -0.63206E-05   -0.35955E-04  4177   0.119E-02    0.469E-02
RMM:   8    -0.233188878299E+04    0.22420E-04   -0.84167E-05  2965   0.636E-03    0.299E-02
RMM:   9    -0.233188876880E+04    0.14195E-04   -0.17206E-05  2912   0.407E-03    0.127E-02
RMM:  10    -0.233188876786E+04    0.94001E-06   -0.18100E-05  2939   0.269E-03
  45 F= -.23533795E+04 E0= -.23533795E+04  d E =-.208850E-01  mag=     2.0000
       N       E                     dE             d eps       ncg     rms          rms(c)
DAV:   1    -0.233174850617E+04    0.14026E+00   -0.73872E+00  4512   0.225E+00    0.851E-01
RMM:   2    -0.233190537841E+04   -0.15687E+00   -0.15877E+00  6298   0.555E-01    0.928E-01
RMM:   3    -0.233191025590E+04   -0.48775E-02   -0.17275E-01  6111   0.230E-01    0.615E-01
RMM:   4    -0.233190600309E+04    0.42528E-02   -0.16087E-02  5937   0.500E-02    0.336E-01
RMM:   5    -0.233190604325E+04   -0.40160E-04   -0.23230E-03  4995   0.218E-02    0.381E-01
RMM:   6    -0.233190442754E+04    0.16157E-02   -0.23273E-03  5375   0.239E-02    0.116E-01
RMM:   7    -0.233190435630E+04    0.71238E-04   -0.85130E-04  4683   0.167E-02    0.385E-02
RMM:   8    -0.233190433434E+04    0.21960E-04   -0.62223E-05  3109   0.748E-03    0.261E-02
RMM:   9    -0.233190432416E+04    0.10182E-04   -0.49485E-05  2989   0.525E-03    0.124E-02
RMM:  10    -0.233190432532E+04   -0.11667E-05   -0.16296E-05  2931   0.373E-03
  46 F= -.23533940E+04 E0= -.23533940E+04  d E =-.353957E-01  mag=     2.0000
       N       E                     dE             d eps       ncg     rms          rms(c)
DAV:   1    -0.233184752907E+04    0.56795E-01   -0.39308E+00  4560   0.171E+00    0.628E-01
RMM:   2    -0.233192784806E+04   -0.80319E-01   -0.80486E-01  6361   0.413E-01    0.698E-01
RMM:   3    -0.233192925143E+04   -0.14034E-02   -0.83326E-02  6159   0.164E-01    0.429E-01
RMM:   4    -0.233192679270E+04    0.24587E-02   -0.77858E-03  5667   0.361E-02    0.192E-01
RMM:   5    -0.233192677282E+04    0.19882E-04   -0.13397E-03  5273   0.195E-02    0.229E-01
RMM:   6    -0.233192640699E+04    0.36583E-03   -0.95945E-04  4766   0.156E-02    0.155E-01
RMM:   7    -0.233192630758E+04    0.99403E-04   -0.48643E-04  4163   0.118E-02    0.828E-02
RMM:   8    -0.233192621284E+04    0.94744E-04   -0.12623E-04  2988   0.747E-03    0.249E-02
RMM:   9    -0.233192620064E+04    0.12203E-04   -0.20436E-05  2943   0.370E-03    0.139E-02
RMM:  10    -0.233192619810E+04    0.25383E-05   -0.17523E-05  2923   0.297E-03
  47 F= -.23534155E+04 E0= -.23534155E+04  d E =-.214978E-01  mag=     2.0000
       N       E                     dE             d eps       ncg     rms          rms(c)
DAV:   1    -0.233180404500E+04    0.12216E+00   -0.66645E+00  4512   0.223E+00    0.817E-01
RMM:   2    -0.233193992415E+04   -0.13588E+00   -0.13642E+00  6390   0.541E-01    0.901E-01
RMM:   3    -0.233194290933E+04   -0.29852E-02   -0.14686E-01  6216   0.217E-01    0.557E-01
RMM:   4    -0.233193885925E+04    0.40501E-02   -0.13341E-02  5855   0.471E-02    0.261E-01
RMM:   5    -0.233193937487E+04   -0.51563E-03   -0.23625E-03  5519   0.237E-02    0.385E-01
RMM:   6    -0.233193797318E+04    0.14017E-02   -0.18587E-03  5234   0.209E-02    0.153E-01
RMM:   7    -0.233193797921E+04   -0.60281E-05   -0.99322E-04  4924   0.167E-02    0.113E-01
RMM:   8    -0.233193779812E+04    0.18109E-03   -0.24790E-04  3193   0.889E-03    0.330E-02
RMM:   9    -0.233193777433E+04    0.23786E-04   -0.35104E-05  2944   0.487E-03    0.186E-02
RMM:  10    -0.233193776796E+04    0.63743E-05   -0.30976E-05  2925   0.374E-03
  48 F= -.23534266E+04 E0= -.23534266E+04  d E =-.325994E-01  mag=     2.0000
       N       E                     dE             d eps       ncg     rms          rms(c)
DAV:   1    -0.233187489699E+04    0.62877E-01   -0.40446E+00  4544   0.166E+00    0.592E-01
RMM:   2    -0.233195613692E+04   -0.81240E-01   -0.83818E-01  6572   0.409E-01    0.555E-01
RMM:   3    -0.233196145810E+04   -0.53212E-02   -0.87859E-02  6269   0.158E-01    0.434E-01
RMM:   4    -0.233195906608E+04    0.23920E-02   -0.80867E-03  5502   0.356E-02    0.200E-01
RMM:   5    -0.233195872413E+04    0.34195E-03   -0.12846E-03  4855   0.176E-02    0.146E-01
RMM:   6    -0.233195866965E+04    0.54479E-04   -0.12165E-03  4668   0.176E-02    0.118E-01
RMM:   7    -0.233195851454E+04    0.15511E-03   -0.26447E-04  3701   0.948E-03    0.505E-02
RMM:   8    -0.233195850969E+04    0.48463E-05   -0.61952E-05  2942   0.593E-03
  49 F= -.23534471E+04 E0= -.23534471E+04  d E =-.205186E-01  mag=     2.0000
       N       E                     dE             d eps       ncg     rms          rms(c)
DAV:   1    -0.233158876906E+04    0.36975E+00   -0.18309E+01  4512   0.354E+00    0.128E+00
RMM:   2    -0.233196323735E+04   -0.37447E+00   -0.38739E+00  6591   0.875E-01    0.119E+00
RMM:   3    -0.233198988209E+04   -0.26645E-01   -0.43886E-01  6357   0.349E-01    0.935E-01
RMM:   4    -0.233197883300E+04    0.11049E-01   -0.37756E-02  6212   0.760E-02    0.441E-01
RMM:   5    -0.233197738150E+04    0.14515E-02   -0.58096E-03  5648   0.349E-02    0.340E-01
RMM:   6    -0.233197771585E+04   -0.33434E-03   -0.61957E-03  5689   0.357E-02    0.380E-01
RMM:   7    -0.233197680575E+04    0.91010E-03   -0.23332E-03  5553   0.221E-02    0.285E-01
RMM:   8    -0.233197607302E+04    0.73272E-03   -0.78505E-04  3569   0.128E-02    0.772E-02
RMM:   9    -0.233197596777E+04    0.10525E-03   -0.12164E-04  3012   0.696E-03    0.396E-02
RMM:  10    -0.233197593830E+04    0.29473E-04   -0.11551E-04  2990   0.619E-03    0.112E-02
RMM:  11    -0.233197593767E+04    0.63101E-06   -0.28870E-05  2969   0.434E-03
  50 F= -.23534641E+04 E0= -.23534641E+04  d E =-.375056E-01  mag=     2.0000
       N       E                     dE             d eps       ncg     rms          rms(c)
DAV:   1    -0.233185473255E+04    0.12121E+00   -0.71393E+00  4528   0.222E+00    0.805E-01
RMM:   2    -0.233199429896E+04   -0.13957E+00   -0.14234E+00  6506   0.532E-01    0.770E-01
RMM:   3    -0.233200278517E+04   -0.84862E-02   -0.15914E-01  6287   0.215E-01    0.556E-01
RMM:   4    -0.233199873144E+04    0.40537E-02   -0.14248E-02  5932   0.467E-02    0.276E-01
RMM:   5    -0.233199908861E+04   -0.35717E-03   -0.22479E-03  5301   0.216E-02    0.382E-01
RMM:   6    -0.233199787118E+04    0.12174E-02   -0.17032E-03  4958   0.189E-02    0.155E-01
RMM:   7    -0.233199775202E+04    0.11916E-03   -0.76477E-04  4755   0.150E-02    0.651E-02
RMM:   8    -0.233199771340E+04    0.38619E-04   -0.17030E-04  2992   0.835E-03    0.474E-02
RMM:   9    -0.233199767690E+04    0.36494E-04   -0.40267E-05  2922   0.463E-03    0.216E-02
RMM:  10    -0.233199767071E+04    0.61970E-05   -0.38643E-05  2920   0.354E-03
  51 F= -.23534855E+04 E0= -.23534855E+04  d E =-.213947E-01  mag=     2.0000
       N       E                     dE             d eps       ncg     rms          rms(c)
DAV:   1    -0.233191778033E+04    0.79897E-01   -0.43566E+00  4560   0.172E+00    0.623E-01
RMM:   2    -0.233200154382E+04   -0.83763E-01   -0.85585E-01  6511   0.411E-01    0.585E-01
RMM:   3    -0.233200683175E+04   -0.52879E-02   -0.92601E-02  6237   0.163E-01    0.443E-01
RMM:   4    -0.233200442236E+04    0.24094E-02   -0.87079E-03  5702   0.364E-02    0.237E-01
RMM:   5    -0.233200466537E+04   -0.24302E-03   -0.12831E-03  4563   0.157E-02    0.311E-01
RMM:   6    -0.233200375066E+04    0.91472E-03   -0.11792E-03  4679   0.168E-02    0.873E-02
RMM:   7    -0.233200373368E+04    0.16976E-04   -0.46394E-04  4189   0.127E-02    0.447E-02
RMM:   8    -0.233200371897E+04    0.14709E-04   -0.88999E-05  2969   0.635E-03    0.364E-02
RMM:   9    -0.233200369755E+04    0.21418E-04   -0.25067E-05  2914   0.406E-03    0.161E-02
RMM:  10    -0.233200369417E+04    0.33835E-05   -0.22288E-05  2913   0.279E-03
  52 F= -.23534913E+04 E0= -.23534913E+04  d E =-.271476E-01  mag=     2.0000
       N       E                     dE             d eps       ncg     rms          rms(c)
DAV:   1    -0.233194738095E+04    0.56317E-01   -0.42252E+00  4528   0.171E+00    0.636E-01
RMM:   2    -0.233202667835E+04   -0.79297E-01   -0.78398E-01  6341   0.402E-01    0.706E-01
RMM:   3    -0.233202791213E+04   -0.12338E-02   -0.84676E-02  6162   0.162E-01    0.423E-01
RMM:   4    -0.233202614399E+04    0.17681E-02   -0.84799E-03  5758   0.369E-02    0.292E-01
RMM:   5    -0.233202585284E+04    0.29115E-03   -0.12292E-03  4314   0.166E-02    0.251E-01
RMM:   6    -0.233202518054E+04    0.67230E-03   -0.12651E-03  4995   0.192E-02    0.744E-02
RMM:   7    -0.233202521205E+04   -0.31502E-04   -0.41857E-04  4189   0.131E-02    0.654E-02
RMM:   8    -0.233202515750E+04    0.54548E-04   -0.12385E-04  3013   0.657E-03    0.268E-02
RMM:   9    -0.233202514594E+04    0.11560E-04   -0.20376E-05  2915   0.426E-03    0.127E-02
RMM:  10    -0.233202514662E+04   -0.68508E-06   -0.17904E-05  2914   0.287E-03
  53 F= -.23535114E+04 E0= -.23535114E+04  d E =-.201376E-01  mag=     2.0000
       N       E                     dE             d eps       ncg     rms          rms(c)
DAV:   1    -0.233195350628E+04    0.71640E-01   -0.43638E+00  4512   0.174E+00    0.646E-01
RMM:   2    -0.233203531047E+04   -0.81804E-01   -0.81094E-01  6331   0.409E-01    0.704E-01
RMM:   3    -0.233203684947E+04   -0.15390E-02   -0.88291E-02  6166   0.164E-01    0.423E-01
RMM:   4    -0.233203500347E+04    0.18460E-02   -0.87708E-03  5751   0.374E-02    0.286E-01
RMM:   5    -0.233203479586E+04    0.20762E-03   -0.12605E-03  4425   0.169E-02    0.264E-01
RMM:   6    -0.233203406719E+04    0.72867E-03   -0.12996E-03  5040   0.194E-02    0.778E-02
RMM:   7    -0.233203410124E+04   -0.34049E-04   -0.44704E-04  4243   0.132E-02    0.697E-02
RMM:   8    -0.233203403741E+04    0.63828E-04   -0.13638E-04  3024   0.680E-03    0.270E-02
RMM:   9    -0.233203402513E+04    0.12284E-04   -0.21492E-05  2917   0.438E-03    0.131E-02
RMM:  10    -0.233203402537E+04   -0.24487E-06   -0.18804E-05  2914   0.299E-03
  54 F= -.23535189E+04 E0= -.23535189E+04  d E =-.276841E-01  mag=     2.0000
       N       E                     dE             d eps       ncg     rms          rms(c)
DAV:   1    -0.233196724597E+04    0.66779E-01   -0.44894E+00  4528   0.184E+00    0.679E-01
RMM:   2    -0.233205348566E+04   -0.86240E-01   -0.83726E-01  6186   0.443E-01    0.815E-01
RMM:   3    -0.233205130503E+04    0.21806E-02   -0.86285E-02  6076   0.173E-01    0.384E-01
RMM:   4    -0.233204928886E+04    0.20162E-02   -0.83997E-03  5520   0.378E-02    0.205E-01
RMM:   5    -0.233204968805E+04   -0.39919E-03   -0.15775E-03  5336   0.208E-02    0.310E-01
RMM:   6    -0.233204885501E+04    0.83303E-03   -0.12299E-03  5052   0.181E-02    0.163E-01
RMM:   7    -0.233204873874E+04    0.11628E-03   -0.70509E-04  4364   0.141E-02    0.909E-02
RMM:   8    -0.233204862761E+04    0.11113E-03   -0.11405E-04  3049   0.714E-03    0.214E-02
RMM:   9    -0.233204862404E+04    0.35652E-05   -0.21857E-05  2940   0.463E-03
  55 F= -.23535320E+04 E0= -.23535320E+04  d E =-.130292E-01  mag=     2.0000
       N       E                     dE             d eps       ncg     rms          rms(c)
DAV:   1    -0.233204688987E+04    0.17377E-02   -0.12246E-01  4800   0.305E-01    0.112E-01
RMM:   2    -0.233204923476E+04   -0.23449E-02   -0.23020E-02  6189   0.736E-02    0.126E-01
RMM:   3    -0.233204923012E+04    0.46464E-05   -0.23702E-03  3658   0.285E-02    0.664E-02
RMM:   4    -0.233204916808E+04    0.62036E-04   -0.23518E-04  3050   0.779E-03    0.338E-02
RMM:   5    -0.233204916586E+04    0.22185E-05   -0.43930E-05  2962   0.468E-03
  56 F= -.23535323E+04 E0= -.23535323E+04  d E =-.133128E-01  mag=     2.0000
       N       E                     dE             d eps       ncg     rms          rms(c)
DAV:   1    -0.233203665195E+04    0.12516E-01   -0.10935E+00  4544   0.990E-01    0.336E-01
RMM:   2    -0.233205471903E+04   -0.18067E-01   -0.18085E-01  6205   0.225E-01    0.374E-01
RMM:   3    -0.233205515485E+04   -0.43581E-03   -0.19070E-02  5970   0.877E-02    0.293E-01
RMM:   4    -0.233205458825E+04    0.56659E-03   -0.22029E-03  5269   0.223E-02    0.219E-01
RMM:   5    -0.233205419132E+04    0.39693E-03   -0.50073E-04  3508   0.123E-02    0.104E-01
RMM:   6    -0.233205407255E+04    0.11876E-03   -0.42660E-04  4480   0.138E-02    0.482E-02
RMM:   7    -0.233205407282E+04   -0.26450E-06   -0.16188E-04  3077   0.105E-02    0.438E-02
RMM:   8    -0.233205404383E+04    0.28988E-04   -0.32827E-05  2939   0.463E-03    0.101E-02
RMM:   9    -0.233205404275E+04    0.10753E-05   -0.73025E-06  2909   0.282E-03
  57 F= -.23535364E+04 E0= -.23535364E+04  d E =-.414269E-02  mag=     2.0000
       N       E                     dE             d eps       ncg     rms          rms(c)
DAV:   1    -0.233205399249E+04    0.51339E-04   -0.85867E-03  5304   0.880E-02    0.295E-02
RMM:   2    -0.233205413462E+04   -0.14213E-03   -0.14408E-03  5770   0.211E-02    0.286E-02
RMM:   3    -0.233205413986E+04   -0.52322E-05   -0.14851E-04  2919   0.843E-03    0.207E-02
RMM:   4    -0.233205413499E+04    0.48667E-05   -0.15594E-05  2963   0.273E-03
  58 F= -.23535364E+04 E0= -.23535364E+04  d E =-.417043E-02  mag=     2.0000
       N       E                     dE             d eps       ncg     rms          rms(c)
DAV:   1    -0.233204580019E+04    0.83397E-02   -0.79630E-01  4544   0.900E-01    0.297E-01
RMM:   2    -0.233205870641E+04   -0.12906E-01   -0.12849E-01  6164   0.196E-01    0.372E-01
RMM:   3    -0.233205923117E+04   -0.52476E-03   -0.14223E-02  5863   0.771E-02    0.326E-01
RMM:   4    -0.233205840291E+04    0.82826E-03   -0.15406E-03  4981   0.193E-02    0.148E-01
RMM:   5    -0.233205818958E+04    0.21333E-03   -0.35813E-04  3347   0.108E-02    0.888E-02
RMM:   6    -0.233205809067E+04    0.98909E-04   -0.33307E-04  4352   0.126E-02    0.352E-02
RMM:   7    -0.233205809350E+04   -0.28264E-05   -0.10349E-04  3037   0.945E-03    0.354E-02
RMM:   8    -0.233205807407E+04    0.19422E-04   -0.20863E-05  2918   0.374E-03    0.844E-03
RMM:   9    -0.233205807217E+04    0.19027E-05   -0.51548E-06  2905   0.228E-03
  59 F= -.23535400E+04 E0= -.23535400E+04  d E =-.362284E-02  mag=     2.0000
       N       E                     dE             d eps       ncg     rms          rms(c)
DAV:   1    -0.233205302193E+04    0.50521E-02   -0.38491E-01  4544   0.626E-01    0.206E-01
RMM:   2    -0.233205920525E+04   -0.61833E-02   -0.62170E-02  6174   0.137E-01    0.242E-01
RMM:   3    -0.233205951665E+04   -0.31141E-03   -0.67984E-03  5570   0.547E-02    0.224E-01
RMM:   4    -0.233205912371E+04    0.39295E-03   -0.74816E-04  3711   0.136E-02    0.108E-01
RMM:   5    -0.233205900925E+04    0.11446E-03   -0.17260E-04  3018   0.823E-03    0.601E-02
RMM:   6    -0.233205896167E+04    0.47577E-04   -0.15940E-04  4039   0.911E-03    0.236E-02
RMM:   7    -0.233205896490E+04   -0.32236E-05   -0.51848E-05  2983   0.716E-03
  60 F= -.23535407E+04 E0= -.23535407E+04  d E =-.429666E-02  mag=     2.0000
       N       E                     dE             d eps       ncg     rms          rms(c)
DAV:   1    -0.233205225078E+04    0.67109E-02   -0.57329E-01  4528   0.752E-01    0.240E-01
RMM:   2    -0.233206272519E+04   -0.10474E-01   -0.10451E-01  6258   0.166E-01    0.330E-01
RMM:   3    -0.233206311374E+04   -0.38855E-03   -0.11950E-02  5720   0.684E-02    0.261E-01
RMM:   4    -0.233206259317E+04    0.52057E-03   -0.11438E-03  3871   0.158E-02    0.111E-01
RMM:   5    -0.233206247875E+04    0.11442E-03   -0.22283E-04  3049   0.866E-03    0.734E-02
RMM:   6    -0.233206240030E+04    0.78450E-04   -0.20639E-04  4095   0.980E-03    0.232E-02
RMM:   7    -0.233206240488E+04   -0.45743E-05   -0.53295E-05  3014   0.734E-03
  61 F= -.23535439E+04 E0= -.23535439E+04  d E =-.316068E-02  mag=     2.0000
       N       E                     dE             d eps       ncg     rms          rms(c)
DAV:   1    -0.233202366496E+04    0.38735E-01   -0.23463E+00  4512   0.152E+00    0.484E-01
RMM:   2    -0.233206646452E+04   -0.42800E-01   -0.42687E-01  6249   0.333E-01    0.675E-01
RMM:   3    -0.233206812305E+04   -0.16585E-02   -0.49323E-02  5980   0.138E-01    0.525E-01
RMM:   4    -0.233206595014E+04    0.21729E-02   -0.45207E-03  5492   0.312E-02    0.211E-01
RMM:   5    -0.233206557516E+04    0.37498E-03   -0.87934E-04  4374   0.150E-02    0.151E-01
RMM:   6    -0.233206523592E+04    0.33924E-03   -0.83751E-04  4649   0.175E-02    0.432E-02
RMM:   7    -0.233206523827E+04   -0.23531E-05   -0.17307E-04  3732   0.125E-02    0.358E-02
RMM:   8    -0.233206522423E+04    0.14034E-04   -0.40593E-05  2959   0.451E-03    0.164E-02
RMM:   9    -0.233206521735E+04    0.68848E-05   -0.10529E-05  2930   0.328E-03
  62 F= -.23535461E+04 E0= -.23535461E+04  d E =-.540430E-02  mag=     2.0000
       N       E                     dE             d eps       ncg     rms          rms(c)
DAV:   1    -0.233205429173E+04    0.10933E-01   -0.84214E-01  4528   0.909E-01    0.293E-01
RMM:   2    -0.233207022988E+04   -0.15938E-01   -0.15167E-01  6235   0.199E-01    0.474E-01
RMM:   3    -0.233206983884E+04    0.39105E-03   -0.16666E-02  5846   0.809E-02    0.279E-01
RMM:   4    -0.233206935223E+04    0.48661E-03   -0.17263E-03  4577   0.187E-02    0.146E-01
RMM:   5    -0.233206912477E+04    0.22746E-03   -0.34208E-04  3119   0.971E-03    0.819E-02
RMM:   6    -0.233206902521E+04    0.99554E-04   -0.28263E-04  4249   0.113E-02    0.316E-02
RMM:   7    -0.233206902784E+04   -0.26235E-05   -0.62187E-05  3030   0.821E-03
  63 F= -.23535495E+04 E0= -.23535495E+04  d E =-.338769E-02  mag=     2.0000
       N       E                     dE             d eps       ncg     rms          rms(c)
DAV:   1    -0.233199882678E+04    0.70198E-01   -0.41755E+00  4512   0.203E+00    0.656E-01
RMM:   2    -0.233207781511E+04   -0.78988E-01   -0.75384E-01  6264   0.444E-01    0.106E+00
RMM:   3    -0.233207608002E+04    0.17351E-02   -0.84085E-02  6049   0.182E-01    0.622E-01
RMM:   4    -0.233207356211E+04    0.25179E-02   -0.83560E-03  5738   0.412E-02    0.312E-01
RMM:   5    -0.233207256878E+04    0.99333E-03   -0.16604E-03  5093   0.195E-02    0.183E-01
RMM:   6    -0.233207207466E+04    0.49412E-03   -0.12546E-03  4643   0.216E-02    0.711E-02
RMM:   7    -0.233207210163E+04   -0.26964E-04   -0.33715E-04  3998   0.162E-02    0.583E-02
RMM:   8    -0.233207204747E+04    0.54161E-04   -0.94803E-05  3010   0.577E-03    0.242E-02
RMM:   9    -0.233207203520E+04    0.12268E-04   -0.15472E-05  2927   0.411E-03    0.114E-02
RMM:  10    -0.233207203126E+04    0.39398E-05   -0.17672E-05  2938   0.291E-03
  64 F= -.23535516E+04 E0= -.23535516E+04  d E =-.543806E-02  mag=     2.0000
       N       E                     dE             d eps       ncg     rms          rms(c)
DAV:   1    -0.233206055729E+04    0.11478E-01   -0.85067E-01  4576   0.903E-01    0.287E-01
RMM:   2    -0.233207629023E+04   -0.15733E-01   -0.15055E-01  6295   0.197E-01    0.443E-01
RMM:   3    -0.233207608195E+04    0.20828E-03   -0.16029E-02  5858   0.771E-02    0.280E-01
RMM:   4    -0.233207563829E+04    0.44366E-03   -0.17615E-03  4530   0.185E-02    0.154E-01
RMM:   5    -0.233207538593E+04    0.25236E-03   -0.34601E-04  3097   0.972E-03    0.801E-02
RMM:   6    -0.233207529142E+04    0.94508E-04   -0.26149E-04  4186   0.109E-02    0.289E-02
RMM:   7    -0.233207529516E+04   -0.37394E-05   -0.57714E-05  3027   0.794E-03
  65 F= -.23535544E+04 E0= -.23535544E+04  d E =-.285044E-02  mag=     2.0000
       N       E                     dE             d eps       ncg     rms          rms(c)
DAV:   1    -0.233201822029E+04    0.57071E-01   -0.34370E+00  4512   0.182E+00    0.581E-01
RMM:   2    -0.233208201997E+04   -0.63800E-01   -0.61069E-01  6292   0.398E-01    0.897E-01
RMM:   3    -0.233208103987E+04    0.98010E-03   -0.65572E-02  6074   0.158E-01    0.558E-01
RMM:   4    -0.233207925336E+04    0.17865E-02   -0.70161E-03  5709   0.370E-02    0.307E-01
RMM:   5    -0.233207826642E+04    0.98694E-03   -0.14093E-03  4820   0.181E-02    0.161E-01
RMM:   6    -0.233207788763E+04    0.37879E-03   -0.96427E-04  4593   0.190E-02    0.591E-02
RMM:   7    -0.233207790330E+04   -0.15664E-04   -0.23739E-04  3867   0.145E-02    0.440E-02
RMM:   8    -0.233207787671E+04    0.26586E-04   -0.67160E-05  2986   0.527E-03    0.234E-02
RMM:   9    -0.233207786718E+04    0.95329E-05   -0.11763E-05  2920   0.380E-03
  66 F= -.23535561E+04 E0= -.23535561E+04  d E =-.458677E-02  mag=     2.0000
       N       E                     dE             d eps       ncg     rms          rms(c)
DAV:   1    -0.233207461022E+04    0.32665E-02   -0.36675E-01  4608   0.594E-01    0.192E-01
RMM:   2    -0.233208042259E+04   -0.58124E-02   -0.60340E-02  6121   0.130E-01    0.160E-01
RMM:   3    -0.233208113525E+04   -0.71265E-03   -0.66398E-03  5505   0.543E-02    0.222E-01
RMM:   4    -0.233208072574E+04    0.40951E-03   -0.69894E-04  3357   0.130E-02    0.888E-02
RMM:   5    -0.233208068290E+04    0.42842E-04   -0.16678E-04  3006   0.785E-03    0.667E-02
RMM:   6    -0.233208062777E+04    0.55120E-04   -0.12163E-04  3649   0.781E-03    0.235E-02
RMM:   7    -0.233208063287E+04   -0.50925E-05   -0.48635E-05  2992   0.644E-03
  67 F= -.23535588E+04 E0= -.23535588E+04  d E =-.262898E-02  mag=     2.0000
       N       E                     dE             d eps       ncg     rms          rms(c)
DAV:   1    -0.233206692976E+04    0.13698E-01   -0.92043E-01  4528   0.941E-01    0.307E-01
RMM:   2    -0.233208149527E+04   -0.14566E-01   -0.15201E-01  6153   0.207E-01    0.242E-01
RMM:   3    -0.233208328307E+04   -0.17878E-02   -0.16930E-02  5879   0.879E-02    0.337E-01
RMM:   4    -0.233208232607E+04    0.95699E-03   -0.17572E-03  5074   0.203E-02    0.145E-01
RMM:   5    -0.233208221406E+04    0.11202E-03   -0.40770E-04  3229   0.109E-02    0.106E-01
RMM:   6    -0.233208207332E+04    0.14073E-03   -0.28077E-04  4206   0.115E-02    0.391E-02
RMM:   7    -0.233208208370E+04   -0.10374E-04   -0.13104E-04  3287   0.913E-03    0.417E-02
RMM:   8    -0.233208205787E+04    0.25826E-04   -0.39457E-05  2949   0.521E-03    0.988E-03
RMM:   9    -0.233208205620E+04    0.16684E-05   -0.67269E-06  2911   0.308E-03
  68 F= -.23535600E+04 E0= -.23535600E+04  d E =-.383534E-02  mag=     2.0000
       N       E                     dE             d eps       ncg     rms          rms(c)
DAV:   1    -0.233207830946E+04    0.37484E-02   -0.42675E-01  4544   0.651E-01    0.195E-01
RMM:   2    -0.233208415735E+04   -0.58479E-02   -0.62918E-02  6165   0.134E-01    0.974E-02
RMM:   3    -0.233208471700E+04   -0.55965E-03   -0.69969E-03  5381   0.574E-02    0.935E-02
RMM:   4    -0.233208473812E+04   -0.21119E-04   -0.66339E-04  3212   0.118E-02    0.103E-01
RMM:   5    -0.233208467623E+04    0.61893E-04   -0.13849E-04  3037   0.776E-03    0.642E-02
RMM:   6    -0.233208464438E+04    0.31842E-04   -0.11683E-04  3041   0.745E-03    0.348E-02
RMM:   7    -0.233208463582E+04    0.85694E-05   -0.36000E-05  2964   0.578E-03
  69 F= -.23535624E+04 E0= -.23535624E+04  d E =-.237338E-02  mag=     2.0000
       N       E                     dE             d eps       ncg     rms          rms(c)
DAV:   1    -0.233206809213E+04    0.16552E-01   -0.12215E+00  4528   0.110E+00    0.331E-01
RMM:   2    -0.233208482640E+04   -0.16734E-01   -0.18023E-01  6171   0.228E-01    0.165E-01
RMM:   3    -0.233208639563E+04   -0.15692E-02   -0.20181E-02  5665   0.988E-02    0.141E-01
RMM:   4    -0.233208648180E+04   -0.86167E-04   -0.18946E-03  4503   0.198E-02    0.166E-01
RMM:   5    -0.233208633168E+04    0.15012E-03   -0.39906E-04  3860   0.120E-02    0.119E-01
RMM:   6    -0.233208624047E+04    0.91201E-04   -0.30924E-04  3821   0.105E-02    0.672E-02
RMM:   7    -0.233208619524E+04    0.45239E-04   -0.93508E-05  3113   0.762E-03    0.282E-02
RMM:   8    -0.233208618640E+04    0.88331E-05   -0.31728E-05  2920   0.553E-03
  70 F= -.23535636E+04 E0= -.23535636E+04  d E =-.357200E-02  mag=     2.0000
       N       E                     dE             d eps       ncg     rms          rms(c)
DAV:   1    -0.233208436106E+04    0.18342E-02   -0.41459E-01  4544   0.657E-01    0.176E-01
RMM:   2    -0.233208820089E+04   -0.38398E-02   -0.41919E-02  6023   0.122E-01    0.923E-02
RMM:   3    -0.233208857101E+04   -0.37013E-03   -0.46181E-03  5185   0.521E-02    0.107E-01
RMM:   4    -0.233208854353E+04    0.27482E-04   -0.46450E-04  3231   0.113E-02    0.888E-02
RMM:   5    -0.233208851335E+04    0.30179E-04   -0.15813E-04  3265   0.853E-03    0.657E-02
RMM:   6    -0.233208846937E+04    0.43986E-04   -0.10034E-04  3103   0.777E-03    0.287E-02
RMM:   7    -0.233208846666E+04    0.27015E-05   -0.33230E-05  2949   0.585E-03
  71 F= -.23535657E+04 E0= -.23535657E+04  d E =-.214024E-02  mag=     2.0000
       N       E                     dE             d eps       ncg     rms          rms(c)
DAV:   1    -0.233208572646E+04    0.27429E-02   -0.34086E-01  4576   0.596E-01    0.160E-01
RMM:   2    -0.233208889588E+04   -0.31694E-02   -0.34636E-02  6056   0.112E-01    0.821E-02
RMM:   3    -0.233208916911E+04   -0.27324E-03   -0.38121E-03  5089   0.498E-02    0.745E-02
RMM:   4    -0.233208918550E+04   -0.16390E-04   -0.39125E-04  3194   0.108E-02    0.736E-02
RMM:   5    -0.233208915382E+04    0.31687E-04   -0.11456E-04  3187   0.787E-03    0.673E-02
RMM:   6    -0.233208912850E+04    0.25314E-04   -0.71922E-05  2959   0.676E-03    0.391E-02
RMM:   7    -0.233208911728E+04    0.11219E-04   -0.28294E-05  2934   0.510E-03    0.179E-02
RMM:   8    -0.233208911268E+04    0.46023E-05   -0.83954E-06  2887   0.359E-03
  72 F= -.23535662E+04 E0= -.23535662E+04  d E =-.265874E-02  mag=     2.0000
       N       E                     dE             d eps       ncg     rms          rms(c)
DAV:   1    -0.233208785028E+04    0.12670E-02   -0.40601E-01  4528   0.643E-01    0.159E-01
RMM:   2    -0.233209111253E+04   -0.32623E-02   -0.35593E-02  5940   0.115E-01    0.855E-02
RMM:   3    -0.233209137059E+04   -0.25805E-03   -0.41371E-03  4905   0.500E-02    0.676E-02
RMM:   4    -0.233209141131E+04   -0.40724E-04   -0.40021E-04  3331   0.111E-02    0.780E-02
RMM:   5    -0.233209134979E+04    0.61522E-04   -0.13656E-04  3285   0.837E-03    0.577E-02
RMM:   6    -0.233209134233E+04    0.74644E-05   -0.70548E-05  2943   0.679E-03
  73 F= -.23535685E+04 E0= -.23535685E+04  d E =-.226428E-02  mag=     2.0000
       N       E                     dE             d eps       ncg     rms          rms(c)
DAV:   1    -0.233208213763E+04    0.92122E-02   -0.11931E+00  4512   0.110E+00    0.274E-01
RMM:   2    -0.233209178551E+04   -0.96479E-02   -0.10520E-01  5964   0.198E-01    0.149E-01
RMM:   3    -0.233209253106E+04   -0.74556E-03   -0.12134E-02  5331   0.832E-02    0.118E-01
RMM:   4    -0.233209261206E+04   -0.80991E-04   -0.11849E-03  4707   0.187E-02    0.126E-01
RMM:   5    -0.233209253745E+04    0.74605E-04   -0.38802E-04  4376   0.122E-02    0.134E-01
RMM:   6    -0.233209242330E+04    0.11415E-03   -0.26714E-04  3354   0.100E-02    0.648E-02
RMM:   7    -0.233209239823E+04    0.25072E-04   -0.64145E-05  3013   0.676E-03    0.325E-02
RMM:   8    -0.233209238321E+04    0.15021E-04   -0.20728E-05  2918   0.418E-03    0.108E-02
RMM:   9    -0.233209238122E+04    0.19883E-05   -0.40376E-06  2896   0.226E-03
  74 F= -.23535696E+04 E0= -.23535696E+04  d E =-.336404E-02  mag=     2.0000
       N       E                     dE             d eps       ncg     rms          rms(c)
DAV:   1    -0.233209200828E+04    0.37493E-03   -0.23293E-01  4640   0.485E-01    0.116E-01
RMM:   2    -0.233209377488E+04   -0.17666E-02   -0.19211E-02  5945   0.864E-02    0.654E-02
RMM:   3    -0.233209393357E+04   -0.15870E-03   -0.22480E-03  4313   0.374E-02    0.703E-02
RMM:   4    -0.233209392764E+04    0.59348E-05   -0.20528E-04  3043   0.835E-03    0.645E-02
RMM:   5    -0.233209391520E+04    0.12444E-04   -0.76392E-05  3030   0.588E-03    0.514E-02
RMM:   6    -0.233209388893E+04    0.26264E-04   -0.61709E-05  2971   0.588E-03    0.214E-02
RMM:   7    -0.233209388581E+04    0.31229E-05   -0.12513E-05  2924   0.392E-03
  75 F= -.23535712E+04 E0= -.23535712E+04  d E =-.165769E-02  mag=     2.0000
       N       E                     dE             d eps       ncg     rms          rms(c)
DAV:   1    -0.233207917763E+04    0.14711E-01   -0.20918E+00  4512   0.145E+00    0.349E-01
RMM:   2    -0.233209506286E+04   -0.15885E-01   -0.17289E-01  5999   0.259E-01    0.196E-01
RMM:   3    -0.233209639817E+04   -0.13353E-02   -0.19554E-02  5456   0.111E-01    0.191E-01
RMM:   4    -0.233209640643E+04   -0.82589E-05   -0.18609E-03  5139   0.229E-02    0.192E-01
RMM:   5    -0.233209630225E+04    0.10418E-03   -0.66443E-04  4670   0.145E-02    0.169E-01
RMM:   6    -0.233209605368E+04    0.24857E-03   -0.53155E-04  4437   0.134E-02    0.715E-02
RMM:   7    -0.233209601218E+04    0.41503E-04   -0.89692E-05  3115   0.764E-03    0.312E-02
RMM:   8    -0.233209599971E+04    0.12471E-04   -0.30040E-05  2927   0.491E-03    0.145E-02
RMM:   9    -0.233209599610E+04    0.36109E-05   -0.57376E-06  2884   0.240E-03
  76 F= -.23535738E+04 E0= -.23535738E+04  d E =-.422875E-02  mag=     2.0000
       N       E                     dE             d eps       ncg     rms          rms(c)
DAV:   1    -0.233209531928E+04    0.68043E-03   -0.80705E-02  4704   0.286E-01    0.687E-02
RMM:   2    -0.233209593956E+04   -0.62028E-03   -0.67367E-03  6010   0.514E-02    0.386E-02
RMM:   3    -0.233209598941E+04   -0.49853E-04   -0.75214E-04  3279   0.204E-02    0.385E-02
RMM:   4    -0.233209599066E+04   -0.12446E-05   -0.72596E-05  2982   0.557E-03
  77 F= -.23535739E+04 E0= -.23535739E+04  d E =-.431389E-02  mag=     2.0000
       N       E                     dE             d eps       ncg     rms          rms(c)
DAV:   1    -0.233209673779E+04   -0.74838E-03   -0.14490E-01  4544   0.391E-01    0.122E-01
RMM:   2    -0.233209774528E+04   -0.10075E-02   -0.11271E-02  5937   0.725E-02    0.632E-02
RMM:   3    -0.233209783759E+04   -0.92314E-04   -0.13053E-03  4486   0.317E-02    0.800E-02
RMM:   4    -0.233209779524E+04    0.42353E-04   -0.13910E-04  2972   0.790E-03    0.526E-02
[...]
 124 F= -.23536818E+04 E0= -.23536818E+04  d E =-.369714E-02  mag=     2.0000
       N       E                     dE             d eps       ncg     rms          rms(c)
DAV:   1    -0.233217718271E+04    0.45340E-02   -0.93117E-01  4512   0.801E-01    0.260E-01
RMM:   2    -0.233218225656E+04   -0.50738E-02   -0.52796E-02  6103   0.145E-01    0.244E-01
RMM:   3    -0.233218263166E+04   -0.37509E-03   -0.48013E-03  5577   0.530E-02    0.276E-01
RMM:   4    -0.233218202905E+04    0.60261E-03   -0.84155E-04  4740   0.165E-02    0.144E-01
RMM:   5    -0.233218197374E+04    0.55313E-04   -0.45530E-04  3756   0.123E-02    0.116E-01
RMM:   6    -0.233218181110E+04    0.16264E-03   -0.28890E-04  4361   0.109E-02    0.217E-02
RMM:   7    -0.233218181045E+04    0.65101E-06   -0.42110E-05  2988   0.667E-03
 125 F= -.23536826E+04 E0= -.23536826E+04  d E =-.450843E-02  mag=     2.0000
       N       E                     dE             d eps       ncg     rms          rms(c)
DAV:   1    -0.233217278012E+04    0.90310E-02   -0.18179E+00  4512   0.113E+00    0.375E-01
RMM:   2    -0.233218622529E+04   -0.13445E-01   -0.12819E-01  6144   0.215E-01    0.497E-01
RMM:   3    -0.233218543848E+04    0.78681E-03   -0.11747E-02  5871   0.781E-02    0.356E-01
RMM:   4    -0.233218459012E+04    0.84836E-03   -0.18644E-03  5110   0.229E-02    0.202E-01
RMM:   5    -0.233218435921E+04    0.23091E-03   -0.95133E-04  4641   0.164E-02    0.152E-01
RMM:   6    -0.233218408257E+04    0.27665E-03   -0.63404E-04  4905   0.151E-02    0.286E-02
RMM:   7    -0.233218407297E+04    0.96015E-05   -0.50702E-05  3061   0.850E-03
 126 F= -.23536860E+04 E0= -.23536860E+04  d E =-.337292E-02  mag=     2.0000
       N       E                     dE             d eps       ncg     rms          rms(c)
DAV:   1    -0.233218096530E+04    0.31173E-02   -0.44775E-01  4576   0.559E-01    0.188E-01
RMM:   2    -0.233218427852E+04   -0.33132E-02   -0.31764E-02  6151   0.108E-01    0.245E-01
RMM:   3    -0.233218409896E+04    0.17957E-03   -0.28460E-03  5261   0.383E-02    0.177E-01
RMM:   4    -0.233218390306E+04    0.19590E-03   -0.46691E-04  3758   0.117E-02    0.105E-01
RMM:   5    -0.233218383032E+04    0.72737E-04   -0.23266E-04  3095   0.897E-03    0.739E-02
RMM:   6    -0.233218377011E+04    0.60209E-04   -0.17672E-04  4004   0.877E-03    0.235E-02
RMM:   7    -0.233218376689E+04    0.32250E-05   -0.29442E-05  2947   0.582E-03
 127 F= -.23536863E+04 E0= -.23536863E+04  d E =-.361889E-02  mag=     2.0000
       N       E                     dE             d eps       ncg     rms          rms(c)
DAV:   1    -0.233217719581E+04    0.65743E-02   -0.15927E+00  4512   0.103E+00    0.359E-01
RMM:   2    -0.233218846623E+04   -0.11270E-01   -0.97078E-02  6074   0.192E-01    0.570E-01
RMM:   3    -0.233218623609E+04    0.22301E-02   -0.85424E-03  5816   0.678E-02    0.298E-01
RMM:   4    -0.233218589041E+04    0.34568E-03   -0.17291E-03  5047   0.220E-02    0.217E-01
RMM:   5    -0.233218548561E+04    0.40480E-03   -0.89298E-04  4834   0.164E-02    0.131E-01
RMM:   6    -0.233218530001E+04    0.18560E-03   -0.46556E-04  4529   0.132E-02    0.296E-02
RMM:   7    -0.233218529652E+04    0.34837E-05   -0.62196E-05  3064   0.907E-03
 128 F= -.23536886E+04 E0= -.23536886E+04  d E =-.238339E-02  mag=     2.0000
       N       E                     dE             d eps       ncg     rms          rms(c)
DAV:   1    -0.233218420801E+04    0.10920E-02   -0.16702E-01  4624   0.335E-01    0.119E-01
RMM:   2    -0.233218542630E+04   -0.12183E-02   -0.10363E-02  6072   0.640E-02    0.189E-01
RMM:   3    -0.233218517918E+04    0.24713E-03   -0.92291E-04  4052   0.218E-02    0.982E-02
RMM:   4    -0.233218514709E+04    0.32082E-04   -0.18300E-04  3031   0.820E-03    0.740E-02
RMM:   5    -0.233218509834E+04    0.48755E-04   -0.94745E-05  2974   0.618E-03    0.415E-02
RMM:   6    -0.233218507976E+04    0.18584E-04   -0.51915E-05  3125   0.562E-03    0.894E-03
RMM:   7    -0.233218507952E+04    0.23037E-06   -0.74713E-06  2913   0.410E-03
 129 F= -.23536887E+04 E0= -.23536887E+04  d E =-.244343E-02  mag=     2.0000
       N       E                     dE             d eps       ncg     rms          rms(c)
DAV:   1    -0.233217910801E+04    0.59717E-02   -0.15756E+00  4512   0.105E+00    0.353E-01
RMM:   2    -0.233218910927E+04   -0.10001E-01   -0.92653E-02  6079   0.188E-01    0.466E-01
RMM:   3    -0.233218807566E+04    0.10336E-02   -0.81330E-03  5804   0.659E-02    0.323E-01
RMM:   4    -0.233218755010E+04    0.52556E-03   -0.16823E-03  4861   0.217E-02    0.222E-01
RMM:   5    -0.233218714253E+04    0.40757E-03   -0.85490E-04  4787   0.164E-02    0.127E-01
RMM:   6    -0.233218697500E+04    0.16753E-03   -0.42406E-04  4369   0.129E-02    0.369E-02
RMM:   7    -0.233218696635E+04    0.86491E-05   -0.86934E-05  3040   0.975E-03
 130 F= -.23536912E+04 E0= -.23536912E+04  d E =-.246515E-02  mag=     2.0000
       N       E                     dE             d eps       ncg     rms          rms(c)
DAV:   1    -0.233218651868E+04    0.45633E-03   -0.61476E-02  4768   0.208E-01    0.722E-02
RMM:   2    -0.233218693427E+04   -0.41559E-03   -0.37612E-03  6055   0.391E-02    0.957E-02
RMM:   3    -0.233218688908E+04    0.45181E-04   -0.33883E-04  3165   0.135E-02    0.658E-02
RMM:   4    -0.233218687052E+04    0.18565E-04   -0.68557E-05  2956   0.544E-03    0.473E-02
RMM:   5    -0.233218685243E+04    0.18089E-04   -0.34670E-05  2916   0.376E-03    0.251E-02
RMM:   6    -0.233218684840E+04    0.40290E-05   -0.19260E-05  2950   0.347E-03
 131 F= -.23536912E+04 E0= -.23536912E+04  d E =-.246200E-02  mag=     2.0000
       N       E                     dE             d eps       ncg     rms          rms(c)
DAV:   1    -0.233218071482E+04    0.61376E-02   -0.14822E+00  4512   0.105E+00    0.332E-01
RMM:   2    -0.233218939120E+04   -0.86764E-02   -0.89433E-02  6031   0.187E-01    0.316E-01
RMM:   3    -0.233218976329E+04   -0.37209E-03   -0.82520E-03  5680   0.695E-02    0.326E-01
RMM:   4    -0.233218892960E+04    0.83369E-03   -0.14063E-03  5051   0.210E-02    0.211E-01
RMM:   5    -0.233218868606E+04    0.24354E-03   -0.70598E-04  4340   0.153E-02    0.135E-01
RMM:   6    -0.233218850469E+04    0.18137E-03   -0.49854E-04  4463   0.137E-02    0.446E-02
RMM:   7    -0.233218848522E+04    0.19468E-04   -0.10517E-04  3055   0.977E-03    0.301E-02
RMM:   8    -0.233218846849E+04    0.16727E-04   -0.17077E-05  2927   0.298E-03    0.812E-03
RMM:   9    -0.233218846636E+04    0.21267E-05   -0.72702E-06  2911   0.211E-03
 132 F= -.23536932E+04 E0= -.23536932E+04  d E =-.209057E-02  mag=     2.0000
       N       E                     dE             d eps       ncg     rms          rms(c)
DAV:   1    -0.233218844203E+04    0.26460E-04   -0.18759E-03  5128   0.375E-02    0.117E-02
RMM:   2    -0.233218845326E+04   -0.11229E-04   -0.11671E-04  3280   0.806E-03    0.116E-02
RMM:   3    -0.233218845400E+04   -0.73845E-06   -0.12234E-05  2778   0.433E-03
 133 F= -.23536933E+04 E0= -.23536933E+04  d E =-.209488E-02  mag=     2.0000
       N       E                     dE             d eps       ncg     rms          rms(c)
DAV:   1    -0.233218503984E+04    0.34134E-02   -0.79160E-01  4512   0.798E-01    0.254E-01
RMM:   2    -0.233218980556E+04   -0.47657E-02   -0.51969E-02  6068   0.146E-01    0.181E-01
RMM:   3    -0.233219017158E+04   -0.36602E-03   -0.50382E-03  5419   0.557E-02    0.190E-01
RMM:   4    -0.233218966643E+04    0.50515E-03   -0.67462E-04  4832   0.165E-02    0.837E-02
RMM:   5    -0.233218973725E+04   -0.70823E-04   -0.45982E-04  4725   0.138E-02    0.107E-01
RMM:   6    -0.233218961864E+04    0.11861E-03   -0.17025E-04  3134   0.864E-03    0.563E-02
RMM:   7    -0.233218959800E+04    0.20641E-04   -0.53199E-05  2946   0.534E-03    0.272E-02
RMM:   8    -0.233218958740E+04    0.10601E-04   -0.10649E-05  2904   0.281E-03    0.633E-03
RMM:   9    -0.233218958640E+04    0.99097E-06   -0.49919E-06  2889   0.195E-03
 134 F= -.23536949E+04 E0= -.23536949E+04  d E =-.167702E-02  mag=     2.0000
       N       E                     dE             d eps       ncg     rms          rms(c)
DAV:   1    -0.233218953377E+04    0.53629E-04   -0.37294E-03  5232   0.549E-02    0.173E-02
RMM:   2    -0.233218955602E+04   -0.22252E-04   -0.24397E-04  4111   0.110E-02    0.118E-02
RMM:   3    -0.233218955844E+04   -0.24170E-05   -0.25417E-05  2895   0.563E-03
 135 F= -.23536949E+04 E0= -.23536949E+04  d E =-.168625E-02  mag=     2.0000
       N       E                     dE             d eps       ncg     rms          rms(c)
DAV:   1    -0.233218683801E+04    0.27180E-02   -0.47554E-01  4512   0.649E-01    0.204E-01
RMM:   2    -0.233219049163E+04   -0.36536E-02   -0.39556E-02  6172   0.126E-01    0.142E-01
RMM:   3    -0.233219075483E+04   -0.26319E-03   -0.37147E-03  5302   0.464E-02    0.145E-01
RMM:   4    -0.233219046153E+04    0.29329E-03   -0.44843E-04  4218   0.130E-02    0.692E-02
RMM:   5    -0.233219046365E+04   -0.21186E-05   -0.29172E-04  4232   0.113E-02    0.625E-02
RMM:   6    -0.233219041192E+04    0.51735E-04   -0.11896E-04  3051   0.761E-03    0.255E-02
RMM:   7    -0.233219041338E+04   -0.14686E-05   -0.23678E-05  2931   0.487E-03
 136 F= -.23536962E+04 E0= -.23536962E+04  d E =-.128768E-02  mag=     2.0000
       N       E                     dE             d eps       ncg     rms          rms(c)
DAV:   1    -0.233218959641E+04    0.81550E-03   -0.86094E-02  4576   0.276E-01    0.875E-02
RMM:   2    -0.233219026928E+04   -0.67286E-03   -0.72017E-03  6158   0.537E-02    0.647E-02
RMM:   3    -0.233219033006E+04   -0.60781E-04   -0.72726E-04  3585   0.214E-02    0.742E-02
RMM:   4    -0.233219027464E+04    0.55414E-04   -0.92390E-05  2980   0.685E-03    0.496E-02
RMM:   5    -0.233219026753E+04    0.71141E-05   -0.40678E-05  2928   0.442E-03
 137 F= -.23536963E+04 E0= -.23536963E+04  d E =-.132648E-02  mag=     2.0000
       N       E                     dE             d eps       ncg     rms          rms(c)
DAV:   1    -0.233218906549E+04    0.12092E-02   -0.33412E-01  4512   0.539E-01    0.162E-01
RMM:   2    -0.233219124508E+04   -0.21796E-02   -0.22749E-02  6217   0.100E-01    0.144E-01
RMM:   3    -0.233219137240E+04   -0.12733E-03   -0.22255E-03  5041   0.359E-02    0.147E-01
RMM:   4    -0.233219116096E+04    0.21144E-03   -0.30837E-04  3750   0.109E-02    0.911E-02
RMM:   5    -0.233219114913E+04    0.11831E-04   -0.15416E-04  2975   0.813E-03    0.777E-02
RMM:   6    -0.233219108846E+04    0.60672E-04   -0.11179E-04  3828   0.751E-03    0.162E-02
RMM:   7    -0.233219108816E+04    0.29904E-06   -0.22152E-05  2941   0.556E-03
 138 F= -.23536973E+04 E0= -.23536973E+04  d E =-.995834E-03  mag=     2.0000
       N       E                     dE             d eps       ncg     rms          rms(c)
DAV:   1    -0.233219017193E+04    0.91653E-03   -0.16040E-01  4544   0.372E-01    0.112E-01
RMM:   2    -0.233219123956E+04   -0.10676E-02   -0.11088E-02  6193   0.696E-02    0.102E-01
RMM:   3    -0.233219130611E+04   -0.66556E-04   -0.10108E-03  3992   0.250E-02    0.113E-01
RMM:   4    -0.233219120219E+04    0.10393E-03   -0.16998E-04  3110   0.842E-03    0.698E-02
RMM:   5    -0.233219117482E+04    0.27367E-04   -0.74266E-05  2931   0.586E-03    0.437E-02
RMM:   6    -0.233219116544E+04    0.93745E-05   -0.62936E-05  3095   0.587E-03
 139 F= -.23536975E+04 E0= -.23536975E+04  d E =-.119480E-02  mag=     2.0000
       N       E                     dE             d eps       ncg     rms          rms(c)
DAV:   1    -0.233219027869E+04    0.89612E-03   -0.31695E-01  4512   0.536E-01    0.169E-01
RMM:   2    -0.233219265635E+04   -0.23777E-02   -0.24229E-02  6120   0.100E-01    0.157E-01
RMM:   3    -0.233219284969E+04   -0.19334E-03   -0.26445E-03  5322   0.380E-02    0.187E-01
RMM:   4    -0.233219256335E+04    0.28634E-03   -0.37868E-04  3566   0.114E-02    0.928E-02
RMM:   5    -0.233219250804E+04    0.55315E-04   -0.15937E-04  3032   0.853E-03    0.634E-02
RMM:   6    -0.233219247995E+04    0.28088E-04   -0.13373E-04  3855   0.843E-03    0.335E-02
RMM:   7    -0.233219246582E+04    0.14127E-04   -0.37497E-05  2928   0.623E-03    0.142E-02
RMM:   8    -0.233219246202E+04    0.38055E-05   -0.46061E-06  2869   0.217E-03
 140 F= -.23536987E+04 E0= -.23536987E+04  d E =-.119769E-02  mag=     2.0000
       N       E                     dE             d eps       ncg     rms          rms(c)
DAV:   1    -0.233219061446E+04    0.18514E-02   -0.27757E-01  4512   0.501E-01    0.157E-01
RMM:   2    -0.233219271179E+04   -0.20973E-02   -0.21294E-02  6111   0.941E-02    0.151E-01
RMM:   3    -0.233219285586E+04   -0.14407E-03   -0.22558E-03  5057   0.356E-02    0.172E-01
RMM:   4    -0.233219261230E+04    0.24356E-03   -0.32748E-04  3454   0.108E-02    0.862E-02
RMM:   5    -0.233219256618E+04    0.46120E-04   -0.13858E-04  2996   0.805E-03    0.602E-02
RMM:   6    -0.233219253753E+04    0.28645E-04   -0.11645E-04  3753   0.795E-03    0.297E-02
RMM:   7    -0.233219252645E+04    0.11084E-04   -0.32712E-05  2929   0.606E-03    0.133E-02
RMM:   8    -0.233219252310E+04    0.33547E-05   -0.42247E-06  2848   0.206E-03
 141 F= -.23536986E+04 E0= -.23536986E+04  d E =-.116772E-02  mag=     2.0000
       N       E                     dE             d eps       ncg     rms          rms(c)
DAV:   1    -0.233219215600E+04    0.37045E-03   -0.70474E-02  4576   0.252E-01    0.787E-02
RMM:   2    -0.233219267301E+04   -0.51701E-03   -0.53499E-03  6160   0.477E-02    0.718E-02
RMM:   3    -0.233219271839E+04   -0.45385E-04   -0.57511E-04  3597   0.190E-02    0.864E-02
RMM:   4    -0.233219265346E+04    0.64929E-04   -0.79653E-05  2942   0.648E-03    0.426E-02
RMM:   5    -0.233219264322E+04    0.10241E-04   -0.35895E-05  2905   0.426E-03    0.306E-02
RMM:   6    -0.233219263506E+04    0.81651E-05   -0.28698E-05  2964   0.428E-03
 142 F= -.23536988E+04 E0= -.23536988E+04  d E =-.132547E-02  mag=     2.0000
       N       E                     dE             d eps       ncg     rms          rms(c)
DAV:   1    -0.233219120523E+04    0.14380E-02   -0.33423E-01  4512   0.544E-01    0.171E-01
RMM:   2    -0.233219372316E+04   -0.25179E-02   -0.26041E-02  6205   0.105E-01    0.154E-01
RMM:   3    -0.233219398591E+04   -0.26276E-03   -0.29471E-03  5414   0.415E-02    0.195E-01
RMM:   4    -0.233219365645E+04    0.32946E-03   -0.38036E-04  3451   0.115E-02    0.869E-02
RMM:   5    -0.233219361947E+04    0.36979E-04   -0.16363E-04  3034   0.853E-03    0.686E-02
RMM:   6    -0.233219357849E+04    0.40985E-04   -0.14711E-04  3902   0.850E-03    0.325E-02
RMM:   7    -0.233219356633E+04    0.12154E-04   -0.41765E-05  2934   0.634E-03    0.162E-02
RMM:   8    -0.233219356168E+04    0.46526E-05   -0.57368E-06  2858   0.239E-03
 143 F= -.23536997E+04 E0= -.23536997E+04  d E =-.903491E-03  mag=     2.0000
       N       E                     dE             d eps       ncg     rms          rms(c)
DAV:   1    -0.233219347004E+04    0.96293E-04   -0.16576E-02  4800   0.122E-01    0.388E-02
RMM:   2    -0.233219360256E+04   -0.13252E-03   -0.13343E-03  6042   0.238E-02    0.386E-02
RMM:   3    -0.233219361234E+04   -0.97779E-05   -0.14665E-04  2949   0.933E-03    0.445E-02
RMM:   4    -0.233219359641E+04    0.15931E-04   -0.20666E-05  2928   0.344E-03    0.200E-02
RMM:   5    -0.233219359405E+04    0.23551E-05   -0.89434E-06  2752   0.202E-03
 144 F= -.23536997E+04 E0= -.23536997E+04  d E =-.930875E-03  mag=     2.0000
       N       E                     dE             d eps       ncg     rms          rms(c)
DAV:   1    -0.233219325247E+04    0.34394E-03   -0.19999E-01  4512   0.416E-01    0.131E-01
RMM:   2    -0.233219424498E+04   -0.99251E-03   -0.11025E-02  6010   0.746E-02    0.867E-02
RMM:   3    -0.233219438880E+04   -0.14382E-03   -0.11683E-03  4476   0.293E-02    0.123E-01
RMM:   4    -0.233219423117E+04    0.15763E-03   -0.17737E-04  3209   0.926E-03    0.637E-02
RMM:   5    -0.233219424598E+04   -0.14803E-04   -0.11120E-04  2993   0.715E-03    0.698E-02
RMM:   6    -0.233219419725E+04    0.48723E-04   -0.74413E-05  3204   0.679E-03    0.177E-02
RMM:   7    -0.233219419458E+04    0.26758E-05   -0.17640E-05  2922   0.509E-03
 145 F= -.23537005E+04 E0= -.23537005E+04  d E =-.816952E-03  mag=     2.0000
       N       E                     dE             d eps       ncg     rms          rms(c)
DAV:   1    -0.233219398831E+04    0.20894E-03   -0.34712E-02  4592   0.174E-01    0.550E-02
RMM:   2    -0.233219416896E+04   -0.18065E-03   -0.19771E-03  5999   0.321E-02    0.363E-02
RMM:   3    -0.233219418898E+04   -0.20017E-04   -0.19054E-04  3164   0.130E-02    0.475E-02
RMM:   4    -0.233219416728E+04    0.21705E-04   -0.32904E-05  2916   0.473E-03    0.304E-02
RMM:   5    -0.233219416541E+04    0.18682E-05   -0.19079E-05  2898   0.313E-03
 146 F= -.23537006E+04 E0= -.23537006E+04  d E =-.878038E-03  mag=     2.0000
       N       E                     dE             d eps       ncg     rms          rms(c)
DAV:   1    -0.233219375379E+04    0.41349E-03   -0.16642E-01  4512   0.383E-01    0.115E-01
RMM:   2    -0.233219467510E+04   -0.92131E-03   -0.10176E-02  6096   0.703E-02    0.758E-02
RMM:   3    -0.233219477409E+04   -0.98992E-04   -0.10751E-03  4171   0.267E-02    0.894E-02
RMM:   4    -0.233219466583E+04    0.10827E-03   -0.13085E-04  3047   0.838E-03    0.366E-02
RMM:   5    -0.233219466712E+04   -0.12936E-05   -0.87166E-05  3427   0.693E-03
 147 F= -.23537013E+04 E0= -.23537013E+04  d E =-.749656E-03  mag=     2.0000
       N       E                     dE             d eps       ncg     rms          rms(c)
DAV:   1    -0.233219375675E+04    0.90908E-03   -0.15420E-01  4512   0.369E-01    0.113E-01
RMM:   2    -0.233219471900E+04   -0.96224E-03   -0.95803E-03  6328   0.689E-02    0.124E-01
RMM:   3    -0.233219478433E+04   -0.65339E-04   -0.11554E-03  4142   0.259E-02    0.135E-01
RMM:   4    -0.233219463501E+04    0.14932E-03   -0.15534E-04  3052   0.878E-03    0.515E-02
RMM:   5    -0.233219462333E+04    0.11685E-04   -0.74943E-05  2940   0.616E-03    0.431E-02
RMM:   6    -0.233219460844E+04    0.14885E-04   -0.64093E-05  3118   0.632E-03    0.241E-02
RMM:   7    -0.233219460055E+04    0.78920E-05   -0.17326E-05  2924   0.486E-03
 148 F= -.23537015E+04 E0= -.23537015E+04  d E =-.922707E-03  mag=     2.0000
       N       E                     dE             d eps       ncg     rms          rms(c)
DAV:   1    -0.233219413743E+04    0.47102E-03   -0.18888E-01  4512   0.406E-01    0.120E-01
RMM:   2    -0.233219513334E+04   -0.99591E-03   -0.11132E-02  6087   0.739E-02    0.749E-02
RMM:   3    -0.233219521121E+04   -0.77872E-04   -0.10718E-03  4282   0.271E-02    0.798E-02
RMM:   4    -0.233219513528E+04    0.75932E-04   -0.14567E-04  3071   0.848E-03    0.430E-02
RMM:   5    -0.233219514559E+04   -0.10317E-04   -0.98303E-05  3104   0.709E-03    0.459E-02
RMM:   6    -0.233219511785E+04    0.27744E-04   -0.41557E-05  2928   0.589E-03    0.211E-02
RMM:   7    -0.233219511632E+04    0.15296E-05   -0.11541E-05  2897   0.323E-03
 149 F= -.23537023E+04 E0= -.23537023E+04  d E =-.738277E-03  mag=     2.0000
       N       E                     dE             d eps       ncg     rms          rms(c)
DAV:   1    -0.233219443989E+04    0.67796E-03   -0.12498E-01  4544   0.331E-01    0.977E-02
RMM:   2    -0.233219510156E+04   -0.66168E-03   -0.73757E-03  6163   0.602E-02    0.607E-02
RMM:   3    -0.233219515427E+04   -0.52704E-04   -0.71652E-04  3784   0.227E-02    0.644E-02
RMM:   4    -0.233219510655E+04    0.47719E-04   -0.98449E-05  3017   0.750E-03    0.391E-02
RMM:   5    -0.233219511978E+04   -0.13227E-04   -0.65480E-05  2965   0.565E-03    0.584E-02
RMM:   6    -0.233219509491E+04    0.24867E-04   -0.36805E-05  2922   0.504E-03    0.226E-02
RMM:   7    -0.233219509017E+04    0.47340E-05   -0.11456E-05  2891   0.345E-03
 150 F= -.23537024E+04 E0= -.23537024E+04  d E =-.894042E-03  mag=     2.0000
