       N       E                     dE             d eps       ncg     rms          rms(c)
DAV:   1     0.124542668083E+05    0.12454E+05   -0.82088E+05  4416   0.143E+03
DAV:   2    -0.110252825435E+04   -0.13557E+05   -0.13021E+05  5376   0.328E+02
DAV:   3    -0.247723125987E+04   -0.13747E+04   -0.13636E+04  5256   0.108E+02
DAV:   4    -0.251549580754E+04   -0.38265E+02   -0.38091E+02  6352   0.251E+01
DAV:   5    -0.251621588773E+04   -0.72008E+00   -0.71909E+00  5488   0.285E+00    0.171E+02
RMM:   6    -0.147939025438E+04    0.10368E+04   -0.19627E+03  4374   0.391E+01    0.743E+01
RMM:   7    -0.164122439133E+04   -0.16183E+03   -0.30095E+02  4899   0.144E+01    0.552E+01
RMM:   8    -0.168367341206E+04   -0.42449E+02   -0.75643E+01  4908   0.754E+00    0.398E+01
RMM:   9    -0.178954902306E+04   -0.10588E+03   -0.59385E+01  4610   0.751E+00    0.295E+01
RMM:  10    -0.192622184191E+04   -0.13667E+03   -0.53120E+01  4651   0.659E+00    0.193E+01
RMM:  11    -0.203919277242E+04   -0.11297E+03   -0.50639E+01  4509   0.574E+00    0.144E+01
RMM:  12    -0.217029059672E+04   -0.13110E+03   -0.91189E+01  4515   0.714E+00    0.984E+00
RMM:  13    -0.228788873999E+04   -0.11760E+03   -0.12314E+02  4369   0.723E+00    0.476E+00
RMM:  14    -0.230307854613E+04   -0.15190E+02   -0.18174E+01  4543   0.408E+00    0.295E+00
RMM:  15    -0.230862346343E+04   -0.55449E+01   -0.69821E+00  4670   0.176E+00    0.189E+00
RMM:  16    -0.230960208935E+04   -0.97863E+00   -0.10061E+00  4614   0.115E+00    0.133E+00
RMM:  17    -0.231025708666E+04   -0.65500E+00   -0.36650E-01  4644   0.420E-01    0.103E+00
RMM:  18    -0.231055441018E+04   -0.29732E+00   -0.10093E-01  4665   0.283E-01    0.795E-01
RMM:  19    -0.231063996615E+04   -0.85556E-01   -0.97911E-02  4400   0.224E-01    0.456E-01
RMM:  20    -0.231065637359E+04   -0.16407E-01   -0.16001E-02  4471   0.152E-01    0.230E-01
RMM:  21    -0.231066735487E+04   -0.10981E-01   -0.72448E-03  4537   0.694E-02    0.140E-01
RMM:  22    -0.231067010155E+04   -0.27467E-02   -0.13090E-03  4515   0.494E-02    0.908E-02
RMM:  23    -0.231067697058E+04   -0.68690E-02   -0.18293E-03  4355   0.323E-02    0.550E-02
RMM:  24    -0.231068261524E+04   -0.56447E-02   -0.13391E-03  4357   0.324E-02    0.501E-02
RMM:  25    -0.231068590228E+04   -0.32870E-02   -0.81644E-04  4357   0.248E-02    0.362E-02
RMM:  26    -0.231068818889E+04   -0.22866E-02   -0.67805E-04  4008   0.211E-02    0.197E-02
RMM:  27    -0.231068957971E+04   -0.13908E-02   -0.49730E-04  4076   0.181E-02    0.153E-02
RMM:  28    -0.231068987131E+04   -0.29159E-03   -0.12464E-04  3692   0.112E-02    0.675E-03
RMM:  29    -0.231068997879E+04   -0.10748E-03   -0.38727E-05  3273   0.590E-03    0.342E-03
RMM:  30    -0.231069005212E+04   -0.73334E-04   -0.17726E-05  2974   0.477E-03    0.220E-03
RMM:  31    -0.231069008202E+04   -0.29898E-04   -0.92159E-06  2823   0.321E-03    0.149E-03
RMM:  32    -0.231069009628E+04   -0.14264E-04   -0.54245E-06  2469   0.256E-03    0.722E-04
RMM:  33    -0.231069009894E+04   -0.26596E-05   -0.24990E-06  2321   0.193E-03
   1 F= -.23307996E+04 E0= -.23307996E+04  d E =-.233080E+04  mag=     2.0000
       N       E                     dE             d eps       ncg     rms          rms(c)
DAV:   1    -0.231053320987E+04    0.15689E+00   -0.57724E+01  4696   0.335E+00    0.248E+00
RMM:   2    -0.231145476637E+04   -0.92156E+00   -0.90395E+00  6312   0.110E+00    0.204E+00
RMM:   3    -0.231142267457E+04    0.32092E-01   -0.58879E-01  5032   0.346E-01    0.103E+00
RMM:   4    -0.231141949953E+04    0.31750E-02   -0.90862E-02  5201   0.890E-02    0.591E-01
RMM:   5    -0.231141763132E+04    0.18682E-02   -0.15794E-02  4942   0.570E-02    0.297E-01
RMM:   6    -0.231141725015E+04    0.38117E-03   -0.36666E-03  4997   0.293E-02    0.192E-01
RMM:   7    -0.231141740459E+04   -0.15443E-03   -0.88167E-04  4195   0.140E-02    0.153E-01
RMM:   8    -0.231141750625E+04   -0.10167E-03   -0.44474E-04  3542   0.944E-03    0.122E-01
RMM:   9    -0.231141764084E+04   -0.13458E-03   -0.93185E-04  4290   0.142E-02    0.384E-02
RMM:  10    -0.231141768118E+04   -0.40346E-04   -0.14347E-04  3376   0.894E-03    0.210E-02
RMM:  11    -0.231141772623E+04   -0.45043E-04   -0.51078E-05  3039   0.430E-03    0.122E-02
RMM:  12    -0.231141776782E+04   -0.41589E-04   -0.12257E-05  2808   0.376E-03    0.781E-03
RMM:  13    -0.231141781915E+04   -0.51333E-04   -0.14748E-05  2830   0.316E-03    0.602E-03
RMM:  14    -0.231141783725E+04   -0.18101E-04   -0.78509E-06  2788   0.332E-03    0.315E-03
RMM:  15    -0.231141784907E+04   -0.11825E-04   -0.68548E-06  2716   0.241E-03    0.204E-03
RMM:  16    -0.231141785260E+04   -0.35205E-05   -0.24857E-06  2561   0.231E-03
   2 F= -.23315273E+04 E0= -.23315273E+04  d E =-.727646E+00  mag=     2.0000
       N       E                     dE             d eps       ncg     rms          rms(c)
DAV:   1    -0.231125789003E+04    0.15996E+00   -0.14741E+01  4512   0.197E+00    0.123E+00
RMM:   2    -0.231152817737E+04   -0.27029E+00   -0.27384E+00  6311   0.662E-01    0.860E-01
RMM:   3    -0.231152610626E+04    0.20711E-02   -0.16512E-01  5003   0.173E-01    0.502E-01
RMM:   4    -0.231152561118E+04    0.49508E-03   -0.26048E-02  4643   0.408E-02    0.308E-01
RMM:   5    -0.231152443216E+04    0.11790E-02   -0.45264E-03  4877   0.316E-02    0.106E-01
RMM:   6    -0.231152455430E+04   -0.12214E-03   -0.71551E-04  3958   0.131E-02    0.782E-02
RMM:   7    -0.231152457078E+04   -0.16477E-04   -0.13583E-04  3135   0.665E-03    0.663E-02
RMM:   8    -0.231152456581E+04    0.49652E-05   -0.17146E-04  3337   0.693E-03    0.334E-02
RMM:   9    -0.231152456863E+04   -0.28222E-05   -0.68630E-05  3047   0.590E-03
   3 F= -.23316336E+04 E0= -.23316336E+04  d E =-.833995E+00  mag=     2.0000
       N       E                     dE             d eps       ncg     rms          rms(c)
DAV:   1    -0.231152237840E+04    0.21874E-02   -0.18261E-01  4762   0.230E-01    0.133E-01
RMM:   2    -0.231152544711E+04   -0.30687E-02   -0.31385E-02  5682   0.662E-02    0.838E-02
RMM:   3    -0.231152576523E+04   -0.31812E-03   -0.47941E-03  3383   0.492E-02    0.576E-02
RMM:   4    -0.231152577906E+04   -0.13822E-04   -0.39205E-04  3167   0.614E-03    0.380E-02
RMM:   5    -0.231152575784E+04    0.21211E-04   -0.52159E-05  2940   0.353E-03    0.175E-02
RMM:   6    -0.231152575869E+04   -0.84654E-06   -0.10523E-05  2607   0.265E-03
   4 F= -.23316349E+04 E0= -.23316349E+04  d E =-.835234E+00  mag=     2.0000
       N       E                     dE             d eps       ncg     rms          rms(c)
DAV:   1    -0.231149804448E+04    0.27713E-01   -0.81503E+00  4448   0.239E+00    0.123E+00
RMM:   2    -0.231160665418E+04   -0.10861E+00   -0.11875E+00  5880   0.611E-01    0.769E-01
RMM:   3    -0.231159850417E+04    0.81500E-02   -0.88305E-02  5302   0.171E-01    0.365E-01
RMM:   4    -0.231159700726E+04    0.14969E-02   -0.13974E-02  4627   0.509E-02    0.188E-01
RMM:   5    -0.231159656009E+04    0.44717E-03   -0.20864E-03  5019   0.383E-02    0.120E-01
RMM:   6    -0.231159647480E+04    0.85292E-04   -0.45784E-04  4851   0.141E-02    0.105E-01
RMM:   7    -0.231159643176E+04    0.43040E-04   -0.21133E-04  3715   0.109E-02    0.865E-02
RMM:   8    -0.231159634427E+04    0.87487E-04   -0.51183E-04  4139   0.113E-02    0.337E-02
RMM:   9    -0.231159633778E+04    0.64962E-05   -0.70357E-05  3283   0.730E-03
   5 F= -.23317043E+04 E0= -.23317042E+04  d E =-.694463E-01  mag=     1.9983
       N       E                     dE             d eps       ncg     rms          rms(c)
DAV:   1    -0.231159623891E+04    0.10537E-03   -0.34875E-02  5272   0.155E-01    0.788E-02
RMM:   2    -0.231159668725E+04   -0.44834E-03   -0.48946E-03  5923   0.394E-02    0.470E-02
RMM:   3    -0.231159665842E+04    0.28835E-04   -0.30452E-04  3232   0.124E-02    0.245E-02
RMM:   4    -0.231159665360E+04    0.48179E-05   -0.50032E-05  2882   0.425E-03
   6 F= -.23317047E+04 E0= -.23317046E+04  d E =-.698326E-01  mag=     1.9987
       N       E                     dE             d eps       ncg     rms          rms(c)
DAV:   1    -0.231160803406E+04   -0.11376E-01   -0.28706E+00  4424   0.125E+00    0.602E-01
RMM:   2    -0.231161607482E+04   -0.80408E-02   -0.10257E-01  5215   0.252E-01    0.442E-01
RMM:   3    -0.231161381582E+04    0.22590E-02   -0.10286E-02  5247   0.809E-02    0.263E-01
RMM:   4    -0.231161288874E+04    0.92708E-03   -0.22390E-03  4746   0.284E-02    0.144E-01
RMM:   5    -0.231161269547E+04    0.19327E-03   -0.10713E-03  4742   0.233E-02    0.867E-02
RMM:   6    -0.231161261740E+04    0.78079E-04   -0.26450E-04  4252   0.114E-02    0.466E-02
RMM:   7    -0.231161260291E+04    0.14482E-04   -0.15247E-04  3445   0.818E-03    0.201E-02
RMM:   8    -0.231161260627E+04   -0.33517E-05   -0.22800E-05  2863   0.473E-03
   7 F= -.23317200E+04 E0= -.23317200E+04  d E =-.153423E-01  mag=     1.9990
       N       E                     dE             d eps       ncg     rms          rms(c)
DAV:   1    -0.231161668327E+04   -0.40804E-02   -0.29815E-01  4496   0.400E-01    0.196E-01
RMM:   2    -0.231161745331E+04   -0.77005E-03   -0.10134E-02  5258   0.802E-02    0.141E-01
RMM:   3    -0.231161721851E+04    0.23480E-03   -0.10166E-03  4722   0.279E-02    0.850E-02
RMM:   4    -0.231161712563E+04    0.92887E-04   -0.24638E-04  4229   0.975E-03    0.452E-02
RMM:   5    -0.231161711156E+04    0.14069E-04   -0.10175E-04  3358   0.814E-03    0.253E-02
RMM:   6    -0.231161710599E+04    0.55668E-05   -0.24378E-05  2834   0.487E-03
   8 F= -.23317247E+04 E0= -.23317247E+04  d E =-.200294E-01  mag=     1.9992
       N       E                     dE             d eps       ncg     rms          rms(c)
DAV:   1    -0.231162095669E+04   -0.38451E-02   -0.15463E-01  4480   0.392E-01    0.139E-01
RMM:   2    -0.231162162881E+04   -0.67211E-03   -0.77494E-03  5567   0.682E-02    0.833E-02
RMM:   3    -0.231162157547E+04    0.53342E-04   -0.58795E-04  4132   0.273E-02    0.556E-02
RMM:   4    -0.231162154723E+04    0.28238E-04   -0.13044E-04  3756   0.784E-03    0.393E-02
RMM:   5    -0.231162153249E+04    0.14742E-04   -0.77302E-05  3276   0.756E-03    0.167E-02
RMM:   6    -0.231162153174E+04    0.74186E-06   -0.17077E-05  2830   0.448E-03
   9 F= -.23317293E+04 E0= -.23317293E+04  d E =-.458152E-02  mag=     1.9992
       N       E                     dE             d eps       ncg     rms          rms(c)
DAV:   1    -0.231162207018E+04   -0.53769E-03   -0.96460E-01  4416   0.980E-01    0.345E-01
RMM:   2    -0.231162621735E+04   -0.41472E-02   -0.48327E-02  5442   0.168E-01    0.197E-01
RMM:   3    -0.231162585154E+04    0.36581E-03   -0.34884E-03  4621   0.626E-02    0.127E-01
RMM:   4    -0.231162567591E+04    0.17563E-03   -0.76576E-04  4364   0.183E-02    0.857E-02
RMM:   5    -0.231162559698E+04    0.78928E-04   -0.40983E-04  4571   0.166E-02    0.368E-02
RMM:   6    -0.231162558411E+04    0.12870E-04   -0.71548E-05  3297   0.656E-03    0.147E-02
RMM:   7    -0.231162558322E+04    0.88823E-06   -0.11842E-05  2813   0.437E-03
  10 F= -.23317337E+04 E0= -.23317337E+04  d E =-.901791E-02  mag=     1.9993
       N       E                     dE             d eps       ncg     rms          rms(c)
DAV:   1    -0.231162726395E+04   -0.16798E-02   -0.20114E-02  5184   0.134E-01    0.392E-02
RMM:   2    -0.231162731862E+04   -0.54671E-04   -0.61453E-04  5311   0.208E-02    0.225E-02
RMM:   3    -0.231162731587E+04    0.27516E-05   -0.44044E-05  2956   0.903E-03
  11 F= -.23317355E+04 E0= -.23317355E+04  d E =-.178415E-02  mag=     1.9993
       N       E                     dE             d eps       ncg     rms          rms(c)
DAV:   1    -0.231163146489E+04   -0.41463E-02   -0.17967E-01  4432   0.400E-01    0.120E-01
RMM:   2    -0.231163195084E+04   -0.48596E-03   -0.55230E-03  5319   0.606E-02    0.725E-02
RMM:   3    -0.231163191621E+04    0.34633E-04   -0.37368E-04  3953   0.227E-02    0.504E-02
RMM:   4    -0.231163190279E+04    0.13421E-04   -0.10414E-04  3738   0.769E-03    0.346E-02
RMM:   5    -0.231163189540E+04    0.73895E-05   -0.54228E-05  3035   0.659E-03
  12 F= -.23317403E+04 E0= -.23317402E+04  d E =-.651631E-02  mag=     1.9992
       N       E                     dE             d eps       ncg     rms          rms(c)
DAV:   1    -0.231163652923E+04   -0.46264E-02   -0.72090E-01  4432   0.803E-01    0.234E-01
RMM:   2    -0.231163849210E+04   -0.19629E-02   -0.22229E-02  5267   0.122E-01    0.136E-01
RMM:   3    -0.231163835714E+04    0.13496E-03   -0.15610E-03  4577   0.497E-02    0.914E-02
RMM:   4    -0.231163829715E+04    0.59994E-04   -0.34039E-04  4362   0.137E-02    0.612E-02
RMM:   5    -0.231163827121E+04    0.25940E-04   -0.17954E-04  4012   0.115E-02    0.241E-02
RMM:   6    -0.231163826755E+04    0.36607E-05   -0.26409E-05  2867   0.500E-03
  13 F= -.23317469E+04 E0= -.23317469E+04  d E =-.131854E-01  mag=     1.9988
       N       E                     dE             d eps       ncg     rms          rms(c)
DAV:   1    -0.231163265694E+04    0.56143E-02   -0.28855E+00  4392   0.161E+00    0.469E-01
RMM:   2    -0.231164040623E+04   -0.77493E-02   -0.88709E-02  5184   0.241E-01    0.278E-01
RMM:   3    -0.231163975806E+04    0.64817E-03   -0.62701E-03  4644   0.989E-02    0.183E-01
RMM:   4    -0.231163948390E+04    0.27416E-03   -0.13393E-03  4579   0.272E-02    0.119E-01
RMM:   5    -0.231163938409E+04    0.99808E-04   -0.71772E-04  4692   0.225E-02    0.428E-02
RMM:   6    -0.231163937053E+04    0.13564E-04   -0.84008E-05  3527   0.786E-03    0.173E-02
RMM:   7    -0.231163937057E+04   -0.39247E-07   -0.15837E-05  2843   0.462E-03
  14 F= -.23317486E+04 E0= -.23317484E+04  d E =-.148530E-01  mag=     1.9972
       N       E                     dE             d eps       ncg     rms          rms(c)
DAV:   1    -0.231163978890E+04   -0.41837E-03   -0.46289E-01  4480   0.644E-01    0.187E-01
RMM:   2    -0.231164101531E+04   -0.12264E-02   -0.14124E-02  5246   0.970E-02    0.111E-01
RMM:   3    -0.231164091542E+04    0.99886E-04   -0.10300E-03  4472   0.392E-02    0.730E-02
RMM:   4    -0.231164087204E+04    0.43376E-04   -0.22419E-04  4199   0.111E-02    0.466E-02
RMM:   5    -0.231164085783E+04    0.14218E-04   -0.10609E-04  3609   0.921E-03    0.153E-02
RMM:   6    -0.231164085678E+04    0.10456E-05   -0.12149E-05  2829   0.432E-03
  15 F= -.23317499E+04 E0= -.23317497E+04  d E =-.161173E-01  mag=     1.9978
       N       E                     dE             d eps       ncg     rms          rms(c)
DAV:   1    -0.231164686042E+04   -0.60026E-02   -0.31711E-01  4400   0.480E-01    0.155E-01
RMM:   2    -0.231164822982E+04   -0.13694E-02   -0.14397E-02  5641   0.837E-02    0.988E-02
RMM:   3    -0.231164815645E+04    0.73367E-04   -0.99458E-04  4350   0.291E-02    0.631E-02
RMM:   4    -0.231164812800E+04    0.28449E-04   -0.17005E-04  3831   0.849E-03    0.352E-02
RMM:   5    -0.231164812174E+04    0.62613E-05   -0.51191E-05  3067   0.702E-03
  16 F= -.23317570E+04 E0= -.23317568E+04  d E =-.714797E-02  mag=     1.9963
       N       E                     dE             d eps       ncg     rms          rms(c)
DAV:   1    -0.231164767073E+04    0.45727E-03   -0.28396E+00  4376   0.144E+00    0.474E-01
RMM:   2    -0.231166045244E+04   -0.12782E-01   -0.12940E-01  5609   0.253E-01    0.397E-01
RMM:   3    -0.231165948035E+04    0.97209E-03   -0.88434E-03  5096   0.827E-02    0.216E-01
RMM:   4    -0.231165905329E+04    0.42706E-03   -0.18144E-03  4483   0.260E-02    0.103E-01
RMM:   5    -0.231165892636E+04    0.12693E-03   -0.46192E-04  4377   0.201E-02    0.811E-02
RMM:   6    -0.231165898679E+04   -0.60424E-04   -0.10598E-04  3428   0.747E-03    0.603E-02
RMM:   7    -0.231165903322E+04   -0.46432E-04   -0.10849E-04  3194   0.667E-03    0.279E-02
RMM:   8    -0.231165905725E+04   -0.24034E-04   -0.36735E-05  2907   0.506E-03    0.198E-02
RMM:   9    -0.231165906014E+04   -0.28845E-05   -0.10442E-05  2810   0.393E-03
  17 F= -.23317676E+04 E0= -.23317658E+04  d E =-.177112E-01  mag=     1.9608
       N       E                     dE             d eps       ncg     rms          rms(c)
DAV:   1    -0.231165902701E+04    0.30243E-04   -0.12110E-01  4608   0.298E-01    0.109E-01
RMM:   2    -0.231165960058E+04   -0.57357E-03   -0.54278E-03  5622   0.524E-02    0.105E-01
RMM:   3    -0.231165956694E+04    0.33642E-04   -0.40726E-04  3755   0.181E-02    0.713E-02
RMM:   4    -0.231165952737E+04    0.39574E-04   -0.13697E-04  3332   0.712E-03    0.413E-02
RMM:   5    -0.231165949615E+04    0.31222E-04   -0.65499E-05  2993   0.615E-03    0.261E-02
RMM:   6    -0.231165950637E+04   -0.10224E-04   -0.16005E-05  2816   0.377E-03    0.175E-02
RMM:   7    -0.231165951500E+04   -0.86282E-05   -0.97611E-06  2718   0.221E-03
  18 F= -.23317679E+04 E0= -.23317653E+04  d E =-.180845E-01  mag=     1.9389
       N       E                     dE             d eps       ncg     rms          rms(c)
DAV:   1    -0.231166027124E+04   -0.76487E-03   -0.97691E-01  4432   0.891E-01    0.435E-01
RMM:   2    -0.231167042898E+04   -0.10158E-01   -0.80364E-02  5719   0.175E-01    0.958E-01
RMM:   3    -0.231167051962E+04   -0.90639E-04   -0.74582E-03  5298   0.576E-02    0.835E-01
RMM:   4    -0.231166835933E+04    0.21603E-02   -0.29390E-03  4253   0.261E-02    0.375E-01
RMM:   5    -0.231166796750E+04    0.39183E-03   -0.17442E-03  4686   0.196E-02    0.447E-01
RMM:   6    -0.231166737032E+04    0.59719E-03   -0.96066E-04  4217   0.166E-02    0.447E-01
RMM:   7    -0.231166669894E+04    0.67138E-03   -0.11124E-03  4117   0.147E-02    0.500E-01
RMM:   8    -0.231166661953E+04    0.79409E-04   -0.17004E-04  3054   0.817E-03    0.513E-01
RMM:   9    -0.231166484753E+04    0.17720E-02   -0.23819E-03  4181   0.202E-02    0.679E-01
RMM:  10    -0.231166805574E+04   -0.32082E-02   -0.13128E-02  4571   0.453E-02    0.354E-01
RMM:  11    -0.231166838839E+04   -0.33264E-03   -0.39724E-03  4432   0.306E-02    0.344E-01
RMM:  12    -0.231166969534E+04   -0.13070E-02   -0.70685E-03  4839   0.319E-02    0.607E-01
RMM:  13    -0.231166885595E+04    0.83939E-03   -0.87432E-04  3913   0.174E-02    0.358E-01
RMM:  14    -0.231166834002E+04    0.51593E-03   -0.14953E-03  4013   0.156E-02    0.301E-01
RMM:  15    -0.231166770357E+04    0.63645E-03   -0.24279E-03  4386   0.207E-02    0.272E-01
RMM:  16    -0.231166739011E+04    0.31347E-03   -0.11763E-03  3910   0.142E-02    0.313E-01
RMM:  17    -0.231166724515E+04    0.14496E-03   -0.34389E-04  3423   0.787E-03    0.337E-01
RMM:  18    -0.231166722976E+04    0.15389E-04   -0.23716E-05  2840   0.428E-03    0.341E-01
RMM:  19    -0.231166722347E+04    0.62884E-05   -0.33524E-06  2656   0.198E-03
  19 F= -.23317756E+04 E0= -.23317720E+04  d E =-.764589E-02  mag=     1.9844
       N       E                     dE             d eps       ncg     rms          rms(c)
DAV:   1    -0.231166482051E+04    0.24092E-02   -0.59116E-01  4432   0.694E-01    0.654E-01
RMM:   2    -0.231167833099E+04   -0.13510E-01   -0.53014E-02  5489   0.137E-01    0.193E+00
RMM:   3    -0.231167109610E+04    0.72349E-02   -0.15331E-02  4788   0.831E-02    0.831E-01
RMM:   4    -0.231166801329E+04    0.30828E-02   -0.40399E-03  4312   0.295E-02    0.700E-01
RMM:   5    -0.231166775085E+04    0.26244E-03   -0.21897E-03  4391   0.208E-02    0.850E-01
RMM:   6    -0.231166938857E+04   -0.16377E-02   -0.16182E-03  4007   0.178E-02    0.779E-01
RMM:   7    -0.231167091565E+04   -0.15271E-02   -0.95934E-03  4610   0.394E-02    0.629E-01
RMM:   8    -0.231167728246E+04   -0.63668E-02   -0.28478E-02  4811   0.667E-02    0.143E+00
RMM:   9    -0.231167111397E+04    0.61685E-02   -0.28602E-02  4762   0.690E-02    0.435E-01
RMM:  10    -0.231166808386E+04    0.30301E-02   -0.10932E-02  4831   0.487E-02    0.730E-01
RMM:  11    -0.231165746646E+04    0.10617E-01   -0.18282E-02  4704   0.678E-02    0.821E-01
RMM:  12    -0.231166085313E+04   -0.33867E-02   -0.12739E-03  3855   0.236E-02    0.808E-01
RMM:  13    -0.231165986505E+04    0.98808E-03   -0.13954E-04  3170   0.649E-03    0.810E-01
RMM:  14    -0.231165990944E+04   -0.44393E-04   -0.90432E-06  2793   0.299E-03    0.811E-01
RMM:  15    -0.231166088997E+04   -0.98053E-03   -0.90483E-05  2964   0.669E-03    0.803E-01
RMM:  16    -0.231166360983E+04   -0.27199E-02   -0.90936E-04  3639   0.195E-02    0.808E-01
RMM:  17    -0.231166325884E+04    0.35099E-03   -0.36354E-05  2825   0.621E-03    0.809E-01
RMM:  18    -0.231166424671E+04   -0.98787E-03   -0.10935E-04  2883   0.620E-03    0.815E-01
RMM:  19    -0.231166597672E+04   -0.17300E-02   -0.10342E-03  3938   0.166E-02    0.723E-01
RMM:  20    -0.231166818778E+04   -0.22111E-02   -0.66981E-03  4497   0.339E-02    0.419E-01
RMM:  21    -0.231166958603E+04   -0.13982E-02   -0.33015E-03  4259   0.260E-02    0.403E-01
RMM:  22    -0.231167102038E+04   -0.14344E-02   -0.33316E-03  4554   0.211E-02    0.472E-01
RMM:  23    -0.231167207578E+04   -0.10554E-02   -0.13169E-03  4066   0.161E-02    0.589E-01
RMM:  24    -0.231167283115E+04   -0.75537E-03   -0.83541E-04  3982   0.115E-02    0.648E-01
RMM:  25    -0.231167059312E+04    0.22380E-02   -0.34547E-03  4282   0.234E-02    0.403E-01
RMM:  26    -0.231166819564E+04    0.23975E-02   -0.84754E-03  4602   0.374E-02    0.484E-01
RMM:  27    -0.231166690051E+04    0.12951E-02   -0.49017E-03  4517   0.305E-02    0.696E-01
RMM:  28    -0.231165111199E+04    0.15789E-01   -0.22349E-02  4592   0.784E-02    0.900E-01
RMM:  29    -0.231165484057E+04   -0.37286E-02   -0.91448E-04  3720   0.215E-02    0.860E-01
RMM:  30    -0.231165467630E+04    0.16427E-03   -0.14757E-04  2983   0.536E-03    0.859E-01
RMM:  31    -0.231165705566E+04   -0.23794E-02   -0.30944E-04  3191   0.108E-02    0.831E-01
RMM:  32    -0.231165697589E+04    0.79772E-04   -0.13791E-05  2587   0.352E-03    0.834E-01
RMM:  33    -0.231165612249E+04    0.85340E-03   -0.31546E-05  2520   0.351E-03    0.844E-01
RMM:  34    -0.231165878445E+04   -0.26620E-02   -0.33646E-04  3147   0.102E-02    0.813E-01
RMM:  35    -0.231166287853E+04   -0.40941E-02   -0.13794E-03  3647   0.244E-02    0.788E-01
RMM:  36    -0.231166458015E+04   -0.17016E-02   -0.58923E-04  3330   0.163E-02    0.784E-01
RMM:  37    -0.231166483009E+04   -0.24995E-03   -0.66631E-05  2913   0.666E-03    0.781E-01
RMM:  38    -0.231166454740E+04    0.28269E-03   -0.10586E-05  2442   0.271E-03    0.783E-01
RMM:  39    -0.231166529444E+04   -0.74703E-03   -0.52462E-04  3769   0.108E-02    0.662E-01
RMM:  40    -0.231166625531E+04   -0.96088E-03   -0.15317E-03  4175   0.182E-02    0.463E-01
RMM:  41    -0.231166663854E+04   -0.38323E-03   -0.24200E-04  3245   0.823E-03    0.437E-01
RMM:  42    -0.231166689087E+04   -0.25233E-03   -0.65763E-05  2945   0.419E-03    0.431E-01
RMM:  43    -0.231166779023E+04   -0.89936E-03   -0.65301E-04  3824   0.108E-02    0.364E-01
RMM:  44    -0.231166904543E+04   -0.12552E-02   -0.19202E-03  4249   0.182E-02    0.308E-01
RMM:  45    -0.231166973469E+04   -0.68926E-03   -0.11799E-03  3933   0.146E-02    0.297E-01
RMM:  46    -0.231167007933E+04   -0.34464E-03   -0.40238E-04  3480   0.824E-03    0.307E-01
RMM:  47    -0.231167044467E+04   -0.36534E-03   -0.22099E-04  3337   0.732E-03    0.326E-01
RMM:  48    -0.231167021086E+04    0.23381E-03   -0.43528E-05  2847   0.447E-03    0.304E-01
RMM:  49    -0.231167014086E+04    0.69992E-04   -0.12820E-05  2445   0.206E-03    0.307E-01
RMM:  50    -0.231167012515E+04    0.15712E-04   -0.18023E-06  2195   0.128E-03    0.306E-01
RMM:  51    -0.231166996954E+04    0.15561E-03   -0.32675E-05  2671   0.246E-03    0.301E-01
RMM:  52    -0.231166964197E+04    0.32757E-03   -0.14426E-04  3138   0.476E-03    0.293E-01
RMM:  53    -0.231166910858E+04    0.53339E-03   -0.48028E-04  3609   0.870E-03    0.306E-01
RMM:  54    -0.231166850347E+04    0.60511E-03   -0.66265E-04  3734   0.106E-02    0.337E-01
RMM:  55    -0.231166846855E+04    0.34922E-04   -0.70498E-05  2818   0.464E-03    0.344E-01
RMM:  56    -0.231166852512E+04   -0.56567E-04   -0.81680E-06  2491   0.210E-03    0.339E-01
RMM:  57    -0.231166901808E+04   -0.49296E-03   -0.23638E-04  3195   0.617E-03    0.340E-01
RMM:  58    -0.231166911571E+04   -0.97636E-04   -0.39751E-05  2568   0.346E-03    0.336E-01
RMM:  59    -0.231166919534E+04   -0.79621E-04   -0.20242E-05  2262   0.200E-03    0.344E-01
RMM:  60    -0.231166938394E+04   -0.18860E-03   -0.40746E-05  2762   0.298E-03    0.352E-01
RMM:  61    -0.231166959898E+04   -0.21505E-03   -0.54733E-05  2848   0.325E-03    0.365E-01
RMM:  62    -0.231166984237E+04   -0.24339E-03   -0.84087E-05  2883   0.404E-03    0.376E-01
RMM:  63    -0.231166992870E+04   -0.86324E-04   -0.22751E-05  2620   0.303E-03    0.379E-01
RMM:  64    -0.231166966920E+04    0.25950E-03   -0.46379E-05  2567   0.310E-03    0.360E-01
RMM:  65    -0.231166915326E+04    0.51594E-03   -0.36304E-04  3503   0.771E-03    0.356E-01
RMM:  66    -0.231166787247E+04    0.12808E-02   -0.21197E-03  4210   0.182E-02    0.407E-01
RMM:  67    -0.231166776025E+04    0.11222E-03   -0.18778E-04  3056   0.838E-03    0.413E-01
RMM:  68    -0.231166795220E+04   -0.19195E-03   -0.31459E-05  2712   0.307E-03    0.398E-01
RMM:  69    -0.231166797849E+04   -0.26292E-04   -0.39830E-06  2300   0.164E-03    0.400E-01
RMM:  70    -0.231166834155E+04   -0.36306E-03   -0.14897E-04  3101   0.503E-03    0.379E-01
RMM:  71    -0.231166909922E+04   -0.75768E-03   -0.68323E-04  3774   0.102E-02    0.371E-01
RMM:  72    -0.231166793755E+04    0.11617E-02   -0.43990E-03  4494   0.274E-02    0.593E-01
RMM:  73    -0.231166858315E+04   -0.64560E-03   -0.71289E-04  3967   0.138E-02    0.517E-01
RMM:  74    -0.231166915286E+04   -0.56971E-03   -0.81600E-04  3859   0.124E-02    0.463E-01
RMM:  75    -0.231167008997E+04   -0.93711E-03   -0.14832E-03  4126   0.160E-02    0.467E-01
RMM:  76    -0.231167020919E+04   -0.11922E-03   -0.23933E-04  3149   0.803E-03    0.455E-01
RMM:  77    -0.231166961443E+04    0.59476E-03   -0.44347E-04  3396   0.884E-03    0.447E-01
RMM:  78    -0.231167036140E+04   -0.74696E-03   -0.53573E-04  3586   0.928E-03    0.487E-01
RMM:  79    -0.231167004140E+04    0.32000E-03   -0.68735E-05  2808   0.489E-03    0.455E-01
RMM:  80    -0.231166988454E+04    0.15686E-03   -0.31791E-05  2504   0.282E-03    0.450E-01
RMM:  81    -0.231166929907E+04    0.58547E-03   -0.46253E-04  3574   0.851E-03    0.438E-01
RMM:  82    -0.231166690052E+04    0.23986E-02   -0.10974E-02  4597   0.420E-02    0.717E-01
RMM:  83    -0.231166691363E+04   -0.13116E-04   -0.60154E-04  3470   0.160E-02    0.684E-01
RMM:  84    -0.231166684520E+04    0.68436E-04   -0.17130E-04  2983   0.395E-03    0.697E-01
RMM:  85    -0.231166734330E+04   -0.49810E-03   -0.36154E-04  3299   0.830E-03    0.628E-01
RMM:  86    -0.231166998522E+04   -0.26419E-02   -0.89111E-03  4509   0.373E-02    0.505E-01
RMM:  87    -0.231167212738E+04   -0.21422E-02   -0.57103E-03  4433   0.332E-02    0.705E-01
RMM:  88    -0.231167429210E+04   -0.21647E-02   -0.40911E-03  4708   0.230E-02    0.955E-01
RMM:  89    -0.231167717171E+04   -0.28796E-02   -0.28079E-03  4413   0.214E-02    0.130E+00
RMM:  90    -0.231167791248E+04   -0.74077E-03   -0.65353E-04  3651   0.127E-02    0.134E+00
RMM:  91    -0.231167795977E+04   -0.47290E-04   -0.13352E-04  2930   0.507E-03    0.135E+00
RMM:  92    -0.231167645851E+04    0.15013E-02   -0.23687E-04  3152   0.657E-03    0.114E+00
RMM:  93    -0.231167540364E+04    0.10549E-02   -0.37366E-04  3444   0.791E-03    0.104E+00
RMM:  94    -0.231167729927E+04   -0.18956E-02   -0.51383E-04  3625   0.933E-03    0.129E+00
RMM:  95    -0.231167621783E+04    0.10814E-02   -0.16719E-04  3129   0.615E-03    0.113E+00
RMM:  96    -0.231167679434E+04   -0.57651E-03   -0.47440E-05  2654   0.346E-03    0.122E+00
RMM:  97    -0.231167183660E+04    0.49577E-02   -0.86055E-03  4544   0.349E-02    0.515E-01
RMM:  98    -0.231167486521E+04   -0.30286E-02   -0.30490E-03  4538   0.254E-02    0.995E-01
RMM:  99    -0.231167501863E+04   -0.15341E-03   -0.34977E-04  3305   0.104E-02    0.955E-01
RMM: 100    -0.231167519220E+04   -0.17358E-03   -0.64932E-05  2906   0.448E-03    0.981E-01
RMM: 101    -0.231167526717E+04   -0.74968E-04   -0.16310E-05  2691   0.301E-03    0.984E-01
RMM: 102    -0.231167445046E+04    0.81671E-03   -0.17066E-04  2978   0.512E-03    0.882E-01
RMM: 103    -0.231167322898E+04    0.12215E-02   -0.65570E-04  3760   0.100E-02    0.744E-01
RMM: 104    -0.231167257404E+04    0.65494E-03   -0.37133E-04  3416   0.869E-03    0.693E-01
RMM: 105    -0.231167192231E+04    0.65173E-03   -0.48530E-04  3718   0.878E-03    0.630E-01
RMM: 106    -0.231167104534E+04    0.87697E-03   -0.82143E-04  4045   0.123E-02    0.565E-01
RMM: 107    -0.231167287438E+04   -0.18290E-02   -0.17687E-03  4167   0.170E-02    0.775E-01
RMM: 108    -0.231167195717E+04    0.91722E-03   -0.28220E-04  3402   0.869E-03    0.645E-01
RMM: 109    -0.231167239935E+04   -0.44218E-03   -0.83375E-05  2817   0.450E-03    0.727E-01
RMM: 110    -0.231167201119E+04    0.38816E-03   -0.73826E-05  2847   0.410E-03    0.682E-01
RMM: 111    -0.231167201398E+04   -0.27966E-05   -0.73981E-06  2397   0.227E-03
  20 F= -.23317803E+04 E0= -.23317712E+04  d E =-.123778E-01  mag=     1.9173
       N       E                     dE             d eps       ncg     rms          rms(c)
DAV:   1    -0.231165054996E+04    0.21461E-01   -0.23683E+00  4408   0.139E+00    0.181E+00
RMM:   2    -0.231177304547E+04   -0.12250E+00   -0.24001E-01  5368   0.283E-01    0.526E+00
RMM:   3    -0.231167280134E+04    0.10024E+00   -0.11349E-01  4743   0.193E-01    0.170E+00
RMM:   4    -0.231165659263E+04    0.16209E-01   -0.25380E-02  4715   0.769E-02    0.128E+00
RMM:   5    -0.231163838657E+04    0.18206E-01   -0.32807E-02  4796   0.883E-02    0.107E+00
RMM:   6    -0.231152809436E+04    0.11029E+00   -0.80460E-02  4536   0.146E-01    0.161E+00
RMM:   7    -0.231132267102E+04    0.20542E+00   -0.10611E-01  4499   0.154E-01    0.212E+00
RMM:   8    -0.231151235144E+04   -0.18968E+00   -0.72519E-02  4352   0.104E-01    0.168E+00
RMM:   9    -0.231163794918E+04   -0.12560E+00   -0.11517E-01  4519   0.160E-01    0.890E-01
RMM:  10    -0.231165675241E+04   -0.18803E-01   -0.27203E-02  4561   0.950E-02    0.672E-01
RMM:  11    -0.231166166877E+04   -0.49164E-02   -0.13737E-02  5212   0.484E-02    0.768E-01
RMM:  12    -0.231166741250E+04   -0.57437E-02   -0.75045E-03  4741   0.356E-02    0.132E+00
RMM:  13    -0.231166228631E+04    0.51262E-02   -0.65604E-03  4605   0.358E-02    0.829E-01
RMM:  14    -0.231165934771E+04    0.29386E-02   -0.16339E-02  4678   0.552E-02    0.124E+00
RMM:  15    -0.231165571317E+04    0.36345E-02   -0.32164E-03  4343   0.311E-02    0.115E+00
RMM:  16    -0.231164384052E+04    0.11873E-01   -0.11335E-02  4469   0.539E-02    0.952E-01
RMM:  17    -0.231161219649E+04    0.31644E-01   -0.19834E-02  4374   0.762E-02    0.122E+00
RMM:  18    -0.231161750546E+04   -0.53090E-02   -0.84858E-04  3489   0.190E-02    0.118E+00
RMM:  19    -0.231161455899E+04    0.29465E-02   -0.12546E-04  3245   0.636E-03    0.120E+00
RMM:  20    -0.231162894505E+04   -0.14386E-01   -0.34755E-03  3974   0.302E-02    0.106E+00
RMM:  21    -0.231165073488E+04   -0.21790E-01   -0.17452E-02  4449   0.760E-02    0.834E-01
RMM:  22    -0.231165442372E+04   -0.36888E-02   -0.51807E-03  4415   0.408E-02    0.622E-01
RMM:  23    -0.231165739171E+04   -0.29680E-02   -0.42603E-03  4682   0.274E-02    0.484E-01
RMM:  24    -0.231165857786E+04   -0.11861E-02   -0.83826E-04  3869   0.147E-02    0.490E-01
RMM:  25    -0.231165949081E+04   -0.91296E-03   -0.50429E-04  3518   0.826E-03    0.515E-01
RMM:  26    -0.231166127723E+04   -0.17864E-02   -0.84796E-04  3958   0.124E-02    0.590E-01
RMM:  27    -0.231166382259E+04   -0.25454E-02   -0.18001E-03  4281   0.174E-02    0.720E-01
RMM:  28    -0.231166263418E+04    0.11884E-02   -0.22504E-04  3260   0.942E-03    0.620E-01
RMM:  29    -0.231166251799E+04    0.11619E-03   -0.54884E-05  2824   0.437E-03    0.657E-01
RMM:  30    -0.231166118387E+04    0.13341E-02   -0.71735E-04  3974   0.110E-02    0.621E-01
RMM:  31    -0.231165731244E+04    0.38714E-02   -0.65159E-03  4629   0.326E-02    0.678E-01
RMM:  32    -0.231165477760E+04    0.25348E-02   -0.73425E-03  4706   0.378E-02    0.101E+00
RMM:  33    -0.231164691594E+04    0.78617E-02   -0.67489E-03  4355   0.431E-02    0.944E-01
RMM:  34    -0.231164343168E+04    0.34843E-02   -0.11423E-03  3763   0.226E-02    0.976E-01
RMM:  35    -0.231164685429E+04   -0.34226E-02   -0.34925E-04  3310   0.131E-02    0.946E-01
RMM:  36    -0.231164697195E+04   -0.11766E-03   -0.40550E-05  2820   0.543E-03    0.949E-01
RMM:  37    -0.231164764817E+04   -0.67622E-03   -0.53012E-05  2867   0.539E-03    0.950E-01
RMM:  38    -0.231165320131E+04   -0.55531E-02   -0.20818E-03  3890   0.278E-02    0.101E+00
RMM:  39    -0.231165259068E+04    0.61064E-03   -0.11070E-04  2946   0.835E-03    0.102E+00
RMM:  40    -0.231165240575E+04    0.18493E-03   -0.20870E-05  2555   0.269E-03    0.103E+00
RMM:  41    -0.231165316269E+04   -0.75693E-03   -0.49990E-05  2592   0.408E-03    0.103E+00
RMM:  42    -0.231165420960E+04   -0.10469E-02   -0.80700E-04  3848   0.126E-02    0.900E-01
RMM:  43    -0.231165647302E+04   -0.22634E-02   -0.19179E-03  4159   0.189E-02    0.785E-01
RMM:  44    -0.231165917478E+04   -0.27018E-02   -0.26596E-03  4426   0.209E-02    0.785E-01
RMM:  45    -0.231166172688E+04   -0.25521E-02   -0.25037E-03  4260   0.192E-02    0.889E-01
RMM:  46    -0.231166107145E+04    0.65542E-03   -0.11594E-04  3040   0.748E-03    0.826E-01
RMM:  47    -0.231166048582E+04    0.58563E-03   -0.13830E-04  3075   0.565E-03    0.825E-01
RMM:  48    -0.231166027961E+04    0.20621E-03   -0.65458E-05  2849   0.423E-03    0.845E-01
RMM:  49    -0.231165918773E+04    0.10919E-02   -0.55910E-04  3777   0.973E-03    0.840E-01
RMM:  50    -0.231165696867E+04    0.22191E-02   -0.19954E-03  4300   0.185E-02    0.873E-01
RMM:  51    -0.231165524651E+04    0.17222E-02   -0.27724E-03  4307   0.226E-02    0.105E+00
RMM:  52    -0.231164749819E+04    0.77483E-02   -0.67745E-03  4371   0.419E-02    0.102E+00
RMM:  53    -0.231164340667E+04    0.40915E-02   -0.13452E-03  3818   0.240E-02    0.106E+00
RMM:  54    -0.231163996909E+04    0.34376E-02   -0.74417E-04  3435   0.161E-02    0.107E+00
RMM:  55    -0.231164528689E+04   -0.53178E-02   -0.96670E-04  3348   0.179E-02    0.105E+00
RMM:  56    -0.231164641600E+04   -0.11291E-02   -0.11016E-04  2954   0.758E-03    0.105E+00
RMM:  57    -0.231165161747E+04   -0.52015E-02   -0.16786E-03  3627   0.242E-02    0.110E+00
RMM:  58    -0.231165254415E+04   -0.92668E-03   -0.19842E-04  2925   0.977E-03    0.113E+00
RMM:  59    -0.231164624812E+04    0.62960E-02   -0.26102E-03  3573   0.276E-02    0.106E+00
RMM:  60    -0.231164583745E+04    0.41067E-03   -0.95476E-05  2829   0.795E-03    0.105E+00
RMM:  61    -0.231164408454E+04    0.17529E-02   -0.19202E-04  3061   0.834E-03    0.107E+00
RMM:  62    -0.231157355506E+04    0.70529E-01   -0.57579E-02  4505   0.122E-01    0.156E+00
RMM:  63    -0.231152672065E+04    0.46834E-01   -0.14695E-02  4131   0.654E-02    0.173E+00
RMM:  64    -0.231154574782E+04   -0.19027E-01   -0.17632E-03  3378   0.188E-02    0.167E+00
RMM:  65    -0.231157548153E+04   -0.29734E-01   -0.39960E-03  3747   0.316E-02    0.154E+00
RMM:  66    -0.231164508287E+04   -0.69601E-01   -0.51369E-02  4435   0.110E-01    0.111E+00
RMM:  67    -0.231165736790E+04   -0.12285E-01   -0.17109E-02  4589   0.749E-02    0.104E+00
RMM:  68    -0.231165692334E+04    0.44457E-03   -0.16612E-03  4069   0.213E-02    0.992E-01
RMM:  69    -0.231165599288E+04    0.93045E-03   -0.30984E-04  3391   0.885E-03    0.104E+00
RMM:  70    -0.231165682454E+04   -0.83166E-03   -0.45467E-04  3604   0.929E-03    0.972E-01
RMM:  71    -0.231165757416E+04   -0.74962E-03   -0.24041E-04  3184   0.748E-03    0.961E-01
RMM:  72    -0.231165968386E+04   -0.21097E-02   -0.20067E-03  4368   0.185E-02    0.943E-01
RMM:  73    -0.231165949538E+04    0.18848E-03   -0.95308E-05  2997   0.791E-03    0.921E-01
RMM:  74    -0.231166137431E+04   -0.18789E-02   -0.95471E-04  4004   0.117E-02    0.101E+00
RMM:  75    -0.231166247156E+04   -0.10972E-02   -0.45401E-04  3484   0.966E-03    0.106E+00
RMM:  76    -0.231166239626E+04    0.75302E-04   -0.65369E-05  2833   0.401E-03    0.105E+00
RMM:  77    -0.231165786228E+04    0.45340E-02   -0.77370E-03  4537   0.344E-02    0.975E-01
RMM:  78    -0.231166217746E+04   -0.43152E-02   -0.45253E-03  4686   0.278E-02    0.111E+00
RMM:  79    -0.231166364453E+04   -0.14671E-02   -0.11296E-03  4055   0.153E-02    0.116E+00
RMM:  80    -0.231166416784E+04   -0.52331E-03   -0.26705E-04  3353   0.758E-03    0.118E+00
RMM:  81    -0.231166454301E+04   -0.37517E-03   -0.90475E-05  2909   0.482E-03    0.120E+00
RMM:  82    -0.231166450392E+04    0.39088E-04   -0.13173E-05  2687   0.303E-03    0.120E+00
RMM:  83    -0.231166428558E+04    0.21834E-03   -0.11034E-05  2478   0.203E-03    0.119E+00
RMM:  84    -0.231166519554E+04   -0.90996E-03   -0.10957E-04  2903   0.411E-03    0.127E+00
RMM:  85    -0.231166533397E+04   -0.13842E-03   -0.15995E-05  2564   0.276E-03    0.127E+00
RMM:  86    -0.231166565927E+04   -0.32531E-03   -0.29500E-05  2713   0.252E-03    0.130E+00
RMM:  87    -0.231167262300E+04   -0.69637E-02   -0.46842E-03  4458   0.256E-02    0.190E+00
RMM:  88    -0.231166925043E+04    0.33726E-02   -0.52158E-04  3646   0.141E-02    0.149E+00
RMM:  89    -0.231166631557E+04    0.29349E-02   -0.14788E-03  4047   0.152E-02    0.131E+00
RMM:  90    -0.231166367624E+04    0.26393E-02   -0.20667E-03  4285   0.196E-02    0.115E+00
RMM:  91    -0.231166371316E+04   -0.36920E-04   -0.26619E-04  3281   0.948E-03    0.121E+00
RMM:  92    -0.231165979720E+04    0.39160E-02   -0.67568E-03  4614   0.315E-02    0.109E+00
RMM:  93    -0.231166001062E+04   -0.21342E-03   -0.36153E-04  3360   0.132E-02    0.111E+00
RMM:  94    -0.231165917488E+04    0.83574E-03   -0.46394E-04  3416   0.738E-03    0.110E+00
RMM:  95    -0.231165963916E+04   -0.46428E-03   -0.92581E-05  2959   0.520E-03    0.111E+00
RMM:  96    -0.231165899642E+04    0.64274E-03   -0.33901E-04  3360   0.772E-03    0.114E+00
RMM:  97    -0.231159934495E+04    0.59651E-01   -0.12826E-01  4584   0.145E-01    0.128E+00
RMM:  98    -0.231159754213E+04    0.18028E-02   -0.26446E-03  4048   0.335E-02    0.129E+00
RMM:  99    -0.231158962164E+04    0.79205E-02   -0.13776E-03  3722   0.156E-02    0.133E+00
RMM: 100    -0.231159161653E+04   -0.19949E-02   -0.10472E-04  2985   0.677E-03    0.132E+00
RMM: 101    -0.231159274756E+04   -0.11310E-02   -0.26344E-05  2591   0.309E-03    0.132E+00
RMM: 102    -0.231164082956E+04   -0.48082E-01   -0.27543E-02  4373   0.773E-02    0.948E-01
RMM: 103    -0.231164620316E+04   -0.53736E-02   -0.30454E-03  3798   0.348E-02    0.951E-01
RMM: 104    -0.231161870644E+04    0.27497E-01   -0.14543E-02  4283   0.637E-02    0.126E+00
RMM: 105    -0.231155081785E+04    0.67889E-01   -0.30770E-02  4488   0.901E-02    0.168E+00
RMM: 106    -0.231156225934E+04   -0.11441E-01   -0.11454E-03  3568   0.202E-02    0.163E+00
RMM: 107    -0.231162330508E+04   -0.61046E-01   -0.25953E-02  4363   0.760E-02    0.120E+00
RMM: 108    -0.231163669021E+04   -0.13385E-01   -0.51733E-03  4028   0.413E-02    0.104E+00
RMM: 109    -0.231164640921E+04   -0.97190E-02   -0.41219E-03  4138   0.351E-02    0.966E-01
RMM: 110    -0.231165217712E+04   -0.57679E-02   -0.23279E-03  3794   0.307E-02    0.103E+00
RMM: 111    -0.231165321452E+04   -0.10374E-02   -0.32887E-04  3221   0.126E-02    0.106E+00
RMM: 112    -0.231164917545E+04    0.40391E-02   -0.79077E-04  3299   0.155E-02    0.973E-01
RMM: 113    -0.231164640587E+04    0.27696E-02   -0.44318E-04  3219   0.137E-02    0.964E-01
RMM: 114    -0.231164623830E+04    0.16757E-03   -0.31340E-05  2617   0.482E-03    0.955E-01
RMM: 115    -0.231165067730E+04   -0.44390E-02   -0.10516E-03  3536   0.191E-02    0.961E-01
RMM: 116    -0.231163791018E+04    0.12767E-01   -0.73199E-03  4074   0.449E-02    0.102E+00
RMM: 117    -0.231153451175E+04    0.10340E+00   -0.76309E-02  4576   0.139E-01    0.170E+00
RMM: 118    -0.231160027055E+04   -0.65759E-01   -0.18348E-02  4184   0.629E-02    0.139E+00
RMM: 119    -0.231156125624E+04    0.39014E-01   -0.85600E-03  4019   0.446E-02    0.160E+00
RMM: 120    -0.231155411642E+04    0.71398E-02   -0.79052E-04  3422   0.173E-02    0.164E+00
RMM: 121    -0.231154982864E+04    0.42878E-02   -0.27101E-04  3141   0.929E-03    0.166E+00
RMM: 122    -0.231157037178E+04   -0.20543E-01   -0.18624E-03  3568   0.220E-02    0.154E+00
RMM: 123    -0.231159768771E+04   -0.27316E-01   -0.53673E-03  3959   0.378E-02    0.139E+00
RMM: 124    -0.231160012714E+04   -0.24394E-02   -0.48212E-04  3276   0.134E-02    0.138E+00
RMM: 125    -0.231159300129E+04    0.71259E-02   -0.32218E-04  3092   0.946E-03    0.141E+00
RMM: 126    -0.231159289681E+04    0.10448E-03   -0.10949E-05  2436   0.280E-03    0.141E+00
RMM: 127    -0.231165522478E+04   -0.62328E-01   -0.61097E-02  4527   0.123E-01    0.120E+00
RMM: 128    -0.231165341822E+04    0.18066E-02   -0.32316E-03  3793   0.403E-02    0.103E+00
RMM: 129    -0.231165421891E+04   -0.80069E-03   -0.15828E-03  4132   0.156E-02    0.899E-01
RMM: 130    -0.231165801349E+04   -0.37946E-02   -0.60854E-03  4683   0.328E-02    0.729E-01
RMM: 131    -0.231166208810E+04   -0.40746E-02   -0.61141E-03  4704   0.331E-02    0.885E-01
RMM: 132    -0.231166085826E+04    0.12298E-02   -0.35978E-04  3550   0.113E-02    0.770E-01
RMM: 133    -0.231166209972E+04   -0.12415E-02   -0.29748E-04  3201   0.615E-03    0.905E-01
RMM: 134    -0.231166504352E+04   -0.29438E-02   -0.14823E-03  4160   0.146E-02    0.114E+00
RMM: 135    -0.231166712374E+04   -0.20802E-02   -0.10230E-03  3904   0.143E-02    0.128E+00
RMM: 136    -0.231166867677E+04   -0.15530E-02   -0.79247E-04  3905   0.107E-02    0.139E+00
RMM: 137    -0.231167881440E+04   -0.10138E-01   -0.73548E-03  4689   0.326E-02    0.220E+00
RMM: 138    -0.231168897201E+04   -0.10158E-01   -0.75843E-03  4715   0.351E-02    0.271E+00
RMM: 139    -0.231168827206E+04    0.69994E-03   -0.60231E-04  3583   0.140E-02    0.261E+00
RMM: 140    -0.231168695684E+04    0.13152E-02   -0.11701E-04  2985   0.528E-03    0.256E+00
RMM: 141    -0.231169028393E+04   -0.33271E-02   -0.28894E-04  3260   0.645E-03    0.277E+00
RMM: 142    -0.231167812624E+04    0.12158E-01   -0.68960E-03  4558   0.309E-02    0.199E+00
RMM: 143    -0.231167415337E+04    0.39729E-02   -0.22523E-03  4104   0.227E-02    0.182E+00
RMM: 144    -0.231167953395E+04   -0.53806E-02   -0.96337E-04  3859   0.136E-02    0.225E+00
RMM: 145    -0.231168463547E+04   -0.51015E-02   -0.15701E-03  4068   0.156E-02    0.252E+00
RMM: 146    -0.231168576780E+04   -0.11323E-02   -0.27846E-04  3232   0.885E-03    0.255E+00
RMM: 147    -0.231168032528E+04    0.54425E-02   -0.93791E-04  3800   0.122E-02    0.218E+00
RMM: 148    -0.231167774369E+04    0.25816E-02   -0.52546E-04  3492   0.103E-02    0.205E+00
RMM: 149    -0.231167770267E+04    0.41015E-04   -0.68155E-05  2865   0.501E-03    0.206E+00
RMM: 150    -0.231167680258E+04    0.90009E-03   -0.71829E-05  2834   0.342E-03    0.198E+00
RMM: 151    -0.231167557760E+04    0.12250E-02   -0.86225E-05  2959   0.444E-03    0.188E+00
RMM: 152    -0.231167955315E+04   -0.39755E-02   -0.65378E-04  3628   0.101E-02    0.222E+00
RMM: 153    -0.231168048895E+04   -0.93581E-03   -0.19808E-04  3120   0.730E-03    0.223E+00
RMM: 154    -0.231167977658E+04    0.71237E-03   -0.19236E-05  2674   0.343E-03    0.218E+00
RMM: 155    -0.231167927149E+04    0.50510E-03   -0.18699E-05  2378   0.209E-03    0.216E+00
RMM: 156    -0.231167792395E+04    0.13475E-02   -0.13647E-04  3117   0.448E-03    0.207E+00
RMM: 157    -0.231166398091E+04    0.13943E-01   -0.27486E-02  4722   0.631E-02    0.908E-01
RMM: 158    -0.231165996008E+04    0.40208E-02   -0.67579E-03  4414   0.418E-02    0.919E-01
RMM: 159    -0.231165943194E+04    0.52814E-03   -0.14130E-03  4356   0.148E-02    0.918E-01
RMM: 160    -0.231166019674E+04   -0.76480E-03   -0.24601E-04  3511   0.890E-03    0.914E-01
RMM: 161    -0.231166007211E+04    0.12463E-03   -0.10901E-05  2776   0.323E-03    0.893E-01
RMM: 162    -0.231165848674E+04    0.15854E-02   -0.15722E-03  4129   0.161E-02    0.946E-01
RMM: 163    -0.231165661513E+04    0.18716E-02   -0.30669E-03  4398   0.245E-02    0.110E+00
RMM: 164    -0.231165532518E+04    0.12899E-02   -0.85972E-04  3774   0.137E-02    0.112E+00
RMM: 165    -0.231165408018E+04    0.12450E-02   -0.32415E-04  3348   0.916E-03    0.109E+00
RMM: 166    -0.231165170352E+04    0.23767E-02   -0.51314E-04  3260   0.139E-02    0.996E-01
RMM: 167    -0.231165837827E+04   -0.66748E-02   -0.54487E-03  4334   0.332E-02    0.103E+00
RMM: 168    -0.231165838826E+04   -0.99907E-05   -0.31791E-04  3218   0.126E-02    0.103E+00
RMM: 169    -0.231165778135E+04    0.60692E-03   -0.47024E-04  3643   0.105E-02    0.111E+00
RMM: 170    -0.231165029318E+04    0.74882E-02   -0.69447E-03  4412   0.417E-02    0.106E+00
RMM: 171    -0.231159704071E+04    0.53252E-01   -0.55003E-02  4519   0.117E-01    0.143E+00
RMM: 172    -0.231162664047E+04   -0.29600E-01   -0.75051E-03  4140   0.418E-02    0.116E+00
RMM: 173    -0.231163319656E+04   -0.65561E-02   -0.12928E-03  3851   0.209E-02    0.104E+00
RMM: 174    -0.231162728349E+04    0.59131E-02   -0.38873E-04  3243   0.129E-02    0.109E+00
RMM: 175    -0.231160150326E+04    0.25780E-01   -0.77757E-03  4102   0.439E-02    0.130E+00
RMM: 176    -0.231160156261E+04   -0.59358E-04   -0.24800E-04  3071   0.107E-02    0.129E+00
RMM: 177    -0.231160457400E+04   -0.30114E-02   -0.21306E-04  3119   0.736E-03    0.122E+00
RMM: 178    -0.231159655667E+04    0.80173E-02   -0.52071E-04  3162   0.103E-02    0.129E+00
RMM: 179    -0.231158145137E+04    0.15105E-01   -0.18382E-03  3586   0.203E-02    0.137E+00
RMM: 180    -0.231158101436E+04    0.43701E-03   -0.91223E-05  2710   0.579E-03    0.137E+00
RMM: 181    -0.231157777009E+04    0.32443E-02   -0.14550E-04  2827   0.671E-03    0.139E+00
RMM: 182    -0.231162729335E+04   -0.49523E-01   -0.22379E-02  4297   0.682E-02    0.106E+00
RMM: 183    -0.231161451812E+04    0.12775E-01   -0.19026E-03  3759   0.248E-02    0.119E+00
RMM: 184    -0.231162842519E+04   -0.13907E-01   -0.27760E-03  3865   0.273E-02    0.103E+00
RMM: 185    -0.231163826486E+04   -0.98397E-02   -0.23969E-03  3782   0.274E-02    0.933E-01
RMM: 186    -0.231165297223E+04   -0.14707E-01   -0.85822E-03  4352   0.548E-02    0.908E-01
RMM: 187    -0.231165505507E+04   -0.20828E-02   -0.12825E-03  3610   0.251E-02    0.968E-01
RMM: 188    -0.231165529334E+04   -0.23827E-03   -0.23226E-04  3251   0.800E-03    0.964E-01
RMM: 189    -0.231165502546E+04    0.26788E-03   -0.14243E-05  2737   0.417E-03    0.956E-01
RMM: 190    -0.231165492860E+04    0.96859E-04   -0.39281E-06  2377   0.162E-03    0.959E-01
RMM: 191    -0.231165496630E+04   -0.37700E-04   -0.98025E-07  2153   0.114E-03    0.964E-01
RMM: 192    -0.231165496748E+04   -0.11758E-05   -0.45235E-07  1711   0.765E-04
  21 F= -.23317631E+04 E0= -.23317595E+04  d E =0.480891E-02  mag=     2.1402
       N       E                     dE             d eps       ncg     rms          rms(c)
DAV:   1    -0.231165303921E+04    0.19271E-02   -0.13634E+00  4408   0.105E+00    0.817E-01
RMM:   2    -0.231166890743E+04   -0.15868E-01   -0.13658E-01  5692   0.221E-01    0.747E-01
RMM:   3    -0.231167225297E+04   -0.33455E-02   -0.12260E-02  4910   0.719E-02    0.146E+00
RMM:   4    -0.231166676759E+04    0.54854E-02   -0.20950E-02  4744   0.624E-02    0.838E-01
RMM:   5    -0.231165617829E+04    0.10589E-01   -0.96621E-03  4558   0.586E-02    0.898E-01
RMM:   6    -0.231163667873E+04    0.19500E-01   -0.13618E-02  4558   0.662E-02    0.115E+00
RMM:   7    -0.231166472067E+04   -0.28042E-01   -0.22757E-02  4402   0.834E-02    0.962E-01
RMM:   8    -0.231166635388E+04   -0.16332E-02   -0.18791E-02  4937   0.573E-02    0.372E-01
RMM:   9    -0.231166707294E+04   -0.71905E-03   -0.27972E-03  4389   0.283E-02    0.351E-01
RMM:  10    -0.231166711292E+04   -0.39981E-04   -0.49899E-04  3418   0.704E-03    0.346E-01
RMM:  11    -0.231166776436E+04   -0.65144E-03   -0.51380E-04  3602   0.104E-02    0.435E-01
RMM:  12    -0.231166473386E+04    0.30305E-02   -0.69687E-03  4407   0.329E-02    0.362E-01
RMM:  13    -0.231165851433E+04    0.62195E-02   -0.71229E-03  4593   0.393E-02    0.680E-01
RMM:  14    -0.231165778210E+04    0.73223E-03   -0.12282E-03  4615   0.201E-02    0.656E-01
RMM:  15    -0.231165852946E+04   -0.74736E-03   -0.83815E-05  3045   0.607E-03    0.626E-01
RMM:  16    -0.231166302279E+04   -0.44933E-02   -0.26202E-03  4292   0.236E-02    0.513E-01
RMM:  17    -0.231167240834E+04   -0.93855E-02   -0.88102E-03  4767   0.436E-02    0.129E+00
RMM:  18    -0.231167184433E+04    0.56401E-03   -0.75314E-04  4178   0.232E-02    0.119E+00
RMM:  19    -0.231166927947E+04    0.25649E-02   -0.22204E-04  3433   0.830E-03    0.862E-01
RMM:  20    -0.231166789057E+04    0.13889E-02   -0.41658E-04  3874   0.109E-02    0.752E-01
RMM:  21    -0.231166625945E+04    0.16311E-02   -0.10581E-03  4162   0.152E-02    0.718E-01
RMM:  22    -0.231166537607E+04    0.88338E-03   -0.42620E-04  3554   0.111E-02    0.738E-01
RMM:  23    -0.231166469717E+04    0.67890E-03   -0.36019E-04  3342   0.860E-03    0.761E-01
RMM:  24    -0.231166412140E+04    0.57577E-03   -0.20581E-04  3174   0.748E-03    0.793E-01
RMM:  25    -0.231166410543E+04    0.15972E-04   -0.24599E-05  2807   0.374E-03    0.796E-01
RMM:  26    -0.231166419464E+04   -0.89212E-04   -0.47022E-06  2527   0.196E-03    0.790E-01
RMM:  27    -0.231166439025E+04   -0.19561E-03   -0.17083E-05  2503   0.218E-03    0.777E-01
RMM:  28    -0.231166514547E+04   -0.75522E-03   -0.33125E-04  3354   0.753E-03    0.722E-01
RMM:  29    -0.231166614307E+04   -0.99761E-03   -0.75701E-04  3704   0.113E-02    0.662E-01
RMM:  30    -0.231166708649E+04   -0.94342E-03   -0.66815E-04  3527   0.104E-02    0.646E-01
RMM:  31    -0.231166668275E+04    0.40374E-03   -0.63880E-05  2875   0.492E-03    0.645E-01
RMM:  32    -0.231166669745E+04   -0.14699E-04   -0.65041E-06  2350   0.182E-03    0.646E-01
RMM:  33    -0.231166671027E+04   -0.12823E-04   -0.91346E-07  1921   0.860E-04    0.647E-01
RMM:  34    -0.231166649915E+04    0.21112E-03   -0.38528E-05  2584   0.261E-03    0.656E-01
RMM:  35    -0.231166608573E+04    0.41342E-03   -0.13588E-04  3040   0.459E-03    0.674E-01
RMM:  36    -0.231166702234E+04   -0.93661E-03   -0.50294E-04  3444   0.900E-03    0.648E-01
RMM:  37    -0.231166836699E+04   -0.13447E-02   -0.16428E-03  4051   0.160E-02    0.636E-01
RMM:  38    -0.231166860057E+04   -0.23358E-03   -0.27362E-04  3198   0.787E-03    0.625E-01
RMM:  39    -0.231166833233E+04    0.26824E-03   -0.38477E-05  2756   0.354E-03    0.620E-01
RMM:  40    -0.231166844299E+04   -0.11066E-03   -0.10094E-05  2222   0.169E-03    0.630E-01
RMM:  41    -0.231166856493E+04   -0.12194E-03   -0.20325E-05  2390   0.195E-03    0.627E-01
RMM:  42    -0.231166865972E+04   -0.94786E-04   -0.14085E-05  2488   0.195E-03    0.626E-01
RMM:  43    -0.231166857612E+04    0.83598E-04   -0.76485E-06  2200   0.168E-03    0.630E-01
RMM:  44    -0.231167004518E+04   -0.14691E-02   -0.14283E-03  4002   0.142E-02    0.704E-01
RMM:  45    -0.231167003917E+04    0.60146E-05   -0.10255E-04  2895   0.653E-03    0.697E-01
RMM:  46    -0.231166999274E+04    0.46425E-04   -0.15999E-05  2559   0.210E-03    0.697E-01
RMM:  47    -0.231166980998E+04    0.18276E-03   -0.32893E-05  2640   0.264E-03    0.694E-01
RMM:  48    -0.231167140634E+04   -0.15964E-02   -0.13277E-03  3919   0.136E-02    0.835E-01
RMM:  49    -0.231167129002E+04    0.11632E-03   -0.88391E-05  2875   0.605E-03    0.798E-01
RMM:  50    -0.231167091039E+04    0.37963E-03   -0.91936E-05  2873   0.465E-03    0.782E-01
RMM:  51    -0.231167040846E+04    0.50192E-03   -0.29603E-04  3502   0.721E-03    0.769E-01
RMM:  52    -0.231166818851E+04    0.22200E-02   -0.53008E-03  4510   0.281E-02    0.731E-01
RMM:  53    -0.231166766755E+04    0.52095E-03   -0.14297E-03  4004   0.184E-02    0.828E-01
RMM:  54    -0.231166784149E+04   -0.17393E-03   -0.14868E-04  2997   0.507E-03    0.814E-01
RMM:  55    -0.231166789093E+04   -0.49442E-04   -0.24516E-05  2682   0.324E-03    0.795E-01
RMM:  56    -0.231166803427E+04   -0.14334E-03   -0.13147E-04  3059   0.500E-03    0.759E-01
RMM:  57    -0.231166899780E+04   -0.96353E-03   -0.21102E-03  4252   0.184E-02    0.664E-01
RMM:  58    -0.231167180446E+04   -0.28067E-02   -0.69866E-03  4626   0.333E-02    0.784E-01
RMM:  59    -0.231167429029E+04   -0.24858E-02   -0.47740E-03  4630   0.286E-02    0.966E-01
RMM:  60    -0.231167395714E+04    0.33315E-03   -0.45011E-04  3358   0.100E-02    0.894E-01
RMM:  61    -0.231167411494E+04   -0.15781E-03   -0.13972E-04  2892   0.383E-03    0.927E-01
RMM:  62    -0.231168387906E+04   -0.97641E-02   -0.15699E-02  4660   0.452E-02    0.185E+00
RMM:  63    -0.231167784649E+04    0.60326E-02   -0.44025E-03  4627   0.311E-02    0.124E+00
RMM:  64    -0.231167456340E+04    0.32831E-02   -0.23421E-03  4253   0.201E-02    0.105E+00
RMM:  65    -0.231167630067E+04   -0.17373E-02   -0.84061E-04  3986   0.149E-02    0.117E+00
RMM:  66    -0.231167856332E+04   -0.22626E-02   -0.14128E-03  4070   0.150E-02    0.135E+00
RMM:  67    -0.231167840470E+04    0.15862E-03   -0.15028E-04  3046   0.824E-03    0.127E+00
RMM:  68    -0.231167897507E+04   -0.57037E-03   -0.16181E-04  3096   0.469E-03    0.133E+00
RMM:  69    -0.231167889560E+04    0.79477E-04   -0.94610E-06  2669   0.303E-03    0.132E+00
RMM:  70    -0.231167855524E+04    0.34036E-03   -0.22913E-05  2411   0.226E-03    0.129E+00
RMM:  71    -0.231167716794E+04    0.13873E-02   -0.40101E-04  3508   0.751E-03    0.117E+00
RMM:  72    -0.231167790905E+04   -0.74111E-03   -0.28159E-04  3281   0.715E-03    0.127E+00
RMM:  73    -0.231167797614E+04   -0.67087E-04   -0.28387E-05  2540   0.311E-03    0.125E+00
RMM:  74    -0.231167621253E+04    0.17636E-02   -0.74089E-04  3705   0.994E-03    0.108E+00
RMM:  75    -0.231167551447E+04    0.69806E-03   -0.25750E-04  3132   0.725E-03    0.104E+00
RMM:  76    -0.231167567873E+04   -0.16426E-03   -0.24617E-05  2674   0.326E-03    0.105E+00
RMM:  77    -0.231166989218E+04    0.57865E-02   -0.23343E-02  4741   0.566E-02    0.548E-01
RMM:  78    -0.231166835249E+04    0.15397E-02   -0.32763E-03  4165   0.310E-02    0.622E-01
RMM:  79    -0.231166872850E+04   -0.37601E-03   -0.43263E-04  3397   0.771E-03    0.604E-01
RMM:  80    -0.231166888780E+04   -0.15930E-03   -0.55300E-05  2903   0.469E-03    0.584E-01
RMM:  81    -0.231166855179E+04    0.33601E-03   -0.89471E-05  2843   0.386E-03    0.578E-01
RMM:  82    -0.231166684097E+04    0.17108E-02   -0.61723E-03  4522   0.312E-02    0.792E-01
RMM:  83    -0.231166380362E+04    0.30373E-02   -0.29169E-03  4155   0.294E-02    0.839E-01
RMM:  84    -0.231166483543E+04   -0.10318E-02   -0.30181E-04  3282   0.983E-03    0.864E-01
RMM:  85    -0.231166469382E+04    0.14161E-03   -0.20037E-05  2740   0.348E-03    0.859E-01
RMM:  86    -0.231166464559E+04    0.48236E-04   -0.35686E-06  2541   0.188E-03    0.859E-01
RMM:  87    -0.231166709083E+04   -0.24452E-02   -0.31294E-03  4248   0.240E-02    0.724E-01
RMM:  88    -0.231166714912E+04   -0.58288E-04   -0.40899E-04  3374   0.113E-02    0.671E-01
RMM:  89    -0.231166747632E+04   -0.32720E-03   -0.58720E-04  3803   0.913E-03    0.608E-01
RMM:  90    -0.231166865755E+04   -0.11812E-02   -0.21211E-03  4317   0.190E-02    0.513E-01
RMM:  91    -0.231166931056E+04   -0.65301E-03   -0.97332E-04  3828   0.134E-02    0.493E-01
RMM:  92    -0.231167007120E+04   -0.76064E-03   -0.99502E-04  4253   0.125E-02    0.474E-01
RMM:  93    -0.231167011971E+04   -0.48510E-04   -0.76107E-05  2924   0.613E-03    0.466E-01
RMM:  94    -0.231167013142E+04   -0.11717E-04   -0.16432E-05  2665   0.230E-03    0.468E-01
RMM:  95    -0.231167041135E+04   -0.27993E-03   -0.56755E-05  2916   0.363E-03    0.481E-01
RMM:  96    -0.231167023968E+04    0.17168E-03   -0.13056E-05  2561   0.274E-03    0.469E-01
RMM:  97    -0.231166842586E+04    0.18138E-02   -0.30965E-03  4300   0.214E-02    0.459E-01
RMM:  98    -0.231166827703E+04    0.14883E-03   -0.23254E-04  3069   0.965E-03    0.471E-01
RMM:  99    -0.231166827093E+04    0.60971E-05   -0.52502E-05  2735   0.280E-03
  22 F= -.23317766E+04 E0= -.23317715E+04  d E =-.860381E-02  mag=     1.9660
       N       E                     dE             d eps       ncg     rms          rms(c)
DAV:   1    -0.231166847863E+04   -0.20161E-03   -0.18032E-02  4432   0.121E-01    0.412E-01
RMM:   2    -0.231167369226E+04   -0.52136E-02   -0.60181E-03  5151   0.389E-02    0.122E+00
RMM:   3    -0.231166904820E+04    0.46441E-02   -0.55818E-03  4453   0.354E-02    0.556E-01
RMM:   4    -0.231166873637E+04    0.31183E-03   -0.37685E-04  3364   0.136E-02    0.597E-01
RMM:   5    -0.231166885134E+04   -0.11497E-03   -0.50602E-05  2923   0.409E-03    0.592E-01
RMM:   6    -0.231166896484E+04   -0.11350E-03   -0.56148E-04  3847   0.102E-02    0.457E-01
RMM:   7    -0.231166937829E+04   -0.41345E-03   -0.68711E-04  3827   0.121E-02    0.436E-01
RMM:   8    -0.231167044793E+04   -0.10696E-02   -0.38481E-03  4576   0.257E-02    0.486E-01
RMM:   9    -0.231167126435E+04   -0.81642E-03   -0.22477E-03  4305   0.215E-02    0.590E-01
RMM:  10    -0.231167162846E+04   -0.36411E-03   -0.62704E-04  3959   0.110E-02    0.643E-01
RMM:  11    -0.231166933024E+04    0.22982E-02   -0.11198E-02  4595   0.432E-02    0.344E-01
RMM:  12    -0.231166750081E+04    0.18294E-02   -0.68749E-03  4649   0.391E-02    0.565E-01
RMM:  13    -0.231166796792E+04   -0.46711E-03   -0.35315E-04  3586   0.121E-02    0.525E-01
RMM:  14    -0.231166803703E+04   -0.69115E-04   -0.84042E-05  3015   0.517E-03    0.476E-01
RMM:  15    -0.231166863655E+04   -0.59952E-03   -0.54169E-04  3812   0.101E-02    0.412E-01
RMM:  16    -0.231166984429E+04   -0.12077E-02   -0.16396E-03  4247   0.173E-02    0.393E-01
RMM:  17    -0.231167021754E+04   -0.37325E-03   -0.35634E-04  3411   0.977E-03    0.402E-01
RMM:  18    -0.231167051100E+04   -0.29345E-03   -0.15206E-04  3179   0.559E-03    0.422E-01
RMM:  19    -0.231167013753E+04    0.37347E-03   -0.76959E-05  2894   0.495E-03    0.392E-01
RMM:  20    -0.231166905538E+04    0.10822E-02   -0.11311E-03  4051   0.137E-02    0.376E-01
RMM:  21    -0.231166917745E+04   -0.12207E-03   -0.51529E-05  2824   0.576E-03    0.387E-01
RMM:  22    -0.231166858731E+04    0.59014E-03   -0.34740E-04  3463   0.721E-03    0.391E-01
RMM:  23    -0.231166834500E+04    0.24231E-03   -0.10642E-04  2947   0.492E-03    0.401E-01
RMM:  24    -0.231166869155E+04   -0.34655E-03   -0.63590E-05  2804   0.399E-03    0.399E-01
RMM:  25    -0.231166887808E+04   -0.18653E-03   -0.28236E-05  2614   0.290E-03    0.407E-01
RMM:  26    -0.231166894525E+04   -0.67171E-04   -0.96766E-06  2314   0.193E-03    0.408E-01
RMM:  27    -0.231166871830E+04    0.22695E-03   -0.50496E-05  2601   0.287E-03    0.414E-01
RMM:  28    -0.231166844036E+04    0.27793E-03   -0.11730E-04  3011   0.433E-03    0.427E-01
RMM:  29    -0.231166875708E+04   -0.31672E-03   -0.10042E-04  2851   0.457E-03    0.419E-01
RMM:  30    -0.231166850306E+04    0.25402E-03   -0.44839E-05  2631   0.327E-03    0.418E-01
RMM:  31    -0.231166824368E+04    0.25939E-03   -0.82609E-05  2883   0.390E-03    0.430E-01
RMM:  32    -0.231167168702E+04   -0.34433E-02   -0.82966E-03  4523   0.348E-02    0.563E-01
RMM:  33    -0.231166931400E+04    0.23730E-02   -0.31230E-03  4609   0.244E-02    0.398E-01
RMM:  34    -0.231166861345E+04    0.70056E-03   -0.61174E-04  3723   0.122E-02    0.447E-01
RMM:  35    -0.231166769176E+04    0.92169E-03   -0.17334E-03  4287   0.164E-02    0.528E-01
RMM:  36    -0.231166601136E+04    0.16804E-02   -0.57694E-03  4548   0.320E-02    0.797E-01
RMM:  37    -0.231166608237E+04   -0.71006E-04   -0.34851E-04  3345   0.124E-02    0.798E-01
RMM:  38    -0.231166608846E+04   -0.60895E-05   -0.74488E-05  2830   0.307E-03
  23 F= -.23317744E+04 E0= -.23317715E+04  d E =-.643276E-02  mag=     2.1455
       N       E                     dE             d eps       ncg     rms          rms(c)
DAV:   1    -0.231166615630E+04   -0.73933E-04   -0.13833E-02  4816   0.106E-01    0.775E-01
RMM:   2    -0.231167338594E+04   -0.72296E-02   -0.18478E-02  4968   0.618E-02    0.128E+00
RMM:   3    -0.231166191894E+04    0.11467E-01   -0.24012E-02  4471   0.714E-02    0.833E-01
RMM:   4    -0.231162228289E+04    0.39636E-01   -0.42332E-02  4419   0.114E-01    0.123E+00
RMM:   5    -0.231167055632E+04   -0.48273E-01   -0.74038E-02  4509   0.131E-01    0.753E-01
RMM:   6    -0.231166776986E+04    0.27865E-02   -0.29790E-02  4930   0.774E-02    0.464E-01
RMM:   7    -0.231166918186E+04   -0.14120E-02   -0.92706E-03  4874   0.375E-02    0.791E-01
RMM:   8    -0.231166666823E+04    0.25136E-02   -0.76406E-02  4695   0.107E-01    0.731E-01
RMM:   9    -0.231163066368E+04    0.36005E-01   -0.51488E-02  4510   0.133E-01    0.110E+00
RMM:  10    -0.231166681389E+04   -0.36150E-01   -0.33088E-02  4448   0.948E-02    0.671E-01
RMM:  11    -0.231166677469E+04    0.39202E-04   -0.35291E-03  4666   0.321E-02    0.380E-01
RMM:  12    -0.231166857136E+04   -0.17967E-02   -0.40033E-03  4578   0.254E-02    0.315E-01
RMM:  13    -0.231166923948E+04   -0.66812E-03   -0.87964E-04  3868   0.144E-02    0.333E-01
RMM:  14    -0.231167048428E+04   -0.12448E-02   -0.18268E-03  4362   0.166E-02    0.426E-01
RMM:  15    -0.231167091263E+04   -0.42834E-03   -0.46273E-04  3474   0.110E-02    0.451E-01
RMM:  16    -0.231167101466E+04   -0.10203E-03   -0.16042E-04  2973   0.484E-03    0.453E-01
RMM:  17    -0.231167026769E+04    0.74697E-03   -0.34159E-04  3314   0.784E-03    0.365E-01
RMM:  18    -0.231166867102E+04    0.15967E-02   -0.30987E-03  4384   0.225E-02    0.321E-01
RMM:  19    -0.231166582545E+04    0.28456E-02   -0.13613E-02  4702   0.480E-02    0.712E-01
RMM:  20    -0.231162884630E+04    0.36979E-01   -0.54435E-02  4689   0.123E-01    0.115E+00
RMM:  21    -0.231164615408E+04   -0.17308E-01   -0.44710E-03  4074   0.367E-02    0.990E-01
RMM:  22    -0.231165763505E+04   -0.11481E-01   -0.41683E-03  3973   0.390E-02    0.841E-01
RMM:  23    -0.231166568856E+04   -0.80535E-02   -0.66343E-03  4372   0.485E-02    0.675E-01
RMM:  24    -0.231166676235E+04   -0.10738E-02   -0.29753E-03  4274   0.266E-02    0.457E-01
RMM:  25    -0.231166772520E+04   -0.96285E-03   -0.18206E-03  4262   0.172E-02    0.370E-01
RMM:  26    -0.231166868810E+04   -0.96289E-03   -0.12955E-03  4089   0.158E-02    0.335E-01
RMM:  27    -0.231166920525E+04   -0.51715E-03   -0.53397E-04  3698   0.109E-02    0.337E-01
RMM:  28    -0.231166983976E+04   -0.63451E-03   -0.64390E-04  3753   0.106E-02    0.360E-01
RMM:  29    -0.231167030814E+04   -0.46838E-03   -0.32201E-04  3462   0.877E-03    0.384E-01
RMM:  30    -0.231167068625E+04   -0.37811E-03   -0.24080E-04  3236   0.727E-03    0.410E-01
RMM:  31    -0.231167091738E+04   -0.23113E-03   -0.99068E-05  2978   0.544E-03    0.428E-01
RMM:  32    -0.231167085953E+04    0.57852E-04   -0.12354E-05  2699   0.310E-03    0.419E-01
RMM:  33    -0.231167057134E+04    0.28819E-03   -0.65022E-05  2726   0.344E-03    0.397E-01
RMM:  34    -0.231167022505E+04    0.34629E-03   -0.13263E-04  3062   0.476E-03    0.378E-01
RMM:  35    -0.231166983947E+04    0.38558E-03   -0.20801E-04  3201   0.591E-03    0.367E-01
RMM:  36    -0.231166929109E+04    0.54839E-03   -0.45056E-04  3618   0.870E-03    0.364E-01
RMM:  37    -0.231166825181E+04    0.10393E-02   -0.15970E-03  4185   0.162E-02    0.403E-01
RMM:  38    -0.231166774887E+04    0.50293E-03   -0.65246E-04  3651   0.116E-02    0.450E-01
RMM:  39    -0.231166682746E+04    0.92141E-03   -0.14054E-03  4273   0.155E-02    0.557E-01
RMM:  40    -0.231166664772E+04    0.17973E-03   -0.20521E-04  3115   0.875E-03    0.586E-01
RMM:  41    -0.231166645535E+04    0.19237E-03   -0.15489E-04  3063   0.516E-03    0.616E-01
RMM:  42    -0.231166646502E+04   -0.96608E-05   -0.12633E-05  2682   0.337E-03
  24 F= -.23317748E+04 E0= -.23317720E+04  d E =-.681918E-02  mag=     2.0975
       N       E                     dE             d eps       ncg     rms          rms(c)
DAV:   1    -0.231166568898E+04    0.76638E-03   -0.83272E-01  4376   0.783E-01    0.769E-01
RMM:   2    -0.231168103869E+04   -0.15350E-01   -0.79435E-02  5456   0.149E-01    0.172E+00
RMM:   3    -0.231167397146E+04    0.70672E-02   -0.21781E-02  4786   0.887E-02    0.949E-01
RMM:   4    -0.231166390845E+04    0.10063E-01   -0.11927E-02  4409   0.583E-02    0.889E-01
RMM:   5    -0.231164494584E+04    0.18963E-01   -0.13123E-02  4384   0.661E-02    0.111E+00
RMM:   6    -0.231167545766E+04   -0.30512E-01   -0.35442E-02  4509   0.960E-02    0.878E-01
RMM:   7    -0.231167650680E+04   -0.10491E-02   -0.32621E-02  4822   0.772E-02    0.797E-01
RMM:   8    -0.231168827623E+04   -0.11769E-01   -0.43492E-02  4954   0.840E-02    0.233E+00
RMM:   9    -0.231167779812E+04    0.10478E-01   -0.99559E-02  4725   0.123E-01    0.535E-01
RMM:  10    -0.231165801073E+04    0.19787E-01   -0.32143E-02  4712   0.105E-01    0.844E-01
RMM:  11    -0.231159144277E+04    0.66568E-01   -0.53355E-02  4782   0.120E-01    0.139E+00
RMM:  12    -0.231161525358E+04   -0.23811E-01   -0.43132E-03  4028   0.379E-02    0.126E+00
RMM:  13    -0.231163007647E+04   -0.14823E-01   -0.22212E-03  3977   0.269E-02    0.112E+00
RMM:  14    -0.231164810639E+04   -0.18030E-01   -0.58141E-03  4139   0.385E-02    0.956E-01
RMM:  15    -0.231164169069E+04    0.64157E-02   -0.63192E-04  3538   0.157E-02    0.102E+00
RMM:  16    -0.231163943264E+04    0.22581E-02   -0.14074E-04  3080   0.794E-03    0.104E+00
RMM:  17    -0.231164042953E+04   -0.99689E-03   -0.55547E-05  2876   0.497E-03    0.103E+00
RMM:  18    -0.231165101223E+04   -0.10583E-01   -0.24924E-03  3821   0.254E-02    0.937E-01
RMM:  19    -0.231166833793E+04   -0.17326E-01   -0.14614E-02  4364   0.733E-02    0.713E-01
RMM:  20    -0.231167059472E+04   -0.22568E-02   -0.49368E-03  4401   0.387E-02    0.424E-01
RMM:  21    -0.231167105738E+04   -0.46266E-03   -0.65755E-04  3909   0.122E-02    0.400E-01
RMM:  22    -0.231167124766E+04   -0.19028E-03   -0.16745E-04  2968   0.574E-03    0.394E-01
RMM:  23    -0.231167151237E+04   -0.26472E-03   -0.45940E-05  2793   0.361E-03    0.393E-01
RMM:  24    -0.231167343241E+04   -0.19200E-02   -0.18784E-03  4135   0.162E-02    0.389E-01
RMM:  25    -0.231167407457E+04   -0.64216E-03   -0.73948E-04  3641   0.123E-02    0.371E-01
RMM:  26    -0.231167463179E+04   -0.55722E-03   -0.54422E-04  3500   0.844E-03    0.393E-01
RMM:  27    -0.231167470808E+04   -0.76295E-04   -0.63524E-05  2854   0.472E-03    0.387E-01
RMM:  28    -0.231167498143E+04   -0.27334E-03   -0.59772E-05  2865   0.367E-03    0.409E-01
RMM:  29    -0.231167590103E+04   -0.91960E-03   -0.58078E-04  3779   0.975E-03    0.466E-01
RMM:  30    -0.231167526906E+04    0.63197E-03   -0.19417E-04  3210   0.720E-03    0.413E-01
RMM:  31    -0.231167519506E+04    0.73992E-04   -0.10301E-04  3003   0.527E-03    0.461E-01
RMM:  32    -0.231167436913E+04    0.82593E-03   -0.63512E-04  3777   0.102E-02    0.430E-01
RMM:  33    -0.231167261122E+04    0.17579E-02   -0.34490E-03  4471   0.235E-02    0.510E-01
RMM:  34    -0.231167060171E+04    0.20095E-02   -0.57640E-03  4567   0.326E-02    0.774E-01
RMM:  35    -0.231167114368E+04   -0.54197E-03   -0.29507E-04  3416   0.120E-02    0.722E-01
RMM:  36    -0.231167150041E+04   -0.35673E-03   -0.16157E-04  3074   0.633E-03    0.681E-01
RMM:  37    -0.231167319339E+04   -0.16930E-02   -0.31067E-03  4304   0.223E-02    0.527E-01
RMM:  38    -0.231167396647E+04   -0.77308E-03   -0.12739E-03  3838   0.157E-02    0.493E-01
RMM:  39    -0.231167490327E+04   -0.93680E-03   -0.14144E-03  4304   0.141E-02    0.483E-01
RMM:  40    -0.231167551337E+04   -0.61011E-03   -0.58230E-04  3635   0.112E-02    0.495E-01
RMM:  41    -0.231167620962E+04   -0.69624E-03   -0.62673E-04  3814   0.992E-03    0.530E-01
RMM:  42    -0.231167615282E+04    0.56794E-04   -0.50078E-05  2830   0.542E-03    0.517E-01
RMM:  43    -0.231167621461E+04   -0.61791E-04   -0.16995E-05  2650   0.205E-03    0.527E-01
RMM:  44    -0.231167726198E+04   -0.10474E-02   -0.64938E-04  3831   0.987E-03    0.613E-01
RMM:  45    -0.231167748164E+04   -0.21965E-03   -0.11275E-04  2926   0.593E-03    0.622E-01
RMM:  46    -0.231167766000E+04   -0.17836E-03   -0.75823E-05  2821   0.347E-03    0.635E-01
RMM:  47    -0.231167737720E+04    0.28280E-03   -0.32224E-05  2623   0.318E-03    0.605E-01
RMM:  48    -0.231167715112E+04    0.22608E-03   -0.50334E-05  2760   0.322E-03    0.599E-01
RMM:  49    -0.231167805355E+04   -0.90243E-03   -0.26254E-04  3093   0.633E-03    0.715E-01
RMM:  50    -0.231167820920E+04   -0.15565E-03   -0.33561E-05  2651   0.359E-03    0.729E-01
RMM:  51    -0.231167831689E+04   -0.10769E-03   -0.20847E-05  2441   0.216E-03    0.743E-01
RMM:  52    -0.231167820428E+04    0.11262E-03   -0.55324E-06  2234   0.169E-03    0.728E-01
RMM:  53    -0.231167823586E+04   -0.31583E-04   -0.68181E-07  1553   0.764E-04    0.733E-01
RMM:  54    -0.231167832500E+04   -0.89138E-04   -0.30228E-06  1980   0.106E-03    0.747E-01
RMM:  55    -0.231167930335E+04   -0.97835E-03   -0.31740E-04  3425   0.690E-03    0.855E-01
RMM:  56    -0.231167922226E+04    0.81089E-04   -0.18725E-05  2706   0.344E-03    0.829E-01
RMM:  57    -0.231167886930E+04    0.35296E-03   -0.67605E-05  2864   0.390E-03    0.805E-01
RMM:  58    -0.231167859531E+04    0.27398E-03   -0.39803E-05  2614   0.293E-03    0.780E-01
RMM:  59    -0.231167891792E+04   -0.32261E-03   -0.25614E-05  2469   0.252E-03    0.820E-01
RMM:  60    -0.231167876312E+04    0.15480E-03   -0.49206E-06  1881   0.132E-03    0.796E-01
RMM:  61    -0.231167846355E+04    0.29957E-03   -0.37347E-05  2678   0.251E-03    0.769E-01
RMM:  62    -0.231167931364E+04   -0.85008E-03   -0.31340E-04  3189   0.688E-03    0.861E-01
RMM:  63    -0.231167724721E+04    0.20664E-02   -0.17915E-03  4040   0.162E-02    0.626E-01
RMM:  64    -0.231167693235E+04    0.31486E-03   -0.22326E-04  3088   0.859E-03    0.650E-01
RMM:  65    -0.231167598134E+04    0.95101E-03   -0.87112E-04  4026   0.112E-02    0.579E-01
RMM:  66    -0.231167497767E+04    0.10037E-02   -0.10750E-03  3884   0.135E-02    0.556E-01
RMM:  67    -0.231167432987E+04    0.64780E-03   -0.86025E-04  3737   0.116E-02    0.567E-01
RMM:  68    -0.231167416503E+04    0.16484E-03   -0.14202E-04  3026   0.610E-03    0.577E-01
RMM:  69    -0.231167431154E+04   -0.14650E-03   -0.19944E-05  2719   0.338E-03    0.575E-01
RMM:  70    -0.231167435790E+04   -0.46362E-04   -0.51718E-06  2435   0.165E-03    0.571E-01
RMM:  71    -0.231167435789E+04    0.11496E-07   -0.94125E-07  2145   0.107E-03
  25 F= -.23317827E+04 E0= -.23317773E+04  d E =-.796518E-02  mag=     2.0110
       N       E                     dE             d eps       ncg     rms          rms(c)
DAV:   1    -0.231163363213E+04    0.40726E-01   -0.57376E+00  4376   0.206E+00    0.136E+00
RMM:   2    -0.231172224933E+04   -0.88617E-01   -0.50916E-01  5630   0.387E-01    0.468E+00
RMM:   3    -0.231168863175E+04    0.33618E-01   -0.75096E-02  5007   0.163E-01    0.142E+00
RMM:   4    -0.231167769046E+04    0.10941E-01   -0.13954E-02  4639   0.595E-02    0.967E-01
RMM:   5    -0.231167823163E+04   -0.54117E-03   -0.80644E-03  5324   0.422E-02    0.132E+00
RMM:   6    -0.231165141258E+04    0.26819E-01   -0.40099E-02  4504   0.948E-02    0.117E+00
RMM:   7    -0.231155755182E+04    0.93861E-01   -0.64171E-02  4408   0.134E-01    0.161E+00
RMM:   8    -0.231150556374E+04    0.51988E-01   -0.16801E-02  4365   0.664E-02    0.176E+00
RMM:   9    -0.231148877018E+04    0.16794E-01   -0.31159E-03  3872   0.286E-02    0.180E+00
RMM:  10    -0.231164490108E+04   -0.15613E+00   -0.11474E-01  4420   0.153E-01    0.121E+00
RMM:  11    -0.231167175057E+04   -0.26849E-01   -0.33692E-02  4515   0.110E-01    0.901E-01
RMM:  12    -0.231167576718E+04   -0.40166E-02   -0.18190E-02  4874   0.618E-02    0.641E-01
RMM:  13    -0.231167514323E+04    0.62395E-03   -0.12823E-03  4397   0.193E-02    0.611E-01
RMM:  14    -0.231167590323E+04   -0.76000E-03   -0.56983E-04  4020   0.104E-02    0.559E-01
RMM:  15    -0.231168140903E+04   -0.55058E-02   -0.11324E-02  4740   0.413E-02    0.689E-01
RMM:  16    -0.231168002312E+04    0.13859E-02   -0.63227E-04  3699   0.172E-02    0.526E-01
RMM:  17    -0.231167942447E+04    0.59865E-03   -0.15753E-03  4081   0.175E-02    0.481E-01
RMM:  18    -0.231167500427E+04    0.44202E-02   -0.23012E-02  4728   0.622E-02    0.843E-01
RMM:  19    -0.231167271507E+04    0.22892E-02   -0.55245E-03  4439   0.372E-02    0.101E+00
RMM:  20    -0.231165126797E+04    0.21447E-01   -0.26193E-02  4617   0.868E-02    0.115E+00
RMM:  21    -0.231164580554E+04    0.54624E-02   -0.18855E-03  3922   0.295E-02    0.121E+00
RMM:  22    -0.231165706660E+04   -0.11261E-01   -0.21815E-03  3654   0.259E-02    0.111E+00
RMM:  23    -0.231167306878E+04   -0.16002E-01   -0.11459E-02  4314   0.658E-02    0.106E+00
RMM:  24    -0.231167440234E+04   -0.13336E-02   -0.51046E-03  4494   0.381E-02    0.742E-01
RMM:  25    -0.231167877525E+04   -0.43729E-02   -0.11348E-02  4869   0.433E-02    0.741E-01
RMM:  26    -0.231167956101E+04   -0.78576E-03   -0.16642E-03  4210   0.217E-02    0.763E-01
RMM:  27    -0.231167989845E+04   -0.33743E-03   -0.58276E-04  3422   0.720E-03    0.788E-01
RMM:  28    -0.231167989135E+04    0.70988E-05   -0.24348E-05  2816   0.451E-03
  26 F= -.23317884E+04 E0= -.23317801E+04  d E =-.136340E-01  mag=     1.8898
       N       E                     dE             d eps       ncg     rms          rms(c)
DAV:   1    -0.231168196576E+04   -0.20673E-02   -0.54613E-01  4432   0.650E-01    0.117E+00
RMM:   2    -0.231172445090E+04   -0.42485E-01   -0.81809E-02  5319   0.139E-01    0.416E+00
RMM:   3    -0.231168797254E+04    0.36478E-01   -0.46403E-02  4700   0.109E-01    0.403E-01
RMM:   4    -0.231168433436E+04    0.36382E-02   -0.89979E-03  4513   0.522E-02    0.108E+00
RMM:   5    -0.231168251127E+04    0.18231E-02   -0.24023E-03  4308   0.177E-02    0.883E-01
RMM:   6    -0.231167786494E+04    0.46463E-02   -0.42705E-03  4446   0.322E-02    0.876E-01
RMM:   7    -0.231167765207E+04    0.21287E-03   -0.67951E-04  3786   0.152E-02    0.939E-01
RMM:   8    -0.231167887639E+04   -0.12243E-02   -0.18602E-04  3222   0.651E-03    0.938E-01
RMM:   9    -0.231168253279E+04   -0.36564E-02   -0.33113E-03  4224   0.234E-02    0.915E-01
RMM:  10    -0.231168850740E+04   -0.59746E-02   -0.80763E-03  4585   0.364E-02    0.125E+00
RMM:  11    -0.231167989669E+04    0.86107E-02   -0.20558E-02  4695   0.573E-02    0.100E+00
RMM:  12    -0.231164125849E+04    0.38638E-01   -0.68049E-02  4625   0.126E-01    0.119E+00
RMM:  13    -0.231166807251E+04   -0.26814E-01   -0.13620E-02  4149   0.593E-02    0.979E-01
RMM:  14    -0.231165687459E+04    0.11198E-01   -0.36442E-03  4145   0.325E-02    0.108E+00
RMM:  15    -0.231167746210E+04   -0.20588E-01   -0.15359E-02  4338   0.698E-02    0.109E+00
RMM:  16    -0.231167655912E+04    0.90298E-03   -0.16363E-03  4427   0.239E-02    0.836E-01
RMM:  17    -0.231168127270E+04   -0.47136E-02   -0.97280E-03  4692   0.400E-02    0.608E-01
RMM:  18    -0.231168847154E+04   -0.71988E-02   -0.13634E-02  4742   0.495E-02    0.107E+00
RMM:  19    -0.231169195817E+04   -0.34866E-02   -0.53380E-03  4723   0.300E-02    0.132E+00
RMM:  20    -0.231169116729E+04    0.79088E-03   -0.39445E-04  3531   0.970E-03    0.120E+00
RMM:  21    -0.231169266046E+04   -0.14932E-02   -0.20894E-04  3104   0.604E-03    0.142E+00
RMM:  22    -0.231169016744E+04    0.24930E-02   -0.10434E-03  4023   0.139E-02    0.118E+00
RMM:  23    -0.231168833708E+04    0.18304E-02   -0.23274E-03  4409   0.213E-02    0.111E+00
RMM:  24    -0.231168343148E+04    0.49056E-02   -0.11105E-02  4859   0.435E-02    0.906E-01
RMM:  25    -0.231168291637E+04    0.51512E-03   -0.11961E-03  4095   0.201E-02    0.962E-01
RMM:  26    -0.231168283646E+04    0.79907E-04   -0.18034E-04  3232   0.539E-03    0.957E-01
RMM:  27    -0.231168290711E+04   -0.70651E-04   -0.13333E-05  2780   0.383E-03    0.962E-01
RMM:  28    -0.231168309155E+04   -0.18443E-03   -0.17441E-05  2622   0.225E-03    0.961E-01
RMM:  29    -0.231168338963E+04   -0.29809E-03   -0.18224E-05  2574   0.210E-03    0.979E-01
RMM:  30    -0.231168273427E+04    0.65536E-03   -0.90520E-05  2813   0.405E-03    0.949E-01
RMM:  31    -0.231168182147E+04    0.91280E-03   -0.32925E-04  3437   0.744E-03    0.943E-01
RMM:  32    -0.231167880099E+04    0.30205E-02   -0.34697E-03  4373   0.239E-02    0.104E+00
RMM:  33    -0.231167257495E+04    0.62260E-02   -0.36904E-03  4021   0.354E-02    0.935E-01
RMM:  34    -0.231165277348E+04    0.19801E-01   -0.13640E-02  4389   0.641E-02    0.110E+00
RMM:  35    -0.231166747985E+04   -0.14706E-01   -0.46046E-03  3885   0.364E-02    0.964E-01
RMM:  36    -0.231168108043E+04   -0.13601E-01   -0.15677E-02  4542   0.659E-02    0.821E-01
RMM:  37    -0.231168425276E+04   -0.31723E-02   -0.89705E-03  4612   0.425E-02    0.757E-01
RMM:  38    -0.231169743533E+04   -0.13183E-01   -0.26117E-02  4932   0.619E-02    0.192E+00
RMM:  39    -0.231174146118E+04   -0.44026E-01   -0.70322E-02  4893   0.100E-01    0.360E+00
RMM:  40    -0.231173824425E+04    0.32169E-02   -0.57286E-03  4369   0.479E-02    0.337E+00
RMM:  41    -0.231173715269E+04    0.10916E-02   -0.11610E-03  3699   0.114E-02    0.341E+00
RMM:  42    -0.231174341995E+04   -0.62673E-02   -0.96434E-04  4074   0.131E-02    0.349E+00
RMM:  43    -0.231175058746E+04   -0.71675E-02   -0.23580E-03  4439   0.180E-02    0.344E+00
RMM:  44    -0.231175042134E+04    0.16612E-03   -0.17119E-04  3088   0.846E-03    0.342E+00
RMM:  45    -0.231175064263E+04   -0.22129E-03   -0.47957E-05  2788   0.271E-03    0.343E+00
RMM:  46    -0.231175168079E+04   -0.10382E-02   -0.51117E-05  2900   0.337E-03    0.342E+00
RMM:  47    -0.231174773701E+04    0.39438E-02   -0.23618E-04  3155   0.613E-03    0.339E+00
RMM:  48    -0.231175045241E+04   -0.27154E-02   -0.15279E-04  3173   0.522E-03    0.340E+00
RMM:  49    -0.231174923189E+04    0.12205E-02   -0.20651E-05  2683   0.314E-03    0.339E+00
RMM:  50    -0.231173638899E+04    0.12843E-01   -0.38069E-03  4398   0.214E-02    0.325E+00
RMM:  51    -0.231172432461E+04    0.12064E-01   -0.48746E-03  4511   0.267E-02    0.297E+00
RMM:  52    -0.231170445424E+04    0.19870E-01   -0.13973E-02  4882   0.434E-02    0.188E+00
RMM:  53    -0.231169376827E+04    0.10686E-01   -0.11148E-02  4825   0.425E-02    0.119E+00
RMM:  54    -0.231168570835E+04    0.80599E-02   -0.15404E-02  4907   0.484E-02    0.562E-01
RMM:  55    -0.231168046447E+04    0.52439E-02   -0.13233E-02  4919   0.506E-02    0.578E-01
RMM:  56    -0.231167902235E+04    0.14421E-02   -0.53927E-03  4719   0.277E-02    0.734E-01
RMM:  57    -0.231167605639E+04    0.29660E-02   -0.25683E-03  4467   0.229E-02    0.837E-01
RMM:  58    -0.231167517967E+04    0.87673E-03   -0.36745E-04  3414   0.124E-02    0.845E-01
RMM:  59    -0.231167303937E+04    0.21403E-02   -0.46658E-04  3437   0.135E-02    0.840E-01
RMM:  60    -0.231167309036E+04   -0.50988E-04   -0.19717E-05  2841   0.485E-03    0.839E-01
RMM:  61    -0.231167293898E+04    0.15139E-03   -0.87584E-06  2655   0.225E-03    0.841E-01
RMM:  62    -0.231167834146E+04   -0.54025E-02   -0.26710E-03  4126   0.293E-02    0.788E-01
RMM:  63    -0.231167713412E+04    0.12073E-02   -0.46517E-04  3672   0.118E-02    0.878E-01
RMM:  64    -0.231167714145E+04   -0.73301E-05   -0.29441E-05  2723   0.389E-03
[...]
RMM:   4    -0.231237530975E+04    0.19336E-02   -0.74566E-03  4805   0.394E-02    0.169E-01
RMM:   5    -0.231237499387E+04    0.31588E-03   -0.12646E-03  4878   0.280E-02    0.290E-02
RMM:   6    -0.231237497744E+04    0.16424E-04   -0.14838E-04  4155   0.105E-02    0.165E-02
RMM:   7    -0.231237497036E+04    0.70865E-05   -0.36882E-05  2997   0.542E-03
 122 F= -.23324786E+04 E0= -.23324786E+04  d E =-.781915E-02  mag=    -0.0000
       N       E                     dE             d eps       ncg     rms          rms(c)
DAV:   1    -0.231236634600E+04    0.86314E-02   -0.95005E-01  4384   0.861E-01    0.360E-01
RMM:   2    -0.231237648861E+04   -0.10143E-01   -0.10896E-01  6049   0.204E-01    0.245E-01
RMM:   3    -0.231237591002E+04    0.57859E-03   -0.93965E-03  5406   0.507E-02    0.129E-01
RMM:   4    -0.231237569453E+04    0.21549E-03   -0.86118E-04  4268   0.136E-02    0.589E-02
RMM:   5    -0.231237566595E+04    0.28580E-04   -0.14685E-04  3838   0.112E-02    0.117E-02
RMM:   6    -0.231237566513E+04    0.81185E-06   -0.25347E-05  2863   0.478E-03
 123 F= -.23324794E+04 E0= -.23324794E+04  d E =-.867941E-02  mag=    -0.0000
       N       E                     dE             d eps       ncg     rms          rms(c)
DAV:   1    -0.231236282481E+04    0.12841E-01   -0.25612E+00  4360   0.138E+00    0.563E-01
RMM:   2    -0.231238452743E+04   -0.21703E-01   -0.23557E-01  6005   0.307E-01    0.382E-01
RMM:   3    -0.231238325518E+04    0.12723E-02   -0.20472E-02  5600   0.804E-02    0.210E-01
RMM:   4    -0.231238268738E+04    0.56780E-03   -0.22592E-03  4608   0.222E-02    0.908E-02
RMM:   5    -0.231238259756E+04    0.89819E-04   -0.32580E-04  4365   0.157E-02    0.184E-02
RMM:   6    -0.231238259331E+04    0.42475E-05   -0.43686E-05  2994   0.637E-03
 124 F= -.23324861E+04 E0= -.23324861E+04  d E =-.668285E-02  mag=    -0.0000
       N       E                     dE             d eps       ncg     rms          rms(c)
DAV:   1    -0.231235267530E+04    0.29922E-01   -0.41464E+00  4360   0.176E+00    0.715E-01
RMM:   2    -0.231238785775E+04   -0.35182E-01   -0.38224E-01  6016   0.392E-01    0.477E-01
RMM:   3    -0.231238595386E+04    0.19039E-02   -0.32637E-02  5676   0.997E-02    0.268E-01
RMM:   4    -0.231238504666E+04    0.90720E-03   -0.36921E-03  4653   0.280E-02    0.116E-01
RMM:   5    -0.231238489611E+04    0.15056E-03   -0.55139E-04  4723   0.194E-02    0.225E-02
RMM:   6    -0.231238488801E+04    0.80904E-05   -0.62068E-05  3172   0.725E-03
 125 F= -.23324881E+04 E0= -.23324881E+04  d E =-.867956E-02  mag=    -0.0000
       N       E                     dE             d eps       ncg     rms          rms(c)
DAV:   1    -0.231236875908E+04    0.16137E-01   -0.18057E+00  4408   0.117E+00    0.483E-01
RMM:   2    -0.231239032333E+04   -0.21564E-01   -0.23153E-01  6168   0.275E-01    0.304E-01
RMM:   3    -0.231239000707E+04    0.31626E-03   -0.19023E-02  5654   0.671E-02    0.179E-01
RMM:   4    -0.231238964058E+04    0.36649E-03   -0.18833E-03  4507   0.171E-02    0.839E-02
RMM:   5    -0.231238956961E+04    0.70974E-04   -0.25207E-04  4116   0.122E-02    0.138E-02
RMM:   6    -0.231238956784E+04    0.17674E-05   -0.28428E-05  2915   0.578E-03
 126 F= -.23324924E+04 E0= -.23324924E+04  d E =-.429527E-02  mag=     0.0000
       N       E                     dE             d eps       ncg     rms          rms(c)
DAV:   1    -0.231232733555E+04    0.62234E-01   -0.56632E+00  4360   0.207E+00    0.852E-01
RMM:   2    -0.231239495892E+04   -0.67623E-01   -0.72639E-01  6139   0.481E-01    0.530E-01
RMM:   3    -0.231239464818E+04    0.31074E-03   -0.58865E-02  5692   0.125E-01    0.324E-01
RMM:   4    -0.231239339825E+04    0.12499E-02   -0.64661E-03  4911   0.313E-02    0.151E-01
RMM:   5    -0.231239314078E+04    0.25747E-03   -0.90163E-04  4719   0.215E-02    0.241E-02
RMM:   6    -0.231239313324E+04    0.75420E-05   -0.97589E-05  3247   0.899E-03
 127 F= -.23324953E+04 E0= -.23324953E+04  d E =-.718600E-02  mag=     0.0000
       N       E                     dE             d eps       ncg     rms          rms(c)
DAV:   1    -0.231238549738E+04    0.76434E-02   -0.14664E+00  4392   0.109E+00    0.459E-01
RMM:   2    -0.231240008825E+04   -0.14591E-01   -0.15775E-01  6088   0.251E-01    0.306E-01
RMM:   3    -0.231239924977E+04    0.83849E-03   -0.13688E-02  5544   0.628E-02    0.166E-01
RMM:   4    -0.231239886744E+04    0.38233E-03   -0.14937E-03  4541   0.184E-02    0.737E-02
RMM:   5    -0.231239880187E+04    0.65572E-04   -0.24240E-04  4246   0.138E-02    0.145E-02
RMM:   6    -0.231239879807E+04    0.38042E-05   -0.29455E-05  2952   0.557E-03
 128 F= -.23325007E+04 E0= -.23325007E+04  d E =-.538808E-02  mag=     0.0000
       N       E                     dE             d eps       ncg     rms          rms(c)
DAV:   1    -0.231237886741E+04    0.19934E-01   -0.23942E+00  4392   0.138E+00    0.586E-01
RMM:   2    -0.231240286123E+04   -0.23994E-01   -0.25953E-01  6089   0.319E-01    0.390E-01
RMM:   3    -0.231240147623E+04    0.13850E-02   -0.22325E-02  5693   0.832E-02    0.212E-01
RMM:   4    -0.231240084206E+04    0.63417E-03   -0.24841E-03  4596   0.234E-02    0.945E-02
RMM:   5    -0.231240072254E+04    0.11953E-03   -0.41163E-04  4595   0.175E-02    0.194E-02
RMM:   6    -0.231240071432E+04    0.82135E-05   -0.51469E-05  3231   0.678E-03
 129 F= -.23325022E+04 E0= -.23325022E+04  d E =-.695750E-02  mag=     0.0000
       N       E                     dE             d eps       ncg     rms          rms(c)
DAV:   1    -0.231239966529E+04    0.10572E-02   -0.12715E-01  4608   0.318E-01    0.137E-01
RMM:   2    -0.231240095874E+04   -0.12934E-02   -0.13975E-02  6248   0.756E-02    0.969E-02
RMM:   3    -0.231240084979E+04    0.10894E-03   -0.12615E-03  3970   0.202E-02    0.473E-02
RMM:   4    -0.231240081972E+04    0.30069E-04   -0.11937E-04  3066   0.658E-03    0.213E-02
RMM:   5    -0.231240081741E+04    0.23116E-05   -0.24869E-05  2846   0.513E-03
 130 F= -.23325024E+04 E0= -.23325024E+04  d E =-.713986E-02  mag=     0.0000
       N       E                     dE             d eps       ncg     rms          rms(c)
DAV:   1    -0.231239697770E+04    0.38420E-02   -0.86788E-01  4360   0.832E-01    0.344E-01
RMM:   2    -0.231240531292E+04   -0.83352E-02   -0.90080E-02  6117   0.190E-01    0.244E-01
RMM:   3    -0.231240464630E+04    0.66661E-03   -0.79040E-03  5396   0.491E-02    0.125E-01
RMM:   4    -0.231240442621E+04    0.22009E-03   -0.79949E-04  4388   0.142E-02    0.555E-02
RMM:   5    -0.231240439493E+04    0.31282E-04   -0.14992E-04  3916   0.115E-02    0.115E-02
RMM:   6    -0.231240439200E+04    0.29338E-05   -0.23574E-05  2872   0.475E-03
 131 F= -.23325059E+04 E0= -.23325059E+04  d E =-.345270E-02  mag=     0.0000
       N       E                     dE             d eps       ncg     rms          rms(c)
DAV:   1    -0.231239761623E+04    0.67787E-02   -0.92642E-01  4360   0.858E-01    0.357E-01
RMM:   2    -0.231240657062E+04   -0.89544E-02   -0.96759E-02  6102   0.197E-01    0.254E-01
RMM:   3    -0.231240583775E+04    0.73287E-03   -0.84583E-03  5460   0.515E-02    0.129E-01
RMM:   4    -0.231240560529E+04    0.23245E-03   -0.86675E-04  4401   0.147E-02    0.577E-02
RMM:   5    -0.231240556988E+04    0.35412E-04   -0.15766E-04  4014   0.117E-02    0.120E-02
RMM:   6    -0.231240556681E+04    0.30753E-05   -0.25365E-05  2894   0.484E-03
 132 F= -.23325069E+04 E0= -.23325069E+04  d E =-.450639E-02  mag=    -0.0000
       N       E                     dE             d eps       ncg     rms          rms(c)
DAV:   1    -0.231239550861E+04    0.10061E-01   -0.11999E+00  4376   0.102E+00    0.397E-01
RMM:   2    -0.231240975108E+04   -0.14242E-01   -0.15299E-01  6119   0.234E-01    0.242E-01
RMM:   3    -0.231240947138E+04    0.27970E-03   -0.12453E-02  5564   0.592E-02    0.142E-01
RMM:   4    -0.231240920682E+04    0.26455E-03   -0.12709E-03  4561   0.161E-02    0.711E-02
RMM:   5    -0.231240914658E+04    0.60242E-04   -0.25049E-04  4195   0.132E-02    0.124E-02
RMM:   6    -0.231240914366E+04    0.29193E-05   -0.27170E-05  2914   0.531E-03
 133 F= -.23325103E+04 E0= -.23325103E+04  d E =-.340752E-02  mag=    -0.0000
       N       E                     dE             d eps       ncg     rms          rms(c)
DAV:   1    -0.231240125069E+04    0.78959E-02   -0.75156E-01  4432   0.811E-01    0.316E-01
RMM:   2    -0.231241027419E+04   -0.90235E-02   -0.96708E-02  6136   0.186E-01    0.201E-01
RMM:   3    -0.231241002577E+04    0.24842E-03   -0.80128E-03  5394   0.477E-02    0.114E-01
RMM:   4    -0.231240985499E+04    0.17078E-03   -0.80591E-04  4379   0.129E-02    0.559E-02
RMM:   5    -0.231240981912E+04    0.35868E-04   -0.14186E-04  3922   0.104E-02    0.100E-02
RMM:   6    -0.231240981748E+04    0.16375E-05   -0.17279E-05  2848   0.472E-03
 134 F= -.23325109E+04 E0= -.23325109E+04  d E =-.395062E-02  mag=    -0.0000
       N       E                     dE             d eps       ncg     rms          rms(c)
DAV:   1    -0.231240512824E+04    0.46909E-02   -0.10378E+00  4360   0.940E-01    0.349E-01
RMM:   2    -0.231241383476E+04   -0.87065E-02   -0.93923E-02  6074   0.203E-01    0.251E-01
RMM:   3    -0.231241310566E+04    0.72910E-03   -0.80620E-03  5409   0.515E-02    0.129E-01
RMM:   4    -0.231241288507E+04    0.22059E-03   -0.88045E-04  4403   0.147E-02    0.581E-02
RMM:   5    -0.231241284852E+04    0.36555E-04   -0.16260E-04  4027   0.116E-02    0.122E-02
RMM:   6    -0.231241284662E+04    0.18940E-05   -0.22119E-05  2868   0.510E-03
 135 F= -.23325138E+04 E0= -.23325138E+04  d E =-.294184E-02  mag=     0.0000
       N       E                     dE             d eps       ncg     rms          rms(c)
DAV:   1    -0.231240816711E+04    0.46814E-02   -0.74191E-01  4360   0.793E-01    0.295E-01
RMM:   2    -0.231241439147E+04   -0.62244E-02   -0.67208E-02  6082   0.172E-01    0.212E-01
RMM:   3    -0.231241386271E+04    0.52876E-03   -0.57684E-03  5290   0.441E-02    0.108E-01
RMM:   4    -0.231241370333E+04    0.15938E-03   -0.59586E-04  4315   0.126E-02    0.490E-02
RMM:   5    -0.231241368009E+04    0.23233E-04   -0.11754E-04  3740   0.101E-02    0.106E-02
RMM:   6    -0.231241367884E+04    0.12561E-05   -0.19819E-05  2868   0.482E-03
 136 F= -.23325146E+04 E0= -.23325146E+04  d E =-.370352E-02  mag=     0.0000
       N       E                     dE             d eps       ncg     rms          rms(c)
DAV:   1    -0.231241224081E+04    0.14393E-02   -0.48457E-01  4416   0.678E-01    0.256E-01
RMM:   2    -0.231241677132E+04   -0.45305E-02   -0.49700E-02  6020   0.149E-01    0.153E-01
RMM:   3    -0.231241659279E+04    0.17854E-03   -0.39573E-03  5309   0.406E-02    0.896E-02
RMM:   4    -0.231241647204E+04    0.12075E-03   -0.43405E-04  4360   0.119E-02    0.422E-02
RMM:   5    -0.231241644824E+04    0.23797E-04   -0.91048E-05  3713   0.942E-03    0.784E-03
RMM:   6    -0.231241644757E+04    0.67452E-06   -0.13337E-05  2824   0.454E-03
 137 F= -.23325171E+04 E0= -.23325171E+04  d E =-.251635E-02  mag=     0.0000
       N       E                     dE             d eps       ncg     rms          rms(c)
DAV:   1    -0.231241387657E+04    0.25717E-02   -0.40686E-01  4384   0.623E-01    0.235E-01
RMM:   2    -0.231241768420E+04   -0.38076E-02   -0.41769E-02  6034   0.136E-01    0.141E-01
RMM:   3    -0.231241752244E+04    0.16176E-03   -0.33238E-03  5202   0.370E-02    0.820E-02
RMM:   4    -0.231241742062E+04    0.10182E-03   -0.36668E-04  4286   0.109E-02    0.387E-02
RMM:   5    -0.231241739913E+04    0.21490E-04   -0.76034E-05  3528   0.884E-03    0.726E-03
RMM:   6    -0.231241739842E+04    0.70973E-06   -0.12570E-05  2822   0.451E-03
 138 F= -.23325178E+04 E0= -.23325178E+04  d E =-.323597E-02  mag=    -0.0000
       N       E                     dE             d eps       ncg     rms          rms(c)
DAV:   1    -0.231241296761E+04    0.44315E-02   -0.58593E-01  4400   0.762E-01    0.274E-01
RMM:   2    -0.231242001824E+04   -0.70506E-02   -0.76696E-02  6063   0.169E-01    0.143E-01
RMM:   3    -0.231241998534E+04    0.32899E-04   -0.51449E-03  5471   0.447E-02    0.912E-02
RMM:   4    -0.231241988607E+04    0.99275E-04   -0.64946E-04  4318   0.121E-02    0.490E-02
RMM:   5    -0.231241984789E+04    0.38182E-04   -0.13062E-04  3920   0.988E-03    0.110E-02
RMM:   6    -0.231241984617E+04    0.17151E-05   -0.16221E-05  2848   0.496E-03
 139 F= -.23325199E+04 E0= -.23325199E+04  d E =-.204695E-02  mag=     0.0000
       N       E                     dE             d eps       ncg     rms          rms(c)
DAV:   1    -0.231241229756E+04    0.75503E-02   -0.69275E-01  4400   0.830E-01    0.298E-01
RMM:   2    -0.231242062617E+04   -0.83286E-02   -0.90576E-02  6031   0.184E-01    0.157E-01
RMM:   3    -0.231242058714E+04    0.39031E-04   -0.62196E-03  5451   0.476E-02    0.999E-02
RMM:   4    -0.231242046511E+04    0.12202E-03   -0.77127E-04  4426   0.131E-02    0.536E-02
RMM:   5    -0.231242041730E+04    0.47810E-04   -0.15658E-04  4043   0.108E-02    0.121E-02
RMM:   6    -0.231242041477E+04    0.25305E-05   -0.19176E-05  2846   0.513E-03
 140 F= -.23325200E+04 E0= -.23325200E+04  d E =-.217564E-02  mag=    -0.0000
       N       E                     dE             d eps       ncg     rms          rms(c)
DAV:   1    -0.231241911160E+04    0.13057E-02   -0.11443E-01  4496   0.337E-01    0.121E-01
RMM:   2    -0.231242048760E+04   -0.13760E-02   -0.14990E-02  6251   0.763E-02    0.664E-02
RMM:   3    -0.231242047235E+04    0.15249E-04   -0.10296E-03  4056   0.195E-02    0.403E-02
RMM:   4    -0.231242045127E+04    0.21081E-04   -0.11494E-04  2936   0.631E-03    0.212E-02
RMM:   5    -0.231242044570E+04    0.55711E-05   -0.26659E-05  2855   0.520E-03
 141 F= -.23325202E+04 E0= -.23325202E+04  d E =-.238583E-02  mag=    -0.0000
       N       E                     dE             d eps       ncg     rms          rms(c)
DAV:   1    -0.231241741671E+04    0.30346E-02   -0.67169E-01  4360   0.802E-01    0.275E-01
RMM:   2    -0.231242277961E+04   -0.53629E-02   -0.59038E-02  5981   0.168E-01    0.172E-01
RMM:   3    -0.231242255640E+04    0.22321E-03   -0.48021E-03  5367   0.455E-02    0.960E-02
RMM:   4    -0.231242242624E+04    0.13016E-03   -0.53243E-04  4392   0.125E-02    0.473E-02
RMM:   5    -0.231242239781E+04    0.28426E-04   -0.11558E-04  3939   0.105E-02    0.775E-03
RMM:   6    -0.231242239782E+04   -0.53114E-08   -0.14083E-05  2850   0.462E-03
 142 F= -.23325220E+04 E0= -.23325220E+04  d E =-.174553E-02  mag=     0.0000
       N       E                     dE             d eps       ncg     rms          rms(c)
DAV:   1    -0.231242192491E+04    0.47290E-03   -0.87640E-02  4544   0.290E-01    0.999E-02
RMM:   2    -0.231242264114E+04   -0.71623E-03   -0.78536E-03  6078   0.620E-02    0.648E-02
RMM:   3    -0.231242260100E+04    0.40139E-04   -0.62851E-04  3765   0.169E-02    0.353E-02
RMM:   4    -0.231242258406E+04    0.16943E-04   -0.69985E-05  2956   0.560E-03    0.174E-02
RMM:   5    -0.231242258037E+04    0.36869E-05   -0.18460E-05  2835   0.456E-03
 143 F= -.23325221E+04 E0= -.23325221E+04  d E =-.185257E-02  mag=     0.0000
       N       E                     dE             d eps       ncg     rms          rms(c)
DAV:   1    -0.231241975817E+04    0.28259E-02   -0.51400E-01  4400   0.731E-01    0.249E-01
RMM:   2    -0.231242456058E+04   -0.48024E-02   -0.52705E-02  6064   0.155E-01    0.139E-01
RMM:   3    -0.231242446089E+04    0.99691E-04   -0.41115E-03  5404   0.417E-02    0.848E-02
RMM:   4    -0.231242434472E+04    0.11617E-03   -0.42181E-04  4361   0.116E-02    0.420E-02
RMM:   5    -0.231242431576E+04    0.28958E-04   -0.10377E-04  3921   0.963E-03    0.796E-03
RMM:   6    -0.231242431485E+04    0.91616E-06   -0.13230E-05  2842   0.491E-03
 144 F= -.23325237E+04 E0= -.23325237E+04  d E =-.159250E-02  mag=    -0.0000
       N       E                     dE             d eps       ncg     rms          rms(c)
DAV:   1    -0.231241811846E+04    0.61973E-02   -0.72683E-01  4376   0.868E-01    0.297E-01
RMM:   2    -0.231242492165E+04   -0.68032E-02   -0.74631E-02  6028   0.184E-01    0.165E-01
RMM:   3    -0.231242477971E+04    0.14193E-03   -0.58112E-03  5453   0.482E-02    0.101E-01
RMM:   4    -0.231242461353E+04    0.16618E-03   -0.60966E-04  4506   0.136E-02    0.501E-02
RMM:   5    -0.231242457025E+04    0.43283E-04   -0.14942E-04  4090   0.113E-02    0.967E-03
RMM:   6    -0.231242456843E+04    0.18248E-05   -0.18730E-05  2866   0.537E-03
 145 F= -.23325237E+04 E0= -.23325237E+04  d E =-.167535E-02  mag=     0.0000
       N       E                     dE             d eps       ncg     rms          rms(c)
DAV:   1    -0.231242358003E+04    0.99022E-03   -0.12831E-01  4496   0.363E-01    0.124E-01
RMM:   2    -0.231242476089E+04   -0.11809E-02   -0.12997E-02  6184   0.779E-02    0.707E-02
RMM:   3    -0.231242473106E+04    0.29835E-04   -0.10580E-03  4233   0.208E-02    0.417E-02
RMM:   4    -0.231242470421E+04    0.26840E-04   -0.10163E-04  2980   0.654E-03    0.207E-02
RMM:   5    -0.231242469847E+04    0.57418E-05   -0.29824E-05  2862   0.563E-03
 146 F= -.23325239E+04 E0= -.23325239E+04  d E =-.187736E-02  mag=    -0.0000
       N       E                     dE             d eps       ncg     rms          rms(c)
DAV:   1    -0.231242327786E+04    0.14264E-02   -0.35722E-01  4384   0.596E-01    0.195E-01
RMM:   2    -0.231242647646E+04   -0.31986E-02   -0.34844E-02  6122   0.125E-01    0.118E-01
RMM:   3    -0.231242638748E+04    0.88975E-04   -0.28014E-03  5097   0.323E-02    0.681E-02
RMM:   4    -0.231242632103E+04    0.66451E-04   -0.28926E-04  3849   0.897E-03    0.329E-02
RMM:   5    -0.231242630355E+04    0.17477E-04   -0.57863E-05  3257   0.738E-03    0.541E-03
RMM:   6    -0.231242630351E+04    0.44791E-07   -0.81452E-06  2813   0.469E-03
 147 F= -.23325254E+04 E0= -.23325254E+04  d E =-.143264E-02  mag=     0.0000
       N       E                     dE             d eps       ncg     rms          rms(c)
DAV:   1    -0.231240644096E+04    0.19863E-01   -0.25250E+00  4360   0.158E+00    0.517E-01
RMM:   2    -0.231242899772E+04   -0.22557E-01   -0.24595E-01  6000   0.327E-01    0.307E-01
RMM:   3    -0.231242846801E+04    0.52972E-03   -0.18875E-02  5566   0.857E-02    0.184E-01
RMM:   4    -0.231242798519E+04    0.48282E-03   -0.20795E-03  4786   0.229E-02    0.877E-02
RMM:   5    -0.231242787165E+04    0.11354E-03   -0.42008E-04  4688   0.175E-02    0.152E-02
RMM:   6    -0.231242786635E+04    0.53073E-05   -0.42300E-05  3002   0.738E-03
 148 F= -.23325265E+04 E0= -.23325265E+04  d E =-.253480E-02  mag=    -0.0000
       N       E                     dE             d eps       ncg     rms          rms(c)
DAV:   1    -0.231242699592E+04    0.87573E-03   -0.30167E-01  4424   0.538E-01    0.175E-01
RMM:   2    -0.231242937751E+04   -0.23816E-02   -0.25961E-02  6055   0.111E-01    0.114E-01
RMM:   3    -0.231242924732E+04    0.13019E-03   -0.20619E-03  4823   0.277E-02    0.625E-02
RMM:   4    -0.231242919608E+04    0.51244E-04   -0.22021E-04  3615   0.813E-03    0.293E-02
RMM:   5    -0.231242918635E+04    0.97287E-05   -0.45012E-05  3013   0.649E-03
 149 F= -.23325276E+04 E0= -.23325276E+04  d E =-.113092E-02  mag=    -0.0000
       N       E                     dE             d eps       ncg     rms          rms(c)
DAV:   1    -0.231241130549E+04    0.17891E-01   -0.27076E+00  4360   0.161E+00    0.523E-01
RMM:   2    -0.231243246713E+04   -0.21162E-01   -0.23152E-01  6022   0.330E-01    0.338E-01
RMM:   3    -0.231243149548E+04    0.97165E-03   -0.18355E-02  5596   0.878E-02    0.187E-01
RMM:   4    -0.231243101005E+04    0.48543E-03   -0.19332E-03  4713   0.229E-02    0.869E-02
RMM:   5    -0.231243091893E+04    0.91118E-04   -0.37683E-04  4646   0.171E-02    0.156E-02
RMM:   6    -0.231243091676E+04    0.21661E-05   -0.39500E-05  2938   0.695E-03
 150 F= -.23325288E+04 E0= -.23325288E+04  d E =-.229052E-02  mag=    -0.0000
