       N       E                     dE             d eps       ncg     rms          rms(c)
DAV:   1     0.120925840285E+05    0.12093E+05   -0.83290E+05  4640   0.140E+03
DAV:   2    -0.130304936290E+04   -0.13396E+05   -0.12888E+05  5040   0.318E+02
DAV:   3    -0.249873410792E+04   -0.11957E+04   -0.11859E+04  5520   0.101E+02
DAV:   4    -0.252374791297E+04   -0.25014E+02   -0.24885E+02  5680   0.176E+01
DAV:   5    -0.252442576876E+04   -0.67786E+00   -0.67674E+00  5920   0.253E+00    0.171E+02
RMM:   6    -0.147379706666E+04    0.10506E+04   -0.19158E+03  4500   0.377E+01    0.724E+01
RMM:   7    -0.164957649660E+04   -0.17578E+03   -0.26783E+02  5001   0.132E+01    0.478E+01
RMM:   8    -0.170726942861E+04   -0.57693E+02   -0.35755E+01  5209   0.675E+00    0.383E+01
RMM:   9    -0.183179254043E+04   -0.12452E+03   -0.68132E+01  5014   0.784E+00    0.372E+01
RMM:  10    -0.192836963394E+04   -0.96577E+02   -0.47426E+01  5257   0.629E+00    0.204E+01
RMM:  11    -0.205434355473E+04   -0.12597E+03   -0.55113E+01  4755   0.573E+00    0.200E+01
RMM:  12    -0.213620917387E+04   -0.81866E+02   -0.40646E+01  4772   0.491E+00    0.119E+01
RMM:  13    -0.225766110401E+04   -0.12145E+03   -0.98664E+01  4531   0.704E+00    0.152E+01
RMM:  14    -0.230180009348E+04   -0.44139E+02   -0.39696E+01  4535   0.489E+00    0.119E+01
RMM:  15    -0.231780318257E+04   -0.16003E+02   -0.20338E+01  4783   0.298E+00    0.561E+00
RMM:  16    -0.232140920178E+04   -0.36060E+01   -0.44499E+00  4918   0.165E+00    0.478E+00
RMM:  17    -0.232192620743E+04   -0.51701E+00   -0.72799E-01  5731   0.544E-01    0.376E+00
RMM:  18    -0.232228530992E+04   -0.35910E+00   -0.22830E-01  4988   0.227E-01    0.297E+00
RMM:  19    -0.232290437423E+04   -0.61906E+00   -0.47389E-01  4502   0.352E-01    0.166E+00
RMM:  20    -0.232314203098E+04   -0.23766E+00   -0.23484E-01  4698   0.266E-01    0.821E-01
RMM:  21    -0.232326859664E+04   -0.12657E+00   -0.13460E-01  4652   0.186E-01    0.517E-01
RMM:  22    -0.232337269800E+04   -0.10410E+00   -0.83561E-02  4750   0.147E-01    0.441E-01
RMM:  23    -0.232342525884E+04   -0.52561E-01   -0.29374E-02  4713   0.906E-02    0.325E-01
RMM:  24    -0.232345880935E+04   -0.33551E-01   -0.11088E-02  4515   0.601E-02    0.168E-01
RMM:  25    -0.232347608581E+04   -0.17276E-01   -0.39739E-03  4616   0.467E-02    0.102E-01
RMM:  26    -0.232348953372E+04   -0.13448E-01   -0.33103E-03  4523   0.356E-02    0.470E-02
RMM:  27    -0.232349498104E+04   -0.54473E-02   -0.14586E-03  4401   0.307E-02    0.420E-02
RMM:  28    -0.232349664336E+04   -0.16623E-02   -0.58867E-04  4509   0.154E-02    0.216E-02
RMM:  29    -0.232349710947E+04   -0.46611E-03   -0.10575E-04  3890   0.905E-03    0.131E-02
RMM:  30    -0.232349734155E+04   -0.23207E-03   -0.54517E-05  3525   0.573E-03    0.647E-03
RMM:  31    -0.232349740471E+04   -0.63168E-04   -0.14168E-05  2994   0.457E-03    0.357E-03
RMM:  32    -0.232349743756E+04   -0.32846E-04   -0.10030E-05  2948   0.305E-03    0.313E-03
RMM:  33    -0.232349745163E+04   -0.14069E-04   -0.48341E-06  2822   0.280E-03    0.159E-03
RMM:  34    -0.232349745580E+04   -0.41770E-05   -0.26108E-06  2484   0.175E-03
   1 F= -.23440598E+04 E0= -.23440598E+04  d E =-.698936E-18  mag=     4.0000
       N       E                     dE             d eps       ncg     rms          rms(c)
DAV:   1    -0.232349467039E+04    0.27812E-02   -0.21616E+00  4320   0.614E-01    0.329E-01
RMM:   2    -0.232349340373E+04    0.12667E-02   -0.96842E-03  3653   0.347E-02    0.195E-01
RMM:   3    -0.232349414216E+04   -0.73843E-03   -0.33308E-03  4960   0.192E-02    0.436E-01
RMM:   4    -0.232349279685E+04    0.13453E-02   -0.12342E-03  3959   0.128E-02    0.335E-02
RMM:   5    -0.232349279561E+04    0.12360E-05   -0.17836E-04  2883   0.507E-03    0.195E-02
RMM:   6    -0.232349278881E+04    0.67965E-05   -0.19596E-05  2635   0.234E-03
   2 F= -.23440548E+04 E0= -.23440548E+04  d E =-.326581E-19  mag=     4.0000
       N       E                     dE             d eps       ncg     rms          rms(c)
DAV:   1    -0.232346509613E+04    0.27699E-01   -0.86342E+00  4320   0.121E+00    0.677E-01
RMM:   2    -0.232345895986E+04    0.61363E-02   -0.33840E-02  3917   0.701E-02    0.396E-01
RMM:   3    -0.232346213729E+04   -0.31774E-02   -0.13655E-02  5521   0.408E-02    0.891E-01
RMM:   4    -0.232345635359E+04    0.57837E-02   -0.50142E-03  4873   0.248E-02    0.742E-02
RMM:   5    -0.232345633981E+04    0.13773E-04   -0.70434E-04  3245   0.923E-03    0.370E-02
RMM:   6    -0.232345631712E+04    0.22696E-04   -0.84332E-05  3034   0.412E-03    0.286E-02
RMM:   7    -0.232345631235E+04    0.47693E-05   -0.25116E-05  2829   0.327E-03
   3 F= -.23440189E+04 E0= -.23440189E+04  d E =-.576374E-17  mag=     4.0000
       N       E                     dE             d eps       ncg     rms          rms(c)
DAV:   1    -0.232347128115E+04   -0.14964E-01   -0.43566E+00  4320   0.862E-01    0.470E-01
RMM:   2    -0.232346825749E+04    0.30237E-02   -0.15603E-02  3800   0.490E-02    0.284E-01
RMM:   3    -0.232347012557E+04   -0.18681E-02   -0.72514E-03  5024   0.271E-02    0.659E-01
RMM:   4    -0.232346704777E+04    0.30778E-02   -0.27745E-03  4531   0.214E-02    0.409E-02
RMM:   5    -0.232346702148E+04    0.26289E-04   -0.33455E-04  3131   0.617E-03    0.297E-02
RMM:   6    -0.232346700755E+04    0.13927E-04   -0.43779E-05  2791   0.322E-03    0.199E-02
RMM:   7    -0.232346700467E+04    0.28882E-05   -0.10401E-05  2722   0.222E-03
   4 F= -.23440292E+04 E0= -.23440292E+04  d E =-.954066E-17  mag=     4.0000
       N       E                     dE             d eps       ncg     rms          rms(c)
DAV:   1    -0.232349650676E+04   -0.29499E-01   -0.86000E+00  4480   0.127E+00    0.626E-01
RMM:   2    -0.232349135914E+04    0.51476E-02   -0.25982E-02  3882   0.675E-02    0.356E-01
RMM:   3    -0.232349194345E+04   -0.58431E-03   -0.12553E-02  4715   0.369E-02    0.589E-01
RMM:   4    -0.232348949562E+04    0.24478E-02   -0.29170E-03  4342   0.292E-02    0.569E-02
RMM:   5    -0.232348941608E+04    0.79536E-04   -0.29135E-04  3344   0.559E-03    0.287E-02
RMM:   6    -0.232348940376E+04    0.12319E-04   -0.76493E-05  2956   0.437E-03    0.258E-02
RMM:   7    -0.232348939892E+04    0.48363E-05   -0.13046E-05  2749   0.280E-03
   5 F= -.23440519E+04 E0= -.23440519E+04  d E =-.649183E-17  mag=     4.0000
       N       E                     dE             d eps       ncg     rms          rms(c)
DAV:   1    -0.232341581260E+04    0.73591E-01   -0.43049E+00  4640   0.843E-01    0.476E-01
RMM:   2    -0.232341229906E+04    0.35135E-02   -0.19170E-02  3841   0.528E-02    0.261E-01
RMM:   3    -0.232341120474E+04    0.10943E-02   -0.57825E-03  4248   0.239E-02    0.140E-01
RMM:   4    -0.232341124540E+04   -0.40665E-04   -0.99022E-04  3520   0.198E-02    0.168E-01
RMM:   5    -0.232341103410E+04    0.21131E-03   -0.17317E-04  2997   0.579E-03    0.231E-02
RMM:   6    -0.232341103076E+04    0.33354E-05   -0.37804E-05  2668   0.277E-03
   6 F= -.23439734E+04 E0= -.23439734E+04  d E =-.276015E-16  mag=     4.0000
       N       E                     dE             d eps       ncg     rms          rms(c)
DAV:   1    -0.232355085144E+04   -0.13982E+00   -0.84332E+00  4320   0.119E+00    0.643E-01
RMM:   2    -0.232354505326E+04    0.57982E-02   -0.40655E-02  3921   0.841E-02    0.355E-01
RMM:   3    -0.232354318896E+04    0.18643E-02   -0.10512E-02  4864   0.383E-02    0.275E-01
RMM:   4    -0.232354311185E+04    0.77118E-04   -0.23528E-03  4517   0.194E-02    0.252E-01
RMM:   5    -0.232354262344E+04    0.48841E-03   -0.37317E-04  3321   0.810E-03    0.386E-02
RMM:   6    -0.232354261867E+04    0.47618E-05   -0.81314E-05  2882   0.386E-03
   7 F= -.23441049E+04 E0= -.23441049E+04  d E =-.116349E-16  mag=     4.0000
       N       E                     dE             d eps       ncg     rms          rms(c)
DAV:   1    -0.232356363091E+04   -0.21007E-01   -0.39900E+00  4480   0.868E-01    0.404E-01
RMM:   2    -0.232356186883E+04    0.17621E-02   -0.17438E-02  3845   0.538E-02    0.227E-01
RMM:   3    -0.232356088127E+04    0.98756E-03   -0.40584E-03  4706   0.231E-02    0.870E-02
RMM:   4    -0.232356103090E+04   -0.14963E-03   -0.59057E-04  3656   0.106E-02    0.154E-01
RMM:   5    -0.232356086233E+04    0.16858E-03   -0.16722E-04  2895   0.550E-03    0.250E-02
RMM:   6    -0.232356085398E+04    0.83530E-05   -0.41072E-05  2751   0.294E-03
   8 F= -.23441234E+04 E0= -.23441234E+04  d E =-.318393E-16  mag=     4.0000
       N       E                     dE             d eps       ncg     rms          rms(c)
DAV:   1    -0.232341739353E+04    0.14347E+00   -0.82705E+00  4480   0.112E+00    0.579E-01
RMM:   2    -0.232341229909E+04    0.50944E-02   -0.29973E-02  3992   0.590E-02    0.328E-01
RMM:   3    -0.232341264437E+04   -0.34528E-03   -0.85704E-03  4984   0.358E-02    0.570E-01
RMM:   4    -0.232341056334E+04    0.20810E-02   -0.38671E-03  5092   0.203E-02    0.159E-01
RMM:   5    -0.232341036294E+04    0.20040E-03   -0.27807E-04  3202   0.741E-03    0.351E-02
RMM:   6    -0.232341035891E+04    0.40340E-05   -0.73620E-05  3086   0.418E-03
   9 F= -.23439725E+04 E0= -.23439725E+04  d E =-.146475E-16  mag=     4.0000
       N       E                     dE             d eps       ncg     rms          rms(c)
DAV:   1    -0.232353319730E+04   -0.12283E+00   -0.42296E+00  4480   0.777E-01    0.404E-01
RMM:   2    -0.232353120362E+04    0.19937E-02   -0.16687E-02  3869   0.464E-02    0.228E-01
RMM:   3    -0.232353070527E+04    0.49835E-03   -0.38832E-03  4616   0.233E-02    0.266E-01
RMM:   4    -0.232353048055E+04    0.22471E-03   -0.14242E-03  4397   0.135E-02    0.176E-01
RMM:   5    -0.232353027013E+04    0.21043E-03   -0.17343E-04  3047   0.610E-03    0.288E-02
RMM:   6    -0.232353026633E+04    0.37944E-05   -0.51521E-05  2936   0.351E-03
  10 F= -.23440926E+04 E0= -.23440926E+04  d E =-.720804E-17  mag=     4.0000
       N       E                     dE             d eps       ncg     rms          rms(c)
DAV:   1    -0.232344487359E+04    0.85397E-01   -0.85011E+00  4480   0.108E+00    0.498E-01
RMM:   2    -0.232344300303E+04    0.18706E-02   -0.25099E-02  3967   0.571E-02    0.282E-01
RMM:   3    -0.232344234925E+04    0.65378E-03   -0.54034E-03  4843   0.246E-02    0.291E-01
RMM:   4    -0.232344204567E+04    0.30357E-03   -0.15749E-03  3999   0.156E-02    0.187E-01
RMM:   5    -0.232344187380E+04    0.17188E-03   -0.26198E-04  3228   0.694E-03    0.472E-02
RMM:   6    -0.232344187874E+04   -0.49420E-05   -0.67959E-05  2996   0.436E-03
  11 F= -.23440042E+04 E0= -.23440042E+04  d E =-.563677E-16  mag=     4.0000
       N       E                     dE             d eps       ncg     rms          rms(c)
DAV:   1    -0.232355292360E+04   -0.11105E+00   -0.41533E+00  4480   0.768E-01    0.408E-01
RMM:   2    -0.232355140938E+04    0.15142E-02   -0.21734E-02  3871   0.528E-02    0.251E-01
RMM:   3    -0.232355239803E+04   -0.98865E-03   -0.55672E-03  5255   0.251E-02    0.539E-01
RMM:   4    -0.232355028710E+04    0.21109E-02   -0.21269E-03  4369   0.159E-02    0.605E-02
RMM:   5    -0.232355025972E+04    0.27379E-04   -0.30586E-04  3172   0.641E-03    0.383E-02
RMM:   6    -0.232355026117E+04   -0.14487E-05   -0.83204E-05  3015   0.442E-03
  12 F= -.23441130E+04 E0= -.23441130E+04  d E =-.658938E-16  mag=     4.0000
       N       E                     dE             d eps       ncg     rms          rms(c)
DAV:   1    -0.232341413431E+04    0.13613E+00   -0.83688E+00  4480   0.105E+00    0.718E-01
RMM:   2    -0.232340583746E+04    0.82968E-02   -0.51576E-02  4050   0.777E-02    0.389E-01
RMM:   3    -0.232340670266E+04   -0.86520E-03   -0.14489E-02  5484   0.409E-02    0.731E-01
RMM:   4    -0.232340291539E+04    0.37873E-02   -0.43836E-03  4994   0.221E-02    0.137E-01
RMM:   5    -0.232340279846E+04    0.11694E-03   -0.62443E-04  3321   0.807E-03    0.562E-02
RMM:   6    -0.232340277642E+04    0.22042E-04   -0.16416E-04  3249   0.601E-03    0.357E-02
RMM:   7    -0.232340276871E+04    0.77108E-05   -0.24975E-05  2872   0.359E-03
  13 F= -.23439647E+04 E0= -.23439647E+04  d E =-.734134E-17  mag=     4.0000
       N       E                     dE             d eps       ncg     rms          rms(c)
DAV:   1    -0.232349272546E+04   -0.89949E-01   -0.24083E+00  4480   0.578E-01    0.390E-01
RMM:   2    -0.232349077812E+04    0.19473E-02   -0.16083E-02  3804   0.457E-02    0.219E-01
RMM:   3    -0.232349113979E+04   -0.36167E-03   -0.46384E-03  5048   0.232E-02    0.389E-01
RMM:   4    -0.232349004399E+04    0.10958E-02   -0.12794E-03  4059   0.124E-02    0.702E-02
RMM:   5    -0.232348999979E+04    0.44202E-04   -0.18166E-04  3052   0.512E-03    0.314E-02
RMM:   6    -0.232348999845E+04    0.13364E-05   -0.57214E-05  2841   0.381E-03
  14 F= -.23440520E+04 E0= -.23440520E+04  d E =-.146794E-16  mag=     4.0000
       N       E                     dE             d eps       ncg     rms          rms(c)
DAV:   1    -0.232350003376E+04   -0.10034E-01   -0.12100E+00  4320   0.449E-01    0.305E-01
RMM:   2    -0.232350003937E+04   -0.56146E-05   -0.34746E-03  3507   0.241E-02    0.182E-01
RMM:   3    -0.232350007024E+04   -0.30866E-04   -0.10426E-03  3832   0.107E-02    0.398E-02
RMM:   4    -0.232350006802E+04    0.22170E-05   -0.10540E-04  2649   0.787E-03    0.563E-02
RMM:   5    -0.232350004080E+04    0.27218E-04   -0.20352E-05  2451   0.221E-03    0.862E-03
RMM:   6    -0.232350003952E+04    0.12799E-05   -0.12351E-05  2432   0.175E-03
  15 F= -.23440626E+04 E0= -.23440626E+04  d E =-.347932E-16  mag=     4.0000
       N       E                     dE             d eps       ncg     rms          rms(c)
DAV:   1    -0.232347212619E+04    0.27915E-01   -0.61360E-01  4240   0.325E-01    0.294E-01
RMM:   2    -0.232347121580E+04    0.91039E-03   -0.41642E-03  3406   0.255E-02    0.160E-01
RMM:   3    -0.232347120758E+04    0.82164E-05   -0.16935E-03  4037   0.139E-02    0.131E-01
RMM:   4    -0.232347108865E+04    0.11893E-03   -0.22703E-04  3100   0.685E-03    0.607E-02
RMM:   5    -0.232347105219E+04    0.36460E-04   -0.18911E-04  2947   0.475E-03    0.140E-02
RMM:   6    -0.232347104803E+04    0.41595E-05   -0.11466E-05  2360   0.321E-03
  16 F= -.23440335E+04 E0= -.23440335E+04  d E =-.202891E-16  mag=     4.0000
       N       E                     dE             d eps       ncg     rms          rms(c)
DAV:   1    -0.232351279499E+04   -0.41743E-01   -0.12404E+00  4480   0.470E-01    0.469E-01
RMM:   2    -0.232350982980E+04    0.29652E-02   -0.10297E-02  3547   0.369E-02    0.248E-01
RMM:   3    -0.232350954332E+04    0.28648E-03   -0.42394E-03  4230   0.252E-02    0.112E-01
RMM:   4    -0.232350960097E+04   -0.57651E-04   -0.53591E-04  3687   0.905E-03    0.168E-01
RMM:   5    -0.232350938136E+04    0.21960E-03   -0.38198E-04  3318   0.745E-03    0.176E-02
RMM:   6    -0.232350937727E+04    0.40954E-05   -0.21044E-05  2595   0.372E-03
  17 F= -.23440716E+04 E0= -.23440716E+04  d E =-.225563E-16  mag=     4.0000
       N       E                     dE             d eps       ncg     rms          rms(c)
DAV:   1    -0.232351770954E+04   -0.83282E-02   -0.61235E-01  4240   0.318E-01    0.225E-01
RMM:   2    -0.232351767189E+04    0.37649E-04   -0.14717E-03  3236   0.160E-02    0.134E-01
RMM:   3    -0.232351766262E+04    0.92670E-05   -0.48946E-04  3212   0.749E-03    0.183E-02
RMM:   4    -0.232351766734E+04   -0.47186E-05   -0.43810E-05  2476   0.554E-03
  18 F= -.23440800E+04 E0= -.23440800E+04  d E =-.365318E-16  mag=     4.0000
       N       E                     dE             d eps       ncg     rms          rms(c)
DAV:   1    -0.232346817934E+04    0.49483E-01   -0.12351E+00  4640   0.464E-01    0.459E-01
RMM:   2    -0.232346560502E+04    0.25743E-02   -0.10966E-02  3577   0.417E-02    0.243E-01
RMM:   3    -0.232346549071E+04    0.11431E-03   -0.40872E-03  4454   0.233E-02    0.231E-01
RMM:   4    -0.232346516111E+04    0.32960E-03   -0.79650E-04  3841   0.111E-02    0.994E-02
RMM:   5    -0.232346504867E+04    0.11244E-03   -0.31044E-04  3218   0.649E-03    0.203E-02
RMM:   6    -0.232346504896E+04   -0.28830E-06   -0.29634E-05  2633   0.413E-03
  19 F= -.23440274E+04 E0= -.23440274E+04  d E =-.144139E-16  mag=     4.0000
       N       E                     dE             d eps       ncg     rms          rms(c)
DAV:   1    -0.232349201221E+04   -0.26964E-01   -0.61715E-01  4160   0.331E-01    0.284E-01
RMM:   2    -0.232349148800E+04    0.52422E-03   -0.29348E-03  3463   0.232E-02    0.165E-01
RMM:   3    -0.232349140299E+04    0.85001E-04   -0.12367E-03  3561   0.121E-02    0.135E-01
RMM:   4    -0.232349127193E+04    0.13106E-03   -0.19516E-04  2816   0.987E-03    0.222E-02
RMM:   5    -0.232349125880E+04    0.13136E-04   -0.29281E-05  2505   0.231E-03    0.955E-03
RMM:   6    -0.232349125782E+04    0.97805E-06   -0.78616E-06  2286   0.182E-03
  20 F= -.23440535E+04 E0= -.23440535E+04  d E =-.187166E-16  mag=     4.0000
       N       E                     dE             d eps       ncg     rms          rms(c)
DAV:   1    -0.232349658223E+04   -0.53234E-02   -0.12331E+00  4560   0.431E-01    0.387E-01
RMM:   2    -0.232349551527E+04    0.10670E-02   -0.61702E-03  3596   0.282E-02    0.216E-01
RMM:   3    -0.232349547121E+04    0.44060E-04   -0.22734E-03  4149   0.163E-02    0.136E-01
RMM:   4    -0.232349535945E+04    0.11176E-03   -0.35745E-04  3273   0.937E-03    0.800E-02
RMM:   5    -0.232349529381E+04    0.65644E-04   -0.15631E-04  2993   0.472E-03    0.146E-02
RMM:   6    -0.232349529419E+04   -0.38408E-06   -0.14713E-05  2558   0.349E-03
  21 F= -.23440577E+04 E0= -.23440577E+04  d E =-.272290E-16  mag=     4.0000
       N       E                     dE             d eps       ncg     rms          rms(c)
DAV:   1    -0.232349335929E+04    0.19345E-02   -0.61386E-01  4400   0.300E-01    0.250E-01
RMM:   2    -0.232349312563E+04    0.23366E-03   -0.19486E-03  3436   0.169E-02    0.146E-01
RMM:   3    -0.232349328973E+04   -0.16410E-03   -0.81473E-04  3628   0.102E-02    0.167E-01
RMM:   4    -0.232349310051E+04    0.18922E-03   -0.23295E-04  2856   0.792E-03    0.317E-02
RMM:   5    -0.232349308707E+04    0.13437E-04   -0.38289E-05  2600   0.287E-03    0.851E-03
RMM:   6    -0.232349308691E+04    0.16330E-06   -0.71412E-06  2257   0.178E-03
  22 F= -.23440551E+04 E0= -.23440551E+04  d E =-.271053E-16  mag=     4.0000
       N       E                     dE             d eps       ncg     rms          rms(c)
DAV:   1    -0.232348886394E+04    0.42231E-02   -0.12437E+00  4800   0.426E-01    0.520E-01
RMM:   2    -0.232348495671E+04    0.39072E-02   -0.13039E-02  3621   0.424E-02    0.270E-01
RMM:   3    -0.232348460307E+04    0.35364E-03   -0.55695E-03  4332   0.253E-02    0.160E-01
RMM:   4    -0.232348449225E+04    0.11082E-03   -0.69614E-04  3917   0.110E-02    0.157E-01
RMM:   5    -0.232348427488E+04    0.21737E-03   -0.44296E-04  3371   0.780E-03    0.245E-02
RMM:   6    -0.232348426979E+04    0.50894E-05   -0.37291E-05  2716   0.444E-03
  23 F= -.23440469E+04 E0= -.23440469E+04  d E =-.188856E-16  mag=     4.0000
       N       E                     dE             d eps       ncg     rms          rms(c)
DAV:   1    -0.232350980004E+04   -0.25525E-01   -0.63642E-01  4560   0.327E-01    0.374E-01
RMM:   2    -0.232350785410E+04    0.19459E-02   -0.76577E-03  3580   0.301E-02    0.194E-01
RMM:   3    -0.232350758483E+04    0.26927E-03   -0.27705E-03  4122   0.192E-02    0.994E-02
RMM:   4    -0.232350757237E+04    0.12454E-04   -0.32756E-04  3470   0.755E-03    0.124E-01
RMM:   5    -0.232350744462E+04    0.12776E-03   -0.22347E-04  3108   0.601E-03    0.158E-02
RMM:   6    -0.232350744113E+04    0.34869E-05   -0.14842E-05  2589   0.333E-03
  24 F= -.23440701E+04 E0= -.23440701E+04  d E =-.513987E-16  mag=     4.0000
       N       E                     dE             d eps       ncg     rms          rms(c)
DAV:   1    -0.232348190130E+04    0.25543E-01   -0.12286E+00  4480   0.421E-01    0.379E-01
RMM:   2    -0.232348090366E+04    0.99764E-03   -0.55847E-03  3628   0.298E-02    0.210E-01
RMM:   3    -0.232348077013E+04    0.13353E-03   -0.20311E-03  4049   0.162E-02    0.655E-02
RMM:   4    -0.232348085774E+04   -0.87610E-04   -0.32964E-04  3344   0.913E-03    0.140E-01
RMM:   5    -0.232348071170E+04    0.14604E-03   -0.11671E-04  2947   0.503E-03    0.119E-02
RMM:   6    -0.232348071137E+04    0.33304E-06   -0.17502E-05  2675   0.263E-03
  25 F= -.23440427E+04 E0= -.23440427E+04  d E =-.909609E-17  mag=     4.0000
       N       E                     dE             d eps       ncg     rms          rms(c)
DAV:   1    -0.232344855244E+04    0.32159E-01   -0.65100E-01  4800   0.326E-01    0.415E-01
RMM:   2    -0.232344548132E+04    0.30711E-02   -0.10545E-02  3728   0.341E-02    0.205E-01
RMM:   3    -0.232344577544E+04   -0.29413E-03   -0.40679E-03  4544   0.253E-02    0.299E-01
RMM:   4    -0.232344514365E+04    0.63180E-03   -0.80841E-04  4081   0.109E-02    0.733E-02
RMM:   5    -0.232344507762E+04    0.66024E-04   -0.45249E-04  3336   0.717E-03    0.284E-02
RMM:   6    -0.232344506958E+04    0.80465E-05   -0.34583E-05  2690   0.513E-03
  26 F= -.23440069E+04 E0= -.23440069E+04  d E =-.197258E-16  mag=     4.0000
       N       E                     dE             d eps       ncg     rms          rms(c)
DAV:   1    -0.232353124850E+04   -0.86171E-01   -0.13262E+00  4880   0.401E-01    0.702E-01
RMM:   2    -0.232352227813E+04    0.89704E-02   -0.23743E-02  3898   0.483E-02    0.346E-01
RMM:   3    -0.232352234911E+04   -0.70981E-04   -0.90029E-03  4655   0.397E-02    0.441E-01
RMM:   4    -0.232352106538E+04    0.12837E-02   -0.20687E-03  4828   0.170E-02    0.134E-01
RMM:   5    -0.232352083954E+04    0.22584E-03   -0.78054E-04  3691   0.946E-03    0.377E-02
RMM:   6    -0.232352083015E+04    0.93967E-05   -0.86531E-05  2987   0.659E-03
  27 F= -.23440836E+04 E0= -.23440836E+04  d E =-.291428E-16  mag=     4.0000
       N       E                     dE             d eps       ncg     rms          rms(c)
DAV:   1    -0.232348564189E+04    0.35198E-01   -0.64797E-01  4880   0.286E-01    0.424E-01
RMM:   2    -0.232348280233E+04    0.28396E-02   -0.95833E-03  3752   0.305E-02    0.220E-01
RMM:   3    -0.232348332261E+04   -0.52028E-03   -0.36271E-03  4623   0.232E-02    0.375E-01
RMM:   4    -0.232348233771E+04    0.98490E-03   -0.10675E-03  4217   0.122E-02    0.691E-02
RMM:   5    -0.232348227523E+04    0.62482E-04   -0.26505E-04  3201   0.587E-03    0.249E-02
RMM:   6    -0.232348227373E+04    0.15010E-05   -0.27288E-05  2677   0.400E-03
  28 F= -.23440444E+04 E0= -.23440444E+04  d E =-.154358E-16  mag=     4.0000
       N       E                     dE             d eps       ncg     rms          rms(c)
DAV:   1    -0.232350944528E+04   -0.27170E-01   -0.12564E+00  4480   0.375E-01    0.366E-01
RMM:   2    -0.232350895645E+04    0.48883E-03   -0.40714E-03  3673   0.234E-02    0.220E-01
RMM:   3    -0.232351002753E+04   -0.10711E-02   -0.23686E-03  4635   0.160E-02    0.410E-01
RMM:   4    -0.232350886854E+04    0.11590E-02   -0.99801E-04  3857   0.121E-02    0.374E-02
RMM:   5    -0.232350884812E+04    0.20418E-04   -0.10903E-04  2937   0.407E-03    0.167E-02
RMM:   6    -0.232350884677E+04    0.13571E-05   -0.17087E-05  2592   0.258E-03
  29 F= -.23440714E+04 E0= -.23440714E+04  d E =-.358076E-16  mag=     4.0000
       N       E                     dE             d eps       ncg     rms          rms(c)
DAV:   1    -0.232348683627E+04    0.22012E-01   -0.63619E-01  4480   0.270E-01    0.257E-01
RMM:   2    -0.232348667306E+04    0.16322E-03   -0.25326E-03  3559   0.169E-02    0.177E-01
RMM:   3    -0.232348739796E+04   -0.72491E-03   -0.14747E-03  4401   0.115E-02    0.353E-01
RMM:   4    -0.232348654419E+04    0.85378E-03   -0.74475E-04  3662   0.103E-02    0.240E-02
RMM:   5    -0.232348653254E+04    0.11654E-04   -0.57747E-05  2778   0.413E-03    0.115E-02
RMM:   6    -0.232348653202E+04    0.51955E-06   -0.11408E-05  2367   0.176E-03
  30 F= -.23440489E+04 E0= -.23440489E+04  d E =-.137881E-16  mag=     4.0000
       N       E                     dE             d eps       ncg     rms          rms(c)
DAV:   1    -0.232350456350E+04   -0.18031E-01   -0.12568E+00  4480   0.369E-01    0.353E-01
RMM:   2    -0.232350442372E+04    0.13978E-03   -0.46459E-03  3633   0.229E-02    0.238E-01
RMM:   3    -0.232350581829E+04   -0.13946E-02   -0.27450E-03  4777   0.161E-02    0.493E-01
RMM:   4    -0.232350414454E+04    0.16738E-02   -0.14291E-03  4142   0.137E-02    0.320E-02
RMM:   5    -0.232350412671E+04    0.17830E-04   -0.96628E-05  2881   0.489E-03    0.156E-02
RMM:   6    -0.232350412345E+04    0.32603E-05   -0.12531E-05  2543   0.193E-03
  31 F= -.23440664E+04 E0= -.23440664E+04  d E =-.374016E-16  mag=     4.0000
       N       E                     dE             d eps       ncg     rms          rms(c)
DAV:   1    -0.232343908225E+04    0.65044E-01   -0.61042E-01  4640   0.282E-01    0.296E-01
RMM:   2    -0.232343838185E+04    0.70041E-03   -0.50974E-03  3681   0.234E-02    0.164E-01
RMM:   3    -0.232343829247E+04    0.89380E-04   -0.10807E-03  4089   0.113E-02    0.149E-01
RMM:   4    -0.232343822708E+04    0.65391E-04   -0.42222E-04  3309   0.744E-03    0.117E-01
RMM:   5    -0.232343813275E+04    0.94323E-04   -0.76500E-05  2800   0.453E-03    0.180E-02
RMM:   6    -0.232343813227E+04    0.48459E-06   -0.21779E-05  2685   0.227E-03
  32 F= -.23440007E+04 E0= -.23440007E+04  d E =-.852279E-17  mag=     4.0000
       N       E                     dE             d eps       ncg     rms          rms(c)
DAV:   1    -0.232354903513E+04   -0.11090E+00   -0.12106E+00  4640   0.386E-01    0.491E-01
RMM:   2    -0.232354567955E+04    0.33556E-02   -0.13543E-02  3874   0.346E-02    0.262E-01
RMM:   3    -0.232354549458E+04    0.18497E-03   -0.29403E-03  4549   0.206E-02    0.305E-01
RMM:   4    -0.232354514579E+04    0.34879E-03   -0.13560E-03  4064   0.127E-02    0.196E-01
RMM:   5    -0.232354484805E+04    0.29773E-03   -0.25706E-04  3243   0.760E-03    0.381E-02
RMM:   6    -0.232354484835E+04   -0.29329E-06   -0.58300E-05  2963   0.397E-03
  33 F= -.23441069E+04 E0= -.23441069E+04  d E =-.549984E-16  mag=     4.0000
       N       E                     dE             d eps       ncg     rms          rms(c)
DAV:   1    -0.232350056673E+04    0.44281E-01   -0.61178E-01  4720   0.282E-01    0.408E-01
RMM:   2    -0.232349782255E+04    0.27442E-02   -0.10165E-02  3845   0.305E-02    0.212E-01
RMM:   3    -0.232349773334E+04    0.89214E-04   -0.21898E-03  4202   0.177E-02    0.257E-01
RMM:   4    -0.232349747298E+04    0.26036E-03   -0.99051E-04  3829   0.110E-02    0.168E-01
RMM:   5    -0.232349725096E+04    0.22202E-03   -0.18392E-04  3130   0.651E-03    0.321E-02
RMM:   6    -0.232349724787E+04    0.30885E-05   -0.43664E-05  2794   0.347E-03
  34 F= -.23440597E+04 E0= -.23440597E+04  d E =-.292973E-16  mag=     4.0000
       N       E                     dE             d eps       ncg     rms          rms(c)
DAV:   1    -0.232348992015E+04    0.73308E-02   -0.11858E+00  4480   0.384E-01    0.413E-01
RMM:   2    -0.232348803376E+04    0.18864E-02   -0.91489E-03  3860   0.298E-02    0.227E-01
RMM:   3    -0.232348800077E+04    0.32996E-04   -0.18439E-03  4263   0.166E-02    0.236E-01
RMM:   4    -0.232348796348E+04    0.37287E-04   -0.10280E-03  3756   0.113E-02    0.204E-01
RMM:   5    -0.232348767894E+04    0.28454E-03   -0.24452E-04  3246   0.714E-03    0.367E-02
RMM:   6    -0.232348767710E+04    0.18410E-05   -0.49248E-05  2830   0.361E-03
  35 F= -.23440498E+04 E0= -.23440498E+04  d E =-.172393E-16  mag=     4.0000
       N       E                     dE             d eps       ncg     rms          rms(c)
DAV:   1    -0.232351381158E+04   -0.26133E-01   -0.59765E-01  4480   0.263E-01    0.243E-01
RMM:   2    -0.232351346518E+04    0.34640E-03   -0.28365E-03  3682   0.179E-02    0.143E-01
RMM:   3    -0.232351359283E+04   -0.12765E-03   -0.69617E-04  3667   0.944E-03    0.189E-01
RMM:   4    -0.232351342992E+04    0.16291E-03   -0.40452E-04  3088   0.762E-03    0.965E-02
RMM:   5    -0.232351337646E+04    0.53458E-04   -0.65705E-05  2910   0.439E-03    0.166E-02
RMM:   6    -0.232351337643E+04    0.29962E-07   -0.14049E-05  2578   0.223E-03
  36 F= -.23440761E+04 E0= -.23440761E+04  d E =-.584577E-16  mag=     4.0000
       N       E                     dE             d eps       ncg     rms          rms(c)
DAV:   1    -0.232347592789E+04    0.37449E-01   -0.12011E+00  4480   0.379E-01    0.288E-01
RMM:   2    -0.232347594490E+04   -0.17010E-04   -0.33004E-03  3655   0.199E-02    0.170E-01
RMM:   3    -0.232347608467E+04   -0.13978E-03   -0.87647E-04  3871   0.108E-02    0.140E-01
RMM:   4    -0.232347596849E+04    0.11618E-03   -0.22395E-04  2984   0.706E-03    0.536E-02
RMM:   5    -0.232347594911E+04    0.19382E-04   -0.29212E-05  2774   0.319E-03    0.109E-02
RMM:   6    -0.232347594900E+04    0.11000E-06   -0.81620E-06  2597   0.184E-03
  37 F= -.23440379E+04 E0= -.23440379E+04  d E =-.108033E-16  mag=     4.0000
       N       E                     dE             d eps       ncg     rms          rms(c)
DAV:   1    -0.232350652908E+04   -0.30580E-01   -0.59705E-01  4480   0.252E-01    0.217E-01
RMM:   2    -0.232350658226E+04   -0.53187E-04   -0.25152E-03  3625   0.168E-02    0.130E-01
RMM:   3    -0.232350671104E+04   -0.12878E-03   -0.54556E-04  3593   0.831E-03    0.159E-01
RMM:   4    -0.232350656766E+04    0.14338E-03   -0.24260E-04  2968   0.620E-03    0.548E-02
RMM:   5    -0.232350654959E+04    0.18068E-04   -0.23920E-05  2738   0.309E-03    0.126E-02
RMM:   6    -0.232350654966E+04   -0.67288E-07   -0.61131E-06  2528   0.160E-03
  38 F= -.23440693E+04 E0= -.23440693E+04  d E =-.382637E-16  mag=     4.0000
       N       E                     dE             d eps       ncg     rms          rms(c)
DAV:   1    -0.232348288049E+04    0.23669E-01   -0.11924E+00  4480   0.305E-01    0.342E-01
RMM:   2    -0.232348250181E+04    0.37868E-03   -0.52979E-03  3885   0.212E-02    0.200E-01
RMM:   3    -0.232348267744E+04   -0.17563E-03   -0.12669E-03  4105   0.134E-02    0.218E-01
RMM:   4    -0.232348247204E+04    0.20539E-03   -0.58810E-04  3379   0.880E-03    0.113E-01
RMM:   5    -0.232348238565E+04    0.86397E-04   -0.89107E-05  2907   0.495E-03    0.245E-02
RMM:   6    -0.232348238547E+04    0.17841E-06   -0.21636E-05  2710   0.234E-03
  39 F= -.23440442E+04 E0= -.23440442E+04  d E =-.137550E-16  mag=     4.0000
       N       E                     dE             d eps       ncg     rms          rms(c)
DAV:   1    -0.232343929816E+04    0.43087E-01   -0.59963E-01  4480   0.210E-01    0.218E-01
RMM:   2    -0.232343931147E+04   -0.13306E-04   -0.15439E-03  3501   0.122E-02    0.129E-01
RMM:   3    -0.232343933739E+04   -0.25927E-04   -0.46751E-04  3375   0.701E-03    0.462E-02
RMM:   4    -0.232343933596E+04    0.14298E-05   -0.67986E-05  2670   0.474E-03
  40 F= -.23440015E+04 E0= -.23440015E+04  d E =-.221597E-16  mag=     4.0000
       N       E                     dE             d eps       ncg     rms          rms(c)
DAV:   1    -0.232354722712E+04   -0.10789E+00   -0.12120E+00  4480   0.300E-01    0.372E-01
RMM:   2    -0.232354633112E+04    0.89600E-03   -0.64334E-03  3913   0.235E-02    0.213E-01
RMM:   3    -0.232354653049E+04   -0.19936E-03   -0.16428E-03  4331   0.150E-02    0.267E-01
RMM:   4    -0.232354619698E+04    0.33351E-03   -0.84012E-04  3660   0.103E-02    0.130E-01
RMM:   5    -0.232354608700E+04    0.10998E-03   -0.12898E-04  3032   0.567E-03    0.227E-02
RMM:   6    -0.232354608701E+04   -0.61409E-08   -0.30439E-05  2823   0.292E-03
  41 F= -.23441085E+04 E0= -.23441085E+04  d E =-.301853E-16  mag=     4.0000
       N       E                     dE             d eps       ncg     rms          rms(c)
DAV:   1    -0.232343591789E+04    0.11017E+00   -0.58003E-01  4480   0.212E-01    0.235E-01
RMM:   2    -0.232343562129E+04    0.29660E-03   -0.24799E-03  3657   0.150E-02    0.142E-01
RMM:   3    -0.232343602130E+04   -0.40002E-03   -0.95273E-04  3752   0.101E-02    0.272E-01
RMM:   4    -0.232343553647E+04    0.48483E-03   -0.51118E-04  3325   0.854E-03    0.556E-02
RMM:   5    -0.232343552239E+04    0.14079E-04   -0.46927E-05  2851   0.384E-03    0.131E-02
RMM:   6    -0.232343552340E+04   -0.10129E-05   -0.86507E-06  2638   0.202E-03
  42 F= -.23439981E+04 E0= -.23439981E+04  d E =-.251145E-16  mag=     4.0000
       N       E                     dE             d eps       ncg     rms          rms(c)
DAV:   1    -0.232354938123E+04   -0.11386E+00   -0.12153E+00  4800   0.318E-01    0.537E-01
RMM:   2    -0.232354511960E+04    0.42616E-02   -0.15963E-02  4164   0.364E-02    0.317E-01
RMM:   3    -0.232354659901E+04   -0.14794E-02   -0.55336E-03  4745   0.299E-02    0.586E-01
RMM:   4    -0.232354425637E+04    0.23426E-02   -0.27132E-03  4634   0.184E-02    0.145E-01
RMM:   5    -0.232354410069E+04    0.15568E-03   -0.27232E-04  3204   0.733E-03    0.352E-02
RMM:   6    -0.232354410558E+04   -0.48928E-05   -0.68180E-05  2935   0.422E-03
  43 F= -.23441061E+04 E0= -.23441061E+04  d E =-.190423E-16  mag=     4.0000
       N       E                     dE             d eps       ncg     rms          rms(c)
DAV:   1    -0.232345268088E+04    0.91420E-01   -0.56294E-01  4480   0.260E-01    0.321E-01
RMM:   2    -0.232345217596E+04    0.50493E-03   -0.67996E-03  4315   0.267E-02    0.365E-01
RMM:   3    -0.232345187602E+04    0.29994E-03   -0.23997E-03  4318   0.183E-02    0.303E-01
RMM:   4    -0.232345117034E+04    0.70567E-03   -0.77262E-04  3826   0.101E-02    0.785E-02
RMM:   5    -0.232345113614E+04    0.34199E-04   -0.11774E-04  2981   0.532E-03    0.272E-02
RMM:   6    -0.232345113381E+04    0.23327E-05   -0.26021E-05  2741   0.294E-03
  44 F= -.23440137E+04 E0= -.23440137E+04  d E =-.578666E-16  mag=     4.0000
       N       E                     dE             d eps       ncg     rms          rms(c)
DAV:   1    -0.232353899421E+04   -0.87858E-01   -0.10127E+00  4480   0.349E-01    0.307E-01
RMM:   2    -0.232354037084E+04   -0.13766E-02   -0.77698E-03  4462   0.297E-02    0.542E-01
RMM:   3    -0.232353856862E+04    0.18022E-02   -0.24118E-03  4400   0.196E-02    0.191E-01
RMM:   4    -0.232353828430E+04    0.28432E-03   -0.57885E-04  3987   0.845E-03    0.707E-02
RMM:   5    -0.232353827966E+04    0.46398E-05   -0.90171E-05  3014   0.537E-03
  45 F= -.23441004E+04 E0= -.23441004E+04  d E =-.985643E-17  mag=     4.0000
       N       E                     dE             d eps       ncg     rms          rms(c)
DAV:   1    -0.232351400177E+04    0.24283E-01   -0.51424E-01  4480   0.255E-01    0.212E-01
RMM:   2    -0.232351541270E+04   -0.14109E-02   -0.45496E-03  4212   0.231E-02    0.469E-01
RMM:   3    -0.232351386927E+04    0.15434E-02   -0.12593E-03  4086   0.129E-02    0.990E-02
RMM:   4    -0.232351377524E+04    0.94038E-04   -0.26974E-04  3423   0.584E-03    0.303E-02
RMM:   5    -0.232351377775E+04   -0.25141E-05   -0.37016E-05  2825   0.376E-03
  46 F= -.23440764E+04 E0= -.23440764E+04  d E =-.483296E-16  mag=     4.0000
       N       E                     dE             d eps       ncg     rms          rms(c)
DAV:   1    -0.232347827735E+04    0.35498E-01   -0.10111E+00  4480   0.349E-01    0.189E-01
RMM:   2    -0.232347936114E+04   -0.10838E-02   -0.36937E-03  3948   0.225E-02    0.369E-01
RMM:   3    -0.232347841032E+04    0.95082E-03   -0.81600E-04  3852   0.107E-02    0.101E-01
RMM:   4    -0.232347840496E+04    0.53621E-05   -0.22311E-04  3240   0.592E-03    0.490E-02
RMM:   5    -0.232347840103E+04    0.39287E-05   -0.43849E-05  2896   0.418E-03
  47 F= -.23440404E+04 E0= -.23440404E+04  d E =-.175878E-16  mag=     4.0000
       N       E                     dE             d eps       ncg     rms          rms(c)
DAV:   1    -0.232349012456E+04   -0.11720E-01   -0.50303E-01  4480   0.249E-01    0.193E-01
RMM:   2    -0.232349129911E+04   -0.11745E-02   -0.43357E-03  4444   0.228E-02    0.419E-01
RMM:   3    -0.232348998224E+04    0.13169E-02   -0.11111E-03  3983   0.129E-02    0.105E-01
RMM:   4    -0.232348990326E+04    0.78982E-04   -0.21235E-04  3213   0.588E-03    0.490E-02
RMM:   5    -0.232348988103E+04    0.22232E-04   -0.56006E-05  2969   0.443E-03    0.226E-02
RMM:   6    -0.232348987698E+04    0.40417E-05   -0.10141E-05  2816   0.267E-03
  48 F= -.23440525E+04 E0= -.23440525E+04  d E =-.145300E-16  mag=     4.0000
       N       E                     dE             d eps       ncg     rms          rms(c)
DAV:   1    -0.232350809236E+04   -0.18211E-01   -0.10155E+00  4480   0.352E-01    0.268E-01
RMM:   2    -0.232350960464E+04   -0.15123E-02   -0.86017E-03  4795   0.308E-02    0.501E-01
RMM:   3    -0.232350780761E+04    0.17970E-02   -0.20751E-03  4415   0.176E-02    0.183E-01
RMM:   4    -0.232350756422E+04    0.24339E-03   -0.44903E-04  3647   0.818E-03    0.628E-02
RMM:   5    -0.232350753658E+04    0.27640E-04   -0.11969E-04  3078   0.648E-03    0.343E-02
RMM:   6    -0.232350752762E+04    0.89623E-05   -0.24180E-05  2976   0.360E-03
  49 F= -.23440696E+04 E0= -.23440696E+04  d E =-.714977E-16  mag=     4.0000
