       N       E                     dE             d eps       ncg     rms          rms(c)
DAV:   1     0.127243090817E+05    0.12724E+05   -0.82430E+05  4408   0.143E+03
DAV:   2    -0.105164880565E+04   -0.13776E+05   -0.13190E+05  5280   0.330E+02
DAV:   3    -0.246227291788E+04   -0.14106E+04   -0.13977E+04  5352   0.111E+02
DAV:   4    -0.250758203384E+04   -0.45309E+02   -0.45101E+02  6648   0.296E+01
DAV:   5    -0.250840948473E+04   -0.82745E+00   -0.82614E+00  5544   0.321E+00    0.170E+02
RMM:   6    -0.147046515193E+04    0.10379E+04   -0.19270E+03  4373   0.386E+01    0.723E+01
RMM:   7    -0.164152807063E+04   -0.17106E+03   -0.28003E+02  4937   0.141E+01    0.477E+01
RMM:   8    -0.169563464340E+04   -0.54107E+02   -0.38603E+01  5177   0.675E+00    0.374E+01
RMM:   9    -0.181665269378E+04   -0.12102E+03   -0.68520E+01  4973   0.789E+00    0.353E+01
RMM:  10    -0.191635029586E+04   -0.99698E+02   -0.49335E+01  5245   0.657E+00    0.201E+01
RMM:  11    -0.202500107332E+04   -0.10865E+03   -0.45287E+01  4893   0.535E+00    0.157E+01
RMM:  12    -0.212646019538E+04   -0.10146E+03   -0.54809E+01  4519   0.565E+00    0.113E+01
RMM:  13    -0.224228574962E+04   -0.11583E+03   -0.99995E+01  4435   0.709E+00    0.740E+00
RMM:  14    -0.228798199665E+04   -0.45696E+02   -0.47076E+01  4482   0.523E+00    0.554E+00
RMM:  15    -0.229597744277E+04   -0.79954E+01   -0.11636E+01  5090   0.263E+00    0.527E+00
RMM:  16    -0.229628588875E+04   -0.30845E+00   -0.15177E+00  5997   0.704E-01    0.485E+00
RMM:  17    -0.229778534781E+04   -0.14995E+01   -0.10558E+00  4375   0.688E-01    0.393E+00
RMM:  18    -0.230056475925E+04   -0.27794E+01   -0.22542E+00  4483   0.951E-01    0.277E+00
RMM:  19    -0.230113759562E+04   -0.57284E+00   -0.41014E-01  4591   0.555E-01    0.140E+00
RMM:  20    -0.230132653633E+04   -0.18894E+00   -0.12944E-01  4699   0.249E-01    0.703E-01
RMM:  21    -0.230155038766E+04   -0.22385E+00   -0.10957E-01  4385   0.211E-01    0.679E-01
RMM:  22    -0.230158544494E+04   -0.35057E-01   -0.39357E-02  4796   0.146E-01    0.202E-01
RMM:  23    -0.230161566086E+04   -0.30216E-01   -0.85627E-03  4555   0.804E-02    0.143E-01
RMM:  24    -0.230165092350E+04   -0.35263E-01   -0.86192E-03  4361   0.650E-02    0.134E-01
RMM:  25    -0.230166310906E+04   -0.12186E-01   -0.37870E-03  4495   0.427E-02    0.806E-02
RMM:  26    -0.230166822549E+04   -0.51164E-02   -0.17311E-03  4953   0.321E-02    0.608E-02
RMM:  27    -0.230167050483E+04   -0.22793E-02   -0.53561E-04  4229   0.171E-02    0.275E-02
RMM:  28    -0.230167203686E+04   -0.15320E-02   -0.32631E-04  3875   0.118E-02    0.143E-02
RMM:  29    -0.230167245818E+04   -0.42132E-03   -0.11565E-04  3742   0.905E-03    0.105E-02
RMM:  30    -0.230167256958E+04   -0.11140E-03   -0.34796E-05  3254   0.503E-03    0.646E-03
RMM:  31    -0.230167263099E+04   -0.61406E-04   -0.15177E-05  2913   0.410E-03    0.280E-03
RMM:  32    -0.230167265357E+04   -0.22580E-04   -0.76494E-06  2803   0.309E-03    0.176E-03
RMM:  33    -0.230167266224E+04   -0.86692E-05   -0.38950E-06  2656   0.245E-03
   1 F= -.23220191E+04 E0= -.23220191E+04  d E =-.232202E+04  mag=     2.0000
       N       E                     dE             d eps       ncg     rms          rms(c)
DAV:   1    -0.230167386943E+04   -0.12159E-02   -0.40108E+00  5088   0.147E+00    0.706E-01
RMM:   2    -0.230176733205E+04   -0.93463E-01   -0.81255E-01  5889   0.371E-01    0.151E+00
RMM:   3    -0.230175425472E+04    0.13077E-01   -0.89804E-02  5406   0.156E-01    0.400E-01
RMM:   4    -0.230175296859E+04    0.12861E-02   -0.98521E-03  5046   0.336E-02    0.208E-01
RMM:   5    -0.230175229769E+04    0.67089E-03   -0.16619E-03  5292   0.222E-02    0.143E-01
RMM:   6    -0.230175203950E+04    0.25820E-03   -0.71230E-04  4975   0.154E-02    0.586E-02
RMM:   7    -0.230175198109E+04    0.58411E-04   -0.11266E-04  3426   0.795E-03    0.276E-02
RMM:   8    -0.230175196299E+04    0.18093E-04   -0.30145E-05  2907   0.468E-03    0.959E-03
RMM:   9    -0.230175195824E+04    0.47537E-05   -0.16872E-05  2844   0.395E-03
   2 F= -.23220985E+04 E0= -.23220985E+04  d E =-.794070E-01  mag=     2.0000
       N       E                     dE             d eps       ncg     rms          rms(c)
DAV:   1    -0.230163512161E+04    0.11684E+00   -0.78817E+00  4592   0.206E+00    0.987E-01
RMM:   2    -0.230182103574E+04   -0.18591E+00   -0.15875E+00  5891   0.513E-01    0.223E+00
RMM:   3    -0.230179331975E+04    0.27716E-01   -0.17700E-01  5457   0.220E-01    0.549E-01
RMM:   4    -0.230179106806E+04    0.22517E-02   -0.19246E-02  5033   0.461E-02    0.298E-01
RMM:   5    -0.230178972775E+04    0.13403E-02   -0.38342E-03  5495   0.330E-02    0.214E-01
RMM:   6    -0.230178920668E+04    0.52107E-03   -0.12333E-03  5149   0.198E-02    0.791E-02
RMM:   7    -0.230178910511E+04    0.10157E-03   -0.21360E-04  3953   0.964E-03    0.473E-02
RMM:   8    -0.230178906801E+04    0.37102E-04   -0.61231E-05  3109   0.599E-03    0.143E-02
RMM:   9    -0.230178906134E+04    0.66745E-05   -0.33702E-05  2979   0.507E-03
   3 F= -.23221362E+04 E0= -.23221362E+04  d E =-.117063E+00  mag=     2.0000
       N       E                     dE             d eps       ncg     rms          rms(c)
DAV:   1    -0.230178871169E+04    0.35632E-03   -0.36424E+00  4560   0.183E+00    0.929E-01
RMM:   2    -0.230186844323E+04   -0.79732E-01   -0.51497E-01  5834   0.423E-01    0.219E+00
RMM:   3    -0.230182815830E+04    0.40285E-01   -0.44947E-02  5575   0.138E-01    0.354E-01
RMM:   4    -0.230182624113E+04    0.19172E-02   -0.69354E-03  4624   0.429E-02    0.185E-01
RMM:   5    -0.230182571311E+04    0.52802E-03   -0.21318E-03  5475   0.347E-02    0.127E-01
RMM:   6    -0.230182554247E+04    0.17064E-03   -0.59499E-04  5412   0.171E-02    0.435E-02
RMM:   7    -0.230182551623E+04    0.26242E-04   -0.11459E-04  3317   0.775E-03    0.303E-02
RMM:   8    -0.230182549826E+04    0.17969E-04   -0.37542E-05  3147   0.561E-03    0.729E-03
RMM:   9    -0.230182549610E+04    0.21661E-05   -0.96678E-06  2820   0.432E-03
   4 F= -.23221731E+04 E0= -.23221731E+04  d E =-.369069E-01  mag=     2.0000
       N       E                     dE             d eps       ncg     rms          rms(c)
DAV:   1    -0.230182532802E+04    0.17024E-03   -0.58173E-02  5372   0.234E-01    0.117E-01
RMM:   2    -0.230182662380E+04   -0.12958E-02   -0.83363E-03  5911   0.551E-02    0.285E-01
RMM:   3    -0.230182595996E+04    0.66384E-03   -0.75190E-04  3841   0.181E-02    0.442E-02
RMM:   4    -0.230182592686E+04    0.33098E-04   -0.11291E-04  3200   0.630E-03    0.244E-02
RMM:   5    -0.230182591661E+04    0.10252E-04   -0.35098E-05  3078   0.547E-03    0.155E-02
RMM:   6    -0.230182591371E+04    0.29037E-05   -0.16469E-05  2828   0.488E-03
   5 F= -.23221735E+04 E0= -.23221735E+04  d E =-.373825E-01  mag=     2.0000
       N       E                     dE             d eps       ncg     rms          rms(c)
DAV:   1    -0.230183315178E+04   -0.72352E-02   -0.98908E-01  4496   0.722E-01    0.374E-01
RMM:   2    -0.230185812758E+04   -0.24976E-01   -0.21971E-01  6216   0.205E-01    0.757E-01
RMM:   3    -0.230185458606E+04    0.35415E-02   -0.23049E-02  5508   0.690E-02    0.199E-01
RMM:   4    -0.230185430480E+04    0.28126E-03   -0.23379E-03  4535   0.182E-02    0.104E-01
RMM:   5    -0.230185418238E+04    0.12242E-03   -0.55442E-04  4637   0.144E-02    0.746E-02
RMM:   6    -0.230185414290E+04    0.39482E-04   -0.15544E-04  3206   0.902E-03    0.170E-02
RMM:   7    -0.230185414020E+04    0.26988E-05   -0.21227E-05  2852   0.464E-03
   6 F= -.23222017E+04 E0= -.23222017E+04  d E =-.281717E-01  mag=     2.0000
       N       E                     dE             d eps       ncg     rms          rms(c)
DAV:   1    -0.230179660914E+04    0.57534E-01   -0.38731E+00  4448   0.143E+00    0.732E-01
RMM:   2    -0.230189348427E+04   -0.96875E-01   -0.87117E-01  6159   0.401E-01    0.139E+00
RMM:   3    -0.230188169778E+04    0.11786E-01   -0.88640E-02  5752   0.136E-01    0.394E-01
RMM:   4    -0.230188058520E+04    0.11126E-02   -0.89196E-03  4867   0.351E-02    0.203E-01
RMM:   5    -0.230188009022E+04    0.49498E-03   -0.20854E-03  5282   0.274E-02    0.145E-01
RMM:   6    -0.230187994275E+04    0.14747E-03   -0.54613E-04  4623   0.153E-02    0.335E-02
RMM:   7    -0.230187993467E+04    0.80851E-05   -0.61131E-05  2944   0.584E-03
   7 F= -.23222274E+04 E0= -.23222274E+04  d E =-.538506E-01  mag=     2.0000
       N       E                     dE             d eps       ncg     rms          rms(c)
DAV:   1    -0.230189396862E+04   -0.14026E-01   -0.12451E+00  4480   0.962E-01    0.389E-01
RMM:   2    -0.230190439471E+04   -0.10426E-01   -0.11621E-01  5757   0.200E-01    0.205E-01
RMM:   3    -0.230190521513E+04   -0.82042E-03   -0.10990E-02  5341   0.715E-02    0.299E-01
RMM:   4    -0.230190453879E+04    0.67635E-03   -0.15088E-03  4745   0.199E-02    0.144E-01
RMM:   5    -0.230190433740E+04    0.20139E-03   -0.62031E-04  4755   0.166E-02    0.461E-02
RMM:   6    -0.230190432505E+04    0.12352E-04   -0.93823E-05  3479   0.962E-03    0.214E-02
RMM:   7    -0.230190432165E+04    0.33937E-05   -0.20384E-05  2908   0.404E-03
   8 F= -.23222511E+04 E0= -.23222511E+04  d E =-.236836E-01  mag=     2.0000
       N       E                     dE             d eps       ncg     rms          rms(c)
DAV:   1    -0.230189827023E+04    0.60548E-02   -0.21970E+00  4432   0.128E+00    0.514E-01
RMM:   2    -0.230191659426E+04   -0.18324E-01   -0.20319E-01  5745   0.266E-01    0.286E-01
RMM:   3    -0.230191854038E+04   -0.19461E-02   -0.21888E-02  5405   0.977E-02    0.442E-01
RMM:   4    -0.230191692816E+04    0.16122E-02   -0.26931E-03  5131   0.271E-02    0.178E-01
RMM:   5    -0.230191659444E+04    0.33372E-03   -0.11292E-03  4943   0.220E-02    0.584E-02
RMM:   6    -0.230191656629E+04    0.28154E-04   -0.15844E-04  4129   0.121E-02    0.286E-02
RMM:   7    -0.230191655799E+04    0.82974E-05   -0.39125E-05  3165   0.475E-03
   9 F= -.23222624E+04 E0= -.23222624E+04  d E =-.349840E-01  mag=     2.0000
       N       E                     dE             d eps       ncg     rms          rms(c)
DAV:   1    -0.230192628681E+04   -0.97205E-02   -0.13194E+00  4464   0.956E-01    0.424E-01
RMM:   2    -0.230193777207E+04   -0.11485E-01   -0.10761E-01  5842   0.213E-01    0.587E-01
RMM:   3    -0.230193570566E+04    0.20664E-02   -0.96990E-03  5620   0.663E-02    0.353E-01
RMM:   4    -0.230193448829E+04    0.12174E-02   -0.19328E-03  4917   0.242E-02    0.113E-01
RMM:   5    -0.230193431350E+04    0.17479E-03   -0.72546E-04  5230   0.178E-02    0.443E-02
RMM:   6    -0.230193428361E+04    0.29891E-04   -0.11423E-04  4354   0.943E-03    0.185E-02
RMM:   7    -0.230193427799E+04    0.56227E-05   -0.23522E-05  2952   0.469E-03
  10 F= -.23222790E+04 E0= -.23222790E+04  d E =-.166132E-01  mag=     2.0000
       N       E                     dE             d eps       ncg     rms          rms(c)
DAV:   1    -0.230193466989E+04   -0.38628E-03   -0.50405E-01  4464   0.595E-01    0.261E-01
RMM:   2    -0.230193909343E+04   -0.44235E-02   -0.41012E-02  5841   0.134E-01    0.368E-01
RMM:   3    -0.230193824930E+04    0.84413E-03   -0.39501E-03  5355   0.435E-02    0.209E-01
RMM:   4    -0.230193781633E+04    0.43297E-03   -0.75443E-04  4486   0.153E-02    0.709E-02
RMM:   5    -0.230193773996E+04    0.76372E-04   -0.27849E-04  4604   0.117E-02    0.274E-02
RMM:   6    -0.230193772549E+04    0.14468E-04   -0.48123E-05  3393   0.749E-03    0.116E-02
RMM:   7    -0.230193772263E+04    0.28632E-05   -0.13619E-05  2841   0.434E-03
  11 F= -.23222817E+04 E0= -.23222817E+04  d E =-.193710E-01  mag=     2.0000
       N       E                     dE             d eps       ncg     rms          rms(c)
DAV:   1    -0.230194507650E+04   -0.73510E-02   -0.60995E-01  4432   0.661E-01    0.282E-01
RMM:   2    -0.230195161427E+04   -0.65378E-02   -0.74497E-02  5888   0.161E-01    0.212E-01
RMM:   3    -0.230195235549E+04   -0.74122E-03   -0.64555E-03  5419   0.501E-02    0.338E-01
RMM:   4    -0.230195143949E+04    0.91600E-03   -0.98153E-04  4771   0.175E-02    0.954E-02
RMM:   5    -0.230195134342E+04    0.96068E-04   -0.43466E-04  4735   0.157E-02    0.395E-02
RMM:   6    -0.230195133478E+04    0.86435E-05   -0.54812E-05  3225   0.874E-03
  12 F= -.23222947E+04 E0= -.23222947E+04  d E =-.129995E-01  mag=     2.0000
       N       E                     dE             d eps       ncg     rms          rms(c)
DAV:   1    -0.230195005346E+04    0.12900E-02   -0.48201E-01  4432   0.592E-01    0.252E-01
RMM:   2    -0.230195526866E+04   -0.52152E-02   -0.59333E-02  5832   0.145E-01    0.201E-01
RMM:   3    -0.230195600090E+04   -0.73224E-03   -0.66215E-03  5368   0.458E-02    0.312E-01
RMM:   4    -0.230195522633E+04    0.77457E-03   -0.85119E-04  4603   0.162E-02    0.852E-02
RMM:   5    -0.230195514650E+04    0.79830E-04   -0.39821E-04  4661   0.149E-02    0.311E-02
RMM:   6    -0.230195513351E+04    0.12991E-04   -0.49704E-05  3151   0.839E-03    0.131E-02
RMM:   7    -0.230195513161E+04    0.18940E-05   -0.15600E-05  2883   0.377E-03
  13 F= -.23222980E+04 E0= -.23222980E+04  d E =-.162415E-01  mag=     2.0000
       N       E                     dE             d eps       ncg     rms          rms(c)
DAV:   1    -0.230196328736E+04   -0.81539E-02   -0.82171E-01  4432   0.794E-01    0.317E-01
RMM:   2    -0.230196701740E+04   -0.37300E-02   -0.33206E-02  5627   0.149E-01    0.434E-01
RMM:   3    -0.230196607275E+04    0.94465E-03   -0.43315E-03  5399   0.532E-02    0.260E-01
RMM:   4    -0.230196545349E+04    0.61925E-03   -0.62366E-04  4707   0.172E-02    0.729E-02
RMM:   5    -0.230196539845E+04    0.55040E-04   -0.27430E-04  4775   0.140E-02    0.292E-02
RMM:   6    -0.230196538804E+04    0.10415E-04   -0.62544E-05  3368   0.731E-03    0.967E-03
RMM:   7    -0.230196538756E+04    0.48381E-06   -0.11379E-05  2848   0.471E-03
  14 F= -.23223078E+04 E0= -.23223078E+04  d E =-.983231E-02  mag=     2.0000
       N       E                     dE             d eps       ncg     rms          rms(c)
DAV:   1    -0.230196646844E+04   -0.10804E-02   -0.30399E-01  4496   0.484E-01    0.192E-01
RMM:   2    -0.230196779428E+04   -0.13258E-02   -0.12378E-02  5615   0.910E-02    0.246E-01
RMM:   3    -0.230196753908E+04    0.25520E-03   -0.14593E-03  4955   0.318E-02    0.168E-01
RMM:   4    -0.230196728404E+04    0.25504E-03   -0.24577E-04  4260   0.109E-02    0.448E-02
RMM:   5    -0.230196726205E+04    0.21993E-04   -0.10718E-04  4050   0.894E-03    0.175E-02
RMM:   6    -0.230196725806E+04    0.39953E-05   -0.23760E-05  2868   0.567E-03
  15 F= -.23223094E+04 E0= -.23223094E+04  d E =-.114370E-01  mag=     2.0000
       N       E                     dE             d eps       ncg     rms          rms(c)
DAV:   1    -0.230196957571E+04   -0.23137E-02   -0.85670E-01  4432   0.887E-01    0.349E-01
RMM:   2    -0.230197330510E+04   -0.37294E-02   -0.46043E-02  5568   0.174E-01    0.158E-01
RMM:   3    -0.230197300436E+04    0.30074E-03   -0.30313E-03  4675   0.598E-02    0.961E-02
RMM:   4    -0.230197309650E+04   -0.92143E-04   -0.11855E-03  5056   0.254E-02    0.171E-01
RMM:   5    -0.230197287154E+04    0.22496E-03   -0.34302E-04  4678   0.165E-02    0.469E-02
RMM:   6    -0.230197284402E+04    0.27522E-04   -0.39603E-05  3060   0.470E-03    0.189E-02
RMM:   7    -0.230197283534E+04    0.86766E-05   -0.17027E-05  2883   0.416E-03
  16 F= -.23223143E+04 E0= -.23223143E+04  d E =-.489507E-02  mag=     2.0000
       N       E                     dE             d eps       ncg     rms          rms(c)
DAV:   1    -0.230197280050E+04    0.43521E-04   -0.15621E-02  4848   0.120E-01    0.478E-02
RMM:   2    -0.230197287122E+04   -0.70720E-04   -0.84810E-04  5528   0.251E-02    0.212E-02
RMM:   3    -0.230197286794E+04    0.32840E-05   -0.58117E-05  2980   0.951E-03
  17 F= -.23223144E+04 E0= -.23223144E+04  d E =-.502058E-02  mag=     2.0000
       N       E                     dE             d eps       ncg     rms          rms(c)
DAV:   1    -0.230196933010E+04    0.35411E-02   -0.38924E-01  4432   0.541E-01    0.281E-01
RMM:   2    -0.230198120329E+04   -0.11873E-01   -0.84465E-02  6072   0.143E-01    0.756E-01
RMM:   3    -0.230197655096E+04    0.46523E-02   -0.75611E-03  5360   0.435E-02    0.979E-02
RMM:   4    -0.230197649281E+04    0.58143E-04   -0.10186E-03  4069   0.120E-02    0.544E-02
RMM:   5    -0.230197645754E+04    0.35279E-04   -0.10790E-04  3630   0.820E-03    0.504E-02
RMM:   6    -0.230197643307E+04    0.24462E-04   -0.70926E-05  3344   0.743E-03    0.110E-02
RMM:   7    -0.230197643217E+04    0.90746E-06   -0.14855E-05  2842   0.502E-03
  18 F= -.23223173E+04 E0= -.23223173E+04  d E =-.282164E-02  mag=     2.0000
       N       E                     dE             d eps       ncg     rms          rms(c)
DAV:   1    -0.230197178785E+04    0.46452E-02   -0.30660E-01  4432   0.479E-01    0.242E-01
RMM:   2    -0.230198065236E+04   -0.88645E-02   -0.66557E-02  6068   0.126E-01    0.618E-01
RMM:   3    -0.230197759658E+04    0.30558E-02   -0.57985E-03  5138   0.395E-02    0.905E-02
RMM:   4    -0.230197754638E+04    0.50202E-04   -0.79164E-04  3796   0.107E-02    0.492E-02
RMM:   5    -0.230197751544E+04    0.30937E-04   -0.84151E-05  3404   0.735E-03    0.455E-02
RMM:   6    -0.230197749453E+04    0.20911E-04   -0.58823E-05  3145   0.707E-03    0.988E-03
RMM:   7    -0.230197749358E+04    0.94426E-06   -0.12706E-05  2839   0.474E-03
  19 F= -.23223177E+04 E0= -.23223177E+04  d E =-.322311E-02  mag=     2.0000
       N       E                     dE             d eps       ncg     rms          rms(c)
DAV:   1    -0.230197536600E+04    0.21285E-02   -0.21078E-01  4464   0.386E-01    0.198E-01
RMM:   2    -0.230198206653E+04   -0.67005E-02   -0.49283E-02  6185   0.103E-01    0.547E-01
RMM:   3    -0.230197963587E+04    0.24307E-02   -0.41883E-03  4825   0.320E-02    0.670E-02
RMM:   4    -0.230197962403E+04    0.11839E-04   -0.56004E-04  3097   0.834E-03    0.393E-02
RMM:   5    -0.230197961066E+04    0.13370E-04   -0.52944E-05  2965   0.541E-03    0.407E-02
RMM:   6    -0.230197959664E+04    0.14022E-04   -0.38394E-05  2883   0.572E-03    0.620E-03
RMM:   7    -0.230197959685E+04   -0.20934E-06   -0.80023E-06  2831   0.357E-03
  20 F= -.23223193E+04 E0= -.23223193E+04  d E =-.159334E-02  mag=     2.0000
       N       E                     dE             d eps       ncg     rms          rms(c)
DAV:   1    -0.230197177524E+04    0.78214E-02   -0.46799E-01  4432   0.575E-01    0.294E-01
RMM:   2    -0.230198650007E+04   -0.14725E-01   -0.10882E-01  6198   0.153E-01    0.806E-01
RMM:   3    -0.230198125855E+04    0.52415E-02   -0.92433E-03  5390   0.468E-02    0.995E-02
RMM:   4    -0.230198123293E+04    0.25617E-04   -0.12226E-03  3707   0.117E-02    0.584E-02
RMM:   5    -0.230198120091E+04    0.32024E-04   -0.11507E-04  3360   0.772E-03    0.596E-02
RMM:   6    -0.230198117076E+04    0.30153E-04   -0.84319E-05  3180   0.753E-03    0.860E-03
RMM:   7    -0.230198117060E+04    0.16016E-06   -0.14046E-05  2846   0.458E-03
  21 F= -.23223201E+04 E0= -.23223201E+04  d E =-.240774E-02  mag=     2.0000
       N       E                     dE             d eps       ncg     rms          rms(c)
DAV:   1    -0.230198166845E+04   -0.49769E-03   -0.48151E-02  4464   0.212E-01    0.849E-02
RMM:   2    -0.230198235696E+04   -0.68851E-03   -0.75177E-03  5823   0.489E-02    0.581E-02
RMM:   3    -0.230198243011E+04   -0.73144E-04   -0.67023E-04  3522   0.180E-02    0.884E-02
RMM:   4    -0.230198237249E+04    0.57619E-04   -0.95462E-05  2915   0.596E-03    0.245E-02
RMM:   5    -0.230198236739E+04    0.50979E-05   -0.27338E-05  2848   0.448E-03
  22 F= -.23223212E+04 E0= -.23223212E+04  d E =-.109269E-02  mag=     2.0000
       N       E                     dE             d eps       ncg     rms          rms(c)
DAV:   1    -0.230198177760E+04    0.59489E-03   -0.83361E-02  4432   0.279E-01    0.111E-01
RMM:   2    -0.230198293945E+04   -0.11619E-02   -0.12963E-02  5983   0.653E-02    0.556E-02
RMM:   3    -0.230198300989E+04   -0.70437E-04   -0.11620E-03  3899   0.230E-02    0.578E-02
RMM:   4    -0.230198300719E+04    0.26958E-05   -0.14623E-04  2925   0.635E-03    0.445E-02
RMM:   5    -0.230198299275E+04    0.14441E-04   -0.47428E-05  2890   0.555E-03    0.307E-02
RMM:   6    -0.230198298420E+04    0.85527E-05   -0.18398E-05  2882   0.471E-03
  23 F= -.23223217E+04 E0= -.23223217E+04  d E =-.157248E-02  mag=     2.0000
       N       E                     dE             d eps       ncg     rms          rms(c)
DAV:   1    -0.230198307088E+04   -0.78128E-04   -0.67959E-02  4432   0.240E-01    0.914E-02
RMM:   2    -0.230198383411E+04   -0.76323E-03   -0.83066E-03  5903   0.518E-02    0.623E-02
RMM:   3    -0.230198395383E+04   -0.11972E-03   -0.80312E-04  3719   0.188E-02    0.107E-01
RMM:   4    -0.230198385353E+04    0.10030E-03   -0.10995E-04  2928   0.664E-03    0.250E-02
RMM:   5    -0.230198384820E+04    0.53304E-05   -0.37994E-05  2949   0.460E-03
  24 F= -.23223224E+04 E0= -.23223224E+04  d E =-.785422E-03  mag=     2.0000
       N       E                     dE             d eps       ncg     rms          rms(c)
DAV:   1    -0.230198354953E+04    0.30399E-03   -0.47185E-02  4432   0.200E-01    0.765E-02
RMM:   2    -0.230198408346E+04   -0.53393E-03   -0.58230E-03  6017   0.439E-02    0.507E-02
RMM:   3    -0.230198417159E+04   -0.88130E-04   -0.59381E-04  3384   0.153E-02    0.910E-02
RMM:   4    -0.230198409909E+04    0.72504E-04   -0.76718E-05  2881   0.585E-03    0.211E-02
RMM:   5    -0.230198409482E+04    0.42681E-05   -0.29750E-05  2904   0.392E-03
  25 F= -.23223226E+04 E0= -.23223226E+04  d E =-.966540E-03  mag=     2.0000
       N       E                     dE             d eps       ncg     rms          rms(c)
DAV:   1    -0.230198417554E+04   -0.76459E-04   -0.76258E-02  4432   0.249E-01    0.871E-02
RMM:   2    -0.230198501277E+04   -0.83723E-03   -0.92535E-03  6142   0.543E-02    0.439E-02
RMM:   3    -0.230198506501E+04   -0.52239E-04   -0.71458E-04  3461   0.166E-02    0.537E-02
RMM:   4    -0.230198505637E+04    0.86469E-05   -0.10588E-04  2903   0.543E-03    0.318E-02
RMM:   5    -0.230198504800E+04    0.83624E-05   -0.22499E-05  2831   0.410E-03
  26 F= -.23223234E+04 E0= -.23223234E+04  d E =-.831381E-03  mag=     2.0000
       N       E                     dE             d eps       ncg     rms          rms(c)
DAV:   1    -0.230198202553E+04    0.30308E-02   -0.34213E-01  4400   0.527E-01    0.184E-01
RMM:   2    -0.230198579236E+04   -0.37668E-02   -0.41727E-02  5967   0.114E-01    0.876E-02
RMM:   3    -0.230198598218E+04   -0.18983E-03   -0.31976E-03  5020   0.362E-02    0.775E-02
RMM:   4    -0.230198601428E+04   -0.32095E-04   -0.46388E-04  3219   0.963E-03    0.793E-02
RMM:   5    -0.230198596823E+04    0.46048E-04   -0.11969E-04  3175   0.817E-03    0.442E-02
RMM:   6    -0.230198595297E+04    0.15259E-04   -0.35960E-05  3071   0.612E-03    0.180E-02
RMM:   7    -0.230198595104E+04    0.19285E-05   -0.89776E-06  2830   0.430E-03
  27 F= -.23223241E+04 E0= -.23223241E+04  d E =-.147741E-02  mag=     2.0000
       N       E                     dE             d eps       ncg     rms          rms(c)
DAV:   1    -0.230198620898E+04   -0.25601E-03   -0.27170E-02  4576   0.147E-01    0.538E-02
RMM:   2    -0.230198660231E+04   -0.39332E-03   -0.39578E-03  5973   0.335E-02    0.671E-02
RMM:   3    -0.230198660114E+04    0.11613E-05   -0.32693E-04  3017   0.107E-02    0.522E-02
RMM:   4    -0.230198658067E+04    0.20476E-04   -0.45957E-05  2866   0.413E-03    0.142E-02
RMM:   5    -0.230198657858E+04    0.20857E-05   -0.83802E-06  2814   0.220E-03
  28 F= -.23223246E+04 E0= -.23223246E+04  d E =-.538584E-03  mag=     2.0000
       N       E                     dE             d eps       ncg     rms          rms(c)
DAV:   1    -0.230198483109E+04    0.17496E-02   -0.24372E-01  4400   0.440E-01    0.160E-01
RMM:   2    -0.230198836511E+04   -0.35340E-02   -0.35785E-02  6086   0.979E-02    0.195E-01
RMM:   3    -0.230198838922E+04   -0.24108E-04   -0.28260E-03  4573   0.291E-02    0.160E-01
RMM:   4    -0.230198819540E+04    0.19381E-03   -0.39968E-04  3164   0.915E-03    0.427E-02
RMM:   5    -0.230198817536E+04    0.20040E-04   -0.68845E-05  2951   0.565E-03    0.212E-02
RMM:   6    -0.230198817256E+04    0.28058E-05   -0.24775E-05  2889   0.513E-03
  29 F= -.23223260E+04 E0= -.23223260E+04  d E =-.186668E-02  mag=     2.0000
       N       E                     dE             d eps       ncg     rms          rms(c)
DAV:   1    -0.230197669905E+04    0.11476E-01   -0.97622E-01  4392   0.881E-01    0.322E-01
RMM:   2    -0.230199090950E+04   -0.14210E-01   -0.14336E-01  5968   0.194E-01    0.401E-01
RMM:   3    -0.230199094957E+04   -0.40075E-04   -0.11265E-02  5494   0.596E-02    0.321E-01
RMM:   4    -0.230199016502E+04    0.78456E-03   -0.16139E-03  4589   0.170E-02    0.841E-02
RMM:   5    -0.230199008812E+04    0.76897E-04   -0.26739E-04  3912   0.974E-03    0.421E-02
RMM:   6    -0.230199007550E+04    0.12618E-04   -0.91613E-05  3625   0.842E-03    0.178E-02
RMM:   7    -0.230199007325E+04    0.22488E-05   -0.13042E-05  2844   0.514E-03
  30 F= -.23223273E+04 E0= -.23223273E+04  d E =-.324037E-02  mag=     2.0000
       N       E                     dE             d eps       ncg     rms          rms(c)
DAV:   1    -0.230199013842E+04   -0.62919E-04   -0.94944E-02  4496   0.277E-01    0.110E-01
RMM:   2    -0.230199188811E+04   -0.17497E-02   -0.15189E-02  6051   0.636E-02    0.219E-01
RMM:   3    -0.230199154694E+04    0.34117E-03   -0.12478E-03  3815   0.205E-02    0.592E-02
RMM:   4    -0.230199152413E+04    0.22813E-04   -0.15210E-04  2904   0.608E-03    0.271E-02
RMM:   5    -0.230199151623E+04    0.79033E-05   -0.27967E-05  2903   0.448E-03
  31 F= -.23223286E+04 E0= -.23223286E+04  d E =-.126478E-02  mag=     2.0000
       N       E                     dE             d eps       ncg     rms          rms(c)
DAV:   1    -0.230198179807E+04    0.97261E-02   -0.85059E-01  4392   0.829E-01    0.327E-01
RMM:   2    -0.230199728112E+04   -0.15483E-01   -0.13636E-01  6132   0.190E-01    0.633E-01
RMM:   3    -0.230199458759E+04    0.26935E-02   -0.10759E-02  5582   0.571E-02    0.186E-01
RMM:   4    -0.230199434787E+04    0.23972E-03   -0.13464E-03  4445   0.156E-02    0.818E-02
RMM:   5    -0.230199426188E+04    0.85981E-04   -0.23745E-04  4268   0.114E-02    0.447E-02
RMM:   6    -0.230199424749E+04    0.14393E-04   -0.80396E-05  3335   0.830E-03    0.115E-02
RMM:   7    -0.230199424586E+04    0.16354E-05   -0.13368E-05  2850   0.470E-03
  32 F= -.23223308E+04 E0= -.23223308E+04  d E =-.346333E-02  mag=     2.0000
       N       E                     dE             d eps       ncg     rms          rms(c)
DAV:   1    -0.230199229357E+04    0.19539E-02   -0.16492E-01  4480   0.365E-01    0.145E-01
RMM:   2    -0.230199536420E+04   -0.30706E-02   -0.26576E-02  6056   0.843E-02    0.290E-01
RMM:   3    -0.230199476013E+04    0.60407E-03   -0.21880E-03  4428   0.271E-02    0.775E-02
RMM:   4    -0.230199472007E+04    0.40065E-04   -0.26675E-04  3015   0.756E-03    0.360E-02
RMM:   5    -0.230199470410E+04    0.15968E-04   -0.47385E-05  3071   0.570E-03    0.222E-02
RMM:   6    -0.230199470019E+04    0.39055E-05   -0.19572E-05  2837   0.529E-03
  33 F= -.23223310E+04 E0= -.23223310E+04  d E =-.368598E-02  mag=     2.0000
       N       E                     dE             d eps       ncg     rms          rms(c)
DAV:   1    -0.230199331138E+04    0.13927E-02   -0.17955E-01  4400   0.368E-01    0.150E-01
RMM:   2    -0.230199710684E+04   -0.37955E-02   -0.31789E-02  6085   0.857E-02    0.339E-01
RMM:   3    -0.230199625578E+04    0.85106E-03   -0.25806E-03  4246   0.264E-02    0.665E-02
RMM:   4    -0.230199624034E+04    0.15440E-04   -0.32146E-04  2972   0.694E-03    0.379E-02
RMM:   5    -0.230199622781E+04    0.12525E-04   -0.48768E-05  2938   0.489E-03    0.287E-02
RMM:   6    -0.230199622316E+04    0.46551E-05   -0.19576E-05  2830   0.435E-03
  34 F= -.23223323E+04 E0= -.23223323E+04  d E =-.124569E-02  mag=     2.0000
       N       E                     dE             d eps       ncg     rms          rms(c)
DAV:   1    -0.230197314406E+04    0.23084E-01   -0.16187E+00  4392   0.110E+00    0.444E-01
RMM:   2    -0.230200668539E+04   -0.33541E-01   -0.28442E-01  6108   0.257E-01    0.985E-01
RMM:   3    -0.230199965918E+04    0.70262E-02   -0.22717E-02  5646   0.779E-02    0.205E-01
RMM:   4    -0.230199948774E+04    0.17144E-03   -0.28452E-03  4476   0.182E-02    0.114E-01
RMM:   5    -0.230199935265E+04    0.13509E-03   -0.42524E-04  4301   0.131E-02    0.821E-02
RMM:   6    -0.230199931275E+04    0.39901E-04   -0.15613E-04  3358   0.985E-03    0.128E-02
RMM:   7    -0.230199931158E+04    0.11693E-05   -0.19750E-05  2861   0.464E-03
  35 F= -.23223345E+04 E0= -.23223345E+04  d E =-.351037E-02  mag=     2.0000
       N       E                     dE             d eps       ncg     rms          rms(c)
DAV:   1    -0.230189434325E+04    0.10497E+00   -0.64915E+00  4392   0.222E+00    0.881E-01
RMM:   2    -0.230202527110E+04   -0.13093E+00   -0.11300E+00  6142   0.511E-01    0.187E+00
RMM:   3    -0.230200069935E+04    0.24572E-01   -0.89748E-02  5834   0.154E-01    0.439E-01
RMM:   4    -0.230199971277E+04    0.98658E-03   -0.11041E-02  4867   0.363E-02    0.231E-01
RMM:   5    -0.230199911236E+04    0.60040E-03   -0.16382E-03  5022   0.250E-02    0.146E-01
RMM:   6    -0.230199900293E+04    0.10944E-03   -0.52243E-04  4602   0.171E-02    0.259E-02
RMM:   7    -0.230199899704E+04    0.58857E-05   -0.65551E-05  3029   0.598E-03
  36 F= -.23223326E+04 E0= -.23223326E+04  d E =-.158601E-02  mag=     2.0000
       N       E                     dE             d eps       ncg     rms          rms(c)
DAV:   1    -0.230194798411E+04    0.51019E-01   -0.32463E+00  4392   0.157E+00    0.639E-01
RMM:   2    -0.230201942003E+04   -0.71436E-01   -0.58258E-01  6180   0.371E-01    0.151E+00
RMM:   3    -0.230200066077E+04    0.18759E-01   -0.48914E-02  5836   0.110E-01    0.270E-01
RMM:   4    -0.230200048321E+04    0.17757E-03   -0.63847E-03  4722   0.268E-02    0.162E-01
RMM:   5    -0.230200023797E+04    0.24523E-03   -0.77591E-04  4987   0.171E-02    0.132E-01
RMM:   6    -0.230200009846E+04    0.13951E-03   -0.41296E-04  4451   0.136E-02    0.207E-02
RMM:   7    -0.230200009311E+04    0.53531E-05   -0.40975E-05  2893   0.570E-03
  37 F= -.23223348E+04 E0= -.23223348E+04  d E =-.381553E-02  mag=     2.0000
       N       E                     dE             d eps       ncg     rms          rms(c)
DAV:   1    -0.230199524090E+04    0.48576E-02   -0.50319E-01  4396   0.617E-01    0.242E-01
RMM:   2    -0.230200371459E+04   -0.84737E-02   -0.78607E-02  6044   0.143E-01    0.407E-01
RMM:   3    -0.230200278008E+04    0.93452E-03   -0.64096E-03  5273   0.450E-02    0.161E-01
RMM:   4    -0.230200260154E+04    0.17854E-03   -0.75748E-04  3958   0.119E-02    0.633E-02
RMM:   5    -0.230200255008E+04    0.51460E-04   -0.12945E-04  3808   0.861E-03    0.293E-02
RMM:   6    -0.230200254675E+04    0.33252E-05   -0.37915E-05  2908   0.669E-03
  38 F= -.23223369E+04 E0= -.23223369E+04  d E =-.205711E-02  mag=     2.0000
       N       E                     dE             d eps       ncg     rms          rms(c)
DAV:   1    -0.230198192021E+04    0.20630E-01   -0.15449E+00  4392   0.108E+00    0.428E-01
RMM:   2    -0.230200792854E+04   -0.26008E-01   -0.24084E-01  6036   0.249E-01    0.721E-01
RMM:   3    -0.230200502179E+04    0.29068E-02   -0.19657E-02  5657   0.751E-02    0.287E-01
RMM:   4    -0.230200446997E+04    0.55182E-03   -0.23516E-03  4771   0.202E-02    0.111E-01
RMM:   5    -0.230200432697E+04    0.14300E-03   -0.38955E-04  4533   0.139E-02    0.514E-02
RMM:   6    -0.230200431788E+04    0.90892E-05   -0.11064E-04  3716   0.957E-03    0.162E-02
RMM:   7    -0.230200431574E+04    0.21381E-05   -0.15944E-05  2859   0.471E-03
  39 F= -.23223380E+04 E0= -.23223380E+04  d E =-.313998E-02  mag=     2.0000
       N       E                     dE             d eps       ncg     rms          rms(c)
DAV:   1    -0.230199544660E+04    0.88713E-02   -0.84974E-01  4392   0.753E-01    0.293E-01
RMM:   2    -0.230200714235E+04   -0.11696E-01   -0.11973E-01  6148   0.174E-01    0.336E-01
RMM:   3    -0.230200751734E+04   -0.37499E-03   -0.10091E-02  5506   0.531E-02    0.297E-01
RMM:   4    -0.230200687806E+04    0.63928E-03   -0.13317E-03  4238   0.155E-02    0.821E-02
RMM:   5    -0.230200681999E+04    0.58071E-04   -0.21813E-04  3768   0.932E-03    0.407E-02
RMM:   6    -0.230200681411E+04    0.58786E-05   -0.71937E-05  3182   0.738E-03
  40 F= -.23223402E+04 E0= -.23223402E+04  d E =-.219731E-02  mag=     2.0000
       N       E                     dE             d eps       ncg     rms          rms(c)
DAV:   1    -0.230198695057E+04    0.19869E-01   -0.15886E+00  4392   0.103E+00    0.401E-01
RMM:   2    -0.230200857180E+04   -0.21621E-01   -0.22233E-01  6187   0.236E-01    0.448E-01
RMM:   3    -0.230200941968E+04   -0.84788E-03   -0.18790E-02  5758   0.696E-02    0.415E-01
RMM:   4    -0.230200815917E+04    0.12605E-02   -0.24716E-03  4914   0.209E-02    0.112E-01
RMM:   5    -0.230200805295E+04    0.10622E-03   -0.43483E-04  4178   0.120E-02    0.552E-02
RMM:   6    -0.230200804004E+04    0.12911E-04   -0.13209E-04  3706   0.927E-03    0.288E-02
RMM:   7    -0.230200803427E+04    0.57657E-05   -0.17679E-05  2852   0.501E-03
  41 F= -.23223410E+04 E0= -.23223410E+04  d E =-.301330E-02  mag=     2.0000
       N       E                     dE             d eps       ncg     rms          rms(c)
DAV:   1    -0.230199348135E+04    0.14559E-01   -0.12847E+00  4392   0.927E-01    0.359E-01
RMM:   2    -0.230201064536E+04   -0.17164E-01   -0.18211E-01  6098   0.216E-01    0.320E-01
RMM:   3    -0.230201214035E+04   -0.14950E-02   -0.15429E-02  5651   0.662E-02    0.409E-01
RMM:   4    -0.230201092027E+04    0.12201E-02   -0.21615E-03  4890   0.197E-02    0.103E-01
RMM:   5    -0.230201083684E+04    0.83439E-04   -0.35764E-04  4046   0.111E-02    0.567E-02
RMM:   6    -0.230201082264E+04    0.14197E-04   -0.12172E-04  3666   0.872E-03    0.318E-02
RMM:   7    -0.230201081588E+04    0.67557E-05   -0.17097E-05  2834   0.537E-03
  42 F= -.23223435E+04 E0= -.23223435E+04  d E =-.250558E-02  mag=     2.0000
       N       E                     dE             d eps       ncg     rms          rms(c)
DAV:   1    -0.230200470011E+04    0.61225E-02   -0.48303E-01  4448   0.569E-01    0.221E-01
RMM:   2    -0.230201115889E+04   -0.64588E-02   -0.68360E-02  6087   0.133E-01    0.202E-01
RMM:   3    -0.230201169045E+04   -0.53156E-03   -0.58231E-03  5204   0.415E-02    0.250E-01
RMM:   4    -0.230201123374E+04    0.45671E-03   -0.80743E-04  3562   0.124E-02    0.630E-02
RMM:   5    -0.230201120216E+04    0.31585E-04   -0.13986E-04  3214   0.760E-03    0.348E-02
RMM:   6    -0.230201119675E+04    0.54034E-05   -0.47439E-05  3016   0.632E-03
  43 F= -.23223437E+04 E0= -.23223437E+04  d E =-.272072E-02  mag=     2.0000
       N       E                     dE             d eps       ncg     rms          rms(c)
DAV:   1    -0.230200164114E+04    0.95610E-02   -0.74924E-01  4392   0.757E-01    0.305E-01
RMM:   2    -0.230201357603E+04   -0.11935E-01   -0.12070E-01  6002   0.176E-01    0.369E-01
RMM:   3    -0.230201377867E+04   -0.20264E-03   -0.10916E-02  5541   0.587E-02    0.293E-01
RMM:   4    -0.230201314196E+04    0.63671E-03   -0.13203E-03  4697   0.165E-02    0.774E-02
RMM:   5    -0.230201307749E+04    0.64462E-04   -0.25522E-04  4003   0.105E-02    0.389E-02
RMM:   6    -0.230201306944E+04    0.80547E-05   -0.72190E-05  3479   0.765E-03
  44 F= -.23223452E+04 E0= -.23223452E+04  d E =-.152299E-02  mag=     2.0000
       N       E                     dE             d eps       ncg     rms          rms(c)
DAV:   1    -0.230201172771E+04    0.13498E-02   -0.96018E-02  4576   0.272E-01    0.111E-01
RMM:   2    -0.230201329271E+04   -0.15650E-02   -0.15707E-02  6254   0.653E-02    0.141E-01
RMM:   3    -0.230201329397E+04   -0.12662E-05   -0.14231E-03  3819   0.210E-02    0.104E-01
RMM:   4    -0.230201321389E+04    0.80081E-04   -0.17130E-04  2965   0.717E-03    0.278E-02
RMM:   5    -0.230201320520E+04    0.86946E-05   -0.35434E-05  2870   0.477E-03
  45 F= -.23223452E+04 E0= -.23223452E+04  d E =-.153425E-02  mag=     2.0000
       N       E                     dE             d eps       ncg     rms          rms(c)
DAV:   1    -0.230200037890E+04    0.12835E-01   -0.79788E-01  4392   0.756E-01    0.316E-01
RMM:   2    -0.230201728818E+04   -0.16909E-01   -0.15763E-01  6230   0.186E-01    0.565E-01
RMM:   3    -0.230201571694E+04    0.15712E-02   -0.14743E-02  5569   0.606E-02    0.189E-01
RMM:   4    -0.230201553561E+04    0.18133E-03   -0.16473E-03  4248   0.148E-02    0.813E-02
RMM:   5    -0.230201544876E+04    0.86848E-04   -0.19577E-04  3967   0.954E-03    0.490E-02
RMM:   6    -0.230201543689E+04    0.11872E-04   -0.84271E-05  3084   0.803E-03    0.106E-02
RMM:   7    -0.230201543706E+04   -0.16640E-06   -0.13199E-05  2840   0.466E-03
  46 F= -.23223470E+04 E0= -.23223470E+04  d E =-.178648E-02  mag=     2.0000
       N       E                     dE             d eps       ncg     rms          rms(c)
DAV:   1    -0.230200808713E+04    0.73498E-02   -0.42578E-01  4424   0.552E-01    0.232E-01
RMM:   2    -0.230201726791E+04   -0.91808E-02   -0.84319E-02  6189   0.136E-01    0.433E-01
RMM:   3    -0.230201623902E+04    0.10289E-02   -0.78906E-03  5210   0.453E-02    0.131E-01
RMM:   4    -0.230201616186E+04    0.77163E-04   -0.89217E-04  3510   0.109E-02    0.590E-02
RMM:   5    -0.230201611921E+04    0.42648E-04   -0.10323E-04  3422   0.722E-03    0.412E-02
RMM:   6    -0.230201610949E+04    0.97195E-05   -0.55202E-05  2887   0.675E-03
  47 F= -.23223474E+04 E0= -.23223474E+04  d E =-.213700E-02  mag=     2.0000
       N       E                     dE             d eps       ncg     rms          rms(c)
DAV:   1    -0.230200272476E+04    0.13394E-01   -0.85231E-01  4392   0.811E-01    0.334E-01
RMM:   2    -0.230202061547E+04   -0.17891E-01   -0.16622E-01  6063   0.196E-01    0.595E-01
RMM:   3    -0.230201881208E+04    0.18034E-02   -0.15707E-02  5556   0.649E-02    0.197E-01
RMM:   4    -0.230201859216E+04    0.21992E-03   -0.17778E-03  4485   0.158E-02    0.822E-02
RMM:   5    -0.230201849680E+04    0.95356E-04   -0.21321E-04  4104   0.106E-02    0.514E-02
RMM:   6    -0.230201848177E+04    0.15031E-04   -0.97836E-05  3432   0.843E-03    0.110E-02
RMM:   7    -0.230201848118E+04    0.59517E-06   -0.13325E-05  2840   0.511E-03
  48 F= -.23223493E+04 E0= -.23223493E+04  d E =-.188356E-02  mag=     2.0000
       N       E                     dE             d eps       ncg     rms          rms(c)
DAV:   1    -0.230200966502E+04    0.88168E-02   -0.49963E-01  4428   0.620E-01    0.256E-01
RMM:   2    -0.230202022605E+04   -0.10561E-01   -0.97336E-02  6086   0.150E-01    0.464E-01
RMM:   3    -0.230201906629E+04    0.11598E-02   -0.92304E-03  5361   0.512E-02    0.146E-01
RMM:   4    -0.230201894838E+04    0.11791E-03   -0.10488E-03  4089   0.123E-02    0.629E-02
RMM:   5    -0.230201889265E+04    0.55734E-04   -0.12704E-04  3720   0.843E-03    0.423E-02
RMM:   6    -0.230201888076E+04    0.11887E-04   -0.64581E-05  2967   0.733E-03    0.917E-03
RMM:   7    -0.230201888040E+04    0.35857E-06   -0.99285E-06  2843   0.462E-03
  49 F= -.23223493E+04 E0= -.23223493E+04  d E =-.191153E-02  mag=     2.0000
       N       E                     dE             d eps       ncg     rms          rms(c)
DAV:   1    -0.230201703186E+04    0.18489E-02   -0.10001E-01  4512   0.277E-01    0.113E-01
RMM:   2    -0.230201911053E+04   -0.20787E-02   -0.19225E-02  6120   0.670E-02    0.202E-01
RMM:   3    -0.230201889138E+04    0.21914E-03   -0.18602E-03  3729   0.228E-02    0.644E-02
RMM:   4    -0.230201886778E+04    0.23604E-04   -0.20789E-04  2931   0.645E-03    0.282E-02
RMM:   5    -0.230201885594E+04    0.11838E-04   -0.27853E-05  2875   0.433E-03    0.183E-02
RMM:   6    -0.230201885406E+04    0.18861E-05   -0.13818E-05  2823   0.417E-03
  50 F= -.23223494E+04 E0= -.23223494E+04  d E =-.205102E-02  mag=     2.0000
       N       E                     dE             d eps       ncg     rms          rms(c)
DAV:   1    -0.230200941120E+04    0.94447E-02   -0.64255E-01  4408   0.695E-01    0.267E-01
RMM:   2    -0.230202114738E+04   -0.11736E-01   -0.11698E-01  6187   0.163E-01    0.382E-01
RMM:   3    -0.230202108224E+04    0.65136E-04   -0.11055E-02  5488   0.533E-02    0.222E-01
RMM:   4    -0.230202074457E+04    0.33767E-03   -0.12807E-03  4341   0.142E-02    0.711E-02
RMM:   5    -0.230202067164E+04    0.72931E-04   -0.14310E-04  3705   0.869E-03    0.357E-02
RMM:   6    -0.230202066159E+04    0.10056E-04   -0.73543E-05  3396   0.766E-03    0.165E-02
RMM:   7    -0.230202065968E+04    0.19126E-05   -0.10744E-05  2837   0.513E-03
  51 F= -.23223509E+04 E0= -.23223509E+04  d E =-.147785E-02  mag=     2.0000
       N       E                     dE             d eps       ncg     rms          rms(c)
DAV:   1    -0.230201584892E+04    0.48127E-02   -0.29982E-01  4428   0.475E-01    0.183E-01
RMM:   2    -0.230202132814E+04   -0.54792E-02   -0.54645E-02  6137   0.112E-01    0.262E-01
RMM:   3    -0.230202128624E+04    0.41903E-04   -0.51711E-03  4883   0.384E-02    0.152E-01
RMM:   4    -0.230202112986E+04    0.15637E-03   -0.59660E-04  3359   0.101E-02    0.484E-02
RMM:   5    -0.230202109684E+04    0.33025E-04   -0.69825E-05  3075   0.640E-03    0.246E-02
RMM:   6    -0.230202109218E+04    0.46565E-05   -0.35177E-05  2927   0.605E-03
  52 F= -.23223511E+04 E0= -.23223511E+04  d E =-.168611E-02  mag=     2.0000
       N       E                     dE             d eps       ncg     rms          rms(c)
DAV:   1    -0.230201466637E+04    0.64305E-02   -0.46285E-01  4392   0.576E-01    0.210E-01
RMM:   2    -0.230202240023E+04   -0.77339E-02   -0.81367E-02  6133   0.132E-01    0.230E-01
RMM:   3    -0.230202299941E+04   -0.59917E-03   -0.80574E-03  5274   0.452E-02    0.223E-01
RMM:   4    -0.230202265764E+04    0.34177E-03   -0.94074E-04  3491   0.119E-02    0.593E-02
RMM:   5    -0.230202262054E+04    0.37100E-04   -0.10964E-04  3013   0.664E-03    0.341E-02
RMM:   6    -0.230202261319E+04    0.73464E-05   -0.56844E-05  3129   0.631E-03
  53 F= -.23223525E+04 E0= -.23223525E+04  d E =-.137169E-02  mag=     2.0000
       N       E                     dE             d eps       ncg     rms          rms(c)
DAV:   1    -0.230200131258E+04    0.21308E-01   -0.13046E+00  4392   0.966E-01    0.353E-01
RMM:   2    -0.230202306709E+04   -0.21755E-01   -0.22886E-01  6247   0.221E-01    0.386E-01
RMM:   3    -0.230202478527E+04   -0.17182E-02   -0.22963E-02  5713   0.756E-02    0.375E-01
RMM:   4    -0.230202381839E+04    0.96688E-03   -0.26356E-03  4853   0.197E-02    0.995E-02
RMM:   5    -0.230202371587E+04    0.10252E-03   -0.32927E-04  3869   0.103E-02    0.570E-02
RMM:   6    -0.230202369148E+04    0.24390E-04   -0.15454E-04  4001   0.921E-03    0.284E-02
RMM:   7    -0.230202368652E+04    0.49546E-05   -0.20066E-05  2836   0.589E-03
  54 F= -.23223533E+04 E0= -.23223533E+04  d E =-.218980E-02  mag=     2.0000
       N       E                     dE             d eps       ncg     rms          rms(c)
DAV:   1    -0.230201211618E+04    0.11575E-01   -0.76841E-01  4424   0.741E-01    0.274E-01
RMM:   2    -0.230202522327E+04   -0.13107E-01   -0.13895E-01  6139   0.171E-01    0.280E-01
RMM:   3    -0.230202644803E+04   -0.12248E-02   -0.14374E-02  5488   0.602E-02    0.295E-01
RMM:   4    -0.230202585795E+04    0.59008E-03   -0.16449E-03  4362   0.157E-02    0.783E-02
RMM:   5    -0.230202579480E+04    0.63150E-04   -0.19826E-04  3433   0.864E-03    0.480E-02
RMM:   6    -0.230202577741E+04    0.17387E-04   -0.10126E-04  3708   0.782E-03    0.256E-02
RMM:   7    -0.230202577291E+04    0.45036E-05   -0.14870E-05  2827   0.561E-03
  55 F= -.23223551E+04 E0= -.23223551E+04  d E =-.181605E-02  mag=     2.0000
       N       E                     dE             d eps       ncg     rms          rms(c)
DAV:   1    -0.230201617896E+04    0.95985E-02   -0.57684E-01  4428   0.643E-01    0.237E-01
RMM:   2    -0.230202604566E+04   -0.98667E-02   -0.10439E-01  6161   0.149E-01    0.246E-01
RMM:   3    -0.230202693868E+04   -0.89302E-03   -0.10799E-02  5379   0.527E-02    0.254E-01
RMM:   4    -0.230202650091E+04    0.43777E-03   -0.12281E-03  3914   0.137E-02    0.677E-02
RMM:   5    -0.230202645251E+04    0.48405E-04   -0.15098E-04  3167   0.780E-03    0.411E-02
RMM:   6    -0.230202643921E+04    0.13294E-04   -0.76721E-05  3464   0.718E-03    0.223E-02
RMM:   7    -0.230202643566E+04    0.35511E-05   -0.12925E-05  2826   0.531E-03
  56 F= -.23223555E+04 E0= -.23223555E+04  d E =-.224058E-02  mag=     2.0000
       N       E                     dE             d eps       ncg     rms          rms(c)
DAV:   1    -0.230201188791E+04    0.14551E-01   -0.84705E-01  4392   0.773E-01    0.295E-01
RMM:   2    -0.230202794988E+04   -0.16062E-01   -0.16733E-01  6202   0.183E-01    0.344E-01
RMM:   3    -0.230202909485E+04   -0.11450E-02   -0.18012E-02  5560   0.661E-02    0.291E-01
RMM:   4    -0.230202853563E+04    0.55923E-03   -0.19276E-03  4496   0.164E-02    0.842E-02
RMM:   5    -0.230202845960E+04    0.76032E-04   -0.21655E-04  3460   0.890E-03    0.496E-02
RMM:   6    -0.230202844300E+04    0.16596E-04   -0.11575E-04  3754   0.796E-03    0.292E-02
RMM:   7    -0.230202843772E+04    0.52824E-05   -0.21178E-05  2830   0.599E-03
  57 F= -.23223572E+04 E0= -.23223572E+04  d E =-.160126E-02  mag=     2.0000
       N       E                     dE             d eps       ncg     rms          rms(c)
DAV:   1    -0.230202036996E+04    0.80730E-02   -0.44278E-01  4448   0.559E-01    0.214E-01
RMM:   2    -0.230202875016E+04   -0.83802E-02   -0.87303E-02  6172   0.132E-01    0.251E-01
RMM:   3    -0.230202933598E+04   -0.58582E-03   -0.93657E-03  5229   0.484E-02    0.210E-01
RMM:   4    -0.230202904599E+04    0.28999E-03   -0.10052E-03  3555   0.121E-02    0.606E-02
RMM:   5    -0.230202900686E+04    0.39137E-04   -0.11613E-04  2992   0.694E-03    0.356E-02
RMM:   6    -0.230202899820E+04    0.86508E-05   -0.60938E-05  3164   0.641E-03
  58 F= -.23223574E+04 E0= -.23223574E+04  d E =-.186813E-02  mag=     2.0000
       N       E                     dE             d eps       ncg     rms          rms(c)
DAV:   1    -0.230200788139E+04    0.21125E-01   -0.11332E+00  4392   0.887E-01    0.344E-01
RMM:   2    -0.230203054031E+04   -0.22659E-01   -0.23435E-01  6119   0.210E-01    0.431E-01
RMM:   3    -0.230203187322E+04   -0.13329E-02   -0.25298E-02  5658   0.760E-02    0.323E-01
RMM:   4    -0.230203119757E+04    0.67565E-03   -0.27118E-03  4879   0.187E-02    0.986E-02
RMM:   5    -0.230203108630E+04    0.11127E-03   -0.30562E-04  3766   0.979E-03    0.554E-02
RMM:   6    -0.230203106462E+04    0.21678E-04   -0.14219E-04  3908   0.852E-03    0.306E-02
RMM:   7    -0.230203105959E+04    0.50370E-05   -0.27762E-05  2847   0.642E-03
  59 F= -.23223591E+04 E0= -.23223591E+04  d E =-.167482E-02  mag=     2.0000
       N       E                     dE             d eps       ncg     rms          rms(c)
DAV:   1    -0.230201972105E+04    0.11344E-01   -0.58098E-01  4432   0.635E-01    0.247E-01
RMM:   2    -0.230203141701E+04   -0.11696E-01   -0.12055E-01  6209   0.151E-01    0.315E-01
RMM:   3    -0.230203202620E+04   -0.60919E-03   -0.12741E-02  5375   0.542E-02    0.226E-01
RMM:   4    -0.230203170044E+04    0.32576E-03   -0.13830E-03  3858   0.135E-02    0.699E-02
RMM:   5    -0.230203164382E+04    0.56622E-04   -0.14743E-04  3124   0.746E-03    0.394E-02
RMM:   6    -0.230203163367E+04    0.10146E-04   -0.78249E-05  3355   0.689E-03    0.233E-02
RMM:   7    -0.230203163087E+04    0.28071E-05   -0.17060E-05  2828   0.544E-03
  60 F= -.23223594E+04 E0= -.23223594E+04  d E =-.196365E-02  mag=     2.0000
       N       E                     dE             d eps       ncg     rms          rms(c)
DAV:   1    -0.230201119697E+04    0.20437E-01   -0.10868E+00  4424   0.863E-01    0.332E-01
RMM:   2    -0.230203330653E+04   -0.22110E-01   -0.22891E-01  6246   0.203E-01    0.417E-01
RMM:   3    -0.230203459475E+04   -0.12882E-02   -0.23655E-02  5637   0.731E-02    0.312E-01
RMM:   4    -0.230203396988E+04    0.62487E-03   -0.26112E-03  4719   0.180E-02    0.971E-02
RMM:   5    -0.230203386173E+04    0.10814E-03   -0.28381E-04  3598   0.937E-03    0.549E-02
RMM:   6    -0.230203383749E+04    0.24246E-04   -0.14396E-04  3862   0.835E-03    0.298E-02
RMM:   7    -0.230203383245E+04    0.50392E-05   -0.27743E-05  2847   0.637E-03
  61 F= -.23223612E+04 E0= -.23223612E+04  d E =-.184898E-02  mag=     2.0000
       N       E                     dE             d eps       ncg     rms          rms(c)
DAV:   1    -0.230200254872E+04    0.31289E-01   -0.15532E+00  4440   0.103E+00    0.397E-01
RMM:   2    -0.230203411522E+04   -0.31566E-01   -0.32676E-01  6242   0.243E-01    0.500E-01
RMM:   3    -0.230203595475E+04   -0.18395E-02   -0.34139E-02  5757   0.872E-02    0.371E-01
RMM:   4    -0.230203506638E+04    0.88837E-03   -0.37415E-03  5145   0.214E-02    0.116E-01
RMM:   5    -0.230203491134E+04    0.15503E-03   -0.41875E-04  3961   0.109E-02    0.656E-02
RMM:   6    -0.230203487342E+04    0.37928E-04   -0.20611E-04  4093   0.946E-03    0.353E-02
RMM:   7    -0.230203486592E+04    0.74962E-05   -0.40150E-05  2863   0.725E-03
  62 F= -.23223618E+04 E0= -.23223618E+04  d E =-.244778E-02  mag=     2.0000
       N       E                     dE             d eps       ncg     rms          rms(c)
DAV:   1    -0.230201878101E+04    0.16092E-01   -0.86904E-01  4480   0.765E-01    0.287E-01
RMM:   2    -0.230203604656E+04   -0.17266E-01   -0.18199E-01  6274   0.177E-01    0.316E-01
RMM:   3    -0.230203751159E+04   -0.14650E-02   -0.18463E-02  5554   0.635E-02    0.294E-01
RMM:   4    -0.230203694538E+04    0.56621E-03   -0.21027E-03  4040   0.160E-02    0.879E-02
RMM:   5    -0.230203686765E+04    0.77724E-04   -0.21900E-04  3128   0.815E-03    0.520E-02
RMM:   6    -0.230203684398E+04    0.23678E-04   -0.12309E-04  3661   0.750E-03    0.260E-02
RMM:   7    -0.230203684089E+04    0.30901E-05   -0.24781E-05  2835   0.575E-03
  63 F= -.23223635E+04 E0= -.23223635E+04  d E =-.166024E-02  mag=     2.0000
       N       E                     dE             d eps       ncg     rms          rms(c)
DAV:   1    -0.230196406559E+04    0.72778E-01   -0.35760E+00  4392   0.155E+00    0.579E-01
RMM:   2    -0.230203502668E+04   -0.70961E-01   -0.74799E-01  6328   0.361E-01    0.637E-01
RMM:   3    -0.230204151394E+04   -0.64873E-02   -0.80861E-02  5890   0.130E-01    0.596E-01
RMM:   4    -0.230203914708E+04    0.23669E-02   -0.86567E-03  5620   0.322E-02    0.183E-01
RMM:   5    -0.230203882063E+04    0.32646E-03   -0.98333E-04  4307   0.149E-02    0.109E-01
RMM:   6    -0.230203869574E+04    0.12488E-03   -0.50976E-04  4665   0.126E-02    0.499E-02
RMM:   7    -0.230203868478E+04    0.10960E-04   -0.11653E-04  3104   0.973E-03    0.180E-02
RMM:   8    -0.230203867974E+04    0.50437E-05   -0.19605E-05  2844   0.413E-03
  64 F= -.23223647E+04 E0= -.23223647E+04  d E =-.283422E-02  mag=     2.0000
       N       E                     dE             d eps       ncg     rms          rms(c)
DAV:   1    -0.230201661274E+04    0.22072E-01   -0.12231E+00  4460   0.933E-01    0.344E-01
RMM:   2    -0.230203928822E+04   -0.22675E-01   -0.24508E-01  6173   0.212E-01    0.262E-01
RMM:   3    -0.230204206441E+04   -0.27762E-02   -0.26051E-02  5684   0.776E-02    0.356E-01
RMM:   4    -0.230204121957E+04    0.84484E-03   -0.28939E-03  4709   0.192E-02    0.113E-01
RMM:   5    -0.230204110425E+04    0.11532E-03   -0.36608E-04  3446   0.101E-02    0.679E-02
RMM:   6    -0.230204104859E+04    0.55664E-04   -0.19713E-04  4145   0.890E-03    0.256E-02
RMM:   7    -0.230204104629E+04    0.22940E-05   -0.40847E-05  2861   0.722E-03
  65 F= -.23223667E+04 E0= -.23223667E+04  d E =-.208383E-02  mag=     2.0000
       N       E                     dE             d eps       ncg     rms          rms(c)
DAV:   1    -0.230202377370E+04    0.17275E-01   -0.89343E-01  4496   0.799E-01    0.296E-01
RMM:   2    -0.230204039507E+04   -0.16621E-01   -0.17974E-01  6183   0.182E-01    0.228E-01
RMM:   3    -0.230204245314E+04   -0.20581E-02   -0.19199E-02  5578   0.685E-02    0.308E-01
RMM:   4    -0.230204180994E+04    0.64320E-03   -0.21368E-03  4169   0.168E-02    0.958E-02
RMM:   5    -0.230204172534E+04    0.84593E-04   -0.27536E-04  3196   0.908E-03    0.569E-02
RMM:   6    -0.230204168670E+04    0.38641E-04   -0.14258E-04  3975   0.807E-03    0.214E-02
RMM:   7    -0.230204168478E+04    0.19204E-05   -0.28974E-05  2844   0.619E-03
  66 F= -.23223671E+04 E0= -.23223671E+04  d E =-.247051E-02  mag=     2.0000
       N       E                     dE             d eps       ncg     rms          rms(c)
DAV:   1    -0.230201838980E+04    0.23297E-01   -0.12223E+00  4392   0.913E-01    0.337E-01
RMM:   2    -0.230204158315E+04   -0.23193E-01   -0.25282E-01  6275   0.213E-01    0.207E-01
RMM:   3    -0.230204440636E+04   -0.28232E-02   -0.28844E-02  5590   0.788E-02    0.270E-01
RMM:   4    -0.230204408101E+04    0.32535E-03   -0.29184E-03  4043   0.176E-02    0.127E-01
RMM:   5    -0.230204394307E+04    0.13793E-03   -0.32137E-04  3123   0.986E-03    0.744E-02
RMM:   6    -0.230204388094E+04    0.62134E-04   -0.18268E-04  3957   0.831E-03    0.280E-02
RMM:   7    -0.230204387942E+04    0.15218E-05   -0.53370E-05  2910   0.710E-03
  67 F= -.23223691E+04 E0= -.23223691E+04  d E =-.197200E-02  mag=     2.0000
       N       E                     dE             d eps       ncg     rms          rms(c)
DAV:   1    -0.230201747675E+04    0.26404E-01   -0.13070E+00  4440   0.943E-01    0.349E-01
RMM:   2    -0.230204214961E+04   -0.24673E-01   -0.26917E-01  6289   0.220E-01    0.214E-01
RMM:   3    -0.230204517991E+04   -0.30303E-02   -0.30561E-02  5652   0.809E-02    0.280E-01
RMM:   4    -0.230204482305E+04    0.35686E-03   -0.31001E-03  4094   0.182E-02    0.132E-01
RMM:   5    -0.230204467329E+04    0.14977E-03   -0.34735E-04  3179   0.101E-02    0.757E-02
RMM:   6    -0.230204460848E+04    0.64811E-04   -0.19678E-04  4026   0.850E-03    0.283E-02
RMM:   7    -0.230204460636E+04    0.21197E-05   -0.54860E-05  2917   0.720E-03
  68 F= -.23223696E+04 E0= -.23223696E+04  d E =-.245732E-02  mag=     2.0000
       N       E                     dE             d eps       ncg     rms          rms(c)
DAV:   1    -0.230201291840E+04    0.31690E-01   -0.16968E+00  4408   0.110E+00    0.404E-01
RMM:   2    -0.230204426296E+04   -0.31345E-01   -0.34138E-01  6225   0.256E-01    0.257E-01
RMM:   3    -0.230204813579E+04   -0.38728E-02   -0.38976E-02  5699   0.939E-02    0.345E-01
RMM:   4    -0.230204748392E+04    0.65187E-03   -0.39051E-03  4883   0.217E-02    0.151E-01
RMM:   5    -0.230204729006E+04    0.19386E-03   -0.55470E-04  3568   0.119E-02    0.856E-02
RMM:   6    -0.230204720824E+04    0.81818E-04   -0.25289E-04  4184   0.935E-03    0.336E-02
RMM:   7    -0.230204720403E+04    0.42101E-05   -0.74462E-05  3017   0.837E-03
  69 F= -.23223719E+04 E0= -.23223719E+04  d E =-.233172E-02  mag=     2.0000
       N       E                     dE             d eps       ncg     rms          rms(c)
DAV:   1    -0.230203501746E+04    0.12191E-01   -0.62503E-01  4496   0.665E-01    0.246E-01
RMM:   2    -0.230204653020E+04   -0.11513E-01   -0.12553E-01  6262   0.155E-01    0.157E-01
RMM:   3    -0.230204795621E+04   -0.14260E-02   -0.14178E-02  5379   0.570E-02    0.212E-01
RMM:   4    -0.230204770917E+04    0.24704E-03   -0.14556E-03  3587   0.135E-02    0.910E-02
RMM:   5    -0.230204763764E+04    0.71532E-04   -0.19184E-04  2949   0.800E-03    0.507E-02
RMM:   6    -0.230204760961E+04    0.28034E-04   -0.92387E-05  3369   0.660E-03    0.194E-02
RMM:   7    -0.230204760877E+04    0.83768E-06   -0.27637E-05  2843   0.581E-03
  70 F= -.23223722E+04 E0= -.23223722E+04  d E =-.256931E-02  mag=     2.0000
       N       E                     dE             d eps       ncg     rms          rms(c)
DAV:   1    -0.230201235439E+04    0.35255E-01   -0.19679E+00  4424   0.122E+00    0.439E-01
RMM:   2    -0.230204744287E+04   -0.35088E-01   -0.37753E-01  6197   0.279E-01    0.349E-01
RMM:   3    -0.230205174156E+04   -0.42987E-02   -0.42023E-02  5753   0.102E-01    0.449E-01
RMM:   4    -0.230205031884E+04    0.14227E-02   -0.44718E-03  5415   0.254E-02    0.152E-01
RMM:   5    -0.230205011851E+04    0.20033E-03   -0.71727E-04  4030   0.134E-02    0.861E-02
RMM:   6    -0.230205003756E+04    0.80957E-04   -0.28681E-04  4312   0.101E-02    0.347E-02
RMM:   7    -0.230205003261E+04    0.49512E-05   -0.74038E-05  3052   0.871E-03
  71 F= -.23223743E+04 E0= -.23223743E+04  d E =-.216685E-02  mag=     2.0000
       N       E                     dE             d eps       ncg     rms          rms(c)
DAV:   1    -0.230204456914E+04    0.54684E-02   -0.29560E-01  4592   0.473E-01    0.172E-01
RMM:   2    -0.230204986514E+04   -0.52960E-02   -0.57030E-02  6234   0.109E-01    0.142E-01
RMM:   3    -0.230205049164E+04   -0.62650E-03   -0.61644E-03  4878   0.386E-02    0.179E-01
RMM:   4    -0.230205026304E+04    0.22860E-03   -0.68281E-04  3307   0.105E-02    0.575E-02
RMM:   5    -0.230205023456E+04    0.28486E-04   -0.10854E-04  2867   0.612E-03    0.320E-02
RMM:   6    -0.230205022445E+04    0.10108E-04   -0.43008E-05  2925   0.518E-03    0.132E-02
RMM:   7    -0.230205022422E+04    0.22702E-06   -0.13168E-05  2825   0.467E-03
  72 F= -.23223744E+04 E0= -.23223744E+04  d E =-.225578E-02  mag=     2.0000
       N       E                     dE             d eps       ncg     rms          rms(c)
DAV:   1    -0.230202518534E+04    0.25039E-01   -0.15158E+00  4424   0.109E+00    0.384E-01
RMM:   2    -0.230205148255E+04   -0.26297E-01   -0.27746E-01  6175   0.247E-01    0.400E-01
RMM:   3    -0.230205380095E+04   -0.23184E-02   -0.28754E-02  5741   0.858E-02    0.391E-01
RMM:   4    -0.230205265684E+04    0.11441E-02   -0.32005E-03  5324   0.224E-02    0.126E-01
RMM:   5    -0.230205249479E+04    0.16205E-03   -0.53328E-04  4199   0.126E-02    0.650E-02
RMM:   6    -0.230205245633E+04    0.38461E-04   -0.20141E-04  4168   0.960E-03    0.280E-02
RMM:   7    -0.230205245266E+04    0.36689E-05   -0.42302E-05  2903   0.735E-03
  73 F= -.23223764E+04 E0= -.23223764E+04  d E =-.201450E-02  mag=     2.0000
       N       E                     dE             d eps       ncg     rms          rms(c)
DAV:   1    -0.230204526543E+04    0.71909E-02   -0.40582E-01  4464   0.566E-01    0.200E-01
RMM:   2    -0.230205232147E+04   -0.70560E-02   -0.74337E-02  6176   0.128E-01    0.214E-01
RMM:   3    -0.230205290313E+04   -0.58166E-03   -0.75453E-03  5202   0.434E-02    0.202E-01
RMM:   4    -0.230205259990E+04    0.30323E-03   -0.85529E-04  3557   0.119E-02    0.643E-02
RMM:   5    -0.230205255728E+04    0.42616E-04   -0.13869E-04  3018   0.728E-03    0.327E-02
RMM:   6    -0.230205254850E+04    0.87807E-05   -0.54989E-05  3046   0.635E-03
  74 F= -.23223764E+04 E0= -.23223764E+04  d E =-.199684E-02  mag=     2.0000
       N       E                     dE             d eps       ncg     rms          rms(c)
DAV:   1    -0.230204086997E+04    0.11687E-01   -0.76751E-01  4400   0.777E-01    0.267E-01
RMM:   2    -0.230205365734E+04   -0.12787E-01   -0.13563E-01  6138   0.173E-01    0.272E-01
RMM:   3    -0.230205481710E+04   -0.11598E-02   -0.13805E-02  5529   0.571E-02    0.273E-01
RMM:   4    -0.230205426145E+04    0.55566E-03   -0.15618E-03  4188   0.156E-02    0.915E-02
RMM:   5    -0.230205418433E+04    0.77117E-04   -0.27853E-04  3456   0.926E-03    0.454E-02
RMM:   6    -0.230205417008E+04    0.14245E-04   -0.97674E-05  3461   0.729E-03    0.195E-02
RMM:   7    -0.230205416934E+04    0.74858E-06   -0.21123E-05  2847   0.577E-03
  75 F= -.23223779E+04 E0= -.23223779E+04  d E =-.148354E-02  mag=     2.0000
       N       E                     dE             d eps       ncg     rms          rms(c)
DAV:   1    -0.230203686645E+04    0.17304E-01   -0.10357E+00  4392   0.903E-01    0.310E-01
RMM:   2    -0.230205423798E+04   -0.17372E-01   -0.18324E-01  6180   0.201E-01    0.329E-01
RMM:   3    -0.230205566270E+04   -0.14247E-02   -0.18680E-02  5605   0.684E-02    0.312E-01
RMM:   4    -0.230205494137E+04    0.72133E-03   -0.20822E-03  4752   0.181E-02    0.106E-01
RMM:   5    -0.230205483524E+04    0.10613E-03   -0.37334E-04  3747   0.105E-02    0.527E-02
RMM:   6    -0.230205481483E+04    0.20409E-04   -0.13199E-04  3750   0.806E-03    0.235E-02
RMM:   7    -0.230205481276E+04    0.20675E-05   -0.27460E-05  2863   0.621E-03
  76 F= -.23223784E+04 E0= -.23223784E+04  d E =-.196286E-02  mag=     2.0000
       N       E                     dE             d eps       ncg     rms          rms(c)
DAV:   1    -0.230205219867E+04    0.26162E-02   -0.29315E-01  4528   0.519E-01    0.187E-01
RMM:   2    -0.230205615760E+04   -0.39589E-02   -0.43242E-02  5983   0.115E-01    0.135E-01
RMM:   3    -0.230205659900E+04   -0.44141E-03   -0.41243E-03  5032   0.402E-02    0.193E-01
RMM:   4    -0.230205629560E+04    0.30340E-03   -0.53393E-04  3745   0.115E-02    0.599E-02
RMM:   5    -0.230205625855E+04    0.37055E-04   -0.14518E-04  3586   0.850E-03    0.268E-02
RMM:   6    -0.230205625232E+04    0.62256E-05   -0.38219E-05  2915   0.633E-03
  77 F= -.23223798E+04 E0= -.23223798E+04  d E =-.145646E-02  mag=     2.0000
       N       E                     dE             d eps       ncg     rms          rms(c)
DAV:   1    -0.230205230754E+04    0.39510E-02   -0.28134E-01  4464   0.509E-01    0.183E-01
RMM:   2    -0.230205609219E+04   -0.37846E-02   -0.41532E-02  6016   0.113E-01    0.122E-01
RMM:   3    -0.230205650011E+04   -0.40793E-03   -0.38999E-03  5064   0.375E-02    0.179E-01
RMM:   4    -0.230205624838E+04    0.25173E-03   -0.49441E-04  3593   0.107E-02    0.614E-02
RMM:   5    -0.230205620894E+04    0.39446E-04   -0.14050E-04  3603   0.822E-03    0.264E-02
RMM:   6    -0.230205620204E+04    0.68958E-05   -0.35515E-05  2905   0.620E-03
  78 F= -.23223798E+04 E0= -.23223798E+04  d E =-.142159E-02  mag=     2.0000
       N       E                     dE             d eps       ncg     rms          rms(c)
DAV:   1    -0.230205555528E+04    0.65365E-03   -0.62443E-02  4544   0.240E-01    0.843E-02
RMM:   2    -0.230205638806E+04   -0.83278E-03   -0.90398E-03  6187   0.540E-02    0.601E-02
RMM:   3    -0.230205647371E+04   -0.85652E-04   -0.81283E-04  3515   0.182E-02    0.859E-02
RMM:   4    -0.230205641236E+04    0.61354E-04   -0.10555E-04  2887   0.646E-03    0.271E-02
RMM:   5    -0.230205640379E+04    0.85746E-05   -0.31626E-05  2847   0.454E-03
  79 F= -.23223800E+04 E0= -.23223800E+04  d E =-.161627E-02  mag=     2.0000
       N       E                     dE             d eps       ncg     rms          rms(c)
DAV:   1    -0.230205527903E+04    0.11333E-02   -0.16185E-01  4432   0.391E-01    0.138E-01
RMM:   2    -0.230205722961E+04   -0.19506E-02   -0.21533E-02  6100   0.857E-02    0.749E-02
RMM:   3    -0.230205736523E+04   -0.13562E-03   -0.18901E-03  4273   0.283E-02    0.100E-01
RMM:   4    -0.230205730306E+04    0.62168E-04   -0.23102E-04  3020   0.802E-03    0.483E-02
RMM:   5    -0.230205727934E+04    0.23722E-04   -0.77864E-05  2976   0.658E-03    0.232E-02
RMM:   6    -0.230205727464E+04    0.46953E-05   -0.22041E-05  2862   0.534E-03
  80 F= -.23223810E+04 E0= -.23223810E+04  d E =-.972960E-03  mag=     2.0000
       N       E                     dE             d eps       ncg     rms          rms(c)
DAV:   1    -0.230205590231E+04    0.13770E-02   -0.11872E-01  4432   0.335E-01    0.120E-01
RMM:   2    -0.230205733967E+04   -0.14374E-02   -0.15963E-02  6000   0.735E-02    0.592E-02
RMM:   3    -0.230205741552E+04   -0.75852E-04   -0.13225E-03  3972   0.250E-02    0.606E-02
RMM:   4    -0.230205741120E+04    0.43194E-05   -0.16877E-04  2915   0.694E-03    0.499E-02
RMM:   5    -0.230205738850E+04    0.22699E-04   -0.58298E-05  2870   0.594E-03    0.209E-02
RMM:   6    -0.230205738470E+04    0.38065E-05   -0.15222E-05  2851   0.480E-03
  81 F= -.23223812E+04 E0= -.23223812E+04  d E =-.117039E-02  mag=     2.0000
       N       E                     dE             d eps       ncg     rms          rms(c)
DAV:   1    -0.230205647872E+04    0.90979E-03   -0.19574E-01  4400   0.441E-01    0.135E-01
RMM:   2    -0.230205821914E+04   -0.17404E-02   -0.19246E-02  5890   0.888E-02    0.701E-02
RMM:   3    -0.230205829890E+04   -0.79754E-04   -0.15169E-03  4245   0.298E-02    0.743E-02
RMM:   4    -0.230205828441E+04    0.14487E-04   -0.20197E-04  2996   0.793E-03    0.574E-02
RMM:   5    -0.230205825495E+04    0.29459E-04   -0.81336E-05  3087   0.704E-03    0.222E-02
RMM:   6    -0.230205825216E+04    0.27888E-05   -0.17901E-05  2861   0.524E-03
  82 F= -.23223822E+04 E0= -.23223822E+04  d E =-.102264E-02  mag=     2.0000
       N       E                     dE             d eps       ncg     rms          rms(c)
DAV:   1    -0.230205604989E+04    0.22051E-02   -0.26199E-01  4400   0.510E-01    0.157E-01
RMM:   2    -0.230205839121E+04   -0.23413E-02   -0.25875E-02  5863   0.103E-01    0.818E-02
RMM:   3    -0.230205849755E+04   -0.10634E-03   -0.20302E-03  4499   0.322E-02    0.880E-02
RMM:   4    -0.230205847390E+04    0.23647E-04   -0.27024E-04  3105   0.877E-03    0.659E-02
RMM:   5    -0.230205843446E+04    0.39437E-04   -0.11026E-04  3445   0.783E-03    0.253E-02
RMM:   6    -0.230205843056E+04    0.39050E-05   -0.22753E-05  2878   0.558E-03
  83 F= -.23223825E+04 E0= -.23223825E+04  d E =-.138006E-02  mag=     2.0000
       N       E                     dE             d eps       ncg     rms          rms(c)
DAV:   1    -0.230205832475E+04    0.10971E-03   -0.16277E-01  4432   0.412E-01    0.121E-01
RMM:   2    -0.230205934460E+04   -0.10198E-02   -0.11311E-02  5783   0.778E-02    0.758E-02
RMM:   3    -0.230205945092E+04   -0.10632E-03   -0.10024E-03  4289   0.270E-02    0.116E-01
RMM:   4    -0.230205933627E+04    0.11466E-03   -0.14555E-04  3099   0.797E-03    0.398E-02
RMM:   5    -0.230205931953E+04    0.16735E-04   -0.66799E-05  3222   0.673E-03    0.139E-02
RMM:   6    -0.230205931894E+04    0.59133E-06   -0.14802E-05  2856   0.515E-03
  84 F= -.23223835E+04 E0= -.23223835E+04  d E =-.989965E-03  mag=     2.0000
       N       E                     dE             d eps       ncg     rms          rms(c)
DAV:   1    -0.230205707194E+04    0.22476E-02   -0.42536E-01  4396   0.666E-01    0.194E-01
RMM:   2    -0.230205976826E+04   -0.26963E-02   -0.29612E-02  5763   0.126E-01    0.129E-01
RMM:   3    -0.230206005170E+04   -0.28344E-03   -0.25866E-03  5046   0.405E-02    0.195E-01
RMM:   4    -0.230205971948E+04    0.33222E-03   -0.38252E-04  4235   0.118E-02    0.623E-02
RMM:   5    -0.230205967501E+04    0.44468E-04   -0.16589E-04  4033   0.996E-03    0.221E-02
RMM:   6    -0.230205967303E+04    0.19822E-05   -0.31476E-05  2888   0.669E-03
  85 F= -.23223840E+04 E0= -.23223840E+04  d E =-.150711E-02  mag=     2.0000
       N       E                     dE             d eps       ncg     rms          rms(c)
DAV:   1    -0.230205941431E+04    0.26070E-03   -0.19169E-01  4432   0.445E-01    0.122E-01
RMM:   2    -0.230206068247E+04   -0.12682E-02   -0.13290E-02  5854   0.845E-02    0.118E-01
RMM:   3    -0.230206074176E+04   -0.59283E-04   -0.11764E-03  4475   0.273E-02    0.125E-01
RMM:   4    -0.230206059724E+04    0.14451E-03   -0.16345E-04  3199   0.853E-03    0.390E-02
RMM:   5    -0.230206058050E+04    0.16743E-04   -0.72453E-05  3487   0.706E-03    0.130E-02
RMM:   6    -0.230206058092E+04   -0.42551E-06   -0.14055E-05  2845   0.533E-03
  86 F= -.23223850E+04 E0= -.23223850E+04  d E =-.990108E-03  mag=     2.0000
       N       E                     dE             d eps       ncg     rms          rms(c)
DAV:   1    -0.230205844054E+04    0.21400E-02   -0.41462E-01  4396   0.655E-01    0.180E-01
RMM:   2    -0.230206119735E+04   -0.27568E-02   -0.28688E-02  5803   0.124E-01    0.179E-01
RMM:   3    -0.230206128821E+04   -0.90860E-04   -0.25128E-03  5097   0.397E-02    0.182E-01
RMM:   4    -0.230206098093E+04    0.30728E-03   -0.35251E-04  4280   0.117E-02    0.565E-02
RMM:   5    -0.230206094222E+04    0.38716E-04   -0.14884E-04  4043   0.968E-03    0.190E-02
RMM:   6    -0.230206094211E+04    0.10646E-06   -0.27029E-05  2871   0.675E-03
  87 F= -.23223855E+04 E0= -.23223855E+04  d E =-.147168E-02  mag=     2.0000
       N       E                     dE             d eps       ncg     rms          rms(c)
DAV:   1    -0.230205981661E+04    0.11256E-02   -0.28625E-01  4400   0.546E-01    0.166E-01
RMM:   2    -0.230206205492E+04   -0.22383E-02   -0.23314E-02  5888   0.108E-01    0.159E-01
RMM:   3    -0.230206215929E+04   -0.10437E-03   -0.21129E-03  4938   0.347E-02    0.171E-01
RMM:   4    -0.230206188715E+04    0.27214E-03   -0.30479E-04  3833   0.108E-02    0.488E-02
RMM:   5    -0.230206186057E+04    0.26576E-04   -0.11520E-04  3839   0.831E-03    0.175E-02
RMM:   6    -0.230206185979E+04    0.78150E-06   -0.21609E-05  2860   0.606E-03
  88 F= -.23223866E+04 E0= -.23223866E+04  d E =-.107363E-02  mag=     2.0000
       N       E                     dE             d eps       ncg     rms          rms(c)
DAV:   1    -0.230206078940E+04    0.10712E-02   -0.15728E-01  4464   0.405E-01    0.123E-01
RMM:   2    -0.230206202524E+04   -0.12358E-02   -0.12829E-02  5949   0.805E-02    0.119E-01
RMM:   3    -0.230206207955E+04   -0.54304E-04   -0.11668E-03  4428   0.263E-02    0.127E-01
RMM:   4    -0.230206193028E+04    0.14926E-03   -0.16505E-04  3142   0.848E-03    0.363E-02
RMM:   5    -0.230206191571E+04    0.14571E-04   -0.63885E-05  3266   0.655E-03    0.130E-02
RMM:   6    -0.230206191537E+04    0.34532E-06   -0.13677E-05  2842   0.522E-03
  89 F= -.23223868E+04 E0= -.23223868E+04  d E =-.124482E-02  mag=     2.0000
       N       E                     dE             d eps       ncg     rms          rms(c)
DAV:   1    -0.230205984531E+04    0.20704E-02   -0.34045E-01  4400   0.590E-01    0.177E-01
RMM:   2    -0.230206282602E+04   -0.29807E-02   -0.31890E-02  5967   0.120E-01    0.145E-01
RMM:   3    -0.230206307787E+04   -0.25184E-03   -0.27835E-03  4988   0.371E-02    0.185E-01
RMM:   4    -0.230206277109E+04    0.30678E-03   -0.38695E-04  3643   0.113E-02    0.575E-02
RMM:   5    -0.230206273473E+04    0.36363E-04   -0.14899E-04  3892   0.871E-03    0.212E-02
RMM:   6    -0.230206273208E+04    0.26478E-05   -0.28870E-05  2859   0.632E-03
  90 F= -.23223878E+04 E0= -.23223878E+04  d E =-.103068E-02  mag=     2.0000
       N       E                     dE             d eps       ncg     rms          rms(c)
DAV:   1    -0.230206130094E+04    0.14338E-02   -0.16750E-01  4432   0.414E-01    0.125E-01
RMM:   2    -0.230206277682E+04   -0.14759E-02   -0.15806E-02  5989   0.847E-02    0.102E-01
RMM:   3    -0.230206289583E+04   -0.11902E-03   -0.13833E-03  4334   0.271E-02    0.131E-01
RMM:   4    -0.230206274267E+04    0.15317E-03   -0.19422E-04  3116   0.858E-03    0.407E-02
RMM:   5    -0.230206272459E+04    0.18077E-04   -0.74952E-05  3158   0.654E-03    0.150E-02
RMM:   6    -0.230206272313E+04    0.14583E-05   -0.16538E-05  2849   0.521E-03
  91 F= -.23223879E+04 E0= -.23223879E+04  d E =-.117236E-02  mag=     2.0000
       N       E                     dE             d eps       ncg     rms          rms(c)
DAV:   1    -0.230206087849E+04    0.18461E-02   -0.31322E-01  4400   0.562E-01    0.167E-01
RMM:   2    -0.230206362992E+04   -0.27514E-02   -0.29940E-02  5984   0.114E-01    0.994E-02
RMM:   3    -0.230206382446E+04   -0.19455E-03   -0.24523E-03  4757   0.356E-02    0.139E-01
RMM:   4    -0.230206367613E+04    0.14833E-03   -0.32152E-04  3294   0.985E-03    0.589E-02
RMM:   5    -0.230206363932E+04    0.36816E-04   -0.11730E-04  3549   0.798E-03    0.216E-02
RMM:   6    -0.230206363779E+04    0.15233E-05   -0.28418E-05  2866   0.589E-03
  92 F= -.23223890E+04 E0= -.23223890E+04  d E =-.109500E-02  mag=     2.0000
       N       E                     dE             d eps       ncg     rms          rms(c)
DAV:   1    -0.230205936209E+04    0.42772E-02   -0.49953E-01  4392   0.710E-01    0.211E-01
RMM:   2    -0.230206374562E+04   -0.43835E-02   -0.47715E-02  5949   0.143E-01    0.126E-01
RMM:   3    -0.230206405375E+04   -0.30813E-03   -0.39019E-03  5077   0.441E-02    0.175E-01
RMM:   4    -0.230206381725E+04    0.23650E-03   -0.50801E-04  3700   0.120E-02    0.746E-02
RMM:   5    -0.230206375793E+04    0.59325E-04   -0.19036E-04  3951   0.974E-03    0.275E-02
RMM:   6    -0.230206375489E+04    0.30402E-05   -0.44365E-05  2932   0.685E-03
  93 F= -.23223894E+04 E0= -.23223894E+04  d E =-.144100E-02  mag=     2.0000
       N       E                     dE             d eps       ncg     rms          rms(c)
DAV:   1    -0.230206192343E+04    0.18345E-02   -0.33119E-01  4400   0.569E-01    0.165E-01
RMM:   2    -0.230206467787E+04   -0.27544E-02   -0.30308E-02  5969   0.113E-01    0.807E-02
RMM:   3    -0.230206476283E+04   -0.84964E-04   -0.23860E-03  4777   0.363E-02    0.554E-02
RMM:   4    -0.230206478703E+04   -0.24195E-04   -0.33041E-04  3614   0.106E-02    0.749E-02
RMM:   5    -0.230206475082E+04    0.36212E-04   -0.11368E-04  3086   0.789E-03    0.413E-02
RMM:   6    -0.230206473659E+04    0.14226E-04   -0.28181E-05  2831   0.520E-03    0.860E-03
RMM:   7    -0.230206473664E+04   -0.47003E-07   -0.74582E-06  2831   0.363E-03
  94 F= -.23223905E+04 E0= -.23223905E+04  d E =-.114297E-02  mag=     2.0000
       N       E                     dE             d eps       ncg     rms          rms(c)
DAV:   1    -0.230206157848E+04    0.31581E-02   -0.40792E-01  4392   0.632E-01    0.182E-01
RMM:   2    -0.230206495087E+04   -0.33724E-02   -0.37032E-02  5937   0.125E-01    0.893E-02
RMM:   3    -0.230206506569E+04   -0.11483E-03   -0.30408E-03  4850   0.390E-02    0.638E-02
RMM:   4    -0.230206509215E+04   -0.26453E-04   -0.40987E-04  3702   0.115E-02    0.822E-02
RMM:   5    -0.230206504898E+04    0.43168E-04   -0.14676E-04  3288   0.854E-03    0.488E-02
RMM:   6    -0.230206502718E+04    0.21803E-04   -0.38927E-05  2889   0.571E-03    0.991E-03
RMM:   7    -0.230206502698E+04    0.19198E-06   -0.96784E-06  2832   0.416E-03
  95 F= -.23223910E+04 E0= -.23223910E+04  d E =-.161330E-02  mag=     2.0000
       N       E                     dE             d eps       ncg     rms          rms(c)
DAV:   1    -0.230206343191E+04    0.15953E-02   -0.38617E-01  4416   0.610E-01    0.186E-01
RMM:   2    -0.230206638665E+04   -0.29547E-02   -0.32668E-02  5870   0.119E-01    0.919E-02
RMM:   3    -0.230206652556E+04   -0.13891E-03   -0.26956E-03  5001   0.382E-02    0.113E-01
RMM:   4    -0.230206646584E+04    0.59718E-04   -0.35492E-04  3293   0.100E-02    0.668E-02
RMM:   5    -0.230206641530E+04    0.50543E-04   -0.14917E-04  3908   0.920E-03    0.269E-02
RMM:   6    -0.230206641060E+04    0.47008E-05   -0.32069E-05  2943   0.647E-03
  96 F= -.23223925E+04 E0= -.23223925E+04  d E =-.150230E-02  mag=     2.0000
       N       E                     dE             d eps       ncg     rms          rms(c)
DAV:   1    -0.230206425436E+04    0.21609E-02   -0.31060E-01  4416   0.548E-01    0.168E-01
RMM:   2    -0.230206662921E+04   -0.23748E-02   -0.26354E-02  5868   0.107E-01    0.814E-02
RMM:   3    -0.230206672777E+04   -0.98560E-04   -0.21749E-03  4854   0.338E-02    0.913E-02
RMM:   4    -0.230206670330E+04    0.24476E-04   -0.28764E-04  3167   0.903E-03    0.653E-02
RMM:   5    -0.230206665658E+04    0.46721E-04   -0.11960E-04  3701   0.816E-03    0.247E-02
RMM:   6    -0.230206665202E+04    0.45569E-05   -0.25737E-05  2903   0.587E-03
  97 F= -.23223928E+04 E0= -.23223928E+04  d E =-.185147E-02  mag=     2.0000
       N       E                     dE             d eps       ncg     rms          rms(c)
DAV:   1    -0.230206510560E+04    0.15510E-02   -0.32187E-01  4396   0.544E-01    0.157E-01
RMM:   2    -0.230206779307E+04   -0.26875E-02   -0.29557E-02  6003   0.107E-01    0.808E-02
RMM:   3    -0.230206791070E+04   -0.11763E-03   -0.24729E-03  4820   0.341E-02    0.837E-02
RMM:   4    -0.230206790401E+04    0.66903E-05   -0.31052E-04  3043   0.880E-03    0.663E-02
RMM:   5    -0.230206786040E+04    0.43615E-04   -0.10819E-04  3218   0.747E-03    0.283E-02
RMM:   6    -0.230206785557E+04    0.48233E-05   -0.29602E-05  2949   0.554E-03
  98 F= -.23223941E+04 E0= -.23223941E+04  d E =-.129840E-02  mag=     2.0000
       N       E                     dE             d eps       ncg     rms          rms(c)
DAV:   1    -0.230204616663E+04    0.21694E-01   -0.26697E+00  4392   0.157E+00    0.452E-01
RMM:   2    -0.230206834063E+04   -0.22174E-01   -0.24368E-01  5946   0.308E-01    0.232E-01
RMM:   3    -0.230206931315E+04   -0.97253E-03   -0.20993E-02  5540   0.915E-02    0.231E-01
RMM:   4    -0.230206931908E+04   -0.59309E-05   -0.25896E-03  5222   0.225E-02    0.197E-01
RMM:   5    -0.230206896079E+04    0.35829E-03   -0.90870E-04  4978   0.185E-02    0.948E-02
RMM:   6    -0.230206889394E+04    0.66852E-04   -0.26008E-04  4630   0.115E-02    0.250E-02
RMM:   7    -0.230206888903E+04    0.49081E-05   -0.34697E-05  2929   0.618E-03
  99 F= -.23223955E+04 E0= -.23223955E+04  d E =-.261387E-02  mag=     2.0000
       N       E                     dE             d eps       ncg     rms          rms(c)
DAV:   1    -0.230206853525E+04    0.35869E-03   -0.12403E-01  4608   0.333E-01    0.982E-02
RMM:   2    -0.230206968970E+04   -0.11545E-02   -0.12648E-02  6040   0.685E-02    0.501E-02
RMM:   3    -0.230206973353E+04   -0.43831E-04   -0.10588E-03  3692   0.208E-02    0.355E-02
RMM:   4    -0.230206973475E+04   -0.12149E-05   -0.13383E-04  2883   0.620E-03    0.282E-02
RMM:   5    -0.230206974193E+04   -0.71833E-05   -0.38560E-05  2857   0.436E-03
 100 F= -.23223964E+04 E0= -.23223964E+04  d E =-.940106E-03  mag=     2.0000
       N       E                     dE             d eps       ncg     rms          rms(c)
DAV:   1    -0.230206120817E+04    0.85266E-02   -0.11108E+00  4392   0.996E-01    0.292E-01
RMM:   2    -0.230207147449E+04   -0.10266E-01   -0.11264E-01  6096   0.202E-01    0.150E-01
RMM:   3    -0.230207186032E+04   -0.38583E-03   -0.94902E-03  5437   0.591E-02    0.112E-01
RMM:   4    -0.230207196453E+04   -0.10422E-03   -0.12800E-03  4237   0.165E-02    0.136E-01
RMM:   5    -0.230207184142E+04    0.12311E-03   -0.34894E-04  3728   0.110E-02    0.846E-02
RMM:   6    -0.230207178509E+04    0.56332E-04   -0.11188E-04  3784   0.771E-03    0.171E-02
RMM:   7    -0.230207178457E+04    0.52038E-06   -0.17979E-05  2864   0.511E-03
 101 F= -.23223987E+04 E0= -.23223987E+04  d E =-.324876E-02  mag=     2.0000
       N       E                     dE             d eps       ncg     rms          rms(c)
DAV:   1    -0.230203133173E+04    0.40453E-01   -0.44504E+00  4392   0.199E+00    0.585E-01
RMM:   2    -0.230207246418E+04   -0.41132E-01   -0.45099E-01  6079   0.406E-01    0.305E-01
RMM:   3    -0.230207423478E+04   -0.17706E-02   -0.39578E-02  5553   0.119E-01    0.249E-01
RMM:   4    -0.230207457874E+04   -0.34396E-03   -0.47203E-03  5489   0.303E-02    0.294E-01
RMM:   5    -0.230207390804E+04    0.67069E-03   -0.15301E-03  5112   0.207E-02    0.134E-01
RMM:   6    -0.230207376044E+04    0.14760E-03   -0.47243E-04  4836   0.134E-02    0.367E-02
RMM:   7    -0.230207375719E+04    0.32550E-05   -0.70267E-05  3129   0.837E-03
[...]
RMM:   6    -0.230228515159E+04    0.11027E-04   -0.66114E-05  3356   0.842E-03    0.137E-02
RMM:   7    -0.230228514999E+04    0.16015E-05   -0.11696E-05  2835   0.485E-03
 173 F= -.23225952E+04 E0= -.23225952E+04  d E =-.210234E-02  mag=     2.0000
       N       E                     dE             d eps       ncg     rms          rms(c)
DAV:   1    -0.230228386454E+04    0.12871E-02   -0.43335E-01  4464   0.696E-01    0.191E-01
RMM:   2    -0.230228728903E+04   -0.34245E-02   -0.34563E-02  5877   0.126E-01    0.206E-01
RMM:   3    -0.230228720465E+04    0.84376E-04   -0.29109E-03  5220   0.445E-02    0.150E-01
RMM:   4    -0.230228697847E+04    0.22618E-03   -0.37687E-04  4566   0.120E-02    0.516E-02
RMM:   5    -0.230228693457E+04    0.43905E-04   -0.14705E-04  4066   0.101E-02    0.220E-02
RMM:   6    -0.230228693145E+04    0.31156E-05   -0.32754E-05  2889   0.683E-03
 174 F= -.23225967E+04 E0= -.23225967E+04  d E =-.144467E-02  mag=     2.0000
       N       E                     dE             d eps       ncg     rms          rms(c)
DAV:   1    -0.230228601077E+04    0.92380E-03   -0.18387E-01  4560   0.454E-01    0.126E-01
RMM:   2    -0.230228747829E+04   -0.14675E-02   -0.14816E-02  5950   0.836E-02    0.135E-01
RMM:   3    -0.230228744793E+04    0.30353E-04   -0.12994E-03  4662   0.289E-02    0.989E-02
RMM:   4    -0.230228734918E+04    0.98749E-04   -0.15737E-04  3195   0.842E-03    0.343E-02
RMM:   5    -0.230228733045E+04    0.18738E-04   -0.70052E-05  3497   0.722E-03    0.144E-02
RMM:   6    -0.230228732916E+04    0.12847E-05   -0.15490E-05  2843   0.562E-03
 175 F= -.23225968E+04 E0= -.23225968E+04  d E =-.162312E-02  mag=     2.0000
       N       E                     dE             d eps       ncg     rms          rms(c)
DAV:   1    -0.230228638312E+04    0.94732E-03   -0.33910E-01  4400   0.615E-01    0.178E-01
RMM:   2    -0.230228946503E+04   -0.30819E-02   -0.29485E-02  5985   0.116E-01    0.235E-01
RMM:   3    -0.230228916545E+04    0.29958E-03   -0.25697E-03  5134   0.394E-02    0.122E-01
RMM:   4    -0.230228901195E+04    0.15351E-03   -0.30705E-04  4280   0.107E-02    0.457E-02
RMM:   5    -0.230228897798E+04    0.33971E-04   -0.11337E-04  3922   0.900E-03    0.196E-02
RMM:   6    -0.230228897383E+04    0.41510E-05   -0.30757E-05  2857   0.645E-03
 176 F= -.23225982E+04 E0= -.23225982E+04  d E =-.133996E-02  mag=     2.0000
       N       E                     dE             d eps       ncg     rms          rms(c)
DAV:   1    -0.230228753867E+04    0.14393E-02   -0.25881E-01  4432   0.538E-01    0.157E-01
RMM:   2    -0.230228992023E+04   -0.23816E-02   -0.22674E-02  6042   0.103E-01    0.209E-01
RMM:   3    -0.230228967234E+04    0.24789E-03   -0.19684E-03  5061   0.331E-02    0.107E-01
RMM:   4    -0.230228955420E+04    0.11814E-03   -0.23375E-04  3761   0.958E-03    0.402E-02
RMM:   5    -0.230228952772E+04    0.26473E-04   -0.91271E-05  3720   0.801E-03    0.173E-02
RMM:   6    -0.230228952383E+04    0.38914E-05   -0.24026E-05  2833   0.620E-03
 177 F= -.23225985E+04 E0= -.23225985E+04  d E =-.162436E-02  mag=     2.0000
       N       E                     dE             d eps       ncg     rms          rms(c)
DAV:   1    -0.230228906019E+04    0.46753E-03   -0.33390E-01  4392   0.609E-01    0.169E-01
RMM:   2    -0.230229159331E+04   -0.25331E-02   -0.24580E-02  5985   0.113E-01    0.208E-01
RMM:   3    -0.230229137738E+04    0.21593E-03   -0.19544E-03  5101   0.373E-02    0.123E-01
RMM:   4    -0.230229122650E+04    0.15088E-03   -0.25493E-04  4277   0.104E-02    0.440E-02
RMM:   5    -0.230229119675E+04    0.29750E-04   -0.10795E-04  3966   0.905E-03    0.172E-02
RMM:   6    -0.230229119491E+04    0.18450E-05   -0.22973E-05  2840   0.619E-03
 178 F= -.23225998E+04 E0= -.23225998E+04  d E =-.129030E-02  mag=     2.0000
       N       E                     dE             d eps       ncg     rms          rms(c)
DAV:   1    -0.230229043242E+04    0.76433E-03   -0.19605E-01  4464   0.467E-01    0.130E-01
RMM:   2    -0.230229192667E+04   -0.14942E-02   -0.14518E-02  5987   0.875E-02    0.159E-01
RMM:   3    -0.230229180367E+04    0.12300E-03   -0.11515E-03  4677   0.280E-02    0.951E-02
RMM:   4    -0.230229171281E+04    0.90854E-04   -0.14652E-04  3307   0.841E-03    0.341E-02
RMM:   5    -0.230229169455E+04    0.18257E-04   -0.69377E-05  3619   0.739E-03    0.134E-02
RMM:   6    -0.230229169316E+04    0.13929E-05   -0.14645E-05  2832   0.564E-03
 179 F= -.23226000E+04 E0= -.23226000E+04  d E =-.149746E-02  mag=     2.0000
       N       E                     dE             d eps       ncg     rms          rms(c)
DAV:   1    -0.230229185666E+04   -0.16210E-03   -0.38166E-01  4392   0.643E-01    0.166E-01
RMM:   2    -0.230229362606E+04   -0.17694E-02   -0.18448E-02  5766   0.112E-01    0.146E-01
RMM:   3    -0.230229365470E+04   -0.28636E-04   -0.14225E-03  5079   0.369E-02    0.152E-01
RMM:   4    -0.230229343094E+04    0.22376E-03   -0.23428E-04  4556   0.108E-02    0.435E-02
RMM:   5    -0.230229340465E+04    0.26288E-04   -0.11903E-04  4019   0.973E-03    0.149E-02
RMM:   6    -0.230229340453E+04    0.12211E-06   -0.16873E-05  2849   0.604E-03
 180 F= -.23226013E+04 E0= -.23226013E+04  d E =-.132703E-02  mag=     2.0000
       N       E                     dE             d eps       ncg     rms          rms(c)
DAV:   1    -0.230229301372E+04    0.39092E-03   -0.22950E-01  4400   0.499E-01    0.129E-01
RMM:   2    -0.230229407758E+04   -0.10639E-02   -0.11084E-02  5775   0.873E-02    0.112E-01
RMM:   3    -0.230229410226E+04   -0.24683E-04   -0.84468E-04  4718   0.270E-02    0.119E-01
RMM:   4    -0.230229396533E+04    0.13693E-03   -0.13866E-04  3552   0.869E-03    0.341E-02
RMM:   5    -0.230229394942E+04    0.15911E-04   -0.78147E-05  3830   0.796E-03    0.118E-02
RMM:   6    -0.230229394937E+04    0.43641E-07   -0.11090E-05  2838   0.548E-03
 181 F= -.23226015E+04 E0= -.23226015E+04  d E =-.157489E-02  mag=     2.0000
       N       E                     dE             d eps       ncg     rms          rms(c)
DAV:   1    -0.230229417443E+04   -0.22501E-03   -0.38280E-01  4392   0.637E-01    0.166E-01
RMM:   2    -0.230229569515E+04   -0.15207E-02   -0.16295E-02  5708   0.111E-01    0.127E-01
RMM:   3    -0.230229578001E+04   -0.84852E-04   -0.12763E-03  5043   0.362E-02    0.156E-01
RMM:   4    -0.230229554766E+04    0.23234E-03   -0.25276E-04  4508   0.107E-02    0.438E-02
RMM:   5    -0.230229552095E+04    0.26710E-04   -0.11314E-04  4012   0.956E-03    0.189E-02
RMM:   6    -0.230229551948E+04    0.14721E-05   -0.19900E-05  2846   0.603E-03
 182 F= -.23226028E+04 E0= -.23226028E+04  d E =-.127646E-02  mag=     2.0000
       N       E                     dE             d eps       ncg     rms          rms(c)
DAV:   1    -0.230229522765E+04    0.29330E-03   -0.19694E-01  4464   0.457E-01    0.119E-01
RMM:   2    -0.230229601927E+04   -0.79162E-03   -0.84899E-03  5709   0.798E-02    0.901E-02
RMM:   3    -0.230229606353E+04   -0.44262E-04   -0.65180E-04  4593   0.245E-02    0.113E-01
RMM:   4    -0.230229594279E+04    0.12074E-03   -0.12739E-04  3271   0.813E-03    0.319E-02
RMM:   5    -0.230229592782E+04    0.14975E-04   -0.65801E-05  3696   0.740E-03    0.140E-02
RMM:   6    -0.230229592678E+04    0.10347E-05   -0.11785E-05  2841   0.536E-03
 183 F= -.23226030E+04 E0= -.23226030E+04  d E =-.147392E-02  mag=     2.0000
       N       E                     dE             d eps       ncg     rms          rms(c)
DAV:   1    -0.230229552058E+04    0.40724E-03   -0.42338E-01  4392   0.663E-01    0.173E-01
RMM:   2    -0.230229778418E+04   -0.22636E-02   -0.22949E-02  5837   0.120E-01    0.177E-01
RMM:   3    -0.230229769929E+04    0.84890E-04   -0.17518E-03  5104   0.373E-02    0.144E-01
RMM:   4    -0.230229749880E+04    0.20049E-03   -0.27357E-04  4533   0.112E-02    0.473E-02
RMM:   5    -0.230229746819E+04    0.30611E-04   -0.12266E-04  3998   0.976E-03    0.190E-02
RMM:   6    -0.230229746616E+04    0.20329E-05   -0.23220E-05  2855   0.632E-03
 184 F= -.23226043E+04 E0= -.23226043E+04  d E =-.125561E-02  mag=     2.0000
       N       E                     dE             d eps       ncg     rms          rms(c)
DAV:   1    -0.230229668510E+04    0.78309E-03   -0.26058E-01  4400   0.520E-01    0.137E-01
RMM:   2    -0.230229809096E+04   -0.14059E-02   -0.14226E-02  5841   0.952E-02    0.140E-01
RMM:   3    -0.230229803486E+04    0.56101E-04   -0.10776E-03  4830   0.274E-02    0.113E-01
RMM:   4    -0.230229790950E+04    0.12536E-03   -0.16487E-04  3711   0.904E-03    0.374E-02
RMM:   5    -0.230229789064E+04    0.18863E-04   -0.84886E-05  3847   0.807E-03    0.151E-02
RMM:   6    -0.230229788920E+04    0.14367E-05   -0.14918E-05  2845   0.565E-03
 185 F= -.23226045E+04 E0= -.23226045E+04  d E =-.145690E-02  mag=     2.0000
       N       E                     dE             d eps       ncg     rms          rms(c)
DAV:   1    -0.230229647971E+04    0.14109E-02   -0.47594E-01  4424   0.695E-01    0.195E-01
RMM:   2    -0.230230005980E+04   -0.35801E-02   -0.34018E-02  5961   0.134E-01    0.255E-01
RMM:   3    -0.230229963128E+04    0.42852E-03   -0.26115E-03  5216   0.407E-02    0.129E-01
RMM:   4    -0.230229946702E+04    0.16426E-03   -0.36461E-04  4406   0.115E-02    0.513E-02
RMM:   5    -0.230229942901E+04    0.38005E-04   -0.12618E-04  3991   0.962E-03    0.207E-02
RMM:   6    -0.230229942443E+04    0.45812E-05   -0.32523E-05  2880   0.675E-03
 186 F= -.23226057E+04 E0= -.23226057E+04  d E =-.127365E-02  mag=     2.0000
       N       E                     dE             d eps       ncg     rms          rms(c)
DAV:   1    -0.230229769396E+04    0.17350E-02   -0.34326E-01  4432   0.591E-01    0.166E-01
RMM:   2    -0.230230031506E+04   -0.26211E-02   -0.24815E-02  5981   0.115E-01    0.220E-01
RMM:   3    -0.230229998637E+04    0.32869E-03   -0.18883E-03  5093   0.327E-02    0.109E-01
RMM:   4    -0.230229986852E+04    0.11785E-03   -0.26157E-04  3941   0.997E-03    0.439E-02
RMM:   5    -0.230229984096E+04    0.27559E-04   -0.97356E-05  3851   0.831E-03    0.179E-02
RMM:   6    -0.230229983699E+04    0.39700E-05   -0.23633E-05  2837   0.622E-03
 187 F= -.23226059E+04 E0= -.23226059E+04  d E =-.146527E-02  mag=     2.0000
       N       E                     dE             d eps       ncg     rms          rms(c)
DAV:   1    -0.230229810400E+04    0.17370E-02   -0.44924E-01  4424   0.665E-01    0.184E-01
RMM:   2    -0.230230206297E+04   -0.39590E-02   -0.36104E-02  6062   0.131E-01    0.288E-01
RMM:   3    -0.230230139776E+04    0.66521E-03   -0.27557E-03  5228   0.386E-02    0.101E-01
RMM:   4    -0.230230130839E+04    0.89371E-04   -0.37141E-04  4041   0.107E-02    0.513E-02
RMM:   5    -0.230230127286E+04    0.35527E-04   -0.11889E-04  3977   0.903E-03    0.221E-02
RMM:   6    -0.230230126729E+04    0.55657E-05   -0.32065E-05  2872   0.680E-03
 188 F= -.23226072E+04 E0= -.23226072E+04  d E =-.123538E-02  mag=     2.0000
       N       E                     dE             d eps       ncg     rms          rms(c)
DAV:   1    -0.230229723942E+04    0.40334E-02   -0.65735E-01  4424   0.805E-01    0.223E-01
RMM:   2    -0.230230303238E+04   -0.57930E-02   -0.52756E-02  6007   0.158E-01    0.349E-01
RMM:   3    -0.230230205350E+04    0.97888E-03   -0.40112E-03  5383   0.450E-02    0.122E-01
RMM:   4    -0.230230192152E+04    0.13198E-03   -0.53881E-04  4391   0.126E-02    0.620E-02
RMM:   5    -0.230230186849E+04    0.53025E-04   -0.17235E-04  4197   0.107E-02    0.267E-02
RMM:   6    -0.230230185964E+04    0.88543E-05   -0.46031E-05  2938   0.775E-03
 189 F= -.23226075E+04 E0= -.23226075E+04  d E =-.159474E-02  mag=     2.0000
       N       E                     dE             d eps       ncg     rms          rms(c)
DAV:   1    -0.230229973306E+04    0.21354E-02   -0.64287E-01  4424   0.801E-01    0.224E-01
RMM:   2    -0.230230457881E+04   -0.48458E-02   -0.44590E-02  5960   0.154E-01    0.315E-01
RMM:   3    -0.230230381890E+04    0.75991E-03   -0.34568E-03  5432   0.456E-02    0.132E-01
RMM:   4    -0.230230364632E+04    0.17258E-03   -0.44422E-04  4444   0.127E-02    0.579E-02
RMM:   5    -0.230230359963E+04    0.46691E-04   -0.17303E-04  4246   0.112E-02    0.211E-02
RMM:   6    -0.230230359721E+04    0.24196E-05   -0.32042E-05  2871   0.716E-03
 190 F= -.23226090E+04 E0= -.23226090E+04  d E =-.150494E-02  mag=     2.0000
       N       E                     dE             d eps       ncg     rms          rms(c)
DAV:   1    -0.230230196709E+04    0.16325E-02   -0.33743E-01  4496   0.580E-01    0.162E-01
RMM:   2    -0.230230450437E+04   -0.25373E-02   -0.23428E-02  5975   0.112E-01    0.226E-01
RMM:   3    -0.230230412220E+04    0.38217E-03   -0.18285E-03  5033   0.334E-02    0.967E-02
RMM:   4    -0.230230402999E+04    0.92216E-04   -0.23284E-04  3859   0.954E-03    0.423E-02
RMM:   5    -0.230230400482E+04    0.25171E-04   -0.92973E-05  3872   0.847E-03    0.153E-02
RMM:   6    -0.230230400350E+04    0.13145E-05   -0.17972E-05  2833   0.598E-03
 191 F= -.23226093E+04 E0= -.23226093E+04  d E =-.174446E-02  mag=     2.0000
       N       E                     dE             d eps       ncg     rms          rms(c)
DAV:   1    -0.230230218738E+04    0.18174E-02   -0.74153E-01  4424   0.851E-01    0.228E-01
RMM:   2    -0.230230653680E+04   -0.43494E-02   -0.41918E-02  5876   0.159E-01    0.270E-01
RMM:   3    -0.230230610968E+04    0.42712E-03   -0.32838E-03  5395   0.475E-02    0.161E-01
RMM:   4    -0.230230585434E+04    0.25534E-03   -0.44110E-04  4658   0.138E-02    0.613E-02
RMM:   5    -0.230230580549E+04    0.48855E-04   -0.20395E-04  4361   0.123E-02    0.217E-02
RMM:   6    -0.230230580403E+04    0.14613E-05   -0.28384E-05  2889   0.693E-03
 192 F= -.23226110E+04 E0= -.23226110E+04  d E =-.167872E-02  mag=     2.0000
       N       E                     dE             d eps       ncg     rms          rms(c)
DAV:   1    -0.230230504618E+04    0.75931E-03   -0.19569E-01  4496   0.437E-01    0.118E-01
RMM:   2    -0.230230620697E+04   -0.11608E-02   -0.11165E-02  5951   0.823E-02    0.140E-01
RMM:   3    -0.230230609125E+04    0.11573E-03   -0.85315E-04  4457   0.239E-02    0.829E-02
RMM:   4    -0.230230602302E+04    0.68224E-04   -0.11289E-04  3170   0.782E-03    0.320E-02
RMM:   5    -0.230230600949E+04    0.13528E-04   -0.60744E-05  3553   0.716E-03    0.113E-02
RMM:   6    -0.230230600914E+04    0.35153E-06   -0.93483E-06  2840   0.515E-03
 193 F= -.23226111E+04 E0= -.23226111E+04  d E =-.182246E-02  mag=     2.0000
       N       E                     dE             d eps       ncg     rms          rms(c)
DAV:   1    -0.230230495098E+04    0.10585E-02   -0.68499E-01  4424   0.817E-01    0.221E-01
RMM:   2    -0.230230785613E+04   -0.29052E-02   -0.29921E-02  5742   0.147E-01    0.195E-01
RMM:   3    -0.230230786075E+04   -0.46108E-05   -0.23617E-03  5344   0.456E-02    0.195E-01
RMM:   4    -0.230230748353E+04    0.37722E-03   -0.43087E-04  4851   0.139E-02    0.582E-02
RMM:   5    -0.230230744085E+04    0.42671E-04   -0.19797E-04  4255   0.121E-02    0.212E-02
RMM:   6    -0.230230743941E+04    0.14464E-05   -0.29025E-05  2877   0.697E-03
 194 F= -.23226125E+04 E0= -.23226125E+04  d E =-.144050E-02  mag=     2.0000
       N       E                     dE             d eps       ncg     rms          rms(c)
DAV:   1    -0.230230625119E+04    0.11897E-02   -0.29739E-01  4464   0.539E-01    0.146E-01
RMM:   2    -0.230230752977E+04   -0.12786E-02   -0.13125E-02  5755   0.971E-02    0.130E-01
RMM:   3    -0.230230752900E+04    0.77624E-06   -0.10162E-03  4857   0.289E-02    0.129E-01
RMM:   4    -0.230230736361E+04    0.16539E-03   -0.18591E-04  4041   0.950E-03    0.388E-02
RMM:   5    -0.230230734392E+04    0.19696E-04   -0.90119E-05  3882   0.853E-03    0.141E-02
RMM:   6    -0.230230734337E+04    0.54360E-06   -0.14014E-05  2849   0.550E-03
 195 F= -.23226125E+04 E0= -.23226125E+04  d E =-.135228E-02  mag=     2.0000
       N       E                     dE             d eps       ncg     rms          rms(c)
DAV:   1    -0.230230721242E+04    0.13150E-03   -0.80536E-02  4528   0.280E-01    0.750E-02
RMM:   2    -0.230230754591E+04   -0.33350E-03   -0.34686E-03  5847   0.505E-02    0.658E-02
RMM:   3    -0.230230754641E+04   -0.49466E-06   -0.27847E-04  3790   0.166E-02    0.657E-02
RMM:   4    -0.230230750294E+04    0.43472E-04   -0.48325E-05  2881   0.597E-03    0.199E-02
RMM:   5    -0.230230749813E+04    0.48034E-05   -0.26503E-05  2875   0.507E-03
 196 F= -.23226126E+04 E0= -.23226126E+04  d E =-.150288E-02  mag=     2.0000
       N       E                     dE             d eps       ncg     rms          rms(c)
DAV:   1    -0.230230659685E+04    0.90609E-03   -0.62425E-01  4384   0.782E-01    0.218E-01
RMM:   2    -0.230230912821E+04   -0.25314E-02   -0.26889E-02  5729   0.140E-01    0.173E-01
RMM:   3    -0.230230921791E+04   -0.89704E-04   -0.21547E-03  5307   0.450E-02    0.203E-01
RMM:   4    -0.230230881242E+04    0.40549E-03   -0.43752E-04  4906   0.137E-02    0.566E-02
RMM:   5    -0.230230876595E+04    0.46475E-04   -0.18131E-04  4202   0.116E-02    0.187E-02
RMM:   6    -0.230230876497E+04    0.97125E-06   -0.28433E-05  2868   0.703E-03
 197 F= -.23226138E+04 E0= -.23226138E+04  d E =-.118821E-02  mag=     2.0000
       N       E                     dE             d eps       ncg     rms          rms(c)
DAV:   1    -0.230230864991E+04    0.11604E-03   -0.36410E-02  4744   0.189E-01    0.541E-02
RMM:   2    -0.230230880533E+04   -0.15542E-03   -0.16253E-03  5893   0.354E-02    0.430E-02
RMM:   3    -0.230230881023E+04   -0.48951E-05   -0.12823E-04  3249   0.109E-02    0.509E-02
RMM:   4    -0.230230878512E+04    0.25106E-04   -0.26435E-05  2833   0.466E-03    0.141E-02
RMM:   5    -0.230230878236E+04    0.27641E-05   -0.13589E-05  2832   0.363E-03
 198 F= -.23226138E+04 E0= -.23226138E+04  d E =-.118681E-02  mag=     2.0000
       N       E                     dE             d eps       ncg     rms          rms(c)
DAV:   1    -0.230230750835E+04    0.12768E-02   -0.57480E-01  4392   0.756E-01    0.215E-01
RMM:   2    -0.230231051306E+04   -0.30047E-02   -0.30140E-02  5884   0.141E-01    0.213E-01
RMM:   3    -0.230231039605E+04    0.11701E-03   -0.23750E-03  5348   0.439E-02    0.182E-01
RMM:   4    -0.230231006108E+04    0.33498E-03   -0.36771E-04  4731   0.131E-02    0.536E-02
RMM:   5    -0.230231001874E+04    0.42334E-04   -0.16722E-04  4161   0.111E-02    0.181E-02
RMM:   6    -0.230231001784E+04    0.90009E-06   -0.28604E-05  2868   0.685E-03
 199 F= -.23226149E+04 E0= -.23226149E+04  d E =-.109817E-02  mag=     2.0000
       N       E                     dE             d eps       ncg     rms          rms(c)
DAV:   1    -0.230230934674E+04    0.67200E-03   -0.14868E-01  4480   0.385E-01    0.111E-01
RMM:   2    -0.230231014305E+04   -0.79631E-03   -0.78968E-03  5924   0.724E-02    0.113E-01
RMM:   3    -0.230231010160E+04    0.41446E-04   -0.63077E-04  4298   0.222E-02    0.930E-02
RMM:   4    -0.230231001342E+04    0.88180E-04   -0.92010E-05  3082   0.747E-03    0.275E-02
RMM:   5    -0.230231000182E+04    0.11605E-04   -0.48736E-05  3287   0.641E-03    0.930E-03
RMM:   6    -0.230231000151E+04    0.30230E-06   -0.97894E-06  2831   0.498E-03
 200 F= -.23226148E+04 E0= -.23226148E+04  d E =-.101292E-02  mag=     2.0000
       N       E                     dE             d eps       ncg     rms          rms(c)
DAV:   1    -0.230230987365E+04    0.12817E-03   -0.43945E-02  4528   0.209E-01    0.588E-02
RMM:   2    -0.230231009823E+04   -0.22459E-03   -0.22684E-03  5888   0.389E-02    0.583E-02
RMM:   3    -0.230231008882E+04    0.94117E-05   -0.18017E-04  3398   0.132E-02    0.492E-02
RMM:   4    -0.230231006441E+04    0.24413E-04   -0.28285E-05  2835   0.477E-03    0.148E-02
RMM:   5    -0.230231006162E+04    0.27882E-05   -0.15043E-05  2827   0.381E-03
 201 F= -.23226149E+04 E0= -.23226149E+04  d E =-.111024E-02  mag=     2.0000
