       N       E                     dE             d eps       ncg     rms          rms(c)
DAV:   1     0.131155639889E+05    0.13116E+05   -0.84510E+05  4552   0.144E+03
DAV:   2    -0.101800097861E+04   -0.14134E+05   -0.13484E+05  4976   0.330E+02
DAV:   3    -0.249019974169E+04   -0.14722E+04   -0.14536E+04  5544   0.115E+02
DAV:   4    -0.253616489834E+04   -0.45965E+02   -0.45705E+02  6744   0.294E+01
DAV:   5    -0.253710751925E+04   -0.94262E+00   -0.94062E+00  6368   0.352E+00    0.171E+02
RMM:   6    -0.149922307652E+04    0.10379E+04   -0.19830E+03  4491   0.384E+01    0.731E+01
RMM:   7    -0.168332793836E+04   -0.18410E+03   -0.29948E+02  5208   0.147E+01    0.581E+01
RMM:   8    -0.171665359963E+04   -0.33326E+02   -0.89759E+01  5324   0.847E+00    0.464E+01
RMM:   9    -0.178465430796E+04   -0.68001E+02   -0.58154E+01  5037   0.750E+00    0.385E+01
RMM:  10    -0.188013631244E+04   -0.95482E+02   -0.57355E+01  5443   0.731E+00    0.325E+01
RMM:  11    -0.197814288998E+04   -0.98007E+02   -0.42027E+01  5402   0.589E+00    0.226E+01
RMM:  12    -0.203805741516E+04   -0.59915E+02   -0.22423E+01  5192   0.401E+00    0.218E+01
RMM:  13    -0.211081303844E+04   -0.72756E+02   -0.31261E+01  5026   0.436E+00    0.146E+01
RMM:  14    -0.221015543033E+04   -0.99342E+02   -0.62366E+01  4539   0.593E+00    0.101E+01
RMM:  15    -0.229910172873E+04   -0.88946E+02   -0.84416E+01  4723   0.643E+00    0.692E+00
RMM:  16    -0.232094991068E+04   -0.21848E+02   -0.23929E+01  4679   0.392E+00    0.450E+00
RMM:  17    -0.232862023352E+04   -0.76703E+01   -0.95382E+00  4973   0.198E+00    0.217E+00
RMM:  18    -0.233189120286E+04   -0.32710E+01   -0.32020E+00  5035   0.119E+00    0.141E+00
RMM:  19    -0.233257574812E+04   -0.68455E+00   -0.56307E-01  5284   0.551E-01    0.111E+00
RMM:  20    -0.233281366998E+04   -0.23792E+00   -0.13618E-01  5235   0.220E-01    0.738E-01
RMM:  21    -0.233292941350E+04   -0.11574E+00   -0.44339E-02  4676   0.150E-01    0.121E+00
RMM:  22    -0.233292965854E+04   -0.24504E-03   -0.44220E-03  5248   0.637E-02    0.117E+00
RMM:  23    -0.233298524091E+04   -0.55582E-01   -0.20510E-02  4483   0.946E-02    0.159E+00
RMM:  24    -0.233300037880E+04   -0.15138E-01   -0.55859E-03  4754   0.562E-02    0.186E+00
RMM:  25    -0.233298757269E+04    0.12806E-01   -0.63375E-03  4642   0.449E-02    0.104E+00
RMM:  26    -0.233299441752E+04   -0.68448E-02   -0.11830E-02  4669   0.719E-02    0.527E-01
RMM:  27    -0.233299085188E+04    0.35656E-02   -0.11425E-02  5423   0.677E-02    0.523E-01
RMM:  28    -0.233299943241E+04   -0.85805E-02   -0.33441E-03  5029   0.355E-02    0.429E-01
RMM:  29    -0.233301480373E+04   -0.15371E-01   -0.12377E-02  4738   0.673E-02    0.662E-01
RMM:  30    -0.233303077537E+04   -0.15972E-01   -0.14825E-02  4897   0.761E-02    0.133E+00
RMM:  31    -0.233302977566E+04    0.99970E-03   -0.92424E-04  4554   0.293E-02    0.126E+00
RMM:  32    -0.233303079427E+04   -0.10186E-02   -0.54169E-04  4210   0.145E-02    0.135E+00
RMM:  33    -0.233302802986E+04    0.27644E-02   -0.99636E-04  4808   0.186E-02    0.117E+00
RMM:  34    -0.233302518597E+04    0.28439E-02   -0.13628E-02  4874   0.633E-02    0.641E-01
RMM:  35    -0.233302520966E+04   -0.23690E-04   -0.47103E-03  4759   0.446E-02    0.646E-01
RMM:  36    -0.233302482305E+04    0.38661E-03   -0.22754E-03  5323   0.233E-02    0.643E-01
RMM:  37    -0.233302360432E+04    0.12187E-02   -0.22280E-03  4716   0.248E-02    0.666E-01
RMM:  38    -0.233302275629E+04    0.84803E-03   -0.74867E-04  4418   0.160E-02    0.705E-01
RMM:  39    -0.233302275310E+04    0.31893E-05   -0.10331E-04  3058   0.536E-03    0.706E-01
RMM:  40    -0.233302247925E+04    0.27385E-03   -0.52330E-05  3002   0.454E-03    0.699E-01
RMM:  41    -0.233302244332E+04    0.35938E-04   -0.81003E-06  2919   0.303E-03    0.693E-01
RMM:  42    -0.233301686745E+04    0.55759E-02   -0.82627E-03  5032   0.421E-02    0.905E-01
RMM:  43    -0.233300883274E+04    0.80347E-02   -0.51264E-03  4806   0.384E-02    0.115E+00
RMM:  44    -0.233300869881E+04    0.13393E-03   -0.46949E-04  3741   0.115E-02    0.114E+00
RMM:  45    -0.233300931749E+04   -0.61868E-03   -0.29336E-05  2969   0.444E-03    0.112E+00
RMM:  46    -0.233302018518E+04   -0.10868E-01   -0.58387E-03  4951   0.361E-02    0.107E+00
RMM:  47    -0.233305010690E+04   -0.29922E-01   -0.41845E-02  5190   0.100E-01    0.261E+00
RMM:  48    -0.233305171350E+04   -0.16066E-02   -0.41297E-03  4731   0.464E-02    0.264E+00
RMM:  49    -0.233305302179E+04   -0.13083E-02   -0.14434E-03  4844   0.144E-02    0.274E+00
RMM:  50    -0.233305365629E+04   -0.63450E-03   -0.97480E-05  3141   0.835E-03    0.273E+00
RMM:  51    -0.233303287306E+04    0.20783E-01   -0.46924E-02  5143   0.947E-02    0.145E+00
RMM:  52    -0.233298972821E+04    0.43145E-01   -0.79777E-02  5169   0.138E-01    0.244E+00
RMM:  53    -0.233297294208E+04    0.16786E-01   -0.13435E-02  5101   0.620E-02    0.271E+00
RMM:  54    -0.233296717092E+04    0.57712E-02   -0.23643E-03  5263   0.199E-02    0.280E+00
RMM:  55    -0.233299365623E+04   -0.26485E-01   -0.61020E-03  5040   0.370E-02    0.234E+00
RMM:  56    -0.233302561583E+04   -0.31960E-01   -0.19865E-02  5189   0.680E-02    0.174E+00
RMM:  57    -0.233307059863E+04   -0.44983E-01   -0.11647E-01  5266   0.158E-01    0.314E+00
RMM:  58    -0.233309451398E+04   -0.23915E-01   -0.53407E-02  5310   0.118E-01    0.319E+00
RMM:  59    -0.233308794618E+04    0.65678E-02   -0.38441E-03  5122   0.303E-02    0.324E+00
RMM:  60    -0.233308680500E+04    0.11412E-02   -0.37946E-04  3933   0.788E-03    0.320E+00
RMM:  61    -0.233309783609E+04   -0.11031E-01   -0.82774E-03  5253   0.404E-02    0.291E+00
RMM:  62    -0.233309999149E+04   -0.21554E-02   -0.55346E-04  3553   0.161E-02    0.293E+00
RMM:  63    -0.233308535970E+04    0.14632E-01   -0.10391E-02  5005   0.455E-02    0.323E+00
RMM:  64    -0.233308341889E+04    0.19408E-02   -0.57332E-04  3899   0.189E-02    0.318E+00
RMM:  65    -0.233307627849E+04    0.71404E-02   -0.14804E-03  4914   0.170E-02    0.309E+00
RMM:  66    -0.233307537158E+04    0.90692E-03   -0.35012E-04  3771   0.111E-02    0.307E+00
RMM:  67    -0.233307665155E+04   -0.12800E-02   -0.82514E-05  3004   0.583E-03    0.308E+00
RMM:  68    -0.233308212357E+04   -0.54720E-02   -0.97630E-04  4622   0.143E-02    0.309E+00
RMM:  69    -0.233308419474E+04   -0.20712E-02   -0.30382E-04  3585   0.104E-02    0.306E+00
RMM:  70    -0.233308576528E+04   -0.15705E-02   -0.13842E-04  3275   0.618E-03    0.306E+00
RMM:  71    -0.233309650586E+04   -0.10741E-01   -0.35260E-03  4989   0.262E-02    0.297E+00
RMM:  72    -0.233309751997E+04   -0.10141E-02   -0.25205E-04  3226   0.107E-02    0.296E+00
RMM:  73    -0.233309645985E+04    0.10601E-02   -0.36237E-05  2953   0.354E-03    0.297E+00
RMM:  74    -0.233309500160E+04    0.14582E-02   -0.58646E-05  2918   0.383E-03    0.297E+00
RMM:  75    -0.233308797327E+04    0.70283E-02   -0.14772E-03  4386   0.170E-02    0.297E+00
RMM:  76    -0.233309086465E+04   -0.28914E-02   -0.44657E-03  4832   0.299E-02    0.286E+00
RMM:  77    -0.233309424280E+04   -0.33781E-02   -0.56071E-04  3819   0.153E-02    0.282E+00
RMM:  78    -0.233309894122E+04   -0.46984E-02   -0.63214E-04  4288   0.112E-02    0.278E+00
RMM:  79    -0.233311214063E+04   -0.13199E-01   -0.31819E-03  4797   0.262E-02    0.262E+00
RMM:  80    -0.233311597015E+04   -0.38295E-02   -0.69921E-04  4054   0.148E-02    0.256E+00
RMM:  81    -0.233302432084E+04    0.91649E-01   -0.32439E-01  5212   0.248E-01    0.144E+00
RMM:  82    -0.233301400711E+04    0.10314E-01   -0.30241E-02  5045   0.113E-01    0.177E+00
RMM:  83    -0.233300708589E+04    0.69212E-02   -0.22090E-02  5575   0.596E-02    0.224E+00
RMM:  84    -0.233298457509E+04    0.22511E-01   -0.20453E-02  5150   0.709E-02    0.302E+00
RMM:  85    -0.233298902814E+04   -0.44530E-02   -0.17757E-03  4423   0.262E-02    0.294E+00
RMM:  86    -0.233299715597E+04   -0.81278E-02   -0.10180E-03  4188   0.155E-02    0.273E+00
RMM:  87    -0.233301543364E+04   -0.18278E-01   -0.44572E-03  4849   0.334E-02    0.242E+00
RMM:  88    -0.233301781671E+04   -0.23831E-02   -0.69443E-04  4215   0.157E-02    0.233E+00
RMM:  89    -0.233301310148E+04    0.47152E-02   -0.68677E-04  4327   0.135E-02    0.231E+00
RMM:  90    -0.233302131538E+04   -0.82139E-02   -0.42259E-03  5317   0.327E-02    0.191E+00
RMM:  91    -0.233301526689E+04    0.60485E-02   -0.17901E-03  5164   0.227E-02    0.180E+00
RMM:  92    -0.233303532297E+04   -0.20056E-01   -0.18149E-02  5328   0.630E-02    0.128E+00
RMM:  93    -0.233303950053E+04   -0.41776E-02   -0.53080E-03  4993   0.405E-02    0.124E+00
RMM:  94    -0.233303980498E+04   -0.30446E-03   -0.96624E-04  4780   0.141E-02    0.119E+00
RMM:  95    -0.233304121880E+04   -0.14138E-02   -0.68304E-04  4394   0.133E-02    0.119E+00
RMM:  96    -0.233303610169E+04    0.51171E-02   -0.50427E-03  4938   0.307E-02    0.128E+00
RMM:  97    -0.233303765628E+04   -0.15546E-02   -0.41596E-04  3954   0.125E-02    0.126E+00
RMM:  98    -0.233303778482E+04   -0.12854E-03   -0.34122E-05  2916   0.422E-03    0.126E+00
RMM:  99    -0.233303778189E+04    0.29247E-05   -0.23651E-06  2700   0.186E-03
   1 F= -.23544788E+04 E0= -.23544717E+04  d E =-.235448E+04  mag=     5.1204
       N       E                     dE             d eps       ncg     rms          rms(c)
DAV:   1    -0.233265667769E+04    0.38111E+00   -0.54007E+01  4616   0.662E+00    0.227E+00
RMM:   2    -0.233364570345E+04   -0.98903E+00   -0.10320E+01  6697   0.194E+00    0.219E+00
RMM:   3    -0.233370783763E+04   -0.62134E-01   -0.11202E+00  6480   0.596E-01    0.201E+00
RMM:   4    -0.233366834719E+04    0.39490E-01   -0.98026E-02  6225   0.148E-01    0.951E-01
RMM:   5    -0.233366367937E+04    0.46678E-02   -0.20207E-02  5825   0.597E-02    0.750E-01
RMM:   6    -0.233365854166E+04    0.51377E-02   -0.15047E-02  5947   0.639E-02    0.526E-01
RMM:   7    -0.233365858082E+04   -0.39163E-04   -0.11415E-02  5884   0.548E-02    0.448E-01
RMM:   8    -0.233365648832E+04    0.20925E-02   -0.26901E-03  5857   0.270E-02    0.108E-01
RMM:   9    -0.233365649345E+04   -0.51245E-05   -0.43882E-04  4496   0.121E-02    0.749E-02
RMM:  10    -0.233365653648E+04   -0.43035E-04   -0.27066E-04  3501   0.113E-02    0.278E-02
RMM:  11    -0.233365663022E+04   -0.93739E-04   -0.74208E-05  3303   0.572E-03    0.156E-02
RMM:  12    -0.233365669260E+04   -0.62376E-04   -0.12148E-05  2921   0.417E-03    0.112E-02
RMM:  13    -0.233365675861E+04   -0.66018E-04   -0.15583E-05  2952   0.351E-03    0.698E-03
RMM:  14    -0.233365678464E+04   -0.26026E-04   -0.63463E-06  2864   0.328E-03    0.552E-03
RMM:  15    -0.233365679633E+04   -0.11688E-04   -0.47681E-06  2768   0.234E-03    0.298E-03
RMM:  16    -0.233365680208E+04   -0.57537E-05   -0.30346E-06  2648   0.221E-03
   2 F= -.23551152E+04 E0= -.23551128E+04  d E =-.636436E+00  mag=     4.9420
       N       E                     dE             d eps       ncg     rms          rms(c)
DAV:   1    -0.233310899467E+04    0.54780E+00   -0.37011E+01  4560   0.551E+00    0.175E+00
RMM:   2    -0.233374200908E+04   -0.63301E+00   -0.67577E+00  6690   0.156E+00    0.116E+00
RMM:   3    -0.233379469040E+04   -0.52681E-01   -0.73891E-01  6251   0.485E-01    0.136E+00
RMM:   4    -0.233378314242E+04    0.11548E-01   -0.65516E-02  6479   0.116E-01    0.707E-01
RMM:   5    -0.233377906617E+04    0.40762E-02   -0.98028E-03  5916   0.462E-02    0.483E-01
RMM:   6    -0.233377801001E+04    0.10562E-02   -0.11116E-02  5887   0.552E-02    0.480E-01
RMM:   7    -0.233377608101E+04    0.19290E-02   -0.62224E-03  5788   0.383E-02    0.276E-01
RMM:   8    -0.233377554957E+04    0.53143E-03   -0.14853E-03  5287   0.204E-02    0.141E-01
RMM:   9    -0.233377531305E+04    0.23652E-03   -0.36759E-04  4718   0.109E-02    0.757E-02
RMM:  10    -0.233377522324E+04    0.89810E-04   -0.26057E-04  3285   0.103E-02    0.221E-02
RMM:  11    -0.233377522187E+04    0.13703E-05   -0.69008E-05  3116   0.524E-03
   3 F= -.23552729E+04 E0= -.23552700E+04  d E =-.794158E+00  mag=     4.9266
       N       E                     dE             d eps       ncg     rms          rms(c)
DAV:   1    -0.233367410470E+04    0.10112E+00   -0.24511E+01  4576   0.467E+00    0.136E+00
RMM:   2    -0.233401512860E+04   -0.34102E+00   -0.35253E+00  6682   0.122E+00    0.114E+00
RMM:   3    -0.233403334410E+04   -0.18216E-01   -0.35134E-01  6400   0.376E-01    0.101E+00
RMM:   4    -0.233402437830E+04    0.89658E-02   -0.33875E-02  6205   0.911E-02    0.578E-01
RMM:   5    -0.233402221727E+04    0.21610E-02   -0.60147E-03  5847   0.381E-02    0.399E-01
RMM:   6    -0.233402034880E+04    0.18685E-02   -0.60463E-03  5660   0.460E-02    0.264E-01
RMM:   7    -0.233402039651E+04   -0.47718E-04   -0.28767E-03  5413   0.316E-02    0.247E-01
RMM:   8    -0.233401982042E+04    0.57609E-03   -0.69793E-04  5038   0.150E-02    0.622E-02
RMM:   9    -0.233401977988E+04    0.40545E-04   -0.11092E-04  3572   0.765E-03    0.447E-02
RMM:  10    -0.233401976080E+04    0.19079E-04   -0.93810E-05  3116   0.698E-03    0.143E-02
RMM:  11    -0.233401976732E+04   -0.65236E-05   -0.18989E-05  2970   0.413E-03
   4 F= -.23555465E+04 E0= -.23555452E+04  d E =-.273577E+00  mag=     4.9604
       N       E                     dE             d eps       ncg     rms          rms(c)
DAV:   1    -0.233394979187E+04    0.69969E-01   -0.12394E+01  4592   0.337E+00    0.965E-01
RMM:   2    -0.233412070046E+04   -0.17091E+00   -0.17691E+00  6666   0.861E-01    0.809E-01
RMM:   3    -0.233413097203E+04   -0.10272E-01   -0.17778E-01  6378   0.269E-01    0.731E-01
RMM:   4    -0.233412598059E+04    0.49914E-02   -0.16887E-02  6160   0.651E-02    0.384E-01
RMM:   5    -0.233412507921E+04    0.90138E-03   -0.30215E-03  5552   0.275E-02    0.281E-01
RMM:   6    -0.233412413222E+04    0.94699E-03   -0.29759E-03  5539   0.329E-02    0.190E-01
RMM:   7    -0.233412414300E+04   -0.10779E-04   -0.14637E-03  5176   0.230E-02    0.173E-01
RMM:   8    -0.233412385907E+04    0.28393E-03   -0.34225E-04  4236   0.110E-02    0.413E-02
RMM:   9    -0.233412383775E+04    0.21326E-04   -0.52978E-05  3174   0.606E-03    0.293E-02
RMM:  10    -0.233412382924E+04    0.85040E-05   -0.47431E-05  2965   0.524E-03
   5 F= -.23556524E+04 E0= -.23556516E+04  d E =-.379434E+00  mag=     4.9791
       N       E                     dE             d eps       ncg     rms          rms(c)
DAV:   1    -0.233345059156E+04    0.67325E+00   -0.49607E+01  4520   0.681E+00    0.197E+00
RMM:   2    -0.233416816101E+04   -0.71757E+00   -0.73754E+00  6636   0.179E+00    0.181E+00
RMM:   3    -0.233419291130E+04   -0.24750E-01   -0.72145E-01  6245   0.563E-01    0.144E+00
RMM:   4    -0.233417552917E+04    0.17382E-01   -0.71237E-02  6279   0.135E-01    0.813E-01
RMM:   5    -0.233417102493E+04    0.45042E-02   -0.11710E-02  5935   0.538E-02    0.555E-01
RMM:   6    -0.233416772328E+04    0.33016E-02   -0.11720E-02  5636   0.642E-02    0.450E-01
RMM:   7    -0.233416721374E+04    0.50955E-03   -0.64907E-03  5549   0.482E-02    0.337E-01
RMM:   8    -0.233416612972E+04    0.10840E-02   -0.13632E-03  5541   0.218E-02    0.758E-02
RMM:   9    -0.233416607931E+04    0.50404E-04   -0.22350E-04  4154   0.113E-02    0.616E-02
RMM:  10    -0.233416604936E+04    0.29951E-04   -0.15998E-04  3466   0.910E-03    0.170E-02
RMM:  11    -0.233416606190E+04   -0.12540E-04   -0.32801E-05  3019   0.477E-03    0.119E-02
RMM:  12    -0.233416606922E+04   -0.73131E-05   -0.77910E-06  2899   0.338E-03
   6 F= -.23556987E+04 E0= -.23556986E+04  d E =-.425819E+00  mag=     4.9945
       N       E                     dE             d eps       ncg     rms          rms(c)
DAV:   1    -0.233412138551E+04    0.44676E-01   -0.39010E+00  4624   0.193E+00    0.532E-01
RMM:   2    -0.233417426404E+04   -0.52879E-01   -0.54923E-01  6643   0.477E-01    0.442E-01
RMM:   3    -0.233417842678E+04   -0.41627E-02   -0.55193E-02  6260   0.155E-01    0.431E-01
RMM:   4    -0.233417653174E+04    0.18950E-02   -0.50313E-03  6038   0.376E-02    0.179E-01
RMM:   5    -0.233417634081E+04    0.19093E-03   -0.10889E-03  5219   0.194E-02    0.145E-01
RMM:   6    -0.233417611736E+04    0.22345E-03   -0.72677E-04  4884   0.167E-02    0.979E-02
RMM:   7    -0.233417608196E+04    0.35403E-04   -0.27423E-04  3944   0.107E-02    0.672E-02
RMM:   8    -0.233417604354E+04    0.38420E-04   -0.71412E-05  2983   0.669E-03    0.236E-02
RMM:   9    -0.233417603502E+04    0.85171E-05   -0.14535E-05  2958   0.335E-03
   7 F= -.23557075E+04 E0= -.23557072E+04  d E =-.434544E+00  mag=     4.9950
       N       E                     dE             d eps       ncg     rms          rms(c)
DAV:   1    -0.233428283207E+04   -0.10679E+00   -0.47074E+00  4576   0.204E+00    0.683E-01
RMM:   2    -0.233435364694E+04   -0.70815E-01   -0.75454E-01  6459   0.517E-01    0.707E-01
RMM:   3    -0.233435629437E+04   -0.26474E-02   -0.80869E-02  6115   0.190E-01    0.487E-01
RMM:   4    -0.233435439014E+04    0.19042E-02   -0.78540E-03  6104   0.439E-02    0.248E-01
RMM:   5    -0.233435443449E+04   -0.44349E-04   -0.25135E-03  5598   0.261E-02    0.288E-01
RMM:   6    -0.233435356278E+04    0.87171E-03   -0.16057E-03  5534   0.210E-02    0.122E-01
RMM:   7    -0.233435353054E+04    0.32242E-04   -0.44832E-04  4479   0.128E-02    0.989E-02
RMM:   8    -0.233435342277E+04    0.10776E-03   -0.15731E-04  3415   0.777E-03    0.353E-02
RMM:   9    -0.233435341055E+04    0.12223E-04   -0.37013E-05  2962   0.502E-03    0.171E-02
RMM:  10    -0.233435340571E+04    0.48461E-05   -0.12464E-05  2943   0.353E-03
   8 F= -.23558839E+04 E0= -.23558838E+04  d E =-.176444E+00  mag=     4.9974
       N       E                     dE             d eps       ncg     rms          rms(c)
DAV:   1    -0.233411955415E+04    0.23386E+00   -0.25557E+01  4520   0.477E+00    0.160E+00
RMM:   2    -0.233451926413E+04   -0.39971E+00   -0.42742E+00  6508   0.122E+00    0.164E+00
RMM:   3    -0.233453037032E+04   -0.11106E-01   -0.45262E-01  6236   0.432E-01    0.111E+00
RMM:   4    -0.233451959162E+04    0.10779E-01   -0.42739E-02  6359   0.101E-01    0.554E-01
RMM:   5    -0.233451876895E+04    0.82267E-03   -0.14136E-02  5635   0.596E-02    0.588E-01
RMM:   6    -0.233451531771E+04    0.34512E-02   -0.79182E-03  5946   0.469E-02    0.289E-01
RMM:   7    -0.233451469955E+04    0.61815E-03   -0.17292E-03  5569   0.253E-02    0.177E-01
RMM:   8    -0.233451448828E+04    0.21127E-03   -0.77479E-04  4978   0.155E-02    0.977E-02
RMM:   9    -0.233451437095E+04    0.11732E-03   -0.19696E-04  3773   0.855E-03    0.385E-02
RMM:  10    -0.233451434693E+04    0.24020E-04   -0.55454E-05  3163   0.598E-03    0.155E-02
RMM:  11    -0.233451434079E+04    0.61463E-05   -0.41664E-05  3206   0.523E-03
   9 F= -.23560432E+04 E0= -.23560431E+04  d E =-.335716E+00  mag=     4.9988
       N       E                     dE             d eps       ncg     rms          rms(c)
DAV:   1    -0.233455616772E+04   -0.41821E-01   -0.10679E+01  4524   0.318E+00    0.921E-01
RMM:   2    -0.233465611388E+04   -0.99946E-01   -0.10349E+00  6344   0.659E-01    0.974E-01
RMM:   3    -0.233465654907E+04   -0.43519E-03   -0.11075E-01  6123   0.245E-01    0.643E-01
RMM:   4    -0.233465262664E+04    0.39224E-02   -0.11251E-02  5939   0.594E-02    0.265E-01
RMM:   5    -0.233465252430E+04    0.10234E-03   -0.40109E-03  5672   0.372E-02    0.304E-01
RMM:   6    -0.233465160796E+04    0.91634E-03   -0.22336E-03  5829   0.279E-02    0.141E-01
RMM:   7    -0.233465141624E+04    0.19172E-03   -0.33574E-04  4765   0.136E-02    0.500E-02
RMM:   8    -0.233465141396E+04    0.22786E-05   -0.10980E-04  3196   0.856E-03    0.412E-02
RMM:   9    -0.233465139071E+04    0.23251E-04   -0.37734E-05  2954   0.493E-03    0.168E-02
RMM:  10    -0.233465138392E+04    0.67873E-05   -0.16813E-05  2948   0.394E-03
  10 F= -.23561802E+04 E0= -.23561802E+04  d E =-.137050E+00  mag=     4.9987
       N       E                     dE             d eps       ncg     rms          rms(c)
DAV:   1    -0.233457480410E+04    0.76587E-01   -0.15343E+01  4520   0.380E+00    0.111E+00
RMM:   2    -0.233471932126E+04   -0.14452E+00   -0.15031E+00  6335   0.793E-01    0.115E+00
RMM:   3    -0.233472010151E+04   -0.78025E-03   -0.16026E-01  6114   0.294E-01    0.772E-01
RMM:   4    -0.233471423824E+04    0.58633E-02   -0.16200E-02  6007   0.711E-02    0.318E-01
RMM:   5    -0.233471383699E+04    0.40125E-03   -0.57050E-03  5677   0.446E-02    0.338E-01
RMM:   6    -0.233471276492E+04    0.10721E-02   -0.32174E-03  6023   0.338E-02    0.175E-01
RMM:   7    -0.233471247303E+04    0.29189E-03   -0.54534E-04  5058   0.157E-02    0.754E-02
RMM:   8    -0.233471242370E+04    0.49326E-04   -0.17315E-04  3398   0.978E-03    0.468E-02
RMM:   9    -0.233471238998E+04    0.33724E-04   -0.47283E-05  3045   0.540E-03    0.182E-02
RMM:  10    -0.233471237873E+04    0.11255E-04   -0.24286E-05  2985   0.471E-03    0.773E-03
RMM:  11    -0.233471237504E+04    0.36873E-05   -0.14179E-05  2925   0.428E-03
  11 F= -.23562414E+04 E0= -.23562412E+04  d E =-.198214E+00  mag=     4.9964
       N       E                     dE             d eps       ncg     rms          rms(c)
DAV:   1    -0.233473644161E+04   -0.24063E-01   -0.16423E+01  4520   0.406E+00    0.114E+00
RMM:   2    -0.233485893350E+04   -0.12249E+00   -0.12897E+00  6188   0.818E-01    0.853E-01
RMM:   3    -0.233486586980E+04   -0.69363E-02   -0.12794E-01  5976   0.306E-01    0.902E-01
RMM:   4    -0.233485668133E+04    0.91885E-02   -0.14256E-02  6188   0.758E-02    0.293E-01
RMM:   5    -0.233485554450E+04    0.11368E-02   -0.49359E-03  5135   0.470E-02    0.152E-01
RMM:   6    -0.233485565105E+04   -0.10656E-03   -0.20578E-03  5425   0.319E-02    0.158E-01
RMM:   7    -0.233485530228E+04    0.34877E-03   -0.50717E-04  4797   0.144E-02    0.424E-02
RMM:   8    -0.233485527564E+04    0.26647E-04   -0.82324E-05  3250   0.594E-03    0.250E-02
RMM:   9    -0.233485527685E+04   -0.12118E-05   -0.44555E-05  2955   0.507E-03
  12 F= -.23563863E+04 E0= -.23563861E+04  d E =-.144866E+00  mag=     4.9974
       N       E                     dE             d eps       ncg     rms          rms(c)
DAV:   1    -0.233472335423E+04    0.13192E+00   -0.27690E+01  4520   0.528E+00    0.148E+00
RMM:   2    -0.233493186079E+04   -0.20851E+00   -0.21903E+00  6216   0.106E+00    0.114E+00
RMM:   3    -0.233494313409E+04   -0.11273E-01   -0.21923E-01  6027   0.393E-01    0.118E+00
RMM:   4    -0.233492736905E+04    0.15765E-01   -0.24344E-02  6154   0.984E-02    0.383E-01
RMM:   5    -0.233492548023E+04    0.18888E-02   -0.85907E-03  5210   0.606E-02    0.214E-01
RMM:   6    -0.233492560409E+04   -0.12386E-03   -0.38082E-03  5684   0.414E-02    0.215E-01
RMM:   7    -0.233492495390E+04    0.65019E-03   -0.91703E-04  5366   0.188E-02    0.596E-02
RMM:   8    -0.233492490163E+04    0.52269E-04   -0.15903E-04  3609   0.717E-03    0.273E-02
RMM:   9    -0.233492489272E+04    0.89031E-05   -0.63391E-05  3179   0.665E-03
  13 F= -.23564586E+04 E0= -.23564585E+04  d E =-.217185E+00  mag=     4.9985
       N       E                     dE             d eps       ncg     rms          rms(c)
DAV:   1    -0.233488390356E+04    0.40998E-01   -0.14128E+01  4552   0.378E+00    0.108E+00
RMM:   2    -0.233503531161E+04   -0.15141E+00   -0.15917E+00  6491   0.842E-01    0.826E-01
RMM:   3    -0.233504510370E+04   -0.97921E-02   -0.15773E-01  6215   0.279E-01    0.798E-01
RMM:   4    -0.233503764449E+04    0.74592E-02   -0.16254E-02  6245   0.713E-02    0.330E-01
RMM:   5    -0.233503715030E+04    0.49418E-03   -0.51379E-03  5563   0.410E-02    0.313E-01
RMM:   6    -0.233503647339E+04    0.67692E-03   -0.30273E-03  5739   0.321E-02    0.207E-01
RMM:   7    -0.233503612885E+04    0.34454E-03   -0.63960E-04  5143   0.164E-02    0.624E-02
RMM:   8    -0.233503610078E+04    0.28063E-04   -0.16825E-04  3324   0.907E-03    0.534E-02
RMM:   9    -0.233503605644E+04    0.44343E-04   -0.63236E-05  3027   0.557E-03    0.199E-02
RMM:  10    -0.233503604761E+04    0.88263E-05   -0.39255E-05  3034   0.491E-03
  14 F= -.23565721E+04 E0= -.23565721E+04  d E =-.113499E+00  mag=     4.9993
       N       E                     dE             d eps       ncg     rms          rms(c)
DAV:   1    -0.233496001048E+04    0.76046E-01   -0.96321E+00  4544   0.312E+00    0.885E-01
RMM:   2    -0.233506362318E+04   -0.10361E+00   -0.10902E+00  6475   0.697E-01    0.665E-01
RMM:   3    -0.233507059945E+04   -0.69763E-02   -0.10700E-01  6201   0.230E-01    0.660E-01
RMM:   4    -0.233506557514E+04    0.50243E-02   -0.11086E-02  6222   0.585E-02    0.276E-01
RMM:   5    -0.233506526972E+04    0.30542E-03   -0.34047E-03  5589   0.332E-02    0.270E-01
RMM:   6    -0.233506467543E+04    0.59428E-03   -0.21434E-03  5744   0.271E-02    0.161E-01
RMM:   7    -0.233506447657E+04    0.19886E-03   -0.45953E-04  4983   0.141E-02    0.621E-02
RMM:   8    -0.233506443828E+04    0.38289E-04   -0.11875E-04  3169   0.786E-03    0.408E-02
RMM:   9    -0.233506440801E+04    0.30273E-04   -0.40979E-05  2985   0.486E-03    0.166E-02
RMM:  10    -0.233506440017E+04    0.78373E-05   -0.29228E-05  3005   0.442E-03
  15 F= -.23566024E+04 E0= -.23566024E+04  d E =-.143830E+00  mag=     4.9996
       N       E                     dE             d eps       ncg     rms          rms(c)
DAV:   1    -0.233504137751E+04    0.23031E-01   -0.70086E+00  4608   0.273E+00    0.850E-01
RMM:   2    -0.233515068537E+04   -0.10931E+00   -0.11099E+00  6564   0.657E-01    0.848E-01
RMM:   3    -0.233515376445E+04   -0.30791E-02   -0.10968E-01  6290   0.213E-01    0.592E-01
RMM:   4    -0.233515048095E+04    0.32835E-02   -0.11185E-02  5898   0.547E-02    0.238E-01
RMM:   5    -0.233515019456E+04    0.28639E-03   -0.28282E-03  5553   0.325E-02    0.227E-01
RMM:   6    -0.233514998217E+04    0.21239E-03   -0.12486E-03  5220   0.206E-02    0.168E-01
RMM:   7    -0.233514972286E+04    0.25931E-03   -0.28410E-04  4438   0.110E-02    0.321E-02
RMM:   8    -0.233514972461E+04   -0.17465E-05   -0.61679E-05  3003   0.636E-03
  16 F= -.23566888E+04 E0= -.23566888E+04  d E =-.863382E-01  mag=     4.9998
       N       E                     dE             d eps       ncg     rms          rms(c)
DAV:   1    -0.233487231309E+04    0.27741E+00   -0.21141E+01  4520   0.475E+00    0.149E+00
RMM:   2    -0.233520904886E+04   -0.33674E+00   -0.34115E+00  6579   0.115E+00    0.152E+00
RMM:   3    -0.233521734500E+04   -0.82961E-02   -0.34425E-01  6271   0.372E-01    0.105E+00
RMM:   4    -0.233520685323E+04    0.10492E-01   -0.34291E-02  5925   0.951E-02    0.427E-01
RMM:   5    -0.233520659560E+04    0.25763E-03   -0.92857E-03  5530   0.552E-02    0.468E-01
RMM:   6    -0.233520506950E+04    0.15261E-02   -0.42856E-03  5651   0.382E-02    0.274E-01
RMM:   7    -0.233520459339E+04    0.47611E-03   -0.11210E-03  5406   0.204E-02    0.123E-01
RMM:   8    -0.233520443156E+04    0.16183E-03   -0.35863E-04  3782   0.121E-02    0.590E-02
RMM:   9    -0.233520439848E+04    0.33086E-04   -0.93576E-05  3463   0.648E-03    0.260E-02
RMM:  10    -0.233520440813E+04   -0.96487E-05   -0.42886E-05  3023   0.557E-03
  17 F= -.23567452E+04 E0= -.23567452E+04  d E =-.142798E+00  mag=     4.9999
       N       E                     dE             d eps       ncg     rms          rms(c)
DAV:   1    -0.233517274845E+04    0.31650E-01   -0.74078E+00  4624   0.276E+00    0.918E-01
RMM:   2    -0.233528356224E+04   -0.11081E+00   -0.10987E+00  6438   0.645E-01    0.964E-01
RMM:   3    -0.233528377231E+04   -0.21007E-03   -0.11331E-01  6109   0.233E-01    0.587E-01
RMM:   4    -0.233528052244E+04    0.32499E-02   -0.11574E-02  5846   0.553E-02    0.244E-01
RMM:   5    -0.233528100278E+04   -0.48034E-03   -0.32755E-03  5552   0.320E-02    0.382E-01
RMM:   6    -0.233527967789E+04    0.13249E-02   -0.16826E-03  5561   0.236E-02    0.983E-02
RMM:   7    -0.233527960709E+04    0.70797E-04   -0.28229E-04  4639   0.123E-02    0.290E-02
RMM:   8    -0.233527961154E+04   -0.44464E-05   -0.41695E-05  3044   0.620E-03
  18 F= -.23568212E+04 E0= -.23568212E+04  d E =-.759834E-01  mag=     5.0000
       N       E                     dE             d eps       ncg     rms          rms(c)
DAV:   1    -0.233506600871E+04    0.21360E+00   -0.17778E+01  4584   0.427E+00    0.143E+00
RMM:   2    -0.233533551514E+04   -0.26951E+00   -0.26757E+00  6438   0.101E+00    0.148E+00
RMM:   3    -0.233533477740E+04    0.73774E-03   -0.27558E-01  6154   0.358E-01    0.888E-01
RMM:   4    -0.233532720007E+04    0.75773E-02   -0.27986E-02  5944   0.853E-02    0.395E-01
RMM:   5    -0.233532853808E+04   -0.13380E-02   -0.81371E-03  5647   0.476E-02    0.616E-01
RMM:   6    -0.233532498384E+04    0.35542E-02   -0.42168E-03  5816   0.375E-02    0.146E-01
RMM:   7    -0.233532489799E+04    0.85844E-04   -0.82741E-04  5306   0.212E-02    0.916E-02
RMM:   8    -0.233532480840E+04    0.89591E-04   -0.27335E-04  3717   0.100E-02    0.505E-02
RMM:   9    -0.233532477166E+04    0.36748E-04   -0.60344E-05  3076   0.646E-03    0.213E-02
RMM:  10    -0.233532476243E+04    0.92269E-05   -0.43646E-05  3253   0.529E-03
  19 F= -.23568675E+04 E0= -.23568675E+04  d E =-.122278E+00  mag=     5.0000
       N       E                     dE             d eps       ncg     rms          rms(c)
DAV:   1    -0.233527938662E+04    0.45385E-01   -0.92808E+00  4528   0.286E+00    0.951E-01
RMM:   2    -0.233540118519E+04   -0.12180E+00   -0.12460E+00  6379   0.652E-01    0.885E-01
RMM:   3    -0.233540595152E+04   -0.47663E-02   -0.14038E-01  6159   0.249E-01    0.641E-01
RMM:   4    -0.233540208806E+04    0.38635E-02   -0.13795E-02  6099   0.613E-02    0.311E-01
RMM:   5    -0.233540254578E+04   -0.45772E-03   -0.43866E-03  5889   0.336E-02    0.447E-01
RMM:   6    -0.233540083530E+04    0.17105E-02   -0.30526E-03  5614   0.301E-02    0.119E-01
RMM:   7    -0.233540090814E+04   -0.72844E-04   -0.97728E-04  4880   0.186E-02    0.126E-01
RMM:   8    -0.233540071304E+04    0.19510E-03   -0.21079E-04  3374   0.824E-03    0.297E-02
RMM:   9    -0.233540070168E+04    0.11361E-04   -0.47484E-05  3054   0.485E-03    0.151E-02
RMM:  10    -0.233540069866E+04    0.30188E-05   -0.19428E-05  2939   0.421E-03
  20 F= -.23569443E+04 E0= -.23569443E+04  d E =-.767607E-01  mag=     5.0000
       N       E                     dE             d eps       ncg     rms          rms(c)
DAV:   1    -0.233532715059E+04    0.73551E-01   -0.74345E+00  4524   0.257E+00    0.847E-01
RMM:   2    -0.233542462934E+04   -0.97479E-01   -0.10002E+00  6377   0.585E-01    0.775E-01
RMM:   3    -0.233542869110E+04   -0.40618E-02   -0.11202E-01  6154   0.221E-01    0.562E-01
RMM:   4    -0.233542566963E+04    0.30215E-02   -0.11090E-02  6080   0.547E-02    0.273E-01
RMM:   5    -0.233542601908E+04   -0.34945E-03   -0.33860E-03  5879   0.302E-02    0.396E-01
RMM:   6    -0.233542465732E+04    0.13618E-02   -0.24393E-03  5588   0.266E-02    0.102E-01
RMM:   7    -0.233542470476E+04   -0.47439E-04   -0.71528E-04  4744   0.163E-02    0.106E-01
RMM:   8    -0.233542456431E+04    0.14045E-03   -0.15928E-04  3219   0.741E-03    0.261E-02
RMM:   9    -0.233542455236E+04    0.11946E-04   -0.35519E-05  3015   0.446E-03    0.139E-02
RMM:  10    -0.233542454791E+04    0.44547E-05   -0.17831E-05  2937   0.402E-03
  21 F= -.23569688E+04 E0= -.23569688E+04  d E =-.101296E+00  mag=     5.0000
       N       E                     dE             d eps       ncg     rms          rms(c)
DAV:   1    -0.233538315555E+04    0.41397E-01   -0.74163E+00  4524   0.260E+00    0.818E-01
RMM:   2    -0.233548088673E+04   -0.97731E-01   -0.10321E+00  6578   0.599E-01    0.566E-01
RMM:   3    -0.233548852734E+04   -0.76406E-02   -0.10681E-01  6303   0.211E-01    0.534E-01
RMM:   4    -0.233548636020E+04    0.21671E-02   -0.11032E-02  6235   0.500E-02    0.291E-01
RMM:   5    -0.233548619508E+04    0.16512E-03   -0.26861E-03  5787   0.272E-02    0.261E-01
RMM:   6    -0.233548560473E+04    0.59034E-03   -0.20313E-03  5459   0.235E-02    0.144E-01
RMM:   7    -0.233548552333E+04    0.81402E-04   -0.58977E-04  4662   0.149E-02    0.105E-01
RMM:   8    -0.233548539569E+04    0.12764E-03   -0.13991E-04  3175   0.753E-03    0.321E-02
RMM:   9    -0.233548537822E+04    0.17465E-04   -0.32197E-05  2991   0.426E-03    0.152E-02
RMM:  10    -0.233548537404E+04    0.41856E-05   -0.20491E-05  2929   0.361E-03
  22 F= -.23570293E+04 E0= -.23570293E+04  d E =-.605188E-01  mag=     5.0000
       N       E                     dE             d eps       ncg     rms          rms(c)
DAV:   1    -0.233527266757E+04    0.21271E+00   -0.18137E+01  4520   0.406E+00    0.128E+00
RMM:   2    -0.233551345044E+04   -0.24078E+00   -0.25437E+00  6576   0.938E-01    0.889E-01
RMM:   3    -0.233553331254E+04   -0.19862E-01   -0.27232E-01  6332   0.334E-01    0.861E-01
RMM:   4    -0.233552756533E+04    0.57472E-02   -0.27240E-02  6350   0.788E-02    0.461E-01
RMM:   5    -0.233552693108E+04    0.63425E-03   -0.64467E-03  6038   0.415E-02    0.395E-01
RMM:   6    -0.233552575883E+04    0.11722E-02   -0.52180E-03  5601   0.362E-02    0.247E-01
RMM:   7    -0.233552542415E+04    0.33469E-03   -0.15590E-03  5253   0.237E-02    0.164E-01
RMM:   8    -0.233552512482E+04    0.29933E-03   -0.38951E-04  4081   0.116E-02    0.581E-02
RMM:   9    -0.233552506936E+04    0.55457E-04   -0.87144E-05  3153   0.603E-03    0.262E-02
RMM:  10    -0.233552505711E+04    0.12248E-04   -0.59401E-05  3014   0.564E-03    0.917E-03
RMM:  11    -0.233552505841E+04   -0.12964E-05   -0.12991E-05  2947   0.392E-03
  23 F= -.23570685E+04 E0= -.23570685E+04  d E =-.997520E-01  mag=     5.0000
       N       E                     dE             d eps       ncg     rms          rms(c)
DAV:   1    -0.233547939034E+04    0.45667E-01   -0.73703E+00  4524   0.265E+00    0.839E-01
RMM:   2    -0.233557868814E+04   -0.99298E-01   -0.10260E+00  6507   0.600E-01    0.746E-01
RMM:   3    -0.233558584188E+04   -0.71537E-02   -0.10863E-01  6276   0.213E-01    0.702E-01
RMM:   4    -0.233558174590E+04    0.40960E-02   -0.11368E-02  5912   0.516E-02    0.267E-01
RMM:   5    -0.233558156697E+04    0.17893E-03   -0.27595E-03  5767   0.294E-02    0.251E-01
RMM:   6    -0.233558077126E+04    0.79571E-03   -0.22051E-03  5435   0.265E-02    0.100E-01
RMM:   7    -0.233558069603E+04    0.75232E-04   -0.37307E-04  4693   0.144E-02    0.645E-02
RMM:   8    -0.233558066518E+04    0.30851E-04   -0.11283E-04  3184   0.690E-03    0.402E-02
RMM:   9    -0.233558063639E+04    0.28783E-04   -0.28621E-05  2964   0.457E-03    0.157E-02
RMM:  10    -0.233558062775E+04    0.86428E-05   -0.24909E-05  2943   0.417E-03
  24 F= -.23571233E+04 E0= -.23571233E+04  d E =-.547959E-01  mag=     5.0000
       N       E                     dE             d eps       ncg     rms          rms(c)
DAV:   1    -0.233537830132E+04    0.20234E+00   -0.17051E+01  4520   0.404E+00    0.128E+00
RMM:   2    -0.233560914000E+04   -0.23084E+00   -0.23889E+00  6506   0.918E-01    0.114E+00
RMM:   3    -0.233562666395E+04   -0.17524E-01   -0.26093E-01  6259   0.327E-01    0.110E+00
RMM:   4    -0.233561662334E+04    0.10041E-01   -0.26498E-02  6069   0.790E-02    0.411E-01
RMM:   5    -0.233561607996E+04    0.54338E-03   -0.64648E-03  5985   0.446E-02    0.377E-01
RMM:   6    -0.233561439258E+04    0.16874E-02   -0.52641E-03  5486   0.396E-02    0.171E-01
RMM:   7    -0.233561411242E+04    0.28016E-03   -0.93868E-04  5157   0.222E-02    0.102E-01
RMM:   8    -0.233561404193E+04    0.70498E-04   -0.30315E-04  4011   0.104E-02    0.686E-02
RMM:   9    -0.233561395995E+04    0.81974E-04   -0.80245E-05  3244   0.681E-03    0.254E-02
RMM:  10    -0.233561393665E+04    0.23305E-04   -0.68201E-05  3320   0.627E-03    0.921E-03
RMM:  11    -0.233561393164E+04    0.50110E-05   -0.13286E-05  2938   0.450E-03
  25 F= -.23571555E+04 E0= -.23571555E+04  d E =-.869925E-01  mag=     5.0000
       N       E                     dE             d eps       ncg     rms          rms(c)
DAV:   1    -0.233549645394E+04    0.11748E+00   -0.10200E+01  4520   0.308E+00    0.102E+00
RMM:   2    -0.233566791120E+04   -0.17146E+00   -0.17424E+00  6570   0.726E-01    0.107E+00
RMM:   3    -0.233567750005E+04   -0.95888E-02   -0.19568E-01  6288   0.265E-01    0.825E-01
RMM:   4    -0.233567227773E+04    0.52223E-02   -0.18138E-02  5889   0.604E-02    0.290E-01
RMM:   5    -0.233567191101E+04    0.36672E-03   -0.33548E-03  5772   0.314E-02    0.273E-01
RMM:   6    -0.233567116816E+04    0.74285E-03   -0.26964E-03  5769   0.279E-02    0.137E-01
RMM:   7    -0.233567097089E+04    0.19727E-03   -0.44854E-04  4854   0.140E-02    0.661E-02
RMM:   8    -0.233567096031E+04    0.10580E-04   -0.15747E-04  3245   0.821E-03    0.552E-02
RMM:   9    -0.233567091876E+04    0.41552E-04   -0.38851E-05  3018   0.494E-03    0.185E-02
RMM:  10    -0.233567091192E+04    0.68412E-05   -0.24255E-05  2926   0.395E-03
  26 F= -.23572117E+04 E0= -.23572117E+04  d E =-.561576E-01  mag=     5.0000
       N       E                     dE             d eps       ncg     rms          rms(c)
DAV:   1    -0.233518612547E+04    0.48479E+00   -0.30290E+01  4520   0.532E+00    0.176E+00
RMM:   2    -0.233570288908E+04   -0.51676E+00   -0.52620E+00  6572   0.127E+00    0.183E+00
RMM:   3    -0.233573464289E+04   -0.31754E-01   -0.61518E-01  6310   0.464E-01    0.145E+00
RMM:   4    -0.233571838974E+04    0.16253E-01   -0.54376E-02  5988   0.104E-01    0.510E-01
RMM:   5    -0.233571683391E+04    0.15558E-02   -0.99866E-03  5861   0.547E-02    0.450E-01
RMM:   6    -0.233571514085E+04    0.16931E-02   -0.80761E-03  5892   0.476E-02    0.266E-01
RMM:   7    -0.233571429976E+04    0.84109E-03   -0.15186E-03  5481   0.254E-02    0.117E-01
RMM:   8    -0.233571428323E+04    0.16534E-04   -0.52598E-04  4331   0.137E-02    0.103E-01
RMM:   9    -0.233571413726E+04    0.14597E-03   -0.15488E-04  3600   0.809E-03    0.352E-02
RMM:  10    -0.233571411309E+04    0.24173E-04   -0.77396E-05  3007   0.620E-03    0.118E-02
RMM:  11    -0.233571411013E+04    0.29654E-05   -0.19812E-05  2966   0.443E-03
  27 F= -.23572537E+04 E0= -.23572537E+04  d E =-.981400E-01  mag=     5.0000
       N       E                     dE             d eps       ncg     rms          rms(c)
DAV:   1    -0.233546376130E+04    0.25035E+00   -0.15853E+01  4520   0.379E+00    0.129E+00
RMM:   2    -0.233576333670E+04   -0.29958E+00   -0.30938E+00  6602   0.952E-01    0.125E+00
RMM:   3    -0.233578526016E+04   -0.21923E-01   -0.34728E-01  6324   0.343E-01    0.103E+00
RMM:   4    -0.233577729776E+04    0.79624E-02   -0.30630E-02  6116   0.754E-02    0.386E-01
RMM:   5    -0.233577612297E+04    0.11748E-02   -0.55275E-03  5832   0.397E-02    0.324E-01
RMM:   6    -0.233577551997E+04    0.60299E-03   -0.39142E-03  5906   0.334E-02    0.246E-01
RMM:   7    -0.233577483330E+04    0.68667E-03   -0.12358E-03  5565   0.208E-02    0.933E-02
RMM:   8    -0.233577479452E+04    0.38784E-04   -0.28135E-04  3860   0.107E-02    0.633E-02
RMM:   9    -0.233577473330E+04    0.61219E-04   -0.93020E-05  3264   0.643E-03    0.322E-02
RMM:  10    -0.233577471422E+04    0.19083E-04   -0.46890E-05  2927   0.528E-03    0.919E-03
RMM:  11    -0.233577471160E+04    0.26226E-05   -0.14584E-05  2957   0.385E-03
  28 F= -.23573132E+04 E0= -.23573132E+04  d E =-.594793E-01  mag=     5.0000
       N       E                     dE             d eps       ncg     rms          rms(c)
DAV:   1    -0.233558138769E+04    0.19333E+00   -0.10758E+01  4524   0.313E+00    0.106E+00
RMM:   2    -0.233578395270E+04   -0.20257E+00   -0.20919E+00  6590   0.781E-01    0.102E+00
RMM:   3    -0.233579841753E+04   -0.14465E-01   -0.23132E-01  6298   0.280E-01    0.829E-01
RMM:   4    -0.233579336930E+04    0.50482E-02   -0.20777E-02  6058   0.618E-02    0.318E-01
RMM:   5    -0.233579266788E+04    0.70141E-03   -0.36804E-03  5780   0.324E-02    0.278E-01
RMM:   6    -0.233579206432E+04    0.60356E-03   -0.26548E-03  5767   0.278E-02    0.187E-01
RMM:   7    -0.233579167797E+04    0.38636E-03   -0.79951E-04  5345   0.172E-02    0.768E-02
RMM:   8    -0.233579164702E+04    0.30948E-04   -0.19166E-04  3518   0.910E-03    0.519E-02
RMM:   9    -0.233579160263E+04    0.44392E-04   -0.59697E-05  3072   0.567E-03    0.255E-02
RMM:  10    -0.233579158874E+04    0.13883E-04   -0.34898E-05  2925   0.476E-03    0.750E-03
RMM:  11    -0.233579158680E+04    0.19408E-05   -0.10781E-05  2945   0.357E-03
  29 F= -.23573293E+04 E0= -.23573293E+04  d E =-.755819E-01  mag=     5.0000
       N       E                     dE             d eps       ncg     rms          rms(c)
DAV:   1    -0.233544144216E+04    0.35015E+00   -0.21039E+01  4520   0.433E+00    0.143E+00
RMM:   2    -0.233582226488E+04   -0.38082E+00   -0.39996E+00  6597   0.106E+00    0.120E+00
RMM:   3    -0.233585903372E+04   -0.36769E-01   -0.47088E-01  6366   0.394E-01    0.113E+00
RMM:   4    -0.233584975482E+04    0.92789E-02   -0.41804E-02  6342   0.878E-02    0.448E-01
RMM:   5    -0.233584803166E+04    0.17232E-02   -0.62144E-03  5745   0.423E-02    0.341E-01
RMM:   6    -0.233584772285E+04    0.30881E-03   -0.49592E-03  5895   0.344E-02    0.333E-01
RMM:   7    -0.233584653585E+04    0.11870E-02   -0.20832E-03  5621   0.258E-02    0.102E-01
RMM:   8    -0.233584647846E+04    0.57391E-04   -0.37560E-04  4100   0.119E-02    0.661E-02
RMM:   9    -0.233584641923E+04    0.59232E-04   -0.12328E-04  3202   0.687E-03    0.393E-02
RMM:  10    -0.233584639884E+04    0.20395E-04   -0.67559E-05  2944   0.573E-03    0.993E-03
RMM:  11    -0.233584639975E+04   -0.91201E-06   -0.19029E-05  2964   0.385E-03
  30 F= -.23573832E+04 E0= -.23573832E+04  d E =-.539291E-01  mag=     5.0000
       N       E                     dE             d eps       ncg     rms          rms(c)
DAV:   1    -0.233556969544E+04    0.27670E+00   -0.15301E+01  4520   0.369E+00    0.122E+00
RMM:   2    -0.233584550975E+04   -0.27581E+00   -0.28897E+00  6579   0.898E-01    0.104E+00
RMM:   3    -0.233587077500E+04   -0.25265E-01   -0.33615E-01  6352   0.337E-01    0.939E-01
RMM:   4    -0.233586440685E+04    0.63681E-02   -0.30285E-02  6298   0.749E-02    0.375E-01
RMM:   5    -0.233586323506E+04    0.11718E-02   -0.45523E-03  5646   0.364E-02    0.293E-01
RMM:   6    -0.233586291820E+04    0.31686E-03   -0.35394E-03  5815   0.295E-02    0.272E-01
RMM:   7    -0.233586214169E+04    0.77651E-03   -0.13690E-03  5384   0.213E-02    0.847E-02
RMM:   8    -0.233586210853E+04    0.33158E-04   -0.26805E-04  3720   0.103E-02    0.580E-02
RMM:   9    -0.233586206127E+04    0.47262E-04   -0.87371E-05  3103   0.613E-03    0.312E-02
RMM:  10    -0.233586205151E+04    0.97625E-05   -0.49460E-05  2934   0.513E-03
  31 F= -.23573983E+04 E0= -.23573983E+04  d E =-.690364E-01  mag=     5.0000
       N       E                     dE             d eps       ncg     rms          rms(c)
DAV:   1    -0.233555233330E+04    0.30973E+00   -0.18853E+01  4520   0.417E+00    0.134E+00
RMM:   2    -0.233588031757E+04   -0.32798E+00   -0.34917E+00  6528   0.101E+00    0.984E-01
RMM:   3    -0.233591511251E+04   -0.34795E-01   -0.41965E-01  6263   0.388E-01    0.101E+00
RMM:   4    -0.233590766806E+04    0.74444E-02   -0.36761E-02  6437   0.876E-02    0.439E-01
RMM:   5    -0.233590575164E+04    0.19164E-02   -0.57482E-03  5838   0.412E-02    0.288E-01
RMM:   6    -0.233590605091E+04   -0.29927E-03   -0.49622E-03  5654   0.346E-02    0.356E-01
RMM:   7    -0.233590467228E+04    0.13786E-02   -0.20547E-03  5386   0.268E-02    0.989E-02
RMM:   8    -0.233590461472E+04    0.57562E-04   -0.42756E-04  4355   0.115E-02    0.730E-02
RMM:   9    -0.233590453042E+04    0.84304E-04   -0.12511E-04  3251   0.722E-03    0.382E-02
RMM:  10    -0.233590450487E+04    0.25548E-04   -0.86098E-05  3003   0.610E-03    0.104E-02
RMM:  11    -0.233590450337E+04    0.15009E-05   -0.23226E-05  2975   0.418E-03
  32 F= -.23574404E+04 E0= -.23574404E+04  d E =-.420669E-01  mag=     5.0000
       N       E                     dE             d eps       ncg     rms          rms(c)
DAV:   1    -0.233587965157E+04    0.24853E-01   -0.14833E+00  4640   0.117E+00    0.376E-01
RMM:   2    -0.233590527078E+04   -0.25619E-01   -0.27037E-01  6504   0.277E-01    0.300E-01
RMM:   3    -0.233590748664E+04   -0.22159E-02   -0.29760E-02  6095   0.107E-01    0.263E-01
RMM:   4    -0.233590700069E+04    0.48595E-03   -0.28094E-03  5139   0.242E-02    0.118E-01
RMM:   5    -0.233590689303E+04    0.10766E-03   -0.48120E-04  4570   0.130E-02    0.938E-02
RMM:   6    -0.233590683185E+04    0.61180E-04   -0.35367E-04  4165   0.109E-02    0.750E-02
RMM:   7    -0.233590678152E+04    0.50330E-04   -0.11986E-04  3260   0.793E-03    0.337E-02
RMM:   8    -0.233590676951E+04    0.12008E-04   -0.28558E-05  2931   0.539E-03    0.154E-02
RMM:   9    -0.233590676571E+04    0.38014E-05   -0.78567E-06  2937   0.270E-03
  33 F= -.23574426E+04 E0= -.23574426E+04  d E =-.442636E-01  mag=     4.9999
       N       E                     dE             d eps       ncg     rms          rms(c)
DAV:   1    -0.233578579098E+04    0.12098E+00   -0.94310E+00  4520   0.311E+00    0.964E-01
RMM:   2    -0.233592430266E+04   -0.13851E+00   -0.14741E+00  6318   0.690E-01    0.664E-01
RMM:   3    -0.233593817802E+04   -0.13875E-01   -0.16468E-01  6065   0.277E-01    0.722E-01
RMM:   4    -0.233593423097E+04    0.39470E-02   -0.15703E-02  6329   0.596E-02    0.312E-01
RMM:   5    -0.233593332665E+04    0.90432E-03   -0.32393E-03  5624   0.319E-02    0.201E-01
RMM:   6    -0.233593319828E+04    0.12838E-03   -0.24673E-03  5828   0.279E-02    0.164E-01
RMM:   7    -0.233593282573E+04    0.37254E-03   -0.53949E-04  5182   0.150E-02    0.501E-02
RMM:   8    -0.233593278941E+04    0.36330E-04   -0.83039E-05  3070   0.636E-03    0.250E-02
RMM:   9    -0.233593278708E+04    0.23249E-05   -0.37627E-05  2969   0.478E-03
  34 F= -.23574686E+04 E0= -.23574686E+04  d E =-.260021E-01  mag=     4.9999
       N       E                     dE             d eps       ncg     rms          rms(c)
DAV:   1    -0.233592324335E+04    0.95461E-02   -0.69117E-01  4656   0.840E-01    0.262E-01
RMM:   2    -0.233593341850E+04   -0.10175E-01   -0.10805E-01  6349   0.186E-01    0.184E-01
RMM:   3    -0.233593436513E+04   -0.94663E-03   -0.11505E-02  5846   0.739E-02    0.191E-01
RMM:   4    -0.233593409375E+04    0.27138E-03   -0.11532E-03  3985   0.163E-02    0.838E-02
RMM:   5    -0.233593403944E+04    0.54304E-04   -0.24222E-04  3938   0.103E-02    0.618E-02
RMM:   6    -0.233593400903E+04    0.30411E-04   -0.18489E-04  3595   0.912E-03    0.400E-02
RMM:   7    -0.233593398846E+04    0.20571E-04   -0.38127E-05  2963   0.598E-03    0.150E-02
RMM:   8    -0.233593398779E+04    0.67378E-06   -0.11008E-05  2905   0.409E-03
  35 F= -.23574698E+04 E0= -.23574698E+04  d E =-.272131E-01  mag=     4.9999
       N       E                     dE             d eps       ncg     rms          rms(c)
DAV:   1    -0.233579248097E+04    0.14151E+00   -0.10893E+01  4520   0.324E+00    0.940E-01
RMM:   2    -0.233595594875E+04   -0.16347E+00   -0.17107E+00  6435   0.722E-01    0.795E-01
RMM:   3    -0.233597052283E+04   -0.14574E-01   -0.19258E-01  6168   0.277E-01    0.759E-01
RMM:   4    -0.233596622170E+04    0.43011E-02   -0.18723E-02  6082   0.598E-02    0.310E-01
RMM:   5    -0.233596549490E+04    0.72680E-03   -0.31678E-03  5708   0.309E-02    0.254E-01
RMM:   6    -0.233596506979E+04    0.42511E-03   -0.26908E-03  5894   0.283E-02    0.189E-01
RMM:   7    -0.233596475039E+04    0.31940E-03   -0.79422E-04  5264   0.178E-02    0.753E-02
RMM:   8    -0.233596471549E+04    0.34900E-04   -0.19640E-04  3350   0.902E-03    0.542E-02
RMM:   9    -0.233596467305E+04    0.42441E-04   -0.52889E-05  3006   0.556E-03    0.242E-02
RMM:  10    -0.233596466420E+04    0.88453E-05   -0.29899E-05  2925   0.428E-03
  36 F= -.23575004E+04 E0= -.23575004E+04  d E =-.306034E-01  mag=     4.9999
       N       E                     dE             d eps       ncg     rms          rms(c)
DAV:   1    -0.233586665239E+04    0.98021E-01   -0.67177E+00  4520   0.255E+00    0.737E-01
RMM:   2    -0.233596732033E+04   -0.10067E+00   -0.10533E+00  6454   0.565E-01    0.622E-01
RMM:   3    -0.233597620054E+04   -0.88802E-02   -0.11645E-01  6175   0.215E-01    0.593E-01
RMM:   4    -0.233597361764E+04    0.25829E-02   -0.11536E-02  5928   0.468E-02    0.242E-01
RMM:   5    -0.233597315790E+04    0.45974E-03   -0.19445E-03  5574   0.246E-02    0.196E-01
RMM:   6    -0.233597289820E+04    0.25970E-03   -0.16248E-03  5706   0.224E-02    0.144E-01
RMM:   7    -0.233597270545E+04    0.19275E-03   -0.46148E-04  4938   0.139E-02    0.561E-02
RMM:   8    -0.233597268624E+04    0.19205E-04   -0.10948E-04  3102   0.734E-03    0.399E-02
RMM:   9    -0.233597266363E+04    0.22612E-04   -0.30867E-05  2948   0.452E-03    0.190E-02
RMM:  10    -0.233597265880E+04    0.48340E-05   -0.18933E-05  2916   0.352E-03
  37 F= -.23575084E+04 E0= -.23575083E+04  d E =-.385838E-01  mag=     4.9999
       N       E                     dE             d eps       ncg     rms          rms(c)
DAV:   1    -0.233585487643E+04    0.11779E+00   -0.10947E+01  4520   0.324E+00    0.928E-01
RMM:   2    -0.233599220470E+04   -0.13733E+00   -0.14542E+00  6298   0.661E-01    0.727E-01
RMM:   3    -0.233600621276E+04   -0.14008E-01   -0.16892E-01  6055   0.263E-01    0.763E-01
RMM:   4    -0.233600193496E+04    0.42778E-02   -0.17031E-02  6246   0.569E-02    0.294E-01
RMM:   5    -0.233600103098E+04    0.90398E-03   -0.31653E-03  5508   0.317E-02    0.203E-01
RMM:   6    -0.233600087949E+04    0.15150E-03   -0.24555E-03  5757   0.274E-02    0.170E-01
RMM:   7    -0.233600051461E+04    0.36488E-03   -0.59817E-04  4990   0.156E-02    0.673E-02
RMM:   8    -0.233600049359E+04    0.21021E-04   -0.13952E-04  3388   0.791E-03    0.491E-02
RMM:   9    -0.233600046423E+04    0.29352E-04   -0.48744E-05  3044   0.543E-03    0.214E-02
RMM:  10    -0.233600045545E+04    0.87842E-05   -0.22796E-05  2934   0.383E-03
  38 F= -.23575359E+04 E0= -.23575358E+04  d E =-.274960E-01  mag=     4.9998
       N       E                     dE             d eps       ncg     rms          rms(c)
DAV:   1    -0.233596902372E+04    0.31441E-01   -0.26604E+00  4544   0.159E+00    0.457E-01
RMM:   2    -0.233600237744E+04   -0.33354E-01   -0.35260E-01  6313   0.323E-01    0.363E-01
RMM:   3    -0.233600559341E+04   -0.32160E-02   -0.39303E-02  5992   0.127E-01    0.369E-01
RMM:   4    -0.233600458931E+04    0.10041E-02   -0.40927E-03  5513   0.281E-02    0.143E-01
RMM:   5    -0.233600435079E+04    0.23852E-03   -0.78941E-04  4968   0.169E-02    0.919E-02
RMM:   6    -0.233600434149E+04    0.92995E-05   -0.53877E-04  4862   0.141E-02    0.841E-02
RMM:   7    -0.233600425149E+04    0.89994E-04   -0.13659E-04  3395   0.838E-03    0.307E-02
RMM:   8    -0.233600424568E+04    0.58134E-05   -0.27977E-05  2946   0.513E-03
  39 F= -.23575395E+04 E0= -.23575395E+04  d E =-.311496E-01  mag=     4.9998
       N       E                     dE             d eps       ncg     rms          rms(c)
DAV:   1    -0.233589369737E+04    0.11055E+00   -0.82974E+00  4520   0.286E+00    0.839E-01
RMM:   2    -0.233601838102E+04   -0.12468E+00   -0.13233E+00  6384   0.602E-01    0.609E-01
RMM:   3    -0.233602972716E+04   -0.11346E-01   -0.14816E-01  6158   0.236E-01    0.529E-01
RMM:   4    -0.233602809022E+04    0.16369E-02   -0.14572E-02  6265   0.512E-02    0.286E-01
RMM:   5    -0.233602765623E+04    0.43399E-03   -0.24816E-03  5456   0.272E-02    0.263E-01
RMM:   6    -0.233602714479E+04    0.51144E-03   -0.20584E-03  5683   0.244E-02    0.174E-01
RMM:   7    -0.233602684912E+04    0.29567E-03   -0.68047E-04  5214   0.160E-02    0.638E-02
RMM:   8    -0.233602682989E+04    0.19231E-04   -0.15305E-04  3261   0.871E-03    0.474E-02
RMM:   9    -0.233602679834E+04    0.31545E-04   -0.42028E-05  2966   0.530E-03    0.218E-02
RMM:  10    -0.233602679119E+04    0.71561E-05   -0.26979E-05  2928   0.397E-03
  40 F= -.23575621E+04 E0= -.23575621E+04  d E =-.225996E-01  mag=     4.9996
       N       E                     dE             d eps       ncg     rms          rms(c)
DAV:   1    -0.233596621116E+04    0.60587E-01   -0.40885E+00  4524   0.201E+00    0.587E-01
RMM:   2    -0.233602743381E+04   -0.61223E-01   -0.64920E-01  6404   0.420E-01    0.427E-01
RMM:   3    -0.233603289471E+04   -0.54609E-02   -0.70988E-02  6113   0.165E-01    0.370E-01
RMM:   4    -0.233603209872E+04    0.79599E-03   -0.71812E-03  5981   0.361E-02    0.198E-01
RMM:   5    -0.233603186257E+04    0.23615E-03   -0.12507E-03  5176   0.202E-02    0.179E-01
RMM:   6    -0.233603163259E+04    0.22999E-03   -0.97945E-04  5229   0.173E-02    0.123E-01
RMM:   7    -0.233603148629E+04    0.14629E-03   -0.31900E-04  4633   0.115E-02    0.426E-02
RMM:   8    -0.233603147627E+04    0.10020E-04   -0.67433E-05  3019   0.677E-03    0.306E-02
RMM:   9    -0.233603146364E+04    0.12636E-04   -0.19423E-05  2934   0.395E-03    0.146E-02
RMM:  10    -0.233603146124E+04    0.23952E-05   -0.13287E-05  2920   0.302E-03
  41 F= -.23575668E+04 E0= -.23575668E+04  d E =-.273186E-01  mag=     4.9994
       N       E                     dE             d eps       ncg     rms          rms(c)
DAV:   1    -0.233595775094E+04    0.73713E-01   -0.57608E+00  4520   0.237E+00    0.661E-01
RMM:   2    -0.233604499581E+04   -0.87245E-01   -0.91636E-01  6507   0.499E-01    0.508E-01
RMM:   3    -0.233605229625E+04   -0.73004E-02   -0.10108E-01  6190   0.191E-01    0.392E-01
RMM:   4    -0.233605123133E+04    0.10649E-02   -0.97266E-03  6043   0.416E-02    0.222E-01
RMM:   5    -0.233605076135E+04    0.46998E-03   -0.16430E-03  5328   0.223E-02    0.187E-01
RMM:   6    -0.233605061333E+04    0.14802E-03   -0.11795E-03  5099   0.175E-02    0.160E-01
RMM:   7    -0.233605040407E+04    0.20926E-03   -0.44442E-04  4926   0.124E-02    0.379E-02
RMM:   8    -0.233605039467E+04    0.94034E-05   -0.51338E-05  3014   0.664E-03
  42 F= -.23575861E+04 E0= -.23575861E+04  d E =-.192943E-01  mag=     4.9992
       N       E                     dE             d eps       ncg     rms          rms(c)
DAV:   1    -0.233570147700E+04    0.34893E+00   -0.22228E+01  4520   0.465E+00    0.131E+00
RMM:   2    -0.233604522453E+04   -0.34375E+00   -0.36007E+00  6493   0.100E+00    0.108E+00
RMM:   3    -0.233607199190E+04   -0.26767E-01   -0.41215E-01  6252   0.381E-01    0.797E-01
RMM:   4    -0.233606716621E+04    0.48257E-02   -0.37638E-02  6293   0.826E-02    0.450E-01
RMM:   5    -0.233606570710E+04    0.14591E-02   -0.67825E-03  5724   0.420E-02    0.413E-01
RMM:   6    -0.233606459856E+04    0.11085E-02   -0.46499E-03  5794   0.333E-02    0.293E-01
RMM:   7    -0.233606389872E+04    0.69984E-03   -0.18820E-03  5594   0.245E-02    0.824E-02
RMM:   8    -0.233606387410E+04    0.24614E-04   -0.27522E-04  4009   0.126E-02    0.582E-02
RMM:   9    -0.233606383848E+04    0.35620E-04   -0.91867E-05  3096   0.639E-03    0.418E-02
RMM:  10    -0.233606381461E+04    0.23870E-04   -0.66359E-05  2962   0.540E-03    0.102E-02
RMM:  11    -0.233606381534E+04   -0.72327E-06   -0.19470E-05  2966   0.363E-03
  43 F= -.23576002E+04 E0= -.23576001E+04  d E =-.334230E-01  mag=     4.9983
       N       E                     dE             d eps       ncg     rms          rms(c)
DAV:   1    -0.233595511746E+04    0.10870E+00   -0.93170E+00  4552   0.302E+00    0.820E-01
RMM:   2    -0.233607269492E+04   -0.11758E+00   -0.12499E+00  6359   0.626E-01    0.571E-01
RMM:   3    -0.233608299257E+04   -0.10298E-01   -0.13680E-01  6091   0.232E-01    0.499E-01
RMM:   4    -0.233608117906E+04    0.18135E-02   -0.13636E-02  6319   0.512E-02    0.300E-01
RMM:   5    -0.233608057503E+04    0.60402E-03   -0.30047E-03  5482   0.283E-02    0.267E-01
RMM:   6    -0.233608002426E+04    0.55077E-03   -0.20304E-03  5537   0.254E-02    0.167E-01
RMM:   7    -0.233607979338E+04    0.23088E-03   -0.65738E-04  5293   0.161E-02    0.527E-02
RMM:   8    -0.233607979044E+04    0.29399E-05   -0.15103E-04  3176   0.867E-03    0.529E-02
RMM:   9    -0.233607975150E+04    0.38939E-04   -0.48583E-05  2984   0.542E-03    0.176E-02
RMM:  10    -0.233607974431E+04    0.71924E-05   -0.26089E-05  2952   0.390E-03
  44 F= -.23576165E+04 E0= -.23576164E+04  d E =-.162573E-01  mag=     4.9980
       N       E                     dE             d eps       ncg     rms          rms(c)
DAV:   1    -0.233606668885E+04    0.13063E-01   -0.10745E+00  4656   0.103E+00    0.277E-01
RMM:   2    -0.233608018486E+04   -0.13496E-01   -0.14362E-01  6352   0.209E-01    0.186E-01
RMM:   3    -0.233608132285E+04   -0.11380E-02   -0.14926E-02  5858   0.778E-02    0.161E-01
RMM:   4    -0.233608115183E+04    0.17102E-03   -0.15631E-03  4787   0.175E-02    0.997E-02
RMM:   5    -0.233608108635E+04    0.65480E-04   -0.35245E-04  4260   0.111E-02    0.943E-02
RMM:   6    -0.233608101169E+04    0.74664E-04   -0.22713E-04  3817   0.100E-02    0.504E-02
RMM:   7    -0.233608099428E+04    0.17404E-04   -0.68531E-05  3338   0.667E-03    0.187E-02
RMM:   8    -0.233608099194E+04    0.23376E-05   -0.17355E-05  2922   0.479E-03
  45 F= -.23576179E+04 E0= -.23576177E+04  d E =-.176081E-01  mag=     4.9980
       N       E                     dE             d eps       ncg     rms          rms(c)
DAV:   1    -0.233606100156E+04    0.19993E-01   -0.29641E+00  4524   0.169E+00    0.460E-01
RMM:   2    -0.233609246448E+04   -0.31463E-01   -0.33868E-01  6267   0.355E-01    0.329E-01
RMM:   3    -0.233609501197E+04   -0.25475E-02   -0.36285E-02  6010   0.126E-01    0.303E-01
RMM:   4    -0.233609432682E+04    0.68515E-03   -0.36605E-03  5600   0.278E-02    0.158E-01
RMM:   5    -0.233609424709E+04    0.79729E-04   -0.10852E-03  5039   0.187E-02    0.149E-01
RMM:   6    -0.233609404442E+04    0.20268E-03   -0.59603E-04  4741   0.155E-02    0.741E-02
RMM:   7    -0.233609399840E+04    0.46014E-04   -0.13738E-04  3627   0.885E-03    0.367E-02
RMM:   8    -0.233609399140E+04    0.70071E-05   -0.43132E-05  2979   0.559E-03
  46 F= -.23576308E+04 E0= -.23576307E+04  d E =-.129325E-01  mag=     4.9980
       N       E                     dE             d eps       ncg     rms          rms(c)
DAV:   1    -0.233607777701E+04    0.16221E-01   -0.17257E+00  4528   0.129E+00    0.352E-01
RMM:   2    -0.233609602899E+04   -0.18252E-01   -0.19660E-01  6270   0.269E-01    0.251E-01
RMM:   3    -0.233609753315E+04   -0.15042E-02   -0.20955E-02  5931   0.972E-02    0.232E-01
RMM:   4    -0.233609713754E+04    0.39561E-03   -0.21371E-03  5162   0.215E-02    0.121E-01
RMM:   5    -0.233609710860E+04    0.28943E-04   -0.64332E-04  4675   0.147E-02    0.120E-01
RMM:   6    -0.233609696902E+04    0.13957E-03   -0.36456E-04  4340   0.124E-02    0.534E-02
RMM:   7    -0.233609694535E+04    0.23673E-04   -0.75983E-05  3232   0.727E-03    0.277E-02
RMM:   8    -0.233609694148E+04    0.38698E-05   -0.25676E-05  2940   0.486E-03
  47 F= -.23576337E+04 E0= -.23576336E+04  d E =-.158256E-01  mag=     4.9981
       N       E                     dE             d eps       ncg     rms          rms(c)
DAV:   1    -0.233607993010E+04    0.17015E-01   -0.32377E+00  4520   0.182E+00    0.474E-01
RMM:   2    -0.233610650908E+04   -0.26579E-01   -0.28254E-01  6124   0.354E-01    0.347E-01
RMM:   3    -0.233610833056E+04   -0.18215E-02   -0.28800E-02  5893   0.129E-01    0.342E-01
RMM:   4    -0.233610734712E+04    0.98344E-03   -0.31351E-03  5693   0.302E-02    0.153E-01
RMM:   5    -0.233610729999E+04    0.47134E-04   -0.12155E-03  5201   0.215E-02    0.145E-01
RMM:   6    -0.233610709154E+04    0.20845E-03   -0.59053E-04  4903   0.153E-02    0.734E-02
RMM:   7    -0.233610703718E+04    0.54359E-04   -0.10744E-04  3451   0.827E-03    0.324E-02
RMM:   8    -0.233610703124E+04    0.59391E-05   -0.36993E-05  2969   0.516E-03
  48 F= -.23576435E+04 E0= -.23576433E+04  d E =-.977685E-02  mag=     4.9979
       N       E                     dE             d eps       ncg     rms          rms(c)
DAV:   1    -0.233609998629E+04    0.70509E-02   -0.10338E+00  4560   0.103E+00    0.268E-01
RMM:   2    -0.233610847785E+04   -0.84916E-02   -0.90362E-02  6152   0.199E-01    0.193E-01
RMM:   3    -0.233610906765E+04   -0.58981E-03   -0.91805E-03  5758   0.723E-02    0.193E-01
RMM:   4    -0.233610875569E+04    0.31197E-03   -0.10093E-03  4714   0.172E-02    0.868E-02
RMM:   5    -0.233610874798E+04    0.77063E-05   -0.39374E-04  4504   0.130E-02    0.867E-02
RMM:   6    -0.233610866608E+04    0.81898E-04   -0.19715E-04  3890   0.965E-03    0.381E-02
RMM:   7    -0.233610865188E+04    0.14198E-04   -0.33750E-05  3001   0.595E-03    0.184E-02
RMM:   8    -0.233610864990E+04    0.19849E-05   -0.12708E-05  2915   0.376E-03
  49 F= -.23576449E+04 E0= -.23576448E+04  d E =-.112147E-01  mag=     4.9977
       N       E                     dE             d eps       ncg     rms          rms(c)
DAV:   1    -0.233609359162E+04    0.15060E-01   -0.34329E+00  4520   0.186E+00    0.445E-01
RMM:   2    -0.233611720597E+04   -0.23614E-01   -0.25578E-01  6121   0.342E-01    0.296E-01
RMM:   3    -0.233611878141E+04   -0.15754E-02   -0.26019E-02  5757   0.127E-01    0.291E-01
RMM:   4    -0.233611814156E+04    0.63985E-03   -0.27405E-03  5696   0.286E-02    0.170E-01
RMM:   5    -0.233611788346E+04    0.25811E-03   -0.13083E-03  5093   0.222E-02    0.104E-01
RMM:   6    -0.233611783044E+04    0.53013E-04   -0.46762E-04  4445   0.156E-02    0.738E-02
RMM:   7    -0.233611775573E+04    0.74718E-04   -0.11611E-04  3460   0.741E-03    0.237E-02
RMM:   8    -0.233611775252E+04    0.32107E-05   -0.27538E-05  2962   0.465E-03
  50 F= -.23576541E+04 E0= -.23576539E+04  d E =-.918792E-02  mag=     4.9972
       N       E                     dE             d eps       ncg     rms          rms(c)
DAV:   1    -0.233611407743E+04    0.36783E-02   -0.65043E-01  4624   0.810E-01    0.194E-01
RMM:   2    -0.233611854138E+04   -0.44640E-02   -0.48390E-02  6121   0.148E-01    0.128E-01
RMM:   3    -0.233611885378E+04   -0.31240E-03   -0.49200E-03  5399   0.554E-02    0.127E-01
RMM:   4    -0.233611873171E+04    0.12207E-03   -0.51781E-04  3831   0.128E-02    0.737E-02
RMM:   5    -0.233611868452E+04    0.47187E-04   -0.25582E-04  4264   0.108E-02    0.482E-02
RMM:   6    -0.233611866682E+04    0.17698E-04   -0.92051E-05  3133   0.813E-03    0.299E-02
RMM:   7    -0.233611865477E+04    0.12054E-04   -0.20662E-05  2938   0.476E-03    0.963E-03
RMM:   8    -0.233611865440E+04    0.36493E-06   -0.62587E-06  2923   0.295E-03
  51 F= -.23576550E+04 E0= -.23576548E+04  d E =-.101268E-01  mag=     4.9967
       N       E                     dE             d eps       ncg     rms          rms(c)
DAV:   1    -0.233610520980E+04    0.13445E-01   -0.22916E+00  4520   0.157E+00    0.394E-01
RMM:   2    -0.233612518226E+04   -0.19972E-01   -0.21353E-01  6208   0.311E-01    0.285E-01
RMM:   3    -0.233612612662E+04   -0.94436E-03   -0.21326E-02  5891   0.113E-01    0.226E-01
RMM:   4    -0.233612562428E+04    0.50234E-03   -0.20520E-03  5777   0.261E-02    0.142E-01
RMM:   5    -0.233612556894E+04    0.55345E-04   -0.92833E-04  5159   0.183E-02    0.149E-01
RMM:   6    -0.233612535463E+04    0.21431E-03   -0.54742E-04  4747   0.151E-02    0.654E-02
RMM:   7    -0.233612533640E+04    0.18233E-04   -0.12502E-04  3438   0.831E-03    0.421E-02
RMM:   8    -0.233612531448E+04    0.21911E-04   -0.34573E-05  2922   0.516E-03    0.151E-02
RMM:   9    -0.233612530989E+04    0.45990E-05   -0.89456E-06  2945   0.249E-03
  52 F= -.23576621E+04 E0= -.23576618E+04  d E =-.703991E-02  mag=     4.9958
       N       E                     dE             d eps       ncg     rms          rms(c)
DAV:   1    -0.233612098791E+04    0.43266E-02   -0.57241E-01  4560   0.782E-01    0.196E-01
RMM:   2    -0.233612596450E+04   -0.49766E-02   -0.53283E-02  6244   0.156E-01    0.139E-01
RMM:   3    -0.233612621413E+04   -0.24963E-03   -0.52327E-03  5609   0.549E-02    0.113E-01
RMM:   4    -0.233612609187E+04    0.12226E-03   -0.50901E-04  4324   0.131E-02    0.726E-02
RMM:   5    -0.233612607258E+04    0.19299E-04   -0.23597E-04  4060   0.102E-02    0.754E-02
RMM:   6    -0.233612601851E+04    0.54070E-04   -0.14228E-04  3466   0.881E-03    0.319E-02
RMM:   7    -0.233612601376E+04    0.47442E-05   -0.32914E-05  2971   0.570E-03
  53 F= -.23576630E+04 E0= -.23576627E+04  d E =-.793783E-02  mag=     4.9952
       N       E                     dE             d eps       ncg     rms          rms(c)
DAV:   1    -0.233610630110E+04    0.19717E-01   -0.26608E+00  4520   0.170E+00    0.467E-01
RMM:   2    -0.233613366187E+04   -0.27361E-01   -0.28374E-01  6346   0.364E-01    0.409E-01
RMM:   3    -0.233613351912E+04    0.14275E-03   -0.24998E-02  6034   0.120E-01    0.264E-01
RMM:   4    -0.233613280383E+04    0.71530E-03   -0.27778E-03  5771   0.291E-02    0.158E-01
RMM:   5    -0.233613280993E+04   -0.60992E-05   -0.94353E-04  5210   0.179E-02    0.179E-01
RMM:   6    -0.233613246677E+04    0.34315E-03   -0.77167E-04  5371   0.177E-02    0.723E-02
RMM:   7    -0.233613246103E+04    0.57421E-05   -0.21168E-04  3421   0.107E-02    0.607E-02
RMM:   8    -0.233613241834E+04    0.42687E-04   -0.40537E-05  2933   0.498E-03    0.124E-02
RMM:   9    -0.233613241490E+04    0.34396E-05   -0.11134E-05  2943   0.283E-03
  54 F= -.23576695E+04 E0= -.23576692E+04  d E =-.652897E-02  mag=     4.9945
       N       E                     dE             d eps       ncg     rms          rms(c)
DAV:   1    -0.233613018179E+04    0.22366E-02   -0.26645E-01  4688   0.541E-01    0.147E-01
RMM:   2    -0.233613287273E+04   -0.26909E-02   -0.27929E-02  6347   0.115E-01    0.126E-01
RMM:   3    -0.233613289479E+04   -0.22061E-04   -0.25443E-03  5157   0.375E-02    0.849E-02
RMM:   4    -0.233613282118E+04    0.73616E-04   -0.27785E-04  3398   0.968E-03    0.519E-02
RMM:   5    -0.233613281899E+04    0.21880E-05   -0.95498E-05  3120   0.690E-03
  55 F= -.23576699E+04 E0= -.23576696E+04  d E =-.697452E-02  mag=     4.9943
       N       E                     dE             d eps       ncg     rms          rms(c)
DAV:   1    -0.233610820302E+04    0.24618E-01   -0.27552E+00  4520   0.171E+00    0.455E-01
RMM:   2    -0.233613910453E+04   -0.30902E-01   -0.32161E-01  6455   0.373E-01    0.375E-01
RMM:   3    -0.233613974829E+04   -0.64375E-03   -0.30195E-02  6078   0.125E-01    0.245E-01
RMM:   4    -0.233613915596E+04    0.59233E-03   -0.31091E-03  5768   0.286E-02    0.151E-01
RMM:   5    -0.233613918603E+04   -0.30074E-04   -0.10455E-03  5396   0.192E-02    0.174E-01
RMM:   6    -0.233613882401E+04    0.36203E-03   -0.75796E-04  5297   0.168E-02    0.649E-02
RMM:   7    -0.233613882624E+04   -0.22319E-05   -0.16507E-04  3296   0.876E-03    0.601E-02
RMM:   8    -0.233613878884E+04    0.37398E-04   -0.49816E-05  2935   0.523E-03    0.155E-02
RMM:   9    -0.233613878371E+04    0.51274E-05   -0.12398E-05  2952   0.277E-03
  56 F= -.23576757E+04 E0= -.23576754E+04  d E =-.573133E-02  mag=     4.9947
       N       E                     dE             d eps       ncg     rms          rms(c)
DAV:   1    -0.233613749461E+04    0.12942E-02   -0.13786E-01  4720   0.382E-01    0.101E-01
RMM:   2    -0.233613904789E+04   -0.15533E-02   -0.16120E-02  6467   0.836E-02    0.841E-02
RMM:   3    -0.233613907705E+04   -0.29159E-04   -0.13927E-03  4197   0.256E-02    0.572E-02
RMM:   4    -0.233613904905E+04    0.28004E-04   -0.15533E-04  3078   0.732E-03    0.399E-02
RMM:   5    -0.233613904468E+04    0.43703E-05   -0.46406E-05  2955   0.495E-03
  57 F= -.23576759E+04 E0= -.23576756E+04  d E =-.594064E-02  mag=     4.9948
       N       E                     dE             d eps       ncg     rms          rms(c)
DAV:   1    -0.233612341734E+04    0.15632E-01   -0.21711E+00  4520   0.151E+00    0.404E-01
RMM:   2    -0.233614442106E+04   -0.21004E-01   -0.22105E-01  6251   0.305E-01    0.291E-01
RMM:   3    -0.233614546911E+04   -0.10480E-02   -0.22611E-02  5896   0.111E-01    0.217E-01
RMM:   4    -0.233614494450E+04    0.52461E-03   -0.22134E-03  5545   0.253E-02    0.132E-01
RMM:   5    -0.233614482274E+04    0.12176E-03   -0.10101E-03  5571   0.202E-02    0.110E-01
RMM:   6    -0.233614471422E+04    0.10851E-03   -0.42916E-04  4677   0.130E-02    0.605E-02
RMM:   7    -0.233614467938E+04    0.34840E-04   -0.78102E-05  3109   0.659E-03    0.355E-02
RMM:   8    -0.233614467045E+04    0.89325E-05   -0.24820E-05  2923   0.433E-03
  58 F= -.23576811E+04 E0= -.23576809E+04  d E =-.525517E-02  mag=     4.9953
       N       E                     dE             d eps       ncg     rms          rms(c)
DAV:   1    -0.233613841715E+04    0.62622E-02   -0.71780E-01  4524   0.870E-01    0.234E-01
RMM:   2    -0.233614542724E+04   -0.70101E-02   -0.73444E-02  6220   0.175E-01    0.177E-01
RMM:   3    -0.233614572358E+04   -0.29634E-03   -0.74020E-03  5643   0.634E-02    0.130E-01
RMM:   4    -0.233614553569E+04    0.18789E-03   -0.74375E-04  4533   0.148E-02    0.753E-02
RMM:   5    -0.233614550326E+04    0.32422E-04   -0.32327E-04  4633   0.119E-02    0.682E-02
RMM:   6    -0.233614545254E+04    0.50724E-04   -0.15822E-04  3484   0.892E-03    0.288E-02
RMM:   7    -0.233614544365E+04    0.88898E-05   -0.22135E-05  2977   0.534E-03
  59 F= -.23576817E+04 E0= -.23576815E+04  d E =-.581590E-02  mag=     4.9957
       N       E                     dE             d eps       ncg     rms          rms(c)
DAV:   1    -0.233614060786E+04    0.48447E-02   -0.78886E-01  4536   0.901E-01    0.239E-01
RMM:   2    -0.233614912598E+04   -0.85181E-02   -0.88077E-02  6279   0.185E-01    0.211E-01
RMM:   3    -0.233614941037E+04   -0.28439E-03   -0.90697E-03  5687   0.664E-02    0.138E-01
RMM:   4    -0.233614922095E+04    0.18942E-03   -0.89558E-04  4390   0.153E-02    0.799E-02
RMM:   5    -0.233614920235E+04    0.18599E-04   -0.29781E-04  4392   0.109E-02    0.842E-02
RMM:   6    -0.233614913205E+04    0.70294E-04   -0.21305E-04  3623   0.984E-03    0.369E-02
RMM:   7    -0.233614913105E+04    0.10071E-05   -0.44127E-05  2979   0.581E-03
  60 F= -.23576853E+04 E0= -.23576851E+04  d E =-.358179E-02  mag=     4.9960
       N       E                     dE             d eps       ncg     rms          rms(c)
DAV:   1    -0.233610905920E+04    0.40073E-01   -0.40344E+00  4520   0.204E+00    0.539E-01
RMM:   2    -0.233615284762E+04   -0.43788E-01   -0.45248E-01  6291   0.422E-01    0.478E-01
RMM:   3    -0.233615418180E+04   -0.13342E-02   -0.46518E-02  5977   0.148E-01    0.309E-01
RMM:   4    -0.233615320292E+04    0.97888E-03   -0.45619E-03  5781   0.341E-02    0.181E-01
RMM:   5    -0.233615313149E+04    0.71431E-04   -0.15173E-03  5725   0.225E-02    0.195E-01
RMM:   6    -0.233615273084E+04    0.40065E-03   -0.10614E-03  5275   0.186E-02    0.835E-02
RMM:   7    -0.233615272645E+04    0.43865E-05   -0.24571E-04  3480   0.955E-03    0.775E-02
RMM:   8    -0.233615266845E+04    0.57998E-04   -0.71156E-05  2996   0.605E-03    0.163E-02
RMM:   9    -0.233615266204E+04    0.64175E-05   -0.18226E-05  2967   0.305E-03
  61 F= -.23576886E+04 E0= -.23576884E+04  d E =-.687942E-02  mag=     4.9964
       N       E                     dE             d eps       ncg     rms          rms(c)
DAV:   1    -0.233614880911E+04    0.38593E-02   -0.63455E-01  4540   0.809E-01    0.239E-01
RMM:   2    -0.233615622800E+04   -0.74189E-02   -0.77943E-02  6251   0.177E-01    0.181E-01
RMM:   3    -0.233615655197E+04   -0.32398E-03   -0.81942E-03  5777   0.626E-02    0.130E-01
RMM:   4    -0.233615636435E+04    0.18763E-03   -0.82564E-04  4684   0.153E-02    0.796E-02
RMM:   5    -0.233615634569E+04    0.18664E-04   -0.30001E-04  4565   0.114E-02    0.809E-02
RMM:   6    -0.233615627007E+04    0.75612E-04   -0.19274E-04  3902   0.964E-03    0.325E-02
RMM:   7    -0.233615627011E+04   -0.33440E-07   -0.45062E-05  2969   0.594E-03
  62 F= -.23576922E+04 E0= -.23576920E+04  d E =-.364394E-02  mag=     4.9964
       N       E                     dE             d eps       ncg     rms          rms(c)
DAV:   1    -0.233615133370E+04    0.49364E-02   -0.49535E-01  4544   0.715E-01    0.213E-01
RMM:   2    -0.233615713517E+04   -0.58015E-02   -0.61309E-02  6221   0.157E-01    0.159E-01
RMM:   3    -0.233615741014E+04   -0.27498E-03   -0.65099E-03  5706   0.567E-02    0.117E-01
RMM:   4    -0.233615726103E+04    0.14911E-03   -0.64853E-04  4363   0.139E-02    0.714E-02
RMM:   5    -0.233615723923E+04    0.21800E-04   -0.23641E-04  4298   0.103E-02    0.685E-02
RMM:   6    -0.233615718356E+04    0.55667E-04   -0.15848E-04  3602   0.915E-03    0.218E-02
RMM:   7    -0.233615717877E+04    0.47896E-05   -0.22555E-05  3008   0.538E-03
  63 F= -.23576932E+04 E0= -.23576930E+04  d E =-.458495E-02  mag=     4.9964
       N       E                     dE             d eps       ncg     rms          rms(c)
DAV:   1    -0.233615152255E+04    0.56610E-02   -0.64985E-01  4520   0.821E-01    0.242E-01
RMM:   2    -0.233615996597E+04   -0.84434E-02   -0.88799E-02  6333   0.184E-01    0.180E-01
RMM:   3    -0.233616040369E+04   -0.43772E-03   -0.92470E-03  5765   0.665E-02    0.133E-01
RMM:   4    -0.233616024013E+04    0.16355E-03   -0.92362E-04  4386   0.150E-02    0.890E-02
RMM:   5    -0.233616020627E+04    0.33867E-04   -0.21917E-04  3519   0.949E-03    0.812E-02
RMM:   6    -0.233616012778E+04    0.78488E-04   -0.23146E-04  4363   0.104E-02    0.304E-02
RMM:   7    -0.233616013051E+04   -0.27311E-05   -0.55742E-05  3063   0.692E-03
  64 F= -.23576961E+04 E0= -.23576959E+04  d E =-.294466E-02  mag=     4.9964
       N       E                     dE             d eps       ncg     rms          rms(c)
DAV:   1    -0.233615231202E+04    0.78158E-02   -0.65521E-01  4520   0.825E-01    0.243E-01
RMM:   2    -0.233616082220E+04   -0.85102E-02   -0.89829E-02  6364   0.186E-01    0.173E-01
RMM:   3    -0.233616127088E+04   -0.44868E-03   -0.93345E-03  5813   0.664E-02    0.119E-01
RMM:   4    -0.233616112141E+04    0.14947E-03   -0.90458E-04  4357   0.150E-02    0.782E-02
RMM:   5    -0.233616109638E+04    0.25027E-04   -0.25488E-04  4255   0.105E-02    0.764E-02
RMM:   6    -0.233616102746E+04    0.68922E-04   -0.18613E-04  3943   0.957E-03    0.297E-02
RMM:   7    -0.233616102713E+04    0.32465E-06   -0.43063E-05  3013   0.588E-03
  65 F= -.23576970E+04 E0= -.23576968E+04  d E =-.383524E-02  mag=     4.9964
       N       E                     dE             d eps       ncg     rms          rms(c)
DAV:   1    -0.233615256553E+04    0.84619E-02   -0.84773E-01  4520   0.939E-01    0.269E-01
RMM:   2    -0.233616382657E+04   -0.11261E-01   -0.11871E-01  6404   0.209E-01    0.188E-01
RMM:   3    -0.233616452448E+04   -0.69791E-03   -0.12422E-02  5790   0.742E-02    0.131E-01
RMM:   4    -0.233616437668E+04    0.14779E-03   -0.11778E-03  4562   0.161E-02    0.877E-02
RMM:   5    -0.233616436218E+04    0.14499E-04   -0.28637E-04  3870   0.109E-02    0.947E-02
RMM:   6    -0.233616427336E+04    0.88827E-04   -0.22782E-04  3985   0.101E-02    0.368E-02
RMM:   7    -0.233616426628E+04    0.70784E-05   -0.42057E-05  3105   0.602E-03
  66 F= -.23577003E+04 E0= -.23577001E+04  d E =-.329681E-02  mag=     4.9966
       N       E                     dE             d eps       ncg     rms          rms(c)
DAV:   1    -0.233613986965E+04    0.24404E-01   -0.18890E+00  4520   0.140E+00    0.402E-01
RMM:   2    -0.233616506176E+04   -0.25192E-01   -0.26488E-01  6406   0.311E-01    0.289E-01
RMM:   3    -0.233616656918E+04   -0.15074E-02   -0.27770E-02  5980   0.109E-01    0.207E-01
RMM:   4    -0.233616619107E+04    0.37811E-03   -0.26694E-03  5326   0.239E-02    0.138E-01
RMM:   5    -0.233616614622E+04    0.44850E-04   -0.60443E-04  4646   0.145E-02    0.142E-01
RMM:   6    -0.233616592638E+04    0.21984E-03   -0.57589E-04  5020   0.152E-02    0.499E-02
RMM:   7    -0.233616592115E+04    0.52297E-05   -0.11089E-04  3349   0.834E-03    0.343E-02
RMM:   8    -0.233616591028E+04    0.10869E-04   -0.37213E-05  2977   0.511E-03    0.211E-02
RMM:   9    -0.233616590454E+04    0.57441E-05   -0.85490E-06  2918   0.307E-03
  67 F= -.23577020E+04 E0= -.23577019E+04  d E =-.502342E-02  mag=     4.9970
       N       E                     dE             d eps       ncg     rms          rms(c)
DAV:   1    -0.233616028291E+04    0.56274E-02   -0.58581E-01  4544   0.777E-01    0.220E-01
RMM:   2    -0.233616825249E+04   -0.79696E-02   -0.84018E-02  6428   0.171E-01    0.152E-01
RMM:   3    -0.233616885118E+04   -0.59869E-03   -0.91566E-03  5562   0.610E-02    0.124E-01
RMM:   4    -0.233616874599E+04    0.10519E-03   -0.85802E-04  3563   0.132E-02    0.814E-02
RMM:   5    -0.233616871401E+04    0.31978E-04   -0.17088E-04  3198   0.812E-03    0.718E-02
RMM:   6    -0.233616865445E+04    0.59554E-04   -0.19892E-04  3880   0.974E-03    0.264E-02
RMM:   7    -0.233616864916E+04    0.52888E-05   -0.35458E-05  3117   0.553E-03
  68 F= -.23577048E+04 E0= -.23577047E+04  d E =-.280106E-02  mag=     4.9973
       N       E                     dE             d eps       ncg     rms          rms(c)
DAV:   1    -0.233612652094E+04    0.42134E-01   -0.30855E+00  4520   0.178E+00    0.508E-01
RMM:   2    -0.233616864242E+04   -0.42121E-01   -0.44420E-01  6443   0.393E-01    0.355E-01
RMM:   3    -0.233617179106E+04   -0.31486E-02   -0.48919E-02  6010   0.142E-01    0.286E-01
RMM:   4    -0.233617114739E+04    0.64367E-03   -0.45356E-03  5642   0.298E-02    0.185E-01
RMM:   5    -0.233617099292E+04    0.15447E-03   -0.90794E-04  4907   0.164E-02    0.168E-01
RMM:   6    -0.233617067688E+04    0.31604E-03   -0.10057E-03  5328   0.195E-02    0.666E-02
RMM:   7    -0.233617064664E+04    0.30236E-04   -0.19190E-04  4044   0.957E-03    0.355E-02
RMM:   8    -0.233617063800E+04    0.86356E-05   -0.53980E-05  3024   0.576E-03
  69 F= -.23577069E+04 E0= -.23577068E+04  d E =-.492858E-02  mag=     4.9978
       N       E                     dE             d eps       ncg     rms          rms(c)
DAV:   1    -0.233615801845E+04    0.12628E-01   -0.11513E+00  4520   0.107E+00    0.307E-01
RMM:   2    -0.233617319566E+04   -0.15177E-01   -0.15911E-01  6400   0.234E-01    0.222E-01
RMM:   3    -0.233617430420E+04   -0.11085E-02   -0.17299E-02  5853   0.833E-02    0.179E-01
RMM:   4    -0.233617403586E+04    0.26834E-03   -0.16554E-03  4628   0.185E-02    0.113E-01
RMM:   5    -0.233617399022E+04    0.45647E-04   -0.36392E-04  3899   0.110E-02    0.106E-01
RMM:   6    -0.233617387494E+04    0.11527E-03   -0.37222E-04  4527   0.125E-02    0.443E-02
RMM:   7    -0.233617386937E+04    0.55783E-05   -0.81825E-05  3247   0.722E-03
  70 F= -.23577102E+04 E0= -.23577101E+04  d E =-.325344E-02  mag=     4.9981
       N       E                     dE             d eps       ncg     rms          rms(c)
DAV:   1    -0.233613415718E+04    0.39718E-01   -0.29940E+00  4520   0.173E+00    0.494E-01
RMM:   2    -0.233617351985E+04   -0.39363E-01   -0.41353E-01  6436   0.379E-01    0.348E-01
RMM:   3    -0.233617646889E+04   -0.29490E-02   -0.44950E-02  5991   0.135E-01    0.281E-01
RMM:   4    -0.233617579056E+04    0.67833E-03   -0.42724E-03  5589   0.300E-02    0.177E-01
RMM:   5    -0.233617565691E+04    0.13365E-03   -0.98901E-04  5134   0.174E-02    0.166E-01
RMM:   6    -0.233617538880E+04    0.26810E-03   -0.90818E-04  5237   0.182E-02    0.841E-02
RMM:   7    -0.233617535377E+04    0.35040E-04   -0.22181E-04  3786   0.101E-02    0.511E-02
RMM:   8    -0.233617532783E+04    0.25935E-04   -0.67202E-05  3042   0.603E-03    0.244E-02
RMM:   9    -0.233617531878E+04    0.90522E-05   -0.13869E-05  2952   0.343E-03
  71 F= -.23577117E+04 E0= -.23577116E+04  d E =-.474681E-02  mag=     4.9984
[...]
RMM:   5    -0.233620587662E+04    0.73082E-05   -0.38801E-05  2968   0.487E-03
 116 F= -.23577414E+04 E0= -.23577413E+04  d E =-.289370E-03  mag=     4.9998
       N       E                     dE             d eps       ncg     rms          rms(c)
DAV:   1    -0.233620547020E+04    0.41373E-03   -0.31124E-02  4656   0.181E-01    0.553E-02
RMM:   2    -0.233620583204E+04   -0.36184E-03   -0.37997E-03  6329   0.402E-02    0.401E-02
RMM:   3    -0.233620585246E+04   -0.20421E-04   -0.37633E-04  3157   0.139E-02    0.344E-02
RMM:   4    -0.233620584023E+04    0.12226E-04   -0.40734E-05  2964   0.502E-03    0.180E-02
RMM:   5    -0.233620584138E+04   -0.11456E-05   -0.16045E-05  2912   0.299E-03
 117 F= -.23577414E+04 E0= -.23577414E+04  d E =-.301892E-03  mag=     4.9998
       N       E                     dE             d eps       ncg     rms          rms(c)
DAV:   1    -0.233620498476E+04    0.85547E-03   -0.87640E-02  4524   0.296E-01    0.870E-02
RMM:   2    -0.233620600787E+04   -0.10231E-02   -0.10945E-02  6205   0.630E-02    0.469E-02
RMM:   3    -0.233620608479E+04   -0.76920E-04   -0.10669E-03  3851   0.237E-02    0.434E-02
RMM:   4    -0.233620607781E+04    0.69764E-05   -0.11570E-04  3005   0.641E-03    0.318E-02
RMM:   5    -0.233620607006E+04    0.77448E-05   -0.33997E-05  2951   0.453E-03
 118 F= -.23577416E+04 E0= -.23577416E+04  d E =-.263820E-03  mag=     4.9998
       N       E                     dE             d eps       ncg     rms          rms(c)
DAV:   1    -0.233620531767E+04    0.76014E-03   -0.59894E-02  4524   0.245E-01    0.740E-02
RMM:   2    -0.233620603169E+04   -0.71402E-03   -0.75619E-03  6380   0.537E-02    0.483E-02
RMM:   3    -0.233620608353E+04   -0.51843E-04   -0.76446E-04  3472   0.194E-02    0.437E-02
RMM:   4    -0.233620606469E+04    0.18843E-04   -0.80787E-05  3016   0.637E-03    0.228E-02
RMM:   5    -0.233620606362E+04    0.10671E-05   -0.27353E-05  2955   0.414E-03
 119 F= -.23577417E+04 E0= -.23577416E+04  d E =-.286731E-03  mag=     4.9998
       N       E                     dE             d eps       ncg     rms          rms(c)
DAV:   1    -0.233620475847E+04    0.13062E-02   -0.11137E-01  4524   0.332E-01    0.103E-01
RMM:   2    -0.233620619471E+04   -0.14362E-02   -0.15267E-02  6286   0.748E-02    0.569E-02
RMM:   3    -0.233620630119E+04   -0.10648E-03   -0.14759E-03  4100   0.276E-02    0.513E-02
RMM:   4    -0.233620628383E+04    0.17364E-04   -0.15935E-04  3073   0.765E-03    0.335E-02
RMM:   5    -0.233620627806E+04    0.57677E-05   -0.45331E-05  2964   0.533E-03
 120 F= -.23577419E+04 E0= -.23577419E+04  d E =-.288596E-03  mag=     4.9998
       N       E                     dE             d eps       ncg     rms          rms(c)
DAV:   1    -0.233620585918E+04    0.42464E-03   -0.27464E-02  4624   0.165E-01    0.542E-02
RMM:   2    -0.233620622867E+04   -0.36949E-03   -0.38683E-03  6330   0.390E-02    0.417E-02
RMM:   3    -0.233620625246E+04   -0.23790E-04   -0.40043E-04  3095   0.139E-02    0.379E-02
RMM:   4    -0.233620624103E+04    0.11424E-04   -0.42467E-05  2958   0.491E-03    0.188E-02
RMM:   5    -0.233620624146E+04   -0.42838E-06   -0.14282E-05  2930   0.260E-03
 121 F= -.23577419E+04 E0= -.23577419E+04  d E =-.289243E-03  mag=     4.9998
       N       E                     dE             d eps       ncg     rms          rms(c)
DAV:   1    -0.233620473165E+04    0.15094E-02   -0.10933E-01  4524   0.324E-01    0.106E-01
RMM:   2    -0.233620633390E+04   -0.16022E-02   -0.16698E-02  6228   0.760E-02    0.783E-02
RMM:   3    -0.233620646088E+04   -0.12698E-03   -0.16785E-03  4058   0.280E-02    0.817E-02
RMM:   4    -0.233620639702E+04    0.63851E-04   -0.17554E-04  3015   0.795E-03    0.334E-02
RMM:   5    -0.233620639677E+04    0.25547E-06   -0.52961E-05  3045   0.498E-03
 122 F= -.23577422E+04 E0= -.23577422E+04  d E =-.301707E-03  mag=     4.9998
       N       E                     dE             d eps       ncg     rms          rms(c)
DAV:   1    -0.233620611869E+04    0.27834E-03   -0.13946E-02  4800   0.117E-01    0.400E-02
RMM:   2    -0.233620633242E+04   -0.21373E-03   -0.22072E-03  6051   0.290E-02    0.349E-02
RMM:   3    -0.233620634509E+04   -0.12677E-04   -0.24404E-04  2972   0.109E-02    0.282E-02
RMM:   4    -0.233620633654E+04    0.85581E-05   -0.23114E-05  2953   0.387E-03
 123 F= -.23577422E+04 E0= -.23577422E+04  d E =-.294575E-03  mag=     4.9998
       N       E                     dE             d eps       ncg     rms          rms(c)
DAV:   1    -0.233620446303E+04    0.18821E-02   -0.13119E-01  4524   0.363E-01    0.118E-01
RMM:   2    -0.233620634673E+04   -0.18837E-02   -0.19852E-02  6241   0.839E-02    0.695E-02
RMM:   3    -0.233620648379E+04   -0.13707E-03   -0.19684E-03  4267   0.308E-02    0.641E-02
RMM:   4    -0.233620644872E+04    0.35071E-04   -0.21346E-04  3136   0.838E-03    0.370E-02
RMM:   5    -0.233620644278E+04    0.59466E-05   -0.56824E-05  3023   0.562E-03
 124 F= -.23577426E+04 E0= -.23577425E+04  d E =-.325398E-03  mag=     4.9998
       N       E                     dE             d eps       ncg     rms          rms(c)
DAV:   1    -0.233620617360E+04    0.27513E-03   -0.11782E-02  5024   0.110E-01    0.395E-02
RMM:   2    -0.233620635977E+04   -0.18617E-03   -0.18900E-03  6037   0.275E-02    0.406E-02
RMM:   3    -0.233620636312E+04   -0.33565E-05   -0.20448E-04  2966   0.101E-02    0.271E-02
RMM:   4    -0.233620635803E+04    0.50950E-05   -0.21929E-05  2959   0.356E-03
 125 F= -.23577425E+04 E0= -.23577425E+04  d E =-.307537E-03  mag=     4.9998
       N       E                     dE             d eps       ncg     rms          rms(c)
DAV:   1    -0.233620423018E+04    0.21329E-02   -0.14241E-01  4524   0.376E-01    0.121E-01
RMM:   2    -0.233620624950E+04   -0.20193E-02   -0.21190E-02  6264   0.866E-02    0.712E-02
RMM:   3    -0.233620639683E+04   -0.14733E-03   -0.20834E-03  4410   0.314E-02    0.686E-02
RMM:   4    -0.233620636580E+04    0.31026E-04   -0.22679E-04  3056   0.805E-03    0.436E-02
RMM:   5    -0.233620635522E+04    0.10578E-04   -0.58788E-05  3026   0.551E-03    0.361E-02
RMM:   6    -0.233620634103E+04    0.14192E-04   -0.45551E-05  3004   0.541E-03    0.151E-02
RMM:   7    -0.233620633946E+04    0.15717E-05   -0.98860E-06  2926   0.389E-03
 126 F= -.23577428E+04 E0= -.23577428E+04  d E =-.286811E-03  mag=     4.9998
       N       E                     dE             d eps       ncg     rms          rms(c)
DAV:   1    -0.233620609636E+04    0.24467E-03   -0.10387E-02  4816   0.102E-01    0.336E-02
RMM:   2    -0.233620624733E+04   -0.15097E-03   -0.15761E-03  5959   0.247E-02    0.227E-02
RMM:   3    -0.233620625929E+04   -0.11962E-04   -0.16445E-04  2945   0.951E-03    0.224E-02
RMM:   4    -0.233620625431E+04    0.49840E-05   -0.17660E-05  2940   0.319E-03
 127 F= -.23577428E+04 E0= -.23577428E+04  d E =-.284595E-03  mag=     4.9998
       N       E                     dE             d eps       ncg     rms          rms(c)
DAV:   1    -0.233620410404E+04    0.21552E-02   -0.14620E-01  4524   0.373E-01    0.125E-01
RMM:   2    -0.233620616520E+04   -0.20612E-02   -0.21419E-02  6225   0.861E-02    0.938E-02
RMM:   3    -0.233620632760E+04   -0.16240E-03   -0.21738E-03  4456   0.307E-02    0.100E-01
RMM:   4    -0.233620624274E+04    0.84860E-04   -0.23688E-04  3013   0.845E-03    0.393E-02
RMM:   5    -0.233620623732E+04    0.54129E-05   -0.67073E-05  3107   0.584E-03
 128 F= -.23577432E+04 E0= -.23577431E+04  d E =-.322438E-03  mag=     4.9998
       N       E                     dE             d eps       ncg     rms          rms(c)
DAV:   1    -0.233620613515E+04    0.10759E-03   -0.22226E-03  5496   0.480E-02    0.205E-02
RMM:   2    -0.233620617509E+04   -0.39942E-04   -0.37705E-04  4517   0.123E-02    0.240E-02
RMM:   3    -0.233620617100E+04    0.40912E-05   -0.45334E-05  2891   0.581E-03
 129 F= -.23577431E+04 E0= -.23577431E+04  d E =-.299846E-03  mag=     4.9998
       N       E                     dE             d eps       ncg     rms          rms(c)
DAV:   1    -0.233620422405E+04    0.19510E-02   -0.14514E-01  4524   0.370E-01    0.124E-01
RMM:   2    -0.233620617223E+04   -0.19482E-02   -0.20575E-02  6164   0.840E-02    0.725E-02
RMM:   3    -0.233620630954E+04   -0.13731E-03   -0.20202E-03  4535   0.319E-02    0.677E-02
RMM:   4    -0.233620627861E+04    0.30926E-04   -0.22603E-04  3026   0.811E-03    0.444E-02
RMM:   5    -0.233620627198E+04    0.66325E-05   -0.63941E-05  3031   0.564E-03
 130 F= -.23577435E+04 E0= -.23577434E+04  d E =-.322348E-03  mag=     4.9998
       N       E                     dE             d eps       ncg     rms          rms(c)
DAV:   1    -0.233620606959E+04    0.20902E-03   -0.83592E-03  5120   0.900E-02    0.334E-02
RMM:   2    -0.233620619523E+04   -0.12564E-03   -0.12650E-03  5827   0.224E-02    0.318E-02
RMM:   3    -0.233620619419E+04    0.10439E-05   -0.13158E-04  2949   0.839E-03    0.190E-02
RMM:   4    -0.233620619032E+04    0.38652E-05   -0.14263E-05  2961   0.318E-03
 131 F= -.23577434E+04 E0= -.23577434E+04  d E =-.295210E-03  mag=     4.9998
       N       E                     dE             d eps       ncg     rms          rms(c)
DAV:   1    -0.233620433644E+04    0.18577E-02   -0.13969E-01  4524   0.358E-01    0.117E-01
RMM:   2    -0.233620621704E+04   -0.18806E-02   -0.19630E-02  6280   0.801E-02    0.864E-02
RMM:   3    -0.233620635941E+04   -0.14237E-03   -0.19979E-03  4381   0.294E-02    0.905E-02
RMM:   4    -0.233620629762E+04    0.61783E-04   -0.21902E-04  3011   0.808E-03    0.366E-02
RMM:   5    -0.233620629696E+04    0.66598E-06   -0.59219E-05  3081   0.524E-03
 132 F= -.23577437E+04 E0= -.23577437E+04  d E =-.324541E-03  mag=     4.9998
       N       E                     dE             d eps       ncg     rms          rms(c)
DAV:   1    -0.233620575117E+04    0.54646E-03   -0.30499E-02  4528   0.168E-01    0.560E-02
RMM:   2    -0.233620617339E+04   -0.42223E-03   -0.43621E-03  6287   0.396E-02    0.459E-02
RMM:   3    -0.233620619660E+04   -0.23206E-04   -0.45752E-04  3180   0.143E-02    0.382E-02
RMM:   4    -0.233620618170E+04    0.14897E-04   -0.47413E-05  2967   0.518E-03    0.163E-02
RMM:   5    -0.233620618286E+04   -0.11548E-05   -0.16624E-05  2978   0.294E-03
 133 F= -.23577437E+04 E0= -.23577437E+04  d E =-.313434E-03  mag=     4.9998
       N       E                     dE             d eps       ncg     rms          rms(c)
DAV:   1    -0.233620443822E+04    0.17435E-02   -0.12952E-01  4520   0.350E-01    0.115E-01
RMM:   2    -0.233620612062E+04   -0.16824E-02   -0.17646E-02  6131   0.780E-02    0.747E-02
RMM:   3    -0.233620625780E+04   -0.13717E-03   -0.18158E-03  4457   0.301E-02    0.865E-02
RMM:   4    -0.233620620033E+04    0.57461E-04   -0.19946E-04  2988   0.785E-03    0.363E-02
RMM:   5    -0.233620619749E+04    0.28402E-05   -0.53630E-05  3090   0.509E-03
 134 F= -.23577441E+04 E0= -.23577441E+04  d E =-.330808E-03  mag=     4.9998
       N       E                     dE             d eps       ncg     rms          rms(c)
DAV:   1    -0.233620584899E+04    0.35135E-03   -0.16147E-02  4784   0.124E-01    0.428E-02
RMM:   2    -0.233620607002E+04   -0.22104E-03   -0.22613E-03  6066   0.297E-02    0.366E-02
RMM:   3    -0.233620607948E+04   -0.94573E-05   -0.24724E-04  3023   0.112E-02    0.283E-02
RMM:   4    -0.233620607042E+04    0.90631E-05   -0.24812E-05  2955   0.415E-03
 135 F= -.23577441E+04 E0= -.23577440E+04  d E =-.317089E-03  mag=     4.9998
       N       E                     dE             d eps       ncg     rms          rms(c)
DAV:   1    -0.233620457008E+04    0.15094E-02   -0.10202E-01  4524   0.311E-01    0.101E-01
RMM:   2    -0.233620595951E+04   -0.13894E-02   -0.14698E-02  6242   0.717E-02    0.527E-02
RMM:   3    -0.233620605664E+04   -0.97139E-04   -0.14955E-03  4102   0.269E-02    0.435E-02
RMM:   4    -0.233620605523E+04    0.14136E-05   -0.15990E-04  3047   0.697E-03    0.385E-02
RMM:   5    -0.233620604074E+04    0.14488E-04   -0.40663E-05  3024   0.491E-03    0.244E-02
RMM:   6    -0.233620603831E+04    0.24293E-05   -0.27395E-05  2925   0.457E-03
 136 F= -.23577444E+04 E0= -.23577443E+04  d E =-.301935E-03  mag=     4.9998
       N       E                     dE             d eps       ncg     rms          rms(c)
DAV:   1    -0.233620552869E+04    0.51205E-03   -0.23809E-02  4608   0.150E-01    0.509E-02
RMM:   2    -0.233620586162E+04   -0.33292E-03   -0.34874E-03  6180   0.351E-02    0.317E-02
RMM:   3    -0.233620588244E+04   -0.20824E-04   -0.36413E-04  3084   0.135E-02    0.247E-02
RMM:   4    -0.233620587638E+04    0.60576E-05   -0.38132E-05  2978   0.433E-03
 137 F= -.23577444E+04 E0= -.23577443E+04  d E =-.302184E-03  mag=     4.9998
       N       E                     dE             d eps       ncg     rms          rms(c)
DAV:   1    -0.233620435248E+04    0.15300E-02   -0.10745E-01  4524   0.319E-01    0.106E-01
RMM:   2    -0.233620577734E+04   -0.14249E-02   -0.14959E-02  6179   0.733E-02    0.661E-02
RMM:   3    -0.233620587872E+04   -0.10139E-03   -0.15664E-03  4131   0.284E-02    0.620E-02
RMM:   4    -0.233620584468E+04    0.34045E-04   -0.17224E-04  3098   0.793E-03    0.324E-02
RMM:   5    -0.233620584203E+04    0.26538E-05   -0.47743E-05  3037   0.525E-03
 138 F= -.23577446E+04 E0= -.23577446E+04  d E =-.253375E-03  mag=     4.9998
       N       E                     dE             d eps       ncg     rms          rms(c)
DAV:   1    -0.233620566700E+04    0.17768E-03   -0.60110E-03  5120   0.767E-02    0.289E-02
RMM:   2    -0.233620576001E+04   -0.93007E-04   -0.89944E-04  5647   0.190E-02    0.361E-02
RMM:   3    -0.233620575708E+04    0.29257E-05   -0.10614E-04  2929   0.762E-03    0.191E-02
RMM:   4    -0.233620575468E+04    0.24026E-05   -0.12123E-05  2952   0.263E-03
 139 F= -.23577446E+04 E0= -.23577446E+04  d E =-.235674E-03  mag=     4.9998
       N       E                     dE             d eps       ncg     rms          rms(c)
DAV:   1    -0.233620482251E+04    0.93457E-03   -0.77253E-02  4524   0.276E-01    0.922E-02
RMM:   2    -0.233620575829E+04   -0.93577E-03   -0.98957E-03  6153   0.626E-02    0.519E-02
RMM:   3    -0.233620581264E+04   -0.54350E-04   -0.96520E-04  3834   0.232E-02    0.451E-02
RMM:   4    -0.233620579772E+04    0.14913E-04   -0.11043E-04  3034   0.672E-03    0.313E-02
RMM:   5    -0.233620579555E+04    0.21751E-05   -0.37768E-05  2959   0.471E-03
 140 F= -.23577448E+04 E0= -.23577448E+04  d E =-.234185E-03  mag=     4.9998
       N       E                     dE             d eps       ncg     rms          rms(c)
DAV:   1    -0.233620564642E+04    0.15130E-03   -0.61107E-03  5072   0.786E-02    0.291E-02
RMM:   2    -0.233620573166E+04   -0.85236E-04   -0.84251E-04  5698   0.196E-02    0.291E-02
RMM:   3    -0.233620572960E+04    0.20623E-05   -0.99991E-05  2932   0.769E-03
 141 F= -.23577448E+04 E0= -.23577448E+04  d E =-.223811E-03  mag=     4.9998
       N       E                     dE             d eps       ncg     rms          rms(c)
DAV:   1    -0.233620499003E+04    0.74163E-03   -0.61236E-02  4524   0.252E-01    0.892E-02
RMM:   2    -0.233620571642E+04   -0.72639E-03   -0.76062E-03  6096   0.568E-02    0.613E-02
RMM:   3    -0.233620575179E+04   -0.35372E-04   -0.76282E-04  3713   0.210E-02    0.593E-02
RMM:   4    -0.233620572128E+04    0.30511E-04   -0.95760E-05  2975   0.656E-03    0.312E-02
RMM:   5    -0.233620571798E+04    0.32973E-05   -0.31476E-05  2965   0.420E-03
 142 F= -.23577450E+04 E0= -.23577450E+04  d E =-.185841E-03  mag=     4.9998
       N       E                     dE             d eps       ncg     rms          rms(c)
DAV:   1    -0.233620565588E+04    0.65404E-04   -0.12680E-03  5464   0.375E-02    0.142E-02
RMM:   2    -0.233620567349E+04   -0.17618E-04   -0.18147E-04  3859   0.957E-03    0.127E-02
RMM:   3    -0.233620567399E+04   -0.49903E-06   -0.21974E-05  2733   0.506E-03
 143 F= -.23577450E+04 E0= -.23577450E+04  d E =-.171912E-03  mag=     4.9998
       N       E                     dE             d eps       ncg     rms          rms(c)
DAV:   1    -0.233620494938E+04    0.72411E-03   -0.56343E-02  4524   0.241E-01    0.825E-02
RMM:   2    -0.233620561279E+04   -0.66341E-03   -0.70656E-03  6110   0.538E-02    0.437E-02
RMM:   3    -0.233620564885E+04   -0.36059E-04   -0.68173E-04  3693   0.207E-02    0.358E-02
RMM:   4    -0.233620563746E+04    0.11386E-04   -0.79552E-05  3014   0.607E-03    0.244E-02
RMM:   5    -0.233620563495E+04    0.25113E-05   -0.28683E-05  2946   0.448E-03
 144 F= -.23577452E+04 E0= -.23577451E+04  d E =-.163192E-03  mag=     4.9998
       N       E                     dE             d eps       ncg     rms          rms(c)
DAV:   1    -0.233620556986E+04    0.67597E-04   -0.15372E-03  5376   0.409E-02    0.178E-02
RMM:   2    -0.233620559626E+04   -0.26398E-04   -0.21776E-04  4093   0.104E-02    0.276E-02
RMM:   3    -0.233620559017E+04    0.60897E-05   -0.30102E-05  2760   0.524E-03
 145 F= -.23577451E+04 E0= -.23577451E+04  d E =-.152916E-03  mag=     4.9998
       N       E                     dE             d eps       ncg     rms          rms(c)
DAV:   1    -0.233620490715E+04    0.68911E-03   -0.61740E-02  4524   0.256E-01    0.865E-02
RMM:   2    -0.233620556550E+04   -0.65835E-03   -0.69893E-03  6088   0.547E-02    0.466E-02
RMM:   3    -0.233620560274E+04   -0.37241E-04   -0.68125E-04  3880   0.213E-02    0.411E-02
RMM:   4    -0.233620558341E+04    0.19330E-04   -0.79275E-05  2993   0.626E-03    0.249E-02
RMM:   5    -0.233620558312E+04    0.29585E-06   -0.31827E-05  2955   0.459E-03
 146 F= -.23577453E+04 E0= -.23577453E+04  d E =-.167004E-03  mag=     4.9998
       N       E                     dE             d eps       ncg     rms          rms(c)
DAV:   1    -0.233620547539E+04    0.10803E-03   -0.39773E-03  5312   0.658E-02    0.237E-02
RMM:   2    -0.233620552251E+04   -0.47128E-04   -0.48148E-04  5214   0.158E-02    0.188E-02
RMM:   3    -0.233620552502E+04   -0.25071E-05   -0.56697E-05  2919   0.662E-03
 147 F= -.23577453E+04 E0= -.23577453E+04  d E =-.154144E-03  mag=     4.9998
       N       E                     dE             d eps       ncg     rms          rms(c)
DAV:   1    -0.233620487384E+04    0.64868E-03   -0.56726E-02  4524   0.238E-01    0.810E-02
RMM:   2    -0.233620551744E+04   -0.64360E-03   -0.66710E-03  6139   0.517E-02    0.595E-02
RMM:   3    -0.233620555775E+04   -0.40309E-04   -0.69404E-04  3652   0.192E-02    0.630E-02
RMM:   4    -0.233620552331E+04    0.34442E-04   -0.85508E-05  2961   0.593E-03    0.270E-02
RMM:   5    -0.233620552073E+04    0.25777E-05   -0.26141E-05  2985   0.377E-03
 148 F= -.23577455E+04 E0= -.23577455E+04  d E =-.168584E-03  mag=     4.9998
       N       E                     dE             d eps       ncg     rms          rms(c)
DAV:   1    -0.233620534171E+04    0.18160E-03   -0.86181E-03  4808   0.933E-02    0.317E-02
RMM:   2    -0.233620544133E+04   -0.99622E-04   -0.10283E-03  5856   0.216E-02    0.241E-02
RMM:   3    -0.233620544718E+04   -0.58496E-05   -0.11417E-04  2976   0.824E-03    0.221E-02
RMM:   4    -0.233620544123E+04    0.59529E-05   -0.12202E-05  2931   0.321E-03
 149 F= -.23577455E+04 E0= -.23577454E+04  d E =-.157800E-03  mag=     4.9998
       N       E                     dE             d eps       ncg     rms          rms(c)
DAV:   1    -0.233620465625E+04    0.79093E-03   -0.64070E-02  4520   0.249E-01    0.852E-02
RMM:   2    -0.233620541273E+04   -0.75648E-03   -0.80432E-03  6194   0.560E-02    0.433E-02
RMM:   3    -0.233620546345E+04   -0.50721E-04   -0.82342E-04  3802   0.210E-02    0.405E-02
RMM:   4    -0.233620544971E+04    0.13744E-04   -0.89397E-05  3014   0.601E-03    0.263E-02
RMM:   5    -0.233620544474E+04    0.49708E-05   -0.28451E-05  3004   0.426E-03
 150 F= -.23577456E+04 E0= -.23577456E+04  d E =-.179687E-03  mag=     4.9998
